Membrane in water t=  30.00000 step= 30000
48141
  945MPD0     C    1   1.350   2.850   7.467
  945MPD0    C1    2   1.421   2.744   7.419
  945MPD0    C2    3   1.523   2.691   7.496
  945MPD0    C3    4   1.547   2.734   7.625
  945MPD0    C4    5   1.473   2.839   7.677
  945MPD0    C5    6   1.385   2.899   7.592
  945MPD0     H    7   1.582   2.607   7.460
  945MPD0    H1    8   1.474   2.872   7.780
  945MPD0    H2    9   1.269   2.900   7.415
  945MPD0    H3   10   1.335   2.985   7.634
  945MPD0     N   11   1.627   2.660   7.717
  945MPD0    H4   12   1.676   2.725   7.778
  945MPD0    H5   13   1.703   2.609   7.672
  945MPD0    N1   14   1.387   2.683   7.300
  945MPD0    H6   15   1.294   2.695   7.261
  945MPD0    H7   16   1.402   2.583   7.304
  946MPD0     C   17   2.683   0.310  11.714
  946MPD0    C1   18   2.647   0.183  11.752
  946MPD0    C2   19   2.733   0.098  11.821
  946MPD0    C3   20   2.864   0.133  11.841
  946MPD0    C4   21   2.908   0.250  11.790
  946MPD0    C5   22   2.815   0.344  11.746
  946MPD0     H   23   2.692   0.000  11.844
  946MPD0    H1   24   3.012   0.279  11.779
  946MPD0    H2   25   2.612   0.381  11.673
  946MPD0    H3   26   2.854   0.436  11.703
  946MPD0     N   27   2.959   0.041  11.890
  946MPD0    H4   28   3.038   0.091  11.929
  946MPD0    H5   29   2.924   4.759  11.948
  946MPD0    N1   30   2.519   0.125  11.721
  946MPD0    H6   31   2.489   0.143  11.626
  946MPD0    H7   32   2.535   0.025  11.730
  947MPD0     C   33   4.578   3.982  13.268
  947MPD0    C1   34   4.537   4.084  13.352
  947MPD0    C2   35   4.402   4.085  13.387
  947MPD0    C3   36   4.309   3.988  13.349
  947MPD0    C4   37   4.355   3.884  13.268
  947MPD0    C5   38   4.489   3.887  13.230
  947MPD0     H   39   4.372   4.163  13.456
  947MPD0    H1   40   4.305   3.790  13.249
  947MPD0    H2   41   4.680   3.974  13.232
  947MPD0    H3   42   4.534   3.808  13.171
  947MPD0     N   43   4.188   3.979  13.414
  947MPD0    H4   44   4.156   4.066  13.455
  947MPD0    H5   45   4.119   3.918  13.369
  947MPD0    N1   46   4.613   4.188  13.401
  947MPD0    H6   47   4.712   4.191  13.378
  947MPD0    H7   48   4.598   4.196  13.501
  948MPD0     C   49   0.832   2.322   6.387
  948MPD0    C1   50   0.920   2.341   6.284
  948MPD0    C2   51   1.047   2.390   6.299
  948MPD0    C3   52   1.096   2.403   6.426
  948MPD0    C4   53   1.008   2.382   6.538
  948MPD0    C5   54   0.875   2.348   6.522
  948MPD0     H   55   1.108   2.408   6.211
  948MPD0    H1   56   1.043   2.387   6.641
  948MPD0    H2   57   0.730   2.294   6.364
  948MPD0    H3   58   0.812   2.330   6.609
  948MPD0     N   59   1.226   2.452   6.441
  948MPD0    H4   60   1.269   2.426   6.529
  948MPD0    H5   61   1.286   2.414   6.369
  948MPD0    N1   62   0.860   2.331   6.156
  948MPD0    H6   63   0.801   2.249   6.146
  948MPD0    H7   64   0.930   2.304   6.087
  949MPD0     C   65   1.398   3.483   7.391
  949MPD0    C1   66   1.365   3.617   7.391
  949MPD0    C2   67   1.341   3.679   7.515
  949MPD0    C3   68   1.354   3.602   7.632
  949MPD0    C4   69   1.390   3.473   7.626
  949MPD0    C5   70   1.410   3.413   7.508
  949MPD0     H   71   1.332   3.787   7.513
  949MPD0    H1   72   1.402   3.414   7.716
  949MPD0    H2   73   1.403   3.429   7.298
  949MPD0    H3   74   1.456   3.315   7.506
  949MPD0     N   75   1.354   3.673   7.758
  949MPD0    H4   76   1.309   3.624   7.835
  949MPD0    H5   77   1.294   3.755   7.748
  949MPD0    N1   78   1.362   3.682   7.268
  949MPD0    H6   79   1.450   3.665   7.220
  949MPD0    H7   80   1.340   3.781   7.277
  950MPD0     C   81   0.701   2.787  12.676
  950MPD0    C1   82   0.652   2.836  12.797
  950MPD0    C2   83   0.567   2.947  12.793
  950MPD0    C3   84   0.543   3.016  12.673
  950MPD0    C4   85   0.601   2.967  12.559
  950MPD0    C5   86   0.668   2.847  12.561
  950MPD0     H   87   0.517   2.973  12.885
  950MPD0    H1   88   0.564   2.993  12.461
  950MPD0    H2   89   0.760   2.696  12.676
  950MPD0    H3   90   0.712   2.807  12.470
  950MPD0     N   91   0.447   3.119  12.666
  950MPD0    H4   92   0.415   3.149  12.758
  950MPD0    H5   93   0.468   3.190  12.597
  950MPD0    N1   94   0.664   2.763  12.914
  950MPD0    H6   95   0.748   2.706  12.919
  950MPD0    H7   96   0.670   2.826  12.993
  951MPD0     C   97   2.795   1.795  12.634
  951MPD0    C1   98   2.789   1.721  12.744
  951MPD0    C2   99   2.725   1.771  12.859
  951MPD0    C3  100   2.673   1.904  12.864
  951MPD0    C4  101   2.689   1.974  12.747
  951MPD0    C5  102   2.740   1.917  12.637
  951MPD0     H  103   2.709   1.707  12.945
  951MPD0    H1  104   2.645   2.072  12.734
  951MPD0    H2  105   2.845   1.756  12.546
  951MPD0    H3  106   2.744   1.975  12.546
  951MPD0     N  107   2.587   1.954  12.964
  951MPD0    H4  108   2.590   2.055  12.976
  951MPD0    H5  109   2.583   1.905  13.053
  951MPD0    N1  110   2.852   1.597  12.754
  951MPD0    H6  111   2.870   1.552  12.664
  951MPD0    H7  112   2.801   1.544  12.824
  952MPD0     C  113   3.661   0.063   1.342
  952MPD0    C1  114   3.737   4.742   1.320
  952MPD0    C2  115   3.746   4.650   1.421
  952MPD0    C3  116   3.670   4.657   1.535
  952MPD0    C4  117   3.592   4.770   1.554
  952MPD0    C5  118   3.589   0.070   1.456
  952MPD0     H  119   3.808   4.564   1.400
  952MPD0    H1  120   3.526   4.788   1.638
  952MPD0    H2  121   3.649   0.146   1.273
  952MPD0    H3  122   3.535   0.162   1.473
  952MPD0     N  123   3.679   4.563   1.641
  952MPD0    H4  124   3.720   4.474   1.614
  952MPD0    H5  125   3.603   4.557   1.708
  952MPD0    N1  126   3.814   4.725   1.204
  952MPD0    H6  127   3.860   4.636   1.184
  952MPD0    H7  128   3.764   4.752   1.120
  953MPD0     C  129   1.070   3.577  11.784
  953MPD0    C1  130   0.938   3.573  11.833
  953MPD0    C2  131   0.929   3.521  11.962
  953MPD0    C3  132   1.042   3.465  12.027
  953MPD0    C4  133   1.172   3.480  11.973
  953MPD0    C5  134   1.182   3.529  11.847
  953MPD0     H  135   0.826   3.510  11.993
  953MPD0    H1  136   1.261   3.456  12.031
  953MPD0    H2  137   1.094   3.624  11.690
  953MPD0    H3  138   1.279   3.542  11.799
  953MPD0     N  139   1.029   3.404  12.149
  953MPD0    H4  140   1.105   3.338  12.164
  953MPD0    H5  141   0.945   3.347  12.163
  953MPD0    N1  142   0.834   3.632  11.757
  953MPD0    H6  143   0.748   3.588  11.787
  953MPD0    H7  144   0.850   3.619  11.657
  954MPD0     C  145   0.188   0.649  13.839
  954MPD0    C1  146   0.087   0.558  13.809
  954MPD0    C2  147   4.791   0.526  13.908
  954MPD0    C3  148   4.787   0.598  14.026
  954MPD0    C4  149   0.075   0.712  14.040
  954MPD0    C5  150   0.178   0.734  13.950
  954MPD0     H  151   4.711   0.455  13.890
  954MPD0    H1  152   0.053   0.782  14.119
  954MPD0    H2  153   0.257   0.677  13.760
  954MPD0    H3  154   0.240   0.822  13.954
  954MPD0     N  155   4.680   0.582  14.120
  954MPD0    H4  156   4.642   0.487  14.117
  954MPD0    H5  157   4.714   0.594  14.215
  954MPD0    N1  158   0.082   0.493  13.689
  954MPD0    H6  159   0.118   0.548  13.611
  954MPD0    H7  160   4.784   0.455  13.667
  955MPD0     C  161   2.733   2.407   7.890
  955MPD0    C1  162   2.856   2.408   7.939
  955MPD0    C2  163   2.872   2.428   8.069
  955MPD0    C3  164   2.773   2.438   8.157
  955MPD0    C4  165   2.648   2.436   8.105
  955MPD0    C5  166   2.625   2.418   7.976
  955MPD0     H  167   2.972   2.450   8.106
  955MPD0    H1  168   2.558   2.444   8.166
  955MPD0    H2  169   2.717   2.391   7.784
  955MPD0    H3  170   2.527   2.408   7.930
  955MPD0     N  171   2.801   2.484   8.288
  955MPD0    H4  172   2.894   2.456   8.317
  955MPD0    H5  173   2.727   2.449   8.348
  955MPD0    N1  174   2.964   2.399   7.848
  955MPD0    H6  175   2.956   2.318   7.786
  955MPD0    H7  176   3.042   2.366   7.905
  956MPD0     C  177   0.283   3.277   7.266
  956MPD0    C1  178   0.317   3.195   7.161
  956MPD0    C2  179   0.329   3.247   7.040
  956MPD0    C3  180   0.335   3.382   7.008
  956MPD0    C4  181   0.302   3.464   7.115
  956MPD0    C5  182   0.287   3.411   7.238
  956MPD0     H  183   0.338   3.181   6.954
  956MPD0    H1  184   0.301   3.570   7.097
  956MPD0    H2  185   0.286   3.247   7.370
  956MPD0    H3  186   0.281   3.492   7.310
  956MPD0     N  187   0.330   3.424   6.874
  956MPD0    H4  188   0.369   3.516   6.852
  956MPD0    H5  189   0.380   3.349   6.827
  956MPD0    N1  190   0.311   3.058   7.183
  956MPD0    H6  191   0.381   3.013   7.124
  956MPD0    H7  192   0.318   3.031   7.281
  957MPD0     C  193   3.140   4.247  11.511
  957MPD0    C1  194   3.221   4.298  11.611
  957MPD0    C2  195   3.192   4.265  11.741
  957MPD0    C3  196   3.087   4.177  11.776
  957MPD0    C4  197   3.037   4.104  11.671
  957MPD0    C5  198   3.055   4.145  11.540
  957MPD0     H  199   3.250   4.315  11.817
  957MPD0    H1  200   2.981   4.013  11.693
  957MPD0    H2  201   3.172   4.277  11.412
  957MPD0    H3  202   3.000   4.108  11.454
  957MPD0     N  203   3.059   4.140  11.906
  957MPD0    H4  204   3.062   4.217  11.973
  957MPD0    H5  205   2.970   4.091  11.909
  957MPD0    N1  206   3.322   4.400  11.585
  957MPD0    H6  207   3.353   4.392  11.488
  957MPD0    H7  208   3.401   4.380  11.645
    1TMC1    C1  209   4.686   3.843   8.350
    1TMC1    C2  210   4.762   3.887   8.449
    1TMC1    C3  211   4.748   4.023   8.475
    1TMC1    C4  212   4.608   3.915   8.268
    1TMC1    C5  213   4.598   4.050   8.297
    1TMC1    C6  214   4.673   4.104   8.397
    1TMC1     C  215   4.718   3.713   8.307
    1TMC1     O  216   4.647   3.661   8.222
    1TMC1     H  217   0.018   3.821   8.520
    1TMC1    H1  218   4.539   3.876   8.194
    1TMC1    H2  219   4.677   4.212   8.399
    1TMC1    C7  220   4.499   4.141   8.236
    1TMC1    C8  221   0.058   4.094   8.542
    1TMC1    O1  222   4.445   4.231   8.301
    1TMC1    O2  223   0.114   4.186   8.487
    1TMC1    O3  224   4.448   4.094   8.121
    1TMC1    H3  225   4.513   4.036   8.077
    1TMC1    O5  226   0.079   4.039   8.668
    1TMC1    H5  227   0.013   3.968   8.685
    2TMC1    C1  228   3.629   4.140   7.802
    2TMC1    C2  229   3.701   4.195   7.697
    2TMC1    C3  230   3.725   4.117   7.584
    2TMC1    C4  231   3.601   4.000   7.802
    2TMC1    C5  232   3.641   3.926   7.690
    2TMC1    C6  233   3.702   3.979   7.581
    2TMC1     C  234   3.674   4.177   7.936
    2TMC1     O  235   3.737   4.091   8.000
    2TMC1     H  236   3.740   4.296   7.703
    2TMC1    H1  237   3.558   3.960   7.893
    2TMC1    H2  238   3.724   3.913   7.499
    2TMC1    C7  239   3.631   3.780   7.697
    2TMC1    C8  240   3.712   4.191   7.459
    2TMC1    O1  241   3.712   3.702   7.657
    2TMC1    O2  242   3.621   4.271   7.442
    2TMC1    O3  243   3.521   3.745   7.770
    2TMC1    H3  244   3.456   3.817   7.765
    2TMC1    O5  245   3.770   4.118   7.364
    2TMC1    H5  246   3.841   4.067   7.409
    3TMC1    C1  247   0.084   0.966   9.350
    3TMC1    C2  248   0.015   1.033   9.443
    3TMC1    C3  249   0.088   1.080   9.550
    3TMC1    C4  250   0.216   0.934   9.353
    3TMC1    C5  251   0.290   0.987   9.457
    3TMC1    C6  252   0.224   1.056   9.556
    3TMC1     C  253   0.026   0.938   9.225
    3TMC1     O  254   0.102   0.939   9.128
    3TMC1     H  255   4.707   1.070   9.434
    3TMC1    H1  256   0.265   0.880   9.273
    3TMC1    H2  257   0.271   1.088   9.648
    3TMC1    C7  258   0.433   0.964   9.465
    3TMC1    C8  259   0.032   1.176   9.641
    3TMC1    O1  260   0.495   0.974   9.574
    3TMC1    O2  261   0.096   1.266   9.692
    3TMC1    O3  262   0.481   1.019   9.348
    3TMC1    H3  263   0.418   1.017   9.272
    3TMC1    O5  264   4.731   1.109   9.710
    3TMC1    H5  265   4.712   1.029   9.657
    4TMC1    C1  266   1.989   0.209  10.098
    4TMC1    C2  267   1.992   0.199   9.959
    4TMC1    C3  268   1.921   0.104   9.890
    4TMC1    C4  269   1.894   0.134  10.165
    4TMC1    C5  270   1.821   0.044  10.092
    4TMC1    C6  271   1.834   0.013   9.962
    4TMC1     C  272   2.061   0.317  10.156
    4TMC1     O  273   2.120   0.392  10.081
    4TMC1     H  274   2.058   0.261   9.899
    4TMC1    H1  275   1.879   0.142  10.272
    4TMC1    H2  276   1.784   4.725   9.912
    4TMC1    C7  277   1.753   4.736  10.177
    4TMC1    C8  278   1.887   0.128   9.752
    4TMC1    O1  279   1.749   4.616  10.154
    4TMC1    O2  280   1.878   0.241   9.702
    4TMC1    O3  281   1.701   0.002  10.288
    4TMC1    H3  282   1.698   0.098  10.270
    4TMC1    O5  283   1.915   0.010   9.684
    4TMC1    H5  284   1.932   4.729   9.744
    5TMC1    C1  285   0.363   4.331   8.123
    5TMC1    C2  286   0.414   4.375   8.004
    5TMC1    C3  287   0.330   4.355   7.896
    5TMC1    C4  288   0.241   4.270   8.132
    5TMC1    C5  289   0.173   4.241   8.021
    5TMC1    C6  290   0.214   4.286   7.899
    5TMC1     C  291   0.436   4.366   8.247
    5TMC1     O  292   0.504   4.467   8.241
    5TMC1     H  293   0.511   4.422   8.001
    5TMC1    H1  294   0.200   4.238   8.227
    5TMC1    H2  295   0.138   4.290   7.821
    5TMC1    C7  296   0.033   4.253   8.035
    5TMC1    C8  297   0.321   4.455   7.791
    5TMC1    O1  298   4.776   4.366   8.029
    5TMC1    O2  299   0.223   4.475   7.720
    5TMC1    O3  300   4.787   4.150   8.108
    5TMC1    H3  301   0.040   4.064   8.102
    5TMC1    O5  302   0.435   4.529   7.775
    5TMC1    H5  303   0.510   4.498   7.830
    6TMC1    C1  304   0.755   3.692  10.907
    6TMC1    C2  305   0.803   3.776  11.006
    6TMC1    C3  306   0.932   3.811  11.016
    6TMC1    C4  307   0.839   3.656  10.806
    6TMC1    C5  308   0.972   3.687  10.820
    6TMC1    C6  309   1.022   3.757  10.924
    6TMC1     C  310   0.610   3.662  10.904
    6TMC1     O  311   0.541   3.747  10.960
    6TMC1     H  312   0.727   3.810  11.075
    6TMC1    H1  313   0.804   3.604  10.718
    6TMC1    H2  314   1.128   3.775  10.935
    6TMC1    C7  315   1.068   3.621  10.730
    6TMC1    C8  316   0.973   3.881  11.132
    6TMC1    O1  317   1.040   3.527  10.661
    6TMC1    O2  318   1.092   3.910  11.135
    6TMC1    O3  319   1.178   3.705  10.712
    6TMC1    H3  320   1.169   3.799  10.738
    6TMC1    O5  321   0.917   3.799  11.229
    6TMC1    H5  322   0.821   3.780  11.220
    7TMC1    C1  323   0.181   3.972   7.640
    7TMC1    C2  324   0.257   3.939   7.748
    7TMC1    C3  325   0.381   3.884   7.725
    7TMC1    C4  326   0.218   3.945   7.518
    7TMC1    C5  327   0.348   3.902   7.497
    7TMC1    C6  328   0.430   3.868   7.600
    7TMC1     C  329   0.063   4.045   7.657
    7TMC1     O  330   0.007   4.055   7.764
    7TMC1     H  331   0.223   3.971   7.846
    7TMC1    H1  332   0.156   3.967   7.432
    7TMC1    H2  333   0.528   3.826   7.579
    7TMC1    C7  334   0.404   3.881   7.367
    7TMC1    C8  335   0.477   3.932   7.826
    7TMC1    O1  336   0.511   3.937   7.336
    7TMC1    O2  337   0.451   4.021   7.904
    7TMC1    O3  338   0.372   3.742   7.367
    7TMC1    H3  339   0.308   3.713   7.436
    7TMC1    O5  340   0.586   3.847   7.829
    7TMC1    H5  341   0.576   3.779   7.759
    8TMC1    C1  342   1.317   2.151  15.279
    8TMC1    C2  343   1.428   2.174  15.353
    8TMC1    C3  344   1.411   2.252  15.465
    8TMC1    C4  345   1.197   2.215  15.302
    8TMC1    C5  346   1.184   2.296  15.412
    8TMC1    C6  347   1.290   2.309  15.497
    8TMC1     C  348   1.326   2.057  15.167
    8TMC1     O  349   1.441   2.035  15.135
    8TMC1     H  350   1.520   2.121  15.330
    8TMC1    H1  351   1.118   2.211  15.228
    8TMC1    H2  352   1.292   2.370  15.586
    8TMC1    C7  353   1.056   2.365  15.425
    8TMC1    C8  354   1.519   2.264  15.563
    8TMC1    O1  355   0.975   2.356  15.335
    8TMC1    O2  356   1.492   2.288  15.678
    8TMC1    O3  357   1.069   2.472  15.503
    8TMC1    H3  358   1.139   2.471  15.572
    8TMC1    O5  359   1.642   2.252  15.499
    8TMC1    H5  360   1.645   2.268  15.402
    9TMC1    C1  361   0.392   3.165   8.033
    9TMC1    C2  362   0.259   3.148   8.016
    9TMC1    C3  363   0.222   3.018   8.006
    9TMC1    C4  364   0.478   3.056   8.053
    9TMC1    C5  365   0.429   2.930   8.064
    9TMC1    C6  366   0.302   2.905   8.015
    9TMC1     C  367   0.427   3.300   8.077
    9TMC1     O  368   0.335   3.378   8.097
    9TMC1     H  369   0.183   3.222   8.037
    9TMC1    H1  370   0.586   3.060   8.067
    9TMC1    H2  371   0.261   2.806   8.003
    9TMC1    C7  372   0.518   2.822   8.076
    9TMC1    C8  373   0.090   2.995   7.956
    9TMC1    O1  374   0.640   2.827   8.060
    9TMC1    O2  375   0.010   3.082   7.978
    9TMC1    O3  376   0.450   2.717   8.125
    9TMC1    H3  377   0.360   2.740   8.155
    9TMC1    O5  378   0.104   2.929   7.833
    9TMC1    H5  379   0.178   2.868   7.809
   10TMC2    C1  380   1.743   3.556  11.115
   10TMC2    C2  381   1.826   3.578  11.010
   10TMC2    C3  382   1.806   3.497  10.910
   10TMC2    C4  383   1.644   3.469  11.134
   10TMC2    C5  384   1.645   3.380  11.034
   10TMC2    C6  385   1.716   3.397  10.918
   10TMC2     C  386   1.801   3.592  11.242
   10TMC2     O  387   1.873   3.687  11.251
   10TMC2     H  388   1.910   3.645  11.025
   10TMC2    H1  389   1.579   3.469  11.221
   10TMC2    H2  390   1.682   3.341  10.832
   10TMC2    C7  391   1.546   3.271  11.029
   10TMC2    C8  392   1.863   3.530  10.784
   10TMC2    O1  393   1.570   3.167  10.965
   10TMC2    O2  394   1.836   3.631  10.724
   10TMC2    O5  395   1.892   3.410  10.725
   10TMC2    H5  396   1.916   3.354  10.802
   11TMC2    C1  397   3.806   3.450  10.635
   11TMC2    C2  398   3.906   3.360  10.610
   11TMC2    C3  399   3.966   3.302  10.720
   11TMC2    C4  400   3.743   3.458  10.755
   11TMC2    C5  401   3.812   3.411  10.866
   11TMC2    C6  402   3.925   3.338  10.845
   11TMC2     C  403   3.757   3.523  10.523
   11TMC2     O  404   3.746   3.462  10.421
   11TMC2     H  405   3.946   3.356  10.510
   11TMC2    H1  406   3.639   3.489  10.755
   11TMC2    H2  407   3.977   3.302  10.934
   11TMC2    C7  408   3.809   3.497  10.984
   11TMC2    C8  409   4.088   3.229  10.708
   11TMC2    O1  410   3.887   3.472  11.073
   11TMC2    O2  411   4.140   3.187  10.809
   11TMC2    O5  412   4.087   3.162  10.593
   11TMC2    H5  413   4.011   3.176  10.533
   12TMC2    C1  414   4.634   0.030  10.723
   12TMC2    C2  415   4.670   0.066  10.598
   12TMC2    C3  416   4.581   0.040  10.496
   12TMC2    C4  417   4.516   4.761  10.743
   12TMC2    C5  418   4.433   4.728  10.634
   12TMC2    C6  419   4.467   4.758  10.507
   12TMC2     C  420   4.724   0.039  10.834
   12TMC2     O  421   4.686   0.029  10.951
   12TMC2     H  422   4.754   0.130  10.576
   12TMC2    H1  423   4.483   4.722  10.839
   12TMC2    H2  424   4.413   4.711  10.425
   12TMC2    C7  425   4.328   4.634  10.653
   12TMC2    C8  426   4.625   0.072  10.365
   12TMC2    O1  427   4.359   4.547  10.734
   12TMC2    O2  428   4.745   0.094  10.348
   12TMC2    O5  429   4.527   0.139  10.306
   12TMC2    H5  430   4.435   0.107  10.322
   13TMC2    C1  431   4.371   2.496   8.855
   13TMC2    C2  432   4.395   2.373   8.909
   13TMC2    C3  433   4.396   2.374   9.049
   13TMC2    C4  434   4.349   2.614   8.933
   13TMC2    C5  435   4.358   2.607   9.071
   13TMC2    C6  436   4.389   2.487   9.127
   13TMC2     C  437   4.358   2.500   8.709
   13TMC2     O  438   4.380   2.599   8.643
   13TMC2     H  439   4.436   2.291   8.852
   13TMC2    H1  440   4.335   2.710   8.885
   13TMC2    H2  441   4.407   2.478   9.234
   13TMC2    C7  442   4.252   2.678   9.150
   13TMC2    C8  443   4.458   2.267   9.119
   13TMC2    O1  444   4.244   2.655   9.266
   13TMC2    O2  445   4.533   2.186   9.065
   13TMC2    O5  446   4.383   2.238   9.223
   13TMC2    H5  447   4.321   2.310   9.249
   14TMC2    C1  448   2.613   0.178   9.056
   14TMC2    C2  449   2.737   0.202   9.111
   14TMC2    C3  450   2.835   0.249   9.031
   14TMC2    C4  451   2.594   0.188   8.918
   14TMC2    C5  452   2.699   0.228   8.842
   14TMC2    C6  453   2.817   0.268   8.894
   14TMC2     C  454   2.487   0.154   9.123
   14TMC2     O  455   2.388   0.130   9.055
   14TMC2     H  456   2.748   0.192   9.218
   14TMC2    H1  457   2.502   0.168   8.864
   14TMC2    H2  458   2.896   0.300   8.826
   14TMC2    C7  459   2.691   0.218   8.699
   14TMC2    C8  460   2.963   0.255   9.089
   14TMC2    O1  461   2.599   0.279   8.645
   14TMC2    O2  462   3.002   0.176   9.177
   14TMC2    O5  463   2.980   0.386   9.079
   14TMC2    H5  464   2.924   0.432   9.013
   15TMC2    C1  465   2.151   2.218  10.764
   15TMC2    C2  466   2.086   2.226  10.887
   15TMC2    C3  467   2.128   2.318  10.979
   15TMC2    C4  468   2.230   2.324  10.720
   15TMC2    C5  469   2.251   2.428  10.812
   15TMC2    C6  470   2.204   2.424  10.943
   15TMC2     C  471   2.115   2.115  10.671
   15TMC2     O  472   2.047   2.021  10.709
   15TMC2     H  473   2.005   2.159  10.912
   15TMC2    H1  474   2.268   2.333  10.619
   15TMC2    H2  475   2.249   2.501  11.004
   15TMC2    C7  476   2.342   2.540  10.776
   15TMC2    C8  477   2.126   2.266  11.115
   15TMC2    O1  478   2.339   2.557  10.657
   15TMC2    O2  479   2.068   2.159  11.128
   15TMC2    O5  480   2.228   2.312  11.188
   15TMC2    H5  481   2.265   2.398  11.158
   16TMC2    C1  482   0.087   0.584  11.662
   16TMC2    C2  483   4.751   0.619  11.675
   16TMC2    C3  484   4.705   0.632  11.800
   16TMC2    C4  485   0.176   0.578  11.768
   16TMC2    C5  486   0.121   0.599  11.892
   16TMC2    C6  487   4.782   0.616  11.914
   16TMC2     C  488   0.134   0.635  11.532
   16TMC2     O  489   0.050   0.660  11.445
   16TMC2     H  490   4.683   0.626  11.591
   16TMC2    H1  491   0.276   0.536  11.762
   16TMC2    H2  492   4.748   0.625  12.016
   16TMC2    C7  493   0.200   0.580  12.013
   16TMC2    C8  494   4.572   0.690  11.821
   16TMC2    O1  495   0.271   0.479  12.017
   16TMC2    O2  496   4.496   0.652  11.910
   16TMC2    O5  497   4.557   0.801  11.744
   16TMC2    H5  498   4.625   0.819  11.676
   17TMC2    C1  499   4.780   3.612   7.541
   17TMC2    C2  500   4.690   3.660   7.622
   17TMC2    C3  501   4.612   3.765   7.583
   17TMC2    C4  502   4.789   3.662   7.419
   17TMC2    C5  503   4.716   3.766   7.379
   17TMC2    C6  504   4.613   3.813   7.455
   17TMC2     C  505   0.114   3.568   7.587
   17TMC2     O  506   0.212   3.639   7.564
   17TMC2     H  507   4.685   3.618   7.722
   17TMC2    H1  508   0.070   3.614   7.356
   17TMC2    H2  509   4.559   3.906   7.441
   17TMC2    C7  510   4.761   3.835   7.254
   17TMC2    C8  511   4.500   3.790   7.674
   17TMC2    O1  512   0.082   3.822   7.231
   17TMC2    O2  513   4.510   3.763   7.792
   17TMC2    O5  514   4.415   3.881   7.621
   17TMC2    H5  515   4.415   3.884   7.523
   18TMC2    C1  516   1.130   0.096   8.315
   18TMC2    C2  517   1.048   0.087   8.205
   18TMC2    C3  518   0.978   4.768   8.196
   18TMC2    C4  519   1.135   0.001   8.409
   18TMC2    C5  520   1.072   4.675   8.390
   18TMC2    C6  521   0.988   4.663   8.283
   18TMC2     C  522   1.254   0.147   8.270
   18TMC2     O  523   1.243   0.244   8.192
   18TMC2     H  524   1.019   0.169   8.141
   18TMC2    H1  525   1.198   0.004   8.497
   18TMC2    H2  526   0.942   4.567   8.262
   18TMC2    C7  527   1.074   4.559   8.480
   18TMC2    C8  528   0.902   4.740   8.077
   18TMC2    O1  529   1.028   4.451   8.438
   18TMC2    O2  530   0.815   4.649   8.071
   18TMC2    O5  531   0.910   0.045   7.985
   18TMC2    H5  532   1.000   0.082   7.970
   19TMC2    C1  533   4.204   4.693   8.725
   19TMC2    C2  534   4.105   4.776   8.691
   19TMC2    C3  535   4.138   0.078   8.600
   19TMC2    C4  536   4.327   4.686   8.658
   19TMC2    C5  537   4.339   4.765   8.552
   19TMC2    C6  538   4.252   0.072   8.526
   19TMC2     C  539   4.154   4.575   8.789
   19TMC2     O  540   4.047   4.537   8.750
   19TMC2     H  541   4.011   4.773   8.745
   19TMC2    H1  542   4.398   4.608   8.680
   19TMC2    H2  543   4.277   0.145   8.449
   19TMC2    C7  544   4.472   4.791   8.508
   19TMC2    C8  545   4.044   0.185   8.574
   19TMC2    O1  546   4.508   0.111   8.508
   19TMC2    O2  547   4.006   0.222   8.466
   19TMC2    O5  548   3.977   0.208   8.683
   19TMC2    H5  549   4.016   0.185   8.770
   20TMC2    C1  550   1.631   1.725  15.377
   20TMC2    C2  551   1.595   1.785  15.494
   20TMC2    C3  552   1.693   1.820  15.587
   20TMC2    C4  553   1.755   1.667  15.371
   20TMC2    C5  554   1.847   1.697  15.468
   20TMC2    C6  555   1.824   1.789  15.572
   20TMC2     C  556   1.530   1.702  15.281
   20TMC2     O  557   1.416   1.690  15.322
   20TMC2     H  558   1.494   1.822  15.505
   20TMC2    H1  559   1.793   1.606  15.290
   20TMC2    H2  560   1.894   1.822  15.649
   20TMC2    C7  561   1.976   1.676  15.438
   20TMC2    C8  562   1.655   1.864  15.715
   20TMC2    O1  563   2.021   1.566  15.407
   20TMC2    O2  564   1.555   1.935  15.738
   20TMC2    O5  565   1.711   1.785  15.811
   20TMC2    H5  566   1.771   1.716  15.776
   21TMC2    C1  567   1.348   0.466  10.407
   21TMC2    C2  568   1.339   0.531  10.530
   21TMC2    C3  569   1.389   0.659  10.545
   21TMC2    C4  570   1.408   0.528  10.298
   21TMC2    C5  571   1.447   0.661  10.313
   21TMC2    C6  572   1.443   0.730  10.437
   21TMC2     C  573   1.286   0.330  10.392
   21TMC2     O  574   1.307   0.270  10.288
   21TMC2     H  575   1.317   0.476  10.621
   21TMC2    H1  576   1.417   0.480  10.201
   21TMC2    H2  577   1.458   0.837  10.445
   21TMC2    C7  578   1.512   0.726  10.200
   21TMC2    C8  579   1.456   0.675  10.674
   21TMC2    O1  580   1.602   0.796  10.236
   21TMC2    O2  581   1.486   0.585  10.746
   21TMC2    O5  582   1.540   0.780  10.660
   21TMC2    H5  583   1.526   0.842  10.585
   22TMC2    C1  584   1.891   3.073  14.651
   22TMC2    C2  585   1.765   3.122  14.663
   22TMC2    C3  586   1.734   3.180  14.783
   22TMC2    C4  587   1.971   3.072  14.764
   22TMC2    C5  588   1.935   3.129  14.885
   22TMC2    C6  589   1.813   3.186  14.892
   22TMC2     C  590   1.937   2.999  14.536
   22TMC2     O  591   2.048   2.949  14.532
   22TMC2     H  592   1.710   3.124  14.569
   22TMC2    H1  593   2.075   3.042  14.756
   22TMC2    H2  594   1.773   3.209  14.991
   22TMC2    C7  595   1.975   3.067  15.010
   22TMC2    C8  596   1.592   3.229  14.804
   22TMC2    O1  597   1.935   3.118  15.118
   22TMC2    O2  598   1.556   3.279  14.910
   22TMC2    O5  599   1.506   3.182  14.713
   22TMC2    H5  600   1.524   3.104  14.657
   23TMC2    C1  601   3.747   0.413   6.505
   23TMC2    C2  602   3.869   0.367   6.463
   23TMC2    C3  603   3.977   0.375   6.545
   23TMC2    C4  604   3.736   0.494   6.620
   23TMC2    C5  605   3.849   0.502   6.694
   23TMC2    C6  606   3.970   0.437   6.668
   23TMC2     C  607   3.645   0.387   6.410
   23TMC2     O  608   3.689   0.361   6.302
   23TMC2     H  609   3.880   0.295   6.382
   23TMC2    H1  610   3.649   0.549   6.654
   23TMC2    H2  611   4.062   0.444   6.726
   23TMC2    C7  612   3.842   0.549   6.834
   23TMC2    C8  613   4.115   0.366   6.492
   23TMC2    O1  614   3.766   0.644   6.858
   23TMC2    O2  615   4.201   0.282   6.516
   23TMC2    O5  616   4.126   0.458   6.391
   23TMC2    H5  617   4.049   0.519   6.391
   24TMC2    C1  618   4.528   1.058   6.936
   24TMC2    C2  619   4.549   0.933   6.996
   24TMC2    C3  620   4.449   0.888   7.082
   24TMC2    C4  621   4.415   1.131   6.958
   24TMC2    C5  622   4.319   1.078   7.039
   24TMC2    C6  623   4.328   0.949   7.092
   24TMC2     C  624   4.626   1.108   6.838
   24TMC2     O  625   4.603   1.219   6.786
   24TMC2     H  626   4.646   0.885   7.009
   24TMC2    H1  627   4.392   1.223   6.904
   24TMC2    H2  628   4.247   0.903   7.147
   24TMC2    C7  629   4.217   1.157   7.097
   24TMC2    C8  630   4.467   0.752   7.128
   24TMC2    O1  631   4.128   1.102   7.157
   24TMC2    O2  632   4.546   0.679   7.067
   24TMC2    O5  633   4.437   0.742   7.258
   24TMC2    H5  634   4.363   0.800   7.288
   25TMC2    C1  635   4.297   3.174   7.839
   25TMC2    C2  636   4.232   3.239   7.943
   25TMC2    C3  637   4.185   3.363   7.916
   25TMC2    C4  638   4.346   3.245   7.727
   25TMC2    C5  639   4.288   3.371   7.706
   25TMC2    C6  640   4.207   3.430   7.806
   25TMC2     C  641   4.359   3.049   7.869
   25TMC2     O  642   4.460   3.014   7.813
   25TMC2     H  643   4.204   3.192   8.037
   25TMC2    H1  644   4.414   3.191   7.661
   25TMC2    H2  645   4.155   3.522   7.780
   25TMC2    C7  646   4.316   3.443   7.581
   25TMC2    C8  647   4.096   3.423   8.019
   25TMC2    O1  648   4.257   3.546   7.563
   25TMC2    O2  649   4.030   3.352   8.089
   25TMC2    O5  650   4.135   3.545   8.053
   25TMC2    H5  651   4.208   3.574   7.994
   26TMC2    C1  652   3.806   1.793  14.795
   26TMC2    C2  653   3.752   1.833  14.909
   26TMC2    C3  654   3.672   1.942  14.907
   26TMC2    C4  655   3.780   1.849  14.672
   26TMC2    C5  656   3.698   1.965  14.674
   26TMC2    C6  657   3.644   2.009  14.791
   26TMC2     C  658   3.891   1.677  14.795
   26TMC2     O  659   3.896   1.618  14.902
   26TMC2     H  660   3.768   1.784  15.004
   26TMC2    H1  661   3.808   1.809  14.575
   26TMC2    H2  662   3.579   2.095  14.792
   26TMC2    C7  663   3.631   2.017  14.554
   26TMC2    C8  664   3.626   2.003  15.034
   26TMC2    O1  665   3.514   2.043  14.557
   26TMC2    O2  666   3.532   2.079  15.053
   26TMC2    O5  667   3.734   2.007  15.114
   26TMC2    H5  668   3.815   1.974  15.070
   27TMC2    C1  669   0.391   0.166   8.575
   27TMC2    C2  670   0.467   0.145   8.685
   27TMC2    C3  671   0.487   0.236   8.779
   27TMC2    C4  672   0.322   0.285   8.559
   27TMC2    C5  673   0.342   0.382   8.654
   27TMC2    C6  674   0.420   0.356   8.767
   27TMC2     C  675   0.344   0.042   8.521
   27TMC2     O  676   0.410   4.734   8.533
   27TMC2     H  677   0.519   0.050   8.685
   27TMC2    H1  678   0.255   0.302   8.475
   27TMC2    H2  679   0.431   0.432   8.843
   27TMC2    C7  680   0.277   0.512   8.628
   27TMC2    C8  681   0.544   0.203   8.911
   27TMC2    O1  682   0.283   0.549   8.512
   27TMC2    O2  683   0.545   0.091   8.964
   27TMC2    O5  684   0.646   0.288   8.928
   27TMC2    H5  685   0.634   0.377   8.889
   28TMC2    C1  686   0.802   2.859  13.631
   28TMC2    C2  687   0.817   2.938  13.525
   28TMC2    C3  688   0.730   2.920  13.417
   28TMC2    C4  689   0.720   2.749  13.625
   28TMC2    C5  690   0.650   2.726  13.509
   28TMC2    C6  691   0.651   2.814  13.406
   28TMC2     C  692   0.913   2.856  13.728
   28TMC2     O  693   1.017   2.910  13.692
   28TMC2     H  694   0.887   3.021  13.527
   28TMC2    H1  695   0.722   2.668  13.696
   28TMC2    H2  696   0.591   2.803  13.317
   28TMC2    C7  697   0.533   2.635  13.514
   28TMC2    C8  698   0.786   2.962  13.287
   28TMC2    O1  699   0.454   2.637  13.414
   28TMC2    O2  700   0.782   2.896  13.183
   28TMC2    O5  701   0.762   3.093  13.283
   28TMC2    H5  702   0.736   3.134  13.368
   29TMC2    C1  703   4.627   3.446  10.258
   29TMC2    C2  704   4.657   3.324  10.316
   29TMC2    C3  705   4.778   3.308  10.367
   29TMC2    C4  706   4.718   3.547  10.251
   29TMC2    C5  707   0.042   3.528  10.305
   29TMC2    C6  708   0.074   3.409  10.368
   29TMC2     C  709   4.495   3.473  10.214
   29TMC2     O  710   4.470   3.590  10.200
   29TMC2     H  711   4.573   3.258  10.332
   29TMC2    H1  712   4.694   3.647  10.216
   29TMC2    H2  713   0.165   3.391  10.424
   29TMC2    C7  714   0.146   3.598  10.239
   29TMC2    C8  715   0.009   3.180  10.426
   29TMC2    O1  716   0.132   3.720  10.212
   29TMC2    O2  717   0.073   3.168  10.531
   29TMC2    O5  718   4.757   3.083  10.344
   29TMC2    H5  719   4.708   3.115  10.266
   30TMC2    C1  720   1.975   4.360   9.638
   30TMC2    C2  721   1.977   4.247   9.718
   30TMC2    C3  722   1.888   4.148   9.683
   30TMC2    C4  723   1.881   4.375   9.530
   30TMC2    C5  724   1.781   4.282   9.509
   30TMC2    C6  725   1.785   4.169   9.585
   30TMC2     C  726   2.036   4.471   9.715
   30TMC2     O  727   1.977   4.573   9.754
   30TMC2     H  728   2.052   4.247   9.796
   30TMC2    H1  729   1.889   4.466   9.472
   30TMC2    H2  730   1.727   4.080   9.562
   30TMC2    C7  731   1.704   4.272   9.386
   30TMC2    C8  732   1.884   4.017   9.753
   30TMC2    O1  733   1.613   4.192   9.396
   30TMC2    O2  734   1.845   3.916   9.696
   30TMC2    O5  735   1.996   4.021   9.826
   30TMC2    H5  736   1.989   4.087   9.898
   31TMC2    C1  737   1.294   0.390  10.949
   31TMC2    C2  738   1.258   0.255  10.947
   31TMC2    C3  739   1.327   0.177  11.037
   31TMC2    C4  740   1.405   0.442  11.012
   31TMC2    C5  741   1.472   0.357  11.091
   31TMC2    C6  742   1.430   0.224  11.106
   31TMC2     C  743   1.190   0.475  10.886
   31TMC2     O  744   1.124   0.426  10.795
   31TMC2     H  745   1.168   0.229  10.892
   31TMC2    H1  746   1.431   0.544  10.985
   31TMC2    H2  747   1.478   0.167  11.184
   31TMC2    C7  748   1.497   0.424  11.217
   31TMC2    C8  749   1.287   0.042  11.061
   31TMC2    O1  750   1.441   0.532  11.208
   31TMC2    O2  751   1.359   4.756  11.119
   31TMC2    O5  752   1.178   0.021  10.987
   31TMC2    H5  753   1.146   4.724  11.003
   32TMC2    C1  754   0.935   1.296   7.540
   32TMC2    C2  755   0.903   1.296   7.671
   32TMC2    C3  756   0.778   1.343   7.706
   32TMC2    C4  757   0.854   1.351   7.444
   32TMC2    C5  758   0.728   1.409   7.488
   32TMC2    C6  759   0.689   1.393   7.619
   32TMC2     C  760   1.037   1.205   7.504
   32TMC2     O  761   1.111   1.239   7.414
   32TMC2     H  762   0.972   1.261   7.747
   32TMC2    H1  763   0.879   1.348   7.338
   32TMC2    H2  764   0.594   1.435   7.649
   32TMC2    C7  765   0.620   1.400   7.391
   32TMC2    C8  766   0.736   1.329   7.846
   32TMC2    O1  767   0.533   1.489   7.390
   32TMC2    O2  768   0.617   1.306   7.871
   32TMC2    O5  769   0.842   1.308   7.921
   32TMC2    H5  770   0.918   1.357   7.883
   33TMC2    C1  771   1.490   0.346  11.918
   33TMC2    C2  772   1.389   0.334  12.007
   33TMC2    C3  773   1.344   0.442  12.069
   33TMC2    C4  774   1.555   0.469  11.895
   33TMC2    C5  775   1.492   0.582  11.956
   33TMC2    C6  776   1.385   0.573  12.043
   33TMC2     C  777   1.510   0.235  11.821
   33TMC2     O  778   1.428   0.149  11.811
   33TMC2     H  779   1.348   0.237  12.031
   33TMC2    H1  780   1.639   0.472  11.827
   33TMC2    H2  781   1.352   0.660  12.098
   33TMC2    C7  782   1.562   0.707  11.956
   33TMC2    C8  783   1.239   0.418  12.158
   33TMC2    O1  784   1.505   0.811  11.989
   33TMC2    O2  785   1.162   0.328  12.140
   33TMC2    O5  786   1.229   0.510  12.252
   33TMC2    H5  787   1.310   0.564  12.260
   34TMC2    C1  788   2.178   3.821  10.462
   34TMC2    C2  789   2.104   3.789  10.573
   34TMC2    C3  790   2.145   3.840  10.688
   34TMC2    C4  791   2.309   3.869  10.472
   34TMC2    C5  792   2.351   3.901  10.592
   34TMC2    C6  793   2.263   3.907  10.698
   34TMC2     C  794   2.127   3.788  10.331
   34TMC2     O  795   2.210   3.752  10.247
   34TMC2     H  796   2.014   3.729  10.570
   34TMC2    H1  797   2.365   3.887  10.381
   34TMC2    H2  798   2.286   3.951  10.794
   34TMC2    C7  799   2.446   4.005  10.589
   34TMC2    C8  800   2.075   3.801  10.819
   34TMC2    O1  801   2.463   4.072  10.487
   34TMC2    O2  802   2.016   3.884  10.891
   34TMC2    O5  803   2.134   3.686  10.859
   34TMC2    H5  804   2.191   3.655  10.785
   35TMC2    C1  805   0.135   0.283   9.429
   35TMC2    C2  806   0.161   0.148   9.405
   35TMC2    C3  807   0.242   0.112   9.298
   35TMC2    C4  808   0.213   0.379   9.360
   35TMC2    C5  809   0.303   0.338   9.261
   35TMC2    C6  810   0.305   0.210   9.218
   35TMC2     C  811   0.067   0.318   9.551
   35TMC2     O  812   4.772   0.243   9.580
   35TMC2     H  813   0.118   0.072   9.470
   35TMC2    H1  814   0.189   0.484   9.377
   35TMC2    H2  815   0.380   0.183   9.144
   35TMC2    C7  816   0.368   0.443   9.176
   35TMC2    C8  817   0.262   4.763   9.265
   35TMC2    O1  818   0.384   0.409   9.060
   35TMC2    O2  819   0.358   4.715   9.209
   35TMC2    O5  820   0.144   4.708   9.258
   35TMC2    H5  821   0.068   4.768   9.271
   36TMC2    C1  822   0.733   0.894  15.234
   36TMC2    C2  823   0.706   0.773  15.181
   36TMC2    C3  824   0.575   0.734  15.162
   36TMC2    C4  825   0.635   0.981  15.278
   36TMC2    C5  826   0.502   0.938  15.253
   36TMC2    C6  827   0.473   0.817  15.197
   36TMC2     C  828   0.871   0.936  15.246
   36TMC2     O  829   0.903   1.022  15.330
   36TMC2     H  830   0.786   0.704  15.157
   36TMC2    H1  831   0.665   1.078  15.316
   36TMC2    H2  832   0.373   0.776  15.194
   36TMC2    C7  833   0.404   1.046  15.264
   36TMC2    C8  834   0.545   0.594  15.128
   36TMC2    O1  835   0.431   1.152  15.316
   36TMC2    O2  836   0.638   0.515  15.108
   36TMC2    O5  837   0.437   0.610  15.043
   36TMC2    H5  838   0.354   0.654  15.073
   37TMC2    C1  839   1.704   2.825  10.793
   37TMC2    C2  840   1.657   2.869  10.914
   37TMC2    C3  841   1.727   2.826  11.024
   37TMC2    C4  842   1.812   2.748  10.772
   37TMC2    C5  843   1.888   2.731  10.885
   37TMC2    C6  844   1.841   2.759  11.008
   37TMC2     C  845   1.681   2.914  10.681
   37TMC2     O  846   1.771   2.920  10.598
   37TMC2     H  847   1.567   2.926  10.934
   37TMC2    H1  848   1.837   2.714  10.672
   37TMC2    H2  849   1.898   2.768  11.100
   37TMC2    C7  850   2.019   2.795  10.867
   37TMC2    C8  851   1.715   2.873  11.163
   37TMC2    O1  852   2.090   2.808  10.964
   37TMC2    O2  853   1.777   2.828  11.259
   37TMC2    O5  854   1.664   2.996  11.157
   37TMC2    H5  855   1.652   3.029  11.066
   38TMC2    C1  856   1.577   4.051  10.203
   38TMC2    C2  857   1.668   4.110  10.114
   38TMC2    C3  858   1.717   4.232  10.151
   38TMC2    C4  859   1.506   4.126  10.294
   38TMC2    C5  860   1.543   4.258  10.310
   38TMC2    C6  861   1.658   4.306  10.251
   38TMC2     C  862   1.506   3.931  10.175
   38TMC2     O  863   1.382   3.944  10.191
   38TMC2     H  864   1.715   4.052  10.035
   38TMC2    H1  865   1.433   4.085  10.363
   38TMC2    H2  866   1.692   4.406  10.276
   38TMC2    C7  867   1.479   4.341  10.407
   38TMC2    C8  868   1.842   4.263  10.084
   38TMC2    O1  869   1.455   4.278  10.511
   38TMC2    O2  870   1.905   4.182  10.011
   38TMC2    O5  871   1.871   4.391  10.112
   38TMC2    H5  872   1.798   4.453  10.132
   39TMC2    C1  873   0.788   4.553   8.761
   39TMC2    C2  874   0.816   4.448   8.680
   39TMC2    C3  875   0.843   4.323   8.733
   39TMC2    C4  876   0.791   4.544   8.896
   39TMC2    C5  877   0.805   4.417   8.943
   39TMC2    C6  878   0.832   4.310   8.873
   39TMC2     C  879   0.776   4.684   8.705
   39TMC2     O  880   0.808   4.779   8.782
   39TMC2     H  881   0.817   4.455   8.572
   39TMC2    H1  882   0.772   4.628   8.960
   39TMC2    H2  883   0.835   4.214   8.923
   39TMC2    C7  884   0.816   4.400   9.086
   39TMC2    C8  885   0.828   4.207   8.645
   39TMC2    O1  886   0.775   4.299   9.136
   39TMC2    O2  887   0.797   4.091   8.678
   39TMC2    O5  888   0.925   4.241   8.563
   39TMC2    H5  889   0.956   4.330   8.537
   40TMC2    C1  890   0.785   0.621  14.803
   40TMC2    C2  891   0.705   0.511  14.820
   40TMC2    C3  892   0.766   0.382  14.830
   40TMC2    C4  893   0.918   0.604  14.808
   40TMC2    C5  894   0.974   0.481  14.810
   40TMC2    C6  895   0.901   0.364  14.821
   40TMC2     C  896   0.730   0.756  14.836
   40TMC2     O  897   0.803   0.841  14.882
   40TMC2     H  898   0.601   0.512  14.849
   40TMC2    H1  899   0.985   0.687  14.794
   40TMC2    H2  900   0.940   0.266  14.846
   40TMC2    C7  901   1.119   0.468  14.807
   40TMC2    C8  902   0.694   0.263  14.866
   40TMC2    O1  903   1.178   0.570  14.845
   40TMC2    O2  904   0.713   0.156  14.815
   40TMC2    O5  905   0.617   0.289  14.977
   40TMC2    H5  906   0.621   0.381  15.011
   41TMC2    C1  907   0.128   4.412   8.947
   41TMC2    C2  908   0.098   4.547   8.968
   41TMC2    C3  909   4.783   4.596   8.901
   41TMC2    C4  910   0.049   4.329   8.879
   41TMC2    C5  911   4.737   4.382   8.821
   41TMC2    C6  912   4.707   4.520   8.820
   41TMC2     C  913   0.229   4.352   9.032
   41TMC2     O  914   0.284   4.244   9.004
   41TMC2     H  915   0.163   4.612   9.027
   41TMC2    H1  916   0.069   4.224   8.864
   41TMC2    H2  917   4.620   4.573   8.782
   41TMC2    C7  918   4.633   4.296   8.768
   41TMC2    C8  919   4.772   4.737   8.890
   41TMC2    O1  920   4.568   4.357   8.680
   41TMC2    O2  921   4.674   0.008   8.855
   41TMC2    O5  922   0.099   4.777   8.854
   41TMC2    H5  923   0.162   4.706   8.829
   42TMC2    C1  924   3.077   3.842   8.020
   42TMC2    C2  925   3.003   3.857   8.129
   42TMC2    C3  926   3.070   3.879   8.244
   42TMC2    C4  927   3.200   3.793   8.033
   42TMC2    C5  928   3.258   3.788   8.158
   42TMC2    C6  929   3.200   3.843   8.264
   42TMC2     C  930   3.003   3.801   7.903
   42TMC2     O  931   3.040   3.840   7.796
   42TMC2     H  932   2.910   3.912   8.130
   42TMC2    H1  933   3.267   3.763   7.953
   42TMC2    H2  934   3.263   3.855   8.351
   42TMC2    C7  935   3.397   3.728   8.173
   42TMC2    C8  936   2.995   3.904   8.368
   42TMC2    O1  937   3.485   3.769   8.102
   42TMC2    O2  938   3.049   3.940   8.472
   42TMC2    O5  939   2.906   3.803   8.359
   42TMC2    H5  940   2.905   3.767   8.268
   43TMC2    C1  941   4.042   2.746   8.505
   43TMC2    C2  942   4.126   2.812   8.589
   43TMC2    C3  943   4.068   2.905   8.671
   43TMC2    C4  944   3.908   2.768   8.505
   43TMC2    C5  945   3.860   2.876   8.569
   43TMC2    C6  946   3.941   2.950   8.652
   43TMC2     C  947   4.092   2.727   8.371
   43TMC2     O  948   4.017   2.740   8.277
   43TMC2     H  949   4.228   2.779   8.603
   43TMC2    H1  950   3.855   2.713   8.428
   43TMC2    H2  951   3.902   3.019   8.726
   43TMC2    C7  952   3.779   2.963   8.484
   43TMC2    C8  953   4.147   2.977   8.776
   43TMC2    O1  954   3.786   3.080   8.516
   43TMC2    O2  955   4.255   2.926   8.806
   43TMC2    O5  956   4.144   3.103   8.735
   43TMC2    H5  957   4.059   3.136   8.699
   44TMC2    C1  958   4.645   1.098  11.982
   44TMC2    C2  959   4.531   1.164  11.993
   44TMC2    C3  960   4.526   1.292  11.953
   44TMC2    C4  961   4.758   1.156  11.929
   44TMC2    C5  962   4.746   1.292  11.891
   44TMC2    C6  963   4.629   1.359  11.900
   44TMC2     C  964   4.656   0.962  12.034
   44TMC2     O  965   4.761   0.907  12.008
   44TMC2     H  966   4.440   1.124  12.036
   44TMC2    H1  967   0.047   1.093  11.900
   44TMC2    H2  968   4.635   1.467  11.893
   44TMC2    C7  969   0.067   1.337  11.814
   44TMC2    C8  970   4.396   1.363  11.975
   44TMC2    O1  971   0.174   1.288  11.853
   44TMC2    O2  972   4.385   1.486  11.981
   44TMC2    O5  973   4.301   1.283  11.916
   44TMC2    H5  974   4.339   1.199  11.882
   45TMC2    C1  975   1.395   4.336  14.645
   45TMC2    C2  976   1.467   4.421  14.724
   45TMC2    C3  977   1.593   4.388  14.759
   45TMC2    C4  978   1.438   4.215  14.607
   45TMC2    C5  979   1.561   4.179  14.648
   45TMC2    C6  980   1.644   4.264  14.719
   45TMC2     C  981   1.270   4.381  14.595
   45TMC2     O  982   1.239   4.338  14.485
   45TMC2     H  983   1.431   4.523  14.717
   45TMC2    H1  984   1.388   4.155  14.532
   45TMC2    H2  985   1.750   4.247  14.732
   45TMC2    C7  986   1.623   4.046  14.616
   45TMC2    C8  987   1.685   4.497  14.759
   45TMC2    O1  988   1.578   3.973  14.531
   45TMC2    O2  989   1.794   4.478  14.709
   45TMC2    O5  990   1.647   4.594  14.839
   45TMC2    H5  991   1.555   4.596  14.873
   46TMC2    C1  992   2.582   2.235  15.217
   46TMC2    C2  993   2.498   2.287  15.128
   46TMC2    C3  994   2.527   2.413  15.078
   46TMC2    C4  995   2.698   2.304  15.244
   46TMC2    C5  996   2.736   2.418  15.171
   46TMC2    C6  997   2.643   2.473  15.091
   46TMC2     C  998   2.559   2.103  15.280
   46TMC2     O  999   2.656   2.047  15.334
   46TMC2     H 1000   2.400   2.251  15.097
   46TMC2    H1 1001   2.778   2.253  15.297
   46TMC2    H2 1002   2.649   2.571  15.046
   46TMC2    C7 1003   2.798   2.522  15.260
   46TMC2    C8 1004   2.429   2.476  14.991
   46TMC2    O1 1005   2.795   2.498  15.377
   46TMC2    O2 1006   2.423   2.445  14.877
   46TMC2    O5 1007   2.418   2.594  15.046
   46TMC2    H5 1008   2.415   2.588  15.144
   47TMC2    C1 1009   4.114   2.215  12.269
   47TMC2    C2 1010   4.135   2.236  12.132
   47TMC2    C3 1011   4.024   2.220  12.049
   47TMC2    C4 1012   3.994   2.177  12.319
   47TMC2    C5 1013   3.892   2.148  12.230
   47TMC2    C6 1014   3.908   2.171  12.093
   47TMC2     C 1015   4.231   2.186  12.346
   47TMC2     O 1016   4.208   2.214  12.460
   47TMC2     H 1017   4.226   2.277  12.089
   47TMC2    H1 1018   3.983   2.154  12.425
   47TMC2    H2 1019   3.831   2.159  12.018
   47TMC2    C7 1020   3.834   2.011  12.249
   47TMC2    C8 1021   4.051   2.185  11.913
   47TMC2    O1 1022   3.808   1.979  12.363
   47TMC2    O2 1023   3.979   2.238  11.828
   47TMC2    O5 1024   4.073   2.047  11.927
   47TMC2    H5 1025   4.157   2.028  11.975
   48TMC2    C1 1026   1.612   2.317  10.246
   48TMC2    C2 1027   1.607   2.183  10.281
   48TMC2    C3 1028   1.704   2.139  10.364
   48TMC2    C4 1029   1.709   2.408  10.294
   48TMC2    C5 1030   1.804   2.355  10.369
   48TMC2    C6 1031   1.809   2.222  10.397
   48TMC2     C 1032   1.518   2.363  10.148
   48TMC2     O 1033   1.542   2.463  10.081
   48TMC2     H 1034   1.528   2.113  10.257
   48TMC2    H1 1035   1.703   2.512  10.264
   48TMC2    H2 1036   1.879   2.171  10.463
   48TMC2    C7 1037   1.929   2.430  10.398
   48TMC2    C8 1038   1.727   1.999  10.372
   48TMC2    O1 1039   2.029   2.364  10.417
   48TMC2    O2 1040   1.640   1.920  10.405
   48TMC2    O5 1041   1.832   1.973  10.299
   48TMC2    H5 1042   1.864   2.046  10.242
   49TMC2    C1 1043   1.781   4.427  11.516
   49TMC2    C2 1044   1.760   4.478  11.391
   49TMC2    C3 1045   1.637   4.476  11.332
   49TMC2    C4 1046   1.677   4.362  11.585
   49TMC2    C5 1047   1.554   4.367  11.521
   49TMC2    C6 1048   1.531   4.419  11.399
   49TMC2     C 1049   1.924   4.439  11.558
   49TMC2     O 1050   1.995   4.529  11.510
   49TMC2     H 1051   1.830   4.540  11.337
   49TMC2    H1 1052   1.696   4.314  11.681
   49TMC2    H2 1053   1.441   4.410  11.339
   49TMC2    C7 1054   1.447   4.272  11.561
   49TMC2    C8 1055   1.633   4.494  11.192
   49TMC2    O1 1056   1.357   4.259  11.477
   49TMC2    O2 1057   1.697   4.584  11.136
   49TMC2    O5 1058   1.622   4.376  11.144
   49TMC2    H5 1059   1.591   4.308  11.208
   50TMC2    C1 1060   3.278   1.676  14.344
   50TMC2    C2 1061   3.177   1.646  14.252
   50TMC2    C3 1062   3.153   1.733  14.155
   50TMC2    C4 1063   3.347   1.797  14.335
   50TMC2    C5 1064   3.319   1.875  14.227
   50TMC2    C6 1065   3.215   1.854  14.141
   50TMC2     C 1066   3.313   1.589  14.452
   50TMC2     O 1067   3.227   1.507  14.483
   50TMC2     H 1068   3.128   1.552  14.270
   50TMC2    H1 1069   3.407   1.834  14.417
   50TMC2    H2 1070   3.207   1.911  14.050
   50TMC2    C7 1071   3.408   1.990  14.210
   50TMC2    C8 1072   3.088   1.681  14.037
   50TMC2    O1 1073   3.530   1.978  14.230
   50TMC2    O2 1074   3.147   1.595  13.976
   50TMC2    O5 1075   2.983   1.756  13.996
   50TMC2    H5 1076   2.959   1.808  14.076
   51TMC2    C1 1077   1.941   2.268  14.941
   51TMC2    C2 1078   2.004   2.270  14.815
   51TMC2    C3 1079   1.930   2.259  14.702
   51TMC2    C4 1080   1.805   2.251  14.945
   51TMC2    C5 1081   1.737   2.232  14.826
   51TMC2    C6 1082   1.799   2.246  14.703
   51TMC2     C 1083   1.994   2.354  15.044
   51TMC2     O 1084   1.975   2.317  15.161
   51TMC2     H 1085   2.106   2.306  14.803
   51TMC2    H1 1086   1.753   2.237  15.039
   51TMC2    H2 1087   1.746   2.245  14.608
   51TMC2    C7 1088   1.592   2.246  14.825
   51TMC2    C8 1089   2.001   2.257  14.574
   51TMC2    O1 1090   1.531   2.212  14.724
   51TMC2    O2 1091   1.950   2.210  14.470
   51TMC2    O5 1092   2.113   2.332  14.566
   51TMC2    H5 1093   2.136   2.384  14.645
   52TMC2    C1 1094   3.773   4.260   9.397
   52TMC2    C2 1095   3.834   4.157   9.326
   52TMC2    C3 1096   3.956   4.183   9.267
   52TMC2    C4 1097   3.821   4.387   9.401
   52TMC2    C5 1098   3.945   4.408   9.341
   52TMC2    C6 1099   4.019   4.309   9.277
   52TMC2     C 1100   3.654   4.231   9.482
   52TMC2     O 1101   3.583   4.330   9.491
   52TMC2     H 1102   3.802   4.054   9.328
   52TMC2    H1 1103   3.770   4.457   9.467
   52TMC2    H2 1104   4.125   4.321   9.261
   52TMC2    C7 1105   4.017   4.536   9.363
   52TMC2    C8 1106   4.029   4.069   9.222
   52TMC2    O1 1107   4.111   4.555   9.287
   52TMC2    O2 1108   4.154   4.069   9.209
   52TMC2    O5 1109   3.949   4.019   9.130
   52TMC2    H5 1110   3.852   4.031   9.140
   53TMC2    C1 1111   1.286   0.071   9.543
   53TMC2    C2 1112   1.347   0.004   9.646
   53TMC2    C3 1113   1.414   0.078   9.740
   53TMC2    C4 1114   1.301   0.205   9.526
   53TMC2    C5 1115   1.398   0.262   9.610
   53TMC2    C6 1116   1.454   0.203   9.717
   53TMC2     C 1117   1.187   0.001   9.453
   53TMC2     O 1118   1.136   0.056   9.352
   53TMC2     H 1119   1.349   4.692   9.665
   53TMC2    H1 1120   1.252   0.253   9.441
   53TMC2    H2 1121   1.504   0.260   9.794
   53TMC2    C7 1122   1.385   0.405   9.644
   53TMC2    C8 1123   1.495   4.789   9.840
   53TMC2    O1 1124   1.488   0.469   9.642
   53TMC2    O2 1125   1.559   4.694   9.796
   53TMC2    O5 1126   1.540   0.078   9.938
   53TMC2    H5 1127   1.473   0.141   9.974
   54TMC2    C1 1128   2.224   3.638  14.019
   54TMC2    C2 1129   2.118   3.635  13.931
   54TMC2    C3 1130   1.994   3.678  13.979
   54TMC2    C4 1131   2.209   3.650  14.157
   54TMC2    C5 1132   2.084   3.669  14.199
   54TMC2    C6 1133   1.977   3.688  14.117
   54TMC2     C 1134   2.362   3.612  13.972
   54TMC2     O 1135   2.422   3.536  14.045
   54TMC2     H 1136   2.125   3.634  13.823
   54TMC2    H1 1137   2.291   3.637  14.228
   54TMC2    H2 1138   1.880   3.704  14.164
   54TMC2    C7 1139   2.055   3.655  14.336
   54TMC2    C8 1140   1.891   3.719  13.874
   54TMC2    O1 1141   2.118   3.567  14.389
   54TMC2    O2 1142   1.884   3.665  13.765
   54TMC2    O5 1143   1.791   3.772  13.946
   54TMC2    H5 1144   1.829   3.828  14.017
   55TMC2    C1 1145   3.777   3.704   8.212
   55TMC2    C2 1146   3.821   3.791   8.110
   55TMC2    C3 1147   3.827   3.746   7.980
   55TMC2    C4 1148   3.740   3.579   8.180
   55TMC2    C5 1149   3.747   3.543   8.048
   55TMC2    C6 1150   3.789   3.622   7.949
   55TMC2     C 1151   3.716   3.760   8.336
   55TMC2     O 1152   3.673   3.686   8.426
   55TMC2     H 1153   3.867   3.886   8.133
   55TMC2    H1 1154   3.681   3.516   8.245
   55TMC2    H2 1155   3.806   3.583   7.850
   55TMC2    C7 1156   3.708   3.405   8.010
   55TMC2    C8 1157   3.943   3.789   7.910
   55TMC2    O1 1158   3.648   3.389   7.902
   55TMC2    O2 1159   3.998   3.710   7.839
   55TMC2    O5 1160   3.913   3.909   7.866
   55TMC2    H5 1161   3.864   3.966   7.929
   56TMC2    C1 1162   2.238   1.549  14.764
   56TMC2    C2 1163   2.277   1.632  14.661
   56TMC2    C3 1164   2.408   1.666  14.669
   56TMC2    C4 1165   2.313   1.526  14.882
   56TMC2    C5 1166   2.438   1.580  14.892
   56TMC2    C6 1167   2.484   1.663  14.787
   56TMC2     C 1168   2.106   1.496  14.754
   56TMC2     O 1169   2.024   1.578  14.722
   56TMC2     H 1170   2.205   1.651  14.582
   56TMC2    H1 1171   2.269   1.478  14.969
   56TMC2    H2 1172   2.590   1.679  14.770
   56TMC2    C7 1173   2.533   1.539  14.992
   56TMC2    C8 1174   2.471   1.727  14.543
   56TMC2    O1 1175   2.649   1.570  14.964
   56TMC2    O2 1176   2.584   1.782  14.536
   56TMC2    O5 1177   2.418   1.670  14.432
   56TMC2    H5 1178   2.352   1.599  14.448
   57TMC2    C1 1179   3.762   1.053   8.640
   57TMC2    C2 1180   3.800   1.177   8.695
   57TMC2    C3 1181   3.919   1.173   8.768
   57TMC2    C4 1182   3.823   0.933   8.663
   57TMC2    C5 1183   3.927   0.940   8.748
   57TMC2    C6 1184   3.975   1.055   8.800
   57TMC2     C 1185   3.630   1.045   8.567
   57TMC2     O 1186   3.625   0.952   8.488
   57TMC2     H 1187   3.751   1.271   8.674
   57TMC2    H1 1188   3.789   0.842   8.615
   57TMC2    H2 1189   4.057   1.058   8.871
   57TMC2    C7 1190   4.011   0.820   8.776
   57TMC2    C8 1191   3.966   1.290   8.845
   57TMC2    O1 1192   4.069   0.831   8.880
   57TMC2    O2 1193   4.005   1.285   8.963
   57TMC2    O5 1194   3.976   1.388   8.753
   57TMC2    H5 1195   3.966   1.347   8.664
   58TMC2    C1 1196   1.192   3.148  14.555
   58TMC2    C2 1197   1.290   3.213  14.490
   58TMC2    C3 1198   1.333   3.162  14.368
   58TMC2    C4 1199   1.127   3.035  14.503
   58TMC2    C5 1200   1.167   2.998  14.376
   58TMC2    C6 1201   1.274   3.055  14.307
   58TMC2     C 1202   1.146   3.202  14.682
   58TMC2     O 1203   1.090   3.123  14.754
   58TMC2     H 1204   1.348   3.294  14.532
   58TMC2    H1 1205   1.048   2.985  14.557
   58TMC2    H2 1206   1.315   3.009  14.218
   58TMC2    C7 1207   1.113   2.872  14.329
   58TMC2    C8 1208   1.468   3.199  14.323
   58TMC2    O1 1209   1.187   2.801  14.258
   58TMC2    O2 1210   1.571   3.200  14.392
   58TMC2    O5 1211   1.459   3.182  14.187
   58TMC2    H5 1212   1.366   3.194  14.159
   59TMC2    C1 1213   2.324   0.432  13.368
   59TMC2    C2 1214   2.410   0.358  13.294
   59TMC2    C3 1215   2.532   0.417  13.291
   59TMC2    C4 1216   2.352   0.548  13.439
   59TMC2    C5 1217   2.482   0.596  13.441
   59TMC2    C6 1218   2.579   0.524  13.367
   59TMC2     C 1219   2.186   0.397  13.350
   59TMC2     O 1220   2.169   0.281  13.311
   59TMC2     H 1221   2.386   0.291  13.212
   59TMC2    H1 1222   2.284   0.600  13.506
   59TMC2    H2 1223   2.683   0.555  13.357
   59TMC2    C7 1224   2.527   0.678  13.544
   59TMC2    C8 1225   2.613   0.373  13.172
   59TMC2    O1 1226   2.627   0.641  13.601
   59TMC2    O2 1227   2.583   0.275  13.100
   59TMC2    O5 1228   2.648   0.495  13.120
   59TMC2    H5 1229   2.618   0.560  13.187
   60TMC2    C1 1230   1.227   2.695  10.884
   60TMC2    C2 1231   1.337   2.617  10.915
   60TMC2    C3 1232   1.320   2.496  10.963
   60TMC2    C4 1233   1.099   2.654  10.906
   60TMC2    C5 1234   1.089   2.523  10.948
   60TMC2    C6 1235   1.200   2.442  10.984
   60TMC2     C 1236   1.249   2.830  10.911
   60TMC2     O 1237   1.346   2.878  10.849
   60TMC2     H 1238   1.435   2.661  10.895
   60TMC2    H1 1239   1.015   2.722  10.892
   60TMC2    H2 1240   1.181   2.349  11.036
   60TMC2    C7 1241   0.960   2.448  10.957
   60TMC2    C8 1242   1.439   2.418  10.992
   60TMC2    O1 1243   0.956   2.341  11.011
   60TMC2    O2 1244   1.546   2.436  10.935
   60TMC2    O5 1245   1.427   2.405  11.125
   60TMC2    H5 1246   1.342   2.425  11.171
   61TMC2    C1 1247   4.425   3.772   9.954
   61TMC2    C2 1248   4.506   3.825   9.856
   61TMC2    C3 1249   4.525   3.751   9.736
   61TMC2    C4 1250   4.363   3.648   9.932
   61TMC2    C5 1251   4.387   3.584   9.816
   61TMC2    C6 1252   4.466   3.632   9.716
   61TMC2     C 1253   4.334   3.856  10.032
   61TMC2     O 1254   4.248   3.801  10.098
   61TMC2     H 1255   4.568   3.909   9.883
   61TMC2    H1 1256   4.302   3.607  10.011
   61TMC2    H2 1257   4.497   3.575   9.630
   61TMC2    C7 1258   4.275   3.507   9.759
   61TMC2    C8 1259   4.601   3.809   9.626
   61TMC2    O1 1260   4.303   3.426   9.670
   61TMC2    O2 1261   4.567   3.776   9.513
   61TMC2    O5 1262   4.726   3.809   9.671
   61TMC2    H5 1263   4.719   3.787   9.767
   62TMC2    C1 1264   0.720   0.800  10.546
   62TMC2    C2 1265   0.687   0.662  10.542
   62TMC2    C3 1266   0.557   0.628  10.586
   62TMC2    C4 1267   0.648   0.899  10.607
   62TMC2    C5 1268   0.525   0.856  10.653
   62TMC2    C6 1269   0.480   0.725  10.639
   62TMC2     C 1270   0.857   0.839  10.508
   62TMC2     O 1271   0.932   0.743  10.507
   62TMC2     H 1272   0.760   0.595  10.497
   62TMC2    H1 1273   0.675   1.004  10.603
   62TMC2    H2 1274   0.380   0.694  10.670
   62TMC2    C7 1275   0.434   0.964  10.680
   62TMC2    C8 1276   0.499   0.492  10.587
   62TMC2    O1 1277   0.486   1.053  10.746
   62TMC2    O2 1278   0.403   0.465  10.656
   62TMC2    O5 1279   0.586   0.406  10.533
   62TMC2    H5 1280   0.634   0.439  10.455
   63TMC2    C1 1281   3.861   4.048   6.965
   63TMC2    C2 1282   3.933   4.078   7.074
   63TMC2    C3 1283   4.048   4.145   7.061
   63TMC2    C4 1284   3.897   4.090   6.837
   63TMC2    C5 1285   4.010   4.160   6.827
   63TMC2    C6 1286   4.090   4.198   6.937
   63TMC2     C 1287   3.734   3.987   6.991
   63TMC2     O 1288   3.709   3.939   7.100
   63TMC2     H 1289   3.915   4.021   7.164
   63TMC2    H1 1290   3.844   4.054   6.749
   63TMC2    H2 1291   4.189   4.241   6.927
   63TMC2    C7 1292   4.073   4.195   6.699
   63TMC2    C8 1293   4.142   4.110   7.167
   63TMC2    O1 1294   4.191   4.227   6.699
   63TMC2    O2 1295   4.117   4.041   7.268
   63TMC2    O5 1296   4.267   4.145   7.118
   63TMC2    H5 1297   4.267   4.223   7.059
   64TMC2    C1 1298   3.493   1.612   7.557
   64TMC2    C2 1299   3.408   1.532   7.479
   64TMC2    C3 1300   3.465   1.455   7.377
   64TMC2    C4 1301   3.624   1.608   7.548
   64TMC2    C5 1302   3.676   1.519   7.459
   64TMC2    C6 1303   3.601   1.445   7.368
   64TMC2     C 1304   3.429   1.676   7.673
   64TMC2     O 1305   3.315   1.642   7.708
   64TMC2     H 1306   3.300   1.540   7.489
   64TMC2    H1 1307   3.689   1.662   7.616
   64TMC2    H2 1308   3.646   1.399   7.280
   64TMC2    C7 1309   3.805   1.571   7.408
   64TMC2    C8 1310   3.398   1.347   7.301
   64TMC2    O1 1311   3.836   1.686   7.425
   64TMC2    O2 1312   3.466   1.282   7.223
   64TMC2    O5 1313   3.290   1.300   7.374
   64TMC2    H5 1314   3.245   1.371   7.425
   65TMC2    C1 1315   0.480   4.459   6.853
   65TMC2    C2 1316   0.609   4.434   6.877
   65TMC2    C3 1317   0.635   4.309   6.923
   65TMC2    C4 1318   0.371   4.389   6.886
   65TMC2    C5 1319   0.410   4.268   6.939
   65TMC2    C6 1320   0.538   4.221   6.949
   65TMC2     C 1321   0.463   4.578   6.779
   65TMC2     O 1322   0.563   4.647   6.761
   65TMC2     H 1323   0.698   4.494   6.862
   65TMC2    H1 1324   0.279   4.443   6.902
   65TMC2    H2 1325   0.557   4.115   6.939
   65TMC2    C7 1326   0.300   4.173   6.978
   65TMC2    C8 1327   0.755   4.251   6.874
   65TMC2    O1 1328   0.327   4.080   7.050
   65TMC2    O2 1329   0.819   4.287   6.778
   65TMC2    O5 1330   0.784   4.146   6.949
   65TMC2    H5 1331   0.742   4.147   7.038
   66TMC2    C1 1332   3.050   0.890  15.364
   66TMC2    C2 1333   2.944   0.950  15.426
   66TMC2    C3 1334   2.898   0.892  15.545
   66TMC2    C4 1335   3.110   0.775  15.416
   66TMC2    C5 1336   3.051   0.713  15.526
   66TMC2    C6 1337   2.956   0.774  15.595
   66TMC2     C 1338   3.078   0.927  15.230
   66TMC2     O 1339   2.985   0.978  15.171
   66TMC2     H 1340   2.905   1.039  15.377
   66TMC2    H1 1341   3.166   0.716  15.345
   66TMC2    H2 1342   2.912   0.722  15.680
   66TMC2    C7 1343   3.052   0.575  15.523
   66TMC2    C8 1344   2.822   0.970  15.637
   66TMC2    O1 1345   2.948   0.514  15.500
   66TMC2    O2 1346   2.835   0.966  15.760
   66TMC2    O5 1347   2.745   1.049  15.571
   66TMC2    H5 1348   2.731   1.022  15.477
   67TMC2    C1 1349   3.601   0.073   7.043
   67TMC2    C2 1350   3.547   0.161   7.138
   67TMC2    C3 1351   3.614   0.169   7.255
   67TMC2    C4 1352   3.722   0.013   7.055
   67TMC2    C5 1353   3.794   0.047   7.164
   67TMC2    C6 1354   3.741   0.123   7.268
   67TMC2     C 1355   3.522   0.040   6.929
   67TMC2     O 1356   3.401   0.063   6.931
   67TMC2     H 1357   3.445   0.195   7.124
   67TMC2    H1 1358   3.765   4.750   6.974
   67TMC2    H2 1359   3.786   0.139   7.365
   67TMC2    C7 1360   3.930   0.019   7.163
   67TMC2    C8 1361   3.555   0.233   7.367
   67TMC2    O1 1362   3.971   4.747   7.070
   67TMC2    O2 1363   3.598   0.235   7.479
   67TMC2    O5 1364   3.533   0.350   7.304
   67TMC2    H5 1365   3.518   0.346   7.207
   68TMC2    C1 1366   3.314   0.880   7.324
   68TMC2    C2 1367   3.408   0.791   7.286
   68TMC2    C3 1368   3.524   0.783   7.355
   68TMC2    C4 1369   3.337   0.972   7.427
   68TMC2    C5 1370   3.458   0.956   7.495
   68TMC2    C6 1371   3.548   0.863   7.462
   68TMC2     C 1372   3.209   0.894   7.226
   68TMC2     O 1373   3.189   0.805   7.145
   68TMC2     H 1374   3.403   0.720   7.204
   68TMC2    H1 1375   3.271   1.054   7.449
   68TMC2    H2 1376   3.644   0.881   7.508
   68TMC2    C7 1377   3.497   1.062   7.585
   68TMC2    C8 1378   3.626   0.686   7.316
   68TMC2    O1 1379   3.616   1.098   7.570
   68TMC2    O2 1380   3.693   0.626   7.396
   68TMC2    O5 1381   3.663   0.742   7.203
   68TMC2    H5 1382   3.608   0.815   7.168
   69TMC2    C1 1383   0.237   1.955   6.941
   69TMC2    C2 1384   0.270   2.014   7.062
   69TMC2    C3 1385   0.175   2.008   7.166
   69TMC2    C4 1386   0.111   1.904   6.923
   69TMC2    C5 1387   0.011   1.914   7.019
   69TMC2    C6 1388   0.043   1.967   7.142
   69TMC2     C 1389   0.343   1.879   6.878
   69TMC2     O 1390   0.429   1.830   6.952
   69TMC2     H 1391   0.373   2.046   7.076
   69TMC2    H1 1392   0.082   1.855   6.830
   69TMC2    H2 1393   4.765   1.979   7.222
   69TMC2    C7 1394   4.731   1.792   7.025
   69TMC2    C8 1395   0.208   2.087   7.282
   69TMC2    O1 1396   4.681   1.743   6.928
   69TMC2    O2 1397   0.301   2.163   7.278
   69TMC2    O5 1398   0.127   2.080   7.390
   69TMC2    H5 1399   0.054   2.014   7.384
   70TMC2    C1 1400   0.616   0.331   6.914
   70TMC2    C2 1401   0.531   0.225   6.912
   70TMC2    C3 1402   0.402   0.251   6.939
   70TMC2    C4 1403   0.570   0.464   6.934
   70TMC2    C5 1404   0.437   0.482   6.975
   70TMC2    C6 1405   0.355   0.376   6.976
   70TMC2     C 1406   0.760   0.312   6.891
   70TMC2     O 1407   0.809   0.383   6.805
   70TMC2     H 1408   0.567   0.123   6.906
   70TMC2    H1 1409   0.634   0.551   6.938
   70TMC2    H2 1410   0.251   0.391   7.002
   70TMC2    C7 1411   0.395   0.609   7.030
   70TMC2    C8 1412   0.316   0.138   6.968
   70TMC2    O1 1413   0.457   0.707   6.994
   70TMC2    O2 1414   0.355   0.039   7.024
   70TMC2    O5 1415   0.194   0.155   6.913
   70TMC2    H5 1416   0.188   0.243   6.869
   71TMC2    C1 1417   0.914   3.517  10.340
   71TMC2    C2 1418   1.026   3.594  10.336
   71TMC2    C3 1419   1.006   3.726  10.368
   71TMC2    C4 1420   0.790   3.572  10.351
   71TMC2    C5 1421   0.781   3.705  10.380
   71TMC2    C6 1422   0.888   3.788  10.400
   71TMC2     C 1423   0.919   3.372  10.366
   71TMC2     O 1424   0.844   3.316  10.290
   71TMC2     H 1425   1.127   3.555  10.332
   71TMC2    H1 1426   0.712   3.498  10.338
   71TMC2    H2 1427   0.875   3.892  10.429
   71TMC2    C7 1428   0.655   3.772  10.417
   71TMC2    C8 1429   1.119   3.807  10.382
   71TMC2    O1 1430   0.652   3.891  10.400
   71TMC2    O2 1431   1.111   3.922  10.433
   71TMC2    O5 1432   1.205   3.761  10.281
   71TMC2    H5 1433   1.268   3.829  10.249
   72TMC2    C1 1434   0.779   0.018  10.933
   72TMC2    C2 1435   0.728   4.687  10.923
   72TMC2    C3 1436   0.722   4.618  11.036
   72TMC2    C4 1437   0.820   0.070  11.056
   72TMC2    C5 1438   0.825   4.785  11.164
   72TMC2    C6 1439   0.781   4.653  11.158
   72TMC2     C 1440   0.811   0.096  10.811
   72TMC2     O 1441   0.816   0.217  10.832
   72TMC2     H 1442   0.672   4.651  10.837
   72TMC2    H1 1443   0.838   0.176  11.065
   72TMC2    H2 1444   0.793   4.577  11.235
   72TMC2    C7 1445   0.881   0.039  11.292
   72TMC2    C8 1446   0.643   4.501  11.029
   72TMC2    O1 1447   0.904   4.751  11.376
   72TMC2    O2 1448   0.614   4.443  10.924
   72TMC2    O5 1449   0.558   4.507  11.138
   72TMC2    H5 1450   0.591   4.584  11.189
   73TMC2    C1 1451   4.614   4.060   6.208
   73TMC2    C2 1452   4.723   4.129   6.260
   73TMC2    C3 1453   4.719   4.267   6.272
   73TMC2    C4 1454   4.494   4.131   6.181
   73TMC2    C5 1455   4.501   4.262   6.193
   73TMC2    C6 1456   4.610   4.336   6.235
   73TMC2     C 1457   4.591   3.923   6.238
   73TMC2     O 1458   4.482   3.876   6.198
   73TMC2     H 1459   0.026   4.081   6.269
   73TMC2    H1 1460   4.399   4.085   6.157
   73TMC2    H2 1461   4.608   4.440   6.268
   73TMC2    C7 1462   4.387   4.313   6.268
   73TMC2    C8 1463   0.043   4.337   6.323
   73TMC2    O1 1464   4.408   4.364   6.382
   73TMC2    O2 1465   0.060   4.458   6.310
   73TMC2    O5 1466   0.098   4.260   6.427
   73TMC2    H5 1467   0.068   4.167   6.421
   74TMC2    C1 1468   1.192   2.266  14.203
   74TMC2    C2 1469   1.104   2.223  14.295
   74TMC2    C3 1470   1.146   2.204  14.426
   74TMC2    C4 1471   1.323   2.305  14.242
   74TMC2    C5 1472   1.352   2.304  14.371
   74TMC2    C6 1473   1.266   2.249  14.467
   74TMC2     C 1474   1.137   2.331  14.084
   74TMC2     O 1475   1.031   2.290  14.038
   74TMC2     H 1476   1.000   2.208  14.268
   74TMC2    H1 1477   1.393   2.351  14.173
   74TMC2    H2 1478   1.288   2.237  14.572
   74TMC2    C7 1479   1.472   2.364  14.433
   74TMC2    C8 1480   1.032   2.187  14.512
   74TMC2    O1 1481   1.577   2.351  14.371
   74TMC2    O2 1482   0.944   2.096  14.508
   74TMC2    O5 1483   1.008   2.304  14.572
   74TMC2    H5 1484   1.080   2.370  14.560
   75TMC2    C1 1485   2.915   1.081   8.541
   75TMC2    C2 1486   2.879   1.163   8.442
   75TMC2    C3 1487   2.889   1.302   8.449
   75TMC2    C4 1488   2.958   1.134   8.655
   75TMC2    C5 1489   2.962   1.271   8.668
   75TMC2    C6 1490   2.920   1.355   8.570
   75TMC2     C 1491   2.936   0.942   8.514
   75TMC2     O 1492   2.853   0.899   8.432
   75TMC2     H 1493   2.877   1.111   8.347
   75TMC2    H1 1494   2.975   1.069   8.740
   75TMC2    H2 1495   2.937   1.461   8.581
   75TMC2    C7 1496   3.020   1.334   8.787
   75TMC2    C8 1497   2.860   1.391   8.339
   75TMC2    O1 1498   3.005   1.454   8.805
   75TMC2    O2 1499   2.886   1.510   8.344
   75TMC2    O5 1500   2.783   1.332   8.244
   75TMC2    H5 1501   2.767   1.235   8.246
   76TMC2    C1 1502   3.167   4.682   7.588
   76TMC2    C2 1503   3.192   4.787   7.670
   76TMC2    C3 1504   3.322   0.032   7.673
   76TMC2    C4 1505   3.256   4.639   7.492
   76TMC2    C5 1506   3.383   4.694   7.486
   76TMC2    C6 1507   3.416   4.789   7.582
   76TMC2     C 1508   3.056   4.601   7.633
   76TMC2     O 1509   3.014   4.618   7.748
   76TMC2     H 1510   3.138   0.032   7.755
   76TMC2    H1 1511   3.251   4.558   7.420
   76TMC2    H2 1512   3.515   0.038   7.582
   76TMC2    C7 1513   3.478   4.640   7.387
   76TMC2    C8 1514   3.345   0.159   7.745
   76TMC2    O1 1515   3.431   4.581   7.287
   76TMC2    O2 1516   3.343   0.163   7.868
   76TMC2    O5 1517   3.312   0.255   7.664
   76TMC2    H5 1518   3.297   0.236   7.569
   77TMC2    C1 1519   0.759   3.488   8.915
   77TMC2    C2 1520   0.650   3.484   8.837
   77TMC2    C3 1521   0.654   3.530   8.711
   77TMC2    C4 1522   0.878   3.540   8.861
   77TMC2    C5 1523   0.879   3.596   8.740
   77TMC2    C6 1524   0.766   3.583   8.656
   77TMC2     C 1525   0.745   3.543   9.046
   77TMC2     O 1526   0.827   3.522   9.132
   77TMC2     H 1527   0.555   3.454   8.879
   77TMC2    H1 1528   0.964   3.554   8.926
   77TMC2    H2 1529   0.770   3.615   8.553
   77TMC2    C7 1530   1.007   3.636   8.682
   77TMC2    C8 1531   0.548   3.480   8.622
   77TMC2    O1 1532   1.045   3.568   8.590
   77TMC2    O2 1533   0.438   3.443   8.667
   77TMC2    O5 1534   0.609   3.446   8.502
   77TMC2    H5 1535   0.706   3.456   8.492
   78TMC2    C1 1536   0.478   3.584   9.636
   78TMC2    C2 1537   0.576   3.486   9.633
   78TMC2    C3 1538   0.708   3.524   9.648
   78TMC2    C4 1539   0.524   3.711   9.643
   78TMC2    C5 1540   0.656   3.752   9.652
   78TMC2    C6 1541   0.749   3.650   9.673
   78TMC2     C 1542   0.338   3.562   9.619
   78TMC2     O 1543   0.273   3.659   9.580
   78TMC2     H 1544   0.545   3.383   9.639
   78TMC2    H1 1545   0.451   3.791   9.638
   78TMC2    H2 1546   0.848   3.665   9.716
   78TMC2    C7 1547   0.682   3.870   9.729
   78TMC2    C8 1548   0.806   3.433   9.695
   78TMC2    O1 1549   0.592   3.909   9.804
   78TMC2    O2 1550   0.864   3.465   9.797
   78TMC2    O5 1551   0.758   3.313   9.662
   78TMC2    H5 1552   0.731   3.311   9.568
   79TMC2    C1 1553   2.112   3.277  14.112
   79TMC2    C2 1554   2.191   3.289  14.224
   79TMC2    C3 1555   2.325   3.259  14.210
   79TMC2    C4 1556   2.165   3.239  13.990
   79TMC2    C5 1557   2.305   3.221  13.976
   79TMC2    C6 1558   2.384   3.228  14.088
   79TMC2     C 1559   1.976   3.344  14.117
   79TMC2     O 1560   1.909   3.345  14.015
   79TMC2     H 1561   2.157   3.332  14.317
   79TMC2    H1 1562   2.088   3.218  13.916
   79TMC2    H2 1563   2.492   3.217  14.076
   79TMC2    C7 1564   2.357   3.131  13.877
   79TMC2    C8 1565   2.409   3.302  14.317
   79TMC2    O1 1566   2.440   3.055  13.926
   79TMC2    O2 1567   2.372   3.313  14.432
   79TMC2    O5 1568   2.462   3.413  14.263
   79TMC2    H5 1569   2.445   3.426  14.167
   80TMC2    C1 1570   0.249   1.716   8.516
   80TMC2    C2 1571   0.163   1.690   8.412
   80TMC2    C3 1572   0.181   1.764   8.301
   80TMC2    C4 1573   0.325   1.824   8.520
   80TMC2    C5 1574   0.332   1.907   8.411
   80TMC2    C6 1575   0.274   1.866   8.299
   80TMC2     C 1576   0.252   1.628   8.628
   80TMC2     O 1577   0.335   1.649   8.716
   80TMC2     H 1578   0.107   1.598   8.398
   80TMC2    H1 1579   0.365   1.865   8.612
   80TMC2    H2 1580   0.288   1.927   8.211
   80TMC2    C7 1581   0.382   2.043   8.419
   80TMC2    C8 1582   0.141   1.725   8.168
   80TMC2    O1 1583   0.442   2.082   8.319
   80TMC2    O2 1584   0.139   1.816   8.079
   80TMC2    O5 1585   0.193   1.607   8.152
   80TMC2    H5 1586   0.212   1.560   8.236
   81TMC2    C1 1587   0.856   4.729   9.961
   81TMC2    C2 1588   0.936   0.016   9.887
   81TMC2    C3 1589   0.876   0.095   9.796
   81TMC2    C4 1590   0.731   4.703   9.909
   81TMC2    C5 1591   0.668   0.000   9.838
   81TMC2    C6 1592   0.743   0.089   9.774
   81TMC2     C 1593   0.835   4.769  10.094
   81TMC2     O 1594   0.856   0.093  10.124
   81TMC2     H 1595   1.035   0.031   9.927
   81TMC2    H1 1596   0.683   4.618   9.957
   81TMC2    H2 1597   0.695   0.162   9.710
   81TMC2    C7 1598   0.554   0.055   9.908
   81TMC2    C8 1599   0.956   0.205   9.750
   81TMC2    O1 1600   0.547   0.176   9.903
   81TMC2    O2 1601   1.055   0.221   9.821
   81TMC2    O5 1602   0.980   0.185   9.619
   81TMC2    H5 1603   0.907   0.150   9.564
   82TMC2    C1 1604   4.569   3.082  14.645
   82TMC2    C2 1605   4.601   3.182  14.729
   82TMC2    C3 1606   4.731   3.204  14.768
   82TMC2    C4 1607   4.672   3.007  14.588
   82TMC2    C5 1608   0.006   3.048  14.609
   82TMC2    C6 1609   0.044   3.147  14.701
   82TMC2     C 1610   4.438   3.069  14.582
   82TMC2     O 1611   4.424   2.983  14.498
   82TMC2     H 1612   4.525   3.242  14.778
   82TMC2    H1 1613   4.650   2.928  14.518
   82TMC2    H2 1614   0.150   3.158  14.721
   82TMC2    C7 1615   0.113   2.980  14.543
   82TMC2    C8 1616   4.757   3.310  14.858
   82TMC2    O1 1617   0.102   2.857  14.539
   82TMC2    O2 1618   4.699   3.421  14.849
   82TMC2    O5 1619   0.077   3.275  14.914
   82TMC2    H5 1620   0.098   3.179  14.914
   83TMC2    C1 1621   2.575   0.422  13.854
   83TMC2    C2 1622   2.506   0.516  13.928
   83TMC2    C3 1623   2.556   0.549  14.051
   83TMC2    C4 1624   2.696   0.383  13.893
   83TMC2    C5 1625   2.748   0.430  14.008
   83TMC2    C6 1626   2.674   0.498  14.102
   83TMC2     C 1627   2.510   0.385  13.730
   83TMC2     O 1628   2.391   0.376  13.731
   83TMC2     H 1629   2.415   0.562  13.891
   83TMC2    H1 1630   2.749   0.307  13.838
   83TMC2    H2 1631   2.718   0.546  14.188
   83TMC2    C7 1632   2.860   0.355  14.067
   83TMC2    C8 1633   2.461   0.618  14.139
   83TMC2    O1 1634   2.949   0.322  13.986
   83TMC2    O2 1635   2.352   0.673  14.106
   83TMC2    O5 1636   2.498   0.580  14.268
   83TMC2    H5 1637   2.560   0.505  14.260
   84TMC2    C1 1638   3.608   0.119   8.347
   84TMC2    C2 1639   3.673   0.216   8.419
   84TMC2    C3 1640   3.602   0.326   8.454
   84TMC2    C4 1641   3.470   0.124   8.333
   84TMC2    C5 1642   3.401   0.233   8.383
   84TMC2    C6 1643   3.466   0.343   8.442
   84TMC2     C 1644   3.689   0.002   8.329
   84TMC2     O 1645   3.803   0.014   8.372
   84TMC2     H 1646   3.781   0.222   8.415
   84TMC2    H1 1647   3.419   0.039   8.289
   84TMC2    H2 1648   3.421   0.438   8.465
   84TMC2    C7 1649   3.262   0.239   8.343
   84TMC2    C8 1650   3.666   0.453   8.490
   84TMC2    O1 1651   3.197   0.130   8.347
   84TMC2    O2 1652   3.619   0.566   8.476
   84TMC2    O5 1653   3.778   0.425   8.562
   84TMC2    H5 1654   3.819   0.336   8.557
   85TMC2    C1 1655   4.306   1.950  14.722
   85TMC2    C2 1656   4.329   1.836  14.799
   85TMC2    C3 1657   4.442   1.838  14.875
   85TMC2    C4 1658   4.400   2.047  14.709
   85TMC2    C5 1659   4.512   2.039  14.781
   85TMC2    C6 1660   4.539   1.935  14.866
   85TMC2     C 1661   4.176   1.972  14.662
   85TMC2     O 1662   4.078   1.946  14.738
   85TMC2     H 1663   4.265   1.749  14.809
   85TMC2    H1 1664   4.373   2.121  14.634
   85TMC2    H2 1665   4.624   1.945  14.932
   85TMC2    C7 1666   4.588   2.160  14.806
   85TMC2    C8 1667   4.486   1.712  14.933
   85TMC2    O1 1668   4.702   2.137  14.847
   85TMC2    O2 1669   4.480   1.596  14.893
   85TMC2    O5 1670   4.457   1.749  15.064
   85TMC2    H5 1671   4.416   1.838  15.067
   86TMC2    C1 1672   2.846   4.472   9.129
   86TMC2    C2 1673   2.808   4.575   9.208
   86TMC2    C3 1674   2.796   4.542   9.345
   86TMC2    C4 1675   2.861   4.345   9.174
   86TMC2    C5 1676   2.852   4.315   9.312
   86TMC2    C6 1677   2.826   4.420   9.394
   86TMC2     C 1678   2.919   4.500   9.007
   86TMC2     O 1679   3.013   4.426   8.983
   86TMC2     H 1680   2.784   4.676   9.179
   86TMC2    H1 1681   2.869   4.266   9.101
   86TMC2    H2 1682   2.849   4.417   9.500
   86TMC2    C7 1683   2.943   4.216   9.361
   86TMC2    C8 1684   2.772   4.648   9.438
   86TMC2    O1 1685   2.921   4.163   9.470
   86TMC2    O2 1686   2.774   4.765   9.401
   86TMC2    O5 1687   2.684   4.608   9.537
   86TMC2    H5 1688   2.670   4.512   9.552
   87MPD1     C 1689   1.229   4.034   7.442
   87MPD1    C1 1690   1.343   4.031   7.366
   87MPD1    C2 1691   1.331   4.004   7.233
   87MPD1    C3 1692   1.208   3.965   7.183
   87MPD1    C4 1693   1.097   3.958   7.258
   87MPD1    C5 1694   1.111   3.993   7.389
   87MPD1     H 1695   1.414   4.008   7.164
   87MPD1    H1 1696   1.000   3.936   7.216
   87MPD1    H2 1697   1.227   4.057   7.548
   87MPD1    H3 1698   1.021   4.003   7.449
   87MPD1     N 1699   1.199   3.945   7.044
   87MPD1    H5 1700   1.275   3.986   6.990
   87MPD1    N1 1701   1.467   4.071   7.420
   87MPD1    H6 1702   1.538   4.013   7.376
   87MPD1    H7 1703   1.470   4.055   7.520
   88MPD1     C 1704   4.084   1.725   9.726
   88MPD1    C1 1705   3.976   1.704   9.808
   88MPD1    C2 1706   3.959   1.801   9.905
   88MPD1    C3 1707   4.051   1.898   9.937
   88MPD1    C4 1708   4.168   1.895   9.863
   88MPD1    C5 1709   4.181   1.816   9.747
   88MPD1     H 1710   3.869   1.801   9.966
   88MPD1    H1 1711   4.228   1.984   9.874
   88MPD1    H2 1712   4.094   1.659   9.640
   88MPD1    H3 1713   4.273   1.827   9.690
   88MPD1     N 1714   4.009   1.998  10.030
   88MPD1    H5 1715   3.924   1.992  10.086
   88MPD1    N1 1716   3.887   1.609   9.759
   88MPD1    H6 1717   3.939   1.534   9.714
   88MPD1    H7 1718   3.822   1.561   9.821
   89MPD1     C 1719   2.351   3.704  11.699
   89MPD1    C1 1720   2.279   3.591  11.665
   89MPD1    C2 1721   2.303   3.476  11.736
   89MPD1    C3 1722   2.376   3.469  11.854
   89MPD1    C4 1723   2.448   3.581  11.885
   89MPD1    C5 1724   2.435   3.694  11.804
   89MPD1     H 1725   2.248   3.393  11.693
   89MPD1    H1 1726   2.513   3.576  11.972
   89MPD1    H2 1727   2.332   3.803  11.659
   89MPD1    H3 1728   2.491   3.782  11.835
   89MPD1     N 1729   2.388   3.349  11.929
   89MPD1    H5 1730   2.441   3.364  12.015
   89MPD1    N1 1731   2.207   3.587  11.540
   89MPD1    H6 1732   2.153   3.504  11.520
   89MPD1    H7 1733   2.157   3.674  11.520
   90MPD1     C 1734   0.677   1.972  13.777
   90MPD1    C1 1735   0.732   2.050  13.677
   90MPD1    C2 1736   0.865   2.088  13.687
   90MPD1    C3 1737   0.953   2.019  13.770
   90MPD1    C4 1738   0.898   1.924  13.855
   90MPD1    C5 1739   0.760   1.901  13.852
   90MPD1     H 1740   0.907   2.168  13.626
   90MPD1    H1 1741   0.959   1.883  13.935
   90MPD1    H2 1742   0.571   1.952  13.764
   90MPD1    H3 1743   0.720   1.833  13.927
   90MPD1     N 1744   1.095   2.032  13.778
   90MPD1    H5 1745   1.137   1.965  13.842
   90MPD1    N1 1746   0.650   2.129  13.597
   90MPD1    H6 1747   0.567   2.071  13.580
   90MPD1    H7 1748   0.708   2.151  13.517
   91MPD1     C 1749   3.020   2.483  10.753
   91MPD1    C1 1750   2.890   2.496  10.712
   91MPD1    C2 1751   2.822   2.380  10.679
   91MPD1    C3 1752   2.878   2.262  10.702
   91MPD1    C4 1753   3.004   2.249  10.758
   91MPD1    C5 1754   3.074   2.363  10.775
   91MPD1     H 1755   2.718   2.392  10.650
   91MPD1    H1 1756   3.041   2.154  10.794
   91MPD1    H2 1757   3.090   2.562  10.777
   91MPD1    H3 1758   3.172   2.364  10.822
   91MPD1     N 1759   2.790   2.154  10.678
   91MPD1    H5 1760   2.697   2.177  10.644
   91MPD1    N1 1761   2.845   2.622  10.687
   91MPD1    H6 1762   2.744   2.618  10.674
   91MPD1    H7 1763   2.854   2.686  10.765
   92MPD1     C 1764   2.794   1.170  10.912
   92MPD1    C1 1765   2.664   1.221  10.893
   92MPD1    C2 1766   2.643   1.353  10.855
   92MPD1    C3 1767   2.748   1.441  10.831
   92MPD1    C4 1768   2.874   1.399  10.876
   92MPD1    C5 1769   2.899   1.258  10.904
   92MPD1     H 1770   2.545   1.378  10.818
   92MPD1    H1 1771   2.961   1.461  10.859
   92MPD1    H2 1772   2.817   1.073  10.954
   92MPD1    H3 1773   2.997   1.221  10.932
   92MPD1     N 1774   2.728   1.569  10.765
   92MPD1    H5 1775   2.807   1.621  10.729
   92MPD1    N1 1776   2.553   1.129  10.888
   92MPD1    H6 1777   2.456   1.162  10.892
   92MPD1    H7 1778   2.575   1.042  10.935
   93MPD1     C 1779   1.804   4.298  12.066
   93MPD1    C1 1780   1.704   4.303  12.162
   93MPD1    C2 1781   1.646   4.188  12.213
   93MPD1    C3 1782   1.696   4.062  12.172
   93MPD1    C4 1783   1.808   4.057  12.092
   93MPD1    C5 1784   1.850   4.172  12.034
   93MPD1     H 1785   1.562   4.204  12.279
   93MPD1    H1 1786   1.851   3.966  12.053
   93MPD1    H2 1787   1.866   4.380  12.031
   93MPD1    H3 1788   1.931   4.174  11.961
   93MPD1     N 1789   1.634   3.938  12.201
   93MPD1    H5 1790   1.693   3.856  12.190
   93MPD1    N1 1791   1.639   4.427  12.185
   93MPD1    H6 1792   1.602   4.440  12.279
   93MPD1    H7 1793   1.698   4.509  12.171
   94MPD1     C 1794   3.091   0.222  12.850
   94MPD1    C1 1795   3.157   0.340  12.850
   94MPD1    C2 1796   3.149   0.414  12.960
   94MPD1    C3 1797   3.070   0.389  13.067
   94MPD1    C4 1798   2.994   0.276  13.066
   94MPD1    C5 1799   3.013   0.189  12.958
   94MPD1     H 1800   3.200   0.510  12.961
   94MPD1    H1 1801   2.928   0.256  13.150
   94MPD1    H2 1802   3.099   0.152  12.768
   94MPD1    H3 1803   2.967   0.091  12.952
   94MPD1     N 1804   3.072   0.486  13.173
   94MPD1    H5 1805   3.131   0.568  13.167
   94MPD1    N1 1806   3.248   0.379  12.742
   94MPD1    H6 1807   3.261   0.480  12.737
   94MPD1    H7 1808   3.225   0.349  12.647
   95MPD1     C 1809   1.329   0.651   6.491
   95MPD1    C1 1810   1.252   0.752   6.544
   95MPD1    C2 1811   1.116   0.736   6.551
   95MPD1    C3 1812   1.053   0.624   6.513
   95MPD1    C4 1813   1.127   0.525   6.450
   95MPD1    C5 1814   1.267   0.539   6.444
   95MPD1     H 1815   1.068   0.830   6.578
   95MPD1    H1 1816   1.085   0.439   6.401
   95MPD1    H2 1817   1.436   0.649   6.478
   95MPD1    H3 1818   1.314   0.445   6.419
   95MPD1     N 1819   0.909   0.639   6.516
   95MPD1    H5 1820   0.878   0.732   6.541
   95MPD1    N1 1821   1.307   0.880   6.570
   95MPD1    H6 1822   1.403   0.877   6.605
   95MPD1    H7 1823   1.246   0.931   6.633
   96MPD1     C 1824   4.642   0.905  13.157
   96MPD1    C1 1825   4.516   0.847  13.181
   96MPD1    C2 1826   4.407   0.929  13.158
   96MPD1    C3 1827   4.418   1.055  13.102
   96MPD1    C4 1828   4.547   1.100  13.065
   96MPD1    C5 1829   4.657   1.025  13.092
   96MPD1     H 1830   4.311   0.901  13.199
   96MPD1    H1 1831   4.560   1.198  13.020
   96MPD1    H2 1832   4.724   0.836  13.174
   96MPD1    H3 1833   4.757   1.063  13.077
   96MPD1     N 1834   4.310   1.138  13.065
   96MPD1    H5 1835   4.331   1.222  13.012
   96MPD1    N1 1836   4.503   0.725  13.250
   96MPD1    H6 1837   4.412   0.693  13.218
   96MPD1    H7 1838   4.568   0.659  13.208
   97MPD1     C 1839   3.905   4.616  12.166
   97MPD1    C1 1840   3.941   4.537  12.062
   97MPD1    C2 1841   3.930   4.399  12.086
   97MPD1    C3 1842   3.904   4.349  12.214
   97MPD1    C4 1843   3.880   4.440  12.324
   97MPD1    C5 1844   3.886   4.574  12.297
   97MPD1     H 1845   3.948   4.332  12.003
   97MPD1    H1 1846   3.864   4.417  12.429
   97MPD1    H2 1847   3.901   4.723  12.147
   97MPD1    H3 1848   3.870   4.648  12.374
   97MPD1     N 1849   3.908   4.213  12.239
   97MPD1    H5 1850   3.884   4.185  12.333
   97MPD1    N1 1851   3.958   4.590  11.928
   97MPD1    H6 1852   4.020   4.535  11.870
   97MPD1    H7 1853   4.000   4.683  11.930
   98MPD1     C 1854   3.169   0.845  10.914
   98MPD1    C1 1855   3.210   0.742  10.839
   98MPD1    C2 1856   3.138   0.709  10.728
   98MPD1    C3 1857   3.013   0.767  10.706
   98MPD1    C4 1858   2.964   0.865  10.792
   98MPD1    C5 1859   3.047   0.900  10.897
   98MPD1     H 1860   3.166   0.630  10.659
   98MPD1    H1 1861   2.866   0.911  10.784
   98MPD1    H2 1862   3.224   0.868  11.005
   98MPD1    H3 1863   3.019   0.972  10.974
   98MPD1     N 1864   2.934   0.731  10.596
   98MPD1    H5 1865   2.977   0.663  10.534
   98MPD1    N1 1866   3.330   0.673  10.878
   98MPD1    H6 1867   3.389   0.677  10.795
   98MPD1    H7 1868   3.300   0.576  10.890
   99MPD1     C 1869   0.480   2.029   6.485
   99MPD1    C1 1870   0.406   2.129   6.545
   99MPD1    C2 1871   0.442   2.180   6.670
   99MPD1    C3 1872   0.564   2.149   6.724
   99MPD1    C4 1873   0.640   2.055   6.653
   99MPD1    C5 1874   0.591   1.986   6.547
   99MPD1     H 1875   0.379   2.255   6.717
   99MPD1    H1 1876   0.741   2.032   6.685
   99MPD1    H2 1877   0.467   1.984   6.388
   99MPD1    H3 1878   0.658   1.916   6.497
   99MPD1     N 1879   0.614   2.201   6.847
   99MPD1    H5 1880   0.698   2.158   6.884
   99MPD1    N1 1881   0.275   2.160   6.493
   99MPD1    H6 1882   0.282   2.144   6.392
   99MPD1    H7 1883   0.243   2.254   6.513
  100MPD1     C 1884   4.791   1.376  14.785
  100MPD1    C1 1885   0.033   1.505  14.746
  100MPD1    C2 1886   0.141   1.527  14.662
  100MPD1    C3 1887   0.219   1.424  14.622
  100MPD1    C4 1888   0.174   1.297  14.651
  100MPD1    C5 1889   0.066   1.267  14.738
  100MPD1     H 1890   0.186   1.626  14.663
  100MPD1    H1 1891   0.223   1.203  14.626
  100MPD1    H2 1892   4.704   1.362  14.848
  100MPD1    H3 1893   0.047   1.169  14.778
  100MPD1     N 1894   0.341   1.436  14.552
  100MPD1    H5 1895   0.392   1.349  14.551
  100MPD1    N1 1896   4.764   1.614  14.795
  100MPD1    H6 1897   4.672   1.595  14.833
  100MPD1    H7 1898   4.750   1.687  14.727
  101MPD1     C 1899   2.059   1.405   7.743
  101MPD1    C1 1900   2.195   1.436   7.752
  101MPD1    C2 1901   2.235   1.564   7.707
  101MPD1    C3 1902   2.156   1.632   7.617
  101MPD1    C4 1903   2.031   1.590   7.594
  101MPD1    C5 1904   1.982   1.474   7.653
  101MPD1     H 1905   2.334   1.602   7.730
  101MPD1    H1 1906   1.958   1.639   7.530
  101MPD1    H2 1907   2.018   1.310   7.775
  101MPD1    H3 1908   1.882   1.434   7.638
  101MPD1     N 1909   2.212   1.752   7.562
  101MPD1    H5 1910   2.302   1.784   7.595
  101MPD1    N1 1911   2.268   1.370   7.848
  101MPD1    H6 1912   2.259   1.271   7.870
  101MPD1    H7 1913   2.365   1.396   7.836
  102MPD1     C 1914   1.070   4.334   7.112
  102MPD1    C1 1915   1.094   4.414   7.223
  102MPD1    C2 1916   1.087   4.550   7.207
  102MPD1    C3 1917   1.086   4.610   7.081
  102MPD1    C4 1918   1.057   4.526   6.975
  102MPD1    C5 1919   1.055   4.390   6.990
  102MPD1     H 1920   1.105   4.619   7.288
  102MPD1    H1 1921   1.045   4.571   6.877
  102MPD1    H2 1922   1.058   4.227   7.106
  102MPD1    H3 1923   1.033   4.324   6.907
  102MPD1     N 1924   1.105   4.742   7.051
  102MPD1    H5 1925   1.098   4.763   6.952
  102MPD1    N1 1926   1.087   4.346   7.349
  102MPD1    H6 1927   1.115   4.393   7.435
  102MPD1    H7 1928   1.130   4.254   7.349
  103MPD1     C 1929   0.822   0.967   6.975
  103MPD1    C1 1930   0.901   0.927   7.083
  103MPD1    C2 1931   0.928   0.792   7.094
  103MPD1    C3 1932   0.894   0.709   6.988
  103MPD1    C4 1933   0.816   0.754   6.885
  103MPD1    C5 1934   0.775   0.886   6.884
  103MPD1     H 1935   0.985   0.754   7.178
  103MPD1    H1 1936   0.775   0.693   6.805
  103MPD1    H2 1937   0.787   1.069   6.961
  103MPD1    H3 1938   0.705   0.926   6.811
  103MPD1     N 1939   0.942   0.571   6.974
  103MPD1    H5 1940   0.917   0.520   6.890
  103MPD1    N1 1941   0.923   1.015   7.188
  103MPD1    H6 1942   0.928   1.114   7.164
  103MPD1    H7 1943   1.007   0.994   7.242
  104MPD1     C 1944   4.479   3.759  12.436
  104MPD1    C1 1945   4.463   3.839  12.325
  104MPD1    C2 1946   4.377   3.947  12.338
  104MPD1    C3 1947   4.320   3.983  12.459
  104MPD1    C4 1948   4.340   3.902  12.564
  104MPD1    C5 1949   4.420   3.790  12.557
  104MPD1     H 1950   4.364   4.016  12.256
  104MPD1    H1 1951   4.307   3.931  12.663
  104MPD1    H2 1952   4.551   3.678  12.441
  104MPD1    H3 1953   4.446   3.740  12.650
  104MPD1     N 1954   4.261   4.114  12.494
  104MPD1    H5 1955   4.247   4.132  12.592
  104MPD1    N1 1956   4.512   3.786  12.202
  104MPD1    H6 1957   4.596   3.727  12.205
  104MPD1    H7 1958   4.518   3.848  12.121
  105MPD1     C 1959   2.941   1.149  14.288
  105MPD1    C1 1960   2.995   1.058  14.198
  105MPD1    C2 1961   3.041   1.107  14.075
  105MPD1    C3 1962   3.029   1.243  14.035
  105MPD1    C4 1963   2.983   1.328  14.127
  105MPD1    C5 1964   2.944   1.280  14.250
  105MPD1     H 1965   3.092   1.038  14.008
  105MPD1    H1 1966   2.961   1.430  14.099
  105MPD1    H2 1967   2.894   1.126  14.383
  105MPD1    H3 1968   2.897   1.349  14.319
  105MPD1     N 1969   3.067   1.300  13.914
  105MPD1    H5 1970   3.037   1.397  13.903
  105MPD1    N1 1971   3.003   0.921  14.224
  105MPD1    H6 1972   3.084   0.881  14.178
  105MPD1    H7 1973   3.017   0.922  14.325
  106MPD1     C 1974   3.024   1.837   7.177
  106MPD1    C1 1975   3.111   1.732   7.207
  106MPD1    C2 1976   3.071   1.637   7.296
  106MPD1    C3 1977   2.944   1.640   7.358
  106MPD1    C4 1978   2.867   1.748   7.325
  106MPD1    C5 1979   2.907   1.847   7.238
  106MPD1     H 1980   3.130   1.548   7.316
  106MPD1    H1 1981   2.769   1.762   7.369
  106MPD1    H2 1982   3.043   1.902   7.093
  106MPD1    H3 1983   2.838   1.930   7.228
  106MPD1     N 1984   2.891   1.540   7.444
  106MPD1    H5 1985   2.791   1.541   7.462
  106MPD1    N1 1986   3.248   1.737   7.168
  106MPD1    H6 1987   3.259   1.780   7.076
  106MPD1    H7 1988   3.281   1.641   7.160
  107MPD1     C 1989   4.697   1.904  13.843
  107MPD1    C1 1990   4.715   2.033  13.887
  107MPD1    C2 1991   4.596   2.101  13.921
  107MPD1    C3 1992   4.467   2.055  13.898
  107MPD1    C4 1993   4.456   1.927  13.844
  107MPD1    C5 1994   4.571   1.851  13.819
  107MPD1     H 1995   4.602   2.203  13.957
  107MPD1    H1 1996   4.359   1.883  13.824
  107MPD1    H2 1997   4.780   1.833  13.842
  107MPD1    H3 1998   4.557   1.747  13.791
  107MPD1     N 1999   4.362   2.142  13.936
  107MPD1    H5 2000   4.384   2.233  13.977
  107MPD1    N1 2001   0.041   2.075  13.943
  107MPD1    H6 2002   0.048   2.175  13.958
  107MPD1    H7 2003   0.118   2.036  13.890
  108MPD1     C 2004   3.086   0.778  11.700
  108MPD1    C1 2005   3.220   0.800  11.663
  108MPD1    C2 2006   3.307   0.689  11.682
  108MPD1    C3 2007   3.252   0.570  11.720
  108MPD1    C4 2008   3.121   0.556  11.763
  108MPD1    C5 2009   3.039   0.666  11.760
  108MPD1     H 2010   3.413   0.706  11.670
  108MPD1    H1 2011   3.087   0.463  11.807
  108MPD1    H2 2012   3.012   0.856  11.684
  108MPD1    H3 2013   2.937   0.646  11.789
  108MPD1     N 2014   3.328   0.451  11.720
  108MPD1    H5 2015   3.292   0.367  11.765
  108MPD1    N1 2016   3.264   0.923  11.621
  108MPD1    H6 2017   3.211   0.960  11.542
  108MPD1    H7 2018   3.360   0.915  11.589
  109MPD1     C 2019   3.746   2.898   9.888
  109MPD1    C1 2020   3.804   2.867   9.767
  109MPD1    C2 2021   3.734   2.915   9.655
  109MPD1    C3 2022   3.634   3.012   9.670
  109MPD1    C4 2023   3.581   3.045   9.793
  109MPD1    C5 2024   3.639   2.981   9.902
  109MPD1     H 2025   3.765   2.904   9.552
  109MPD1    H1 2026   3.503   3.116   9.818
  109MPD1    H2 2027   3.780   2.858   9.983
  109MPD1    H3 2028   3.600   3.007  10.000
  109MPD1     N 2029   3.598   3.081   9.553
  109MPD1    H5 2030   3.657   3.067   9.472
  109MPD1    N1 2031   3.896   2.758   9.759
  109MPD1    H6 2032   3.971   2.773   9.825
  109MPD1    H7 2033   3.932   2.775   9.665
  110MPD1     C 2034   2.862   3.516   8.855
  110MPD1    C1 2035   2.852   3.459   8.971
  110MPD1    C2 2036   2.962   3.394   9.025
  110MPD1    C3 2037   3.092   3.414   8.976
  110MPD1    C4 2038   3.097   3.494   8.867
  110MPD1    C5 2039   2.985   3.524   8.798
  110MPD1     H 2040   2.954   3.341   9.119
  110MPD1    H1 2041   3.188   3.519   8.813
  110MPD1    H2 2042   2.777   3.548   8.797
  110MPD1    H3 2043   2.999   3.577   8.704
  110MPD1     N 2044   3.209   3.377   9.044
  110MPD1    H5 2045   3.294   3.421   9.010
  110MPD1    N1 2046   2.726   3.447   9.035
  110MPD1    H6 2047   2.661   3.521   9.009
  110MPD1    H7 2048   2.735   3.437   9.136
  111MPD1     C 2049   2.438   2.602  12.464
  111MPD1    C1 2050   2.554   2.628  12.391
  111MPD1    C2 2051   2.642   2.731  12.429
  111MPD1    C3 2052   2.612   2.808  12.540
  111MPD1    C4 2053   2.507   2.776  12.617
  111MPD1    C5 2054   2.425   2.676  12.579
  111MPD1     H 2055   2.733   2.748  12.374
  111MPD1    H1 2056   2.495   2.818  12.717
  111MPD1    H2 2057   2.366   2.524  12.441
  111MPD1    H3 2058   2.341   2.659  12.646
  111MPD1     N 2059   2.693   2.917  12.588
  111MPD1    H5 2060   2.661   2.960  12.674
  111MPD1    N1 2061   2.575   2.567  12.270
  111MPD1    H6 2062   2.670   2.576  12.236
  111MPD1    H7 2063   2.519   2.613  12.199
  112MPD1     C 2064   4.643   0.458  13.445
  112MPD1    C1 2065   4.595   0.385  13.550
  112MPD1    C2 2066   4.628   0.253  13.556
  112MPD1    C3 2067   4.718   0.184  13.473
  112MPD1    C4 2068   4.782   0.267  13.379
  112MPD1    C5 2069   4.741   0.395  13.366
  112MPD1     H 2070   4.578   0.206  13.640
  112MPD1    H1 2071   0.074   0.229  13.324
  112MPD1    H2 2072   4.622   0.563  13.428
  112MPD1    H3 2073   4.793   0.459  13.294
  112MPD1     N 2074   4.748   0.046  13.489
  112MPD1    H5 2075   0.027   0.014  13.426
  112MPD1    N1 2076   4.494   0.444  13.635
  112MPD1    H6 2077   4.497   0.404  13.729
  112MPD1    H7 2078   4.517   0.542  13.653
  113MPD1     C 2079   2.699   2.266  13.809
  113MPD1    C1 2080   2.641   2.235  13.931
  113MPD1    C2 2081   2.632   2.099  13.964
  113MPD1    C3 2082   2.667   1.997  13.874
  113MPD1    C4 2083   2.732   2.031  13.761
  113MPD1    C5 2084   2.737   2.162  13.722
  113MPD1     H 2085   2.597   2.070  14.063
  113MPD1    H1 2086   2.782   1.951  13.707
  113MPD1    H2 2087   2.712   2.367  13.772
  113MPD1    H3 2088   2.800   2.196  13.640
  113MPD1     N 2089   2.659   1.859  13.907
  113MPD1    H5 2090   2.704   1.798  13.839
  113MPD1    N1 2091   2.619   2.335  14.028
  113MPD1    H6 2092   2.543   2.305  14.088
  113MPD1    H7 2093   2.580   2.420  13.987
  114MPD1     C 2094   0.772   0.530  14.340
  114MPD1    C1 2095   0.891   0.524  14.269
  114MPD1    C2 2096   1.003   0.593  14.303
  114MPD1    C3 2097   0.988   0.685  14.407
  114MPD1    C4 2098   0.867   0.689  14.473
  114MPD1    C5 2099   0.764   0.613  14.445
  114MPD1     H 2100   1.091   0.572  14.243
  114MPD1    H1 2101   0.849   0.765  14.549
  114MPD1    H2 2102   0.678   0.479  14.319
  114MPD1    H3 2103   0.678   0.636  14.507
  114MPD1     N 2104   1.094   0.757  14.467
  114MPD1    H5 2105   1.087   0.819  14.547
  114MPD1    N1 2106   0.892   0.437  14.162
  114MPD1    H6 2107   0.802   0.422  14.118
  114MPD1    H7 2108   0.959   0.459  14.089
  115MPD1     C 2109   1.184   4.179  13.274
  115MPD1    C1 2110   1.151   4.283  13.191
  115MPD1    C2 2111   1.192   4.285  13.059
  115MPD1    C3 2112   1.282   4.181  13.016
  115MPD1    C4 2113   1.321   4.081  13.103
  115MPD1    C5 2114   1.279   4.091  13.234
  115MPD1     H 2115   1.168   4.373  13.001
  115MPD1    H1 2116   1.384   3.998  13.074
  115MPD1    H2 2117   1.157   4.175  13.379
  115MPD1    H3 2118   1.304   4.012  13.304
  115MPD1     N 2119   1.345   4.179  12.892
  115MPD1    H5 2120   1.410   4.105  12.868
  115MPD1    N1 2121   1.064   4.385  13.234
  115MPD1    H6 2122   1.072   4.467  13.174
  115MPD1    H7 2123   1.100   4.424  13.321
  116MPD1     C 2124   4.123   1.108  10.885
  116MPD1    C1 2125   4.064   1.230  10.857
  116MPD1    C2 2126   4.011   1.298  10.969
  116MPD1    C3 2127   4.033   1.256  11.100
  116MPD1    C4 2128   4.104   1.140  11.125
  116MPD1    C5 2129   4.136   1.066  11.017
  116MPD1     H 2130   3.957   1.390  10.949
  116MPD1    H1 2131   4.126   1.105  11.225
  116MPD1    H2 2132   4.152   1.035  10.811
  116MPD1    H3 2133   4.162   0.962  11.034
  116MPD1     N 2134   3.976   1.338  11.202
  116MPD1    H5 2135   3.938   1.428  11.173
  116MPD1    N1 2136   4.030   1.268  10.729
  116MPD1    H6 2137   4.019   1.369  10.725
  116MPD1    H7 2138   4.113   1.244  10.675
  117MPD1     C 2139   1.020   2.845   7.505
  117MPD1    C1 2140   1.045   2.733   7.424
  117MPD1    C2 2141   1.016   2.740   7.288
  117MPD1    C3 2142   0.991   2.864   7.234
  117MPD1    C4 2143   0.975   2.972   7.311
  117MPD1    C5 2144   0.985   2.961   7.446
  117MPD1     H 2145   1.018   2.650   7.229
  117MPD1    H1 2146   0.948   3.071   7.276
  117MPD1    H2 2147   1.064   2.841   7.605
  117MPD1    H3 2148   0.968   3.048   7.509
  117MPD1     N 2149   0.968   2.882   7.090
  117MPD1    H5 2150   0.954   2.976   7.053
  117MPD1    N1 2151   1.097   2.615   7.478
  117MPD1    H6 2152   1.177   2.577   7.428
  117MPD1    H7 2153   1.139   2.646   7.566
  118MPD1     C 2154   3.652   3.245  11.411
  118MPD1    C1 2155   3.715   3.252  11.288
  118MPD1    C2 2156   3.848   3.208  11.274
  118MPD1    C3 2157   3.912   3.153  11.388
  118MPD1    C4 2158   3.844   3.153  11.511
  118MPD1    C5 2159   3.717   3.200  11.519
  118MPD1     H 2160   3.903   3.195  11.182
  118MPD1    H1 2161   3.876   3.107  11.603
  118MPD1    H2 2162   3.544   3.253  11.421
  118MPD1    H3 2163   3.657   3.200  11.609
  118MPD1     N 2164   4.044   3.113  11.373
  118MPD1    H5 2165   4.079   3.136  11.280
  118MPD1    N1 2166   3.626   3.273  11.180
  118MPD1    H6 2167   3.542   3.324  11.204
  118MPD1    H7 2168   3.667   3.339  11.114
  119MPD1     C 2169   2.450   1.921   9.329
  119MPD1    C1 2170   2.572   1.898   9.385
  119MPD1    C2 2171   2.567   1.853   9.509
  119MPD1    C3 2172   2.461   1.796   9.572
  119MPD1    C4 2173   2.340   1.798   9.504
  119MPD1    C5 2174   2.340   1.864   9.389
  119MPD1     H 2175   2.658   1.854   9.568
  119MPD1    H1 2176   2.249   1.762   9.550
  119MPD1    H2 2177   2.435   1.984   9.241
  119MPD1    H3 2178   2.248   1.878   9.334
  119MPD1     N 2179   2.475   1.740   9.701
  119MPD1    H5 2180   2.567   1.747   9.744
  119MPD1    N1 2181   2.683   1.957   9.322
  119MPD1    H6 2182   2.667   1.980   9.224
  119MPD1    H7 2183   2.769   1.904   9.333
  120MPD1     C 2184   2.015   0.722   6.273
  120MPD1    C1 2185   1.928   0.730   6.376
  120MPD1    C2 2186   1.949   0.809   6.482
  120MPD1    C3 2187   2.057   0.896   6.489
  120MPD1    C4 2188   2.148   0.891   6.386
  120MPD1    C5 2189   2.124   0.800   6.283
  120MPD1     H 2190   1.887   0.783   6.567
  120MPD1    H1 2191   2.237   0.952   6.380
  120MPD1    H2 2192   2.014   0.644   6.198
  120MPD1    H3 2193   2.201   0.785   6.208
  120MPD1     N 2194   2.091   0.972   6.602
  120MPD1    H5 2195   2.163   1.043   6.592
  120MPD1    N1 2196   1.827   0.630   6.391
  120MPD1    H6 2197   1.807   0.586   6.301
  120MPD1    H7 2198   1.737   0.665   6.425
  121MPD1     C 2199   1.466   2.321   8.969
  121MPD1    C1 2200   1.384   2.212   8.958
  121MPD1    C2 2201   1.287   2.192   9.055
  121MPD1    C3 2202   1.267   2.293   9.154
  121MPD1    C4 2203   1.345   2.406   9.148
  121MPD1    C5 2204   1.448   2.416   9.061
  121MPD1     H 2205   1.241   2.094   9.053
  121MPD1    H1 2206   1.342   2.489   9.219
  121MPD1    H2 2207   1.550   2.319   8.901
  121MPD1    H3 2208   1.505   2.508   9.063
  121MPD1     N 2209   1.167   2.280   9.254
  121MPD1    H5 2210   1.125   2.188   9.255
  121MPD1    N1 2211   1.419   2.109   8.865
  121MPD1    H6 2212   1.333   2.071   8.826
  121MPD1    H7 2213   1.472   2.141   8.784
  122MPD1     C 2214   1.173   3.279  13.629
  122MPD1    C1 2215   1.194   3.179  13.538
  122MPD1    C2 2216   1.136   3.189  13.414
  122MPD1    C3 2217   1.063   3.306  13.374
  122MPD1    C4 2218   1.064   3.408  13.468
  122MPD1    C5 2219   1.113   3.395  13.591
  122MPD1     H 2220   1.137   3.109  13.341
  122MPD1    H1 2221   1.011   3.501  13.451
  122MPD1    H2 2222   1.212   3.264  13.729
  122MPD1    H3 2223   1.096   3.479  13.659
  122MPD1     N 2224   0.983   3.306  13.252
  122MPD1    H5 2225   0.986   3.224  13.192
  122MPD1    N1 2226   1.245   3.051  13.582
  122MPD1    H6 2227   1.284   3.060  13.675
  122MPD1    H7 2228   1.162   2.997  13.607
  123MPD1     C 2229   0.721   2.369  12.372
  123MPD1    C1 2230   0.715   2.267  12.470
  123MPD1    C2 2231   0.668   2.295  12.598
  123MPD1    C3 2232   0.596   2.413  12.616
  123MPD1    C4 2233   0.603   2.514  12.520
  123MPD1    C5 2234   0.668   2.491  12.403
  123MPD1     H 2235   0.672   2.209  12.664
  123MPD1    H1 2236   0.569   2.609  12.560
  123MPD1    H2 2237   0.751   2.345  12.270
  123MPD1    H3 2238   0.682   2.569  12.329
  123MPD1     N 2239   0.519   2.446  12.734
  123MPD1    H5 2240   0.470   2.534  12.731
  123MPD1    N1 2241   0.797   2.154  12.442
  123MPD1    H6 2242   0.809   2.139  12.342
  123MPD1    H7 2243   0.769   2.071  12.493
  124MPD1     C 2244   1.005   0.185  13.031
  124MPD1    C1 2245   0.926   0.226  13.130
  124MPD1    C2 2246   0.819   0.300  13.094
  124MPD1    C3 2247   0.786   0.324  12.959
  124MPD1    C4 2248   0.852   0.251  12.861
  124MPD1    C5 2249   0.966   0.185  12.902
  124MPD1     H 2250   0.774   0.368  13.164
  124MPD1    H1 2251   0.833   0.262  12.755
  124MPD1    H2 2252   1.099   0.135  13.049
  124MPD1    H3 2253   1.028   0.135  12.829
  124MPD1     N 2254   0.676   0.409  12.916
  124MPD1    H5 2255   0.671   0.431  12.817
  124MPD1    N1 2256   0.971   0.218  13.267
  124MPD1    H6 2257   1.003   0.122  13.280
  124MPD1    H7 2258   0.897   0.230  13.337
  125MPD1     C 2259   3.831   2.893   5.634
  125MPD1    C1 2260   3.826   3.015   5.688
  125MPD1    C2 2261   3.924   3.064   5.769
  125MPD1    C3 2262   4.035   2.987   5.798
  125MPD1    C4 2263   4.041   2.862   5.748
  125MPD1    C5 2264   3.947   2.817   5.665
  125MPD1     H 2265   3.919   3.169   5.798
  125MPD1    H1 2266   4.121   2.790   5.763
  125MPD1    H2 2267   3.757   2.849   5.567
  125MPD1    H3 2268   3.951   2.717   5.623
  125MPD1     N 2269   4.125   3.020   5.900
  125MPD1    H5 2270   4.185   2.946   5.934
  125MPD1    N1 2271   3.705   3.092   5.667
  125MPD1    H6 2272   3.638   3.040   5.610
  125MPD1    H7 2273   3.668   3.115   5.759
  126MPD1     C 2274   1.520   1.799  13.499
  126MPD1    C1 2275   1.492   1.680  13.567
  126MPD1    C2 2276   1.359   1.649  13.594
  126MPD1    C3 2277   1.259   1.736  13.549
  126MPD1    C4 2278   1.295   1.850  13.482
  126MPD1    C5 2279   1.424   1.886  13.467
  126MPD1     H 2280   1.336   1.566  13.660
  126MPD1    H1 2281   1.219   1.918  13.444
  126MPD1    H2 2282   1.621   1.834  13.480
  126MPD1    H3 2283   1.457   1.972  13.408
  126MPD1     N 2284   1.126   1.705  13.583
  126MPD1    H5 2285   1.119   1.625  13.645
  126MPD1    N1 2286   1.597   1.597  13.622
  126MPD1    H6 2287   1.574   1.500  13.638
  126MPD1    H7 2288   1.683   1.611  13.569
  127MPD1     C 2289   3.965   1.934   7.129
  127MPD1    C1 2290   3.978   1.995   7.250
  127MPD1    C2 2291   4.029   2.120   7.253
  127MPD1    C3 2292   4.069   2.175   7.129
  127MPD1    C4 2293   4.074   2.102   7.014
  127MPD1    C5 2294   4.018   1.986   7.014
  127MPD1     H 2295   4.041   2.180   7.342
  127MPD1    H1 2296   4.107   2.148   6.922
  127MPD1    H2 2297   3.917   1.837   7.122
  127MPD1    H3 2298   4.021   1.919   6.929
  127MPD1     N 2299   4.121   2.307   7.120
  127MPD1    H5 2300   4.155   2.325   7.026
  127MPD1    N1 2301   3.909   1.941   7.355
  127MPD1    H6 2302   3.904   1.839   7.358
  127MPD1    H7 2303   3.953   1.970   7.442
  128MPD1     C 2304   4.771   3.013   7.449
  128MPD1    C1 2305   4.664   2.990   7.530
  128MPD1    C2 2306   4.542   2.942   7.480
  128MPD1    C3 2307   4.536   2.917   7.343
  128MPD1    C4 2308   4.641   2.949   7.263
  128MPD1    C5 2309   4.760   2.998   7.313
  128MPD1     H 2310   4.464   2.941   7.555
  128MPD1    H1 2311   4.647   2.918   7.160
  128MPD1    H2 2312   0.069   3.050   7.492
  128MPD1    H3 2313   0.051   3.018   7.249
  128MPD1     N 2314   4.425   2.864   7.278
  128MPD1    H5 2315   4.451   2.840   7.183
  128MPD1    N1 2316   4.671   3.048   7.655
  128MPD1    H6 2317   4.597   3.019   7.719
  128MPD1    H7 2318   4.760   3.028   7.699
  129MPD1     C 2319   0.149   1.790  13.170
  129MPD1    C1 2320   0.079   1.892  13.120
  129MPD1    C2 2321   0.111   1.946  12.999
  129MPD1    C3 2322   0.213   1.881  12.921
  129MPD1    C4 2323   0.284   1.781  12.974
  129MPD1    C5 2324   0.259   1.742  13.107
  129MPD1     H 2325   0.067   2.033  12.952
  129MPD1    H1 2326   0.364   1.730  12.922
  129MPD1    H2 2327   0.121   1.746  13.265
  129MPD1    H3 2328   0.314   1.662  13.154
  129MPD1     N 2329   0.240   1.931  12.791
  129MPD1    H5 2330   0.190   2.016  12.770
  129MPD1    N1 2331   4.764   1.923  13.193
  129MPD1    H6 2332   4.766   1.892  13.290
  129MPD1    H7 2333   4.731   2.019  13.181
  130MPD1     C 2334   4.067   0.746  13.034
  130MPD1    C1 2335   4.154   0.679  12.950
  130MPD1    C2 2336   4.224   0.572  13.003
  130MPD1    C3 2337   4.208   0.538  13.135
  130MPD1    C4 2338   4.125   0.608  13.215
  130MPD1    C5 2339   4.054   0.711  13.166
  130MPD1     H 2340   4.292   0.517  12.939
  130MPD1    H1 2341   4.119   0.582  13.320
  130MPD1    H2 2342   4.025   0.834  12.986
  130MPD1    H3 2343   3.999   0.772  13.236
  130MPD1     N 2344   4.275   0.426  13.189
  130MPD1    H5 2345   4.242   0.390  13.278
  130MPD1    N1 2346   4.154   0.703  12.813
  130MPD1    H6 2347   4.231   0.669  12.755
  130MPD1    H7 2348   4.140   0.800  12.786
  131MPD1     C 2349   3.441   1.286  11.220
  131MPD1    C1 2350   3.344   1.377  11.164
  131MPD1    C2 2351   3.213   1.319  11.175
  131MPD1    C3 2352   3.175   1.224  11.269
  131MPD1    C4 2353   3.278   1.150  11.330
  131MPD1    C5 2354   3.410   1.176  11.297
  131MPD1     H 2355   3.124   1.362  11.130
  131MPD1    H1 2356   3.257   1.061  11.388
  131MPD1    H2 2357   3.548   1.304  11.224
  131MPD1    H3 2358   3.491   1.127  11.349
  131MPD1     N 2359   3.040   1.189  11.286
  131MPD1    H5 2360   2.977   1.251  11.235
  131MPD1    N1 2361   3.377   1.472  11.069
  131MPD1    H6 2362   3.305   1.534  11.033
  131MPD1    H7 2363   3.460   1.525  11.094
  132MPD1     C 2364   2.308   0.473  11.342
  132MPD1    C1 2365   2.332   0.517  11.210
  132MPD1    C2 2366   2.421   0.626  11.184
  132MPD1    C3 2367   2.493   0.681  11.295
  132MPD1    C4 2368   2.471   0.625  11.424
  132MPD1    C5 2369   2.384   0.523  11.449
  132MPD1     H 2370   2.439   0.656  11.082
  132MPD1    H1 2371   2.518   0.672  11.510
  132MPD1    H2 2372   2.236   0.396  11.365
  132MPD1    H3 2373   2.357   0.489  11.548
  132MPD1     N 2374   2.567   0.800  11.304
  132MPD1    H5 2375   2.605   0.837  11.391
  132MPD1    N1 2376   2.240   0.476  11.115
  132MPD1    H6 2377   2.277   0.491  11.022
  132MPD1    H7 2378   2.197   0.384  11.126
  133MPD1     C 2379   3.151   1.941   7.501
  133MPD1    C1 2380   3.286   1.964   7.491
  133MPD1    C2 2381   3.345   2.051   7.584
  133MPD1    C3 2382   3.273   2.099   7.693
  133MPD1    C4 2383   3.134   2.070   7.699
  133MPD1    C5 2384   3.072   1.991   7.607
  133MPD1     H 2385   3.453   2.056   7.572
  133MPD1    H1 2386   3.069   2.122   7.769
  133MPD1    H2 2387   3.099   1.881   7.427
  133MPD1    H3 2388   2.966   1.977   7.620
  133MPD1     N 2389   3.340   2.187   7.786
  133MPD1    H5 2390   3.440   2.197   7.776
  133MPD1    N1 2391   3.348   1.935   7.373
  133MPD1    H6 2392   3.444   1.912   7.398
  133MPD1    H7 2393   3.307   1.871   7.306
  134MPD1     C 2394   3.645   3.994  13.421
  134MPD1    C1 2395   3.761   4.068  13.429
  134MPD1    C2 2396   3.849   4.046  13.532
  134MPD1    C3 2397   3.826   3.942  13.620
  134MPD1    C4 2398   3.714   3.861  13.612
  134MPD1    C5 2399   3.625   3.896  13.512
  134MPD1     H 2400   3.938   4.109  13.539
  134MPD1    H1 2401   3.686   3.782  13.681
  134MPD1    H2 2402   3.569   4.016  13.347
  134MPD1    H3 2403   3.533   3.840  13.502
  134MPD1     N 2404   3.915   3.926  13.729
  134MPD1    H5 2405   4.000   3.982  13.729
  134MPD1    N1 2406   3.777   4.185  13.353
  134MPD1    H6 2407   3.875   4.213  13.348
  134MPD1    H7 2408   3.751   4.171  13.256
  135MPD1     C 2409   1.615   1.199   6.810
  135MPD1    C1 2410   1.535   1.254   6.905
  135MPD1    C2 2411   1.397   1.263   6.877
  135MPD1    C3 2412   1.345   1.223   6.757
  135MPD1    C4 2413   1.430   1.182   6.658
  135MPD1    C5 2414   1.563   1.163   6.695
  135MPD1     H 2415   1.336   1.313   6.951
  135MPD1    H1 2416   1.392   1.154   6.560
  135MPD1    H2 2417   1.722   1.196   6.829
  135MPD1    H3 2418   1.622   1.107   6.623
  135MPD1     N 2419   1.210   1.241   6.728
  135MPD1    H5 2420   1.182   1.225   6.631
  135MPD1    N1 2421   1.584   1.320   7.023
  135MPD1    H6 2422   1.682   1.301   7.043
  135MPD1    H7 2423   1.525   1.292   7.101
  136MPD1     C 2424   2.663   3.390   9.470
  136MPD1    C1 2425   2.768   3.439   9.411
  136MPD1    C2 2426   2.880   3.360   9.395
  136MPD1    C3 2427   2.878   3.235   9.463
  136MPD1    C4 2428   2.770   3.191   9.530
  136MPD1    C5 2429   2.661   3.272   9.539
  136MPD1     H 2430   2.961   3.392   9.331
  136MPD1    H1 2431   2.762   3.090   9.567
  136MPD1    H2 2432   2.574   3.453   9.472
  136MPD1    H3 2433   2.566   3.243   9.582
  136MPD1     N 2434   2.995   3.163   9.459
  136MPD1    H5 2435   3.069   3.184   9.393
  136MPD1    N1 2436   2.750   3.547   9.324
  136MPD1    H6 2437   2.681   3.614   9.358
  136MPD1    H7 2438   2.836   3.596   9.301
  137MPD1     C 2439   3.491   3.152   8.752
  137MPD1    C1 2440   3.573   3.102   8.854
  137MPD1    C2 2441   3.514   3.040   8.965
  137MPD1    C3 2442   3.376   3.040   8.985
  137MPD1    C4 2443   3.295   3.082   8.880
  137MPD1    C5 2444   3.355   3.138   8.767
  137MPD1     H 2445   3.580   2.996   9.038
  137MPD1    H1 2446   3.187   3.077   8.888
  137MPD1    H2 2447   3.526   3.206   8.665
  137MPD1    H3 2448   3.299   3.172   8.681
  137MPD1     N 2449   3.314   3.001   9.106
  137MPD1    H5 2450   3.212   2.997   9.110
  137MPD1    N1 2451   3.711   3.126   8.836
  137MPD1    H6 2452   3.761   3.125   8.926
  137MPD1    H7 2453   3.731   3.201   8.771
  138MPD1     C 2454   2.571   3.506   6.797
  138MPD1    C1 2455   2.496   3.452   6.895
  138MPD1    C2 2456   2.544   3.347   6.964
  138MPD1    C3 2457   2.679   3.308   6.942
  138MPD1    C4 2458   2.762   3.379   6.854
  138MPD1    C5 2459   2.702   3.483   6.786
  138MPD1     H 2460   2.479   3.291   7.031
  138MPD1    H1 2461   2.866   3.359   6.831
  138MPD1    H2 2462   2.529   3.562   6.714
  138MPD1    H3 2463   2.759   3.538   6.712
  138MPD1     N 2464   2.736   3.199   7.019
  138MPD1    H5 2465   2.671   3.162   7.088
  138MPD1    N1 2466   2.360   3.478   6.896
  138MPD1    H6 2467   2.352   3.580   6.890
  138MPD1    H7 2468   2.318   3.453   6.986
  139MPD1     C 2469   4.570   1.688  12.658
  139MPD1    C1 2470   4.604   1.626  12.543
  139MPD1    C2 2471   4.724   1.553  12.545
  139MPD1    C3 2472   0.028   1.588  12.632
  139MPD1    C4 2473   4.790   1.667  12.742
  139MPD1    C5 2474   4.658   1.708  12.759
  139MPD1     H 2475   4.740   1.487  12.461
  139MPD1    H1 2476   0.070   1.701  12.813
  139MPD1    H2 2477   4.475   1.739  12.670
  139MPD1    H3 2478   4.639   1.762  12.851
  139MPD1     N 2479   0.163   1.541  12.633
  139MPD1    H5 2480   0.226   1.580  12.702
  139MPD1    N1 2481   4.504   1.596  12.451
  139MPD1    H6 2482   4.547   1.585  12.359
  139MPD1    H7 2483   4.427   1.662  12.451
  140MPD1     C 2484   3.668   0.493  14.771
  140MPD1    C1 2485   3.750   0.447  14.674
  140MPD1    C2 2486   3.719   0.493  14.545
  140MPD1    C3 2487   3.634   0.598  14.521
  140MPD1    C4 2488   3.559   0.646  14.628
  140MPD1    C5 2489   3.587   0.599  14.750
  140MPD1     H 2490   3.756   0.439  14.459
  140MPD1    H1 2491   3.475   0.715  14.625
  140MPD1    H2 2492   3.666   0.444  14.868
  140MPD1    H3 2493   3.529   0.637  14.833
  140MPD1     N 2494   3.610   0.657  14.398
  140MPD1    H5 2495   3.535   0.725  14.401
  140MPD1    N1 2496   3.829   0.329  14.697
  140MPD1    H6 2497   3.863   0.329  14.794
  140MPD1    H7 2498   3.915   0.332  14.643
  141MPD1     C 2499   4.263   1.060  13.761
  141MPD1    C1 2500   4.263   0.933  13.812
  141MPD1    C2 2501   4.144   0.887  13.868
  141MPD1    C3 2502   4.031   0.969  13.886
  141MPD1    C4 2503   4.038   1.097  13.831
  141MPD1    C5 2504   4.152   1.137  13.766
  141MPD1     H 2505   4.132   0.784  13.900
  141MPD1    H1 2506   3.952   1.163  13.837
  141MPD1    H2 2507   4.352   1.103  13.719
  141MPD1    H3 2508   4.161   1.240  13.732
  141MPD1     N 2509   3.911   0.914  13.936
  141MPD1    H5 2510   3.913   0.815  13.959
  141MPD1    N1 2511   4.360   0.839  13.770
  141MPD1    H6 2512   4.367   0.759  13.833
  141MPD1    H7 2513   4.453   0.878  13.760
  142MPD1     C 2514   2.307   1.918   6.858
  142MPD1    C1 2515   2.312   2.008   6.756
  142MPD1    C2 2516   2.221   2.112   6.762
  142MPD1    C3 2517   2.117   2.110   6.856
  142MPD1    C4 2518   2.122   2.017   6.956
  142MPD1    C5 2519   2.220   1.925   6.955
  142MPD1     H 2520   2.226   2.194   6.692
  142MPD1    H1 2521   2.043   2.011   7.030
  142MPD1    H2 2522   2.371   1.831   6.863
  142MPD1    H3 2523   2.218   1.849   7.033
  142MPD1     N 2524   2.006   2.200   6.853
  142MPD1    H5 2525   1.940   2.186   6.930
  142MPD1    N1 2526   2.416   2.007   6.654
  142MPD1    H6 2527   2.404   2.063   6.570
  142MPD1    H7 2528   2.453   1.914   6.634
  143MPD1     C 2529   2.428   4.586   9.152
  143MPD1    C1 2530   2.496   4.486   9.089
  143MPD1    C2 2531   2.527   4.375   9.163
  143MPD1    C3 2532   2.477   4.360   9.290
  143MPD1    C4 2533   2.394   4.453   9.342
  143MPD1    C5 2534   2.370   4.566   9.275
  143MPD1     H 2535   2.589   4.297   9.122
  143MPD1    H1 2536   2.358   4.447   9.444
  143MPD1    H2 2537   2.408   4.675   9.094
  143MPD1    H3 2538   2.307   4.645   9.315
  143MPD1     N 2539   2.503   4.248   9.374
  143MPD1    H5 2540   2.455   4.256   9.463
  143MPD1    N1 2541   2.572   4.517   8.974
  143MPD1    H6 2542   2.514   4.577   8.915
  143MPD1    H7 2543   2.593   4.427   8.931
  144MPD1     C 2544   1.131   2.629   6.770
  144MPD1    C1 2545   1.175   2.707   6.669
  144MPD1    C2 2546   1.290   2.769   6.684
  144MPD1    C3 2547   1.367   2.747   6.798
  144MPD1    C4 2548   1.325   2.655   6.894
  144MPD1    C5 2549   1.208   2.601   6.876
  144MPD1     H 2550   1.317   2.848   6.615
  144MPD1    H1 2551   1.374   2.633   6.988
  144MPD1    H2 2552   1.026   2.603   6.771
  144MPD1    H3 2553   1.165   2.544   6.958
  144MPD1     N 2554   1.489   2.822   6.819
  144MPD1    H5 2555   1.518   2.881   6.742
  144MPD1    N1 2556   1.092   2.735   6.562
  144MPD1    H6 2557   1.051   2.647   6.531
  144MPD1    H7 2558   1.130   2.788   6.484
  145MPD1     C 2559   1.630   3.466   6.353
  145MPD1    C1 2560   1.530   3.371   6.381
  145MPD1    C2 2561   1.556   3.285   6.484
  145MPD1    C3 2562   1.671   3.297   6.563
  145MPD1    C4 2563   1.762   3.399   6.538
  145MPD1    C5 2564   1.740   3.482   6.435
  145MPD1     H 2565   1.487   3.204   6.505
  145MPD1    H1 2566   1.862   3.394   6.578
  145MPD1    H2 2567   1.613   3.540   6.276
  145MPD1    H3 2568   1.824   3.546   6.411
  145MPD1     N 2569   1.684   3.201   6.668
  145MPD1    H5 2570   1.608   3.136   6.681
  145MPD1    N1 2571   1.413   3.361   6.303
  145MPD1    H6 2572   1.327   3.343   6.353
  145MPD1    H7 2573   1.393   3.449   6.255
  146MPD1     C 2574   3.688   1.067   9.048
  146MPD1    C1 2575   3.589   1.032   8.967
  146MPD1    C2 2576   3.584   0.903   8.927
  146MPD1    C3 2577   3.652   0.806   8.984
  146MPD1    C4 2578   3.749   0.833   9.077
  146MPD1    C5 2579   3.765   0.970   9.111
  146MPD1     H 2580   3.521   0.869   8.845
  146MPD1    H1 2581   3.827   0.765   9.110
  146MPD1    H2 2582   3.717   1.167   9.078
  146MPD1    H3 2583   3.848   0.995   9.176
  146MPD1     N 2584   3.632   0.676   8.931
  146MPD1    H5 2585   3.557   0.663   8.864
  146MPD1    N1 2586   3.515   1.138   8.903
  146MPD1    H6 2587   3.494   1.218   8.962
  146MPD1    H7 2588   3.434   1.106   8.849
  147MPD1     C 2589   3.435   4.638  10.811
  147MPD1    C1 2590   3.382   4.675  10.936
  147MPD1    C2 2591   3.429   4.619  11.058
  147MPD1    C3 2592   3.549   4.549  11.049
  147MPD1    C4 2593   3.609   4.515  10.926
  147MPD1    C5 2594   3.548   4.555  10.808
  147MPD1     H 2595   3.382   4.641  11.153
  147MPD1    H1 2596   3.699   4.455  10.914
  147MPD1    H2 2597   3.380   4.669  10.723
  147MPD1    H3 2598   3.582   4.510  10.715
  147MPD1     N 2599   3.616   4.489  11.160
  147MPD1    H5 2600   3.704   4.439  11.153
  147MPD1    N1 2601   3.263   4.756  10.924
  147MPD1    H6 2602   3.246   0.027  11.000
  147MPD1    H7 2603   3.257   0.022  10.842
  148MPD1     C 2604   4.270   4.392  11.894
  148MPD1    C1 2605   4.203   4.268  11.893
  148MPD1    C2 2606   4.126   4.244  11.788
  148MPD1    C3 2607   4.103   4.337  11.688
  148MPD1    C4 2608   4.179   4.449  11.679
  148MPD1    C5 2609   4.272   4.469  11.779
  148MPD1     H 2610   4.076   4.150  11.769
  148MPD1    H1 2611   4.176   4.525  11.602
  148MPD1    H2 2612   4.339   4.415  11.975
  148MPD1    H3 2613   4.321   4.566  11.786
  148MPD1     N 2614   3.992   4.313  11.601
  148MPD1    H5 2615   3.924   4.245  11.634
  148MPD1    N1 2616   4.223   4.173  11.999
  148MPD1    H6 2617   4.248   4.213  12.089
  148MPD1    H7 2618   4.148   4.105  12.010
  149MPD1     C 2619   2.671   0.662  11.752
  149MPD1    C1 2620   2.541   0.672  11.798
  149MPD1    C2 2621   2.455   0.773  11.751
  149MPD1    C3 2622   2.506   0.876  11.676
  149MPD1    C4 2623   2.642   0.877  11.651
  149MPD1    C5 2624   2.716   0.766  11.674
  149MPD1     H 2625   2.348   0.778  11.771
  149MPD1    H1 2626   2.686   0.954  11.589
  149MPD1    H2 2627   2.745   0.588  11.779
  149MPD1    H3 2628   2.818   0.759  11.635
  149MPD1     N 2629   2.416   0.972  11.622
  149MPD1    H5 2630   2.316   0.963  11.634
  149MPD1    N1 2631   2.479   0.572  11.877
  149MPD1    H6 2632   2.556   0.541  11.935
  149MPD1    H7 2633   2.396   0.606  11.926
  150MPD1     C 2634   3.393   4.055  14.040
  150MPD1    C1 2635   3.466   3.991  13.941
  150MPD1    C2 2636   3.452   3.853  13.934
  150MPD1    C3 2637   3.399   3.777  14.033
  150MPD1    C4 2638   3.347   3.848  14.150
  150MPD1    C5 2639   3.332   3.986  14.139
  150MPD1     H 2640   3.506   3.798  13.857
  150MPD1    H1 2641   3.284   3.803  14.225
  150MPD1    H2 2642   3.380   4.162  14.042
  150MPD1    H3 2643   3.285   4.037  14.223
  150MPD1     N 2644   3.404   3.636  14.018
  150MPD1    H5 2645   3.428   3.606  13.925
  150MPD1    N1 2646   3.520   4.071  13.838
  150MPD1    H6 2647   3.594   4.029  13.780
  150MPD1    H7 2648   3.557   4.162  13.862
  151MPD1     C 2649   0.272   1.131  13.332
  151MPD1    C1 2650   0.229   1.084  13.452
  151MPD1    C2 2651   0.238   1.160  13.559
  151MPD1    C3 2652   0.276   1.293  13.555
  151MPD1    C4 2653   0.301   1.352  13.436
  151MPD1    C5 2654   0.297   1.268  13.324
  151MPD1     H 2655   0.231   1.113  13.656
  151MPD1    H1 2656   0.327   1.457  13.428
  151MPD1    H2 2657   0.284   1.073  13.242
  151MPD1    H3 2658   0.317   1.318  13.230
  151MPD1     N 2659   0.279   1.381  13.667
  151MPD1    H5 2660   0.332   1.467  13.653
  151MPD1    N1 2661   0.211   0.946  13.469
  151MPD1    H6 2662   0.178   0.910  13.380
  151MPD1    H7 2663   0.151   0.920  13.547
  152MPD1     C 2664   1.097   1.888   7.239
  152MPD1    C1 2665   1.013   1.787   7.196
  152MPD1    C2 2666   0.985   1.783   7.062
  152MPD1    C3 2667   1.027   1.886   6.977
  152MPD1    C4 2668   1.100   1.992   7.030
  152MPD1    C5 2669   1.135   1.995   7.159
  152MPD1     H 2670   0.925   1.701   7.023
  152MPD1    H1 2671   1.125   2.074   6.963
  152MPD1    H2 2672   1.129   1.876   7.341
  152MPD1    H3 2673   1.200   2.072   7.199
  152MPD1     N 2674   0.981   1.883   6.840
  152MPD1    H5 2675   0.900   1.825   6.824
  152MPD1    N1 2676   0.973   1.684   7.276
  152MPD1    H6 2677   0.892   1.632   7.245
  152MPD1    H7 2678   0.958   1.722   7.369
  153MPD1     C 2679   3.261   3.815   5.846
  153MPD1    C1 2680   3.338   3.785   5.961
  153MPD1    C2 2681   3.312   3.867   6.073
  153MPD1    C3 2682   3.225   3.975   6.060
  153MPD1    C4 2683   3.155   4.001   5.944
  153MPD1    C5 2684   3.181   3.928   5.833
  153MPD1     H 2685   3.355   3.842   6.169
  153MPD1    H1 2686   3.080   4.079   5.930
  153MPD1    H2 2687   3.275   3.750   5.761
  153MPD1    H3 2688   3.125   3.954   5.744
  153MPD1     N 2689   3.196   4.043   6.185
  153MPD1    H5 2690   3.235   4.007   6.272
  153MPD1    N1 2691   3.406   3.658   5.971
  153MPD1    H6 2692   3.440   3.621   5.883
  153MPD1    H7 2693   3.481   3.647   6.040
  154MPD1     C 2694   2.881   3.910   6.287
  154MPD1    C1 2695   2.837   4.013   6.367
  154MPD1    C2 2696   2.845   3.989   6.509
  154MPD1    C3 2697   2.891   3.871   6.562
  154MPD1    C4 2698   2.924   3.766   6.477
  154MPD1    C5 2699   2.932   3.801   6.341
  154MPD1     H 2700   2.809   4.074   6.565
  154MPD1    H1 2701   2.957   3.670   6.516
  154MPD1    H2 2702   2.898   3.926   6.181
  154MPD1    H3 2703   2.978   3.721   6.285
  154MPD1     N 2704   2.905   3.853   6.703
  154MPD1    H5 2705   2.934   3.762   6.738
  154MPD1    N1 2706   2.808   4.133   6.301
  154MPD1    H6 2707   2.794   4.121   6.201
  154MPD1    H7 2708   2.733   4.186   6.346
  155MPD1     C 2709   2.688   2.322  11.039
  155MPD1    C1 2710   2.681   2.363  11.167
  155MPD1    C2 2711   2.613   2.289  11.262
  155MPD1    C3 2712   2.546   2.172  11.226
  155MPD1    C4 2713   2.539   2.141  11.090
  155MPD1    C5 2714   2.615   2.216  10.998
  155MPD1     H 2715   2.605   2.323  11.364
  155MPD1    H1 2716   2.473   2.064  11.053
  155MPD1    H2 2717   2.722   2.389  10.961
  155MPD1    H3 2718   2.607   2.202  10.891
  155MPD1     N 2719   2.464   2.104  11.319
  155MPD1    H5 2720   2.395   2.048  11.270
  155MPD1    N1 2721   2.732   2.490  11.207
  155MPD1    H6 2722   2.803   2.521  11.140
  155MPD1    H7 2723   2.776   2.485  11.298
  156MPD1     C 2724   3.648   1.975  10.558
  156MPD1    C1 2725   3.554   1.940  10.463
  156MPD1    C2 2726   3.531   1.802  10.440
  156MPD1    C3 2727   3.596   1.703  10.506
  156MPD1    C4 2728   3.699   1.742  10.597
  156MPD1    C5 2729   3.711   1.875  10.628
  156MPD1     H 2730   3.458   1.783  10.362
  156MPD1    H1 2731   3.756   1.668  10.652
  156MPD1    H2 2732   3.672   2.081  10.566
  156MPD1    H3 2733   3.790   1.908  10.695
  156MPD1     N 2734   3.579   1.560  10.495
  156MPD1    H5 2735   3.637   1.494  10.546
  156MPD1    N1 2736   3.509   2.044  10.376
  156MPD1    H6 2737   3.418   2.017  10.339
  156MPD1    H7 2738   3.489   2.124  10.435
  157MPD1     C 2739   4.241   2.329  11.668
  157MPD1    C1 2740   4.209   2.464  11.679
  157MPD1    C2 2741   4.158   2.523  11.560
  157MPD1    C3 2742   4.160   2.457  11.435
  157MPD1    C4 2743   4.216   2.332  11.431
  157MPD1    C5 2744   4.251   2.265  11.549
  157MPD1     H 2745   4.115   2.622  11.556
  157MPD1    H1 2746   4.249   2.280  11.341
  157MPD1    H2 2747   4.286   2.277  11.752
  157MPD1    H3 2748   4.303   2.172  11.533
  157MPD1     N 2749   4.129   2.519  11.310
  157MPD1    H5 2750   4.161   2.467  11.229
  157MPD1    N1 2751   4.201   2.521  11.806
  157MPD1    H6 2752   4.227   2.620  11.808
  157MPD1    H7 2753   4.264   2.473  11.871
  158MPD1     C 2754   3.167   2.368  10.281
  158MPD1    C1 2755   3.085   2.258  10.263
  158MPD1    C2 2756   3.111   2.146  10.342
  158MPD1    C3 2757   3.207   2.150  10.443
  158MPD1    C4 2758   3.288   2.263  10.461
  158MPD1    C5 2759   3.261   2.365  10.378
  158MPD1     H 2760   3.044   2.062  10.333
  158MPD1    H1 2761   3.364   2.269  10.539
  158MPD1    H2 2762   3.153   2.462  10.229
  158MPD1    H3 2763   3.328   2.448  10.392
  158MPD1     N 2764   3.213   2.035  10.526
  158MPD1    H5 2765   3.161   1.952  10.498
  158MPD1    N1 2766   2.971   2.268  10.178
  158MPD1    H6 2767   2.995   2.338  10.108
  158MPD1    H7 2768   2.956   2.178  10.133
  159MPD1     C 2769   3.952   1.842  11.116
  159MPD1    C1 2770   3.928   1.728  11.044
  159MPD1    C2 2771   3.804   1.711  10.986
  159MPD1    C3 2772   3.706   1.813  10.995
  159MPD1    C4 2773   3.731   1.930  11.063
  159MPD1    C5 2774   3.851   1.936  11.126
  159MPD1     H 2775   3.786   1.630  10.917
  159MPD1    H1 2776   3.663   2.010  11.087
  159MPD1    H2 2777   4.042   1.861  11.172
  159MPD1    H3 2778   3.878   2.017  11.193
  159MPD1     N 2779   3.578   1.797  10.936
  159MPD1    H5 2780   3.515   1.874  10.954
  159MPD1    N1 2781   4.025   1.626  11.033
  159MPD1    H6 2782   4.037   1.607  10.933
  159MPD1    H7 2783   4.115   1.659  11.067
  160MPD1     C 2784   3.419   4.267  12.197
  160MPD1    C1 2785   3.307   4.331  12.165
  160MPD1    C2 2786   3.314   4.422  12.058
  160MPD1    C3 2787   3.434   4.453  11.999
  160MPD1    C4 2788   3.546   4.383  12.038
  160MPD1    C5 2789   3.538   4.290  12.137
  160MPD1     H 2790   3.223   4.475  12.034
  160MPD1    H1 2791   3.647   4.396  12.001
  160MPD1    H2 2792   3.404   4.199  12.281
  160MPD1    H3 2793   3.627   4.240  12.174
  160MPD1     N 2794   3.449   4.562  11.906
  160MPD1    H5 2795   3.538   4.606  11.888
  160MPD1    N1 2796   3.180   4.287  12.214
  160MPD1    H6 2797   3.181   4.251  12.309
  160MPD1    H7 2798   3.112   4.362  12.221
  161MPD1     C 2799   4.009   3.528  13.482
  161MPD1    C1 2800   4.074   3.499  13.598
  161MPD1    C2 2801   4.180   3.416  13.605
  161MPD1    C3 2802   4.208   3.343  13.495
  161MPD1    C4 2803   4.136   3.360  13.383
  161MPD1    C5 2804   4.038   3.451  13.373
  161MPD1     H 2805   4.243   3.412  13.693
  161MPD1    H1 2806   4.156   3.300  13.295
  161MPD1    H2 2807   3.923   3.594  13.477
  161MPD1    H3 2808   3.987   3.469  13.280
  161MPD1     N 2809   4.321   3.263  13.496
  161MPD1    H5 2810   4.374   3.268  13.582
  161MPD1    N1 2811   4.030   3.584  13.706
  161MPD1    H6 2812   4.044   3.534  13.794
  161MPD1    H7 2813   3.930   3.598  13.697
  162MPD1     C 2814   4.519   2.306  13.539
  162MPD1    C1 2815   4.419   2.396  13.578
  162MPD1    C2 2816   4.445   2.534  13.561
  162MPD1    C3 2817   4.556   2.588  13.504
  162MPD1    C4 2818   4.652   2.494  13.476
  162MPD1    C5 2819   4.637   2.358  13.497
  162MPD1     H 2820   4.361   2.599  13.585
  162MPD1    H1 2821   4.739   2.534  13.426
  162MPD1    H2 2822   4.510   2.199  13.552
  162MPD1    H3 2823   4.723   2.296  13.473
  162MPD1     N 2824   4.560   2.731  13.473
  162MPD1    H5 2825   4.478   2.788  13.486
  162MPD1    N1 2826   4.301   2.348  13.645
  162MPD1    H6 2827   4.280   2.250  13.626
  162MPD1    H7 2828   4.214   2.400  13.631
  163MPD1     C 2829   2.436   3.728   9.881
  163MPD1    C1 2830   2.542   3.816   9.879
  163MPD1    C2 2831   2.517   3.943   9.927
  163MPD1    C3 2832   2.398   3.984   9.984
  163MPD1    C4 2833   2.297   3.896   9.985
  163MPD1    C5 2834   2.315   3.774   9.931
  163MPD1     H 2835   2.599   4.014   9.921
  163MPD1    H1 2836   2.205   3.911  10.040
  163MPD1    H2 2837   2.447   3.624   9.854
  163MPD1    H3 2838   2.231   3.707   9.917
  163MPD1     N 2839   2.401   4.115  10.049
  163MPD1    H5 2840   2.491   4.160  10.043
  163MPD1    N1 2841   2.668   3.765   9.838
  163MPD1    H6 2842   2.702   3.816   9.756
  163MPD1    H7 2843   2.677   3.666   9.820
  164MPD1     C 2844   3.441   1.961   8.093
  164MPD1    C1 2845   3.563   1.974   8.031
  164MPD1    C2 2846   3.577   1.911   7.912
  164MPD1    C3 2847   3.479   1.826   7.862
  164MPD1    C4 2848   3.353   1.824   7.922
  164MPD1    C5 2849   3.336   1.889   8.041
  164MPD1     H 2850   3.669   1.916   7.855
  164MPD1    H1 2851   3.265   1.773   7.885
  164MPD1    H2 2852   3.431   2.003   8.192
  164MPD1    H3 2853   3.251   1.883   8.108
  164MPD1     N 2854   3.512   1.758   7.742
  164MPD1    H5 2855   3.602   1.769   7.695
  164MPD1    N1 2856   3.653   2.074   8.074
  164MPD1    H6 2857   3.649   2.104   8.171
  164MPD1    H7 2858   3.747   2.056   8.038
  165MPD1     C 2859   3.408   1.417   7.924
  165MPD1    C1 2860   3.296   1.338   7.919
  165MPD1    C2 2861   3.287   1.245   7.811
  165MPD1    C3 2862   3.400   1.214   7.750
  165MPD1    C4 2863   3.520   1.281   7.767
  165MPD1    C5 2864   3.523   1.384   7.852
  165MPD1     H 2865   3.191   1.202   7.785
  165MPD1    H1 2866   3.609   1.255   7.713
  165MPD1    H2 2867   3.410   1.505   7.988
  165MPD1    H3 2868   3.610   1.443   7.877
  165MPD1     N 2869   3.391   1.111   7.659
  165MPD1    H5 2870   3.308   1.055   7.647
  165MPD1    N1 2871   3.183   1.357   8.003
  165MPD1    H6 2872   3.200   1.409   8.089
  165MPD1    H7 2873   3.125   1.275   8.021
  166MPD1     C 2874   1.271   3.898  11.860
  166MPD1    C1 2875   1.209   3.944  11.748
  166MPD1    C2 2876   1.287   4.047  11.683
  166MPD1    C3 2877   1.406   4.102  11.739
  166MPD1    C4 2878   1.456   4.048  11.852
  166MPD1    C5 2879   1.390   3.949  11.907
  166MPD1     H 2880   1.249   4.087  11.591
  166MPD1    H1 2881   1.551   4.087  11.887
  166MPD1    H2 2882   1.223   3.821  11.921
  166MPD1    H3 2883   1.420   3.909  12.003
  166MPD1     N 2884   1.477   4.213  11.684
  166MPD1    H5 2885   1.542   4.262  11.746
  166MPD1    N1 2886   1.072   3.929  11.722
  166MPD1    H6 2887   1.043   3.837  11.754
  166MPD1    H7 2888   1.050   3.926  11.623
  167MPD1     C 2889   2.093   3.430  13.558
  167MPD1    C1 2890   2.024   3.311  13.566
  167MPD1    C2 2891   2.094   3.211  13.628
  167MPD1    C3 2892   2.212   3.232  13.698
  167MPD1    C4 2893   2.263   3.355  13.709
  167MPD1    C5 2894   2.206   3.450  13.633
  167MPD1     H 2895   2.064   3.107  13.622
  167MPD1    H1 2896   2.356   3.376  13.761
  167MPD1    H2 2897   2.055   3.513  13.500
  167MPD1    H3 2898   2.252   3.548  13.630
  167MPD1     N 2899   2.274   3.120  13.765
  167MPD1    H5 2900   2.260   3.029  13.723
  167MPD1    N1 2901   1.912   3.300  13.485
  167MPD1    H6 2902   1.863   3.389  13.483
  167MPD1    H7 2903   1.843   3.238  13.527
  168MPD1     C 2904   0.329   1.079  14.858
  168MPD1    C1 2905   0.454   1.091  14.917
  168MPD1    C2 2906   0.552   0.991  14.894
  168MPD1    C3 2907   0.517   0.877  14.818
  168MPD1    C4 2908   0.390   0.873  14.763
  168MPD1    C5 2909   0.302   0.974  14.788
  168MPD1     H 2910   0.654   1.005  14.928
  168MPD1    H1 2911   0.365   0.778  14.718
  168MPD1    H2 2912   0.247   1.146  14.882
  168MPD1    H3 2913   0.197   0.960  14.765
  168MPD1     N 2914   0.600   0.768  14.786
  168MPD1    H5 2915   0.554   0.697  14.729
  168MPD1    N1 2916   0.483   1.200  14.992
  168MPD1    H6 2917   0.409   1.211  15.061
  168MPD1    H7 2918   0.573   1.205  15.041
  169MPD1     C 2919   4.602   3.507   7.167
  169MPD1    C1 2920   4.667   3.410   7.247
  169MPD1    C2 2921   4.598   3.368   7.357
  169MPD1    C3 2922   4.477   3.436   7.395
  169MPD1    C4 2923   4.426   3.542   7.323
  169MPD1    C5 2924   4.489   3.576   7.206
  169MPD1     H 2925   4.642   3.285   7.410
  169MPD1    H1 2926   4.353   3.614   7.358
  169MPD1    H2 2927   4.643   3.532   7.069
  169MPD1    H3 2928   4.444   3.656   7.148
  169MPD1     N 2929   4.426   3.399   7.518
  169MPD1    H5 2930   4.492   3.340   7.568
  169MPD1    N1 2931   4.764   3.332   7.188
  169MPD1    H6 2932   0.009   3.371   7.102
  169MPD1    H7 2933   0.042   3.320   7.260
  170MPD2     C 2934   1.315   3.070  10.352
  170MPD2    C1 2935   1.267   2.944  10.315
  170MPD2    C2 2936   1.141   2.929  10.249
  170MPD2    C3 2937   1.073   3.043  10.210
  170MPD2    C4 2938   1.130   3.168  10.237
  170MPD2    C5 2939   1.249   3.179  10.311
  170MPD2     H 2940   1.123   2.832  10.204
  170MPD2    H1 2941   1.070   3.255  10.214
  170MPD2    H2 2942   1.410   3.095  10.398
  170MPD2    H3 2943   1.286   3.278  10.334
  170MPD2     N 2944   0.948   3.053  10.140
  170MPD2    H5 2945   0.937   3.135  10.082
  170MPD2    N1 2946   1.345   2.832  10.342
  170MPD2    H7 2947   1.440   2.854  10.367
  171MPD2     C 2948   0.340   2.551  10.073
  171MPD2    C1 2949   0.367   2.610   9.952
  171MPD2    C2 2950   0.289   2.582   9.840
  171MPD2    C3 2951   0.194   2.480   9.846
  171MPD2    C4 2952   0.179   2.410   9.964
  171MPD2    C5 2953   0.249   2.449  10.078
  171MPD2     H 2954   0.300   2.640   9.749
  171MPD2    H1 2955   0.113   2.326   9.980
  171MPD2    H2 2956   0.406   2.582  10.153
  171MPD2    H3 2957   0.235   2.390  10.168
  171MPD2     N 2958   0.126   2.423   9.735
  171MPD2    H5 2959   0.080   2.335   9.757
  171MPD2    N1 2960   0.469   2.710   9.961
  171MPD2    H7 2961   0.514   2.722  10.051
  172MPD2     C 2962   0.427   3.655  10.131
  172MPD2    C1 2963   0.358   3.532  10.120
  172MPD2    C2 2964   0.420   3.426  10.056
  172MPD2    C3 2965   0.547   3.452   9.994
  172MPD2    C4 2966   0.616   3.578  10.005
  172MPD2    C5 2967   0.556   3.670  10.080
  172MPD2     H 2968   0.362   3.335  10.063
  172MPD2    H1 2969   0.720   3.583   9.974
  172MPD2    H2 2970   0.389   3.733  10.195
  172MPD2    H3 2971   0.615   3.761  10.088
  172MPD2     N 2972   0.618   3.345   9.933
  172MPD2    H5 2973   0.716   3.354   9.906
  172MPD2    N1 2974   0.233   3.508  10.182
  172MPD2    H7 2975   0.200   3.412  10.179
  173MPD2     C 2976   1.374   4.627   6.813
  173MPD2    C1 2977   1.389   4.523   6.903
  173MPD2    C2 2978   1.348   4.393   6.872
  173MPD2    C3 2979   1.292   4.371   6.755
  173MPD2    C4 2980   1.256   4.477   6.673
  173MPD2    C5 2981   1.292   4.602   6.701
  173MPD2     H 2982   1.371   4.312   6.940
  173MPD2    H1 2983   1.205   4.468   6.578
  173MPD2    H2 2984   1.402   4.731   6.828
  173MPD2    H3 2985   1.269   4.683   6.632
  173MPD2     N 2986   1.273   4.232   6.725
  173MPD2    H5 2987   1.311   4.158   6.783
  173MPD2    N1 2988   1.443   4.541   7.034
  173MPD2    H7 2989   1.447   4.457   7.091
  174MPD2     C 2990   1.059   3.252   6.335
  174MPD2    C1 2991   1.070   3.236   6.472
  174MPD2    C2 2992   1.094   3.355   6.537
  174MPD2    C3 2993   1.095   3.476   6.471
  174MPD2    C4 2994   1.078   3.485   6.335
  174MPD2    C5 2995   1.058   3.374   6.262
  174MPD2     H 2996   1.109   3.353   6.645
  174MPD2    H1 2997   1.086   3.573   6.273
  174MPD2    H2 2998   1.061   3.161   6.276
  174MPD2    H3 2999   1.032   3.383   6.157
  174MPD2     N 3000   1.112   3.585   6.555
  174MPD2    H5 3001   1.135   3.569   6.652
  174MPD2    N1 3002   1.051   3.111   6.535
  174MPD2    H7 3003   1.009   3.031   6.489
  175MPD2     C 3004   2.101   3.068  12.261
  175MPD2    C1 3005   2.044   2.997  12.364
  175MPD2    C2 3006   1.906   3.008  12.370
  175MPD2    C3 3007   1.832   3.068  12.269
  175MPD2    C4 3008   1.900   3.130  12.163
  175MPD2    C5 3009   2.033   3.126  12.162
  175MPD2     H 3010   1.855   2.962  12.454
  175MPD2    H1 3011   1.842   3.182  12.087
  175MPD2    H2 3012   2.209   3.067  12.265
  175MPD2    H3 3013   2.092   3.165  12.080
  175MPD2     N 3014   1.692   3.059  12.264
  175MPD2    H5 3015   1.660   3.066  12.168
  175MPD2    N1 3016   2.123   2.920  12.451
  175MPD2    H7 3017   2.221   2.946  12.452
  176MPD2     C 3018   1.918   2.589  11.738
  176MPD2    C1 3019   1.817   2.658  11.811
  176MPD2    C2 3020   1.819   2.640  11.948
  176MPD2    C3 3021   1.917   2.568  12.016
  176MPD2    C4 3022   2.023   2.520  11.942
  176MPD2    C5 3023   2.014   2.522  11.807
  176MPD2     H 3024   1.738   2.685  12.006
  176MPD2    H1 3025   2.111   2.472  11.983
  176MPD2    H2 3026   1.923   2.597  11.630
  176MPD2    H3 3027   2.095   2.476  11.751
  176MPD2     N 3028   1.926   2.560  12.154
  176MPD2    H5 3029   2.016   2.534  12.192
  176MPD2    N1 3030   1.715   2.736  11.750
  176MPD2    H7 3031   1.644   2.760  11.818
  177MPD2     C 3032   1.786   2.381  13.179
  177MPD2    C1 3033   1.702   2.330  13.085
  177MPD2    C2 3034   1.689   2.394  12.959
  177MPD2    C3 3035   1.767   2.505  12.930
  177MPD2    C4 3036   1.846   2.555  13.029
  177MPD2    C5 3037   1.854   2.494  13.152
  177MPD2     H 3038   1.609   2.365  12.891
  177MPD2    H1 3039   1.901   2.645  13.004
  177MPD2    H2 3040   1.797   2.344  13.280
  177MPD2    H3 3041   1.922   2.533  13.227
  177MPD2     N 3042   1.754   2.591  12.817
  177MPD2    H5 3043   1.817   2.671  12.817
  177MPD2    N1 3044   1.645   2.207  13.121
  177MPD2    H7 3045   1.667   2.175  13.215
  178MPD2     C 3046   4.651   1.333   7.243
  178MPD2    C1 3047   4.659   1.432   7.340
  178MPD2    C2 3048   4.672   1.559   7.302
  178MPD2    C3 3049   4.685   1.603   7.172
  178MPD2    C4 3050   4.663   1.503   7.074
  178MPD2    C5 3051   4.651   1.370   7.112
  178MPD2     H 3052   4.663   1.637   7.378
  178MPD2    H1 3053   4.665   1.525   6.968
  178MPD2    H2 3054   4.640   1.229   7.272
  178MPD2    H3 3055   4.640   1.295   7.035
  178MPD2     N 3056   4.722   1.740   7.148
  178MPD2    H5 3057   4.738   1.804   7.225
  178MPD2    N1 3058   4.661   1.388   7.478
  178MPD2    H7 3059   4.654   1.448   7.560
  179MPD2     C 3060   0.260   0.825   7.908
  179MPD2    C1 3061   0.126   0.819   7.885
  179MPD2    C2 3062   0.074   0.700   7.845
  179MPD2    C3 3063   0.153   0.588   7.821
  179MPD2    C4 3064   0.280   0.594   7.868
  179MPD2    C5 3065   0.331   0.711   7.904
  179MPD2     H 3066   4.766   0.697   7.808
  179MPD2    H1 3067   0.351   0.513   7.875
  179MPD2    H2 3068   0.309   0.920   7.927
  179MPD2    H3 3069   0.439   0.715   7.917
  179MPD2     N 3070   0.093   0.474   7.757
  179MPD2    H5 3071   4.787   0.459   7.763
  179MPD2    N1 3072   0.055   0.942   7.860
  179MPD2    H7 3073   0.110   1.027   7.865
  180MPD2     C 3074   4.132   0.890   7.952
  180MPD2    C1 3075   4.210   0.932   7.851
  180MPD2    C2 3076   4.256   1.058   7.855
  180MPD2    C3 3077   4.242   1.140   7.966
  180MPD2    C4 3078   4.164   1.095   8.074
  180MPD2    C5 3079   4.115   0.966   8.061
  180MPD2     H 3080   4.301   1.107   7.769
  180MPD2    H1 3081   4.148   1.165   8.156
  180MPD2    H2 3082   4.108   0.785   7.949
  180MPD2    H3 3083   4.053   0.927   8.142
  180MPD2     N 3084   4.293   1.276   7.981
  180MPD2    H5 3085   4.242   1.339   8.042
  180MPD2    N1 3086   4.253   0.838   7.761
  180MPD2    H7 3087   4.205   0.750   7.775
  181MPD2     C 3088   4.235   2.982   9.894
  181MPD2    C1 3089   4.292   2.867   9.849
  181MPD2    C2 3090   4.254   2.741   9.896
  181MPD2    C3 3091   4.170   2.736  10.009
  181MPD2    C4 3092   4.124   2.855  10.064
  181MPD2    C5 3093   4.149   2.969   9.993
  181MPD2     H 3094   4.271   2.648   9.843
  181MPD2    H1 3095   4.049   2.862  10.142
  181MPD2    H2 3096   4.235   3.075   9.839
  181MPD2    H3 3097   4.095   3.055  10.030
  181MPD2     N 3098   4.125   2.605  10.051
  181MPD2    H5 3099   4.137   2.526   9.988
  181MPD2    N1 3100   4.378   2.892   9.741
  181MPD2    H7 3101   4.369   2.981   9.694
  182MPD2     C 3102   3.934   2.180  10.748
  182MPD2    C1 3103   4.009   2.124  10.646
  182MPD2    C2 3104   4.109   2.030  10.679
  182MPD2    C3 3105   4.150   2.017  10.813
  182MPD2    C4 3106   4.082   2.083  10.914
  182MPD2    C5 3107   3.969   2.158  10.880
  182MPD2     H 3108   4.165   1.973  10.606
  182MPD2    H1 3109   4.111   2.083  11.019
  182MPD2    H2 3110   3.862   2.259  10.730
  182MPD2    H3 3111   3.918   2.216  10.956
  182MPD2     N 3112   4.263   1.936  10.843
  182MPD2    H5 3113   4.311   1.903  10.760
  182MPD2    N1 3114   3.993   2.156  10.509
  182MPD2    H7 3115   4.064   2.119  10.447
  183MPD2     C 3116   2.750   3.217  14.292
  183MPD2    C1 3117   2.793   3.322  14.213
  183MPD2    C2 3118   2.793   3.307  14.075
  183MPD2    C3 3119   2.760   3.186  14.020
  183MPD2    C4 3120   2.719   3.089  14.105
  183MPD2    C5 3121   2.714   3.100  14.243
  183MPD2     H 3122   2.813   3.387  14.005
  183MPD2    H1 3123   2.692   2.992  14.064
  183MPD2    H2 3124   2.734   3.235  14.398
  183MPD2    H3 3125   2.669   3.022  14.303
  183MPD2     N 3126   2.760   3.148  13.879
  183MPD2    H5 3127   2.702   3.069  13.852
  183MPD2    N1 3128   2.797   3.457  14.268
  183MPD2    H7 3129   2.761   3.479  14.360
  184MPD2     C 3130   2.133   4.063  14.426
  184MPD2    C1 3131   2.230   4.022  14.516
  184MPD2    C2 3132   2.347   3.963  14.467
  184MPD2    C3 3133   2.363   3.938  14.336
  184MPD2    C4 3134   2.271   3.985  14.250
  184MPD2    C5 3135   2.158   4.047  14.292
  184MPD2     H 3136   2.427   3.933  14.535
  184MPD2    H1 3137   2.285   3.962  14.145
  184MPD2    H2 3138   2.041   4.114  14.447
  184MPD2    H3 3139   2.086   4.085  14.221
  184MPD2     N 3140   2.478   3.871  14.295
  184MPD2    H5 3141   2.548   3.855  14.367
  184MPD2    N1 3142   2.201   4.058  14.654
  184MPD2    H7 3143   2.110   4.093  14.683
  185MPD2     C 3144   3.275   3.677  13.617
  185MPD2    C1 3145   3.225   3.571  13.693
  185MPD2    C2 3146   3.140   3.594  13.801
  185MPD2    C3 3147   3.111   3.724  13.835
  185MPD2    C4 3148   3.171   3.828  13.769
  185MPD2    C5 3149   3.254   3.805  13.661
  185MPD2     H 3150   3.097   3.505  13.846
  185MPD2    H1 3151   3.158   3.933  13.793
  185MPD2    H2 3152   3.339   3.658  13.532
  185MPD2    H3 3153   3.305   3.886  13.611
  185MPD2     N 3154   3.027   3.743  13.944
  185MPD2    H5 3155   3.007   3.669  14.010
  185MPD2    N1 3156   3.237   3.441  13.639
  185MPD2    H7 3157   3.225   3.439  13.539
  186MPD2     C 3158   4.544   3.652   8.632
  186MPD2    C1 3159   4.623   3.558   8.713
  186MPD2    C2 3160   4.585   3.423   8.701
  186MPD2    C3 3161   4.475   3.381   8.630
  186MPD2    C4 3162   4.392   3.470   8.575
  186MPD2    C5 3163   4.428   3.609   8.568
  186MPD2     H 3164   4.648   3.346   8.744
  186MPD2    H1 3165   4.305   3.442   8.518
  186MPD2    H2 3166   4.571   3.757   8.629
  186MPD2    H3 3167   4.365   3.678   8.514
  186MPD2     N 3168   4.439   3.249   8.598
  186MPD2    H5 3169   4.371   3.235   8.524
  186MPD2    N1 3170   4.740   3.596   8.780
  186MPD2    H7 3171   0.005   3.527   8.825
  187MPD2     C 3172   4.741   2.323   8.873
  187MPD2    C1 3173   4.756   2.440   8.948
  187MPD2    C2 3174   4.732   2.555   8.884
  187MPD2    C3 3175   4.705   2.548   8.745
  187MPD2    C4 3176   4.685   2.432   8.672
  187MPD2    C5 3177   4.701   2.316   8.743
  187MPD2     H 3178   4.743   2.650   8.934
  187MPD2    H1 3179   4.666   2.425   8.565
  187MPD2    H2 3180   4.765   2.226   8.915
  187MPD2    H3 3181   4.697   2.223   8.687
  187MPD2     N 3182   4.684   2.672   8.680
  187MPD2    H5 3183   4.707   2.755   8.734
  187MPD2    N1 3184   4.791   2.445   9.086
  187MPD2    H7 3185   4.761   2.529   9.135
  188MPD2     C 3186   0.174   3.274   8.358
  188MPD2    C1 3187   0.037   3.298   8.344
  188MPD2    C2 3188   4.782   3.427   8.330
  188MPD2    C3 3189   0.078   3.533   8.349
  188MPD2    C4 3190   0.214   3.509   8.371
  188MPD2    C5 3191   0.261   3.381   8.381
  188MPD2     H 3192   4.676   3.446   8.318
  188MPD2    H1 3193   0.281   3.591   8.396
  188MPD2    H2 3194   0.221   3.176   8.364
  188MPD2    H3 3195   0.368   3.364   8.390
  188MPD2     N 3196   0.045   3.669   8.351
  188MPD2    H5 3197   0.106   3.739   8.393
  188MPD2    N1 3198   4.733   3.205   8.321
  188MPD2    H7 3199   4.638   3.232   8.300
  189MPD2     C 3200   1.307   3.087   8.738
  189MPD2    C1 3201   1.318   3.046   8.598
  189MPD2    C2 3202   1.289   3.131   8.498
  189MPD2    C3 3203   1.260   3.264   8.525
  189MPD2    C4 3204   1.257   3.310   8.650
  189MPD2    C5 3205   1.278   3.221   8.760
  189MPD2     H 3206   1.269   3.090   8.400
  189MPD2    H1 3207   1.250   3.415   8.675
  189MPD2    H2 3208   1.323   3.022   8.823
  189MPD2    H3 3209   1.276   3.268   8.858
  189MPD2     N 3210   1.242   3.360   8.421
  189MPD2    H5 3211   1.285   3.448   8.449
  189MPD2    N1 3212   1.350   2.908   8.577
  189MPD2    H7 3213   1.351   2.844   8.657
  190MPD2     C 3214   0.916   2.282   8.899
  190MPD2    C1 3215   0.900   2.258   8.765
  190MPD2    C2 3216   0.994   2.301   8.676
  190MPD2    C3 3217   1.099   2.380   8.732
  190MPD2    C4 3218   1.101   2.413   8.863
  190MPD2    C5 3219   1.017   2.356   8.953
  190MPD2     H 3220   0.988   2.279   8.570
  190MPD2    H1 3221   1.179   2.478   8.900
  190MPD2    H2 3222   0.842   2.259   8.975
  190MPD2    H3 3223   1.007   2.385   9.057
  190MPD2     N 3224   1.207   2.431   8.653
  190MPD2    H5 3225   1.256   2.510   8.694
  190MPD2    N1 3226   0.790   2.181   8.735
  190MPD2    H7 3227   0.748   2.128   8.810
  191MPD2     C 3228   1.937   2.375   8.337
  191MPD2    C1 3229   1.843   2.421   8.246
  191MPD2    C2 3230   1.882   2.466   8.117
  191MPD2    C3 3231   2.015   2.459   8.081
  191MPD2    C4 3232   2.103   2.413   8.174
  191MPD2    C5 3233   2.070   2.381   8.305
  191MPD2     H 3234   1.808   2.501   8.046
  191MPD2    H1 3235   2.210   2.404   8.163
  191MPD2    H2 3236   1.911   2.330   8.432
  191MPD2    H3 3237   2.145   2.344   8.373
  191MPD2     N 3238   2.055   2.488   7.945
  191MPD2    H5 3239   1.980   2.519   7.883
  191MPD2    N1 3240   1.712   2.440   8.292
  191MPD2    H7 3241   1.701   2.391   8.380
  192MPD2     C 3242   2.399   2.490  11.918
  192MPD2    C1 3243   2.493   2.581  11.869
  192MPD2    C2 3244   2.593   2.544  11.782
  192MPD2    C3 3245   2.597   2.418  11.734
  192MPD2    C4 3246   2.517   2.325  11.787
  192MPD2    C5 3247   2.416   2.365  11.871
  192MPD2     H 3248   2.672   2.614  11.758
  192MPD2    H1 3249   2.539   2.221  11.766
  192MPD2    H2 3250   2.334   2.500  12.004
  192MPD2    H3 3251   2.368   2.283  11.924
  192MPD2     N 3252   2.703   2.367  11.662
  192MPD2    H5 3253   2.700   2.266  11.654
  192MPD2    N1 3254   2.495   2.720  11.916
  192MPD2    H7 3255   2.555   2.789  11.871
  193MPD2     C 3256   2.469   3.296  12.574
  193MPD2    C1 3257   2.559   3.299  12.475
  193MPD2    C2 3258   2.669   3.382  12.481
  193MPD2    C3 3259   2.698   3.455  12.596
  193MPD2    C4 3260   2.603   3.451  12.698
  193MPD2    C5 3261   2.498   3.366  12.685
  193MPD2     H 3262   2.748   3.373  12.406
  193MPD2    H1 3263   2.614   3.511  12.788
  193MPD2    H2 3264   2.380   3.234  12.579
  193MPD2    H3 3265   2.419   3.366  12.759
  193MPD2     N 3266   2.810   3.529  12.623
  193MPD2    H5 3267   2.819   3.560  12.719
  193MPD2    N1 3268   2.529   3.225  12.359
  193MPD2    H7 3269   2.562   3.268  12.273
  194MPD2     C 3270   0.399   4.025  14.407
  194MPD2    C1 3271   0.310   3.940  14.469
  194MPD2    C2 3272   0.185   3.982  14.519
  194MPD2    C3 3273   0.145   4.116  14.503
  194MPD2    C4 3274   0.235   4.196  14.447
  194MPD2    C5 3275   0.360   4.156  14.402
  194MPD2     H 3276   0.108   3.911  14.546
  194MPD2    H1 3277   0.210   4.301  14.442
  194MPD2    H2 3278   0.491   3.997  14.357
  194MPD2    H3 3279   0.424   4.222  14.345
  194MPD2     N 3280   0.018   4.159  14.549
  194MPD2    H5 3281   0.005   4.259  14.538
  194MPD2    N1 3282   0.340   3.803  14.488
  194MPD2    H7 3283   0.278   3.753  14.551
  195MPD2     C 3284   3.926   4.008  14.666
  195MPD2    C1 3285   4.059   3.978  14.628
  195MPD2    C2 3286   4.081   3.897  14.517
  195MPD2    C3 3287   3.975   3.868  14.431
  195MPD2    C4 3288   3.844   3.899  14.471
  195MPD2    C5 3289   3.826   3.961  14.588
  195MPD2     H 3290   4.183   3.880  14.484
  195MPD2    H1 3291   3.757   3.863  14.416
  195MPD2    H2 3292   3.906   4.078  14.747
  195MPD2    H3 3293   3.732   4.001  14.622
  195MPD2     N 3294   3.990   3.792  14.311
  195MPD2    H5 3295   3.910   3.798  14.248
  195MPD2    N1 3296   4.157   4.053  14.694
  195MPD2    H7 3297   4.119   4.125  14.754
  196MPD2     C 3298   4.470   4.176  13.882
  196MPD2    C1 3299   4.556   4.267  13.930
  196MPD2    C2 3300   4.542   4.307  14.060
  196MPD2    C3 3301   4.450   4.254  14.144
  196MPD2    C4 3302   4.367   4.155  14.100
  196MPD2    C5 3303   4.371   4.125  13.965
  196MPD2     H 3304   4.608   4.386  14.095
  196MPD2    H1 3305   4.293   4.102  14.158
  196MPD2    H2 3306   4.478   4.146  13.778
  196MPD2    H3 3307   4.301   4.048  13.933
  196MPD2     N 3308   4.453   4.297  14.277
  196MPD2    H5 3309   4.526   4.364  14.302
  196MPD2    N1 3310   4.648   4.335  13.852
  196MPD2    H7 3311   4.690   4.412  13.902
  197MPD2     C 3312   0.808   2.267  11.751
  197MPD2    C1 3313   0.802   2.335  11.867
  197MPD2    C2 3314   0.911   2.346  11.950
  197MPD2    C3 3315   1.031   2.293  11.905
  197MPD2    C4 3316   1.039   2.239  11.782
  197MPD2    C5 3317   0.928   2.224  11.698
  197MPD2     H 3318   0.906   2.370  12.055
  197MPD2    H1 3319   1.133   2.202  11.742
  197MPD2    H2 3320   0.717   2.261  11.692
  197MPD2    H3 3321   0.927   2.182  11.599
  197MPD2     N 3322   1.136   2.297  11.998
  197MPD2    H5 3323   1.118   2.329  12.093
  197MPD2    N1 3324   0.670   2.378  11.902
  197MPD2    H7 3325   0.590   2.364  11.841
  198MPD2     C 3326   0.693   3.078  11.932
  198MPD2    C1 3327   0.556   3.044  11.938
  198MPD2    C2 3328   0.470   3.151  11.919
  198MPD2    C3 3329   0.517   3.277  11.889
  198MPD2    C4 3330   0.649   3.304  11.880
  198MPD2    C5 3331   0.733   3.205  11.902
  198MPD2     H 3332   0.362   3.136  11.921
  198MPD2    H1 3333   0.691   3.402  11.862
  198MPD2    H2 3334   0.758   2.994  11.953
  198MPD2    H3 3335   0.839   3.224  11.886
  198MPD2     N 3336   0.429   3.381  11.852
  198MPD2    H5 3337   0.331   3.357  11.857
  198MPD2    N1 3338   0.518   2.908  11.948
  198MPD2    H7 3339   0.594   2.843  11.963
  199MPD2     C 3340   4.664   2.482  11.707
  199MPD2    C1 3341   4.793   2.451  11.684
  199MPD2    C2 3342   0.034   2.372  11.579
  199MPD2    C3 3343   4.732   2.328  11.492
  199MPD2    C4 3344   4.601   2.354  11.520
  199MPD2    C5 3345   4.572   2.433  11.624
  199MPD2     H 3346   0.137   2.342  11.563
  199MPD2    H1 3347   4.522   2.316  11.456
  199MPD2    H2 3348   4.637   2.557  11.781
  199MPD2    H3 3349   4.467   2.452  11.641
  199MPD2     N 3350   4.758   2.242  11.385
  199MPD2    H5 3351   4.677   2.192  11.349
  199MPD2    N1 3352   0.091   2.486  11.786
  199MPD2    H7 3353   0.057   2.541  11.864
  200MPD2     C 3354   4.537   2.740  11.446
  200MPD2    C1 3355   4.666   2.716  11.413
  200MPD2    C2 3356   4.694   2.629  11.312
  200MPD2    C3 3357   4.596   2.552  11.252
  200MPD2    C4 3358   4.468   2.561  11.304
  200MPD2    C5 3359   4.444   2.650  11.400
  200MPD2     H 3360   0.003   2.618  11.280
  200MPD2    H1 3361   4.388   2.502  11.261
  200MPD2    H2 3362   4.505   2.812  11.520
  200MPD2    H3 3363   4.344   2.652  11.442
  200MPD2     N 3364   4.631   2.479  11.139
  200MPD2    H5 3365   4.712   2.510  11.086
  200MPD2    N1 3366   4.769   2.778  11.490
  200MPD2    H7 3367   4.734   2.852  11.550
  201MPD2     C 3368   4.597   2.819  10.621
  201MPD2    C1 3369   4.516   2.719  10.653
  201MPD2    C2 3370   4.384   2.744  10.652
  201MPD2    C3 3371   4.325   2.873  10.632
  201MPD2    C4 3372   4.413   2.977  10.613
  201MPD2    C5 3373   4.546   2.947  10.592
  201MPD2     H 3374   4.321   2.661  10.682
  201MPD2    H1 3375   4.372   3.076  10.595
  201MPD2    H2 3376   4.702   2.807  10.598
  201MPD2    H3 3377   4.610   3.032  10.571
  201MPD2     N 3378   4.178   2.886  10.622
  201MPD2    H5 3379   4.138   2.980  10.623
  201MPD2    N1 3380   4.556   2.583  10.672
  201MPD2    H7 3381   4.486   2.518  10.705
  202MPD2     C 3382   0.525   1.843  10.969
  202MPD2    C1 3383   0.467   1.890  11.082
  202MPD2    C2 3384   0.364   1.984  11.073
  202MPD2    C3 3385   0.319   2.033  10.949
  202MPD2    C4 3386   0.383   1.991  10.835
  202MPD2    C5 3387   0.472   1.888  10.847
  202MPD2     H 3388   0.327   2.025  11.166
  202MPD2    H1 3389   0.365   2.034  10.737
  202MPD2    H2 3390   0.596   1.761  10.973
  202MPD2    H3 3391   0.518   1.860  10.753
  202MPD2     N 3392   0.204   2.120  10.946
  202MPD2    H5 3393   0.152   2.127  11.033
  202MPD2    N1 3394   0.506   1.833  11.209
  202MPD2    H7 3395   0.577   1.760  11.212
  203MPD2     C 3396   1.229   1.695   8.655
  203MPD2    C1 3397   1.136   1.707   8.555
  203MPD2    C2 3398   1.177   1.675   8.423
  203MPD2    C3 3399   1.310   1.635   8.400
  203MPD2    C4 3400   1.386   1.605   8.502
  203MPD2    C5 3401   1.349   1.632   8.628
  203MPD2     H 3402   1.111   1.695   8.339
  203MPD2    H1 3403   1.492   1.585   8.485
  203MPD2    H2 3404   1.211   1.715   8.760
  203MPD2    H3 3405   1.416   1.620   8.712
  203MPD2     N 3406   1.369   1.631   8.276
  203MPD2    H5 3407   1.469   1.617   8.276
  203MPD2    N1 3408   1.003   1.741   8.589
  203MPD2    H7 3409   0.988   1.768   8.685
  204MPD2     C 3410   1.938   1.098   8.271
  204MPD2    C1 3411   1.833   1.159   8.334
  204MPD2    C2 3412   1.741   1.233   8.259
  204MPD2    C3 3413   1.756   1.246   8.130
  204MPD2    C4 3414   1.862   1.188   8.061
  204MPD2    C5 3415   1.953   1.115   8.136
  204MPD2     H 3416   1.654   1.282   8.301
  204MPD2    H1 3417   1.897   1.197   7.959
  204MPD2    H2 3418   2.014   1.039   8.322
  204MPD2    H3 3419   2.039   1.079   8.080
  204MPD2     N 3420   1.654   1.313   8.069
  204MPD2    H5 3421   1.577   1.335   8.131
  204MPD2    N1 3422   1.836   1.159   8.472
  204MPD2    H7 3423   1.916   1.116   8.517
  205MPD2     C 3424   0.982   1.995   7.584
  205MPD2    C1 3425   0.963   1.868   7.619
  205MPD2    C2 3426   1.077   1.793   7.631
  205MPD2    C3 3427   1.198   1.845   7.630
  205MPD2    C4 3428   1.214   1.976   7.609
  205MPD2    C5 3429   1.107   2.051   7.580
  205MPD2     H 3430   1.061   1.688   7.655
  205MPD2    H1 3431   1.314   2.017   7.610
  205MPD2    H2 3432   0.900   2.066   7.582
  205MPD2    H3 3433   1.121   2.154   7.548
  205MPD2     N 3434   1.314   1.782   7.676
  205MPD2    H5 3435   1.401   1.832   7.689
  205MPD2    N1 3436   0.828   1.831   7.653
  205MPD2    H7 3437   0.760   1.904   7.639
  206MPD2     C 3438   1.920   4.139  11.064
  206MPD2    C1 3439   1.902   4.144  11.197
  206MPD2    C2 3440   1.973   4.248  11.262
  206MPD2    C3 3441   2.046   4.346  11.199
  206MPD2    C4 3442   2.053   4.333  11.062
  206MPD2    C5 3443   1.997   4.232  10.996
  206MPD2     H 3444   1.978   4.246  11.370
  206MPD2    H1 3445   2.114   4.398  10.999
  206MPD2    H2 3446   1.877   4.056  11.010
  206MPD2    H3 3447   2.005   4.232  10.888
  206MPD2     N 3448   2.128   4.434  11.265
  206MPD2    H5 3449   2.126   4.425  11.366
  206MPD2    N1 3450   1.815   4.055  11.263
  206MPD2    H7 3451   1.770   3.982  11.208
  207MPD2     C 3452   1.380   3.611  11.038
  207MPD2    C1 3453   1.335   3.640  11.162
  207MPD2    C2 3454   1.216   3.595  11.214
  207MPD2    C3 3455   1.139   3.510  11.134
  207MPD2    C4 3456   1.179   3.479  11.010
  207MPD2    C5 3457   1.296   3.524  10.958
  207MPD2     H 3458   1.189   3.619  11.316
  207MPD2    H1 3459   1.128   3.410  10.943
  207MPD2    H2 3460   1.475   3.642  10.996
  207MPD2    H3 3461   1.336   3.506  10.859
  207MPD2     N 3462   1.012   3.467  11.184
  207MPD2    H5 3463   0.987   3.486  11.281
  207MPD2    N1 3464   1.425   3.717  11.237
  207MPD2    H7 3465   1.497   3.768  11.188
  208MPD2     C 3466   1.622   3.320  11.989
  208MPD2    C1 3467   1.560   3.317  11.863
  208MPD2    C2 3468   1.549   3.434  11.793
  208MPD2    C3 3469   1.604   3.554  11.847
  208MPD2    C4 3470   1.662   3.558  11.972
  208MPD2    C5 3471   1.678   3.436  12.037
  208MPD2     H 3472   1.497   3.444  11.698
  208MPD2    H1 3473   1.706   3.647  12.015
  208MPD2    H2 3474   1.624   3.231  12.050
  208MPD2    H3 3475   1.725   3.433  12.135
  208MPD2     N 3476   1.586   3.668  11.766
  208MPD2    H5 3477   1.541   3.639  11.680
  208MPD2    N1 3478   1.520   3.188  11.815
  208MPD2    H7 3479   1.546   3.112  11.877
  209MPD2     C 3480   2.562   2.018  10.366
  209MPD2    C1 3481   2.670   2.078  10.295
  209MPD2    C2 3482   2.750   2.014  10.205
  209MPD2    C3 3483   2.719   1.877  10.180
  209MPD2    C4 3484   2.622   1.813  10.260
  209MPD2    C5 3485   2.547   1.883  10.351
  209MPD2     H 3486   2.805   2.078  10.137
  209MPD2    H1 3487   2.611   1.706  10.248
  209MPD2    H2 3488   2.496   2.073  10.432
  209MPD2    H3 3489   2.477   1.826  10.410
  209MPD2     N 3490   2.785   1.816  10.070
  209MPD2    H5 3491   2.868   1.862  10.033
  209MPD2    N1 3492   2.707   2.219  10.318
  209MPD2    H7 3493   2.789   2.252  10.268
  210MPD2     C 3494   3.268   2.914   9.961
  210MPD2    C1 3495   3.188   3.002  10.036
  210MPD2    C2 3496   3.102   2.952  10.135
  210MPD2    C3 3497   3.068   2.814  10.134
  210MPD2    C4 3498   3.139   2.735  10.045
  210MPD2    C5 3499   3.244   2.783   9.976
  210MPD2     H 3500   3.055   3.023  10.201
  210MPD2    H1 3501   3.128   2.628  10.039
  210MPD2    H2 3502   3.339   2.948   9.887
  210MPD2    H3 3503   3.296   2.714   9.911
  210MPD2     N 3504   2.974   2.769  10.225
  210MPD2    H5 3505   2.956   2.828  10.305
  210MPD2    N1 3506   3.200   3.142  10.009
  210MPD2    H7 3507   3.250   3.179   9.928
  211MPD2     C 3508   2.190   2.852  10.329
  211MPD2    C1 3509   2.238   2.733  10.380
  211MPD2    C2 3510   2.147   2.638  10.427
  211MPD2    C3 3511   2.013   2.664  10.404
  211MPD2    C4 3512   1.974   2.789  10.359
  211MPD2    C5 3513   2.057   2.884  10.325
  211MPD2     H 3514   2.178   2.542  10.469
  211MPD2    H1 3515   1.870   2.798  10.329
  211MPD2    H2 3516   2.260   2.923  10.285
  211MPD2    H3 3517   2.024   2.982  10.293
  211MPD2     N 3518   1.911   2.569  10.398
  211MPD2    H5 3519   1.819   2.605  10.378
  211MPD2    N1 3520   2.369   2.687  10.396
  211MPD2    H7 3521   2.383   2.601  10.448
  212MPD2     C 3522   1.765   2.871  13.676
  212MPD2    C1 3523   1.633   2.860  13.634
  212MPD2    C2 3524   1.562   2.745  13.653
  212MPD2    C3 3525   1.618   2.639  13.732
  212MPD2    C4 3526   1.751   2.645  13.767
  212MPD2    C5 3527   1.825   2.759  13.733
  212MPD2     H 3528   1.463   2.747  13.610
  212MPD2    H1 3529   1.801   2.574  13.832
  212MPD2    H2 3530   1.830   2.955  13.658
  212MPD2    H3 3531   1.928   2.767  13.765
  212MPD2     N 3532   1.535   2.529  13.771
  212MPD2    H5 3533   1.438   2.540  13.744
  212MPD2    N1 3534   1.565   2.965  13.570
  212MPD2    H7 3535   1.475   2.951  13.525
  213MPD2     C 3536   1.788   1.868  13.737
  213MPD2    C1 3537   1.781   2.001  13.781
  213MPD2    C2 3538   1.881   2.078  13.734
  213MPD2    C3 3539   1.977   2.033  13.645
  213MPD2    C4 3540   1.992   1.902  13.622
  213MPD2    C5 3541   1.894   1.816  13.668
  213MPD2     H 3542   1.872   2.182  13.764
  213MPD2    H1 3543   2.067   1.855  13.560
  213MPD2    H2 3544   1.717   1.796  13.777
  213MPD2    H3 3545   1.910   1.710  13.652
  213MPD2     N 3546   2.064   2.119  13.574
  213MPD2    H5 3547   2.117   2.080  13.497
  213MPD2    N1 3548   1.676   2.058  13.856
  213MPD2    H7 3549   1.692   2.155  13.881
  214MPD2     C 3550   1.000   3.224  10.700
  214MPD2    C1 3551   0.952   3.223  10.569
  214MPD2    C2 3552   0.910   3.105  10.507
  214MPD2    C3 3553   0.922   2.988  10.583
  214MPD2    C4 3554   0.953   2.994  10.717
  214MPD2    C5 3555   0.994   3.114  10.773
  214MPD2     H 3556   0.880   3.105  10.403
  214MPD2    H1 3557   0.951   2.911  10.787
  214MPD2    H2 3558   1.034   3.315  10.748
  214MPD2    H3 3559   1.030   3.128  10.874
  214MPD2     N 3560   0.896   2.870  10.508
  214MPD2    H5 3561   0.872   2.875  10.409
  214MPD2    N1 3562   0.953   3.343  10.498
  214MPD2    H7 3563   0.991   3.419  10.554
  215MPD2     C 3564   0.602   2.371   9.783
  215MPD2    C1 3565   0.575   2.327   9.912
  215MPD2    C2 3566   0.631   2.392  10.017
  215MPD2    C3 3567   0.747   2.472  10.004
  215MPD2    C4 3568   0.789   2.496   9.875
  215MPD2    C5 3569   0.717   2.456   9.770
  215MPD2     H 3570   0.593   2.370  10.116
  215MPD2    H1 3571   0.879   2.553   9.859
  215MPD2    H2 3572   0.547   2.337   9.696
  215MPD2    H3 3573   0.746   2.482   9.669
  215MPD2     N 3574   0.821   2.502  10.113
  215MPD2    H5 3575   0.786   2.469  10.203
  215MPD2    N1 3576   0.475   2.222   9.924
  215MPD2    H7 3577   0.419   2.216   9.839
  216MPD2     C 3578   2.778   4.314  10.818
  216MPD2    C1 3579   2.707   4.244  10.911
  216MPD2    C2 3580   2.618   4.146  10.878
  216MPD2    C3 3581   2.607   4.118  10.743
  216MPD2    C4 3582   2.675   4.184  10.649
  216MPD2    C5 3583   2.770   4.269  10.690
  216MPD2     H 3584   2.561   4.096  10.956
  216MPD2    H1 3585   2.668   4.161  10.543
  216MPD2    H2 3586   2.845   4.395  10.843
  216MPD2    H3 3587   2.836   4.302  10.611
  216MPD2     N 3588   2.505   4.027  10.708
  216MPD2    H5 3589   2.473   3.967  10.784
  216MPD2    N1 3590   2.695   4.296  11.048
  216MPD2    H7 3591   2.645   4.236  11.113
  217MPD2     C 3592   2.669   0.274  11.282
  217MPD2    C1 3593   2.743   0.211  11.377
  217MPD2    C2 3594   2.858   0.285  11.416
  217MPD2    C3 3595   2.892   0.413  11.369
  217MPD2    C4 3596   2.815   0.467  11.277
  217MPD2    C5 3597   2.705   0.395  11.234
  217MPD2     H 3598   2.931   0.237  11.480
  217MPD2    H1 3599   2.828   0.569  11.243
  217MPD2    H2 3600   2.584   0.225  11.236
  217MPD2    H3 3601   2.641   0.450  11.166
  217MPD2     N 3602   3.017   0.468  11.409
  217MPD2    H5 3603   3.062   0.419  11.485
  217MPD2    N1 3604   2.724   0.079  11.409
  217MPD2    H7 3605   2.805   0.041  11.456
  218MPD2     C 3606   2.824   4.365  12.066
  218MPD2    C1 3607   2.750   4.281  11.983
  218MPD2    C2 3608   2.748   4.303  11.846
  218MPD2    C3 3609   2.826   4.406  11.792
  218MPD2    C4 3610   2.892   4.491  11.875
  218MPD2    C5 3611   2.894   4.471  12.010
  218MPD2     H 3612   2.694   4.238  11.779
  218MPD2    H1 3613   2.946   4.583  11.853
  218MPD2    H2 3614   2.820   4.352  12.173
  218MPD2    H3 3615   2.944   4.539  12.077
  218MPD2     N 3616   2.837   4.429  11.655
  218MPD2    H5 3617   2.903   4.498  11.622
  218MPD2    N1 3618   2.662   4.194  12.045
  218MPD2    H7 3619   2.639   4.209  12.143
  219MPD2     C 3620   1.847   4.096   8.221
  219MPD2    C1 3621   1.824   4.016   8.325
  219MPD2    C2 3622   1.727   3.906   8.297
  219MPD2    C3 3623   1.676   3.882   8.168
  219MPD2    C4 3624   1.711   3.968   8.067
  219MPD2    C5 3625   1.803   4.063   8.097
  219MPD2     H 3626   1.706   3.828   8.368
  219MPD2    H1 3627   1.678   3.962   7.964
  219MPD2    H2 3628   1.923   4.173   8.230
  219MPD2    H3 3629   1.853   4.111   8.013
  219MPD2     N 3630   1.585   3.781   8.137
  219MPD2    H5 3631   1.559   3.774   8.039
  219MPD2    N1 3632   1.892   4.040   8.450
  219MPD2    H7 3633   1.986   4.079   8.449
  220MPD2     C 3634   1.444   3.566   9.029
  220MPD2    C1 3635   1.564   3.622   8.993
  220MPD2    C2 3636   1.675   3.593   9.073
  220MPD2    C3 3637   1.667   3.493   9.170
  220MPD2    C4 3638   1.548   3.441   9.206
  220MPD2    C5 3639   1.433   3.488   9.137
  220MPD2     H 3640   1.769   3.636   9.044
  220MPD2    H1 3641   1.539   3.368   9.285
  220MPD2    H2 3642   1.355   3.588   8.971
  220MPD2    H3 3643   1.338   3.445   9.168
  220MPD2     N 3644   1.780   3.444   9.238
  220MPD2    H5 3645   1.769   3.363   9.298
  220MPD2    N1 3646   1.582   3.710   8.893
  220MPD2    H7 3647   1.668   3.765   8.893
  221MPD2     C 3648   1.227   4.297   8.896
  221MPD2    C1 3649   1.263   4.286   8.768
  221MPD2    C2 3650   1.218   4.373   8.673
  221MPD2    C3 3651   1.153   4.490   8.707
  221MPD2    C4 3652   1.136   4.515   8.838
  221MPD2    C5 3653   1.163   4.411   8.933
  221MPD2     H 3654   1.230   4.344   8.569
  221MPD2    H1 3655   1.089   4.607   8.871
  221MPD2    H2 3656   1.257   4.221   8.968
  221MPD2    H3 3657   1.164   4.432   9.040
  221MPD2     N 3658   1.111   4.588   8.610
  221MPD2    H5 3659   1.088   4.677   8.654
  221MPD2    N1 3660   1.329   4.172   8.720
  221MPD2    H7 3661   1.332   4.097   8.788
  222MPD2     C 3662   1.000   1.037  14.295
  222MPD2    C1 3663   0.874   1.062  14.337
  222MPD2    C2 3664   0.853   1.142  14.448
  222MPD2    C3 3665   0.957   1.217  14.501
  222MPD2    C4 3666   1.084   1.200  14.453
  222MPD2    C5 3667   1.107   1.109  14.352
  222MPD2     H 3668   0.750   1.153  14.481
  222MPD2    H1 3669   1.167   1.247  14.505
  222MPD2    H2 3670   1.017   0.966  14.214
  222MPD2    H3 3671   1.209   1.082  14.327
  222MPD2     N 3672   0.943   1.303  14.612
  222MPD2    H5 3673   1.017   1.366  14.640
  222MPD2    N1 3674   0.758   0.994  14.286
  222MPD2    H7 3675   0.670   1.011  14.333
  223MPD2     C 3676   0.284   2.054  14.811
  223MPD2    C1 3677   0.415   2.096  14.842
  223MPD2    C2 3678   0.516   2.004  14.848
  223MPD2    C3 3679   0.487   1.870  14.820
  223MPD2    C4 3680   0.358   1.836  14.789
  223MPD2    C5 3681   0.252   1.928  14.788
  223MPD2     H 3682   0.616   2.033  14.879
  223MPD2    H1 3683   0.332   1.734  14.765
  223MPD2    H2 3684   0.198   2.118  14.821
  223MPD2    H3 3685   0.152   1.894  14.766
  223MPD2     N 3686   0.574   1.755  14.841
  223MPD2    H5 3687   0.535   1.662  14.830
  223MPD2    N1 3688   0.451   2.231  14.876
  223MPD2    H7 3689   0.548   2.244  14.904
  224MPD2     C 3690   1.625   1.644  14.928
  224MPD2    C1 3691   1.538   1.652  15.038
  224MPD2    C2 3692   1.402   1.626  15.023
  224MPD2    C3 3693   1.355   1.597  14.897
  224MPD2    C4 3694   1.442   1.590  14.790
  224MPD2    C5 3695   1.573   1.612  14.807
  224MPD2     H 3696   1.335   1.629  15.108
  224MPD2    H1 3697   1.402   1.566  14.692
  224MPD2    H2 3698   1.730   1.672  14.933
  224MPD2    H3 3699   1.638   1.608  14.719
  224MPD2     N 3700   1.225   1.563  14.870
  224MPD2    H5 3701   1.207   1.534  14.774
  224MPD2    N1 3702   1.591   1.695  15.160
  224MPD2    H7 3703   1.693   1.701  15.165
  225MPD2     C 3704   2.164   1.729  11.226
  225MPD2    C1 3705   2.247   1.633  11.173
  225MPD2    C2 3706   2.316   1.668  11.062
  225MPD2    C3 3707   2.297   1.790  10.998
  225MPD2    C4 3708   2.212   1.882  11.050
  225MPD2    C5 3709   2.144   1.848  11.168
  225MPD2     H 3710   2.383   1.594  11.020
  225MPD2    H1 3711   2.189   1.974  10.996
  225MPD2    H2 3712   2.115   1.717  11.322
  225MPD2    H3 3713   2.065   1.915  11.202
  225MPD2     N 3714   2.359   1.798  10.870
  225MPD2    H5 3715   2.400   1.709  10.843
  225MPD2    N1 3716   2.254   1.499  11.220
  225MPD2    H7 3717   2.304   1.429  11.167
  226MPD2     C 3718   2.220   0.703  10.783
  226MPD2    C1 3719   2.354   0.722  10.769
  226MPD2    C2 3720   2.399   0.853  10.750
  226MPD2    C3 3721   2.308   0.956  10.718
  226MPD2    C4 3722   2.171   0.933  10.734
  226MPD2    C5 3723   2.130   0.812  10.774
  226MPD2     H 3724   2.505   0.876  10.751
  226MPD2    H1 3725   2.099   1.015  10.732
  226MPD2    H2 3726   2.173   0.607  10.799
  226MPD2    H3 3727   2.027   0.794  10.800
  226MPD2     N 3728   2.353   1.085  10.671
  226MPD2    H5 3729   2.454   1.084  10.665
  226MPD2    N1 3730   2.452   0.625  10.766
  226MPD2    H7 3731   2.548   0.649  10.744
  227MPD2     C 3732   3.142   1.206  10.576
  227MPD2    C1 3733   3.082   1.333  10.583
  227MPD2    C2 3734   2.946   1.340  10.543
  227MPD2    C3 3735   2.874   1.225  10.503
  227MPD2    C4 3736   2.935   1.100  10.514
  227MPD2    C5 3737   3.071   1.094  10.535
  227MPD2     H 3738   2.898   1.434  10.568
  227MPD2    H1 3739   2.897   1.002  10.488
  227MPD2    H2 3740   3.247   1.206  10.601
  227MPD2    H3 3741   3.131   1.003  10.533
  227MPD2     N 3742   2.740   1.235  10.469
  227MPD2    H5 3743   2.689   1.148  10.481
  227MPD2    N1 3744   3.160   1.440  10.626
  227MPD2    H7 3745   3.252   1.412  10.659
  228MPD2     C 3746   2.205   1.843  10.247
  228MPD2    C1 3747   2.206   1.803  10.378
  228MPD2    C2 3748   2.184   1.899  10.472
  228MPD2    C3 3749   2.172   2.037  10.445
  228MPD2    C4 3750   2.170   2.073  10.319
  228MPD2    C5 3751   2.183   1.976  10.215
  228MPD2     H 3752   2.185   1.871  10.576
  228MPD2    H1 3753   2.155   2.176  10.289
  228MPD2    H2 3754   2.219   1.769  10.168
  228MPD2    H3 3755   2.158   2.000  10.112
  228MPD2     N 3756   2.155   2.134  10.540
  228MPD2    H5 3757   2.162   2.228  10.505
  228MPD2    N1 3758   2.237   1.673  10.413
  228MPD2    H7 3759   2.226   1.653  10.512
  229MPD2     C 3760   1.560   0.142  13.596
  229MPD2    C1 3761   1.697   0.162  13.596
  229MPD2    C2 3762   1.751   0.273  13.654
  229MPD2    C3 3763   1.669   0.373  13.702
  229MPD2    C4 3764   1.532   0.357  13.705
  229MPD2    C5 3765   1.479   0.235  13.656
  229MPD2     H 3766   1.859   0.275  13.650
  229MPD2    H1 3767   1.459   0.434  13.728
  229MPD2    H2 3768   1.502   0.056  13.564
  229MPD2    H3 3769   1.373   0.216  13.655
  229MPD2     N 3770   1.716   0.487  13.765
  229MPD2    H5 3771   1.653   0.546  13.819
  229MPD2    N1 3772   1.780   0.073  13.526
  229MPD2    H7 3773   1.874   0.104  13.504
  230MPD2     C 3774   1.929   1.257  13.896
  230MPD2    C1 3775   2.012   1.188  13.979
  230MPD2    C2 3776   2.106   1.262  14.054
  230MPD2    C3 3777   2.125   1.395  14.027
  230MPD2    C4 3778   2.024   1.462  13.963
  230MPD2    C5 3779   1.928   1.396  13.900
  230MPD2     H 3780   2.173   1.204  14.116
  230MPD2    H1 3781   2.027   1.569  13.942
  230MPD2    H2 3782   1.852   1.208  13.838
  230MPD2    H3 3783   1.863   1.449  13.831
  230MPD2     N 3784   2.251   1.452  14.053
  230MPD2    H5 3785   2.260   1.546  14.015
  230MPD2    N1 3786   2.015   1.045  13.994
  230MPD2    H7 3787   2.078   0.989  14.050
  231MPD2     C 3788   1.550   0.532  14.413
  231MPD2    C1 3789   1.530   0.545  14.276
  231MPD2    C2 3790   1.422   0.476  14.220
  231MPD2    C3 3791   1.341   0.398  14.304
  231MPD2    C4 3792   1.356   0.393  14.438
  231MPD2    C5 3793   1.453   0.471  14.491
  231MPD2     H 3794   1.409   0.478  14.112
  231MPD2    H1 3795   1.275   0.354  14.498
  231MPD2    H2 3796   1.632   0.577  14.468
  231MPD2    H3 3797   1.461   0.486  14.598
  231MPD2     N 3798   1.239   0.309  14.267
  231MPD2    H5 3799   1.202   0.242  14.334
  231MPD2    N1 3800   1.613   0.619  14.191
  231MPD2    H7 3801   1.594   0.617  14.091
  232MPD2     C 3802   3.344   1.902   9.260
  232MPD2    C1 3803   3.443   1.965   9.193
  232MPD2    C2 3804   3.486   1.924   9.066
  232MPD2    C3 3805   3.428   1.815   9.004
  232MPD2    C4 3806   3.332   1.749   9.079
  232MPD2    C5 3807   3.292   1.789   9.202
  232MPD2     H 3808   3.571   1.973   9.019
  232MPD2    H1 3809   3.294   1.656   9.038
  232MPD2    H2 3810   3.313   1.920   9.362
  232MPD2    H3 3811   3.233   1.721   9.263
  232MPD2     N 3812   3.481   1.740   8.898
  232MPD2    H5 3813   3.442   1.650   8.872
  232MPD2    N1 3814   3.518   2.066   9.254
  232MPD2    H7 3815   3.608   2.100   9.220
  233MPD2     C 3816   4.145   2.060   9.424
  233MPD2    C1 3817   4.074   2.133   9.518
  233MPD2    C2 3818   4.144   2.186   9.630
  233MPD2    C3 3819   4.284   2.168   9.646
  233MPD2    C4 3820   4.346   2.091   9.545
  233MPD2    C5 3821   4.275   2.049   9.437
  233MPD2     H 3822   4.096   2.252   9.702
  233MPD2    H1 3823   4.452   2.066   9.546
  233MPD2    H2 3824   4.095   2.024   9.336
  233MPD2    H3 3825   4.320   1.990   9.358
  233MPD2     N 3826   4.347   2.223   9.759
  233MPD2    H5 3827   4.288   2.239   9.839
  233MPD2    N1 3828   3.944   2.167   9.491
  233MPD2    H7 3829   3.883   2.113   9.430
  234MPD2     C 3830   3.734   2.760   9.119
  234MPD2    C1 3831   3.811   2.682   9.205
  234MPD2    C2 3832   3.948   2.675   9.197
  234MPD2    C3 3833   4.018   2.753   9.101
  234MPD2    C4 3834   3.942   2.844   9.027
  234MPD2    C5 3835   3.802   2.839   9.027
  234MPD2     H 3836   4.004   2.603   9.255
  234MPD2    H1 3837   3.989   2.918   8.965
  234MPD2    H2 3838   3.626   2.759   9.119
  234MPD2    H3 3839   3.745   2.903   8.961
  234MPD2     N 3840   4.155   2.731   9.066
  234MPD2    H5 3841   4.184   2.775   8.980
  234MPD2    N1 3842   3.753   2.597   9.304
  234MPD2    H7 3843   3.820   2.553   9.367
  235MPD2     C 3844   3.189   0.931  14.950
  235MPD2    C1 3845   3.260   0.892  15.062
  235MPD2    C2 3846   3.398   0.863  15.047
  235MPD2    C3 3847   3.466   0.896  14.931
  235MPD2    C4 3848   3.392   0.954  14.831
  235MPD2    C5 3849   3.256   0.964  14.831
  235MPD2     H 3850   3.449   0.813  15.129
  235MPD2    H1 3851   3.435   0.988  14.738
  235MPD2    H2 3852   3.082   0.947  14.956
  235MPD2    H3 3853   3.205   1.003  14.744
  235MPD2     N 3854   3.605   0.878  14.923
  235MPD2    H5 3855   3.648   0.828  15.001
  235MPD2    N1 3856   3.204   0.884  15.192
  235MPD2    H7 3857   3.266   0.841  15.260
  236MPD2     C 3858   4.292   0.592  14.422
  236MPD2    C1 3859   4.178   0.661  14.460
  236MPD2    C2 3860   4.119   0.632  14.584
  236MPD2    C3 3861   4.182   0.556  14.681
  236MPD2    C4 3862   4.290   0.484  14.638
  236MPD2    C5 3863   4.335   0.491  14.508
  236MPD2     H 3864   4.033   0.692  14.614
  236MPD2    H1 3865   4.346   0.421  14.706
  236MPD2    H2 3866   4.343   0.597  14.326
  236MPD2    H3 3867   4.424   0.435  14.482
  236MPD2     N 3868   4.141   0.544  14.817
  236MPD2    H5 3869   4.193   0.470  14.865
  236MPD2    N1 3870   4.134   0.770  14.387
  236MPD2    H7 3871   4.049   0.812  14.424
  237MPD2     C 3872   4.192   1.333  14.567
  237MPD2    C1 3873   4.099   1.325  14.671
  237MPD2    C2 3874   4.042   1.438  14.714
  237MPD2    C3 3875   4.059   1.556  14.648
  237MPD2    C4 3876   4.144   1.563  14.540
  237MPD2    C5 3877   4.210   1.454  14.498
  237MPD2     H 3878   3.981   1.439  14.804
  237MPD2    H1 3879   4.169   1.656  14.490
  237MPD2    H2 3880   4.262   1.253  14.546
  237MPD2    H3 3881   4.276   1.452  14.412
  237MPD2     N 3882   3.987   1.674  14.689
  237MPD2    H5 3883   3.991   1.754  14.627
  237MPD2    N1 3884   4.068   1.207  14.740
  237MPD2    H7 3885   3.998   1.210  14.814
  238MPD2     C 3886   1.762   3.323  12.550
  238MPD2    C1 3887   1.726   3.459  12.575
  238MPD2    C2 3888   1.808   3.531  12.662
  238MPD2    C3 3889   1.916   3.473  12.730
  238MPD2    C4 3890   1.939   3.342  12.709
  238MPD2    C5 3891   1.855   3.263  12.634
  238MPD2     H 3892   1.786   3.637  12.676
  238MPD2    H1 3893   2.016   3.286  12.760
  238MPD2    H2 3894   1.697   3.256  12.495
  238MPD2    H3 3895   1.871   3.156  12.629
  238MPD2     N 3896   1.990   3.567  12.804
  238MPD2    H5 3897   1.949   3.660  12.807
  238MPD2    N1 3898   1.625   3.527  12.501
  238MPD2    H7 3899   1.603   3.622  12.527
  239MPD2     C 3900   0.808   3.566  12.354
  239MPD2    C1 3901   0.920   3.614  12.417
  239MPD2    C2 3902   0.909   3.665  12.545
  239MPD2    C3 3903   0.786   3.676  12.604
  239MPD2    C4 3904   0.671   3.624  12.540
  239MPD2    C5 3905   0.688   3.577  12.416
  239MPD2     H 3906   0.994   3.702  12.600
  239MPD2    H1 3907   0.573   3.634  12.585
  239MPD2    H2 3908   0.803   3.537  12.250
  239MPD2    H3 3909   0.597   3.530  12.382
  239MPD2     N 3910   0.776   3.738  12.729
  239MPD2    H5 3911   0.860   3.776  12.771
  239MPD2    N1 3912   1.044   3.616  12.343
  239MPD2    H7 3913   1.039   3.568  12.254
  240MPD2     C 3914   1.577   3.388   7.082
  240MPD2    C1 3915   1.710   3.398   7.123
  240MPD2    C2 3916   1.791   3.289   7.155
  240MPD2    C3 3917   1.731   3.164   7.171
  240MPD2    C4 3918   1.602   3.154   7.126
  240MPD2    C5 3919   1.530   3.264   7.084
  240MPD2     H 3920   1.890   3.316   7.190
  240MPD2    H1 3921   1.558   3.055   7.124
  240MPD2    H2 3922   1.514   3.470   7.050
  240MPD2    H3 3923   1.436   3.256   7.029
  240MPD2     N 3924   1.802   3.054   7.230
  240MPD2    H5 3925   1.756   2.970   7.264
  240MPD2    N1 3926   1.775   3.523   7.135
  240MPD2    H7 3927   1.871   3.522   7.168
  241MPD2     C 3928   2.798   2.820   7.637
  241MPD2    C1 3929   2.750   2.932   7.576
  241MPD2    C2 3930   2.624   2.929   7.522
  241MPD2    C3 3931   2.538   2.816   7.533
  241MPD2    C4 3932   2.584   2.712   7.608
  241MPD2    C5 3933   2.714   2.710   7.655
  241MPD2     H 3934   2.583   3.016   7.474
  241MPD2    H1 3935   2.518   2.626   7.621
  241MPD2    H2 3936   2.895   2.824   7.685
  241MPD2    H3 3937   2.758   2.627   7.711
  241MPD2     N 3938   2.403   2.820   7.491
  241MPD2    H5 3939   2.345   2.737   7.486
  241MPD2    N1 3940   2.832   3.047   7.573
  241MPD2    H7 3941   2.913   3.051   7.633
  242MPD2     C 3942   1.624   2.993   8.062
  242MPD2    C1 3943   1.632   3.108   7.979
  242MPD2    C2 3944   1.712   3.097   7.869
  242MPD2    C3 3945   1.776   2.978   7.839
  242MPD2    C4 3946   1.790   2.878   7.932
  242MPD2    C5 3947   1.713   2.885   8.048
  242MPD2     H 3948   1.698   3.179   7.800
  242MPD2    H1 3949   1.842   2.787   7.906
  242MPD2    H2 3950   1.554   2.980   8.144
  242MPD2    H3 3951   1.715   2.803   8.119
  242MPD2     N 3952   1.842   2.966   7.714
  242MPD2    H5 3953   1.816   3.039   7.649
  242MPD2    N1 3954   1.552   3.222   8.006
  242MPD2    H7 3955   1.512   3.222   8.100
  243MPD2     C 3956   4.212   3.152  14.393
  243MPD2    C1 3957   4.259   3.223  14.505
  243MPD2    C2 3958   4.185   3.329  14.554
  243MPD2    C3 3959   4.081   3.381  14.482
  243MPD2    C4 3960   4.049   3.319  14.360
  243MPD2    C5 3961   4.108   3.205  14.324
  243MPD2     H 3962   4.222   3.379  14.643
  243MPD2    H1 3963   3.960   3.351  14.306
  243MPD2    H2 3964   4.267   3.071  14.345
  243MPD2    H3 3965   4.076   3.150  14.237
  243MPD2     N 3966   3.994   3.480  14.526
  243MPD2    H5 3967   3.917   3.504  14.464
  243MPD2    N1 3968   4.366   3.186  14.590
  243MPD2    H7 3969   4.372   3.247  14.670
  244MPD2     C 3970   4.129   4.164  15.133
  244MPD2    C1 3971   3.990   4.166  15.116
  244MPD2    C2 3972   3.928   4.061  15.063
  244MPD2    C3 3973   4.001   3.958  15.024
  244MPD2    C4 3974   4.138   3.952  15.043
  244MPD2    C5 3975   4.199   4.059  15.097
  244MPD2     H 3976   3.821   4.072  15.049
  244MPD2    H1 3977   4.202   3.870  15.014
  244MPD2    H2 3978   4.181   4.251  15.171
  244MPD2    H3 3979   4.306   4.065  15.113
  244MPD2     N 3980   3.951   3.840  14.969
  244MPD2    H5 3981   4.018   3.771  14.937
  244MPD2    N1 3982   3.906   4.276  15.137
  244MPD2    H7 3983   3.806   4.265  15.119
  245MPD2     C 3984   3.244   3.673  14.545
  245MPD2    C1 3985   3.320   3.778  14.605
  245MPD2    C2 3986   3.270   3.905  14.609
  245MPD2    C3 3987   3.158   3.938  14.541
  245MPD2    C4 3988   3.081   3.839  14.489
  245MPD2    C5 3989   3.122   3.707  14.498
  245MPD2     H 3990   3.333   3.985  14.646
  245MPD2    H1 3991   2.996   3.862  14.425
  245MPD2    H2 3992   3.276   3.570  14.554
  245MPD2    H3 3993   3.059   3.639  14.442
  245MPD2     N 3994   3.134   4.073  14.521
  245MPD2    H5 3995   3.203   4.140  14.553
  245MPD2    N1 3996   3.454   3.760  14.652
  245MPD2    H7 3997   3.497   3.841  14.697
  246MPD2     C 3998   4.683   2.332   8.262
  246MPD2    C1 3999   4.702   2.359   8.122
  246MPD2    C2 4000   4.650   2.276   8.019
  246MPD2    C3 4001   4.574   2.171   8.062
  246MPD2    C4 4002   4.568   2.136   8.198
  246MPD2    C5 4003   4.618   2.220   8.290
  246MPD2     H 4004   4.673   2.302   7.916
  246MPD2    H1 4005   4.497   2.061   8.231
  246MPD2    H2 4006   4.716   2.396   8.343
  246MPD2    H3 4007   4.596   2.198   8.394
  246MPD2     N 4008   4.489   2.108   7.962
  246MPD2    H5 4009   4.503   2.139   7.866
  246MPD2    N1 4010   4.777   2.479   8.091
  246MPD2    H7 4011   0.044   2.507   8.166
  247MPD2     C 4012   0.204   2.736   7.362
  247MPD2    C1 4013   0.070   2.683   7.358
  247MPD2    C2 4014   0.007   2.672   7.233
  247MPD2    C3 4015   0.069   2.701   7.114
  247MPD2    C4 4016   0.206   2.725   7.119
  247MPD2    C5 4017   0.265   2.753   7.240
  247MPD2     H 4018   4.702   2.631   7.218
  247MPD2    H1 4019   0.266   2.745   7.031
  247MPD2    H2 4020   0.258   2.759   7.453
  247MPD2    H3 4021   0.369   2.784   7.245
  247MPD2     N 4022   0.004   2.695   6.985
  247MPD2    H5 4023   0.067   2.702   6.906
  247MPD2    N1 4024   0.015   2.654   7.489
  247MPD2    H7 4025   0.069   2.679   7.571
  248MPD2     C 4026   3.926   2.322   8.042
  248MPD2    C1 4027   3.990   2.272   7.928
  248MPD2    C2 4028   4.109   2.340   7.888
  248MPD2    C3 4029   4.170   2.440   7.967
  248MPD2    C4 4030   4.113   2.464   8.096
  248MPD2    C5 4031   3.993   2.397   8.130
  248MPD2     H 4032   4.146   2.314   7.789
  248MPD2    H1 4033   4.155   2.540   8.161
  248MPD2    H2 4034   3.835   2.266   8.065
  248MPD2    H3 4035   3.944   2.419   8.224
  248MPD2     N 4036   4.291   2.508   7.931
  248MPD2    H5 4037   4.326   2.577   7.996
  248MPD2    N1 4038   3.922   2.177   7.842
  248MPD2    H7 4039   3.821   2.171   7.848
  249MPD2     C 4040   2.986   4.598  11.165
  249MPD2    C1 4041   3.109   4.577  11.232
  249MPD2    C2 4042   3.158   4.681  11.316
  249MPD2    C3 4043   3.111   0.016  11.317
  249MPD2    C4 4044   2.998   0.041  11.231
  249MPD2    C5 4045   2.939   4.726  11.164
  249MPD2     H 4046   3.255   4.663  11.360
  249MPD2    H1 4047   2.953   0.140  11.231
  249MPD2    H2 4048   2.956   4.535  11.083
  249MPD2    H3 4049   2.865   4.747  11.088
  249MPD2     N 4050   3.153   0.128  11.396
  249MPD2    H5 4051   3.101   0.211  11.371
  249MPD2    N1 4052   3.180   4.456  11.210
  249MPD2    H7 4053   3.276   4.458  11.244
  250MPD2     C 4054   3.723   3.958  11.182
  250MPD2    C1 4055   3.625   3.945  11.091
  250MPD2    C2 4056   3.634   3.820  11.023
  250MPD2    C3 4057   3.726   3.725  11.053
  250MPD2    C4 4058   3.814   3.744  11.153
  250MPD2    C5 4059   3.810   3.860  11.221
  250MPD2     H 4060   3.566   3.808  10.939
  250MPD2    H1 4061   3.892   3.671  11.173
  250MPD2    H2 4062   3.730   4.049  11.241
  250MPD2    H3 4063   3.877   3.873  11.306
  250MPD2     N 4064   3.726   3.607  10.970
  250MPD2    H5 4065   3.666   3.615  10.889
  250MPD2    N1 4066   3.554   4.058  11.047
  250MPD2    H7 4067   3.593   4.146  11.079
  251MPD2     C 4068   3.036   4.670  10.596
  251MPD2    C1 4069   3.086   4.546  10.576
  251MPD2    C2 4070   3.092   4.489  10.442
  251MPD2    C3 4071   3.029   4.561  10.341
  251MPD2    C4 4072   2.966   4.678  10.367
  251MPD2    C5 4073   2.975   4.731  10.490
  251MPD2     H 4074   3.137   4.393  10.419
  251MPD2    H1 4075   2.908   4.725  10.289
  251MPD2    H2 4076   3.023   4.704  10.698
  251MPD2    H3 4077   2.927   0.032  10.512
  251MPD2     N 4078   3.006   4.504  10.213
  251MPD2    H5 4079   2.953   4.569  10.155
  251MPD2    N1 4080   3.146   4.479  10.684
  251MPD2    H7 4081   3.139   4.517  10.777
  252MPD2     C 4082   4.009   2.436  14.279
  252MPD2    C1 4083   4.069   2.563  14.298
  252MPD2    C2 4084   4.206   2.571  14.319
  252MPD2    C3 4085   4.283   2.460  14.338
  252MPD2    C4 4086   4.225   2.331  14.335
  252MPD2    C5 4087   4.084   2.327  14.303
  252MPD2     H 4088   4.244   2.672  14.315
  252MPD2    H1 4089   4.284   2.242  14.349
  252MPD2    H2 4090   3.907   2.410  14.254
  252MPD2    H3 4091   4.029   2.236  14.287
  252MPD2     N 4092   4.424   2.489  14.373
  252MPD2    H5 4093   4.464   2.581  14.356
  252MPD2    N1 4094   3.997   2.685  14.301
  252MPD2    H7 4095   4.049   2.762  14.342
  253MPD2     C 4096   0.320   2.441  13.590
  253MPD2    C1 4097   0.376   2.537  13.679
  253MPD2    C2 4098   0.321   2.548  13.810
  253MPD2    C3 4099   0.204   2.493  13.841
  253MPD2    C4 4100   0.140   2.408  13.747
  253MPD2    C5 4101   0.204   2.383  13.627
  253MPD2     H 4102   0.373   2.611  13.880
  253MPD2    H1 4103   0.050   2.353  13.770
  253MPD2    H2 4104   0.365   2.415  13.496
  253MPD2    H3 4105   0.159   2.302  13.570
  253MPD2     N 4106   0.158   2.515  13.973
  253MPD2    H5 4107   0.210   2.581  14.030
  253MPD2    N1 4108   0.496   2.608  13.646
  253MPD2    H7 4109   0.535   2.659  13.725
  254MPD2     C 4110   4.601   3.083  14.234
  254MPD2    C1 4111   4.727   3.035  14.237
  254MPD2    C2 4112   0.038   3.126  14.221
  254MPD2    C3 4113   0.024   3.259  14.190
  254MPD2    C4 4114   4.695   3.309  14.202
  254MPD2    C5 4115   4.583   3.223  14.221
  254MPD2     H 4116   0.141   3.095  14.214
  254MPD2    H1 4117   4.662   3.411  14.185
  254MPD2    H2 4118   4.516   3.016  14.239
  254MPD2    H3 4119   4.483   3.265  14.219
  254MPD2     N 4120   0.123   3.344  14.139
  254MPD2    H5 4121   0.117   3.444  14.151
  254MPD2    N1 4122   4.769   2.902  14.257
  254MPD2    H7 4123   0.073   2.877  14.261
  255MPD2     C 4124   0.261   2.563  12.477
  255MPD2    C1 4125   0.204   2.468  12.564
  255MPD2    C2 4126   0.146   2.516  12.680
  255MPD2    C3 4127   0.144   2.655  12.706
  255MPD2    C4 4128   0.210   2.738  12.619
  255MPD2    C5 4129   0.266   2.704  12.508
  255MPD2     H 4130   0.101   2.439  12.740
  255MPD2    H1 4131   0.238   2.841  12.638
  255MPD2    H2 4132   0.315   2.532  12.389
  255MPD2    H3 4133   0.324   2.768  12.442
  255MPD2     N 4134   0.085   2.709  12.823
  255MPD2    H5 4135   0.113   2.805  12.838
  255MPD2    N1 4136   0.221   2.330  12.548
  255MPD2    H7 4137   0.179   2.270  12.618
  256MPD2     C 4138   4.192   2.716  13.357
  256MPD2    C1 4139   4.196   2.813  13.255
  256MPD2    C2 4140   4.106   2.920  13.256
  256MPD2    C3 4141   3.997   2.930  13.347
  256MPD2    C4 4142   3.997   2.835  13.452
  256MPD2    C5 4143   4.101   2.743  13.458
  256MPD2     H 4144   4.111   2.997  13.181
  256MPD2    H1 4145   3.924   2.841  13.532
  256MPD2    H2 4146   4.260   2.635  13.378
  256MPD2    H3 4147   4.099   2.678  13.545
  256MPD2     N 4148   3.898   3.030  13.339
  256MPD2    H5 4149   3.820   3.018  13.403
  256MPD2    N1 4150   4.298   2.821  13.155
  256MPD2    H7 4151   4.300   2.907  13.101
  257MPD2     C 4152   4.777   3.072  12.377
  257MPD2    C1 4153   4.652   3.045  12.433
  257MPD2    C2 4154   4.644   3.032  12.572
  257MPD2    C3 4155   4.757   3.037  12.655
  257MPD2    C4 4156   0.082   3.065  12.590
  257MPD2    C5 4157   0.087   3.076  12.455
  257MPD2     H 4158   4.549   3.012  12.621
  257MPD2    H1 4159   0.178   3.062  12.640
  257MPD2    H2 4160   4.793   3.108  12.277
  257MPD2    H3 4161   0.182   3.096  12.407
  257MPD2     N 4162   4.752   3.020  12.795
  257MPD2    H5 4163   0.053   3.019  12.831
  257MPD2    N1 4164   4.541   3.034  12.350
  257MPD2    H7 4165   4.562   3.023  12.251
  258MPD2     C 4166   1.396   4.667  10.275
  258MPD2    C1 4167   1.418   4.534  10.277
  258MPD2    C2 4168   1.382   4.458  10.159
  258MPD2    C3 4169   1.319   4.525  10.057
  258MPD2    C4 4170   1.291   4.658  10.058
  258MPD2    C5 4171   1.342   4.731  10.165
  258MPD2     H 4172   1.377   4.351  10.145
  258MPD2    H1 4173   1.237   4.718   9.986
  258MPD2    H2 4174   1.412   4.724  10.365
  258MPD2    H3 4175   1.335   0.045  10.173
  258MPD2     N 4176   1.278   4.442   9.952
  258MPD2    H5 4177   1.295   4.343   9.967
  258MPD2    N1 4178   1.471   4.475  10.389
  258MPD2    H7 4179   1.471   4.534  10.472
  259MPD2     C 4180   1.547   4.708   9.424
  259MPD2    C1 4181   1.472   4.700   9.310
  259MPD2    C2 4182   1.413   4.579   9.281
  259MPD2    C3 4183   1.409   4.476   9.372
  259MPD2    C4 4184   1.492   4.485   9.486
  259MPD2    C5 4185   1.557   4.604   9.512
  259MPD2     H 4186   1.366   4.573   9.183
  259MPD2    H1 4187   1.504   4.400   9.552
  259MPD2    H2 4188   1.599   0.001   9.463
  259MPD2    H3 4189   1.630   4.602   9.592
  259MPD2     N 4190   1.329   4.358   9.332
  259MPD2    H5 4191   1.302   4.346   9.235
  259MPD2    N1 4192   1.445   0.001   9.208
  259MPD2    H7 4193   1.386   4.765   9.131
  260MPD2     C 4194   1.029   4.016  10.089
  260MPD2    C1 4195   1.091   4.000   9.963
  260MPD2    C2 4196   1.019   3.967   9.846
  260MPD2    C3 4197   0.879   3.936   9.861
  260MPD2    C4 4198   0.821   3.934   9.981
  260MPD2    C5 4199   0.894   3.971  10.095
  260MPD2     H 4200   1.065   3.953   9.748
  260MPD2    H1 4201   0.716   3.907   9.988
  260MPD2    H2 4202   1.085   4.044  10.177
  260MPD2    H3 4203   0.854   3.959  10.195
  260MPD2     N 4204   0.813   3.895   9.740
  260MPD2    H5 4205   0.872   3.855   9.667
  260MPD2    N1 4206   1.234   4.019   9.957
  260MPD2    H7 4207   1.284   4.005  10.044
  261MPD2     C 4208   1.273   3.953   8.351
  261MPD2    C1 4209   1.226   4.066   8.282
  261MPD2    C2 4210   1.094   4.068   8.247
  261MPD2    C3 4211   0.997   3.980   8.289
  261MPD2    C4 4212   1.039   3.879   8.369
  261MPD2    C5 4213   1.177   3.858   8.392
  261MPD2     H 4214   1.075   4.158   8.190
  261MPD2    H1 4215   0.973   3.803   8.408
  261MPD2    H2 4216   1.378   3.945   8.377
  261MPD2    H3 4217   1.204   3.766   8.443
  261MPD2     N 4218   0.856   4.008   8.289
  261MPD2    H5 4219   0.796   3.952   8.348
  261MPD2    N1 4220   1.323   4.160   8.246
  261MPD2    H7 4221   1.413   4.159   8.294
  262MPD2     C 4222   0.982   3.731   7.561
  262MPD2    C1 4223   0.875   3.814   7.581
  262MPD2    C2 4224   0.795   3.830   7.470
  262MPD2    C3 4225   0.798   3.740   7.361
  262MPD2    C4 4226   0.913   3.659   7.345
  262MPD2    C5 4227   1.008   3.655   7.445
  262MPD2     H 4228   0.716   3.904   7.471
  262MPD2    H1 4229   0.943   3.617   7.249
  262MPD2    H2 4230   1.059   3.738   7.637
  262MPD2    H3 4231   1.103   3.606   7.431
  262MPD2     N 4232   0.703   3.767   7.257
  262MPD2    H5 4233   0.634   3.839   7.279
  262MPD2    N1 4234   0.848   3.911   7.678
  262MPD2    H7 4235   0.767   3.971   7.671
  263MPD2     C 4236   1.294   4.303   7.712
  263MPD2    C1 4237   1.242   4.410   7.637
  263MPD2    C2 4238   1.112   4.448   7.654
  263MPD2    C3 4239   1.027   4.387   7.745
  263MPD2    C4 4240   1.089   4.293   7.825
  263MPD2    C5 4241   1.215   4.252   7.804
  263MPD2     H 4242   1.072   4.525   7.589
  263MPD2    H1 4243   1.053   4.246   7.916
  263MPD2    H2 4244   1.399   4.275   7.711
  263MPD2    H3 4245   1.251   4.160   7.849
  263MPD2     N 4246   0.889   4.436   7.759
  263MPD2    H5 4247   0.871   4.511   7.692
  263MPD2    N1 4248   1.317   4.491   7.549
  263MPD2    H7 4249   1.266   4.562   7.497
  264MPD2     C 4250   1.078   2.860  12.896
  264MPD2    C1 4251   1.120   2.805  13.016
  264MPD2    C2 4252   1.215   2.871  13.089
  264MPD2    C3 4253   1.255   2.998  13.054
  264MPD2    C4 4254   1.210   3.056  12.937
  264MPD2    C5 4255   1.122   2.988  12.863
  264MPD2     H 4256   1.246   2.835  13.186
  264MPD2    H1 4257   1.243   3.155  12.908
  264MPD2    H2 4258   1.001   2.814  12.835
  264MPD2    H3 4259   1.081   3.034  12.774
  264MPD2     N 4260   1.349   3.057  13.144
  264MPD2    H5 4261   1.365   3.001  13.227
  264MPD2    N1 4262   1.060   2.692  13.080
  264MPD2    H7 4263   1.099   2.671  13.171
  265MPD2     C 4264   1.283   3.765  13.546
  265MPD2    C1 4265   1.260   3.686  13.434
  265MPD2    C2 4266   1.143   3.711  13.359
  265MPD2    C3 4267   1.064   3.820  13.381
  265MPD2    C4 4268   1.089   3.892  13.498
  265MPD2    C5 4269   1.194   3.864  13.575
  265MPD2     H 4270   1.108   3.648  13.278
  265MPD2    H1 4271   1.025   3.979  13.514
  265MPD2    H2 4272   1.369   3.757  13.612
  265MPD2    H3 4273   1.219   3.918  13.665
  265MPD2     N 4274   0.954   3.851  13.304
  265MPD2    H5 4275   0.885   3.914  13.343
  265MPD2    N1 4276   1.345   3.582  13.392
  265MPD2    H7 4277   1.322   3.537  13.303
  266MPD2     C 4278   2.497   0.502   9.268
  266MPD2    C1 4279   2.562   0.613   9.207
  266MPD2    C2 4280   2.697   0.638   9.239
  266MPD2    C3 4281   2.767   0.555   9.322
  266MPD2    C4 4282   2.704   0.449   9.391
  266MPD2    C5 4283   2.569   0.423   9.357
  266MPD2     H 4284   2.745   0.721   9.190
  266MPD2    H1 4285   2.761   0.377   9.448
  266MPD2    H2 4286   2.394   0.471   9.256
  266MPD2    H3 4287   2.525   0.335   9.404
  266MPD2     N 4288   2.905   0.589   9.341
  266MPD2    H5 4289   2.946   0.661   9.282
  266MPD2    N1 4290   2.502   0.708   9.127
  266MPD2    H7 4291   2.561   0.788   9.106
  267MPD2     C 4292   3.102   1.386   9.073
  267MPD2    C1 4293   3.127   1.271   9.002
  267MPD2    C2 4294   3.176   1.163   9.060
  267MPD2    C3 4295   3.181   1.155   9.197
  267MPD2    C4 4296   3.151   1.266   9.272
  267MPD2    C5 4297   3.116   1.382   9.210
  267MPD2     H 4298   3.177   1.071   9.002
  267MPD2    H1 4299   3.149   1.260   9.380
  267MPD2    H2 4300   3.069   1.474   9.020
  267MPD2    H3 4301   3.084   1.467   9.269
  267MPD2     N 4302   3.208   1.023   9.253
  267MPD2    H5 4303   3.256   0.958   9.191
  267MPD2    N1 4304   3.091   1.252   8.865
  267MPD2    H7 4305   3.099   1.155   8.835
  268MPD2     C 4306   3.750   0.597   9.351
  268MPD2    C1 4307   3.681   0.578   9.466
  268MPD2    C2 4308   3.756   0.568   9.586
  268MPD2    C3 4309   3.895   0.568   9.586
  268MPD2    C4 4310   3.967   0.577   9.470
  268MPD2    C5 4311   3.891   0.604   9.354
  268MPD2     H 4312   3.696   0.549   9.674
  268MPD2    H1 4313   4.070   0.549   9.454
  268MPD2    H2 4314   3.706   0.614   9.254
  268MPD2    H3 4315   3.939   0.610   9.257
  268MPD2     N 4316   3.952   0.551   9.715
  268MPD2    H5 4317   3.897   0.527   9.797
  268MPD2    N1 4318   3.540   0.577   9.465
  268MPD2    H7 4319   3.500   0.567   9.557
  269MPD2     C 4320   2.951   2.485  12.027
  269MPD2    C1 4321   2.950   2.523  12.165
  269MPD2    C2 4322   2.912   2.646  12.202
  269MPD2    C3 4323   2.860   2.735  12.108
  269MPD2    C4 4324   2.855   2.694  11.978
  269MPD2    C5 4325   2.903   2.572  11.935
  269MPD2     H 4326   2.924   2.688  12.301
  269MPD2    H1 4327   2.823   2.761  11.898
  269MPD2    H2 4328   2.971   2.384  11.993
  269MPD2    H3 4329   2.895   2.552  11.829
  269MPD2     N 4330   2.820   2.867  12.147
  269MPD2    H5 4331   2.848   2.893  12.240
  269MPD2    N1 4332   2.995   2.435  12.255
  269MPD2    H7 4333   3.031   2.349  12.215
  270MPD2     C 4334   3.431   2.714  13.046
  270MPD2    C1 4335   3.472   2.587  13.025
  270MPD2    C2 4336   3.395   2.492  12.962
  270MPD2    C3 4337   3.274   2.530  12.911
  270MPD2    C4 4338   3.227   2.655  12.921
  270MPD2    C5 4339   3.305   2.748  12.995
  270MPD2     H 4340   3.429   2.389  12.965
  270MPD2    H1 4341   3.137   2.686  12.868
  270MPD2    H2 4342   3.492   2.793  13.088
  270MPD2    H3 4343   3.268   2.848  13.012
  270MPD2     N 4344   3.185   2.450  12.835
  270MPD2    H5 4345   3.104   2.495  12.794
  270MPD2    N1 4346   3.609   2.550  13.026
  270MPD2    H7 4347   3.623   2.453  13.000
  271MPD2     C 4348   3.319   1.517  12.471
  271MPD2    C1 4349   3.311   1.613  12.370
  271MPD2    C2 4350   3.258   1.739  12.405
  271MPD2    C3 4351   3.197   1.761  12.528
  271MPD2    C4 4352   3.190   1.656  12.617
  271MPD2    C5 4353   3.257   1.542  12.591
  271MPD2     H 4354   3.267   1.814  12.327
  271MPD2    H1 4355   3.135   1.684  12.706
  271MPD2    H2 4356   3.367   1.423  12.446
  271MPD2    H3 4357   3.256   1.473  12.674
  271MPD2     N 4358   3.137   1.884  12.562
  271MPD2    H5 4359   3.095   1.887  12.654
  271MPD2    N1 4360   3.351   1.585  12.234
  271MPD2    H7 4361   3.335   1.660  12.168
  272MPD2     C 4362   4.281   1.875  12.955
  272MPD2    C1 4363   4.156   1.896  13.025
  272MPD2    C2 4364   4.084   2.008  12.984
  272MPD2    C3 4365   4.123   2.097  12.880
  272MPD2    C4 4366   4.239   2.068  12.811
  272MPD2    C5 4367   4.321   1.965  12.858
  272MPD2     H 4368   3.982   2.017  13.020
  272MPD2    H1 4369   4.280   2.136  12.736
  272MPD2    H2 4370   4.345   1.791  12.980
  272MPD2    H3 4371   4.416   1.955  12.808
  272MPD2     N 4372   4.048   2.203  12.844
  272MPD2    H5 4373   4.086   2.262  12.771
  272MPD2    N1 4374   4.111   1.821  13.138
  272MPD2    H7 4375   4.047   1.868  13.201
  273MPD2     C 4376   4.304   2.149  13.253
  273MPD2    C1 4377   4.192   2.219  13.282
  273MPD2    C2 4378   4.105   2.175  13.372
  273MPD2    C3 4379   4.130   2.070  13.447
  273MPD2    C4 4380   4.258   2.018  13.435
  273MPD2    C5 4381   4.349   2.047  13.335
  273MPD2     H 4382   4.011   2.224  13.392
  273MPD2    H1 4383   4.291   1.933  13.493
  273MPD2    H2 4384   4.370   2.179  13.173
  273MPD2    H3 4385   4.443   2.003  13.307
  273MPD2     N 4386   4.046   2.024  13.545
  273MPD2    H5 4387   3.963   2.081  13.556
  273MPD2    N1 4388   4.175   2.333  13.206
  273MPD2    H7 4389   4.244   2.337  13.131
  274MPD2     C 4390   3.345   3.506  11.251
  274MPD2    C1 4391   3.245   3.462  11.168
  274MPD2    C2 4392   3.186   3.553  11.078
  274MPD2    C3 4393   3.216   3.686  11.067
  274MPD2    C4 4394   3.319   3.723  11.142
  274MPD2    C5 4395   3.385   3.637  11.229
  274MPD2     H 4396   3.103   3.520  11.016
  274MPD2    H1 4397   3.337   3.830  11.142
  274MPD2    H2 4398   3.401   3.437  11.313
  274MPD2    H3 4399   3.472   3.672  11.284
  274MPD2     N 4400   3.149   3.787  11.001
  274MPD2    H5 4401   3.193   3.878  11.000
  274MPD2    N1 4402   3.187   3.331  11.174
  274MPD2    H7 4403   3.118   3.306  11.103
  275MPD2     C 4404   2.704   3.735  10.251
  275MPD2    C1 4405   2.668   3.720  10.385
  275MPD2    C2 4406   2.594   3.604  10.413
  275MPD2    C3 4407   2.589   3.500  10.317
  275MPD2    C4 4408   2.646   3.509  10.187
  275MPD2    C5 4409   2.692   3.635  10.158
  275MPD2     H 4410   2.550   3.585  10.510
  275MPD2    H1 4411   2.641   3.432  10.110
  275MPD2    H2 4412   2.763   3.821  10.221
  275MPD2    H3 4413   2.726   3.653  10.057
  275MPD2     N 4414   2.537   3.383  10.375
  275MPD2    H5 4415   2.478   3.391  10.457
  275MPD2    N1 4416   2.709   3.810  10.484
  275MPD2    H7 4417   2.768   3.884  10.448
  276MPD2     C 4418   3.333   3.946  10.109
  276MPD2    C1 4419   3.392   3.985  10.224
  276MPD2    C2 4420   3.308   4.015  10.338
  276MPD2    C3 4421   3.169   3.989  10.327
  276MPD2    C4 4422   3.113   3.951  10.211
  276MPD2    C5 4423   3.193   3.938  10.103
  276MPD2     H 4424   3.346   4.046  10.434
  276MPD2    H1 4425   3.006   3.940  10.212
  276MPD2    H2 4426   3.388   3.917  10.021
  276MPD2    H3 4427   3.153   3.904  10.008
  276MPD2     N 4428   3.085   3.994  10.439
  276MPD2    H5 4429   2.984   3.992  10.426
  276MPD2    N1 4430   3.533   4.005  10.229
  276MPD2    H7 4431   3.582   3.961  10.152
  277MPD2     C 4432   3.406   4.595   9.868
  277MPD2    C1 4433   3.377   4.553  10.000
  277MPD2    C2 4434   3.399   4.416  10.036
  277MPD2    C3 4435   3.462   4.332   9.944
  277MPD2    C4 4436   3.494   4.379   9.815
  277MPD2    C5 4437   3.465   4.508   9.779
  277MPD2     H 4438   3.369   4.380  10.134
  277MPD2    H1 4439   3.549   4.316   9.746
  277MPD2    H2 4440   3.400   4.697   9.832
  277MPD2    H3 4441   3.497   4.549   9.684
  277MPD2     N 4442   3.485   4.192   9.986
  277MPD2    H5 4443   3.429   4.153  10.061
  277MPD2    N1 4444   3.327   4.641  10.095
  277MPD2    H7 4445   3.303   4.737  10.073
  278MPD2     C 4446   4.096   4.460  10.614
  278MPD2    C1 4447   4.103   4.587  10.572
  278MPD2    C2 4448   3.996   4.645  10.506
  278MPD2    C3 4449   3.873   4.583  10.505
  278MPD2    C4 4450   3.860   4.460  10.565
  278MPD2    C5 4451   3.975   4.390  10.609
  278MPD2     H 4452   4.022   4.738  10.458
  278MPD2    H1 4453   3.770   4.400  10.567
  278MPD2    H2 4454   4.184   4.415  10.657
  278MPD2    H3 4455   3.976   4.287  10.645
  278MPD2     N 4456   3.756   4.641  10.446
  278MPD2    H5 4457   3.676   4.579  10.452
  278MPD2    N1 4458   4.220   4.666  10.576
  278MPD2    H7 4459   4.229   4.757  10.532
  279MPD2     C 4460   3.385   0.557  10.066
  279MPD2    C1 4461   3.295   0.451  10.086
  279MPD2    C2 4462   3.159   0.476  10.086
  279MPD2    C3 4463   3.110   0.602  10.098
  279MPD2    C4 4464   3.198   0.707  10.072
  279MPD2    C5 4465   3.334   0.682  10.059
  279MPD2     H 4466   3.100   0.388  10.108
  279MPD2    H1 4467   3.160   0.809  10.065
  279MPD2    H2 4468   3.492   0.547  10.076
  279MPD2    H3 4469   3.402   0.765  10.041
  279MPD2     N 4470   2.979   0.641  10.127
  279MPD2    H5 4471   2.961   0.740  10.141
  279MPD2    N1 4472   3.341   0.326  10.139
  279MPD2    H7 4473   3.269   0.267  10.180
  280MPD2     C 4474   0.676   1.995   7.993
  280MPD2    C1 4475   0.749   1.916   8.082
  280MPD2    C2 4476   0.886   1.936   8.093
  280MPD2    C3 4477   0.951   2.028   8.007
  280MPD2    C4 4478   0.879   2.091   7.903
  280MPD2    C5 4479   0.740   2.082   7.912
  280MPD2     H 4480   0.949   1.868   8.148
  280MPD2    H1 4481   0.929   2.150   7.828
  280MPD2    H2 4482   0.568   2.003   8.000
  280MPD2    H3 4483   0.679   2.127   7.835
  280MPD2     N 4484   1.093   2.036   8.010
  280MPD2    H5 4485   1.142   2.094   7.944
  280MPD2    N1 4486   0.684   1.813   8.161
  280MPD2    H7 4487   0.734   1.778   8.242
  281MPD2     C 4488   0.303   2.364   8.126
  281MPD2    C1 4489   0.365   2.373   8.004
  281MPD2    C2 4490   0.371   2.255   7.930
  281MPD2    C3 4491   0.304   2.141   7.973
  281MPD2    C4 4492   0.218   2.146   8.082
  281MPD2    C5 4493   0.233   2.255   8.162
  281MPD2     H 4494   0.433   2.250   7.842
  281MPD2    H1 4495   0.143   2.070   8.100
  281MPD2    H2 4496   0.305   2.449   8.193
  281MPD2    H3 4497   0.171   2.252   8.251
  281MPD2     N 4498   0.316   2.011   7.918
  281MPD2    H5 4499   0.270   1.929   7.957
  281MPD2    N1 4500   0.424   2.495   7.965
  281MPD2    H7 4501   0.401   2.571   8.028
  282MPD2     C 4502   3.418   1.103  13.664
  282MPD2    C1 4503   3.366   1.062  13.539
  282MPD2    C2 4504   3.360   1.157  13.437
  282MPD2    C3 4505   3.407   1.286  13.457
  282MPD2    C4 4506   3.471   1.319  13.580
  282MPD2    C5 4507   3.469   1.227  13.680
  282MPD2     H 4508   3.287   1.140  13.360
  282MPD2    H1 4509   3.507   1.418  13.608
  282MPD2    H2 4510   3.427   1.032  13.745
  282MPD2    H3 4511   3.514   1.262  13.773
  282MPD2     N 4512   3.371   1.373  13.353
  282MPD2    H5 4513   3.325   1.333  13.272
  282MPD2    N1 4514   3.297   0.938  13.539
  282MPD2    H7 4515   3.282   0.900  13.632
  283MPD2     C 4516   2.749   1.162  13.640
  283MPD2    C1 4517   2.768   1.135  13.777
  283MPD2    C2 4518   2.813   1.013  13.823
  283MPD2    C3 4519   2.838   0.914  13.731
  283MPD2    C4 4520   2.809   0.938  13.597
  283MPD2    C5 4521   2.774   1.063  13.545
  283MPD2     H 4522   2.816   1.005  13.931
  283MPD2    H1 4523   2.807   0.858  13.524
  283MPD2    H2 4524   2.703   1.253  13.603
  283MPD2    H3 4525   2.767   1.067  13.437
  283MPD2     N 4526   2.872   0.786  13.777
  283MPD2    H5 4527   2.859   0.770  13.877
  283MPD2    N1 4528   2.735   1.235  13.875
  283MPD2    H7 4529   2.705   1.193  13.962
  284MPD2     C 4530   0.089   1.171   6.702
  284MPD2    C1 4531   0.056   1.046   6.759
  284MPD2    C2 4532   0.148   0.944   6.752
  284MPD2    C3 4533   0.262   0.959   6.686
  284MPD2    C4 4534   0.295   1.085   6.637
  284MPD2    C5 4535   0.215   1.191   6.652
  284MPD2     H 4536   0.120   0.840   6.766
  284MPD2    H1 4537   0.384   1.109   6.580
  284MPD2    H2 4538   0.013   1.248   6.708
  284MPD2    H3 4539   0.240   1.292   6.620
  284MPD2     N 4540   0.341   0.837   6.670
  284MPD2    H5 4541   0.300   0.748   6.699
  284MPD2    N1 4542   4.732   1.023   6.835
  284MPD2    H7 4543   4.719   0.933   6.881
  285MPD2     C 4544   0.172   4.709   6.580
  285MPD2    C1 4545   0.305   4.706   6.634
  285MPD2    C2 4546   0.377   0.027   6.628
  285MPD2    C3 4547   0.332   0.127   6.545
  285MPD2    C4 4548   0.208   0.123   6.480
  285MPD2    C5 4549   0.130   0.018   6.508
  285MPD2     H 4550   0.467   0.046   6.685
  285MPD2    H1 4551   0.180   0.186   6.397
  285MPD2    H2 4552   0.102   4.626   6.582
  285MPD2    H3 4553   0.033   0.004   6.461
  285MPD2     N 4554   0.415   0.240   6.540
  285MPD2    H5 4555   0.511   0.228   6.571
  285MPD2    N1 4556   0.340   4.591   6.715
  285MPD2    H7 4557   0.285   4.506   6.721
  286MPD2     C 4558   4.733   3.250   9.603
  286MPD2    C1 4559   4.752   3.364   9.529
  286MPD2    C2 4560   0.071   3.436   9.553
  286MPD2    C3 4561   0.163   3.389   9.649
  286MPD2    C4 4562   0.140   3.280   9.738
  286MPD2    C5 4563   0.030   3.208   9.697
  286MPD2     H 4564   0.110   3.528   9.511
  286MPD2    H1 4565   0.212   3.238   9.807
  286MPD2    H2 4566   4.647   3.185   9.591
  286MPD2    H3 4567   0.012   3.113   9.745
  286MPD2     N 4568   0.287   3.446   9.674
  286MPD2    H5 4569   0.343   3.388   9.735
  286MPD2    N1 4570   4.665   3.423   9.429
  286MPD2    H7 4571   4.703   3.511   9.397
  287MPD2     C 4572   4.246   3.951   9.684
  287MPD2    C1 4573   4.320   3.969   9.571
  287MPD2    C2 4574   4.299   3.894   9.462
  287MPD2    C3 4575   4.213   3.787   9.471
  287MPD2    C4 4576   4.154   3.752   9.588
  287MPD2    C5 4577   4.158   3.844   9.691
  287MPD2     H 4578   4.343   3.921   9.367
  287MPD2    H1 4579   4.081   3.671   9.588
  287MPD2    H2 4580   4.250   4.026   9.763
  287MPD2    H3 4581   4.097   3.827   9.779
  287MPD2     N 4582   4.208   3.703   9.355
  287MPD2    H5 4583   4.264   3.735   9.277
  287MPD2    N1 4584   4.420   4.061   9.552
  287MPD2    H7 4585   4.456   4.061   9.458
  288MPD2     C 4586   4.440   4.081   8.690
  288MPD2    C1 4587   4.520   4.083   8.801
  288MPD2    C2 4588   4.515   3.975   8.888
  288MPD2    C3 4589   4.420   3.879   8.869
  288MPD2    C4 4590   4.327   3.889   8.763
  288MPD2    C5 4591   4.340   3.993   8.672
  288MPD2     H 4592   4.588   3.962   8.967
  288MPD2    H1 4593   4.240   3.827   8.742
  288MPD2    H2 4594   4.437   4.159   8.615
  288MPD2    H3 4595   4.262   4.011   8.599
  288MPD2     N 4596   4.403   3.770   8.961
  288MPD2    H5 4597   4.327   3.706   8.937
  288MPD2    N1 4598   4.611   4.183   8.835
  288MPD2    H7 4599   4.664   4.162   8.918
  289MPD2     C 4600   4.204   0.585   8.054
  289MPD2    C1 4601   4.341   0.605   8.041
  289MPD2    C2 4602   4.407   0.515   7.954
  289MPD2    C3 4603   4.343   0.406   7.905
  289MPD2    C4 4604   4.207   0.389   7.927
  289MPD2    C5 4605   4.135   0.479   7.996
  289MPD2     H 4606   4.513   0.535   7.946
  289MPD2    H1 4607   4.166   0.295   7.892
  289MPD2    H2 4608   4.141   0.647   8.117
  289MPD2    H3 4609   4.032   0.452   8.017
  289MPD2     N 4610   4.414   0.298   7.863
  289MPD2    H5 4611   4.368   0.209   7.877
  289MPD2    N1 4612   4.406   0.720   8.102
  289MPD2    H7 4613   4.506   0.719   8.088
  290MPD2     C 4614   4.101   0.083   8.129
  290MPD2    C1 4615   4.206   0.000   8.126
  290MPD2    C2 4616   4.191   4.664   8.078
  290MPD2    C3 4617   4.069   4.621   8.019
  290MPD2    C4 4618   3.968   4.710   8.020
  290MPD2    C5 4619   3.981   0.038   8.075
  290MPD2     H 4620   4.279   4.601   8.068
  290MPD2    H1 4621   3.874   4.685   7.973
  290MPD2    H2 4622   4.110   0.180   8.176
  290MPD2    H3 4623   3.892   0.100   8.075
  290MPD2     N 4624   4.071   4.489   7.960
  290MPD2    H5 4625   4.143   4.425   7.992
  290MPD2    N1 4626   4.332   0.058   8.158
  290MPD2    H7 4627   4.340   0.159   8.150
  291MPD2     C 4628   0.328   0.365   8.172
  291MPD2    C1 4629   0.322   0.258   8.082
  291MPD2    C2 4630   0.422   0.238   7.990
  291MPD2    C3 4631   0.530   0.321   7.982
  291MPD2    C4 4632   0.542   0.417   8.082
  291MPD2    C5 4633   0.438   0.446   8.173
  291MPD2     H 4634   0.398   0.157   7.922
  291MPD2    H1 4635   0.624   0.487   8.086
  291MPD2    H2 4636   0.251   0.394   8.243
  291MPD2    H3 4637   0.436   0.520   8.252
  291MPD2     N 4638   0.636   0.289   7.892
  291MPD2    H5 4639   0.640   0.196   7.853
  291MPD2    N1 4640   0.203   0.180   8.066
  291MPD2    H7 4641   0.196   0.107   7.995
  292MPD2     C 4642   4.538   1.562  13.059
  292MPD2    C1 4643   4.501   1.484  12.946
  292MPD2    C2 4644   4.593   1.412  12.883
  292MPD2    C3 4645   4.725   1.405  12.928
  292MPD2    C4 4646   4.761   1.490  13.034
  292MPD2    C5 4647   4.667   1.572  13.095
  292MPD2     H 4648   4.566   1.350  12.798
  292MPD2    H1 4649   0.068   1.496  13.072
  292MPD2    H2 4650   4.472   1.627  13.116
  292MPD2    H3 4651   4.686   1.639  13.178
  292MPD2     N 4652   0.015   1.310  12.863
  292MPD2    H5 4653   4.772   1.237  12.804
  292MPD2    N1 4654   4.363   1.492  12.910
  292MPD2    H7 4655   4.312   1.549  12.977
  293MPD2     C 4656   3.724   0.664  12.601
  293MPD2    C1 4657   3.693   0.703  12.729
  293MPD2    C2 4658   3.731   0.830  12.765
  293MPD2    C3 4659   3.802   0.917  12.683
  293MPD2    C4 4660   3.825   0.875  12.554
  293MPD2    C5 4661   3.788   0.748  12.503
  293MPD2     H 4662   3.706   0.869  12.863
  293MPD2    H1 4663   3.887   0.941  12.494
  293MPD2    H2 4664   3.694   0.565  12.571
  293MPD2    H3 4665   3.813   0.716  12.403
  293MPD2     N 4666   3.850   1.038  12.744
  293MPD2    H5 4667   3.813   1.065  12.834
  293MPD2    N1 4668   3.618   0.629  12.819
  293MPD2    H7 4669   3.595   0.671  12.909
  294MPD2     C 4670   4.167   3.647  12.447
  294MPD2    C1 4671   4.083   3.628  12.547
  294MPD2    C2 4672   4.064   3.505  12.614
  294MPD2    C3 4673   4.117   3.393  12.554
  294MPD2    C4 4674   4.196   3.420  12.440
  294MPD2    C5 4675   4.212   3.540  12.380
  294MPD2     H 4676   3.996   3.497  12.699
  294MPD2    H1 4677   4.252   3.337  12.398
  294MPD2    H2 4678   4.176   3.745  12.401
  294MPD2    H3 4679   4.270   3.557  12.290
  294MPD2     N 4680   4.118   3.262  12.616
  294MPD2    H5 4681   4.181   3.196  12.572
  294MPD2    N1 4682   3.998   3.728  12.602
  294MPD2    H7 4683   3.967   3.707  12.696
  295MPD2     C 4684   3.482   3.509  12.114
  295MPD2    C1 4685   3.511   3.630  12.063
  295MPD2    C2 4686   3.408   3.688  11.983
  295MPD2    C3 4687   3.278   3.629  11.977
  295MPD2    C4 4688   3.258   3.507  12.031
  295MPD2    C5 4689   3.363   3.447  12.094
  295MPD2     H 4690   3.428   3.780  11.929
  295MPD2    H1 4691   3.169   3.456  11.995
  295MPD2    H2 4692   3.549   3.456  12.181
  295MPD2    H3 4693   3.355   3.344  12.129
  295MPD2     N 4694   3.185   3.697  11.891
  295MPD2    H5 4695   3.210   3.782  11.843
  295MPD2    N1 4696   3.629   3.706  12.085
  295MPD2    H7 4697   3.622   3.805  12.065
  296MPD2     C 4698   2.990   2.998  14.611
  296MPD2    C1 4699   2.997   3.140  14.598
  296MPD2    C2 4700   3.036   3.191  14.478
  296MPD2    C3 4701   3.064   3.124  14.363
  296MPD2    C4 4702   3.032   2.983  14.370
  296MPD2    C5 4703   2.998   2.927  14.493
  296MPD2     H 4704   3.055   3.298  14.471
  296MPD2    H1 4705   3.037   2.916  14.285
  296MPD2    H2 4706   2.982   2.950  14.709
  296MPD2    H3 4707   2.979   2.822  14.507
  296MPD2     N 4708   3.112   3.188  14.246
  296MPD2    H5 4709   3.120   3.289  14.252
  296MPD2    N1 4710   2.983   3.210  14.716
  296MPD2    H7 4711   2.971   3.157  14.801
  297MPD2     C 4712   3.877   3.230  14.806
  297MPD2    C1 4713   3.769   3.225  14.724
  297MPD2    C2 4714   3.641   3.267  14.769
  297MPD2    C3 4715   3.624   3.323  14.894
  297MPD2    C4 4716   3.732   3.326  14.978
  297MPD2    C5 4717   3.858   3.289  14.927
  297MPD2     H 4718   3.557   3.235  14.709
  297MPD2    H1 4719   3.741   3.373  15.076
  297MPD2    H2 4720   3.978   3.210  14.772
  297MPD2    H3 4721   3.937   3.303  15.000
  297MPD2     N 4722   3.501   3.369  14.939
  297MPD2    H5 4723   3.491   3.413  15.029
  297MPD2    N1 4724   3.766   3.156  14.601
  297MPD2    H7 4725   3.683   3.154  14.544
  298MPD2     C 4726   2.982   2.983  15.357
  298MPD2    C1 4727   2.988   2.969  15.217
  298MPD2    C2 4728   2.932   2.852  15.172
  298MPD2    C3 4729   2.899   2.743  15.252
  298MPD2    C4 4730   2.926   2.750  15.386
  298MPD2    C5 4731   2.953   2.875  15.438
  298MPD2     H 4732   2.912   2.843  15.066
  298MPD2    H1 4733   2.916   2.674  15.463
  298MPD2    H2 4734   3.001   3.081  15.400
  298MPD2    H3 4735   2.969   2.887  15.545
  298MPD2     N 4736   2.842   2.628  15.188
  298MPD2    H5 4737   2.844   2.618  15.087
  298MPD2    N1 4738   3.025   3.073  15.125
  298MPD2    H7 4739   2.997   3.061  15.028
  299MPD2     C 4740   4.221   0.008   7.208
  299MPD2    C1 4741   4.137   0.090   7.273
  299MPD2    C2 4742   4.191   0.173   7.367
  299MPD2    C3 4743   4.326   0.177   7.400
  299MPD2    C4 4744   4.405   0.086   7.333
  299MPD2    C5 4745   4.350   0.003   7.245
  299MPD2     H 4746   4.116   0.239   7.411
  299MPD2    H1 4747   4.510   0.078   7.356
  299MPD2    H2 4748   4.193   4.720   7.143
  299MPD2    H3 4749   4.426   4.738   7.194
  299MPD2     N 4750   4.391   0.276   7.481
  299MPD2    H5 4751   4.491   0.274   7.496
  299MPD2    N1 4752   3.996   0.088   7.255
  299MPD2    H7 4753   3.943   0.147   7.319
  300MPD2     C 4754   0.227   0.833   7.106
  300MPD2    C1 4755   0.215   0.705   7.163
  300MPD2    C2 4756   0.126   0.683   7.268
  300MPD2    C3 4757   0.036   0.781   7.306
  300MPD2    C4 4758   0.036   0.908   7.247
  300MPD2    C5 4759   0.129   0.924   7.138
  300MPD2     H 4760   0.105   0.579   7.291
  300MPD2    H1 4761   4.761   0.986   7.277
  300MPD2    H2 4762   0.300   0.857   7.029
  300MPD2    H3 4763   0.133   1.018   7.085
  300MPD2     N 4764   4.731   0.751   7.401
  300MPD2    H5 4765   4.663   0.824   7.416
  300MPD2    N1 4766   0.292   0.591   7.119
  300MPD2    H7 4767   0.261   0.501   7.156
  301MPD2     C 4768   2.503   3.505  13.228
  301MPD2    C1 4769   2.422   3.427  13.147
  301MPD2    C2 4770   2.486   3.340  13.056
  301MPD2    C3 4771   2.623   3.348  13.032
  301MPD2    C4 4772   2.701   3.424  13.115
  301MPD2    C5 4773   2.638   3.500  13.211
  301MPD2     H 4774   2.427   3.279  12.988
  301MPD2    H1 4775   2.808   3.410  13.124
  301MPD2    H2 4776   2.459   3.575  13.299
  301MPD2    H3 4777   2.700   3.557  13.279
  301MPD2     N 4778   2.679   3.258  12.937
  301MPD2    H5 4779   2.630   3.180  12.893
  301MPD2    N1 4780   2.284   3.427  13.157
  301MPD2    H7 4781   2.240   3.361  13.094
  302MPD2     C 4782   1.572   4.102  13.445
  302MPD2    C1 4783   1.687   4.129  13.369
  302MPD2    C2 4784   1.747   4.023  13.296
  302MPD2    C3 4785   1.702   3.894  13.294
  302MPD2    C4 4786   1.587   3.870  13.372
  302MPD2    C5 4787   1.529   3.970  13.446
  302MPD2     H 4788   1.842   4.040  13.247
  302MPD2    H1 4789   1.544   3.770  13.379
  302MPD2    H2 4790   1.507   4.173  13.495
  302MPD2    H3 4791   1.440   3.961  13.506
  302MPD2     N 4792   1.780   3.793  13.231
  302MPD2    H5 4793   1.861   3.822  13.177
  302MPD2    N1 4794   1.745   4.259  13.391
  302MPD2    H7 4795   1.674   4.326  13.418
  303MPD2     C 4796   1.704   2.772  13.264
  303MPD2    C1 4797   1.670   2.838  13.150
  303MPD2    C2 4798   1.714   2.965  13.130
  303MPD2    C3 4799   1.797   3.030  13.213
  303MPD2    C4 4800   1.842   2.955  13.321
  303MPD2    C5 4801   1.792   2.833  13.351
  303MPD2     H 4802   1.668   3.032  13.058
  303MPD2    H1 4803   1.914   3.001  13.388
  303MPD2    H2 4804   1.669   2.673  13.292
  303MPD2    H3 4805   1.816   2.780  13.443
  303MPD2     N 4806   1.847   3.157  13.192
  303MPD2    H5 4807   1.901   3.195  13.270
  303MPD2    N1 4808   1.583   2.768  13.066
  303MPD2    H7 4809   1.553   2.674  13.091
  304MPD2     C 4810   3.929   4.451   7.257
  304MPD2    C1 4811   3.808   4.448   7.191
  304MPD2    C2 4812   3.701   4.514   7.250
  304MPD2    C3 4813   3.716   4.574   7.377
  304MPD2    C4 4814   3.832   4.565   7.444
  304MPD2    C5 4815   3.940   4.504   7.386
  304MPD2     H 4816   3.609   4.521   7.193
  304MPD2    H1 4817   3.837   4.601   7.547
  304MPD2    H2 4818   4.015   4.407   7.209
  304MPD2    H3 4819   4.037   4.487   7.432
  304MPD2     N 4820   3.606   4.634   7.442
  304MPD2    H5 4821   3.622   4.667   7.536
  304MPD2    N1 4822   3.804   4.384   7.063
  304MPD2    H7 4823   3.893   4.368   7.017
  305MPD2     C 4824   3.446   3.606   7.432
  305MPD2    C1 4825   3.326   3.678   7.421
  305MPD2    C2 4826   3.326   3.807   7.370
  305MPD2    C3 4827   3.449   3.858   7.322
  305MPD2    C4 4828   3.559   3.777   7.322
  305MPD2    C5 4829   3.562   3.657   7.383
  305MPD2     H 4830   3.232   3.860   7.381
  305MPD2    H1 4831   3.650   3.816   7.277
  305MPD2    H2 4832   3.456   3.512   7.484
  305MPD2    H3 4833   3.657   3.606   7.394
  305MPD2     N 4834   3.466   3.980   7.258
  305MPD2    H5 4835   3.553   3.982   7.206
  305MPD2    N1 4836   3.204   3.623   7.472
  305MPD2    H7 4837   3.126   3.689   7.472
  306MPD2     C 4838   2.869   4.432   7.001
  306MPD2    C1 4839   2.995   4.483   6.973
  306MPD2    C2 4840   3.000   4.614   6.935
  306MPD2    C3 4841   2.890   4.696   6.954
  306MPD2    C4 4842   2.764   4.650   6.983
  306MPD2    C5 4843   2.759   4.516   7.012
  306MPD2     H 4844   3.094   4.661   6.911
  306MPD2    H1 4845   2.680   4.719   6.988
  306MPD2    H2 4846   2.853   4.328   7.024
  306MPD2    H3 4847   2.658   4.476   7.020
  306MPD2     N 4848   2.919   0.043   6.951
  306MPD2    H5 4849   3.018   0.063   6.941
  306MPD2    N1 4850   3.113   4.399   6.990
  306MPD2    H7 4851   3.106   4.305   7.029
  307MPD2     C 4852   2.618   0.005  10.253
  307MPD2    C1 4853   2.617   0.089  10.141
  307MPD2    C2 4854   2.541   0.205  10.147
  307MPD2    C3 4855   2.503   0.260  10.274
  307MPD2    C4 4856   2.519   0.187  10.385
  307MPD2    C5 4857   2.570   0.059  10.368
  307MPD2     H 4858   2.533   0.257  10.052
  307MPD2    H1 4859   2.484   0.223  10.481
  307MPD2    H2 4860   2.652   4.696  10.250
  307MPD2    H3 4861   2.562   0.001  10.459
  307MPD2     N 4862   2.471   0.396  10.274
  307MPD2    H5 4863   2.459   0.450  10.189
  307MPD2    N1 4864   2.687   0.060  10.023
  307MPD2    H7 4865   2.671   0.132   9.952
  308MPD2     C 4866   1.487   0.143   8.119
  308MPD2    C1 4867   1.482   0.097   8.253
  308MPD2    C2 4868   1.596   0.051   8.323
  308MPD2    C3 4869   1.718   0.077   8.271
  308MPD2    C4 4870   1.717   0.127   8.142
  308MPD2    C5 4871   1.609   0.151   8.071
  308MPD2     H 4872   1.580   4.792   8.416
  308MPD2    H1 4873   1.816   0.144   8.101
  308MPD2    H2 4874   1.400   0.162   8.057
  308MPD2    H3 4875   1.624   0.194   7.972
  308MPD2     N 4876   1.844   0.051   8.329
  308MPD2    H5 4877   1.924   0.065   8.268
  308MPD2    N1 4878   1.365   0.075   8.315
  308MPD2    H7 4879   1.347   0.022   8.399
  309MPD2     C 4880   1.454   0.573   8.626
  309MPD2    C1 4881   1.472   0.466   8.542
  309MPD2    C2 4882   1.396   0.453   8.421
  309MPD2    C3 4883   1.299   0.548   8.398
  309MPD2    C4 4884   1.283   0.662   8.487
  309MPD2    C5 4885   1.358   0.670   8.597
  309MPD2     H 4886   1.411   0.359   8.369
  309MPD2    H1 4887   1.211   0.742   8.483
  309MPD2    H2 4888   1.514   0.578   8.717
  309MPD2    H3 4889   1.359   0.754   8.667
  309MPD2     N 4890   1.221   0.536   8.286
  309MPD2    H5 4891   1.236   0.453   8.230
  309MPD2    N1 4892   1.557   0.363   8.577
  309MPD2    H7 4893   1.570   0.291   8.506
  310MPD2     C 4894   1.639   4.329   8.869
  310MPD2    C1 4895   1.672   4.444   8.929
  310MPD2    C2 4896   1.718   4.447   9.058
  310MPD2    C3 4897   1.705   4.334   9.138
  310MPD2    C4 4898   1.645   4.219   9.085
  310MPD2    C5 4899   1.623   4.214   8.948
  310MPD2     H 4900   1.758   4.536   9.106
  310MPD2    H1 4901   1.642   4.128   9.144
  310MPD2    H2 4902   1.620   4.320   8.763
  310MPD2    H3 4903   1.598   4.124   8.893
  310MPD2     N 4904   1.752   4.345   9.275
  310MPD2    H5 4905   1.815   4.422   9.291
  310MPD2    N1 4906   1.666   4.560   8.843
  310MPD2    H7 4907   1.610   4.546   8.760
  311MPD2     C 4908   0.540   2.783   7.447
  311MPD2    C1 4909   0.613   2.773   7.334
  311MPD2    C2 4910   0.635   2.886   7.267
  311MPD2    C3 4911   0.604   3.012   7.312
  311MPD2    C4 4912   0.539   3.020   7.431
  311MPD2    C5 4913   0.498   2.904   7.498
  311MPD2     H 4914   0.698   2.885   7.178
  311MPD2    H1 4915   0.504   3.117   7.463
  311MPD2    H2 4916   0.505   2.698   7.504
  311MPD2    H3 4917   0.451   2.912   7.596
  311MPD2     N 4918   0.650   3.120   7.237
  311MPD2    H5 4919   0.667   3.098   7.140
  311MPD2    N1 4920   0.634   2.654   7.269
  311MPD2    H7 4921   0.680   2.655   7.179
  312MPD2     C 4922   1.478   2.379   7.318
  312MPD2    C1 4923   1.425   2.378   7.191
  312MPD2    C2 4924   1.287   2.366   7.175
  312MPD2    C3 4925   1.201   2.353   7.285
  312MPD2    C4 4926   1.261   2.360   7.410
  312MPD2    C5 4927   1.393   2.377   7.425
  312MPD2     H 4928   1.254   2.364   7.072
  312MPD2    H1 4929   1.200   2.364   7.500
  312MPD2    H2 4930   1.584   2.392   7.333
  312MPD2    H3 4931   1.442   2.386   7.521
  312MPD2     N 4932   1.061   2.343   7.269
  312MPD2    H5 4933   1.007   2.370   7.351
  312MPD2    N1 4934   1.500   2.390   7.072
  312MPD2    H7 4935   1.452   2.376   6.984
  313MPD2     C 4936   3.559   0.493  15.166
  313MPD2    C1 4937   3.494   0.400  15.091
  313MPD2    C2 4938   3.534   0.269  15.081
  313MPD2    C3 4939   3.641   0.229  15.154
  313MPD2    C4 4940   3.697   0.322  15.237
  313MPD2    C5 4941   3.669   0.454  15.234
  313MPD2     H 4942   3.474   0.206  15.016
  313MPD2    H1 4943   3.786   0.298  15.294
  313MPD2    H2 4944   3.542   0.600  15.162
  313MPD2    H3 4945   3.730   0.526  15.287
  313MPD2     N 4946   3.665   0.088  15.161
  313MPD2    H5 4947   3.600   0.030  15.108
  313MPD2    N1 4948   3.370   0.433  15.028
  313MPD2    H7 4949   3.341   0.369  14.955
  314MPD2     C 4950   2.961   4.498  15.045
  314MPD2    C1 4951   3.059   4.477  14.954
  314MPD2    C2 4952   3.187   4.477  15.000
  314MPD2    C3 4953   3.219   4.503  15.135
  314MPD2    C4 4954   3.121   4.531  15.220
  314MPD2    C5 4955   2.991   4.520  15.178
  314MPD2     H 4956   3.268   4.465  14.929
  314MPD2    H1 4957   3.138   4.559  15.323
  314MPD2    H2 4958   2.856   4.478  15.025
  314MPD2    H3 4959   2.910   4.544  15.245
  314MPD2     N 4960   3.352   4.511  15.188
  314MPD2    H5 4961   3.345   4.548  15.282
  314MPD2    N1 4962   3.031   4.462  14.814
  314MPD2    H7 4963   3.113   4.425  14.768
  315MPD2     C 4964   1.629   1.918  10.003
  315MPD2    C1 4965   1.508   1.875  10.033
  315MPD2    C2 4966   1.398   1.916   9.965
  315MPD2    C3 4967   1.413   2.004   9.857
  315MPD2    C4 4968   1.540   2.050   9.829
  315MPD2    C5 4969   1.648   2.007   9.901
  315MPD2     H 4970   1.300   1.878   9.992
  315MPD2    H1 4971   1.559   2.125   9.753
  315MPD2    H2 4972   1.713   1.902  10.070
  315MPD2    H3 4973   1.745   2.047   9.874
  315MPD2     N 4974   1.297   2.048   9.784
  315MPD2    H5 4975   1.205   2.016   9.814
  315MPD2    N1 4976   1.506   1.766  10.123
  315MPD2    H7 4977   1.589   1.709  10.135
  316MPD2     C 4978   1.254   1.148  10.463
  316MPD2    C1 4979   1.146   1.204  10.397
  316MPD2    C2 4980   1.026   1.150  10.401
  316MPD2    C3 4981   1.010   1.026  10.464
  316MPD2    C4 4982   1.115   0.970  10.534
  316MPD2    C5 4983   1.240   1.027  10.523
  316MPD2     H 4984   0.943   1.191  10.346
  316MPD2    H1 4985   1.112   0.873  10.582
  316MPD2    H2 4986   1.354   1.189  10.468
  316MPD2    H3 4987   1.327   0.987  10.574
  316MPD2     N 4988   0.880   0.963  10.469
  316MPD2    H5 4989   0.799   1.009  10.430
  316MPD2    N1 4990   1.163   1.330  10.333
  316MPD2    H7 4991   1.252   1.375  10.349
  317MPD2     C 4992   1.414   1.872   9.429
  317MPD2    C1 4993   1.518   1.857   9.516
  317MPD2    C2 4994   1.494   1.781   9.630
  317MPD2    C3 4995   1.383   1.705   9.656
  317MPD2    C4 4996   1.276   1.730   9.571
  317MPD2    C5 4997   1.299   1.805   9.458
  317MPD2     H 4998   1.572   1.771   9.705
  317MPD2    H1 4999   1.198   1.656   9.567
  317MPD2    H2 5000   1.430   1.923   9.334
  317MPD2    H3 5001   1.220   1.800   9.384
  317MPD2     N 5002   1.377   1.615   9.767
  317MPD2    H5 5003   1.465   1.589   9.810
  317MPD2    N1 5004   1.637   1.920   9.473
  317MPD2    H7 5005   1.626   2.006   9.419
  318MPD2     C 5006   2.688   2.823   8.491
  318MPD2    C1 5007   2.639   2.950   8.535
  318MPD2    C2 5008   2.587   2.961   8.660
  318MPD2    C3 5009   2.583   2.851   8.744
  318MPD2    C4 5010   2.622   2.720   8.694
  318MPD2    C5 5011   2.678   2.713   8.570
  318MPD2     H 5012   2.530   3.048   8.688
  318MPD2    H1 5013   2.606   2.630   8.753
  318MPD2    H2 5014   2.718   2.809   8.388
  318MPD2    H3 5015   2.702   2.614   8.533
  318MPD2     N 5016   2.509   2.844   8.866
  318MPD2    H5 5017   2.503   2.755   8.915
  318MPD2    N1 5018   2.655   3.064   8.450
  318MPD2    H7 5019   2.698   3.042   8.361
  319MPD2     C 5020   1.777   2.374   9.366
  319MPD2    C1 5021   1.846   2.354   9.245
  319MPD2    C2 5022   1.949   2.444   9.220
  319MPD2    C3 5023   1.988   2.546   9.309
  319MPD2    C4 5024   1.913   2.564   9.419
  319MPD2    C5 5025   1.805   2.485   9.450
  319MPD2     H 5026   2.012   2.419   9.136
  319MPD2    H1 5027   1.933   2.641   9.493
  319MPD2    H2 5028   1.692   2.312   9.394
  319MPD2    H3 5029   1.747   2.508   9.538
  319MPD2     N 5030   2.092   2.642   9.286
  319MPD2    H5 5031   2.107   2.713   9.357
  319MPD2    N1 5032   1.797   2.250   9.164
  319MPD2    H7 5033   1.730   2.195   9.218
  320MPD2     C 5034   2.244   3.224   9.586
  320MPD2    C1 5035   2.320   3.259   9.475
  320MPD2    C2 5036   2.341   3.392   9.450
  320MPD2    C3 5037   2.299   3.489   9.542
  320MPD2    C4 5038   2.215   3.451   9.648
  320MPD2    C5 5039   2.182   3.322   9.666
  320MPD2     H 5040   2.402   3.421   9.366
  320MPD2    H1 5041   2.172   3.520   9.720
  320MPD2    H2 5042   2.241   3.120   9.616
  320MPD2    H3 5043   2.118   3.305   9.752
  320MPD2     N 5044   2.318   3.629   9.535
  320MPD2    H5 5045   2.258   3.683   9.597
  320MPD2    N1 5046   2.372   3.162   9.386
  320MPD2    H7 5047   2.414   3.192   9.299
  321MPD2     C 5048   0.482   1.144  14.018
  321MPD2    C1 5049   0.597   1.205  14.042
  321MPD2    C2 5050   0.669   1.247  13.930
  321MPD2    C3 5051   0.637   1.209  13.803
  321MPD2    C4 5052   0.526   1.125  13.784
  321MPD2    C5 5053   0.452   1.092  13.894
  321MPD2     H 5054   0.754   1.311  13.951
  321MPD2    H1 5055   0.495   1.094  13.685
  321MPD2    H2 5056   0.419   1.116  14.102
  321MPD2    H3 5057   0.365   1.029  13.882
  321MPD2     N 5058   0.696   1.271  13.686
  321MPD2    H5 5059   0.654   1.246  13.596
  321MPD2    N1 5060   0.616   1.257  14.173
  321MPD2    H7 5061   0.549   1.231  14.245
  322MPD2     C 5062   0.677   2.056  14.303
  322MPD2    C1 5063   0.704   1.920  14.310
  322MPD2    C2 5064   0.633   1.841  14.216
  322MPD2    C3 5065   0.545   1.902  14.131
  322MPD2    C4 5066   0.510   2.035  14.142
  322MPD2    C5 5067   0.574   2.113  14.234
  322MPD2     H 5068   0.651   1.734  14.207
  322MPD2    H1 5069   0.433   2.078  14.079
  322MPD2    H2 5070   0.727   2.119  14.376
  322MPD2    H3 5071   0.551   2.218  14.253
  322MPD2     N 5072   0.465   1.831  14.039
  322MPD2    H5 5073   0.376   1.866  14.004
  322MPD2    N1 5074   0.801   1.872  14.403
  322MPD2    H7 5075   0.861   1.944  14.440
  323MPD2     C 5076   1.960   0.463   8.951
  323MPD2    C1 5077   1.960   0.509   8.820
  323MPD2    C2 5078   1.948   0.644   8.802
  323MPD2    C3 5079   1.915   0.723   8.906
  323MPD2    C4 5080   1.883   0.677   9.033
  323MPD2    C5 5081   1.909   0.543   9.053
  323MPD2     H 5082   1.962   0.684   8.702
  323MPD2    H1 5083   1.856   0.748   9.111
  323MPD2    H2 5084   1.968   0.356   8.971
  323MPD2    H3 5085   1.895   0.492   9.148
  323MPD2     N 5086   1.902   0.861   8.876
  323MPD2    H5 5087   1.888   0.883   8.778
  323MPD2    N1 5088   1.999   0.416   8.727
  323MPD2    H7 5089   2.023   0.326   8.766
  324MPD2     C 5090   1.516   1.591   9.066
  324MPD2    C1 5091   1.476   1.487   8.984
  324MPD2    C2 5092   1.347   1.464   8.954
  324MPD2    C3 5093   1.249   1.550   8.996
  324MPD2    C4 5094   1.284   1.656   9.082
  324MPD2    C5 5095   1.415   1.677   9.115
  324MPD2     H 5096   1.335   1.378   8.889
  324MPD2    H1 5097   1.215   1.729   9.124
  324MPD2    H2 5098   1.616   1.615   9.101
  324MPD2    H3 5099   1.435   1.762   9.178
  324MPD2     N 5100   1.110   1.538   8.962
  324MPD2    H5 5101   1.058   1.624   8.955
  324MPD2    N1 5102   1.569   1.390   8.943
  324MPD2    H7 5103   1.543   1.338   8.860
  325MPD2     C 5104   2.449   4.597  12.646
  325MPD2    C1 5105   2.444   4.735  12.630
  325MPD2    C2 5106   2.358   0.013  12.710
  325MPD2    C3 5107   2.288   4.756  12.816
  325MPD2    C4 5108   2.282   4.619  12.828
  325MPD2    C5 5109   2.363   4.542  12.743
  325MPD2     H 5110   2.352   0.119  12.689
  325MPD2    H1 5111   2.229   4.565  12.906
  325MPD2    H2 5112   2.524   4.543  12.589
  325MPD2    H3 5113   2.372   4.436  12.758
  325MPD2     N 5114   2.212   0.048  12.906
  325MPD2    H5 5115   2.138   0.002  12.959
  325MPD2    N1 5116   2.508   0.007  12.523
  325MPD2    H7 5117   2.494   0.106  12.503
  326MPD2     C 5118   3.307   4.725  12.288
  326MPD2    C1 5119   3.219   4.741  12.398
  326MPD2    C2 5120   3.261   4.692  12.525
  326MPD2    C3 5121   3.382   4.630  12.540
  326MPD2    C4 5122   3.461   4.609  12.432
  326MPD2    C5 5123   3.425   4.662  12.305
  326MPD2     H 5124   3.190   4.706  12.606
  326MPD2    H1 5125   3.557   4.560  12.434
  326MPD2    H2 5126   3.283   4.766  12.190
  326MPD2    H3 5127   3.498   4.657  12.225
  326MPD2     N 5128   3.432   4.577  12.665
  326MPD2    H5 5129   3.520   4.529  12.657
  326MPD2    N1 5130   3.087   4.792  12.385
  326MPD2    H7 5131   3.020   4.770  12.458
  327MPD2     C 5132   2.851   0.673  12.069
  327MPD2    C1 5133   2.741   0.605  12.128
  327MPD2    C2 5134   2.621   0.675  12.142
  327MPD2    C3 5135   2.619   0.811  12.106
  327MPD2    C4 5136   2.729   0.873  12.055
  327MPD2    C5 5137   2.847   0.812  12.054
  327MPD2     H 5138   2.530   0.628  12.177
  327MPD2    H1 5139   2.723   0.978  12.030
  327MPD2    H2 5140   2.949   0.629  12.054
  327MPD2    H3 5141   2.930   0.861  12.005
  327MPD2     N 5142   2.493   0.873  12.106
  327MPD2    H5 5143   2.425   0.801  12.088
  327MPD2    N1 5144   2.756   0.467  12.159
  327MPD2    H7 5145   2.833   0.418  12.114
  328MPD2     C 5146   2.355   2.418   6.928
  328MPD2    C1 5147   2.272   2.410   7.039
  328MPD2    C2 5148   2.169   2.511   7.039
  328MPD2    C3 5149   2.166   2.617   6.958
  328MPD2    C4 5150   2.267   2.625   6.863
  328MPD2    C5 5151   2.355   2.528   6.850
  328MPD2     H 5152   2.087   2.491   7.108
  328MPD2    H1 5153   2.273   2.709   6.795
  328MPD2    H2 5154   2.438   2.350   6.908
  328MPD2    H3 5155   2.423   2.527   6.765
  328MPD2     N 5156   2.057   2.706   6.966
  328MPD2    H5 5157   1.987   2.675   7.032
  328MPD2    N1 5158   2.277   2.295   7.119
  328MPD2    H7 5159   2.357   2.239   7.094
  329MPD2     C 5160   2.597   1.499   6.917
  329MPD2    C1 5161   2.473   1.494   6.983
  329MPD2    C2 5162   2.452   1.586   7.083
  329MPD2    C3 5163   2.533   1.691   7.107
  329MPD2    C4 5164   2.655   1.705   7.032
  329MPD2    C5 5165   2.683   1.603   6.945
  329MPD2     H 5166   2.352   1.584   7.126
  329MPD2    H1 5167   2.728   1.781   7.057
  329MPD2    H2 5168   2.625   1.431   6.837
  329MPD2    H3 5169   2.779   1.613   6.895
  329MPD2     N 5170   2.506   1.777   7.217
  329MPD2    H5 5171   2.431   1.743   7.276
  329MPD2    N1 5172   2.373   1.403   6.964
  329MPD2    H7 5173   2.282   1.434   6.998
  330MPD2     C 5174   1.129   2.761   8.018
  330MPD2    C1 5175   0.996   2.751   8.048
  330MPD2    C2 5176   0.958   2.829   8.156
  330MPD2    C3 5177   1.041   2.924   8.216
  330MPD2    C4 5178   1.170   2.941   8.167
  330MPD2    C5 5179   1.208   2.858   8.071
  330MPD2     H 5180   0.851   2.841   8.171
  330MPD2    H1 5181   1.246   3.012   8.198
  330MPD2    H2 5182   1.170   2.707   7.933
  330MPD2    H3 5183   1.304   2.884   8.028
  330MPD2     N 5184   1.004   3.021   8.308
  330MPD2    H5 5185   1.054   3.109   8.308
  330MPD2    N1 5186   0.907   2.662   7.988
  330MPD2    H7 5187   0.812   2.664   8.025
  331MPD2     C 5188   0.776   2.084   7.318
  331MPD2    C1 5189   0.682   2.086   7.420
  331MPD2    C2 5190   0.578   1.999   7.414
  331MPD2    C3 5191   0.571   1.911   7.301
  331MPD2    C4 5192   0.648   1.917   7.198
  331MPD2    C5 5193   0.749   2.014   7.202
  331MPD2     H 5194   0.509   2.001   7.497
  331MPD2    H1 5195   0.650   1.845   7.117
  331MPD2    H2 5196   0.863   2.148   7.316
  331MPD2    H3 5197   0.808   2.014   7.112
  331MPD2     N 5198   0.475   1.805   7.292
  331MPD2    H5 5199   0.482   1.746   7.210
  331MPD2    N1 5200   0.679   2.188   7.517
  331MPD2    H7 5201   0.601   2.176   7.580
  332MPD2     C 5202   3.667   3.375  11.884
  332MPD2    C1 5203   3.629   3.241  11.894
  332MPD2    C2 5204   3.717   3.148  11.936
  332MPD2    C3 5205   3.843   3.192  11.983
  332MPD2    C4 5206   3.880   3.329  11.975
  332MPD2    C5 5207   3.785   3.420  11.922
  332MPD2     H 5208   3.701   3.041  11.942
  332MPD2    H1 5209   3.978   3.366  12.002
  332MPD2    H2 5210   3.602   3.453  11.844
  332MPD2    H3 5211   3.814   3.523  11.902
  332MPD2     N 5212   3.931   3.103  12.049
  332MPD2    H5 5213   3.921   3.003  12.061
  332MPD2    N1 5214   3.494   3.221  11.871
  332MPD2    H7 5215   3.443   3.305  11.845
  333MPD2     C 5216   3.250   2.557  11.654
  333MPD2    C1 5217   3.303   2.640  11.752
  333MPD2    C2 5218   3.432   2.625  11.790
  333MPD2    C3 5219   3.509   2.514  11.747
  333MPD2    C4 5220   3.448   2.431  11.651
  333MPD2    C5 5221   3.327   2.457  11.607
  333MPD2     H 5222   3.480   2.696  11.856
  333MPD2    H1 5223   3.502   2.349  11.604
  333MPD2    H2 5224   3.154   2.576  11.609
  333MPD2    H3 5225   3.300   2.393  11.523
  333MPD2     N 5226   3.641   2.501  11.789
  333MPD2    H5 5227   3.671   2.577  11.849
  333MPD2    N1 5228   3.246   2.763  11.787
  333MPD2    H7 5229   3.310   2.835  11.820
  334MPD2     C 5230   2.827   3.490  11.217
  334MPD2    C1 5231   2.907   3.546  11.314
  334MPD2    C2 5232   2.959   3.468  11.413
  334MPD2    C3 5233   2.922   3.336  11.426
  334MPD2    C4 5234   2.826   3.283  11.339
  334MPD2    C5 5235   2.782   3.359  11.236
  334MPD2     H 5236   3.017   3.519  11.489
  334MPD2    H1 5237   2.784   3.183  11.344
  334MPD2    H2 5238   2.778   3.549  11.140
  334MPD2    H3 5239   2.722   3.320  11.155
  334MPD2     N 5240   2.986   3.241  11.522
  334MPD2    H5 5241   2.961   3.144  11.536
  334MPD2    N1 5242   2.949   3.680  11.303
  334MPD2    H7 5243   2.908   3.732  11.226
  335MPD2     C 5244   0.151   0.582   9.781
  335MPD2    C1 5245   0.078   0.476   9.737
  335MPD2    C2 5246   4.768   0.425   9.815
  335MPD2    C3 5247   4.762   0.463   9.945
  335MPD2    C4 5248   0.038   0.572   9.992
  335MPD2    C5 5249   0.133   0.627   9.907
  335MPD2     H 5250   4.702   0.344   9.785
  335MPD2    H1 5251   0.022   0.606  10.093
  335MPD2    H2 5252   0.233   0.625   9.723
  335MPD2    H3 5253   0.193   0.708   9.947
  335MPD2     N 5254   4.699   0.386  10.043
  335MPD2    H5 5255   4.725   0.396  10.141
  335MPD2    N1 5256   0.111   0.436   9.603
  335MPD2    H7 5257   0.189   0.489   9.565
  336MPD2     C 5258   0.368   4.602   9.642
  336MPD2    C1 5259   0.329   4.730   9.675
  336MPD2    C2 5260   0.397   0.043   9.623
  336MPD2    C3 5261   0.504   0.024   9.538
  336MPD2    C4 5262   0.550   4.693   9.512
  336MPD2    C5 5263   0.478   4.584   9.560
  336MPD2     H 5264   0.371   0.141   9.660
  336MPD2    H1 5265   0.629   4.664   9.443
  336MPD2    H2 5266   0.327   4.522   9.703
  336MPD2    H3 5267   0.511   4.484   9.536
  336MPD2     N 5268   0.567   0.131   9.477
  336MPD2    H5 5269   0.631   0.105   9.402
  336MPD2    N1 5270   0.215   4.740   9.758
  336MPD2    H7 5271   0.174   4.653   9.790
  337MPD2     C 5272   4.245   4.378   9.580
  337MPD2    C1 5273   4.246   4.385   9.719
  337MPD2    C2 5274   4.344   4.461   9.783
  337MPD2    C3 5275   4.437   4.528   9.716
  337MPD2    C4 5276   4.430   4.532   9.579
  337MPD2    C5 5277   4.335   4.459   9.513
  337MPD2     H 5278   4.361   4.459   9.890
  337MPD2    H1 5279   4.495   4.601   9.527
  337MPD2    H2 5280   4.170   4.318   9.529
  337MPD2    H3 5281   4.328   4.475   9.406
  337MPD2     N 5282   4.535   4.619   9.777
  337MPD2    H5 5283   4.598   4.664   9.712
  337MPD2    N1 5284   4.138   4.350   9.800
  337MPD2    H7 5285   4.145   4.378   9.898
  338MPD2     C 5286   4.311   0.003  11.972
  338MPD2    C1 5287   4.321   4.763  12.098
  338MPD2    C2 5288   4.222   0.012  12.184
  338MPD2    C3 5289   4.121   0.101  12.148
  338MPD2    C4 5290   4.117   0.136  12.017
  338MPD2    C5 5291   4.201   0.072  11.927
  338MPD2     H 5292   4.246   4.792  12.289
  338MPD2    H1 5293   4.049   0.210  11.977
  338MPD2    H2 5294   4.377   4.759  11.895
  338MPD2    H3 5295   4.193   0.116  11.828
  338MPD2     N 5296   4.054   0.175  12.245
  338MPD2    H5 5297   4.073   0.144  12.340
  338MPD2    N1 5298   4.445   4.704  12.155
  338MPD2    H7 5299   4.451   4.679  12.254
  339MPD2     C 5300   3.990   0.268  13.059
  339MPD2    C1 5301   4.033   0.199  12.943
  339MPD2    C2 5302   4.094   0.078  12.949
  339MPD2    C3 5303   4.112   0.019  13.075
  339MPD2    C4 5304   4.075   0.077  13.192
  339MPD2    C5 5305   4.017   0.201  13.184
  339MPD2     H 5306   4.123   0.030  12.856
  339MPD2    H1 5307   4.091   0.033  13.290
  339MPD2    H2 5308   3.937   0.363  13.061
  339MPD2    H3 5309   3.987   0.248  13.277
  339MPD2     N 5310   4.171   4.687  13.084
  339MPD2    H5 5311   4.185   4.647  13.176
  339MPD2    N1 5312   4.009   0.268  12.820
  339MPD2    H7 5313   4.003   0.369  12.823
  340MPD2     C 5314   4.657   0.751  12.239
  340MPD2    C1 5315   4.547   0.821  12.204
  340MPD2    C2 5316   4.429   0.794  12.273
  340MPD2    C3 5317   4.422   0.696  12.372
  340MPD2    C4 5318   4.532   0.632  12.410
  340MPD2    C5 5319   4.646   0.660  12.345
  340MPD2     H 5320   4.340   0.852  12.254
  340MPD2    H1 5321   4.528   0.556  12.487
  340MPD2    H2 5322   4.757   0.766  12.199
  340MPD2    H3 5323   4.734   0.605  12.376
  340MPD2     N 5324   4.290   0.655  12.407
  340MPD2    H5 5325   4.207   0.674  12.352
  340MPD2    N1 5326   4.542   0.918  12.103
  340MPD2    H7 5327   4.460   0.976  12.088
  341MPD2     C 5328   0.265   4.126  12.112
  341MPD2    C1 5329   0.125   4.147  12.104
  341MPD2    C2 5330   0.043   4.046  12.072
  341MPD2    C3 5331   0.102   3.922  12.036
  341MPD2    C4 5332   0.240   3.898  12.055
  341MPD2    C5 5333   0.318   4.005  12.089
  341MPD2     H 5334   4.732   4.056  12.050
  341MPD2    H1 5335   0.281   3.799  12.046
  341MPD2    H2 5336   0.335   4.205  12.137
  341MPD2    H3 5337   0.420   3.986  12.119
  341MPD2     N 5338   0.009   3.819  11.995
  341MPD2    H5 5339   4.704   3.832  12.014
  341MPD2    N1 5340   0.064   4.270  12.136
  341MPD2    H7 5341   4.761   4.283  12.110
  342MPD2     C 5342   0.651   4.025  11.788
  342MPD2    C1 5343   0.525   4.047  11.747
  342MPD2    C2 5344   0.482   4.170  11.714
  342MPD2    C3 5345   0.573   4.275  11.730
  342MPD2    C4 5346   0.696   4.259  11.785
  342MPD2    C5 5347   0.736   4.132  11.801
  342MPD2     H 5348   0.388   4.202  11.671
  342MPD2    H1 5349   0.760   4.340  11.816
  342MPD2    H2 5350   0.694   3.926  11.795
  342MPD2    H3 5351   0.834   4.105  11.836
  342MPD2     N 5352   0.545   4.406  11.698
  342MPD2    H5 5353   0.608   4.472  11.742
  342MPD2    N1 5354   0.455   3.932  11.728
  342MPD2    H7 5355   0.502   3.845  11.751
  343MPD2     C 5356   0.123   4.453  11.006
  343MPD2    C1 5357   0.130   4.340  10.930
  343MPD2    C2 5358   0.018   4.304  10.862
  343MPD2    C3 5359   4.701   4.384  10.856
  343MPD2    C4 5360   4.692   4.480  10.951
  343MPD2    C5 5361   0.005   4.518  11.023
  343MPD2     H 5362   0.029   4.217  10.798
  343MPD2    H1 5363   4.607   4.547  10.947
  343MPD2    H2 5364   0.211   4.484  11.062
  343MPD2    H3 5365   0.003   4.612  11.077
  343MPD2     N 5366   4.598   4.361  10.761
  343MPD2    H5 5367   4.504   4.397  10.777
  343MPD2    N1 5368   0.265   4.291  10.901
  343MPD2    H7 5369   0.351   4.343  10.915
  344MPD2     C 5370   0.419   0.110  10.162
  344MPD2    C1 5371   0.416   4.779  10.102
  344MPD2    C2 5372   0.337   4.677  10.153
  344MPD2    C3 5373   0.277   4.694  10.277
  344MPD2    C4 5374   0.280   0.027  10.337
  344MPD2    C5 5375   0.342   0.130  10.279
  344MPD2     H 5376   0.312   4.584  10.102
  344MPD2    H1 5377   0.238   0.025  10.437
  344MPD2    H2 5378   0.470   0.195  10.118
  344MPD2    H3 5379   0.344   0.228  10.325
  344MPD2     N 5380   0.200   4.584  10.325
  344MPD2    H5 5381   0.192   4.500  10.269
  344MPD2    N1 5382   0.481   4.751   9.985
  344MPD2    H7 5383   0.475   4.651   9.965
  345MPD2     C 5384   0.344   3.613  10.515
  345MPD2    C1 5385   0.423   3.717  10.482
  345MPD2    C2 5386   0.372   3.850  10.490
  345MPD2    C3 5387   0.236   3.864  10.525
  345MPD2    C4 5388   0.164   3.754  10.569
  345MPD2    C5 5389   0.214   3.633  10.564
  345MPD2     H 5390   0.431   3.936  10.463
  345MPD2    H1 5391   0.062   3.775  10.601
  345MPD2    H2 5392   0.394   3.517  10.520
  345MPD2    H3 5393   0.157   3.556  10.615
  345MPD2     N 5394   0.174   3.992  10.521
  345MPD2    H5 5395   0.079   3.986  10.557
  345MPD2    N1 5396   0.554   3.682  10.461
  345MPD2    H7 5397   0.574   3.583  10.466
  346MPD2     C 5398   1.735   0.597   6.700
  346MPD2    C1 5399   1.645   0.669   6.783
  346MPD2    C2 5400   1.526   0.609   6.813
  346MPD2    C3 5401   1.489   0.486   6.757
  346MPD2    C4 5402   1.580   0.416   6.676
  346MPD2    C5 5403   1.698   0.475   6.641
  346MPD2     H 5404   1.455   0.660   6.877
  346MPD2    H1 5405   1.555   0.322   6.628
  346MPD2    H2 5406   1.837   0.632   6.686
  346MPD2    H3 5407   1.776   0.420   6.590
  346MPD2     N 5408   1.361   0.432   6.797
  346MPD2    H5 5409   1.301   0.488   6.857
  346MPD2    N1 5410   1.684   0.791   6.851
  346MPD2    H7 5411   1.773   0.838   6.838
  347MPD2     C 5412   1.400   0.163  12.363
  347MPD2    C1 5413   1.408   0.283  12.428
  347MPD2    C2 5414   1.521   0.360  12.410
  347MPD2    C3 5415   1.623   0.314  12.332
  347MPD2    C4 5416   1.625   0.184  12.277
  347MPD2    C5 5417   1.504   0.116  12.294
  347MPD2     H 5418   1.536   0.460  12.449
  347MPD2    H1 5419   1.703   0.150  12.210
  347MPD2    H2 5420   1.308   0.106  12.368
  347MPD2    H3 5421   1.500   0.023  12.239
  347MPD2     N 5422   1.738   0.399  12.321
  347MPD2    H5 5423   1.724   0.488  12.367
  347MPD2    N1 5424   1.291   0.328  12.506
  347MPD2    H7 5425   1.206   0.274  12.502
  348MPD2     C 5426   0.611   0.836  13.133
  348MPD2    C1 5427   0.629   0.863  12.997
  348MPD2    C2 5428   0.745   0.824  12.945
  348MPD2    C3 5429   0.838   0.760  13.016
  348MPD2    C4 5430   0.825   0.734  13.153
  348MPD2    C5 5431   0.708   0.771  13.209
  348MPD2     H 5432   0.752   0.838  12.837
  348MPD2    H1 5433   0.909   0.690  13.204
  348MPD2    H2 5434   0.517   0.856  13.184
  348MPD2    H3 5435   0.695   0.750  13.315
  348MPD2     N 5436   0.948   0.691  12.957
  348MPD2    H5 5437   1.005   0.634  13.019
  348MPD2    N1 5438   0.529   0.907  12.903
  348MPD2    H7 5439   0.555   0.919  12.806
  349MPD2     C 5440   1.076   1.019  12.180
  349MPD2    C1 5441   0.994   1.017  12.290
  349MPD2    C2 5442   0.960   0.895  12.350
  349MPD2    C3 5443   1.007   0.775  12.298
  349MPD2    C4 5444   1.097   0.783  12.192
  349MPD2    C5 5445   1.132   0.902  12.140
  349MPD2     H 5446   0.904   0.892  12.443
  349MPD2    H1 5447   1.138   0.698  12.137
  349MPD2    H2 5448   1.095   1.101  12.112
  349MPD2    H3 5449   1.207   0.904  12.062
  349MPD2     N 5450   0.992   0.649  12.367
  349MPD2    H5 5451   1.052   0.578  12.326
  349MPD2    N1 5452   0.959   1.128  12.362
  349MPD2    H7 5453   0.916   1.115  12.453
  350MPD2     C 5454   3.903   0.037   9.558
  350MPD2    C1 5455   3.983   4.755   9.477
  350MPD2    C2 5456   4.107   0.018   9.447
  350MPD2    C3 5457   4.128   0.157   9.471
  350MPD2    C4 5458   4.042   0.223   9.555
  350MPD2    C5 5459   3.941   0.157   9.612
  350MPD2     H 5460   4.179   4.752   9.392
  350MPD2    H1 5461   4.055   0.328   9.578
  350MPD2    H2 5462   3.813   4.782   9.594
  350MPD2    H3 5463   3.870   0.204   9.681
  350MPD2     N 5464   4.227   0.234   9.412
  350MPD2    H5 5465   4.231   0.335   9.427
  350MPD2    N1 5466   3.945   4.622   9.442
  350MPD2    H7 5467   3.858   4.581   9.475
  351MPD2     C 5468   0.029   0.484   9.088
  351MPD2    C1 5469   0.052   0.384   8.995
  351MPD2    C2 5470   0.132   0.412   8.886
  351MPD2    C3 5471   0.166   0.541   8.854
  351MPD2    C4 5472   0.121   0.641   8.933
  351MPD2    C5 5473   0.054   0.613   9.050
  351MPD2     H 5474   0.149   0.333   8.814
  351MPD2    H1 5475   0.145   0.743   8.905
  351MPD2    H2 5476   4.771   0.467   9.182
  351MPD2    H3 5477   0.034   0.686   9.127
  351MPD2     N 5478   0.231   0.582   8.734
  351MPD2    H5 5479   0.231   0.684   8.728
  351MPD2    N1 5480   0.008   0.252   9.019
  351MPD2    H7 5481   0.048   0.184   8.955
  352MPD2     C 5482   4.142   0.576   8.518
  352MPD2    C1 5483   4.134   0.643   8.636
  352MPD2    C2 5484   4.219   0.598   8.732
  352MPD2    C3 5485   4.311   0.493   8.719
  352MPD2    C4 5486   4.311   0.429   8.598
  352MPD2    C5 5487   4.226   0.475   8.502
  352MPD2     H 5488   4.206   0.658   8.822
  352MPD2    H1 5489   4.362   0.336   8.580
  352MPD2    H2 5490   4.082   0.610   8.435
  352MPD2    H3 5491   4.224   0.425   8.406
  352MPD2     N 5492   4.374   0.438   8.834
  352MPD2    H5 5493   4.428   0.353   8.819
  352MPD2    N1 5494   4.034   0.744   8.660
  352MPD2    H7 5495   3.975   0.764   8.579
  353MPD2     C 5496   4.712   2.999  11.940
  353MPD2    C1 5497   4.573   2.998  11.937
  353MPD2    C2 5498   4.505   3.112  11.910
  353MPD2    C3 5499   4.569   3.236  11.915
  353MPD2    C4 5500   4.704   3.238  11.932
  353MPD2    C5 5501   4.776   3.120  11.941
  353MPD2     H 5502   4.399   3.120  11.885
  353MPD2    H1 5503   4.762   3.330  11.928
  353MPD2    H2 5504   4.775   2.911  11.945
  353MPD2    H3 5505   0.090   3.130  11.947
  353MPD2     N 5506   4.506   3.366  11.917
  353MPD2    H5 5507   4.563   3.447  11.937
  353MPD2    N1 5508   4.507   2.876  11.942
  353MPD2    H7 5509   4.565   2.793  11.941
  354MPD2     C 5510   3.847   4.504  13.034
  354MPD2    C1 5511   3.854   4.583  12.925
  354MPD2    C2 5512   3.808   4.705  12.934
  354MPD2    C3 5513   3.752   4.757  13.050
  354MPD2    C4 5514   3.753   4.675  13.164
  354MPD2    C5 5515   3.799   4.554  13.153
  354MPD2     H 5516   3.799   4.766  12.845
  354MPD2    H1 5517   3.700   4.706  13.254
  354MPD2    H2 5518   3.877   4.401  13.025
  354MPD2    H3 5519   3.804   4.491  13.240
  354MPD2     N 5520   3.704   0.092  13.043
  354MPD2    H5 5521   3.719   0.144  12.957
  354MPD2    N1 5522   3.904   4.538  12.800
  354MPD2    H7 5523   3.910   4.609  12.728
  355MPD2     C 5524   4.520   0.312  12.614
  355MPD2    C1 5525   4.491   0.253  12.493
  355MPD2    C2 5526   4.409   0.139  12.486
  355MPD2    C3 5527   4.357   0.086  12.606
  355MPD2    C4 5528   4.381   0.153  12.725
  355MPD2    C5 5529   4.453   0.265  12.724
  355MPD2     H 5530   4.387   0.087  12.393
  355MPD2    H1 5531   4.340   0.120  12.819
  355MPD2    H2 5532   4.595   0.389  12.628
  355MPD2    H3 5533   4.464   0.314  12.820
  355MPD2     N 5534   4.288   4.752  12.604
  355MPD2    H5 5535   4.246   4.715  12.689
  355MPD2    N1 5536   4.566   0.298  12.378
  355MPD2    H7 5537   4.657   0.342  12.392
  356MPD2     C 5538   3.012   1.017  13.197
  356MPD2    C1 5539   2.962   1.147  13.203
  356MPD2    C2 5540   2.871   1.185  13.108
  356MPD2    C3 5541   2.835   1.098  13.003
  356MPD2    C4 5542   2.869   0.966  13.017
  356MPD2    C5 5543   2.955   0.928  13.114
  356MPD2     H 5544   2.831   1.286  13.104
  356MPD2    H1 5545   2.841   0.897  12.938
  356MPD2    H2 5546   3.080   0.986  13.275
  356MPD2    H3 5547   2.986   0.824  13.114
  356MPD2     N 5548   2.743   1.128  12.903
  356MPD2    H5 5549   2.710   1.048  12.849
  356MPD2    N1 5550   2.998   1.224  13.320
  356MPD2    H7 5551   3.056   1.175  13.388
  357MPD2     C 5552   3.450   2.071  13.746
  357MPD2    C1 5553   3.365   2.053  13.633
  357MPD2    C2 5554   3.299   1.935  13.616
  357MPD2    C3 5555   3.289   1.837  13.715
  357MPD2    C4 5556   3.373   1.858  13.829
  357MPD2    C5 5557   3.448   1.976  13.844
  357MPD2     H 5558   3.239   1.928  13.526
  357MPD2    H1 5559   3.367   1.786  13.911
  357MPD2    H2 5560   3.512   2.157  13.766
  357MPD2    H3 5561   3.512   1.988  13.931
  357MPD2     N 5562   3.208   1.724  13.709
  357MPD2    H5 5563   3.217   1.662  13.788
  357MPD2    N1 5564   3.359   2.147  13.524
  357MPD2    H7 5565   3.301   2.117  13.447
  358MPD2     C 5566   1.113   2.893   8.990
  358MPD2    C1 5567   1.032   2.962   9.076
  358MPD2    C2 5568   1.070   2.981   9.214
  358MPD2    C3 5569   1.178   2.914   9.265
  358MPD2    C4 5570   1.252   2.831   9.174
  358MPD2    C5 5571   1.212   2.816   9.043
  358MPD2     H 5572   1.016   3.050   9.279
  358MPD2    H1 5573   1.338   2.775   9.208
  358MPD2    H2 5574   1.079   2.868   8.889
  358MPD2    H3 5575   1.252   2.732   8.987
  358MPD2     N 5576   1.201   2.914   9.406
  358MPD2    H5 5577   1.293   2.887   9.439
  358MPD2    N1 5578   0.907   3.010   9.029
  358MPD2    H7 5579   0.867   2.964   8.948
  359MPD2     C 5580   0.275   2.933   9.490
  359MPD2    C1 5581   0.385   3.004   9.464
  359MPD2    C2 5582   0.390   3.112   9.373
  359MPD2    C3 5583   0.272   3.150   9.311
  359MPD2    C4 5584   0.156   3.081   9.339
  359MPD2    C5 5585   0.155   2.976   9.429
  359MPD2     H 5586   0.475   3.178   9.360
  359MPD2    H1 5587   0.062   3.094   9.286
  359MPD2    H2 5588   0.280   2.858   9.568
  359MPD2    H3 5589   0.058   2.930   9.445
  359MPD2     N 5590   0.278   3.247   9.205
  359MPD2    H5 5591   0.190   3.282   9.169
  359MPD2    N1 5592   0.504   2.946   9.512
  359MPD2    H7 5593   0.497   2.853   9.551
  360MPD2     C 5594   0.659   2.508   8.862
  360MPD2    C1 5595   0.773   2.582   8.859
  360MPD2    C2 5596   0.836   2.623   8.976
  360MPD2    C3 5597   0.792   2.577   9.097
  360MPD2    C4 5598   0.679   2.498   9.100
  360MPD2    C5 5599   0.613   2.460   8.984
  360MPD2     H 5600   0.923   2.687   8.975
  360MPD2    H1 5601   0.635   2.466   9.193
  360MPD2    H2 5602   0.606   2.481   8.771
  360MPD2    H3 5603   0.525   2.396   8.990
  360MPD2     N 5604   0.863   2.613   9.219
  360MPD2    H5 5605   0.937   2.681   9.206
  360MPD2    N1 5606   0.798   2.624   8.728
  360MPD2    H7 5607   0.716   2.632   8.670
  361MPD2     C 5608   0.263   1.083   8.147
  361MPD2    C1 5609   0.241   0.992   8.251
  361MPD2    C2 5610   0.352   0.941   8.313
  361MPD2    C3 5611   0.484   0.971   8.275
  361MPD2    C4 5612   0.498   1.052   8.160
  361MPD2    C5 5613   0.390   1.108   8.100
  361MPD2     H 5614   0.331   0.869   8.392
  361MPD2    H1 5615   0.599   1.066   8.126
  361MPD2    H2 5616   0.186   1.139   8.093
  361MPD2    H3 5617   0.403   1.169   8.012
  361MPD2     N 5618   0.598   0.913   8.334
  361MPD2    H5 5619   0.688   0.940   8.296
  361MPD2    N1 5620   0.110   0.968   8.308
  361MPD2    H7 5621   0.104   0.902   8.384
  362MPD2     C 5622   0.717   0.204   8.300
  362MPD2    C1 5623   0.766   0.227   8.420
  362MPD2    C2 5624   0.786   0.124   8.510
  362MPD2    C3 5625   0.737   4.787   8.478
  362MPD2    C4 5626   0.662   4.769   8.358
  362MPD2    C5 5627   0.664   0.083   8.273
  362MPD2     H 5628   0.823   0.144   8.610
  362MPD2    H1 5629   0.610   4.678   8.332
  362MPD2    H2 5630   0.706   0.270   8.215
  362MPD2    H3 5631   0.629   0.067   8.172
  362MPD2     N 5632   0.738   4.681   8.571
  362MPD2    H5 5633   0.696   4.594   8.540
  362MPD2    N1 5634   0.816   0.356   8.460
  362MPD2    H7 5635   0.847   0.363   8.556
  363MPD2     C 5636   0.726   0.818   9.130
  363MPD2    C1 5637   0.679   0.730   9.035
  363MPD2    C2 5638   0.571   0.640   9.070
  363MPD2    C3 5639   0.531   0.635   9.199
  363MPD2    C4 5640   0.595   0.707   9.293
  363MPD2    C5 5641   0.685   0.810   9.263
  363MPD2     H 5642   0.516   0.582   8.997
  363MPD2    H1 5643   0.572   0.698   9.399
  363MPD2    H2 5644   0.804   0.893   9.117
  363MPD2    H3 5645   0.726   0.885   9.331
  363MPD2     N 5646   0.425   0.549   9.243
  363MPD2    H5 5647   0.394   0.551   9.340
  363MPD2    N1 5648   0.732   0.742   8.908
  363MPD2    H7 5649   0.799   0.816   8.888
  364MPD2     C 5650   2.512   1.040   7.166
  364MPD2    C1 5651   2.599   0.979   7.256
  364MPD2    C2 5652   2.658   0.863   7.220
  364MPD2    C3 5653   2.638   0.806   7.096
  364MPD2    C4 5654   2.550   0.862   7.008
  364MPD2    C5 5655   2.495   0.983   7.038
  364MPD2     H 5656   2.739   0.819   7.278
  364MPD2    H1 5657   2.534   0.812   6.913
  364MPD2    H2 5658   2.469   1.134   7.196
  364MPD2    H3 5659   2.443   1.050   6.971
  364MPD2     N 5660   2.714   0.684   7.074
  364MPD2    H5 5661   2.780   0.654   7.145
  364MPD2    N1 5662   2.632   1.024   7.389
  364MPD2    H7 5663   2.675   0.954   7.449
  365MPD2     C 5664   3.162   0.736   7.597
  365MPD2    C1 5665   3.034   0.749   7.548
  365MPD2    C2 5666   2.981   0.660   7.454
  365MPD2    C3 5667   3.066   0.566   7.398
  365MPD2    C4 5668   3.200   0.549   7.448
  365MPD2    C5 5669   3.241   0.635   7.553
  365MPD2     H 5670   2.886   0.684   7.409
  365MPD2    H1 5671   3.263   0.475   7.401
  365MPD2    H2 5672   3.193   0.804   7.676
  365MPD2    H3 5673   3.342   0.623   7.591
  365MPD2     N 5674   3.020   0.515   7.279
  365MPD2    H5 5675   2.928   0.544   7.249
  365MPD2    N1 5676   2.963   0.870   7.579
  365MPD2    H7 5677   2.867   0.880   7.547
  366MPD2     C 5678   1.728   3.111   8.728
  366MPD2    C1 5679   1.861   3.154   8.696
  366MPD2    C2 5680   1.960   3.142   8.787
  366MPD2    C3 5681   1.931   3.101   8.919
  366MPD2    C4 5682   1.800   3.067   8.950
  366MPD2    C5 5683   1.699   3.075   8.854
  366MPD2     H 5684   2.061   3.161   8.754
  366MPD2    H1 5685   1.785   3.040   9.054
  366MPD2    H2 5686   1.647   3.112   8.655
  366MPD2    H3 5687   1.600   3.039   8.881
  366MPD2     N 5688   2.031   3.120   9.012
  366MPD2    H5 5689   2.103   3.186   8.984
  366MPD2    N1 5690   1.906   3.193   8.568
  366MPD2    H7 5691   2.007   3.195   8.559
  367MPD2     C 5692   1.982   3.744   8.071
  367MPD2    C1 5693   1.916   3.641   8.003
  367MPD2    C2 5694   1.898   3.654   7.865
  367MPD2    C3 5695   1.953   3.771   7.807
  367MPD2    C4 5696   2.030   3.860   7.876
  367MPD2    C5 5697   2.056   3.842   8.009
  367MPD2     H 5698   1.857   3.575   7.803
  367MPD2    H1 5699   2.086   3.940   7.831
  367MPD2    H2 5700   2.005   3.739   8.177
  367MPD2    H3 5701   2.121   3.908   8.065
  367MPD2     N 5702   1.954   3.790   7.668
  367MPD2    H5 5703   2.012   3.862   7.628
  367MPD2    N1 5704   1.884   3.522   8.072
  367MPD2    H7 5705   1.893   3.532   8.173
  368MPD2     C 5706   1.792   2.764   8.558
  368MPD2    C1 5707   1.915   2.713   8.553
  368MPD2    C2 5708   2.008   2.740   8.448
  368MPD2    C3 5709   1.978   2.834   8.352
  368MPD2    C4 5710   1.844   2.891   8.356
  368MPD2    C5 5711   1.759   2.853   8.456
  368MPD2     H 5712   2.099   2.680   8.450
  368MPD2    H1 5713   1.801   2.962   8.287
  368MPD2    H2 5714   1.723   2.772   8.641
  368MPD2    H3 5715   1.667   2.910   8.457
  368MPD2     N 5716   2.080   2.870   8.256
  368MPD2    H5 5717   2.160   2.807   8.250
  368MPD2    N1 5718   1.958   2.629   8.649
  368MPD2    H7 5719   2.053   2.594   8.640
  369MPD2     C 5720   1.778   0.406   7.120
  369MPD2    C1 5721   1.867   0.499   7.179
  369MPD2    C2 5722   1.974   0.449   7.254
  369MPD2    C3 5723   1.997   0.312   7.266
  369MPD2    C4 5724   1.913   0.223   7.202
  369MPD2    C5 5725   1.805   0.268   7.127
  369MPD2     H 5726   2.041   0.523   7.297
  369MPD2    H1 5727   1.934   0.117   7.206
  369MPD2    H2 5728   1.696   0.444   7.059
  369MPD2    H3 5729   1.747   0.194   7.073
  369MPD2     N 5730   2.113   0.260   7.339
  369MPD2    H5 5731   2.150   0.170   7.311
  369MPD2    N1 5732   1.832   0.634   7.182
  369MPD2    H7 5733   1.755   0.662   7.122
  370MPD2     C 5734   1.310   1.117   7.775
  370MPD2    C1 5735   1.345   0.985   7.751
  370MPD2    C2 5736   1.427   0.955   7.645
  370MPD2    C3 5737   1.481   1.053   7.569
  370MPD2    C4 5738   1.452   1.186   7.601
  370MPD2    C5 5739   1.374   1.213   7.705
  370MPD2     H 5740   1.468   0.855   7.634
  370MPD2    H1 5741   1.493   1.271   7.548
  370MPD2    H2 5742   1.235   1.143   7.849
  370MPD2    H3 5743   1.344   1.313   7.731
  370MPD2     N 5744   1.557   1.016   7.456
  370MPD2    H5 5745   1.580   0.917   7.461
  370MPD2    N1 5746   1.258   0.882   7.797
  370MPD2    H7 5747   1.176   0.920   7.843
  371MPD2     C 5748   0.571   3.518   8.213
  371MPD2    C1 5749   0.634   3.428   8.136
  371MPD2    C2 5750   0.762   3.455   8.096
  371MPD2    C3 5751   0.822   3.579   8.125
  371MPD2    C4 5752   0.759   3.660   8.215
  371MPD2    C5 5753   0.636   3.629   8.254
  371MPD2     H 5754   0.812   3.379   8.036
  371MPD2    H1 5755   0.807   3.745   8.262
  371MPD2    H2 5756   0.472   3.492   8.249
  371MPD2    H3 5757   0.593   3.685   8.336
  371MPD2     N 5758   0.951   3.615   8.088
  371MPD2    H5 5759   0.996   3.684   8.146
  371MPD2    N1 5760   0.566   3.312   8.090
  371MPD2    H7 5761   0.619   3.237   8.047
  372MPD2     C 5762   0.451   3.197   7.705
  372MPD2    C1 5763   0.468   3.335   7.698
  372MPD2    C2 5764   0.356   3.415   7.674
  372MPD2    C3 5765   0.230   3.357   7.664
  372MPD2    C4 5766   0.211   3.221   7.669
  372MPD2    C5 5767   0.326   3.140   7.691
  372MPD2     H 5768   0.368   3.522   7.666
  372MPD2    H1 5769   0.109   3.184   7.666
  372MPD2    H2 5770   0.540   3.136   7.718
  372MPD2    H3 5771   0.318   3.034   7.713
  372MPD2     N 5772   0.117   3.439   7.637
  372MPD2    H5 5773   0.027   3.393   7.638
  372MPD2    N1 5774   0.601   3.376   7.696
  372MPD2    H7 5775   0.681   3.315   7.698
  373MPD2     C 5776   1.206   3.153   7.112
  373MPD2    C1 5777   1.112   3.256   7.104
  373MPD2    C2 5778   1.070   3.320   7.218
  373MPD2    C3 5779   1.116   3.276   7.342
  373MPD2    C4 5780   1.198   3.169   7.353
  373MPD2    C5 5781   1.252   3.121   7.236
  373MPD2     H 5782   1.007   3.408   7.205
  373MPD2    H1 5783   1.233   3.124   7.446
  373MPD2    H2 5784   1.237   3.092   7.028
  373MPD2    H3 5785   1.322   3.039   7.230
  373MPD2     N 5786   1.054   3.342   7.451
  373MPD2    H5 5787   0.989   3.417   7.429
  373MPD2    N1 5788   1.057   3.290   6.974
  373MPD2    H7 5789   1.115   3.244   6.904
  374MPD2     C 5790   2.606   3.493   7.335
  374MPD2    C1 5791   2.572   3.594   7.252
  374MPD2    C2 5792   2.443   3.634   7.248
  374MPD2    C3 5793   2.345   3.566   7.321
  374MPD2    C4 5794   2.380   3.468   7.403
  374MPD2    C5 5795   2.510   3.428   7.406
  374MPD2     H 5796   2.425   3.724   7.190
  374MPD2    H1 5797   2.312   3.405   7.461
  374MPD2    H2 5798   2.708   3.458   7.340
  374MPD2    H3 5799   2.541   3.352   7.477
  374MPD2     N 5800   2.216   3.605   7.310
  374MPD2    H5 5801   2.151   3.548   7.363
  374MPD2    N1 5802   2.666   3.663   7.172
  374MPD2    H7 5803   2.628   3.734   7.109
  375MPD2     C 5804   1.971   0.725  11.152
  375MPD2    C1 5805   1.947   0.840  11.227
  375MPD2    C2 5806   1.813   0.866  11.270
  375MPD2    C3 5807   1.703   0.790  11.230
  375MPD2    C4 5808   1.731   0.682  11.153
  375MPD2    C5 5809   1.864   0.653  11.119
  375MPD2     H 5810   1.789   0.943  11.343
  375MPD2    H1 5811   1.650   0.618  11.123
  375MPD2    H2 5812   2.072   0.704  11.119
  375MPD2    H3 5813   1.883   0.566  11.057
  375MPD2     N 5814   1.567   0.799  11.261
  375MPD2    H5 5815   1.511   0.728  11.215
  375MPD2    N1 5816   2.056   0.923  11.257
  375MPD2    H7 5817   2.147   0.894  11.224
  376MPD2     C 5818   0.958   0.658  10.876
  376MPD2    C1 5819   1.072   0.689  10.946
  376MPD2    C2 5820   1.088   0.813  11.005
  376MPD2    C3 5821   0.986   0.902  11.013
  376MPD2    C4 5822   0.867   0.878  10.939
  376MPD2    C5 5823   0.856   0.754  10.871
  376MPD2     H 5824   1.181   0.825  11.059
  376MPD2    H1 5825   0.795   0.958  10.925
  376MPD2    H2 5826   0.946   0.569  10.816
  376MPD2    H3 5827   0.763   0.739  10.817
  376MPD2     N 5828   0.994   1.029  11.080
  376MPD2    H5 5829   0.933   1.100  11.041
  376MPD2    N1 5830   1.183   0.602  10.949
  376MPD2    H7 5831   1.255   0.631  11.014
  377MPD2     C 5832   1.089   0.152  11.470
  377MPD2    C1 5833   1.027   0.223  11.372
  377MPD2    C2 5834   1.057   0.355  11.362
  377MPD2    C3 5835   1.151   0.418  11.446
  377MPD2    C4 5836   1.229   0.346  11.536
  377MPD2    C5 5837   1.198   0.217  11.545
  377MPD2     H 5838   1.007   0.414  11.285
  377MPD2    H1 5839   1.303   0.396  11.597
  377MPD2    H2 5840   1.073   0.046  11.487
  377MPD2    H3 5841   1.245   0.153  11.618
  377MPD2     N 5842   1.180   0.552  11.431
  377MPD2    H5 5843   1.255   0.586  11.490
  377MPD2    N1 5844   0.924   0.171  11.290
  377MPD2    H7 5845   0.894   0.242  11.224
  378MPD2     C 5846   1.892   1.109  13.230
  378MPD2    C1 5847   1.778   1.032  13.219
  378MPD2    C2 5848   1.735   0.956  13.326
  378MPD2    C3 5849   1.783   0.982  13.453
  378MPD2    C4 5850   1.899   1.058  13.467
  378MPD2    C5 5851   1.949   1.115  13.356
  378MPD2     H 5852   1.658   0.881  13.316
  378MPD2    H1 5853   1.957   1.053  13.559
  378MPD2    H2 5854   1.946   1.153  13.147
  378MPD2    H3 5855   2.039   1.174  13.362
  378MPD2     N 5856   1.736   0.921  13.573
  378MPD2    H5 5857   1.799   0.934  13.651
  378MPD2    N1 5858   1.724   1.021  13.090
  378MPD2    H7 5859   1.766   1.079  13.018
  379MPD2     C 5860   1.008   1.346  13.327
  379MPD2    C1 5861   1.146   1.335  13.344
  379MPD2    C2 5862   1.229   1.444  13.317
  379MPD2    C3 5863   1.179   1.562  13.259
  379MPD2    C4 5864   1.045   1.565  13.218
  379MPD2    C5 5865   0.964   1.460  13.254
  379MPD2     H 5866   1.335   1.443  13.338
  379MPD2    H1 5867   1.004   1.637  13.147
  379MPD2    H2 5868   0.941   1.272  13.370
  379MPD2    H3 5869   0.859   1.459  13.226
  379MPD2     N 5870   1.278   1.650  13.212
  379MPD2    H5 5871   1.373   1.633  13.244
  379MPD2    N1 5872   1.202   1.210  13.396
  379MPD2    H7 5873   1.131   1.148  13.434
  380MPD2     C 5874   0.911   0.589  13.470
  380MPD2    C1 5875   0.949   0.701  13.540
  380MPD2    C2 5876   0.881   0.737  13.653
  380MPD2    C3 5877   0.769   0.669  13.691
  380MPD2    C4 5878   0.717   0.571  13.605
  380MPD2    C5 5879   0.797   0.524  13.508
  380MPD2     H 5880   0.927   0.805  13.722
  380MPD2    H1 5881   0.627   0.518  13.633
  380MPD2    H2 5882   0.964   0.560  13.380
  380MPD2    H3 5883   0.751   0.444  13.451
  380MPD2     N 5884   0.698   0.713  13.809
  380MPD2    H5 5885   0.737   0.795  13.856
  380MPD2    N1 5886   1.063   0.773  13.523
  380MPD2    H7 5887   1.082   0.857  13.578
  381MPD2     C 5888   4.247   2.829  13.781
  381MPD2    C1 5889   4.332   2.739  13.843
  381MPD2    C2 5890   4.465   2.759  13.856
  381MPD2    C3 5891   4.527   2.874  13.810
  381MPD2    C4 5892   4.450   2.961  13.737
  381MPD2    C5 5893   4.311   2.941  13.721
  381MPD2     H 5894   4.524   2.684  13.909
  381MPD2    H1 5895   4.484   3.055  13.695
  381MPD2    H2 5896   4.139   2.823  13.768
  381MPD2    H3 5897   4.254   3.018  13.671
  381MPD2     N 5898   4.666   2.897  13.829
  381MPD2    H5 5899   4.726   2.815  13.837
  381MPD2    N1 5900   4.273   2.624  13.902
  381MPD2    H7 5901   4.344   2.554  13.923
  382MPD2     C 5902   3.297   2.328  14.093
  382MPD2    C1 5903   3.382   2.227  14.121
  382MPD2    C2 5904   3.517   2.253  14.096
  382MPD2    C3 5905   3.563   2.362  14.030
  382MPD2    C4 5906   3.474   2.460  14.000
  382MPD2    C5 5907   3.345   2.443  14.033
  382MPD2     H 5908   3.590   2.175  14.116
  382MPD2    H1 5909   3.508   2.551  13.953
  382MPD2    H2 5910   3.190   2.316  14.104
  382MPD2    H3 5911   3.272   2.516  14.003
  382MPD2     N 5912   3.703   2.382  13.999
  382MPD2    H5 5913   3.733   2.476  13.977
  382MPD2    N1 5914   3.329   2.104  14.173
  382MPD2    H7 5915   3.228   2.099  14.185
  383MPD2     C 5916   2.998   1.056  12.588
  383MPD2    C1 5917   2.932   1.181  12.573
  383MPD2    C2 5918   2.967   1.278  12.671
  383MPD2    C3 5919   3.048   1.247  12.779
  383MPD2    C4 5920   3.105   1.120  12.790
  383MPD2    C5 5921   3.073   1.025  12.696
  383MPD2     H 5922   2.916   1.373  12.657
  383MPD2    H1 5923   3.166   1.083  12.872
  383MPD2    H2 5924   2.988   0.974  12.518
  383MPD2    H3 5925   3.111   0.924  12.708
  383MPD2     N 5926   3.073   1.349  12.870
  383MPD2    H5 5927   3.019   1.435  12.872
  383MPD2    N1 5928   2.855   1.219  12.461
  383MPD2    H7 5929   2.824   1.315  12.453
  384MPD2     C 5930   2.562   1.904  13.410
  384MPD2    C1 5931   2.588   1.774  13.437
  384MPD2    C2 5932   2.699   1.709  13.400
  384MPD2    C3 5933   2.777   1.760  13.303
  384MPD2    C4 5934   2.757   1.895  13.274
  384MPD2    C5 5935   2.649   1.962  13.329
  384MPD2     H 5936   2.718   1.609  13.437
  384MPD2    H1 5937   2.818   1.934  13.194
  384MPD2    H2 5938   2.467   1.951  13.431
  384MPD2    H3 5939   2.629   2.065  13.299
  384MPD2     N 5940   2.882   1.680  13.253
  384MPD2    H5 5941   2.883   1.579  13.261
  384MPD2    N1 5942   2.478   1.712  13.494
  384MPD2    H7 5943   2.396   1.767  13.515
  385MPD2     C 5944   0.800   4.226  14.443
  385MPD2    C1 5945   0.891   4.130  14.476
  385MPD2    C2 5946   0.940   4.038  14.376
  385MPD2    C3 5947   0.905   4.049  14.244
  385MPD2    C4 5948   0.819   4.154  14.214
  385MPD2    C5 5949   0.771   4.245  14.309
  385MPD2     H 5950   1.007   3.960  14.410
  385MPD2    H1 5951   0.787   4.165  14.111
  385MPD2    H2 5952   0.775   4.298  14.519
  385MPD2    H3 5953   0.707   4.329  14.286
  385MPD2     N 5954   0.955   3.971  14.140
  385MPD2    H5 5955   0.931   4.003  14.047
  385MPD2    N1 5956   0.942   4.113  14.608
  385MPD2    H7 5957   0.996   4.028  14.620
  386MPD2     C 5958   1.351   4.509  13.755
  386MPD2    C1 5959   1.252   4.491  13.849
  386MPD2    C2 5960   1.243   4.360  13.894
  386MPD2    C3 5961   1.322   4.261  13.855
  386MPD2    C4 5962   1.430   4.285  13.774
  386MPD2    C5 5963   1.440   4.415  13.726
  386MPD2     H 5964   1.174   4.339  13.974
  386MPD2    H1 5965   1.502   4.215  13.735
  386MPD2    H2 5966   1.377   4.602  13.707
  386MPD2    H3 5967   1.511   4.457  13.655
  386MPD2     N 5968   1.296   4.130  13.910
  386MPD2    H5 5969   1.219   4.126  13.977
  386MPD2    N1 5970   1.157   4.591  13.897
  386MPD2    H7 5971   1.091   4.564  13.970
  387MPD2     C 5972   1.781   3.434  14.425
  387MPD2    C1 5973   1.816   3.432  14.290
  387MPD2    C2 5974   1.733   3.503  14.210
  387MPD2    C3 5975   1.619   3.567  14.247
  387MPD2    C4 5976   1.609   3.586  14.385
  387MPD2    C5 5977   1.688   3.519  14.476
  387MPD2     H 5978   1.743   3.496  14.102
  387MPD2    H1 5979   1.533   3.650  14.428
  387MPD2    H2 5980   1.843   3.392  14.503
  387MPD2    H3 5981   1.666   3.537  14.580
  387MPD2     N 5982   1.528   3.617  14.148
  387MPD2    H5 5983   1.554   3.627  14.050
  387MPD2    N1 5984   1.928   3.355  14.251
  387MPD2    H7 5985   1.989   3.331  14.328
  388MPD2     C 5986   4.447   2.230  10.533
  388MPD2    C1 5987   4.377   2.334  10.472
  388MPD2    C2 5988   4.298   2.403  10.555
  388MPD2    C3 5989   4.286   2.373  10.692
  388MPD2    C4 5990   4.362   2.283  10.757
  388MPD2    C5 5991   4.449   2.207  10.669
  388MPD2     H 5992   4.245   2.486  10.511
  388MPD2    H1 5993   4.358   2.258  10.862
  388MPD2    H2 5994   4.515   2.173  10.471
  388MPD2    H3 5995   4.499   2.119  10.706
  388MPD2     N 5996   4.192   2.451  10.764
  388MPD2    H5 5997   4.127   2.497  10.702
  388MPD2    N1 5998   4.385   2.370  10.337
  388MPD2    H7 5999   4.351   2.463  10.318
  389MPD2     C 6000   0.064   2.841   9.824
  389MPD2    C1 6001   0.011   2.771   9.931
  389MPD2    C2 6002   0.068   2.799  10.053
  389MPD2    C3 6003   0.165   2.891  10.070
  389MPD2    C4 6004   0.216   2.972   9.969
  389MPD2    C5 6005   0.167   2.927   9.846
  389MPD2     H 6006   0.037   2.744  10.141
  389MPD2    H1 6007   0.305   3.034   9.966
  389MPD2    H2 6008   0.045   2.827   9.718
  389MPD2    H3 6009   0.218   2.969   9.760
  389MPD2     N 6010   0.213   2.882  10.197
  389MPD2    H5 6011   0.198   2.801  10.257
  389MPD2    N1 6012   4.703   2.673   9.919
  389MPD2    H7 6013   4.671   2.658   9.824
  390MPD2     C 6014   3.824   3.956  10.795
  390MPD2    C1 6015   3.908   3.848  10.782
  390MPD2    C2 6016   3.869   3.745  10.697
  390MPD2    C3 6017   3.747   3.748  10.633
  390MPD2    C4 6018   3.668   3.861  10.636
  390MPD2    C5 6019   3.709   3.963  10.725
  390MPD2     H 6020   3.932   3.658  10.683
  390MPD2    H1 6021   3.580   3.863  10.572
  390MPD2    H2 6022   3.842   4.040  10.861
  390MPD2    H3 6023   3.631   4.037  10.738
  390MPD2     N 6024   3.701   3.643  10.553
  390MPD2    H5 6025   3.627   3.670  10.489
  390MPD2    N1 6026   4.031   3.842  10.849
  390MPD2    H7 6027   4.084   3.756  10.837
  391MPD2     C 6028   4.611   3.488  11.641
  391MPD2    C1 6029   4.556   3.392  11.556
  391MPD2    C2 6030   4.457   3.435  11.474
  391MPD2    C3 6031   4.411   3.569  11.479
  391MPD2    C4 6032   4.485   3.662  11.546
  391MPD2    C5 6033   4.580   3.625  11.635
  391MPD2     H 6034   4.404   3.368  11.406
  391MPD2    H1 6035   4.472   3.769  11.536
  391MPD2    H2 6036   4.700   3.462  11.697
  391MPD2    H3 6037   4.633   3.701  11.690
  391MPD2     N 6038   4.304   3.604  11.389
  391MPD2    H5 6039   4.263   3.529  11.334
  391MPD2    N1 6040   4.616   3.265  11.563
  391MPD2    H7 6041   4.687   3.253  11.634
  392MPD2     C 6042   4.557   3.336  10.810
  392MPD2    C1 6043   4.471   3.331  10.919
  392MPD2    C2 6044   4.456   3.210  10.996
  392MPD2    C3 6045   4.524   3.098  10.956
  392MPD2    C4 6046   4.624   3.113  10.861
  392MPD2    C5 6047   4.640   3.231  10.790
  392MPD2     H 6048   4.376   3.205  11.070
  392MPD2    H1 6049   4.677   3.026  10.823
  392MPD2    H2 6050   4.572   3.421  10.744
  392MPD2    H3 6051   4.708   3.238  10.705
  392MPD2     N 6052   4.498   2.965  11.019
  392MPD2    H5 6053   4.555   2.891  10.980
  392MPD2    N1 6054   4.390   3.438  10.975
  392MPD2    H7 6055   4.336   3.412  11.057
  393MPD2     C 6056   3.387   0.367   6.250
  393MPD2    C1 6057   3.404   0.431   6.375
  393MPD2    C2 6058   3.305   0.511   6.428
  393MPD2    C3 6059   3.184   0.527   6.356
  393MPD2    C4 6060   3.175   0.472   6.228
  393MPD2    C5 6061   3.265   0.378   6.187
  393MPD2     H 6062   3.303   0.542   6.532
  393MPD2    H1 6063   3.094   0.496   6.160
  393MPD2    H2 6064   3.462   0.297   6.216
  393MPD2    H3 6065   3.259   0.345   6.084
  393MPD2     N 6066   3.085   0.612   6.418
  393MPD2    H5 6067   3.101   0.655   6.508
  393MPD2    N1 6068   3.519   0.423   6.458
  393MPD2    H7 6069   3.519   0.451   6.555
  394MPD2     C 6070   2.243   0.609   6.612
  394MPD2    C1 6071   2.357   0.589   6.687
  394MPD2    C2 6072   2.343   0.499   6.792
  394MPD2    C3 6073   2.225   0.433   6.819
  394MPD2    C4 6074   2.109   0.453   6.746
  394MPD2    C5 6075   2.127   0.540   6.639
  394MPD2     H 6076   2.437   0.475   6.841
  394MPD2    H1 6077   2.008   0.416   6.758
  394MPD2    H2 6078   2.236   0.677   6.528
  394MPD2    H3 6079   2.042   0.578   6.583
  394MPD2     N 6080   2.207   0.332   6.917
  394MPD2    H5 6081   2.122   0.277   6.911
  394MPD2    N1 6082   2.484   0.645   6.660
  394MPD2    H7 6083   2.555   0.621   6.728
  395MPD2     C 6084   2.966   1.169   7.180
  395MPD2    C1 6085   3.023   1.046   7.157
  395MPD2    C2 6086   2.977   0.968   7.046
  395MPD2    C3 6087   2.878   1.026   6.962
  395MPD2    C4 6088   2.824   1.149   6.983
  395MPD2    C5 6089   2.865   1.216   7.099
  395MPD2     H 6090   3.019   0.869   7.028
  395MPD2    H1 6091   2.748   1.187   6.916
  395MPD2    H2 6092   2.998   1.223   7.268
  395MPD2    H3 6093   2.833   1.318   7.114
  395MPD2     N 6094   2.838   0.963   6.843
  395MPD2    H5 6095   2.759   1.003   6.795
  395MPD2    N1 6096   3.128   1.006   7.244
  395MPD2    H7 6097   3.160   1.079   7.307
  396MPD2     C 6098   2.394   1.600  12.288
  396MPD2    C1 6099   2.433   1.623  12.420
  396MPD2    C2 6100   2.438   1.754  12.463
  396MPD2    C3 6101   2.409   1.862  12.380
  396MPD2    C4 6102   2.388   1.837  12.240
  396MPD2    C5 6103   2.380   1.703  12.202
  396MPD2     H 6104   2.461   1.767  12.569
  396MPD2    H1 6105   2.365   1.914  12.167
  396MPD2    H2 6106   2.378   1.498  12.253
  396MPD2    H3 6107   2.365   1.684  12.096
  396MPD2     N 6108   2.415   1.999  12.422
  396MPD2    H5 6109   2.434   2.069  12.350
  396MPD2    N1 6110   2.442   1.526  12.516
  396MPD2    H7 6111   2.447   1.557  12.613
  397MPD2     C 6112   1.831   0.780  12.709
  397MPD2    C1 6113   1.947   0.744  12.779
  397MPD2    C2 6114   2.061   0.826  12.782
  397MPD2    C3 6115   2.057   0.953  12.721
  397MPD2    C4 6116   1.938   0.988  12.655
  397MPD2    C5 6117   1.830   0.909  12.652
  397MPD2     H 6118   2.154   0.793  12.827
  397MPD2    H1 6119   1.934   1.084  12.604
  397MPD2    H2 6120   1.743   0.718  12.700
  397MPD2    H3 6121   1.740   0.939  12.598
  397MPD2     N 6122   2.168   1.040  12.711
  397MPD2    H5 6123   2.161   1.123  12.652
  397MPD2    N1 6124   1.961   0.620  12.839
  397MPD2    H7 6125   2.048   0.598  12.886
  398MPD2     C 6126   2.161   1.415  10.847
  398MPD2    C1 6127   2.033   1.383  10.813
  398MPD2    C2 6128   1.985   1.252  10.836
  398MPD2    C3 6129   2.059   1.165  10.918
  398MPD2    C4 6130   2.187   1.205  10.964
  398MPD2    C5 6131   2.240   1.328  10.924
  398MPD2     H 6132   1.883   1.232  10.804
  398MPD2    H1 6133   2.254   1.136  11.014
  398MPD2    H2 6134   2.205   1.508  10.815
  398MPD2    H3 6135   2.343   1.357  10.939
  398MPD2     N 6136   1.988   1.044  10.957
  398MPD2    H5 6137   2.005   1.006  11.050
  398MPD2    N1 6138   1.948   1.466  10.735
  398MPD2    H7 6139   1.851   1.437  10.732
  399MPD2     C 6140   1.893   1.645  11.394
  399MPD2    C1 6141   1.805   1.657  11.289
  399MPD2    C2 6142   1.739   1.532  11.253
  399MPD2    C3 6143   1.770   1.411  11.311
  399MPD2    C4 6144   1.863   1.409  11.414
  399MPD2    C5 6145   1.921   1.528  11.459
  399MPD2     H 6146   1.691   1.540  11.156
  399MPD2    H1 6147   1.890   1.316  11.463
  399MPD2    H2 6148   1.916   1.740  11.441
  399MPD2    H3 6149   1.993   1.523  11.539
  399MPD2     N 6150   1.707   1.294  11.269
  399MPD2    H5 6151   1.751   1.206  11.294
  399MPD2    N1 6152   1.768   1.781  11.236
  399MPD2    H7 6153   1.805   1.864  11.281
  400MPD2     C 6154   1.226   1.387  10.718
  400MPD2    C1 6155   1.359   1.348  10.728
  400MPD2    C2 6156   1.400   1.222  10.759
  400MPD2    C3 6157   1.299   1.132  10.805
  400MPD2    C4 6158   1.165   1.173  10.793
  400MPD2    C5 6159   1.132   1.298  10.746
  400MPD2     H 6160   1.504   1.190  10.760
  400MPD2    H1 6161   1.084   1.102  10.803
  400MPD2    H2 6162   1.201   1.483  10.675
  400MPD2    H3 6163   1.032   1.306  10.707
  400MPD2     N 6164   1.318   1.002  10.863
  400MPD2    H5 6165   1.233   0.946  10.867
  400MPD2    N1 6166   1.448   1.448  10.678
  400MPD2    H7 6167   1.401   1.535  10.656
  401MPD2     C 6168   4.354   4.041  10.797
  401MPD2    C1 6169   4.325   4.152  10.875
  401MPD2    C2 6170   4.411   4.188  10.972
  401MPD2    C3 6171   4.521   4.112  10.996
  401MPD2    C4 6172   4.547   4.000  10.919
  401MPD2    C5 6173   4.466   3.968  10.813
  401MPD2     H 6174   4.380   4.265  11.041
  401MPD2    H1 6175   4.630   3.937  10.948
  401MPD2    H2 6176   4.297   4.016  10.709
  401MPD2    H3 6177   4.489   3.899  10.732
  401MPD2     N 6178   4.608   4.137  11.107
  401MPD2    H5 6179   4.688   4.074  11.107
  401MPD2    N1 6180   4.194   4.201  10.842
  401MPD2    H7 6181   4.155   4.154  10.760
  402MPD2     C 6182   3.805   0.190  11.262
  402MPD2    C1 6183   3.791   0.077  11.338
  402MPD2    C2 6184   3.894   4.780  11.330
  402MPD2    C3 6185   4.011   4.794  11.263
  402MPD2    C4 6186   4.022   0.112  11.190
  402MPD2    C5 6187   3.916   0.200  11.182
  402MPD2     H 6188   3.882   4.690  11.390
  402MPD2    H1 6189   4.106   0.131  11.125
  402MPD2    H2 6190   3.733   0.271  11.255
  402MPD2    H3 6191   3.921   0.289  11.119
  402MPD2     N 6192   4.105   4.690  11.262
  402MPD2    H5 6193   4.083   4.602  11.308
  402MPD2    N1 6194   3.672   0.064  11.414
  402MPD2    H7 6195   3.598   0.130  11.391
  403MPD2     C 6196   4.496   4.307  11.627
  403MPD2    C1 6197   4.412   4.223  11.551
  403MPD2    C2 6198   4.379   4.097  11.602
  403MPD2    C3 6199   4.429   4.056  11.722
  403MPD2    C4 6200   4.515   4.143  11.792
  403MPD2    C5 6201   4.545   4.266  11.749
  403MPD2     H 6202   4.303   4.039  11.552
  403MPD2    H1 6203   4.564   4.103  11.881
  403MPD2    H2 6204   4.513   4.411  11.601
  403MPD2    H3 6205   4.597   4.340  11.809
  403MPD2     N 6206   4.384   3.931  11.773
  403MPD2    H5 6207   4.301   3.897  11.727
  403MPD2    N1 6208   4.352   4.285  11.440
  403MPD2    H7 6209   4.381   4.382  11.429
  404MPD2     C 6210   0.529   2.588   6.424
  404MPD2    C1 6211   0.516   2.630   6.554
  404MPD2    C2 6212   0.395   2.597   6.615
  404MPD2    C3 6213   0.301   2.524   6.549
  404MPD2    C4 6214   0.312   2.493   6.420
  404MPD2    C5 6215   0.437   2.516   6.363
  404MPD2     H 6216   0.384   2.618   6.721
  404MPD2    H1 6217   0.226   2.458   6.364
  404MPD2    H2 6218   0.613   2.616   6.360
  404MPD2    H3 6219   0.462   2.485   6.262
  404MPD2     N 6220   0.178   2.505   6.621
  404MPD2    H5 6221   0.176   2.536   6.718
  404MPD2    N1 6222   0.607   2.700   6.633
  404MPD2    H7 6223   0.591   2.714   6.732
  405MPD2     C 6224   4.395   1.921   7.243
  405MPD2    C1 6225   4.397   2.046   7.294
  405MPD2    C2 6226   4.426   2.148   7.214
  405MPD2    C3 6227   4.452   2.126   7.081
  405MPD2    C4 6228   4.456   1.998   7.031
  405MPD2    C5 6229   4.419   1.892   7.108
  405MPD2     H 6230   4.430   2.250   7.253
  405MPD2    H1 6231   4.472   1.972   6.927
  405MPD2    H2 6232   4.380   1.826   7.292
  405MPD2    H3 6233   4.426   1.791   7.069
  405MPD2     N 6234   4.498   2.235   7.002
  405MPD2    H5 6235   4.504   2.324   7.052
  405MPD2    N1 6236   4.367   2.062   7.431
  405MPD2    H7 6237   4.320   2.148   7.457
  406MPD2     C 6238   0.901   1.607   9.319
  406MPD2    C1 6239   0.909   1.745   9.287
  406MPD2    C2 6240   0.851   1.775   9.161
  406MPD2    C3 6241   0.787   1.687   9.077
  406MPD2    C4 6242   0.797   1.553   9.116
  406MPD2    C5 6243   0.850   1.517   9.231
  406MPD2     H 6244   0.833   1.879   9.137
  406MPD2    H1 6245   0.754   1.473   9.057
  406MPD2    H2 6246   0.950   1.577   9.410
  406MPD2    H3 6247   0.848   1.411   9.254
  406MPD2     N 6248   0.717   1.721   8.952
  406MPD2    H5 6249   0.671   1.645   8.903
  406MPD2    N1 6250   0.958   1.843   9.378
  406MPD2    H7 6251   0.941   1.833   9.477
  407MPD2     C 6252   0.801   2.628  13.985
  407MPD2    C1 6253   0.802   2.749  13.924
  407MPD2    C2 6254   0.693   2.835  13.935
  407MPD2    C3 6255   0.586   2.798  14.004
  407MPD2    C4 6256   0.586   2.678  14.072
  407MPD2    C5 6257   0.693   2.593  14.061
  407MPD2     H 6258   0.686   2.921  13.869
  407MPD2    H1 6259   0.503   2.634  14.125
  407MPD2    H2 6260   0.891   2.570  13.972
  407MPD2    H3 6261   0.694   2.498  14.114
  407MPD2     N 6262   0.470   2.876  13.989
  407MPD2    H5 6263   0.480   2.964  13.939
  407MPD2    N1 6264   0.906   2.765  13.828
  407MPD2    H7 6265   0.995   2.721  13.848
  408MPD2     C 6266   2.973   2.553   9.747
  408MPD2    C1 6267   3.107   2.544   9.711
  408MPD2    C2 6268   3.191   2.439   9.747
  408MPD2    C3 6269   3.136   2.335   9.814
  408MPD2    C4 6270   3.001   2.337   9.839
  408MPD2    C5 6271   2.925   2.458   9.827
  408MPD2     H 6272   3.298   2.447   9.729
  408MPD2    H1 6273   2.957   2.253   9.890
  408MPD2    H2 6274   2.909   2.637   9.724
  408MPD2    H3 6275   2.822   2.462   9.859
  408MPD2     N 6276   3.204   2.218   9.862
  408MPD2    H5 6277   3.151   2.145   9.907
  408MPD2    N1 6278   3.150   2.653   9.639
  408MPD2    H7 6279   3.083   2.728   9.628
  409MPD2     C 6280   3.411   1.492   9.343
  409MPD2    C1 6281   3.526   1.563   9.336
  409MPD2    C2 6282   3.550   1.661   9.435
  409MPD2    C3 6283   3.472   1.670   9.548
  409MPD2    C4 6284   3.349   1.596   9.546
  409MPD2    C5 6285   3.319   1.515   9.442
  409MPD2     H 6286   3.639   1.722   9.430
  409MPD2    H1 6287   3.280   1.612   9.628
  409MPD2    H2 6288   3.385   1.427   9.261
  409MPD2    H3 6289   3.223   1.465   9.439
  409MPD2     N 6290   3.513   1.760   9.653
  409MPD2    H5 6291   3.596   1.817   9.649
  409MPD2    N1 6292   3.620   1.553   9.222
  409MPD2    H7 6293   3.696   1.620   9.225
  410MPD2     C 6294   3.006   1.440  10.177
  410MPD2    C1 6295   3.074   1.444  10.060
  410MPD2    C2 6296   3.152   1.551  10.027
  410MPD2    C3 6297   3.160   1.654  10.113
  410MPD2    C4 6298   3.094   1.658  10.231
  410MPD2    C5 6299   3.019   1.549  10.260
  410MPD2     H 6300   3.217   1.541   9.941
  410MPD2    H1 6301   3.095   1.740  10.302
  410MPD2    H2 6302   2.945   1.359  10.217
  410MPD2    H3 6303   2.966   1.549  10.355
  410MPD2     N 6304   3.250   1.754  10.067
  410MPD2    H5 6305   3.289   1.741   9.974
  410MPD2    N1 6306   3.057   1.334   9.966
  410MPD2    H7 6307   3.003   1.255  10.000
  411MPD2     C 6308   0.326   3.546  10.908
  411MPD2    C1 6309   0.442   3.480  10.866
  411MPD2    C2 6310   0.432   3.358  10.802
  411MPD2    C3 6311   0.314   3.298  10.790
  411MPD2    C4 6312   0.203   3.357  10.844
  411MPD2    C5 6313   0.206   3.486  10.899
  411MPD2     H 6314   0.522   3.326  10.751
  411MPD2    H1 6315   0.103   3.328  10.814
  411MPD2    H2 6316   0.336   3.648  10.944
  411MPD2    H3 6317   0.112   3.530  10.929
  411MPD2     N 6318   0.288   3.180  10.724
  411MPD2    H5 6319   0.191   3.155  10.704
  411MPD2    N1 6320   0.573   3.537  10.870
  411MPD2    H7 6321   0.647   3.474  10.841
  412MPD2     C 6322   0.672   2.379  10.952
  412MPD2    C1 6323   0.734   2.463  10.859
  412MPD2    C2 6324   0.652   2.518  10.759
  412MPD2    C3 6325   0.513   2.514  10.771
  412MPD2    C4 6326   0.455   2.434  10.860
  412MPD2    C5 6327   0.534   2.360  10.946
  412MPD2     H 6328   0.691   2.588  10.686
  412MPD2    H1 6329   0.347   2.428  10.856
  412MPD2    H2 6330   0.726   2.328  11.032
  412MPD2    H3 6331   0.486   2.295  11.018
  412MPD2     N 6332   0.429   2.585  10.685
  412MPD2    H5 6333   0.335   2.605  10.720
  412MPD2    N1 6334   0.869   2.500  10.873
  412MPD2    H7 6335   0.904   2.572  10.811
  413MPD2     C 6336   2.240   0.037   9.571
  413MPD2    C1 6337   2.192   0.072   9.444
  413MPD2    C2 6338   2.283   0.103   9.344
  413MPD2    C3 6339   2.419   0.102   9.359
  413MPD2    C4 6340   2.467   0.070   9.480
  413MPD2    C5 6341   2.374   0.037   9.583
  413MPD2     H 6342   2.239   0.131   9.249
  413MPD2    H1 6343   2.572   0.053   9.499
  413MPD2    H2 6344   2.181   0.013   9.658
  413MPD2    H3 6345   2.417   0.017   9.681
  413MPD2     N 6346   2.508   0.145   9.262
  413MPD2    H5 6347   2.605   0.154   9.290
  413MPD2    N1 6348   2.048   0.086   9.431
  413MPD2    H7 6349   1.991   0.085   9.515
  414MPD2     C 6350   2.107   0.805   9.519
  414MPD2    C1 6351   2.025   0.809   9.409
  414MPD2    C2 6352   1.918   0.713   9.403
  414MPD2    C3 6353   1.915   0.614   9.503
  414MPD2    C4 6354   2.006   0.615   9.607
  414MPD2    C5 6355   2.099   0.713   9.615
  414MPD2     H 6356   1.854   0.720   9.316
  414MPD2    H1 6357   2.003   0.542   9.687
  414MPD2    H2 6358   2.193   0.870   9.536
  414MPD2    H3 6359   2.175   0.711   9.692
  414MPD2     N 6360   1.828   0.500   9.508
  414MPD2    H5 6361   1.850   0.427   9.574
  414MPD2    N1 6362   2.048   0.902   9.304
  414MPD2    H7 6363   2.005   0.883   9.214
  415MPD2     C 6364   2.344   0.282  15.161
  415MPD2    C1 6365   2.345   0.374  15.061
  415MPD2    C2 6366   2.468   0.429  15.021
  415MPD2    C3 6367   2.588   0.394  15.078
  415MPD2    C4 6368   2.586   0.296  15.174
  415MPD2    C5 6369   2.463   0.239  15.206
  415MPD2     H 6370   2.465   0.505  14.945
  415MPD2    H1 6371   2.675   0.248  15.212
  415MPD2    H2 6372   2.256   0.232  15.200
  415MPD2    H3 6373   2.465   0.155  15.274
  415MPD2     N 6374   2.703   0.458  15.023
  415MPD2    H5 6375   2.689   0.527  14.949
  415MPD2    N1 6376   2.231   0.428  14.998
  415MPD2    H7 6377   2.241   0.497  14.924
  416MPD2     C 6378   3.067   0.594  14.365
  416MPD2    C1 6379   3.152   0.518  14.438
  416MPD2    C2 6380   3.269   0.469  14.371
  416MPD2    C3 6381   3.293   0.480  14.232
  416MPD2    C4 6382   3.209   0.558  14.165
  416MPD2    C5 6383   3.101   0.607  14.236
  416MPD2     H 6384   3.332   0.397  14.421
  416MPD2    H1 6385   3.195   0.576  14.059
  416MPD2    H2 6386   2.979   0.647  14.400
  416MPD2    H3 6387   3.029   0.669  14.184
  416MPD2     N 6388   3.399   0.425  14.152
  416MPD2    H5 6389   3.394   0.435  14.051
  416MPD2    N1 6390   3.141   0.488  14.575
  416MPD2    H7 6391   3.200   0.413  14.611
  417MPD2     C 6392   3.004   4.039  12.468
  417MPD2    C1 6393   3.080   3.977  12.565
  417MPD2    C2 6394   3.047   3.977  12.701
  417MPD2    C3 6395   2.932   4.048  12.746
  417MPD2    C4 6396   2.871   4.115  12.647
  417MPD2    C5 6397   2.905   4.118  12.510
  417MPD2     H 6398   3.103   3.914  12.768
  417MPD2    H1 6399   2.790   4.185  12.664
  417MPD2    H2 6400   3.024   4.033  12.362
  417MPD2    H3 6401   2.832   4.172  12.451
  417MPD2     N 6402   2.885   4.047  12.882
  417MPD2    H5 6403   2.802   4.103  12.900
  417MPD2    N1 6404   3.181   3.892  12.514
  417MPD2    H7 6405   3.180   3.867  12.416
  418MPD2     C 6406   2.427   4.685  13.125
  418MPD2    C1 6407   2.365   4.579  13.179
  418MPD2    C2 6408   2.429   4.466  13.197
  418MPD2    C3 6409   2.559   4.458  13.149
  418MPD2    C4 6410   2.619   4.561  13.086
  418MPD2    C5 6411   2.554   4.678  13.081
  418MPD2     H 6412   2.371   4.386  13.241
  418MPD2    H1 6413   2.725   4.550  13.067
  418MPD2    H2 6414   2.386   4.785  13.128
  418MPD2    H3 6415   2.611   4.769  13.063
  418MPD2     N 6416   2.639   4.348  13.158
  418MPD2    H5 6417   2.714   4.349  13.090
  418MPD2    N1 6418   2.233   4.580  13.224
  418MPD2    H7 6419   2.196   4.488  13.246
  419MPD2     C 6420   2.757   3.656  13.651
  419MPD2    C1 6421   2.646   3.712  13.584
  419MPD2    C2 6422   2.526   3.702  13.656
  419MPD2    C3 6423   2.522   3.653  13.790
  419MPD2    C4 6424   2.636   3.601  13.843
  419MPD2    C5 6425   2.749   3.605  13.775
  419MPD2     H 6426   2.435   3.738  13.609
  419MPD2    H1 6427   2.634   3.553  13.940
  419MPD2    H2 6428   2.855   3.657  13.605
  419MPD2    H3 6429   2.837   3.559  13.818
  419MPD2     N 6430   2.396   3.666  13.848
  419MPD2    H5 6431   2.328   3.722  13.798
  419MPD2    N1 6432   2.656   3.783  13.464
  419MPD2    H7 6433   2.575   3.836  13.433
  420MPD2     C 6434   1.813   0.606  11.550
  420MPD2    C1 6435   1.676   0.623  11.539
  420MPD2    C2 6436   1.610   0.530  11.460
  420MPD2    C3 6437   1.675   0.441  11.379
  420MPD2    C4 6438   1.812   0.424  11.391
  420MPD2    C5 6439   1.879   0.506  11.482
  420MPD2     H 6440   1.505   0.547  11.442
  420MPD2    H1 6441   1.860   0.358  11.321
  420MPD2    H2 6442   1.866   0.678  11.611
  420MPD2    H3 6443   1.986   0.491  11.494
  420MPD2     N 6444   1.614   0.380  11.273
  420MPD2    H5 6445   1.664   0.304  11.230
  420MPD2    N1 6446   1.616   0.736  11.601
  420MPD2    H7 6447   1.673   0.811  11.637
  421MPD2     C 6448   0.835   1.105  11.852
  421MPD2    C1 6449   0.902   1.174  11.749
  421MPD2    C2 6450   0.836   1.278  11.686
  421MPD2    C3 6451   0.713   1.319  11.725
  421MPD2    C4 6452   0.656   1.254  11.825
  421MPD2    C5 6453   0.711   1.152  11.890
  421MPD2     H 6454   0.889   1.321  11.602
  421MPD2    H1 6455   0.562   1.294  11.862
  421MPD2    H2 6456   0.873   1.017  11.904
  421MPD2    H3 6457   0.658   1.116  11.977
  421MPD2     N 6458   0.637   1.416  11.667
  421MPD2    H5 6459   0.554   1.446  11.716
  421MPD2    N1 6460   1.037   1.144  11.713
  421MPD2    H7 6461   1.090   1.195  11.643
  422MPD2     C 6462   1.465   1.546  11.474
  422MPD2    C1 6463   1.530   1.463  11.558
  422MPD2    C2 6464   1.627   1.513  11.643
  422MPD2    C3 6465   1.659   1.647  11.652
  422MPD2    C4 6466   1.594   1.731  11.558
  422MPD2    C5 6467   1.490   1.682  11.478
  422MPD2     H 6468   1.682   1.446  11.708
  422MPD2    H1 6469   1.611   1.838  11.555
  422MPD2    H2 6470   1.383   1.522  11.408
  422MPD2    H3 6471   1.435   1.755  11.420
  422MPD2     N 6472   1.741   1.701  11.757
  422MPD2    H5 6473   1.751   1.802  11.756
  422MPD2    N1 6474   1.481   1.331  11.563
  422MPD2    H7 6475   1.394   1.311  11.515
  423MPD2     C 6476   2.320   1.349  13.230
  423MPD2    C1 6477   2.209   1.428  13.244
  423MPD2    C2 6478   2.179   1.521  13.147
  423MPD2    C3 6479   2.256   1.531  13.035
  423MPD2    C4 6480   2.367   1.449  13.020
  423MPD2    C5 6481   2.397   1.355  13.114
  423MPD2     H 6482   2.102   1.596  13.164
  423MPD2    H1 6483   2.431   1.465  12.934
  423MPD2    H2 6484   2.363   1.287  13.308
  423MPD2    H3 6485   2.479   1.286  13.101
  423MPD2     N 6486   2.223   1.637  12.949
  423MPD2    H5 6487   2.137   1.688  12.967
  423MPD2    N1 6488   2.142   1.415  13.368
  423MPD2    H7 6489   2.178   1.341  13.427
  424MPD2     C 6490   2.497   0.826  13.798
  424MPD2    C1 6491   2.443   0.869  13.680
  424MPD2    C2 6492   2.367   0.985  13.676
  424MPD2    C3 6493   2.361   1.064  13.792
  424MPD2    C4 6494   2.413   1.018  13.907
  424MPD2    C5 6495   2.478   0.899  13.910
  424MPD2     H 6496   2.323   1.018  13.582
  424MPD2    H1 6497   2.401   1.076  13.998
  424MPD2    H2 6498   2.559   0.738  13.795
  424MPD2    H3 6499   2.525   0.864  14.002
  424MPD2     N 6500   2.305   1.190  13.786
  424MPD2    H5 6501   2.299   1.241  13.874
  424MPD2    N1 6502   2.441   0.782  13.561
  424MPD2    H7 6503   2.394   0.821  13.480
  425MPD2     C 6504   4.416   1.959   8.815
  425MPD2    C1 6505   4.338   1.922   8.707
  425MPD2    C2 6506   4.209   1.866   8.722
  425MPD2    C3 6507   4.158   1.855   8.848
  425MPD2    C4 6508   4.233   1.893   8.957
  425MPD2    C5 6509   4.360   1.946   8.935
  425MPD2     H 6510   4.148   1.841   8.636
  425MPD2    H1 6511   4.197   1.877   9.058
  425MPD2    H2 6512   4.512   2.006   8.799
  425MPD2    H3 6513   4.418   1.975   9.022
  425MPD2     N 6514   4.037   1.780   8.848
  425MPD2    H5 6515   4.000   1.755   8.757
  425MPD2    N1 6516   4.378   1.931   8.574
  425MPD2    H7 6517   4.307   1.918   8.502
  426MPD2     C 6518   2.675   4.124   7.974
  426MPD2    C1 6519   2.625   4.232   8.044
  426MPD2    C2 6520   2.532   4.313   7.980
  426MPD2    C3 6521   2.505   4.301   7.844
  426MPD2    C4 6522   2.566   4.198   7.773
  426MPD2    C5 6523   2.654   4.116   7.839
  426MPD2     H 6524   2.475   4.389   8.034
  426MPD2    H1 6525   2.550   4.195   7.666
  426MPD2    H2 6526   2.744   4.055   8.020
  426MPD2    H3 6527   2.699   4.034   7.783
  426MPD2     N 6528   2.422   4.395   7.781
  426MPD2    H5 6529   2.418   4.399   7.679
  426MPD2    N1 6530   2.640   4.250   8.184
  426MPD2    H7 6531   2.589   4.332   8.216
  427MPD2     C 6532   2.410   0.372   7.773
  427MPD2    C1 6533   2.304   0.296   7.818
  427MPD2    C2 6534   2.260   0.319   7.944
  427MPD2    C3 6535   2.327   0.397   8.035
  427MPD2    C4 6536   2.442   0.462   7.999
  427MPD2    C5 6537   2.477   0.456   7.862
  427MPD2     H 6538   2.169   0.270   7.974
  427MPD2    H1 6539   2.496   0.532   8.062
  427MPD2    H2 6540   2.436   0.373   7.667
  427MPD2    H3 6541   2.561   0.514   7.828
  427MPD2     N 6542   2.285   0.393   8.170
  427MPD2    H5 6543   2.196   0.346   8.180
  427MPD2    N1 6544   2.249   0.195   7.737
  427MPD2    H7 6545   2.305   0.184   7.653
  428MPD2     C 6546   2.340   4.559   7.110
  428MPD2    C1 6547   2.366   4.477   7.216
  428MPD2    C2 6548   2.426   4.352   7.198
  428MPD2    C3 6549   2.432   4.298   7.074
  428MPD2    C4 6550   2.404   4.377   6.963
  428MPD2    C5 6551   2.364   4.509   6.985
  428MPD2     H 6552   2.465   4.289   7.276
  428MPD2    H1 6553   2.423   4.347   6.861
  428MPD2    H2 6554   2.300   4.660   7.117
  428MPD2    H3 6555   2.336   4.559   6.893
  428MPD2     N 6556   2.483   4.168   7.047
  428MPD2    H5 6557   2.506   4.159   6.948
  428MPD2    N1 6558   2.339   4.514   7.347
  428MPD2    H7 6559   2.388   4.449   7.409
  429MPD2     C 6560   4.130   0.402  11.489
  429MPD2    C1 6561   4.082   0.372  11.617
  429MPD2    C2 6562   4.175   0.374  11.715
  429MPD2    C3 6563   4.314   0.379  11.688
  429MPD2    C4 6564   4.356   0.416  11.563
  429MPD2    C5 6565   4.263   0.422  11.464
  429MPD2     H 6566   4.150   0.354  11.819
  429MPD2    H1 6567   4.463   0.424  11.542
  429MPD2    H2 6568   4.061   0.402  11.405
  429MPD2    H3 6569   4.291   0.437  11.361
  429MPD2     N 6570   4.404   0.365  11.794
  429MPD2    H5 6571   4.362   0.355  11.886
  429MPD2    N1 6572   3.937   0.351  11.624
  429MPD2    H7 6573   3.884   0.407  11.558
  430MPD2     C 6574   3.461   0.462  12.492
  430MPD2    C1 6575   3.467   0.555  12.386
  430MPD2    C2 6576   3.492   0.505  12.260
  430MPD2    C3 6577   3.521   0.376  12.239
  430MPD2    C4 6578   3.521   0.287  12.342
  430MPD2    C5 6579   3.484   0.328  12.466
  430MPD2     H 6580   3.495   0.574  12.176
  430MPD2    H1 6581   3.536   0.180  12.334
  430MPD2    H2 6582   3.441   0.500  12.591
  430MPD2    H3 6583   3.475   0.252  12.543
  430MPD2     N 6584   3.545   0.332  12.107
  430MPD2    H5 6585   3.546   0.402  12.033
  430MPD2    N1 6586   3.436   0.688  12.404
  430MPD2    H7 6587   3.426   0.715  12.502
  431MPD2     C 6588   4.185   3.247   9.011
  431MPD2    C1 6589   4.164   3.172   9.123
  431MPD2    C2 6590   4.034   3.177   9.175
  431MPD2    C3 6591   3.933   3.246   9.106
  431MPD2    C4 6592   3.961   3.309   8.985
  431MPD2    C5 6593   4.088   3.318   8.950
  431MPD2     H 6594   4.000   3.120   9.261
  431MPD2    H1 6595   3.880   3.354   8.928
  431MPD2    H2 6596   4.285   3.252   8.968
  431MPD2    H3 6597   4.111   3.360   8.853
  431MPD2     N 6598   3.807   3.258   9.169
  431MPD2    H5 6599   3.800   3.208   9.258
  431MPD2    N1 6600   4.273   3.103   9.184
  431MPD2    H7 6601   4.367   3.136   9.166
  432MPD2     C 6602   1.103   2.591  12.074
  432MPD2    C1 6603   1.223   2.640  12.104
  432MPD2    C2 6604   1.274   2.617  12.231
  432MPD2    C3 6605   1.199   2.578  12.340
  432MPD2    C4 6606   1.069   2.543  12.304
  432MPD2    C5 6607   1.028   2.548  12.176
  432MPD2     H 6608   1.375   2.647  12.256
  432MPD2    H1 6609   0.999   2.500  12.374
  432MPD2    H2 6610   1.066   2.602  11.973
  432MPD2    H3 6611   0.926   2.520  12.153
  432MPD2     N 6612   1.239   2.574  12.475
  432MPD2    H5 6613   1.174   2.544  12.547
  432MPD2    N1 6614   1.309   2.678  11.997
  432MPD2    H7 6615   1.292   2.621  11.915
  433MPD2     C 6616   0.870   3.173  12.269
  433MPD2    C1 6617   0.976   3.178  12.360
  433MPD2    C2 6618   0.950   3.212  12.492
  433MPD2    C3 6619   0.817   3.250  12.525
  433MPD2    C4 6620   0.712   3.239  12.434
  433MPD2    C5 6621   0.737   3.205  12.306
  433MPD2     H 6622   1.029   3.221  12.566
  433MPD2    H1 6623   0.610   3.266  12.460
  433MPD2    H2 6624   0.880   3.134  12.169
  433MPD2    H3 6625   0.659   3.187  12.233
  433MPD2     N 6626   0.780   3.283  12.659
  433MPD2    H5 6627   0.680   3.286  12.679
  433MPD2    N1 6628   1.113   3.137  12.324
  433MPD2    H7 6629   1.174   3.132  12.405
  434MPD2     C 6630   3.624   3.733  11.510
  434MPD2    C1 6631   3.706   3.822  11.567
  434MPD2    C2 6632   3.805   3.786  11.654
  434MPD2    C3 6633   3.853   3.655  11.665
  434MPD2    C4 6634   3.803   3.563  11.580
  434MPD2    C5 6635   3.685   3.601  11.516
  434MPD2     H 6636   3.855   3.868  11.705
  434MPD2    H1 6637   3.827   3.458  11.576
  434MPD2    H2 6638   3.527   3.758  11.470
  434MPD2    H3 6639   3.635   3.526  11.456
  434MPD2     N 6640   3.970   3.625  11.740
  434MPD2    H5 6641   4.021   3.539  11.723
  434MPD2    N1 6642   3.693   3.961  11.556
  434MPD2    H7 6643   3.759   4.015  11.610
  435MPD2     C 6644   1.399   0.031  12.745
  435MPD2    C1 6645   1.495   4.769  12.668
  435MPD2    C2 6646   1.603   0.060  12.636
  435MPD2    C3 6647   1.622   0.186  12.693
  435MPD2    C4 6648   1.522   0.236  12.775
  435MPD2    C5 6649   1.414   0.156  12.793
  435MPD2     H 6650   1.672   0.021  12.562
  435MPD2    H1 6651   1.524   0.337  12.814
  435MPD2    H2 6652   1.316   4.764  12.780
  435MPD2    H3 6653   1.335   0.201  12.853
  435MPD2     N 6654   1.732   0.269  12.662
  435MPD2    H5 6655   1.725   0.367  12.687
  435MPD2    N1 6656   1.482   4.636  12.632
  435MPD2    H7 6657   1.416   4.573  12.677
  436MPD2     C 6658   1.843   4.351  12.965
  436MPD2    C1 6659   1.943   4.370  12.870
  436MPD2    C2 6660   2.022   4.262  12.839
  436MPD2    C3 6661   1.993   4.137  12.884
  436MPD2    C4 6662   1.895   4.125  12.977
  436MPD2    C5 6663   1.814   4.227  13.009
  436MPD2     H 6664   2.092   4.271  12.757
  436MPD2    H1 6665   1.881   4.035  13.034
  436MPD2    H2 6666   1.776   4.430  12.995
  436MPD2    H3 6667   1.727   4.211  13.073
  436MPD2     N 6668   2.060   4.018  12.851
  436MPD2    H5 6669   2.030   3.932  12.896
  436MPD2    N1 6670   1.966   4.487  12.795
  436MPD2    H7 6671   2.050   4.506  12.740
  437MPD2     C 6672   2.043   4.591  11.859
  437MPD2    C1 6673   2.082   4.510  11.967
  437MPD2    C2 6674   2.061   4.552  12.102
  437MPD2    C3 6675   2.009   4.677  12.132
  437MPD2    C4 6676   1.963   4.751  12.024
  437MPD2    C5 6677   1.979   4.716  11.888
  437MPD2     H 6678   2.093   4.493  12.188
  437MPD2    H1 6679   1.923   0.057  12.038
  437MPD2    H2 6680   2.043   4.561  11.755
  437MPD2    H3 6681   1.945   4.777  11.806
  437MPD2     N 6682   2.012   4.738  12.258
  437MPD2    H5 6683   1.968   0.032  12.284
  437MPD2    N1 6684   2.149   4.387  11.940
  437MPD2    H7 6685   2.179   4.377  11.844
  438MPD2     C 6686   3.569   2.685  12.636
  438MPD2    C1 6687   3.592   2.811  12.688
  438MPD2    C2 6688   3.481   2.889  12.706
  438MPD2    C3 6689   3.353   2.854  12.660
  438MPD2    C4 6690   3.341   2.736  12.588
  438MPD2    C5 6691   3.451   2.654  12.580
  438MPD2     H 6692   3.503   2.987  12.747
  438MPD2    H1 6693   3.245   2.709  12.545
  438MPD2    H2 6694   3.649   2.615  12.614
  438MPD2    H3 6695   3.443   2.556  12.533
  438MPD2     N 6696   3.234   2.922  12.672
  438MPD2    H5 6697   3.150   2.881  12.631
  438MPD2    N1 6698   3.715   2.856  12.745
  438MPD2    H7 6699   3.706   2.930  12.814
  439MPD2     C 6700   2.026   4.357   8.418
  439MPD2    C1 6701   1.992   4.433   8.309
  439MPD2    C2 6702   2.097   4.492   8.237
  439MPD2    C3 6703   2.231   4.479   8.270
  439MPD2    C4 6704   2.256   4.386   8.366
  439MPD2    C5 6705   2.156   4.333   8.443
  439MPD2     H 6706   2.071   4.559   8.156
  439MPD2    H1 6707   2.356   4.379   8.406
  439MPD2    H2 6708   1.947   4.315   8.480
  439MPD2    H3 6709   2.188   4.272   8.527
  439MPD2     N 6710   2.333   4.551   8.203
  439MPD2    H5 6711   2.297   4.606   8.126
  439MPD2    N1 6712   1.862   4.451   8.263
  439MPD2    H7 6713   1.855   4.478   8.165
  440MPD2     C 6714   3.072   0.542   8.245
  440MPD2    C1 6715   3.087   0.410   8.293
  440MPD2    C2 6716   2.971   0.333   8.312
  440MPD2    C3 6717   2.845   0.380   8.278
  440MPD2    C4 6718   2.832   0.513   8.234
  440MPD2    C5 6719   2.941   0.593   8.225
  440MPD2     H 6720   2.986   0.227   8.333
  440MPD2    H1 6721   2.736   0.557   8.206
  440MPD2    H2 6722   3.152   0.611   8.221
  440MPD2    H3 6723   2.921   0.692   8.186
  440MPD2     N 6724   2.728   0.300   8.267
  440MPD2    H5 6725   2.644   0.346   8.235
  440MPD2    N1 6726   3.221   0.372   8.320
  440MPD2    H7 6727   3.291   0.445   8.310
  441MPD2     C 6728   2.859   0.262   7.732
  441MPD2    C1 6729   2.733   0.200   7.726
  441MPD2    C2 6730   2.653   0.226   7.616
  441MPD2    C3 6731   2.703   0.310   7.518
  441MPD2    C4 6732   2.828   0.360   7.519
  441MPD2    C5 6733   2.909   0.336   7.630
  441MPD2     H 6734   2.557   0.177   7.608
  441MPD2    H1 6735   2.878   0.414   7.439
  441MPD2    H2 6736   2.919   0.257   7.821
  441MPD2    H3 6737   3.008   0.381   7.638
  441MPD2     N 6738   2.610   0.350   7.424
  441MPD2    H5 6739   2.517   0.309   7.429
  441MPD2    N1 6740   2.704   0.127   7.840
  441MPD2    H7 6741   2.771   0.135   7.916
  442MPD2     C 6742   0.506   4.395  12.991
  442MPD2    C1 6743   0.455   4.288  13.065
  442MPD2    C2 6744   0.350   4.311  13.157
  442MPD2    C3 6745   0.298   4.441  13.177
  442MPD2    C4 6746   0.349   4.541  13.100
  442MPD2    C5 6747   0.455   4.523  13.012
  442MPD2     H 6748   0.314   4.232  13.221
  442MPD2    H1 6749   0.304   4.640  13.108
  442MPD2    H2 6750   0.596   4.397  12.931
  442MPD2    H3 6751   0.485   4.608  12.952
  442MPD2     N 6752   0.203   4.474  13.273
  442MPD2    H5 6753   0.187   4.573  13.283
  442MPD2    N1 6754   0.529   4.169  13.059
  442MPD2    H7 6755   0.593   4.159  12.981
  443MPD2     C 6756   1.497   3.361  10.549
  443MPD2    C1 6757   1.615   3.296  10.502
  443MPD2    C2 6758   1.635   3.170  10.556
  443MPD2    C3 6759   1.543   3.114  10.637
  443MPD2    C4 6760   1.422   3.170  10.666
  443MPD2    C5 6761   1.398   3.293  10.625
  443MPD2     H 6762   1.727   3.120  10.530
  443MPD2    H1 6763   1.345   3.114  10.716
  443MPD2    H2 6764   1.477   3.463  10.519
  443MPD2    H3 6765   1.306   3.345  10.649
  443MPD2     N 6766   1.565   2.988  10.696
  443MPD2    H5 6767   1.501   2.951  10.765
  443MPD2    N1 6768   1.695   3.375  10.412
  443MPD2    H7 6769   1.667   3.472  10.406
  444MPD2     C 6770   2.261   3.197  10.687
  444MPD2    C1 6771   2.155   3.174  10.606
  444MPD2    C2 6772   2.075   3.061  10.622
  444MPD2    C3 6773   2.104   2.974  10.726
  444MPD2    C4 6774   2.225   2.992  10.804
  444MPD2    C5 6775   2.297   3.101  10.778
  444MPD2     H 6776   1.992   3.049  10.552
  444MPD2    H1 6777   2.262   2.924  10.880
  444MPD2    H2 6778   2.325   3.283  10.675
  444MPD2    H3 6779   2.388   3.118  10.835
  444MPD2     N 6780   2.017   2.870  10.755
  444MPD2    H5 6781   1.948   2.850  10.683
  444MPD2    N1 6782   2.103   3.267  10.516
  444MPD2    H7 6783   2.016   3.242  10.471
  445MPD2     C 6784   2.530   3.078   9.844
  445MPD2    C1 6785   2.554   3.215   9.859
  445MPD2    C2 6786   2.446   3.289   9.892
  445MPD2    C3 6787   2.320   3.239   9.916
  445MPD2    C4 6788   2.295   3.102   9.900
  445MPD2    C5 6789   2.408   3.027   9.867
  445MPD2     H 6790   2.467   3.394   9.913
  445MPD2    H1 6791   2.208   3.049   9.937
  445MPD2    H2 6792   2.613   3.009   9.842
  445MPD2    H3 6793   2.393   2.920   9.854
  445MPD2     N 6794   2.226   3.322   9.992
  445MPD2    H5 6795   2.275   3.398  10.037
  445MPD2    N1 6796   2.686   3.259   9.861
  445MPD2    H7 6797   2.759   3.189   9.857
  446MPD2     C 6798   3.642   1.336  14.734
  446MPD2    C1 6799   3.507   1.351  14.760
  446MPD2    C2 6800   3.440   1.443  14.678
  446MPD2    C3 6801   3.514   1.498  14.571
  446MPD2    C4 6802   3.645   1.472  14.537
  446MPD2    C5 6803   3.711   1.396  14.626
  446MPD2     H 6804   3.338   1.468  14.705
  446MPD2    H1 6805   3.705   1.513  14.456
  446MPD2    H2 6806   3.696   1.279  14.809
  446MPD2    H3 6807   3.819   1.392  14.616
  446MPD2     N 6808   3.446   1.579  14.477
  446MPD2    H5 6809   3.509   1.620  14.409
  446MPD2    N1 6810   3.457   1.307  14.884
  446MPD2    H7 6811   3.520   1.266  14.952
  447MPD2     C 6812   3.260   1.914  14.778
  447MPD2    C1 6813   3.166   1.902  14.885
  447MPD2    C2 6814   3.183   1.805  14.981
  447MPD2    C3 6815   3.296   1.723  14.974
  447MPD2    C4 6816   3.395   1.738  14.874
  447MPD2    C5 6817   3.372   1.835  14.768
  447MPD2     H 6818   3.123   1.790  15.070
  447MPD2    H1 6819   3.484   1.678  14.886
  447MPD2    H2 6820   3.237   1.997  14.713
  447MPD2    H3 6821   3.447   1.852  14.692
  447MPD2     N 6822   3.332   1.616  15.064
  447MPD2    H5 6823   3.411   1.556  15.042
  447MPD2    N1 6824   3.048   1.976  14.910
  447MPD2    H7 6825   2.988   1.955  14.989
  448MPD2     C 6826   2.488   1.383  15.324
  448MPD2    C1 6827   2.555   1.412  15.203
  448MPD2    C2 6828   2.682   1.379  15.183
  448MPD2    C3 6829   2.760   1.332  15.291
  448MPD2    C4 6830   2.704   1.335  15.417
  448MPD2    C5 6831   2.566   1.345  15.431
  448MPD2     H 6832   2.735   1.405  15.092
  448MPD2    H1 6833   2.762   1.313  15.506
  448MPD2    H2 6834   2.381   1.400  15.330
  448MPD2    H3 6835   2.512   1.319  15.521
  448MPD2     N 6836   2.896   1.313  15.273
  448MPD2    H5 6837   2.956   1.304  15.354
  448MPD2    N1 6838   2.480   1.481  15.104
  448MPD2    H7 6839   2.380   1.473  15.119
  449MPD2     C 6840   0.468   4.414   8.540
  449MPD2    C1 6841   0.435   4.291   8.486
  449MPD2    C2 6842   0.419   4.177   8.561
  449MPD2    C3 6843   0.442   4.181   8.699
  449MPD2    C4 6844   0.486   4.302   8.754
  449MPD2    C5 6845   0.496   4.416   8.673
  449MPD2     H 6846   0.387   4.086   8.511
  449MPD2    H1 6847   0.484   4.309   8.862
  449MPD2    H2 6848   0.472   4.500   8.475
  449MPD2    H3 6849   0.520   4.512   8.718
  449MPD2     N 6850   0.410   4.081   8.792
  449MPD2    H5 6851   0.392   4.118   8.885
  449MPD2    N1 6852   0.413   4.277   8.345
  449MPD2    H7 6853   0.392   4.180   8.324
  450MPD2     C 6854   0.518   3.891   9.350
  450MPD2    C1 6855   0.429   3.847   9.253
  450MPD2    C2 6856   0.463   3.752   9.158
  450MPD2    C3 6857   0.591   3.703   9.160
  450MPD2    C4 6858   0.685   3.756   9.244
  450MPD2    C5 6859   0.647   3.855   9.330
  450MPD2     H 6860   0.386   3.713   9.093
  450MPD2    H1 6861   0.790   3.736   9.228
  450MPD2    H2 6862   0.486   3.954   9.432
  450MPD2    H3 6863   0.724   3.889   9.399
  450MPD2     N 6864   0.631   3.620   9.054
  450MPD2    H5 6865   0.564   3.609   8.978
  450MPD2    N1 6866   0.302   3.904   9.264
  450MPD2    H7 6867   0.294   3.950   9.354
  451MPD2     C 6868   3.400   3.220  12.371
  451MPD2    C1 6869   3.281   3.273  12.419
  451MPD2    C2 6870   3.272   3.335  12.541
  451MPD2    C3 6871   3.385   3.332  12.628
  451MPD2    C4 6872   3.503   3.272  12.580
  451MPD2    C5 6873   3.506   3.233  12.455
  451MPD2     H 6874   3.175   3.364  12.581
  451MPD2    H1 6875   3.594   3.259  12.638
  451MPD2    H2 6876   3.417   3.191  12.268
  451MPD2    H3 6877   3.604   3.202  12.418
  451MPD2     N 6878   3.382   3.381  12.765
  451MPD2    H5 6879   3.464   3.359  12.821
  451MPD2    N1 6880   3.155   3.266  12.347
  451MPD2    H7 6881   3.076   3.320  12.381
  452MPD2     C 6882   4.788   2.938   8.906
  452MPD2    C1 6883   0.016   2.887   9.033
  452MPD2    C2 6884   0.143   2.838   9.058
  452MPD2    C3 6885   0.223   2.823   8.943
  452MPD2    C4 6886   0.191   2.870   8.818
  452MPD2    C5 6887   0.079   2.936   8.803
  452MPD2     H 6888   0.177   2.796   9.152
  452MPD2    H1 6889   0.271   2.874   8.744
  452MPD2    H2 6890   4.697   2.997   8.896
  452MPD2    H3 6891   0.062   2.992   8.711
  452MPD2     N 6892   0.355   2.784   8.957
  452MPD2    H5 6893   0.414   2.798   8.875
  452MPD2    N1 6894   4.696   2.892   9.121
  452MPD2    H7 6895   4.613   2.937   9.083
  453MPD2     C 6896   2.303   1.022   7.458
  453MPD2    C1 6897   2.242   0.958   7.349
  453MPD2    C2 6898   2.139   1.021   7.285
  453MPD2    C3 6899   2.102   1.156   7.322
  453MPD2    C4 6900   2.165   1.216   7.427
  453MPD2    C5 6901   2.262   1.151   7.494
  453MPD2     H 6902   2.094   0.969   7.201
  453MPD2    H1 6903   2.139   1.317   7.455
  453MPD2    H2 6904   2.375   0.975   7.524
  453MPD2    H3 6905   2.303   1.207   7.577
  453MPD2     N 6906   1.997   1.227   7.256
  453MPD2    H5 6907   1.961   1.309   7.303
  453MPD2    N1 6908   2.289   0.824   7.319
  453MPD2    H7 6909   2.353   0.784   7.387
  454MPD2     C 6910   2.574   4.654  15.438
  454MPD2    C1 6911   2.590   4.643  15.302
  454MPD2    C2 6912   2.522   4.541  15.238
  454MPD2    C3 6913   2.445   4.455  15.312
  454MPD2    C4 6914   2.431   4.466  15.442
  454MPD2    C5 6915   2.507   4.559  15.509
  454MPD2     H 6916   2.529   4.538  15.130
  454MPD2    H1 6917   2.366   4.404  15.504
  454MPD2    H2 6918   2.617   4.741  15.486
  454MPD2    H3 6919   2.485   4.577  15.613
  454MPD2     N 6920   2.361   4.362  15.246
  454MPD2    H5 6921   2.284   4.322  15.299
  454MPD2    N1 6922   2.671   4.740  15.235
  454MPD2    H7 6923   2.746   4.777  15.292
  455MPD2     C 6924   3.324   0.191  15.319
  455MPD2    C1 6925   3.194   0.224  15.314
  455MPD2    C2 6926   3.147   0.336  15.381
  455MPD2    C3 6927   3.228   0.410  15.460
  455MPD2    C4 6928   3.357   0.376  15.469
  455MPD2    C5 6929   3.403   0.262  15.407
  455MPD2     H 6930   3.048   0.370  15.353
  455MPD2    H1 6931   3.429   0.426  15.533
  455MPD2    H2 6932   3.366   0.111  15.258
  455MPD2    H3 6933   3.509   0.241  15.408
  455MPD2     N 6934   3.176   0.527  15.533
  455MPD2    H5 6935   3.243   0.577  15.589
  455MPD2    N1 6936   3.102   0.163  15.221
  455MPD2    H7 6937   3.008   0.199  15.227
  456MPD2     C 6938   3.145   0.113  14.428
  456MPD2    C1 6939   3.024   0.152  14.490
  456MPD2    C2 6940   2.929   0.211  14.413
  456MPD2    C3 6941   2.948   0.240  14.279
  456MPD2    C4 6942   3.066   0.199  14.216
  456MPD2    C5 6943   3.167   0.137  14.291
  456MPD2     H 6944   2.843   0.265  14.450
  456MPD2    H1 6945   3.084   0.206  14.110
  456MPD2    H2 6946   3.225   0.060  14.479
  456MPD2    H3 6947   3.261   0.100  14.251
  456MPD2     N 6948   2.849   0.323  14.205
  456MPD2    H5 6949   2.765   0.348  14.256
  456MPD2    N1 6950   3.010   0.102  14.621
  456MPD2    H7 6951   3.091   0.053  14.660
  457MPD2     C 6952   4.590   4.274  12.548
  457MPD2    C1 6953   4.589   4.216  12.672
  457MPD2    C2 6954   4.657   4.092  12.688
  457MPD2    C3 6955   4.733   4.040  12.590
  457MPD2    C4 6956   4.722   4.090  12.458
  457MPD2    C5 6957   4.647   4.200  12.438
  457MPD2     H 6958   4.664   4.039  12.782
  457MPD2    H1 6959   4.760   4.050  12.365
  457MPD2    H2 6960   4.531   4.364  12.538
  457MPD2    H3 6961   4.647   4.239  12.337
  457MPD2     N 6962   0.028   3.937  12.627
  457MPD2    H5 6963   0.028   3.907  12.724
  457MPD2    N1 6964   4.520   4.276  12.779
  457MPD2    H7 6965   4.469   4.364  12.771
  458MPD2     C 6966   0.224   3.454  13.411
  458MPD2    C1 6967   0.137   3.393  13.323
  458MPD2    C2 6968   0.142   3.433  13.190
  458MPD2    C3 6969   0.240   3.521  13.142
  458MPD2    C4 6970   0.326   3.582  13.233
  458MPD2    C5 6971   0.313   3.547  13.366
  458MPD2     H 6972   0.070   3.393  13.119
  458MPD2    H1 6973   0.404   3.651  13.203
  458MPD2    H2 6974   0.228   3.440  13.518
  458MPD2    H3 6975   0.373   3.597  13.441
  458MPD2     N 6976   0.246   3.543  12.998
  458MPD2    H5 6977   0.190   3.478  12.943
  458MPD2    N1 6978   0.036   3.303  13.361
  458MPD2    H7 6979   4.752   3.293  13.297
  459MPD2     C 6980   4.789   3.416  12.250
  459MPD2    C1 6981   0.067   3.422  12.376
  459MPD2    C2 6982   4.780   3.422  12.494
  459MPD2    C3 6983   4.641   3.418  12.491
  459MPD2    C4 6984   4.578   3.403  12.371
  459MPD2    C5 6985   4.653   3.405  12.254
  459MPD2     H 6986   0.031   3.410  12.592
  459MPD2    H1 6987   4.473   3.376  12.363
  459MPD2    H2 6988   0.047   3.422  12.154
  459MPD2    H3 6989   4.603   3.400  12.158
  459MPD2     N 6990   4.555   3.411  12.607
  459MPD2    H5 6991   4.456   3.410  12.583
  459MPD2    N1 6992   0.208   3.416  12.376
  459MPD2    H7 6993   0.259   3.388  12.293
  460MPD2     C 6994   1.283   2.379   9.970
  460MPD2    C1 6995   1.285   2.300  10.080
  460MPD2    C2 6996   1.173   2.223  10.116
  460MPD2    C3 6997   1.053   2.225  10.041
  460MPD2    C4 6998   1.053   2.305   9.933
  460MPD2    C5 6999   1.166   2.378   9.893
  460MPD2     H 7000   1.186   2.161  10.204
  460MPD2    H1 7001   0.967   2.309   9.866
  460MPD2    H2 7002   1.361   2.449   9.943
  460MPD2    H3 7003   1.161   2.429   9.797
  460MPD2     N 7004   0.926   2.172  10.081
  460MPD2    H5 7005   0.848   2.193  10.019
  460MPD2    N1 7006   1.395   2.296  10.172
  460MPD2    H7 7007   1.393   2.222  10.241
  461MPD2     C 7008   0.410   1.686  10.561
  461MPD2    C1 7009   0.342   1.806  10.536
  461MPD2    C2 7010   0.211   1.816  10.589
  461MPD2    C3 7011   0.160   1.726  10.684
  461MPD2    C4 7012   0.242   1.623  10.712
  461MPD2    C5 7013   0.353   1.595  10.638
  461MPD2     H 7014   0.160   1.910  10.570
  461MPD2    H1 7015   0.202   1.549  10.781
  461MPD2    H2 7016   0.508   1.668  10.519
  461MPD2    H3 7017   0.414   1.512  10.672
  461MPD2     N 7018   0.042   1.733  10.763
  461MPD2    H5 7019   0.032   1.667  10.839
  461MPD2    N1 7020   0.403   1.908  10.468
  461MPD2    H7 7021   0.345   1.979  10.425
  462MPD2     C 7022   4.474   0.893   9.129
  462MPD2    C1 7023   4.607   0.915   9.102
  462MPD2    C2 7024   4.651   0.914   8.975
  462MPD2    C3 7025   4.552   0.907   8.876
  462MPD2    C4 7026   4.415   0.896   8.906
  462MPD2    C5 7027   4.382   0.870   9.037
  462MPD2     H 7028   4.754   0.925   8.943
  462MPD2    H1 7029   4.332   0.895   8.837
  462MPD2    H2 7030   4.423   0.895   9.225
  462MPD2    H3 7031   4.278   0.860   9.066
  462MPD2     N 7032   4.595   0.907   8.738
  462MPD2    H5 7033   4.694   0.905   8.715
  462MPD2    N1 7034   4.686   0.920   9.219
  462MPD2    H7 7035   4.642   0.936   9.309
  463MPD2     C 7036   1.344   0.952  15.085
  463MPD2    C1 7037   1.272   0.888  14.989
  463MPD2    C2 7038   1.140   0.872  15.012
  463MPD2    C3 7039   1.085   0.905  15.132
  463MPD2    C4 7040   1.161   0.968  15.232
  463MPD2    C5 7041   1.293   0.992  15.202
  463MPD2     H 7042   1.069   0.829  14.942
  463MPD2    H1 7043   1.122   0.989  15.331
  463MPD2    H2 7044   1.446   0.980  15.064
  463MPD2    H3 7045   1.356   1.042  15.275
  463MPD2     N 7046   0.951   0.881  15.145
  463MPD2    H5 7047   0.900   0.838  15.069
  463MPD2    N1 7048   1.308   0.855  14.860
  463MPD2    H7 7049   1.243   0.800  14.804
  464MPD2     C 7050   2.038   1.303  14.382
  464MPD2    C1 7051   1.901   1.329  14.398
  464MPD2    C2 7052   1.804   1.226  14.408
  464MPD2    C3 7053   1.852   1.099  14.431
  464MPD2    C4 7054   1.990   1.078  14.452
  464MPD2    C5 7055   2.080   1.175  14.413
  464MPD2     H 7056   1.699   1.253  14.415
  464MPD2    H1 7057   2.025   0.980  14.482
  464MPD2    H2 7058   2.109   1.384  14.372
  464MPD2    H3 7059   2.188   1.163  14.410
  464MPD2     N 7060   1.763   0.987  14.449
  464MPD2    H5 7061   1.799   0.904  14.495
  464MPD2    N1 7062   1.862   1.466  14.416
  464MPD2    H7 7063   1.933   1.538  14.414
  465MPD2     C 7064   1.496   1.548  12.537
  465MPD2    C1 7065   1.599   1.463  12.585
  465MPD2    C2 7066   1.731   1.509  12.586
  465MPD2    C3 7067   1.760   1.635  12.537
  465MPD2    C4 7068   1.663   1.717  12.479
  465MPD2    C5 7069   1.532   1.669  12.471
  465MPD2     H 7070   1.807   1.447  12.631
  465MPD2    H1 7071   1.696   1.815  12.449
  465MPD2    H2 7072   1.390   1.527  12.538
  465MPD2    H3 7073   1.459   1.734  12.423
  465MPD2     N 7074   1.895   1.680  12.565
  465MPD2    H5 7075   1.960   1.609  12.598
  465MPD2    N1 7076   1.553   1.339  12.635
  465MPD2    H7 7077   1.452   1.333  12.647
  466MPD2     C 7078   3.168   0.350  10.794
  466MPD2    C1 7079   3.125   0.394  10.920
  466MPD2    C2 7080   3.219   0.390  11.026
  466MPD2    C3 7081   3.347   0.338  11.006
  466MPD2    C4 7082   3.380   0.304  10.878
  466MPD2    C5 7083   3.295   0.299  10.773
  466MPD2     H 7084   3.175   0.422  11.120
  466MPD2    H1 7085   3.478   0.259  10.864
  466MPD2    H2 7086   3.094   0.334  10.716
  466MPD2    H3 7087   3.324   0.255  10.679
  466MPD2     N 7088   3.439   0.312  11.114
  466MPD2    H5 7089   3.504   0.237  11.089
  466MPD2    N1 7090   2.991   0.433  10.951
  466MPD2    H7 7091   2.974   0.435  11.051
  467MPD2     C 7092   2.456   4.438  10.629
  467MPD2    C1 7093   2.568   4.510  10.590
  467MPD2    C2 7094   2.603   4.621  10.664
  467MPD2    C3 7095   2.525   4.658  10.771
  467MPD2    C4 7096   2.404   4.597  10.797
  467MPD2    C5 7097   2.371   4.487  10.734
  467MPD2     H 7098   2.688   4.684  10.641
  467MPD2    H1 7099   2.339   4.620  10.880
  467MPD2    H2 7100   2.432   4.345  10.579
  467MPD2    H3 7101   2.285   4.426  10.760
  467MPD2     N 7102   2.546   4.782  10.842
  467MPD2    H5 7103   2.475   0.027  10.902
  467MPD2    N1 7104   2.651   4.483  10.478
  467MPD2    H7 7105   2.742   4.527  10.491
  468MPD2     C 7106   2.199   4.623   8.814
  468MPD2    C1 7107   2.285   4.682   8.716
  468MPD2    C2 7108   2.378   4.595   8.658
  468MPD2    C3 7109   2.401   4.469   8.716
  468MPD2    C4 7110   2.314   4.414   8.813
  468MPD2    C5 7111   2.215   4.494   8.863
  468MPD2     H 7112   2.447   4.628   8.582
  468MPD2    H1 7113   2.315   4.313   8.851
  468MPD2    H2 7114   2.122   4.680   8.864
  468MPD2    H3 7115   2.150   4.456   8.941
  468MPD2     N 7116   2.499   4.391   8.652
  468MPD2    H5 7117   2.538   4.424   8.564
  468MPD2    N1 7118   2.267   0.028   8.692
  468MPD2    H7 7119   2.194   0.072   8.746
  469MPD2     C 7120   3.223   4.515   8.429
  469MPD2    C1 7121   3.194   4.427   8.527
  469MPD2    C2 7122   3.290   4.390   8.617
  469MPD2    C3 7123   3.415   4.441   8.614
  469MPD2    C4 7124   3.440   4.539   8.523
  469MPD2    C5 7125   3.342   4.575   8.431
  469MPD2     H 7126   3.273   4.304   8.682
  469MPD2    H1 7127   3.533   4.594   8.519
  469MPD2    H2 7128   3.152   4.533   8.349
  469MPD2    H3 7129   3.366   4.641   8.348
  469MPD2     N 7130   3.508   4.385   8.701
  469MPD2    H5 7131   3.476   4.314   8.766
  469MPD2    N1 7132   3.058   4.371   8.537
  469MPD2    H7 7133   2.990   4.398   8.467
  470MPD2     C 7134   1.504   1.247  12.320
  470MPD2    C1 7135   1.635   1.272  12.279
  470MPD2    C2 7136   1.728   1.173  12.283
  470MPD2    C3 7137   1.698   1.042  12.310
  470MPD2    C4 7138   1.562   1.014  12.338
  470MPD2    C5 7139   1.468   1.115  12.337
  470MPD2     H 7140   1.825   1.198  12.241
  470MPD2    H1 7141   1.524   0.915  12.360
  470MPD2    H2 7142   1.423   1.312  12.351
  470MPD2    H3 7143   1.370   1.090  12.376
  470MPD2     N 7144   1.797   0.946  12.313
  470MPD2    H5 7145   1.891   0.982  12.301
  470MPD2    N1 7146   1.660   1.412  12.257
  470MPD2    H7 7147   1.571   1.460  12.245
  471MPD2     C 7148   1.261   1.799  11.830
  471MPD2    C1 7149   1.379   1.871  11.824
  471MPD2    C2 7150   1.397   1.939  11.707
  471MPD2    C3 7151   1.304   1.943  11.610
  471MPD2    C4 7152   1.186   1.874  11.625
  471MPD2    C5 7153   1.163   1.805  11.734
  471MPD2     H 7154   1.487   1.998  11.693
  471MPD2    H1 7155   1.115   1.863  11.544
  471MPD2    H2 7156   1.240   1.733  11.914
  471MPD2    H3 7157   1.075   1.743  11.747
  471MPD2     N 7158   1.343   1.990  11.475
  471MPD2    H5 7159   1.280   1.955  11.403
  471MPD2    N1 7160   1.479   1.869  11.921
  471MPD2    H7 7161   1.565   1.915  11.891
  472MPD2     C 7162   2.624   0.537   9.815
  472MPD2    C1 7163   2.748   0.521   9.764
  472MPD2    C2 7164   2.837   0.621   9.761
  472MPD2    C3 7165   2.812   0.748   9.814
  472MPD2    C4 7166   2.685   0.765   9.868
  472MPD2    C5 7167   2.595   0.665   9.867
  472MPD2     H 7168   2.933   0.599   9.716
  472MPD2    H1 7169   2.654   0.863   9.903
  472MPD2    H2 7170   2.539   0.470   9.811
  472MPD2    H3 7171   2.497   0.686   9.908
  472MPD2     N 7172   2.910   0.850   9.830
  472MPD2    H5 7173   2.870   0.930   9.879
  472MPD2    N1 7174   2.796   0.390   9.724
  472MPD2    H7 7175   2.890   0.392   9.686
  473MPD2     C 7176   3.632   0.857   9.769
  473MPD2    C1 7177   3.536   0.956   9.765
  473MPD2    C2 7178   3.493   1.010   9.892
  473MPD2    C3 7179   3.553   0.970  10.011
  473MPD2    C4 7180   3.651   0.872  10.007
  473MPD2    C5 7181   3.689   0.824   9.886
  473MPD2     H 7182   3.415   1.085   9.893
  473MPD2    H1 7183   3.706   0.840  10.094
  473MPD2    H2 7184   3.671   0.814   9.677
  473MPD2    H3 7185   3.768   0.751   9.895
  473MPD2     N 7186   3.516   1.024  10.138
  473MPD2    H5 7187   3.587   1.003  10.208
  473MPD2    N1 7188   3.505   1.015   9.631
  473MPD2    H7 7189   3.561   0.980   9.554
  474MPD2     C 7190   1.070   4.637  14.757
  474MPD2    C1 7191   1.115   4.570  14.652
  474MPD2    C2 7192   1.059   4.585  14.525
  474MPD2    C3 7193   0.957   4.677  14.508
  474MPD2    C4 7194   0.904   4.742  14.616
  474MPD2    C5 7195   0.959   4.719  14.739
  474MPD2     H 7196   1.099   4.519  14.448
  474MPD2    H1 7197   0.832   0.029  14.603
  474MPD2    H2 7198   1.113   4.622  14.855
  474MPD2    H3 7199   0.931   4.779  14.825
  474MPD2     N 7200   0.940   4.743  14.380
  474MPD2    H5 7201   0.888   0.036  14.374
  474MPD2    N1 7202   1.219   4.476  14.681
  474MPD2    H7 7203   1.256   4.479  14.776
  475MPD2     C 7204   2.058   2.562   9.930
  475MPD2    C1 7205   1.938   2.494   9.893
  475MPD2    C2 7206   1.817   2.544   9.933
  475MPD2    C3 7207   1.807   2.663  10.004
  475MPD2    C4 7208   1.925   2.724  10.042
  475MPD2    C5 7209   2.049   2.675  10.008
  475MPD2     H 7210   1.725   2.496   9.899
  475MPD2    H1 7211   1.931   2.817  10.099
  475MPD2    H2 7212   2.156   2.535   9.893
  475MPD2    H3 7213   2.143   2.722  10.034
  475MPD2     N 7214   1.675   2.711  10.027
  475MPD2    H5 7215   1.602   2.640  10.018
  475MPD2    N1 7216   1.951   2.393   9.794
  475MPD2    H7 7217   2.041   2.388   9.746
  476MPD2     C 7218   1.993   1.581   9.860
  476MPD2    C1 7219   1.994   1.714   9.896
  476MPD2    C2 7220   1.954   1.757  10.026
  476MPD2    C3 7221   1.903   1.650  10.107
  476MPD2    C4 7222   1.912   1.521  10.068
  476MPD2    C5 7223   1.967   1.487   9.953
  476MPD2     H 7224   1.969   1.859  10.060
  476MPD2    H1 7225   1.878   1.441  10.134
  476MPD2    H2 7226   2.036   1.554   9.764
  476MPD2    H3 7227   1.977   1.380   9.935
  476MPD2     N 7228   1.850   1.683  10.240
  476MPD2    H5 7229   1.861   1.779  10.271
  476MPD2    N1 7230   2.046   1.802   9.797
  476MPD2    H7 7231   2.065   1.762   9.706
  477MPD2     C 7232   2.066   3.809  12.377
  477MPD2    C1 7233   2.061   3.923  12.311
  477MPD2    C2 7234   1.965   4.020  12.353
  477MPD2    C3 7235   1.885   4.009  12.464
  477MPD2    C4 7236   1.893   3.885  12.526
  477MPD2    C5 7237   1.984   3.782  12.488
  477MPD2     H 7238   1.972   4.122  12.319
  477MPD2    H1 7239   1.852   3.873  12.625
  477MPD2    H2 7240   2.134   3.733  12.342
  477MPD2    H3 7241   1.988   3.685  12.536
  477MPD2     N 7242   1.811   4.113  12.508
  477MPD2    H5 7243   1.807   4.191  12.443
  477MPD2    N1 7244   2.142   3.951  12.198
  477MPD2    H7 7245   2.139   4.049  12.169
  478MPD2     C 7246   1.878   1.846  12.977
  478MPD2    C1 7247   1.926   1.819  13.101
  478MPD2    C2 7248   2.038   1.887  13.153
  478MPD2    C3 7249   2.096   1.987  13.073
  478MPD2    C4 7250   2.054   2.003  12.941
  478MPD2    C5 7251   1.949   1.929  12.892
  478MPD2     H 7252   2.068   1.872  13.256
  478MPD2    H1 7253   2.099   2.061  12.862
  478MPD2    H2 7254   1.792   1.791  12.941
  478MPD2    H3 7255   1.923   1.946  12.788
  478MPD2     N 7256   2.197   2.073  13.129
  478MPD2    H5 7257   2.231   2.146  13.066
  478MPD2    N1 7258   1.856   1.735  13.194
  478MPD2    H7 7259   1.912   1.692  13.267
  479MPD2     C 7260   2.119   2.834  13.185
  479MPD2    C1 7261   2.211   2.785  13.277
  479MPD2    C2 7262   2.289   2.873  13.346
  479MPD2    C3 7263   2.311   3.000  13.301
  479MPD2    C4 7264   2.228   3.048  13.197
  479MPD2    C5 7265   2.133   2.963  13.146
  479MPD2     H 7266   2.350   2.827  13.422
  479MPD2    H1 7267   2.224   3.149  13.160
  479MPD2    H2 7268   2.047   2.770  13.135
  479MPD2    H3 7269   2.067   3.000  13.069
  479MPD2     N 7270   2.408   3.092  13.358
  479MPD2    H5 7271   2.418   3.184  13.318
  479MPD2    N1 7272   2.221   2.652  13.304
  479MPD2    H7 7273   2.257   2.628  13.396
  480MPD2     C 7274   3.323   3.386   8.093
  480MPD2    C1 7275   3.203   3.324   8.052
  480MPD2    C2 7276   3.160   3.213   8.123
  480MPD2    C3 7277   3.230   3.173   8.236
  480MPD2    C4 7278   3.342   3.237   8.278
  480MPD2    C5 7279   3.395   3.333   8.197
  480MPD2     H 7280   3.073   3.158   8.090
  480MPD2    H1 7281   3.388   3.217   8.374
  480MPD2    H2 7282   3.362   3.478   8.052
  480MPD2    H3 7283   3.483   3.381   8.239
  480MPD2     N 7284   3.179   3.069   8.316
  480MPD2    H5 7285   3.212   3.063   8.412
  480MPD2    N1 7286   3.141   3.371   7.938
  480MPD2    H7 7287   3.184   3.450   7.890
  481MPD2     C 7288   2.625   0.036  13.917
  481MPD2    C1 7289   2.755   4.793  13.924
  481MPD2    C2 7290   2.815   4.743  14.043
  481MPD2    C3 7291   2.736   4.717  14.158
  481MPD2    C4 7292   2.602   4.741  14.151
  481MPD2    C5 7293   2.555   0.015  14.037
  481MPD2     H 7294   2.915   4.702  14.040
  481MPD2    H1 7295   2.536   4.727  14.235
  481MPD2    H2 7296   2.580   0.085  13.831
  481MPD2    H3 7297   2.447   0.019  14.039
  481MPD2     N 7298   2.782   4.632  14.265
  481MPD2    H5 7299   2.729   4.629  14.351
  481MPD2    N1 7300   2.818   0.015  13.801
  481MPD2    H7 7301   2.763   0.042  13.720
  482MPD2     C 7302   2.505   4.767  13.438
  482MPD2    C1 7303   2.629   0.032  13.423
  482MPD2    C2 7304   2.648   0.156  13.484
  482MPD2    C3 7305   2.557   0.217  13.557
  482MPD2    C4 7306   2.437   0.152  13.578
  482MPD2    C5 7307   2.412   0.033  13.518
  482MPD2     H 7308   2.747   0.200  13.488
  482MPD2    H1 7309   2.361   0.182  13.648
  482MPD2    H2 7310   2.480   4.668  13.404
  482MPD2    H3 7311   2.322   4.776  13.549
  482MPD2     N 7312   2.593   0.333  13.632
  482MPD2    H5 7313   2.693   0.349  13.639
  482MPD2    N1 7314   2.717   4.751  13.344
  482MPD2    H7 7315   2.674   4.699  13.268
  483MPD2     C 7316   3.508   0.677  13.562
  483MPD2    C1 7317   3.499   0.612  13.440
  483MPD2    C2 7318   3.429   0.488  13.437
  483MPD2    C3 7319   3.356   0.451  13.544
  483MPD2    C4 7320   3.366   0.519  13.659
  483MPD2    C5 7321   3.448   0.628  13.675
  483MPD2     H 7322   3.419   0.432  13.345
  483MPD2    H1 7323   3.321   0.489  13.753
  483MPD2    H2 7324   3.557   0.774  13.570
  483MPD2    H3 7325   3.450   0.683  13.768
  483MPD2     N 7326   3.265   0.337  13.551
  483MPD2    H5 7327   3.197   0.334  13.626
  483MPD2    N1 7328   3.562   0.676  13.334
  483MPD2    H7 7329   3.601   0.767  13.355
  484MPD2     C 7330   1.458   2.243  10.671
  484MPD2    C1 7331   1.368   2.185  10.753
  484MPD2    C2 7332   1.232   2.186  10.721
  484MPD2    C3 7333   1.186   2.252  10.602
  484MPD2    C4 7334   1.286   2.292  10.523
  484MPD2    C5 7335   1.422   2.294  10.554
  484MPD2     H 7336   1.159   2.156  10.795
  484MPD2    H1 7337   1.258   2.329  10.425
  484MPD2    H2 7338   1.562   2.231  10.697
  484MPD2    H3 7339   1.494   2.348  10.493
  484MPD2     N 7340   1.050   2.265  10.566
  484MPD2    H5 7341   1.033   2.325  10.485
  484MPD2    N1 7342   1.414   2.119  10.871
  484MPD2    H7 7343   1.514   2.109  10.878
  485MPD2     C 7344   3.797   2.078  11.590
  485MPD2    C1 7345   3.865   1.966  11.545
  485MPD2    C2 7346   3.799   1.874  11.470
  485MPD2    C3 7347   3.662   1.864  11.462
  485MPD2    C4 7348   3.588   1.977  11.508
  485MPD2    C5 7349   3.658   2.074  11.568
  485MPD2     H 7350   3.848   1.792  11.417
  485MPD2    H1 7351   3.480   1.977  11.507
  485MPD2    H2 7352   3.844   2.165  11.633
  485MPD2    H3 7353   3.607   2.165  11.595
  485MPD2     N 7354   3.580   1.757  11.405
  485MPD2    H5 7355   3.487   1.786  11.379
  485MPD2    N1 7356   4.006   1.959  11.566
  485MPD2    H7 7357   4.049   2.038  11.611
  486MPD2     C 7358   3.755   1.546  12.025
  486MPD2    C1 7359   3.812   1.627  11.937
  486MPD2    C2 7360   3.829   1.756  11.974
  486MPD2    C3 7361   3.813   1.802  12.103
  486MPD2    C4 7362   3.756   1.713  12.194
  486MPD2    C5 7363   3.725   1.589  12.150
  486MPD2     H 7364   3.867   1.820  11.895
  486MPD2    H1 7365   3.729   1.747  12.294
  486MPD2    H2 7366   3.725   1.443  12.011
  486MPD2    H3 7367   3.674   1.513  12.209
  486MPD2     N 7368   3.839   1.936  12.132
  486MPD2    H5 7369   3.885   1.994  12.063
  486MPD2    N1 7370   3.834   1.592  11.802
  486MPD2    H7 7371   3.868   1.667  11.742
  487MPD2     C 7372   1.946   4.415   7.685
  487MPD2    C1 7373   1.953   4.425   7.546
  487MPD2    C2 7374   2.029   4.340   7.470
  487MPD2    C3 7375   2.086   4.231   7.534
  487MPD2    C4 7376   2.073   4.218   7.674
  487MPD2    C5 7377   2.008   4.312   7.749
  487MPD2     H 7378   2.048   4.357   7.364
  487MPD2    H1 7379   2.132   4.142   7.724
  487MPD2    H2 7380   1.898   4.489   7.750
  487MPD2    H3 7381   1.998   4.295   7.856
  487MPD2     N 7382   2.162   4.144   7.457
  487MPD2    H5 7383   2.175   4.166   7.358
  487MPD2    N1 7384   1.884   4.539   7.494
  487MPD2    H7 7385   1.834   4.599   7.560
  488MPD2     C 7386   2.573   3.558   7.749
  488MPD2    C1 7387   2.644   3.654   7.694
  488MPD2    C2 7388   2.754   3.697   7.754
  488MPD2    C3 7389   2.806   3.645   7.869
  488MPD2    C4 7390   2.735   3.536   7.919
  488MPD2    C5 7391   2.624   3.491   7.854
  488MPD2     H 7392   2.809   3.781   7.711
  488MPD2    H1 7393   2.781   3.485   8.003
  488MPD2    H2 7394   2.481   3.516   7.710
  488MPD2    H3 7395   2.572   3.399   7.876
  488MPD2     N 7396   2.919   3.695   7.938
  488MPD2    H5 7397   2.940   3.656   8.029
  488MPD2    N1 7398   2.584   3.723   7.590
  488MPD2    H7 7399   2.498   3.676   7.568
  489MPD2     C 7400   1.028   2.666  11.623
  489MPD2    C1 7401   1.014   2.796  11.578
  489MPD2    C2 7402   0.892   2.858  11.595
  489MPD2    C3 7403   0.787   2.785  11.643
  489MPD2    C4 7404   0.806   2.657  11.678
  489MPD2    C5 7405   0.926   2.595  11.674
  489MPD2     H 7406   0.885   2.961  11.560
  489MPD2    H1 7407   0.737   2.590  11.729
  489MPD2    H2 7408   1.123   2.614  11.619
  489MPD2    H3 7409   0.940   2.488  11.688
  489MPD2     N 7410   0.661   2.853  11.624
  489MPD2    H5 7411   0.663   2.939  11.570
  489MPD2    N1 7412   1.131   2.871  11.533
  489MPD2    H7 7413   1.131   2.971  11.549
  490MPD2     C 7414   3.535   3.030  13.799
  490MPD2    C1 7415   3.610   3.114  13.887
  490MPD2    C2 7416   3.660   3.233  13.841
  490MPD2    C3 7417   3.633   3.268  13.710
  490MPD2    C4 7418   3.552   3.197  13.629
  490MPD2    C5 7419   3.505   3.074  13.672
  490MPD2     H 7420   3.719   3.298  13.904
  490MPD2    H1 7421   3.503   3.238  13.542
  490MPD2    H2 7422   3.515   2.928  13.828
  490MPD2    H3 7423   3.434   3.017  13.612
  490MPD2     N 7424   3.677   3.394  13.664
  490MPD2    H5 7425   3.693   3.461  13.738
  490MPD2    N1 7426   3.644   3.054  14.011
  490MPD2    H7 7427   3.602   2.966  14.039
  491MPD2     C 7428   3.660   3.899  12.765
  491MPD2    C1 7429   3.634   3.934  12.903
  491MPD2    C2 7430   3.624   3.827  13.000
  491MPD2    C3 7431   3.635   3.694  12.964
  491MPD2    C4 7432   3.656   3.665  12.828
  491MPD2    C5 7433   3.673   3.768  12.736
  491MPD2     H 7434   3.616   3.847  13.106
  491MPD2    H1 7435   3.655   3.562  12.794
  491MPD2    H2 7436   3.687   3.979  12.697
  491MPD2    H3 7437   3.691   3.740  12.632
  491MPD2     N 7438   3.622   3.594  13.070
  491MPD2    H5 7439   3.599   3.618  13.166
  491MPD2    N1 7440   3.622   4.068  12.942
  491MPD2    H7 7441   3.571   4.083  13.029
  492MPD2     C 7442   0.575   1.864  12.288
  492MPD2    C1 7443   0.639   1.761  12.225
  492MPD2    C2 7444   0.637   1.753  12.084
  492MPD2    C3 7445   0.566   1.844  12.015
  492MPD2    C4 7446   0.495   1.945  12.083
  492MPD2    C5 7447   0.520   1.966  12.218
  492MPD2     H 7448   0.682   1.669  12.032
  492MPD2    H1 7449   0.438   2.022  12.031
  492MPD2    H2 7450   0.573   1.874  12.396
  492MPD2    H3 7451   0.471   2.050  12.267
  492MPD2     N 7452   0.553   1.812  11.882
  492MPD2    H5 7453   0.618   1.747  11.838
  492MPD2    N1 7454   0.712   1.662  12.296
  492MPD2    H7 7455   0.771   1.598  12.243
  493MPD2     C 7456   1.275   1.753  12.719
  493MPD2    C1 7457   1.176   1.751  12.620
  493MPD2    C2 7458   1.171   1.859  12.536
  493MPD2    C3 7459   1.263   1.961  12.547
  493MPD2    C4 7460   1.353   1.961  12.648
  493MPD2    C5 7461   1.368   1.855  12.731
  493MPD2     H 7462   1.093   1.861  12.461
  493MPD2    H1 7463   1.410   2.050  12.675
  493MPD2    H2 7464   1.267   1.682  12.800
  493MPD2    H3 7465   1.436   1.868  12.814
  493MPD2     N 7466   1.245   2.069  12.454
  493MPD2    H5 7467   1.187   2.055  12.372
  493MPD2    N1 7468   1.081   1.655  12.606
  493MPD2    H7 7469   1.015   1.666  12.529
  494MPD2     C 7470   3.234   2.571  11.022
  494MPD2    C1 7471   3.296   2.502  11.121
  494MPD2    C2 7472   3.435   2.482  11.118
  494MPD2    C3 7473   3.517   2.543  11.029
  494MPD2    C4 7474   3.451   2.605  10.927
  494MPD2    C5 7475   3.316   2.622  10.925
  494MPD2     H 7476   3.481   2.409  11.184
  494MPD2    H1 7477   3.507   2.650  10.846
  494MPD2    H2 7478   3.129   2.592  11.006
  494MPD2    H3 7479   3.280   2.689  10.847
  494MPD2     N 7480   3.659   2.549  11.038
  494MPD2    H5 7481   3.694   2.515  11.127
  494MPD2    N1 7482   3.221   2.431  11.215
  494MPD2    H7 7483   3.261   2.357  11.272
  495MPD2     C 7484   2.670   1.644  11.129
  495MPD2    C1 7485   2.715   1.603  11.256
  495MPD2    C2 7486   2.768   1.706  11.331
  495MPD2    C3 7487   2.780   1.842  11.277
  495MPD2    C4 7488   2.748   1.865  11.146
  495MPD2    C5 7489   2.701   1.766  11.070
  495MPD2     H 7490   2.811   1.689  11.429
  495MPD2    H1 7491   2.738   1.965  11.107
  495MPD2    H2 7492   2.622   1.569  11.066
  495MPD2    H3 7493   2.670   1.787  10.969
  495MPD2     N 7494   2.831   1.949  11.351
  495MPD2    H5 7495   2.835   1.935  11.451
  495MPD2    N1 7496   2.698   1.474  11.311
  495MPD2    H7 7497   2.755   1.453  11.392
  496MPD2     C 7498   2.728   1.169   9.393
  496MPD2    C1 7499   2.586   1.169   9.409
  496MPD2    C2 7500   2.527   1.204   9.530
  496MPD2    C3 7501   2.601   1.254   9.635
  496MPD2    C4 7502   2.742   1.258   9.613
  496MPD2    C5 7503   2.808   1.205   9.498
  496MPD2     H 7504   2.419   1.201   9.537
  496MPD2    H1 7505   2.809   1.301   9.687
  496MPD2    H2 7506   2.780   1.138   9.303
  496MPD2    H3 7507   2.916   1.197   9.502
  496MPD2     N 7508   2.530   1.308   9.745
  496MPD2    H5 7509   2.429   1.314   9.736
  496MPD2    N1 7510   2.499   1.128   9.302
  496MPD2    H7 7511   2.401   1.125   9.327
  497MPD2     C 7512   4.422   1.722   9.207
  497MPD2    C1 7513   4.413   1.641   9.094
  497MPD2    C2 7514   4.306   1.546   9.081
  497MPD2    C3 7515   4.214   1.529   9.184
  497MPD2    C4 7516   4.230   1.604   9.301
  497MPD2    C5 7517   4.335   1.696   9.309
  497MPD2     H 7518   4.320   1.474   9.001
  497MPD2    H1 7519   4.166   1.592   9.388
  497MPD2    H2 7520   4.493   1.802   9.222
  497MPD2    H3 7521   4.330   1.760   9.395
  497MPD2     N 7522   4.113   1.435   9.175
  497MPD2    H5 7523   4.115   1.367   9.099
  497MPD2    N1 7524   4.511   1.658   8.998
  497MPD2    H7 7525   4.589   1.721   9.015
  498MPD2     C 7526   3.583   1.391   9.726
  498MPD2    C1 7527   3.698   1.312   9.729
  498MPD2    C2 7528   3.764   1.299   9.850
  498MPD2    C3 7529   3.735   1.364   9.964
  498MPD2    C4 7530   3.631   1.447   9.969
  498MPD2    C5 7531   3.556   1.458   9.850
  498MPD2     H 7532   3.849   1.234   9.864
  498MPD2    H1 7533   3.619   1.504  10.060
  498MPD2    H2 7534   3.522   1.390   9.637
  498MPD2    H3 7535   3.473   1.528   9.850
  498MPD2     N 7536   3.833   1.356  10.065
  498MPD2    H5 7537   3.903   1.283  10.054
  498MPD2    N1 7538   3.747   1.251   9.612
  498MPD2    H7 7539   3.708   1.281   9.523
  499MPD2     C 7540   4.516   1.428   9.574
  499MPD2    C1 7541   4.405   1.368   9.625
  499MPD2    C2 7542   4.350   1.266   9.556
  499MPD2    C3 7543   4.386   1.240   9.428
  499MPD2    C4 7544   4.487   1.319   9.371
  499MPD2    C5 7545   4.559   1.397   9.454
  499MPD2     H 7546   4.275   1.202   9.600
  499MPD2    H1 7547   4.525   1.285   9.275
  499MPD2    H2 7548   4.565   1.506   9.632
  499MPD2    H3 7549   4.636   1.463   9.414
  499MPD2     N 7550   4.305   1.157   9.348
  499MPD2    H5 7551   4.309   1.179   9.249
  499MPD2    N1 7552   4.357   1.422   9.747
  499MPD2    H7 7553   4.419   1.466   9.815
  500MPD2     C 7554   1.986   3.432  11.692
  500MPD2    C1 7555   1.970   3.325  11.603
  500MPD2    C2 7556   1.896   3.353  11.489
  500MPD2    C3 7557   1.848   3.480  11.458
  500MPD2    C4 7558   1.864   3.584  11.544
  500MPD2    C5 7559   1.929   3.551  11.660
  500MPD2     H 7560   1.887   3.277  11.412
  500MPD2    H1 7561   1.843   3.689  11.526
  500MPD2    H2 7562   2.052   3.420  11.777
  500MPD2    H3 7563   1.951   3.640  11.719
  500MPD2     N 7564   1.793   3.487  11.330
  500MPD2    H5 7565   1.746   3.404  11.294
  500MPD2    N1 7566   2.027   3.203  11.627
  500MPD2    H7 7567   2.108   3.194  11.688
  501MPD2     C 7568   2.672   3.083  11.655
  501MPD2    C1 7569   2.588   3.161  11.588
  501MPD2    C2 7570   2.605   3.304  11.604
  501MPD2    C3 7571   2.711   3.352  11.688
  501MPD2    C4 7572   2.788   3.265  11.758
  501MPD2    C5 7573   2.770   3.132  11.738
  501MPD2     H 7574   2.540   3.374  11.554
  501MPD2    H1 7575   2.876   3.290  11.816
  501MPD2    H2 7576   2.664   2.976  11.637
  501MPD2    H3 7577   2.834   3.062  11.790
  501MPD2     N 7578   2.743   3.484  11.721
  501MPD2    H5 7579   2.810   3.496  11.796
  501MPD2    N1 7580   2.482   3.115  11.516
  501MPD2    H7 7581   2.422   3.191  11.486
  502MPD2     C 7582   1.798   2.497  11.299
  502MPD2    C1 7583   1.925   2.520  11.349
  502MPD2    C2 7584   1.987   2.411  11.401
  502MPD2    C3 7585   1.937   2.285  11.401
  502MPD2    C4 7586   1.810   2.267  11.355
  502MPD2    C5 7587   1.743   2.370  11.295
  502MPD2     H 7588   2.087   2.421  11.442
  502MPD2    H1 7589   1.770   2.169  11.333
  502MPD2    H2 7590   1.746   2.568  11.236
  502MPD2    H3 7591   1.648   2.369  11.243
  502MPD2     N 7592   2.025   2.183  11.438
  502MPD2    H5 7593   2.116   2.219  11.465
  502MPD2    N1 7594   1.987   2.646  11.344
  502MPD2    H7 7595   1.922   2.722  11.325
  503MPD2     C 7596   3.336   3.223  10.760
  503MPD2    C1 7597   3.444   3.209  10.685
  503MPD2    C2 7598   3.566   3.176  10.741
  503MPD2    C3 7599   3.567   3.136  10.874
  503MPD2    C4 7600   3.452   3.143  10.949
  503MPD2    C5 7601   3.338   3.195  10.892
  503MPD2     H 7602   3.659   3.190  10.687
  503MPD2    H1 7603   3.446   3.101  11.048
  503MPD2    H2 7604   3.243   3.257  10.714
  503MPD2    H3 7605   3.247   3.173  10.947
  503MPD2     N 7606   3.678   3.090  10.938
  503MPD2    H5 7607   3.659   3.109  11.036
  503MPD2    N1 7608   3.432   3.250  10.547
  503MPD2    H7 7609   3.336   3.273  10.523
  504MPD2     C 7610   3.337   2.691  10.553
  504MPD2    C1 7611   3.377   2.823  10.553
  504MPD2    C2 7612   3.291   2.929  10.558
  504MPD2    C3 7613   3.152   2.905  10.544
  504MPD2    C4 7614   3.116   2.778  10.548
  504MPD2    C5 7615   3.205   2.668  10.555
  504MPD2     H 7616   3.330   3.029  10.563
  504MPD2    H1 7617   3.011   2.749  10.552
  504MPD2    H2 7618   3.409   2.610  10.551
  504MPD2    H3 7619   3.157   2.571  10.553
  504MPD2     N 7620   3.057   3.009  10.531
  504MPD2    H5 7621   3.099   3.102  10.534
  504MPD2    N1 7622   3.519   2.850  10.559
  504MPD2    H7 7623   3.550   2.943  10.585
  505MPD2     C 7624   4.315   0.956  12.645
  505MPD2    C1 7625   4.372   1.015  12.529
  505MPD2    C2 7626   4.509   1.011  12.511
  505MPD2    C3 7627   4.596   0.952  12.606
  505MPD2    C4 7628   4.540   0.880  12.708
  505MPD2    C5 7629   4.408   0.887  12.725
  505MPD2     H 7630   4.554   1.060  12.425
  505MPD2    H1 7631   4.599   0.840  12.790
  505MPD2    H2 7632   4.211   0.955  12.676
  505MPD2    H3 7633   4.375   0.822  12.805
  505MPD2     N 7634   4.735   0.977  12.593
  505MPD2    H5 7635   4.773   1.032  12.516
  505MPD2    N1 7636   4.281   1.092  12.453
  505MPD2    H7 7637   4.193   1.104  12.502
  506MPD2     C 7638   0.835   2.324  11.399
  506MPD2    C1 7639   0.739   2.240  11.345
  506MPD2    C2 7640   0.787   2.128  11.277
  506MPD2    C3 7641   0.919   2.119  11.231
  506MPD2    C4 7642   1.012   2.191  11.299
  506MPD2    C5 7643   0.973   2.293  11.385
  506MPD2     H 7644   0.715   2.060  11.233
  506MPD2    H1 7645   1.116   2.179  11.274
  506MPD2    H2 7646   0.819   2.414  11.458
  506MPD2    H3 7647   1.043   2.363  11.429
  506MPD2     N 7648   0.957   2.049  11.112
  506MPD2    H5 7649   1.051   2.069  11.079
  506MPD2    N1 7650   0.596   2.262  11.364
  506MPD2    H7 7651   0.531   2.186  11.345
  507MPD2     C 7652   0.115   2.886  11.108
  507MPD2    C1 7653   0.249   2.850  11.118
  507MPD2    C2 7654   0.344   2.944  11.107
  507MPD2    C3 7655   0.307   3.077  11.100
  507MPD2    C4 7656   0.172   3.106  11.089
  507MPD2    C5 7657   0.082   3.013  11.085
  507MPD2     H 7658   0.445   2.903  11.100
  507MPD2    H1 7659   0.134   3.206  11.074
  507MPD2    H2 7660   0.040   2.807  11.104
  507MPD2    H3 7661   4.769   3.029  11.074
  507MPD2     N 7662   0.393   3.189  11.099
  507MPD2    H5 7663   0.353   3.282  11.095
  507MPD2    N1 7664   0.288   2.715  11.129
  507MPD2    H7 7665   0.388   2.704  11.130
  508MPD2     C 7666   1.545   0.188  14.787
  508MPD2    C1 7667   1.533   0.317  14.818
  508MPD2    C2 7668   1.409   0.374  14.817
  508MPD2    C3 7669   1.299   0.303  14.767
  508MPD2    C4 7670   1.318   0.176  14.725
  508MPD2    C5 7671   1.450   0.125  14.723
  508MPD2     H 7672   1.404   0.482  14.826
  508MPD2    H1 7673   1.237   0.108  14.702
  508MPD2    H2 7674   1.642   0.141  14.799
  508MPD2    H3 7675   1.460   0.023  14.686
  508MPD2     N 7676   1.169   0.348  14.765
  508MPD2    H5 7677   1.096   0.288  14.727
  508MPD2    N1 7678   1.648   0.385  14.868
  508MPD2    H7 7679   1.738   0.337  14.873
  509MPD2     C 7680   1.737   1.159  14.878
  509MPD2    C1 7681   1.854   1.088  14.866
  509MPD2    C2 7682   1.970   1.160  14.850
  509MPD2    C3 7683   1.966   1.295  14.814
  509MPD2    C4 7684   1.846   1.358  14.800
  509MPD2    C5 7685   1.730   1.295  14.843
  509MPD2     H 7686   2.068   1.114  14.846
  509MPD2    H1 7687   1.832   1.458  14.763
  509MPD2    H2 7688   1.645   1.103  14.889
  509MPD2    H3 7689   1.637   1.351  14.839
  509MPD2     N 7690   2.093   1.359  14.793
  509MPD2    H5 7691   2.181   1.318  14.821
  509MPD2    N1 7692   1.855   0.951  14.883
  509MPD2    H7 7693   1.762   0.918  14.905
  510MPD2     C 7694   0.368   2.894  14.424
  510MPD2    C1 7695   0.336   3.026  14.443
  510MPD2    C2 7696   0.410   3.127  14.378
  510MPD2    C3 7697   0.529   3.097  14.316
  510MPD2    C4 7698   0.561   2.965  14.308
  510MPD2    C5 7699   0.484   2.866  14.365
  510MPD2     H 7700   0.370   3.227  14.378
  510MPD2    H1 7701   0.649   2.930  14.256
  510MPD2    H2 7702   0.322   2.818  14.487
  510MPD2    H3 7703   0.524   2.765  14.369
  510MPD2     N 7704   0.618   3.187  14.255
  510MPD2    H5 7705   0.686   3.139  14.197
  510MPD2    N1 7706   0.214   3.064  14.515
  510MPD2    H7 7707   0.201   3.164  14.531
  511MPD2     C 7708   0.800   3.190  15.141
  511MPD2    C1 7709   0.847   3.134  15.025
  511MPD2    C2 7710   0.802   3.181  14.900
  511MPD2    C3 7711   0.707   3.278  14.894
  511MPD2    C4 7712   0.659   3.332  15.015
  511MPD2    C5 7713   0.701   3.279  15.135
  511MPD2     H 7714   0.856   3.146  14.813
  511MPD2    H1 7715   0.586   3.412  15.015
  511MPD2    H2 7716   0.839   3.184  15.243
  511MPD2    H3 7717   0.664   3.327  15.225
  511MPD2     N 7718   0.657   3.315  14.764
  511MPD2    H5 7719   0.706   3.278  14.684
  511MPD2    N1 7720   0.960   3.050  15.023
  511MPD2    H7 7721   0.994   3.013  14.935
  512MPD2     C 7722   4.565   1.838  10.243
  512MPD2    C1 7723   4.567   1.698  10.222
  512MPD2    C2 7724   4.677   1.620  10.252
  512MPD2    C3 7725   0.009   1.679  10.276
  512MPD2    C4 7726   4.791   1.818  10.307
  512MPD2    C5 7727   4.677   1.891  10.291
  512MPD2     H 7728   4.674   1.512  10.239
  512MPD2    H1 7729   0.076   1.882  10.347
  512MPD2    H2 7730   4.482   1.906  10.228
  512MPD2    H3 7731   4.673   1.995  10.322
  512MPD2     N 7732   0.135   1.612  10.282
  512MPD2    H5 7733   0.200   1.677  10.326
  512MPD2    N1 7734   4.454   1.634  10.174
  512MPD2    H7 7735   4.464   1.533  10.171
  513MPD2     C 7736   0.207   3.630  11.385
  513MPD2    C1 7737   0.337   3.579  11.369
  513MPD2    C2 7738   0.376   3.464  11.433
  513MPD2    C3 7739   0.285   3.394  11.513
  513MPD2    C4 7740   0.154   3.447  11.528
  513MPD2    C5 7741   0.119   3.559  11.462
  513MPD2     H 7742   0.475   3.421  11.434
  513MPD2    H1 7743   0.077   3.402  11.589
  513MPD2    H2 7744   0.170   3.726  11.350
  513MPD2    H3 7745   0.016   3.591  11.475
  513MPD2     N 7746   0.319   3.269  11.566
  513MPD2    H5 7747   0.396   3.224  11.518
  513MPD2    N1 7748   0.430   3.664  11.307
  513MPD2    H7 7749   0.402   3.761  11.296
  514MPD2     C 7750   1.729   4.482  15.161
  514MPD2    C1 7751   1.749   4.364  15.093
  514MPD2    C2 7752   1.638   4.289  15.051
  514MPD2    C3 7753   1.511   4.339  15.077
  514MPD2    C4 7754   1.487   4.458  15.152
  514MPD2    C5 7755   1.601   4.520  15.198
  514MPD2     H 7756   1.653   4.189  15.012
  514MPD2    H1 7757   1.388   4.485  15.186
  514MPD2    H2 7758   1.810   4.526  15.218
  514MPD2    H3 7759   1.595   4.609  15.261
  514MPD2     N 7760   1.398   4.268  15.033
  514MPD2    H5 7761   1.413   4.182  14.982
  514MPD2    N1 7762   1.887   4.338  15.066
  514MPD2    H7 7763   1.953   4.404  15.107
  515MPD2     C 7764   3.673   0.536   7.768
  515MPD2    C1 7765   3.671   0.668   7.789
  515MPD2    C2 7766   3.554   0.734   7.839
  515MPD2    C3 7767   3.441   0.657   7.857
  515MPD2    C4 7768   3.441   0.529   7.832
  515MPD2    C5 7769   3.558   0.469   7.797
  515MPD2     H 7770   3.554   0.841   7.855
  515MPD2    H1 7771   3.369   0.455   7.863
  515MPD2    H2 7772   3.760   0.480   7.736
  515MPD2    H3 7773   3.553   0.361   7.794
  515MPD2     N 7774   3.337   0.727   7.921
  515MPD2    H5 7775   3.349   0.827   7.936
  515MPD2    N1 7776   3.785   0.735   7.736
  515MPD2    H7 7777   3.852   0.680   7.682
  516MPD2     C 7778   3.213   1.264   8.378
  516MPD2    C1 7779   3.264   1.139   8.349
  516MPD2    C2 7780   3.376   1.097   8.422
  516MPD2    C3 7781   3.425   1.176   8.524
  516MPD2    C4 7782   3.368   1.297   8.549
  516MPD2    C5 7783   3.268   1.344   8.479
  516MPD2     H 7784   3.421   0.999   8.417
  516MPD2    H1 7785   3.404   1.357   8.632
  516MPD2    H2 7786   3.121   1.298   8.332
  516MPD2    H3 7787   3.218   1.439   8.493
  516MPD2     N 7788   3.540   1.150   8.597
  516MPD2    H5 7789   3.558   1.208   8.677
  516MPD2    N1 7790   3.205   1.044   8.254
  516MPD2    H7 7791   3.253   0.955   8.247
  517MPD2     C 7792   2.288   0.987   7.920
  517MPD2    C1 7793   2.347   0.884   7.845
  517MPD2    C2 7794   2.485   0.883   7.827
  517MPD2    C3 7795   2.559   0.972   7.896
  517MPD2    C4 7796   2.497   1.071   7.971
  517MPD2    C5 7797   2.365   1.083   7.979
  517MPD2     H 7798   2.535   0.802   7.775
  517MPD2    H1 7799   2.560   1.142   8.024
  517MPD2    H2 7800   2.180   0.991   7.932
  517MPD2    H3 7801   2.333   1.171   8.034
  517MPD2     N 7802   2.694   0.961   7.925
  517MPD2    H5 7803   2.732   1.023   7.996
  517MPD2    N1 7804   2.262   0.801   7.767
  517MPD2    H7 7805   2.161   0.804   7.777
  518MPD2     C 7806   0.317   2.935  13.384
  518MPD2    C1 7807   0.348   2.909  13.251
  518MPD2    C2 7808   0.385   3.015  13.172
  518MPD2    C3 7809   0.395   3.139  13.228
  518MPD2    C4 7810   0.373   3.162  13.366
  518MPD2    C5 7811   0.329   3.056  13.445
  518MPD2     H 7812   0.429   2.999  13.074
  518MPD2    H1 7813   0.387   3.263  13.404
  518MPD2    H2 7814   0.286   2.854  13.449
  518MPD2    H3 7815   0.303   3.070  13.549
  518MPD2     N 7816   0.445   3.251  13.162
  518MPD2    H5 7817   0.476   3.323  13.227
  518MPD2    N1 7818   0.322   2.778  13.204
  518MPD2    H7 7819   0.318   2.705  13.274
  519MPD2     C 7820   0.283   1.863  13.521
  519MPD2    C1 7821   0.401   1.888  13.453
  519MPD2    C2 7822   0.404   1.998  13.364
  519MPD2    C3 7823   0.287   2.069  13.335
  519MPD2    C4 7824   0.176   2.046  13.414
  519MPD2    C5 7825   0.175   1.939  13.495
  519MPD2     H 7826   0.497   2.030  13.320
  519MPD2    H1 7827   0.082   2.100  13.415
  519MPD2    H2 7828   0.268   1.786  13.596
  519MPD2    H3 7829   0.089   1.919  13.559
  519MPD2     N 7830   0.316   2.182  13.256
  519MPD2    H5 7831   0.408   2.177  13.214
  519MPD2    N1 7832   0.519   1.815  13.475
  519MPD2    H7 7833   0.606   1.834  13.428
  520MPD2     C 7834   1.048   2.141  12.804
  520MPD2    C1 7835   1.095   2.228  12.901
  520MPD2    C2 7836   1.037   2.226  13.027
  520MPD2    C3 7837   0.919   2.158  13.052
  520MPD2    C4 7838   0.879   2.075  12.955
  520MPD2    C5 7839   0.937   2.071  12.835
  520MPD2     H 7840   1.079   2.297  13.097
  520MPD2    H1 7841   0.804   1.999  12.970
  520MPD2    H2 7842   1.079   2.141  12.700
  520MPD2    H3 7843   0.905   1.989  12.771
  520MPD2     N 7844   0.839   2.161  13.170
  520MPD2    H5 7845   0.777   2.081  13.174
  520MPD2    N1 7846   1.210   2.311  12.873
  520MPD2    H7 7847   1.261   2.302  12.786
  521MPD2     C 7848   1.014   3.980   9.080
  521MPD2    C1 7849   1.136   3.937   9.055
  521MPD2    C2 7850   1.158   3.855   8.938
  521MPD2    C3 7851   1.053   3.811   8.860
  521MPD2    C4 7852   0.923   3.850   8.895
  521MPD2    C5 7853   0.909   3.941   8.996
  521MPD2     H 7854   1.258   3.816   8.923
  521MPD2    H1 7855   0.832   3.828   8.841
  521MPD2    H2 7856   0.986   4.050   9.158
  521MPD2    H3 7857   0.807   3.967   9.023
  521MPD2     N 7858   1.091   3.714   8.764
  521MPD2    H5 7859   1.189   3.704   8.742
  521MPD2    N1 7860   1.230   3.969   9.146
  521MPD2    H7 7861   1.210   4.027   9.227
  522MPD2     C 7862   1.963   4.124   9.215
  522MPD2    C1 7863   1.930   4.014   9.294
  522MPD2    C2 7864   2.002   3.985   9.407
  522MPD2    C3 7865   2.108   4.063   9.440
  522MPD2    C4 7866   2.147   4.173   9.360
  522MPD2    C5 7867   2.079   4.191   9.243
  522MPD2     H 7868   1.975   3.904   9.473
  522MPD2    H1 7869   2.236   4.234   9.365
  522MPD2    H2 7870   1.913   4.149   9.121
  522MPD2    H3 7871   2.117   4.264   9.172
  522MPD2     N 7872   2.194   4.036   9.546
  522MPD2    H5 7873   2.192   3.943   9.588
  522MPD2    N1 7874   1.824   3.926   9.250
  522MPD2    H7 7875   1.778   3.942   9.161
  523MPD2     C 7876   1.291   3.507  10.006
  523MPD2    C1 7877   1.365   3.422   9.931
  523MPD2    C2 7878   1.403   3.462   9.801
  523MPD2    C3 7879   1.365   3.589   9.755
  523MPD2    C4 7880   1.292   3.667   9.839
  523MPD2    C5 7881   1.263   3.634   9.970
  523MPD2     H 7882   1.450   3.394   9.731
  523MPD2    H1 7883   1.255   3.763   9.804
  523MPD2    H2 7884   1.244   3.472  10.098
  523MPD2    H3 7885   1.202   3.699  10.031
  523MPD2     N 7886   1.410   3.637   9.626
  523MPD2    H5 7887   1.478   3.575   9.584
  523MPD2    N1 7888   1.378   3.285   9.983
  523MPD2    H7 7889   1.328   3.265  10.069
  524MPD2     C 7890   4.705   1.834   9.788
  524MPD2    C1 7891   4.763   1.860   9.668
  524MPD2    C2 7892   0.033   1.761   9.600
  524MPD2    C3 7893   0.044   1.633   9.656
  524MPD2    C4 7894   4.779   1.604   9.778
  524MPD2    C5 7895   4.713   1.708   9.845
  524MPD2     H 7896   0.086   1.796   9.512
  524MPD2    H1 7897   4.780   1.504   9.820
  524MPD2    H2 7898   4.662   1.909   9.854
  524MPD2    H3 7899   4.673   1.680   9.942
  524MPD2     N 7900   0.148   1.544   9.615
  524MPD2    H5 7901   0.156   1.454   9.663
  524MPD2    N1 7902   4.746   1.985   9.610
  524MPD2    H7 7903   4.711   2.054   9.676
  525MPD2     C 7904   4.788   1.396   8.746
  525MPD2    C1 7905   0.115   1.463   8.746
  525MPD2    C2 7906   0.193   1.443   8.861
  525MPD2    C3 7907   0.143   1.362   8.968
  525MPD2    C4 7908   0.021   1.301   8.962
  525MPD2    C5 7909   4.734   1.328   8.855
  525MPD2     H 7910   0.286   1.499   8.869
  525MPD2    H1 7911   4.783   1.236   9.043
  525MPD2    H2 7912   4.714   1.403   8.667
  525MPD2    H3 7913   4.633   1.292   8.846
  525MPD2     N 7914   0.224   1.364   9.086
  525MPD2    H5 7915   0.319   1.401   9.091
  525MPD2    N1 7916   0.146   1.545   8.635
  525MPD2    H7 7917   0.075   1.541   8.563
  526MPD2     C 7918   0.475   1.925   9.175
  526MPD2    C1 7919   0.430   1.790   9.155
  526MPD2    C2 7920   0.335   1.770   9.056
  526MPD2    C3 7921   0.277   1.874   8.990
  526MPD2    C4 7922   0.311   2.008   9.014
  526MPD2    C5 7923   0.408   2.030   9.112
  526MPD2     H 7924   0.300   1.668   9.043
  526MPD2    H1 7925   0.253   2.093   8.979
  526MPD2    H2 7926   0.538   1.958   9.257
  526MPD2    H3 7927   0.429   2.133   9.139
  526MPD2     N 7928   0.170   1.831   8.909
  526MPD2    H5 7929   0.139   1.735   8.923
  526MPD2    N1 7930   0.478   1.691   9.241
  526MPD2    H7 7931   0.546   1.716   9.312
  527MPD2     C 7932   2.237   4.617   9.880
  527MPD2    C1 7933   2.267   4.512   9.799
  527MPD2    C2 7934   2.404   4.466   9.799
  527MPD2    C3 7935   2.497   4.515   9.887
  527MPD2    C4 7936   2.458   4.616   9.968
  527MPD2    C5 7937   2.340   4.673   9.957
  527MPD2     H 7938   2.436   4.393   9.726
  527MPD2    H1 7939   2.525   4.666  10.037
  527MPD2    H2 7940   2.140   4.655   9.910
  527MPD2    H3 7941   2.312   4.746  10.033
  527MPD2     N 7942   2.621   4.454   9.917
  527MPD2    H5 7943   2.671   4.481  10.001
  527MPD2    N1 7944   2.171   4.446   9.718
  527MPD2    H7 7945   2.210   4.370   9.663
  528MPD2     C 7946   3.542   3.911   9.625
  528MPD2    C1 7947   3.536   4.046   9.596
  528MPD2    C2 7948   3.427   4.118   9.635
  528MPD2    C3 7949   3.323   4.060   9.706
  528MPD2    C4 7950   3.320   3.932   9.732
  528MPD2    C5 7951   3.431   3.860   9.689
  528MPD2     H 7952   3.412   4.218   9.596
  528MPD2    H1 7953   3.243   3.883   9.790
  528MPD2    H2 7954   3.625   3.846   9.599
  528MPD2    H3 7955   3.436   3.753   9.704
  528MPD2     N 7956   3.219   4.148   9.741
  528MPD2    H5 7957   3.239   4.247   9.731
  528MPD2    N1 7958   3.640   4.094   9.523
  528MPD2    H7 7959   3.712   4.031   9.490
  529MPD2     C 7960   0.041   1.259  10.523
  529MPD2    C1 7961   4.789   1.125  10.531
  529MPD2    C2 7962   0.082   1.025  10.576
  529MPD2    C3 7963   0.213   1.048  10.616
  529MPD2    C4 7964   0.253   1.184  10.619
  529MPD2    C5 7965   0.170   1.281  10.569
  529MPD2     H 7966   0.047   0.923  10.581
  529MPD2    H1 7967   0.359   1.208  10.618
  529MPD2    H2 7968   4.775   1.337  10.478
  529MPD2    H3 7969   0.208   1.382  10.558
  529MPD2     N 7970   0.305   0.944  10.644
  529MPD2    H5 7971   0.276   0.853  10.609
  529MPD2    N1 7972   4.670   1.079  10.478
  529MPD2    H7 7973   4.634   0.986  10.498
  530MPD2     C 7974   4.201   1.034   9.959
  530MPD2    C1 7975   4.239   1.128  10.059
  530MPD2    C2 7976   4.362   1.192  10.040
  530MPD2    C3 7977   4.450   1.161   9.937
  530MPD2    C4 7978   4.416   1.067   9.850
  530MPD2    C5 7979   4.294   1.002   9.864
  530MPD2     H 7980   4.386   1.275  10.105
  530MPD2    H1 7981   4.481   1.031   9.770
  530MPD2    H2 7982   4.109   0.977   9.967
  530MPD2    H3 7983   4.261   0.936   9.784
  530MPD2     N 7984   4.575   1.214   9.927
  530MPD2    H5 7985   4.633   1.169   9.856
  530MPD2    N1 7986   4.147   1.144  10.159
  530MPD2    H7 7987   4.065   1.093  10.126
  531MPD2     C 7988   4.336   1.483  10.922
  531MPD2    C1 7989   4.444   1.483  10.838
  531MPD2    C2 7990   4.570   1.467  10.900
  531MPD2    C3 7991   4.583   1.438  11.043
  531MPD2    C4 7992   4.466   1.437  11.112
  531MPD2    C5 7993   4.344   1.463  11.055
  531MPD2     H 7994   4.652   1.458  10.830
  531MPD2    H1 7995   4.478   1.415  11.218
  531MPD2    H2 7996   4.243   1.500  10.869
  531MPD2    H3 7997   4.256   1.474  11.118
  531MPD2     N 7998   4.708   1.409  11.104
  531MPD2    H5 7999   4.697   1.371  11.197
  531MPD2    N1 8000   4.441   1.484  10.693
  531MPD2    H7 8001   4.531   1.495  10.648
  532MPD2     C 8002   1.685   0.489   7.970
  532MPD2    C1 8003   1.677   0.424   7.846
  532MPD2    C2 8004   1.554   0.381   7.800
  532MPD2    C3 8005   1.439   0.392   7.881
  532MPD2    C4 8006   1.443   0.462   7.995
  532MPD2    C5 8007   1.567   0.506   8.035
  532MPD2     H 8008   1.563   0.326   7.707
  532MPD2    H1 8009   1.355   0.479   8.057
  532MPD2    H2 8010   1.777   0.514   8.021
  532MPD2    H3 8011   1.575   0.537   8.139
  532MPD2     N 8012   1.322   0.309   7.850
  532MPD2    H5 8013   1.344   0.222   7.802
  532MPD2    N1 8014   1.793   0.415   7.761
  532MPD2    H7 8015   1.779   0.390   7.664
  533MPD2     C 8016   0.416   0.040  10.987
  533MPD2    C1 8017   0.300   0.024  11.060
  533MPD2    C2 8018   0.176   0.025  11.000
  533MPD2    C3 8019   0.171   0.045  10.863
  533MPD2    C4 8020   0.289   0.058  10.794
  533MPD2    C5 8021   0.409   0.052  10.855
  533MPD2     H 8022   0.090   0.013  11.064
  533MPD2    H1 8023   0.276   0.086  10.690
  533MPD2    H2 8024   0.514   0.052  11.032
  533MPD2    H3 8025   0.504   0.062  10.805
  533MPD2     N 8026   0.057   0.038  10.787
  533MPD2    H5 8027   0.065   0.028  10.687
  533MPD2    N1 8028   0.306   0.006  11.199
  533MPD2    H7 8029   0.214   4.784  11.240
  534MPD2     C 8030   0.900   0.189  11.766
  534MPD2    C1 8031   0.863   0.057  11.742
  534MPD2    C2 8032   0.947   4.751  11.779
  534MPD2    C3 8033   1.068   4.769  11.847
  534MPD2    C4 8034   1.098   0.104  11.874
  534MPD2    C5 8035   1.017   0.208  11.834
  534MPD2     H 8036   0.908   4.651  11.766
  534MPD2    H1 8037   1.184   0.127  11.935
  534MPD2    H2 8038   0.831   0.272  11.754
  534MPD2    H3 8039   1.045   0.309  11.863
  534MPD2     N 8040   1.128   4.656  11.890
  534MPD2    H5 8041   1.077   4.571  11.868
  534MPD2    N1 8042   0.734   0.015  11.687
  534MPD2    H7 8043   0.715   4.710  11.683
  535MPD2     C 8044   4.031   1.542   7.643
  535MPD2    C1 8045   3.977   1.454   7.732
  535MPD2    C2 8046   3.895   1.505   7.829
  535MPD2    C3 8047   3.894   1.639   7.865
  535MPD2    C4 8048   3.961   1.727   7.776
  535MPD2    C5 8049   4.026   1.679   7.665
  535MPD2     H 8050   3.853   1.438   7.902
  535MPD2    H1 8051   3.960   1.835   7.790
  535MPD2    H2 8052   4.082   1.514   7.552
  535MPD2    H3 8053   4.055   1.751   7.590
  535MPD2     N 8054   3.840   1.673   7.993
  535MPD2    H5 8055   3.788   1.603   8.044
  535MPD2    N1 8056   3.966   1.318   7.703
  535MPD2    H7 8057   3.895   1.266   7.753
  536MPD2     C 8058   4.093   0.423   7.079
  536MPD2    C1 8059   3.989   0.501   7.032
  536MPD2    C2 8060   3.957   0.613   7.109
  536MPD2    C3 8061   4.031   0.654   7.220
  536MPD2    C4 8062   4.138   0.575   7.249
  536MPD2    C5 8063   4.174   0.459   7.186
  536MPD2     H 8064   3.873   0.675   7.080
  536MPD2    H1 8065   4.212   0.599   7.324
  536MPD2    H2 8066   4.131   0.333   7.031
  536MPD2    H3 8067   4.265   0.409   7.216
  536MPD2     N 8068   3.998   0.767   7.294
  536MPD2    H5 8069   3.903   0.800   7.279
  536MPD2    N1 8070   3.926   0.470   6.912
  536MPD2    H7 8071   3.972   0.396   6.861
  537MPD2     C 8072   1.514   0.009   7.695
  537MPD2    C1 8073   1.410   4.741   7.768
  537MPD2    C2 8074   1.280   4.772   7.741
  537MPD2    C3 8075   1.253   0.057   7.635
  537MPD2    C4 8076   1.355   0.117   7.563
  537MPD2    C5 8077   1.482   0.100   7.597
  537MPD2     H 8078   1.202   4.735   7.807
  537MPD2    H1 8079   1.334   0.173   7.472
  537MPD2    H2 8080   1.618   4.791   7.724
  537MPD2    H3 8081   1.556   0.157   7.542
  537MPD2     N 8082   1.127   0.091   7.595
  537MPD2    H5 8083   1.118   0.158   7.520
  537MPD2    N1 8084   1.429   4.647   7.868
  537MPD2    H7 8085   1.348   4.609   7.916
  538MPD2     C 8086   4.005   3.858   8.479
  538MPD2    C1 8087   4.008   3.993   8.482
  538MPD2    C2 8088   4.057   4.062   8.372
  538MPD2    C3 8089   4.104   3.993   8.264
  538MPD2    C4 8090   4.112   3.857   8.261
  538MPD2    C5 8091   4.073   3.796   8.378
  538MPD2     H 8092   4.047   4.170   8.367
  538MPD2    H1 8093   4.135   3.791   8.178
  538MPD2    H2 8094   3.979   3.791   8.561
  538MPD2    H3 8095   4.079   3.687   8.382
  538MPD2     N 8096   4.119   4.078   8.153
  538MPD2    H5 8097   4.108   4.178   8.158
  538MPD2    N1 8098   3.944   4.070   8.578
  538MPD2    H7 8099   3.962   4.170   8.574
  539MPD2     C 8100   4.696   4.253   7.397
  539MPD2    C1 8101   4.703   4.183   7.515
  539MPD2    C2 8102   4.585   4.160   7.586
  539MPD2    C3 8103   4.460   4.211   7.546
  539MPD2    C4 8104   4.452   4.269   7.421
  539MPD2    C5 8105   4.571   4.280   7.348
  539MPD2     H 8106   4.591   4.101   7.677
  539MPD2    H1 8107   4.361   4.303   7.372
  539MPD2    H2 8108   4.784   4.262   7.335
  539MPD2    H3 8109   4.544   4.326   7.254
  539MPD2     N 8110   4.347   4.190   7.625
  539MPD2    H5 8111   4.364   4.147   7.716
  539MPD2    N1 8112   0.033   4.117   7.546
  539MPD2    H7 8113   0.104   4.119   7.473
  540MPD2     C 8114   0.359   0.729  12.480
  540MPD2    C1 8115   0.373   0.604  12.411
  540MPD2    C2 8116   0.309   0.587  12.290
  540MPD2    C3 8117   0.239   0.689  12.229
  540MPD2    C4 8118   0.222   0.810  12.296
  540MPD2    C5 8119   0.281   0.829  12.421
  540MPD2     H 8120   0.316   0.488  12.246
  540MPD2    H1 8121   0.156   0.887  12.259
  540MPD2    H2 8122   0.404   0.758  12.574
  540MPD2    H3 8123   0.275   0.926  12.470
  540MPD2     N 8124   0.190   0.687  12.098
  540MPD2    H5 8125   0.134   0.764  12.063
  540MPD2    N1 8126   0.465   0.508  12.460
  540MPD2    H7 8127   0.490   0.445  12.384
  541MPD2     C 8128   0.275   0.007  12.773
  541MPD2    C1 8129   0.326   0.112  12.703
  541MPD2    C2 8130   0.396   0.092  12.588
  541MPD2    C3 8131   0.413   4.754  12.537
  541MPD2    C4 8132   0.351   4.650  12.602
  541MPD2    C5 8133   0.289   4.676  12.723
  541MPD2     H 8134   0.434   0.183  12.543
  541MPD2    H1 8135   0.358   4.543  12.584
  541MPD2    H2 8136   0.221   0.012  12.867
  541MPD2    H3 8137   0.256   4.591  12.781
  541MPD2     N 8138   0.467   4.745  12.407
  541MPD2    H5 8139   0.475   0.036  12.352
  541MPD2    N1 8140   0.315   0.252  12.732
  541MPD2    H7 8141   0.353   0.311  12.658
  542MPD2     C 8142   3.008   1.372  11.811
  542MPD2    C1 8143   3.053   1.448  11.917
  542MPD2    C2 8144   3.108   1.387  12.030
  542MPD2    C3 8145   3.111   1.243  12.035
  542MPD2    C4 8146   3.059   1.174  11.932
  542MPD2    C5 8147   3.020   1.235  11.816
  542MPD2     H 8148   3.134   1.453  12.113
  542MPD2    H1 8149   3.055   1.066  11.935
  542MPD2    H2 8150   2.949   1.414  11.730
  542MPD2    H3 8151   2.988   1.177  11.730
  542MPD2     N 8152   3.164   1.168  12.140
  542MPD2    H5 8153   3.178   1.069  12.124
  542MPD2    N1 8154   3.028   1.587  11.911
  542MPD2    H7 8155   2.988   1.621  11.824
  543MPD2     C 8156   3.366   2.209  11.964
  543MPD2    C1 8157   3.281   2.119  11.908
  543MPD2    C2 8158   3.330   2.004  11.849
  543MPD2    C3 8159   3.467   1.979  11.870
  543MPD2    C4 8160   3.553   2.068  11.933
  543MPD2    C5 8161   3.501   2.184  11.984
  543MPD2     H 8162   3.259   1.927  11.821
  543MPD2    H1 8163   3.656   2.049  11.958
  543MPD2    H2 8164   3.325   2.299  12.009
  543MPD2    H3 8165   3.568   2.248  12.040
  543MPD2     N 8166   3.505   1.848  11.854
  543MPD2    H5 8167   3.586   1.826  11.911
  543MPD2    N1 8168   3.143   2.118  11.924
  543MPD2    H7 8169   3.103   2.040  11.872
  544MPD2     C 8170   2.563   1.747  11.654
  544MPD2    C1 8171   2.614   1.810  11.771
  544MPD2    C2 8172   2.635   1.733  11.883
  544MPD2    C3 8173   2.626   1.601  11.876
  544MPD2    C4 8174   2.574   1.538  11.763
  544MPD2    C5 8175   2.539   1.613  11.651
  544MPD2     H 8176   2.659   1.787  11.974
  544MPD2    H1 8177   2.540   1.436  11.772
  544MPD2    H2 8178   2.556   1.797  11.558
  544MPD2    H3 8179   2.484   1.562  11.573
  544MPD2     N 8180   2.663   1.518  11.986
  544MPD2    H5 8181   2.679   1.567  12.074
  544MPD2    N1 8182   2.655   1.942  11.749
  544MPD2    H7 8183   2.621   1.983  11.663
  545MPD2     C 8184   4.663   3.470   6.481
  545MPD2    C1 8185   4.591   3.501   6.374
  545MPD2    C2 8186   4.590   3.626   6.317
  545MPD2    C3 8187   4.678   3.724   6.367
  545MPD2    C4 8188   4.758   3.685   6.470
  545MPD2    C5 8189   4.753   3.560   6.526
  545MPD2     H 8190   4.516   3.659   6.245
  545MPD2    H1 8191   0.048   3.746   6.502
  545MPD2    H2 8192   4.668   3.375   6.534
  545MPD2    H3 8193   0.033   3.535   6.601
  545MPD2     N 8194   4.684   3.862   6.328
  545MPD2    H5 8195   4.760   3.911   6.375
  545MPD2    N1 8196   4.509   3.400   6.333
  545MPD2    H7 8197   4.516   3.311   6.380
  546MPD2     C 8198   4.350   2.520   6.583
  546MPD2    C1 8199   4.300   2.635   6.651
  546MPD2    C2 8200   4.272   2.746   6.572
  546MPD2    C3 8201   4.285   2.743   6.433
  546MPD2    C4 8202   4.328   2.627   6.375
  546MPD2    C5 8203   4.361   2.513   6.448
  546MPD2     H 8204   4.229   2.835   6.617
  546MPD2    H1 8205   4.331   2.614   6.267
  546MPD2    H2 8206   4.372   2.428   6.637
  546MPD2    H3 8207   4.381   2.417   6.403
  546MPD2     N 8208   4.255   2.858   6.351
  546MPD2    H5 8209   4.254   2.848   6.250
  546MPD2    N1 8210   4.269   2.631   6.788
  546MPD2    H7 8211   4.279   2.539   6.830
  547MPD2     C 8212   0.600   4.179  11.360
  547MPD2    C1 8213   0.495   4.108  11.304
  547MPD2    C2 8214   0.521   4.039  11.191
  547MPD2    C3 8215   0.628   4.063  11.112
  547MPD2    C4 8216   0.732   4.140  11.158
  547MPD2    C5 8217   0.717   4.193  11.284
  547MPD2     H 8218   0.445   3.972  11.153
  547MPD2    H1 8219   0.823   4.156  11.100
  547MPD2    H2 8220   0.604   4.229  11.457
  547MPD2    H3 8221   0.803   4.250  11.319
  547MPD2     N 8222   0.608   4.018  10.982
  547MPD2    H5 8223   0.527   3.960  10.967
  547MPD2    N1 8224   0.370   4.123  11.362
  547MPD2    H7 8225   0.356   4.204  11.421
  548MPD2     C 8226   0.563   4.700  10.528
  548MPD2    C1 8227   0.594   4.573  10.480
  548MPD2    C2 8228   0.669   4.569  10.364
  548MPD2    C3 8229   0.712   4.687  10.299
  548MPD2    C4 8230   0.692   0.010  10.355
  548MPD2    C5 8231   0.613   0.017  10.465
  548MPD2     H 8232   0.685   4.475  10.313
  548MPD2    H1 8233   0.721   0.107  10.317
  548MPD2    H2 8234   0.489   4.712  10.606
  548MPD2    H3 8235   0.591   0.115  10.506
  548MPD2     N 8236   0.771   4.673  10.170
  548MPD2    H5 8237   0.763   4.579  10.132
  548MPD2    N1 8238   0.556   4.460  10.553
  548MPD2    H7 8239   0.490   4.479  10.628
  549MPD2     C 8240   4.546   1.379  13.759
  549MPD2    C1 8241   4.423   1.424  13.795
  549MPD2    C2 8242   4.364   1.375  13.907
  549MPD2    C3 8243   4.430   1.280  13.986
  549MPD2    C4 8244   4.546   1.228  13.942
  549MPD2    C5 8245   4.611   1.289  13.836
  549MPD2     H 8246   4.263   1.410  13.922
  549MPD2    H1 8247   4.603   1.153  13.996
  549MPD2    H2 8248   4.603   1.413  13.673
  549MPD2    H3 8249   4.698   1.241  13.792
  549MPD2     N 8250   4.363   1.232  14.099
  549MPD2    H5 8251   4.399   1.152  14.151
  549MPD2    N1 8252   4.344   1.502  13.704
  549MPD2    H7 8253   4.248   1.525  13.729
  550MPD2     C 8254   3.386   1.319  14.164
  550MPD2    C1 8255   3.425   1.190  14.184
  550MPD2    C2 8256   3.550   1.166  14.239
  550MPD2    C3 8257   3.640   1.271  14.246
  550MPD2    C4 8258   3.607   1.390  14.191
  550MPD2    C5 8259   3.483   1.413  14.148
  550MPD2     H 8260   3.588   1.068  14.266
  550MPD2    H1 8261   3.673   1.474  14.174
  550MPD2    H2 8262   3.288   1.338  14.122
  550MPD2    H3 8263   3.458   1.507  14.101
  550MPD2     N 8264   3.769   1.253  14.292
  550MPD2    H5 8265   3.840   1.321  14.268
  550MPD2    N1 8266   3.329   1.093  14.162
  550MPD2    H7 8267   3.237   1.132  14.147
  551MPD2     C 8268   3.196   4.059   9.381
  551MPD2    C1 8269   3.169   4.160   9.289
  551MPD2    C2 8270   3.271   4.204   9.203
  551MPD2    C3 8271   3.394   4.136   9.184
  551MPD2    C4 8272   3.415   4.027   9.273
  551MPD2    C5 8273   3.321   4.000   9.371
  551MPD2     H 8274   3.245   4.290   9.143
  551MPD2    H1 8275   3.505   3.966   9.273
  551MPD2    H2 8276   3.123   4.013   9.447
  551MPD2    H3 8277   3.341   3.912   9.431
  551MPD2     N 8278   3.485   4.180   9.088
  551MPD2    H5 8279   3.454   4.262   9.038
  551MPD2    N1 8280   3.048   4.227   9.276
  551MPD2    H7 8281   3.036   4.284   9.192
  552MPD2     C 8282   1.127   3.564  15.035
  552MPD2    C1 8283   1.123   3.630  14.912
  552MPD2    C2 8284   1.126   3.553  14.798
  552MPD2    C3 8285   1.121   3.415  14.802
  552MPD2    C4 8286   1.099   3.348  14.924
  552MPD2    C5 8287   1.113   3.431  15.039
  552MPD2     H 8288   1.132   3.602  14.701
  552MPD2    H1 8289   1.091   3.241  14.940
  552MPD2    H2 8290   1.122   3.610  15.133
  552MPD2    H3 8291   1.111   3.392  15.140
  552MPD2     N 8292   1.137   3.342  14.683
  552MPD2    H5 8293   1.160   3.395  14.599
  552MPD2    N1 8294   1.109   3.768  14.898
  552MPD2    H7 8295   1.099   3.809  14.806
  553MPD2     C 8296   1.691   2.834   9.349
  553MPD2    C1 8297   1.692   2.943   9.429
  553MPD2    C2 8298   1.604   2.957   9.531
  553MPD2    C3 8299   1.517   2.861   9.570
  553MPD2    C4 8300   1.506   2.752   9.487
  553MPD2    C5 8301   1.585   2.744   9.375
  553MPD2     H 8302   1.605   3.036   9.605
  553MPD2    H1 8303   1.432   2.674   9.500
  553MPD2    H2 8304   1.753   2.812   9.262
  553MPD2    H3 8305   1.564   2.659   9.311
  553MPD2     N 8306   1.441   2.878   9.685
  553MPD2    H5 8307   1.444   2.971   9.727
  553MPD2    N1 8308   1.803   3.028   9.414
  553MPD2    H7 8309   1.875   3.009   9.346
  554MPD2     C 8310   3.683   2.854  11.272
  554MPD2    C1 8311   3.659   2.847  11.409
  554MPD2    C2 8312   3.526   2.837  11.456
  554MPD2    C3 8313   3.419   2.816  11.364
  554MPD2    C4 8314   3.452   2.823  11.229
  554MPD2    C5 8315   3.576   2.844  11.184
  554MPD2     H 8316   3.503   2.844  11.562
  554MPD2    H1 8317   3.378   2.813  11.150
  554MPD2    H2 8318   3.784   2.882  11.246
  554MPD2    H3 8319   3.606   2.858  11.081
  554MPD2     N 8320   3.290   2.783  11.419
  554MPD2    H5 8321   3.292   2.738  11.509
  554MPD2    N1 8322   3.770   2.824  11.488
  554MPD2    H7 8323   3.848   2.782  11.439
  555MPD2     C 8324   4.261   2.550  12.163
  555MPD2    C1 8325   4.148   2.628  12.166
  555MPD2    C2 8326   4.118   2.694  12.286
  555MPD2    C3 8327   4.202   2.710  12.392
  555MPD2    C4 8328   4.319   2.641  12.379
  555MPD2    C5 8329   4.347   2.569  12.266
  555MPD2     H 8330   4.021   2.741  12.294
  555MPD2    H1 8331   4.398   2.644  12.454
  555MPD2    H2 8332   4.286   2.487  12.078
  555MPD2    H3 8333   4.442   2.515  12.268
  555MPD2     N 8334   4.171   2.786  12.503
  555MPD2    H5 8335   4.077   2.820  12.515
  555MPD2    N1 8336   4.050   2.620  12.060
  555MPD2    H7 8337   4.078   2.557  11.986
  556MPD2     C 8338   3.355   2.996  13.315
  556MPD2    C1 8339   3.233   2.930  13.327
  556MPD2    C2 8340   3.113   2.992  13.337
  556MPD2    C3 8341   3.111   3.129  13.316
  556MPD2    C4 8342   3.233   3.195  13.313
  556MPD2    C5 8343   3.351   3.132  13.311
  556MPD2     H 8344   3.022   2.935  13.349
  556MPD2    H1 8345   3.240   3.303  13.317
  556MPD2    H2 8346   3.444   2.935  13.322
  556MPD2    H3 8347   3.441   3.192  13.313
  556MPD2     N 8348   2.997   3.207  13.341
  556MPD2    H5 8349   3.012   3.306  13.356
  556MPD2    N1 8350   3.235   2.791  13.332
  556MPD2    H7 8351   3.144   2.747  13.318
  557MPD2     C 8352   4.485   2.103  12.482
  557MPD2    C1 8353   4.459   2.081  12.349
  557MPD2    C2 8354   4.551   2.007  12.274
  557MPD2    C3 8355   4.671   1.965  12.325
  557MPD2    C4 8356   4.696   1.990  12.457
  557MPD2    C5 8357   4.604   2.057  12.538
  557MPD2     H 8358   4.531   2.000  12.168
  557MPD2    H1 8359   4.779   1.946  12.511
  557MPD2    H2 8360   4.416   2.151  12.550
  557MPD2    H3 8361   4.618   2.062  12.645
  557MPD2     N 8362   4.758   1.877  12.246
  557MPD2    H5 8363   4.719   1.838  12.161
  557MPD2    N1 8364   4.340   2.130  12.283
  557MPD2    H7 8365   4.325   2.110  12.185
  558MPD2     C 8366   2.269   1.949  14.980
  558MPD2    C1 8367   2.301   1.987  14.853
  558MPD2    C2 8368   2.196   1.976  14.759
  558MPD2    C3 8369   2.071   1.930  14.797
  558MPD2    C4 8370   2.040   1.910  14.928
  558MPD2    C5 8371   2.141   1.917  15.019
  558MPD2     H 8372   2.210   2.004  14.655
  558MPD2    H1 8373   1.940   1.887  14.964
  558MPD2    H2 8374   2.342   1.943  15.060
  558MPD2    H3 8375   2.123   1.897  15.124
  558MPD2     N 8376   1.968   1.905  14.702
  558MPD2    H5 8377   1.995   1.901  14.604
  558MPD2    N1 8378   2.429   2.022  14.806
  558MPD2    H7 8379   2.444   2.065  14.715
  559MPD2     C 8380   1.063   1.951  14.918
  559MPD2    C1 8381   1.194   1.978  14.970
  559MPD2    C2 8382   1.300   1.979  14.883
  559MPD2    C3 8383   1.282   1.930  14.747
  559MPD2    C4 8384   1.157   1.899  14.699
  559MPD2    C5 8385   1.047   1.915  14.785
  559MPD2     H 8386   1.404   1.994  14.908
  559MPD2    H1 8387   1.144   1.848  14.604
  559MPD2    H2 8388   0.980   1.950  14.988
  559MPD2    H3 8389   0.947   1.896  14.748
  559MPD2     N 8390   1.402   1.912  14.667
  559MPD2    H5 8391   1.494   1.934  14.704
  559MPD2    N1 8392   1.208   2.029  15.104
  559MPD2    H7 8393   1.125   2.040  15.161
  560MPD2     C 8394   1.997   0.977  11.936
  560MPD2    C1 8395   2.025   0.839  11.944
  560MPD2    C2 8396   1.920   0.754  11.917
  560MPD2    C3 8397   1.787   0.791  11.907
  560MPD2    C4 8398   1.766   0.927  11.904
  560MPD2    C5 8399   1.867   1.015  11.922
  560MPD2     H 8400   1.940   0.651  11.942
  560MPD2    H1 8401   1.663   0.959  11.896
  560MPD2    H2 8402   2.074   1.050  11.958
  560MPD2    H3 8403   1.848   1.121  11.935
  560MPD2     N 8404   1.688   0.688  11.912
  560MPD2    H5 8405   1.722   0.594  11.894
  560MPD2    N1 8406   2.150   0.809  11.997
  560MPD2    H7 8407   2.230   0.871  11.990
  561MPD2     C 8408   3.185   3.448   8.540
  561MPD2    C1 8409   3.132   3.484   8.418
  561MPD2    C2 8410   3.217   3.547   8.327
  561MPD2    C3 8411   3.342   3.587   8.371
  561MPD2    C4 8412   3.393   3.546   8.494
  561MPD2    C5 8413   3.317   3.477   8.580
  561MPD2     H 8414   3.187   3.559   8.223
  561MPD2    H1 8415   3.496   3.570   8.520
  561MPD2    H2 8416   3.127   3.384   8.607
  561MPD2    H3 8417   3.352   3.467   8.682
  561MPD2     N 8418   3.430   3.655   8.289
  561MPD2    H5 8419   3.515   3.681   8.338
  561MPD2    N1 8420   3.004   3.430   8.386
  561MPD2    H7 8421   2.954   3.376   8.457
  562MPD2     C 8422   2.643   3.927   8.796
  562MPD2    C1 8423   2.755   3.866   8.745
  562MPD2    C2 8424   2.747   3.775   8.637
  562MPD2    C3 8425   2.624   3.736   8.584
  562MPD2    C4 8426   2.519   3.807   8.634
  562MPD2    C5 8427   2.527   3.904   8.731
  562MPD2     H 8428   2.834   3.717   8.608
  562MPD2    H1 8429   2.419   3.791   8.594
  562MPD2    H2 8430   2.629   3.979   8.891
  562MPD2    H3 8431   2.437   3.957   8.759
  562MPD2     N 8432   2.629   3.649   8.477
  562MPD2    H5 8433   2.721   3.617   8.446
  562MPD2    N1 8434   2.887   3.874   8.797
  562MPD2    H7 8435   2.961   3.829   8.745
  563MPD2     C 8436   0.662   1.298  10.616
  563MPD2    C1 8437   0.641   1.363  10.735
  563MPD2    C2 8438   0.711   1.481  10.766
  563MPD2    C3 8439   0.798   1.537  10.674
  563MPD2    C4 8440   0.823   1.470  10.553
  563MPD2    C5 8441   0.751   1.357  10.528
  563MPD2     H 8442   0.695   1.536  10.858
  563MPD2    H1 8443   0.896   1.502  10.479
  563MPD2    H2 8444   0.603   1.211  10.590
  563MPD2    H3 8445   0.776   1.302  10.437
  563MPD2     N 8446   0.855   1.663  10.715
  563MPD2    H5 8447   0.816   1.713  10.794
  563MPD2    N1 8448   0.545   1.309  10.822
  563MPD2    H7 8449   0.510   1.218  10.796
  564MPD2     C 8450   4.710   4.496  13.020
  564MPD2    C1 8451   4.672   4.615  12.966
  564MPD2    C2 8452   4.708   4.645  12.833
  564MPD2    C3 8453   4.773   4.548  12.757
  564MPD2    C4 8454   0.028   4.434  12.817
  564MPD2    C5 8455   4.789   4.409  12.949
  564MPD2     H 8456   4.676   4.737  12.785
  564MPD2    H1 8457   0.081   4.359  12.760
  564MPD2    H2 8458   4.687   4.467  13.122
  564MPD2    H3 8459   0.038   4.322  12.998
  564MPD2     N 8460   4.791   4.557  12.617
  564MPD2    H5 8461   0.035   4.473  12.576
  564MPD2    N1 8462   4.604   4.710  13.044
  564MPD2    H7 8463   4.619   0.011  13.010
  565MPD2     C 8464   4.125   4.770  13.990
  565MPD2    C1 8465   4.060   0.039  13.885
  565MPD2    C2 8466   4.121   0.057  13.763
  565MPD2    C3 8467   4.251   0.005  13.737
  565MPD2    C4 8468   4.318   4.732  13.839
  565MPD2    C5 8469   4.254   4.723  13.960
  565MPD2     H 8470   4.072   0.117  13.687
  565MPD2    H1 8471   4.421   4.700  13.832
  565MPD2    H2 8472   4.079   4.748  14.086
  565MPD2    H3 8473   4.301   4.658  14.033
  565MPD2     N 8474   4.323   0.031  13.625
  565MPD2    H5 8475   4.418   4.788  13.624
  565MPD2    N1 8476   3.929   0.091  13.903
  565MPD2    H7 8477   3.885   0.125  13.818
  566MPD2     C 8478   2.811   3.783  12.203
  566MPD2    C1 8479   2.729   3.675  12.198
  566MPD2    C2 8480   2.607   3.685  12.269
  566MPD2    C3 8481   2.590   3.789  12.352
  566MPD2    C4 8482   2.677   3.895  12.353
  566MPD2    C5 8483   2.781   3.897  12.272
  566MPD2     H 8484   2.541   3.600  12.256
  566MPD2    H1 8485   2.650   3.988  12.403
  566MPD2    H2 8486   2.906   3.781  12.151
  566MPD2    H3 8487   2.843   3.986  12.262
  566MPD2     N 8488   2.484   3.797  12.446
  566MPD2    H5 8489   2.475   3.876  12.509
  566MPD2    N1 8490   2.778   3.562  12.132
  566MPD2    H7 8491   2.875   3.577  12.104
  567MPD2     C 8492   3.341   2.742   8.723
  567MPD2    C1 8493   3.315   2.607   8.698
  567MPD2    C2 8494   3.339   2.544   8.574
  567MPD2    C3 8495   3.398   2.619   8.473
  567MPD2    C4 8496   3.418   2.751   8.491
  567MPD2    C5 8497   3.388   2.810   8.614
  567MPD2     H 8498   3.321   2.437   8.577
  567MPD2    H1 8499   3.465   2.815   8.417
  567MPD2    H2 8500   3.318   2.797   8.813
  567MPD2    H3 8501   3.411   2.916   8.619
  567MPD2     N 8502   3.441   2.573   8.346
  567MPD2    H5 8503   3.472   2.643   8.280
  567MPD2    N1 8504   3.265   2.521   8.795
  567MPD2    H7 8505   3.276   2.421   8.781
  568MPD2     C 8506   3.447   2.963   7.478
  568MPD2    C1 8507   3.347   2.872   7.488
  568MPD2    C2 8508   3.355   2.783   7.594
  568MPD2    C3 8509   3.458   2.772   7.689
  568MPD2    C4 8510   3.561   2.856   7.669
  568MPD2    C5 8511   3.554   2.956   7.569
  568MPD2     H 8512   3.269   2.718   7.601
  568MPD2    H1 8513   3.645   2.858   7.738
  568MPD2    H2 8514   3.446   3.044   7.406
  568MPD2    H3 8515   3.640   3.021   7.557
  568MPD2     N 8516   3.450   2.671   7.786
  568MPD2    H5 8517   3.360   2.626   7.795
  568MPD2    N1 8518   3.222   2.874   7.418
  568MPD2    H7 8519   3.158   2.796   7.426
  569MPD2     C 8520   3.715   1.477  12.627
  569MPD2    C1 8521   3.713   1.358  12.560
  569MPD2    C2 8522   3.603   1.277  12.577
  569MPD2    C3 8523   3.516   1.295  12.684
  569MPD2    C4 8524   3.533   1.401  12.764
  569MPD2    C5 8525   3.634   1.490  12.735
  569MPD2     H 8526   3.590   1.184  12.522
  569MPD2    H1 8527   3.476   1.409  12.856
  569MPD2    H2 8528   3.786   1.558  12.619
  569MPD2    H3 8529   3.648   1.582  12.790
  569MPD2     N 8530   3.450   1.180  12.733
  569MPD2    H5 8531   3.424   1.180  12.831
  569MPD2    N1 8532   3.794   1.331  12.450
  569MPD2    H7 8533   3.774   1.243  12.405
  570MPD2     C 8534   4.570   3.668  13.651
  570MPD2    C1 8535   4.436   3.668  13.619
  570MPD2    C2 8536   4.381   3.637  13.495
  570MPD2    C3 8537   4.464   3.575  13.407
  570MPD2    C4 8538   4.597   3.577  13.438
  570MPD2    C5 8539   4.652   3.628  13.551
  570MPD2     H 8540   4.274   3.638  13.474
  570MPD2    H1 8541   4.671   3.558  13.362
  570MPD2    H2 8542   4.608   3.692  13.750
  570MPD2    H3 8543   4.759   3.613  13.552
  570MPD2     N 8544   4.415   3.513  13.282
  570MPD2    H5 8545   4.315   3.509  13.269
  570MPD2    N1 8546   4.340   3.707  13.722
  570MPD2    H7 8547   4.244   3.703  13.689
  571MPD2     C 8548   2.948   2.279   8.656
  571MPD2    C1 8549   2.894   2.402   8.683
  571MPD2    C2 8550   2.818   2.415   8.793
  571MPD2    C3 8551   2.770   2.307   8.863
  571MPD2    C4 8552   2.825   2.179   8.830
  571MPD2    C5 8553   2.911   2.164   8.725
  571MPD2     H 8554   2.784   2.514   8.823
  571MPD2    H1 8555   2.801   2.097   8.896
  571MPD2    H2 8556   3.022   2.263   8.578
  571MPD2    H3 8557   2.948   2.067   8.695
  571MPD2     N 8558   2.689   2.333   8.980
  571MPD2    H5 8559   2.666   2.428   9.004
  571MPD2    N1 8560   2.923   2.528   8.627
  571MPD2    H7 8561   2.878   2.607   8.673
  572MPD2     C 8562   2.770   2.987   9.210
  572MPD2    C1 8563   2.783   2.857   9.157
  572MPD2    C2 8564   2.869   2.831   9.056
  572MPD2    C3 8565   2.916   2.937   8.983
  572MPD2    C4 8566   2.891   3.065   9.022
  572MPD2    C5 8567   2.829   3.090   9.141
  572MPD2     H 8568   2.878   2.728   9.023
  572MPD2    H1 8569   2.916   3.152   8.961
  572MPD2    H2 8570   2.713   3.015   9.298
  572MPD2    H3 8571   2.798   3.189   9.173
  572MPD2     N 8572   2.988   2.906   8.867
  572MPD2    H5 8573   3.024   2.811   8.861
  572MPD2    N1 8574   2.708   2.753   9.215
  572MPD2    H7 8575   2.643   2.779   9.288
  573MPD2     C 8576   0.330   1.751   6.534
  573MPD2    C1 8577   0.368   1.751   6.668
  573MPD2    C2 8578   0.446   1.647   6.715
  573MPD2    C3 8579   0.497   1.553   6.624
  573MPD2    C4 8580   0.462   1.562   6.489
  573MPD2    C5 8581   0.371   1.657   6.441
  573MPD2     H 8582   0.473   1.642   6.820
  573MPD2    H1 8583   0.489   1.480   6.422
  573MPD2    H2 8584   0.266   1.827   6.491
  573MPD2    H3 8585   0.332   1.669   6.341
  573MPD2     N 8586   0.580   1.448   6.663
  573MPD2    H5 8587   0.601   1.388   6.584
  573MPD2    N1 8588   0.309   1.855   6.747
  573MPD2    H7 8589   0.248   1.922   6.703
  574MPD2     C 8590   0.660   1.194   6.215
  574MPD2    C1 8591   0.738   1.197   6.331
  574MPD2    C2 8592   0.795   1.322   6.365
  574MPD2    C3 8593   0.760   1.441   6.303
  574MPD2    C4 8594   0.683   1.431   6.195
  574MPD2    C5 8595   0.642   1.312   6.145
  574MPD2     H 8596   0.870   1.325   6.442
  574MPD2    H1 8597   0.643   1.519   6.147
  574MPD2    H2 8598   0.618   1.100   6.183
  574MPD2    H3 8599   0.571   1.317   6.063
  574MPD2     N 8600   0.799   1.567   6.352
  574MPD2    H5 8601   0.786   1.637   6.280
  574MPD2    N1 8602   0.751   1.068   6.399
  574MPD2    H7 8603   0.719   0.985   6.350
  575MPD2     C 8604   2.700   2.269   7.500
  575MPD2    C1 8605   2.614   2.365   7.457
  575MPD2    C2 8606   2.662   2.467   7.381
  575MPD2    C3 8607   2.792   2.489   7.363
  575MPD2    C4 8608   2.879   2.394   7.404
  575MPD2    C5 8609   2.827   2.280   7.459
  575MPD2     H 8610   2.594   2.536   7.332
  575MPD2    H1 8611   2.984   2.421   7.406
  575MPD2    H2 8612   2.671   2.180   7.555
  575MPD2    H3 8613   2.889   2.199   7.496
  575MPD2     N 8614   2.842   2.610   7.308
  575MPD2    H5 8615   2.943   2.611   7.309
  575MPD2    N1 8616   2.485   2.344   7.481
  575MPD2    H7 8617   2.460   2.265   7.539
  576MPD2     C 8618   0.813   3.902  12.223
  576MPD2    C1 8619   0.800   4.041  12.214
  576MPD2    C2 8620   0.884   4.114  12.134
  576MPD2    C3 8621   0.975   4.049  12.059
  576MPD2    C4 8622   0.986   3.909  12.057
  576MPD2    C5 8623   0.904   3.835  12.136
  576MPD2     H 8624   0.880   4.222  12.131
  576MPD2    H1 8625   1.050   3.851  11.990
  576MPD2    H2 8626   0.754   3.851  12.299
  576MPD2    H3 8627   0.910   3.727  12.140
  576MPD2     N 8628   1.067   4.118  11.979
  576MPD2    H5 8629   1.129   4.066  11.919
  576MPD2    N1 8630   0.706   4.105  12.293
  576MPD2    H7 8631   0.655   4.049  12.361
  577MPD2     C 8632   1.211   4.098  12.512
  577MPD2    C1 8633   1.193   4.218  12.455
  577MPD2    C2 8634   1.079   4.292  12.480
  577MPD2    C3 8635   0.996   4.257  12.585
  577MPD2    C4 8636   1.028   4.140  12.653
  577MPD2    C5 8637   1.127   4.054  12.609
  577MPD2     H 8638   1.054   4.383  12.427
  577MPD2    H1 8639   0.965   4.103  12.733
  577MPD2    H2 8640   1.300   4.042  12.486
  577MPD2    H3 8641   1.146   3.957  12.653
  577MPD2     N 8642   0.870   4.303  12.614
  577MPD2    H5 8643   0.817   4.235  12.668
  577MPD2    N1 8644   1.276   4.253  12.347
  577MPD2    H7 8645   1.336   4.179  12.312
  578MPD2     C 8646   0.939   1.090  13.097
  578MPD2    C1 8647   1.004   1.149  12.992
  578MPD2    C2 8648   0.934   1.236  12.912
  578MPD2    C3 8649   0.797   1.261  12.935
  578MPD2    C4 8650   0.736   1.204  13.044
  578MPD2    C5 8651   0.808   1.119  13.126
  578MPD2     H 8652   0.975   1.272  12.818
  578MPD2    H1 8653   0.631   1.219  13.070
  578MPD2    H2 8654   0.993   1.028  13.168
  578MPD2    H3 8655   0.762   1.078  13.215
  578MPD2     N 8656   0.733   1.341  12.834
  578MPD2    H5 8657   0.790   1.365  12.753
  578MPD2    N1 8658   1.130   1.100  12.963
  578MPD2    H7 8659   1.155   1.014  13.011
  579MPD2     C 8660   0.611   0.908  12.276
  579MPD2    C1 8661   0.541   1.016  12.229
  579MPD2    C2 8662   0.491   1.014  12.099
  579MPD2    C3 8663   0.513   0.898  12.019
  579MPD2    C4 8664   0.595   0.798  12.061
  579MPD2    C5 8665   0.644   0.803  12.192
  579MPD2     H 8666   0.431   1.098  12.066
  579MPD2    H1 8667   0.623   0.712  12.002
  579MPD2    H2 8668   0.643   0.906  12.379
  579MPD2    H3 8669   0.710   0.724  12.225
  579MPD2     N 8670   0.464   0.884  11.888
  579MPD2    H5 8671   0.516   0.822  11.826
  579MPD2    N1 8672   0.508   1.130  12.311
  579MPD2    H7 8673   0.458   1.209  12.272
  580MPD2     C 8674   3.993   3.386  10.217
  580MPD2    C1 8675   4.073   3.506  10.228
  580MPD2    C2 8676   4.206   3.492  10.226
  580MPD2    C3 8677   4.264   3.372  10.207
  580MPD2    C4 8678   4.189   3.255  10.203
  580MPD2    C5 8679   4.053   3.268  10.216
  580MPD2     H 8680   4.264   3.580  10.253
  580MPD2    H1 8681   4.235   3.157  10.203
  580MPD2    H2 8682   3.886   3.390  10.233
  580MPD2    H3 8683   3.992   3.179  10.205
  580MPD2     N 8684   4.407   3.365  10.207
  580MPD2    H5 8685   4.449   3.272  10.206
  580MPD2    N1 8686   4.018   3.628  10.263
  580MPD2    H7 8687   4.076   3.692  10.316
  581MPD2     C 8688   4.188   4.315  10.224
  581MPD2    C1 8689   4.168   4.188  10.263
  581MPD2    C2 8690   4.233   4.084  10.202
  581MPD2    C3 8691   4.305   4.099  10.079
  581MPD2    C4 8692   4.327   4.232  10.055
  581MPD2    C5 8693   4.280   4.333  10.127
  581MPD2     H 8694   4.237   3.988  10.253
  581MPD2    H1 8695   4.367   4.256   9.957
  581MPD2    H2 8696   4.154   4.404  10.277
  581MPD2    H3 8697   4.301   4.434  10.094
  581MPD2     N 8698   4.356   3.989  10.006
  581MPD2    H5 8699   4.427   4.013   9.937
  581MPD2    N1 8700   4.079   4.167  10.370
  581MPD2    H7 8701   3.998   4.226  10.353
  582MPD2     C 8702   0.024   0.769  10.325
  582MPD2    C1 8703   4.737   0.849  10.250
  582MPD2    C2 8704   4.615   0.796  10.205
  582MPD2    C3 8705   4.574   0.667  10.245
  582MPD2    C4 8706   4.660   0.599  10.335
  582MPD2    C5 8707   4.783   0.642  10.362
  582MPD2     H 8708   4.559   0.846  10.127
  582MPD2    H1 8709   4.633   0.500  10.370
  582MPD2    H2 8710   0.118   0.812  10.358
  582MPD2    H3 8711   0.058   0.587  10.425
  582MPD2     N 8712   4.454   0.606  10.207
  582MPD2    H5 8713   4.436   0.514  10.246
  582MPD2    N1 8714   4.778   0.973  10.197
  582MPD2    H7 8715   4.699   1.028  10.165
  583MPD2     C 8716   0.471   0.940   7.628
  583MPD2    C1 8717   0.415   0.902   7.513
  583MPD2    C2 8718   0.346   0.990   7.437
  583MPD2    C3 8719   0.319   1.119   7.479
  583MPD2    C4 8720   0.396   1.155   7.583
  583MPD2    C5 8721   0.464   1.073   7.660
  583MPD2     H 8722   0.293   0.951   7.351
  583MPD2    H1 8723   0.405   1.258   7.615
  583MPD2    H2 8724   0.508   0.866   7.697
  583MPD2    H3 8725   0.504   1.115   7.751
  583MPD2     N 8726   0.249   1.213   7.409
  583MPD2    H5 8727   0.228   1.187   7.313
  583MPD2    N1 8728   0.412   0.766   7.481
  583MPD2    H7 8729   0.339   0.736   7.417
  584MPD2     C 8730   0.796   0.009   7.097
  584MPD2    C1 8731   0.774   0.140   7.069
  584MPD2    C2 8732   0.716   0.218   7.168
  584MPD2    C3 8733   0.683   0.155   7.292
  584MPD2    C4 8734   0.699   0.016   7.310
  584MPD2    C5 8735   0.763   4.737   7.218
  584MPD2     H 8736   0.730   0.326   7.162
  584MPD2    H1 8737   0.674   4.761   7.403
  584MPD2    H2 8738   0.840   4.748   7.015
  584MPD2    H3 8739   0.783   4.632   7.231
  584MPD2     N 8740   0.618   0.244   7.381
  584MPD2    H5 8741   0.599   0.340   7.356
  584MPD2    N1 8742   0.817   0.197   6.944
  584MPD2    H7 8743   0.883   0.142   6.890
  585MPD2     C 8744   3.456   0.956  11.877
  585MPD2    C1 8745   3.483   1.086  11.830
  585MPD2    C2 8746   3.607   1.133  11.858
  585MPD2    C3 8747   3.694   1.076  11.948
  585MPD2    C4 8748   3.666   0.950  11.996
  585MPD2    C5 8749   3.550   0.892  11.957
  585MPD2     H 8750   3.640   1.223  11.808
  585MPD2    H1 8751   3.731   0.903  12.069
  585MPD2    H2 8752   3.359   0.909  11.866
  585MPD2    H3 8753   3.531   0.788  11.981
  585MPD2     N 8754   3.810   1.142  11.988
  585MPD2    H5 8755   3.836   1.232  11.948
  585MPD2    N1 8756   3.377   1.150  11.769
  585MPD2    H7 8757   3.310   1.088  11.725
  586MPD2     C 8758   2.712   2.894  10.791
  586MPD2    C1 8759   2.707   2.836  10.922
  586MPD2    C2 8760   2.617   2.735  10.938
  586MPD2    C3 8761   2.526   2.699  10.840
  586MPD2    C4 8762   2.520   2.770  10.724
  586MPD2    C5 8763   2.619   2.864  10.700
  586MPD2     H 8764   2.610   2.687  11.035
  586MPD2    H1 8765   2.430   2.760  10.664
  586MPD2    H2 8766   2.785   2.966  10.756
  586MPD2    H3 8767   2.631   2.910  10.603
  586MPD2     N 8768   2.428   2.598  10.873
  586MPD2    H5 8769   2.429   2.567  10.970
  586MPD2    N1 8770   2.797   2.867  11.027
  586MPD2    H7 8771   2.773   2.830  11.118
  587MPD2     C 8772   4.350   1.245  11.514
  587MPD2    C1 8773   4.444   1.343  11.537
  587MPD2    C2 8774   4.582   1.317  11.518
  587MPD2    C3 8775   4.620   1.188  11.496
  587MPD2    C4 8776   4.523   1.092  11.473
  587MPD2    C5 8777   4.390   1.121  11.467
  587MPD2     H 8778   4.660   1.392  11.528
  587MPD2    H1 8779   4.549   0.992  11.438
  587MPD2    H2 8780   4.244   1.259  11.534
  587MPD2    H3 8781   4.322   1.042  11.439
  587MPD2     N 8782   4.753   1.147  11.509
  587MPD2    H5 8783   0.025   1.222  11.527
  587MPD2    N1 8784   4.394   1.466  11.583
  587MPD2    H7 8785   4.293   1.465  11.597
  588MPD2     C 8786   0.049   1.920  11.483
  588MPD2    C1 8787   4.709   1.939  11.456
  588MPD2    C2 8788   4.616   1.966  11.556
  588MPD2    C3 8789   4.658   1.995  11.680
  588MPD2    C4 8790   4.791   2.006  11.699
  588MPD2    C5 8791   0.083   1.971  11.600
  588MPD2     H 8792   4.511   1.979  11.532
  588MPD2    H1 8793   0.033   2.049  11.792
  588MPD2    H2 8794   0.126   1.910  11.408
  588MPD2    H3 8795   0.190   1.979  11.616
  588MPD2     N 8796   4.584   2.034  11.792
  588MPD2    H5 8797   4.626   2.107  11.848
  588MPD2    N1 8798   4.654   1.920  11.323
  588MPD2    H7 8799   4.557   1.948  11.318
  589MPD2     C 8800   3.973   3.944  13.196
  589MPD2    C1 8801   4.076   3.967  13.104
  589MPD2    C2 8802   4.116   3.861  13.029
  589MPD2    C3 8803   4.058   3.736  13.034
  589MPD2    C4 8804   3.951   3.719  13.123
  589MPD2    C5 8805   3.915   3.822  13.207
  589MPD2     H 8806   4.193   3.872  12.954
  589MPD2    H1 8807   3.900   3.625  13.137
  589MPD2    H2 8808   3.938   4.025  13.258
  589MPD2    H3 8809   3.829   3.817  13.273
  589MPD2     N 8810   4.104   3.621  12.969
  589MPD2    H5 8811   4.058   3.534  12.992
  589MPD2    N1 8812   4.149   4.083  13.093
  589MPD2    H7 8813   4.234   4.082  13.038
  590MPD2     C 8814   1.567   2.115   6.302
  590MPD2    C1 8815   1.510   2.180   6.408
  590MPD2    C2 8816   1.367   2.153   6.427
  590MPD2    C3 8817   1.298   2.071   6.340
  590MPD2    C4 8818   1.356   2.030   6.221
  590MPD2    C5 8819   1.498   2.045   6.213
  590MPD2     H 8820   1.316   2.192   6.514
  590MPD2    H1 8821   1.294   1.993   6.140
  590MPD2    H2 8822   1.671   2.123   6.273
  590MPD2    H3 8823   1.557   2.004   6.131
  590MPD2     N 8824   1.167   2.041   6.380
  590MPD2    H5 8825   1.139   2.064   6.475
  590MPD2    N1 8826   1.591   2.251   6.501
  590MPD2    H7 8827   1.692   2.247   6.491
  591MPD2     C 8828   1.218   2.690  13.716
  591MPD2    C1 8829   1.143   2.572  13.707
  591MPD2    C2 8830   1.122   2.501  13.830
  591MPD2    C3 8831   1.196   2.535  13.939
  591MPD2    C4 8832   1.280   2.647  13.945
  591MPD2    C5 8833   1.269   2.728  13.839
  591MPD2     H 8834   1.060   2.412  13.829
  591MPD2    H1 8835   1.324   2.685  14.037
  591MPD2    H2 8836   1.227   2.759  13.632
  591MPD2    H3 8837   1.324   2.821  13.841
  591MPD2     N 8838   1.203   2.450  14.057
  591MPD2    H5 8839   1.272   2.483  14.124
  591MPD2    N1 8840   1.070   2.541  13.594
  591MPD2    H7 8841   1.002   2.466  13.598
  592MPD2     C 8842   3.010   0.467   8.646
  592MPD2    C1 8843   3.106   0.541   8.707
  592MPD2    C2 8844   3.101   0.677   8.702
  592MPD2    C3 8845   3.006   0.734   8.624
  592MPD2    C4 8846   2.904   0.657   8.570
  592MPD2    C5 8847   2.901   0.523   8.589
  592MPD2     H 8848   3.171   0.738   8.759
  592MPD2    H1 8849   2.824   0.697   8.509
  592MPD2    H2 8850   3.016   0.359   8.654
  592MPD2    H3 8851   2.831   0.462   8.534
  592MPD2     N 8852   3.014   0.876   8.603
  592MPD2    H5 8853   3.084   0.921   8.661
  592MPD2    N1 8854   3.203   0.465   8.777
  592MPD2    H7 8855   3.182   0.366   8.786
  593MPD2     C 8856   3.443   0.200   9.724
  593MPD2    C1 8857   3.346   0.178   9.632
  593MPD2    C2 8858   3.365   0.206   9.497
  593MPD2    C3 8859   3.489   0.241   9.455
  593MPD2    C4 8860   3.587   0.248   9.548
  593MPD2    C5 8861   3.572   0.220   9.680
  593MPD2     H 8862   3.280   0.188   9.432
  593MPD2    H1 8863   3.684   0.274   9.508
  593MPD2    H2 8864   3.437   0.185   9.831
  593MPD2    H3 8865   3.661   0.220   9.741
  593MPD2     N 8866   3.523   0.282   9.320
  593MPD2    H5 8867   3.621   0.301   9.302
  593MPD2    N1 8868   3.220   0.128   9.675
  593MPD2    H7 8869   3.148   0.115   9.605
  594MPD2     C 8870   1.187   0.733   7.406
  594MPD2    C1 8871   1.079   0.727   7.484
  594MPD2    C2 8872   1.012   0.841   7.527
  594MPD2    C3 8873   1.075   0.958   7.496
  594MPD2    C4 8874   1.184   0.960   7.413
  594MPD2    C5 8875   1.244   0.849   7.373
  594MPD2     H 8876   0.923   0.838   7.589
  594MPD2    H1 8877   1.237   1.050   7.381
  594MPD2    H2 8878   1.235   0.640   7.378
  594MPD2    H3 8879   1.331   0.848   7.308
  594MPD2     N 8880   1.019   1.077   7.555
  594MPD2    H5 8881   0.941   1.065   7.619
  594MPD2    N1 8882   1.010   0.608   7.531
  594MPD2    H7 8883   0.924   0.623   7.582
  595MPD2     C 8884   3.377   4.603  13.710
  595MPD2    C1 8885   3.422   4.705  13.634
  595MPD2    C2 8886   3.445   4.692  13.499
  595MPD2    C3 8887   3.405   4.574  13.435
  595MPD2    C4 8888   3.335   4.480  13.510
  595MPD2    C5 8889   3.322   4.492  13.646
  595MPD2     H 8890   3.501   4.765  13.441
  595MPD2    H1 8891   3.295   4.390  13.465
  595MPD2    H2 8892   3.374   4.611  13.818
  595MPD2    H3 8893   3.270   4.429  13.717
  595MPD2     N 8894   3.437   4.552  13.297
  595MPD2    H5 8895   3.456   4.629  13.234
  595MPD2    N1 8896   3.483   0.027  13.695
  595MPD2    H7 8897   3.554   0.078  13.643
  596MPD2     C 8898   0.251   4.660  11.986
  596MPD2    C1 8899   0.136   4.698  11.917
  596MPD2    C2 8900   0.096   4.607  11.820
  596MPD2    C3 8901   0.158   4.485  11.796
  596MPD2    C4 8902   0.264   4.450  11.870
  596MPD2    C5 8903   0.312   4.541  11.959
  596MPD2     H 8904   0.009   4.634  11.761
  596MPD2    H1 8905   0.321   4.359  11.852
  596MPD2    H2 8906   0.285   4.720  12.069
  596MPD2    H3 8907   0.402   4.512  12.012
  596MPD2     N 8908   0.116   4.390  11.692
  596MPD2    H5 8909   0.168   4.303  11.686
  596MPD2    N1 8910   0.058   0.019  11.934
  596MPD2    H7 8911   4.779   0.037  11.866
  597MPD2     C 8912   3.539   3.625   9.371
  597MPD2    C1 8913   3.409   3.638   9.347
  597MPD2    C2 8914   3.321   3.595   9.442
  597MPD2    C3 8915   3.362   3.540   9.562
  597MPD2    C4 8916   3.497   3.520   9.588
  597MPD2    C5 8917   3.579   3.574   9.492
  597MPD2     H 8918   3.215   3.618   9.436
  597MPD2    H1 8919   3.530   3.478   9.682
  597MPD2    H2 8920   3.614   3.651   9.297
  597MPD2    H3 8921   3.687   3.564   9.505
  597MPD2     N 8922   3.267   3.507   9.664
  597MPD2    H5 8923   3.301   3.447   9.739
  597MPD2    N1 8924   3.369   3.690   9.215
  597MPD2    H7 8925   3.448   3.709   9.155
  598MPD2     C 8926   3.540   4.078   8.294
  598MPD2    C1 8927   3.579   3.969   8.365
  598MPD2    C2 8928   3.524   3.939   8.485
  598MPD2    C3 8929   3.412   4.009   8.537
  598MPD2    C4 8930   3.372   4.119   8.462
  598MPD2    C5 8931   3.440   4.156   8.349
  598MPD2     H 8932   3.565   3.852   8.534
  598MPD2    H1 8933   3.287   4.178   8.492
  598MPD2    H2 8934   3.580   4.105   8.197
  598MPD2    H3 8935   3.417   4.250   8.300
  598MPD2     N 8936   3.337   3.968   8.650
  598MPD2    H5 8937   3.252   4.022   8.665
  598MPD2    N1 8938   3.676   3.888   8.305
  598MPD2    H7 8939   3.708   3.925   8.216
  599MPD2     C 8940   2.550   2.410  13.508
  599MPD2    C1 8941   2.626   2.513  13.551
  599MPD2    C2 8942   2.759   2.514  13.502
  599MPD2    C3 8943   2.811   2.424  13.408
  599MPD2    C4 8944   2.727   2.325  13.365
  599MPD2    C5 8945   2.598   2.314  13.419
  599MPD2     H 8946   2.829   2.585  13.543
  599MPD2    H1 8947   2.767   2.246  13.302
  599MPD2    H2 8948   2.454   2.389  13.554
  599MPD2    H3 8949   2.529   2.233  13.395
  599MPD2     N 8950   2.950   2.435  13.372
  599MPD2    H5 8951   3.003   2.508  13.419
  599MPD2    N1 8952   2.581   2.594  13.656
  599MPD2    H7 8953   2.486   2.575  13.687
  600MPD2     C 8954   0.017   0.367  14.508
  600MPD2    C1 8955   0.021   0.501  14.478
  600MPD2    C2 8956   0.116   0.562  14.393
  600MPD2    C3 8957   0.223   0.486  14.353
  600MPD2    C4 8958   0.223   0.351  14.382
  600MPD2    C5 8959   0.121   0.293  14.454
  600MPD2     H 8960   0.109   0.669  14.376
  600MPD2    H1 8961   0.307   0.287  14.356
  600MPD2    H2 8962   4.740   0.313  14.570
  600MPD2    H3 8963   0.128   0.187  14.476
  600MPD2     N 8964   0.332   0.543  14.280
  600MPD2    H5 8965   0.399   0.476  14.244
  600MPD2    N1 8966   4.712   0.585  14.536
  600MPD2    H7 8967   4.666   0.539  14.614
  601MPD2     C 8968   0.572   1.128   7.145
  601MPD2    C1 8969   0.566   1.257   7.197
  601MPD2    C2 8970   0.476   1.344   7.131
  601MPD2    C3 8971   0.393   1.302   7.035
  601MPD2    C4 8972   0.414   1.176   6.983
  601MPD2    C5 8973   0.497   1.083   7.042
  601MPD2     H 8974   0.470   1.448   7.163
  601MPD2    H1 8975   0.360   1.141   6.895
  601MPD2    H2 8976   0.633   1.049   7.190
  601MPD2    H3 8977   0.515   0.982   7.008
  601MPD2     N 8978   0.297   1.380   6.965
  601MPD2    H5 8979   0.293   1.354   6.867
  601MPD2    N1 8980   0.641   1.291   7.312
  601MPD2    H7 8981   0.704   1.223   7.352
  602MPD2     C 8982   0.524   0.825  11.259
  602MPD2    C1 8983   0.395   0.864  11.251
  602MPD2    C2 8984   0.304   0.798  11.336
  602MPD2    C3 8985   0.353   0.700  11.431
  602MPD2    C4 8986   0.483   0.669  11.422
  602MPD2    C5 8987   0.571   0.728  11.341
  602MPD2     H 8988   0.199   0.826  11.339
  602MPD2    H1 8989   0.521   0.600  11.496
  602MPD2    H2 8990   0.583   0.873  11.183
  602MPD2    H3 8991   0.676   0.701  11.345
  602MPD2     N 8992   0.273   0.633  11.521
  602MPD2    H5 8993   0.318   0.561  11.577
  602MPD2    N1 8994   0.361   0.969  11.168
  602MPD2    H7 8995   0.437   1.023  11.128
  603MPD2     C 8996   3.107   3.590  10.326
  603MPD2    C1 8997   3.162   3.611  10.449
  603MPD2    C2 8998   3.087   3.594  10.566
  603MPD2    C3 8999   2.972   3.524  10.561
  603MPD2    C4 9000   2.923   3.487  10.430
  603MPD2    C5 9001   2.985   3.527  10.315
  603MPD2     H 9002   3.126   3.617  10.665
  603MPD2    H1 9003   2.822   3.449  10.422
  603MPD2    H2 9004   3.152   3.613  10.230
  603MPD2    H3 9005   2.941   3.519  10.217
  603MPD2     N 9006   2.904   3.491  10.686
  603MPD2    H5 9007   2.941   3.551  10.759
  603MPD2    N1 9008   3.288   3.655  10.472
  603MPD2    H7 9009   3.314   3.676  10.568
  604MPD2     C 9010   4.007   3.375   9.699
  604MPD2    C1 9011   4.031   3.459   9.802
  604MPD2    C2 9012   3.927   3.490   9.889
  604MPD2    C3 9013   3.803   3.428   9.878
  604MPD2    C4 9014   3.781   3.346   9.776
  604MPD2    C5 9015   3.880   3.326   9.685
  604MPD2     H 9016   3.948   3.561   9.968
  604MPD2    H1 9017   3.685   3.294   9.773
  604MPD2    H2 9018   4.082   3.340   9.628
  604MPD2    H3 9019   3.867   3.254   9.605
  604MPD2     N 9020   3.711   3.447   9.987
  604MPD2    H5 9021   3.753   3.499  10.063
  604MPD2    N1 9022   4.161   3.517   9.829
  604MPD2    H7 9023   4.169   3.575   9.912
  605MPD2     C 9024   2.117   2.027   8.407
  605MPD2    C1 9025   2.004   2.044   8.481
  605MPD2    C2 9026   1.883   2.021   8.421
  605MPD2    C3 9027   1.873   1.987   8.288
  605MPD2    C4 9028   1.990   1.963   8.217
  605MPD2    C5 9029   2.105   1.989   8.277
  605MPD2     H 9030   1.793   2.041   8.477
  605MPD2    H1 9031   1.998   1.925   8.116
  605MPD2    H2 9032   2.217   2.027   8.449
  605MPD2    H3 9033   2.196   1.970   8.220
  605MPD2     N 9034   1.753   1.987   8.215
  605MPD2    H5 9035   1.760   1.979   8.114
  605MPD2    N1 9036   2.008   2.102   8.607
  605MPD2    H7 9037   1.919   2.110   8.654
  606MPD2     C 9038   3.038   2.495  14.476
  606MPD2    C1 9039   2.899   2.482  14.501
  606MPD2    C2 9040   2.808   2.546  14.416
  606MPD2    C3 9041   2.857   2.606  14.303
  606MPD2    C4 9042   2.993   2.617  14.276
  606MPD2    C5 9043   3.085   2.558  14.359
  606MPD2     H 9044   2.703   2.530  14.435
  606MPD2    H1 9045   3.033   2.665  14.188
  606MPD2    H2 9046   3.108   2.452  14.547
  606MPD2    H3 9047   3.191   2.578  14.346
  606MPD2     N 9048   2.773   2.678  14.211
  606MPD2    H5 9049   2.828   2.733  14.146
  606MPD2    N1 9050   2.862   2.412  14.613
  606MPD2    H7 9051   2.936   2.361  14.660
  607MPD2     C 9052   0.360   2.516   8.614
  607MPD2    C1 9053   0.447   2.461   8.521
  607MPD2    C2 9054   0.436   2.327   8.493
  607MPD2    C3 9055   0.342   2.243   8.556
  607MPD2    C4 9056   0.273   2.297   8.670
  607MPD2    C5 9057   0.274   2.433   8.691
  607MPD2     H 9058   0.500   2.295   8.411
  607MPD2    H1 9059   0.207   2.233   8.727
  607MPD2    H2 9060   0.353   2.624   8.624
  607MPD2    H3 9061   0.199   2.471   8.759
  607MPD2     N 9062   0.332   2.110   8.530
  607MPD2    H5 9063   0.268   2.048   8.577
  607MPD2    N1 9064   0.542   2.534   8.442
  607MPD2    H7 9065   0.617   2.480   8.400
  608MPD2     C 9066   0.098   1.574  11.533
  608MPD2    C1 9067   0.128   1.470  11.623
  608MPD2    C2 9068   0.239   1.395  11.595
  608MPD2    C3 9069   0.306   1.396  11.466
  608MPD2    C4 9070   0.286   1.511  11.389
  608MPD2    C5 9071   0.182   1.594  11.422
  608MPD2     H 9072   0.273   1.318  11.664
  608MPD2    H1 9073   0.347   1.523  11.301
  608MPD2    H2 9074   0.024   1.651  11.554
  608MPD2    H3 9075   0.166   1.675  11.352
  608MPD2     N 9076   0.409   1.309  11.428
  608MPD2    H5 9077   0.472   1.332  11.352
  608MPD2    N1 9078   0.042   1.437  11.724
  608MPD2    H7 9079   4.750   1.492  11.723
  609MPD2     C 9080   1.845   2.067  12.202
  609MPD2    C1 9081   1.821   2.153  12.099
  609MPD2    C2 9082   1.883   2.137  11.979
  609MPD2    C3 9083   1.996   2.046  11.971
  609MPD2    C4 9084   2.031   1.967  12.078
  609MPD2    C5 9085   1.946   1.977  12.189
  609MPD2     H 9086   1.872   2.209  11.898
  609MPD2    H1 9087   2.117   1.901  12.086
  609MPD2    H2 9088   1.794   2.077  12.297
  609MPD2    H3 9089   1.966   1.900  12.262
  609MPD2     N 9090   2.067   2.036  11.845
  609MPD2    H5 9091   2.009   2.036  11.763
  609MPD2    N1 9092   1.721   2.248  12.107
  609MPD2    H7 9093   1.679   2.284  12.022
  610MPD2     C 9094   3.650   0.998  11.121
  610MPD2    C1 9095   3.564   0.932  11.037
  610MPD2    C2 9096   3.554   0.974  10.906
  610MPD2    C3 9097   3.624   1.087  10.865
  610MPD2    C4 9098   3.706   1.153  10.950
  610MPD2    C5 9099   3.716   1.115  11.085
  610MPD2     H 9100   3.482   0.926  10.840
  610MPD2    H1 9101   3.754   1.241  10.909
  610MPD2    H2 9102   3.660   0.971  11.226
  610MPD2    H3 9103   3.770   1.160  11.167
  610MPD2     N 9104   3.610   1.140  10.732
  610MPD2    H5 9105   3.653   1.228  10.705
  610MPD2    N1 9106   3.478   0.836  11.084
  610MPD2    H7 9107   3.424   0.779  11.020
  611MPD2     C 9108   1.677   0.473  13.312
  611MPD2    C1 9109   1.754   0.362  13.279
  611MPD2    C2 9110   1.895   0.367  13.296
  611MPD2    C3 9111   1.953   0.476  13.358
  611MPD2    C4 9112   1.873   0.583  13.395
  611MPD2    C5 9113   1.742   0.581  13.365
  611MPD2     H 9114   1.955   0.278  13.283
  611MPD2    H1 9115   1.922   0.676  13.422
  611MPD2    H2 9116   1.569   0.479  13.306
  611MPD2    H3 9117   1.694   0.678  13.364
  611MPD2     N 9118   2.095   0.494  13.380
  611MPD2    H5 9119   2.128   0.577  13.429
  611MPD2    N1 9120   1.696   0.248  13.214
  611MPD2    H7 9121   1.601   0.226  13.243
  612MPD2     C 9122   2.366   4.194  11.636
  612MPD2    C1 9123   2.330   4.328  11.639
  612MPD2    C2 9124   2.199   4.364  11.636
  612MPD2    C3 9125   2.100   4.272  11.629
  612MPD2    C4 9126   2.135   4.137  11.635
  612MPD2    C5 9127   2.262   4.097  11.646
  612MPD2     H 9128   2.174   4.467  11.659
  612MPD2    H1 9129   2.064   4.055  11.645
  612MPD2    H2 9130   2.465   4.151  11.642
  612MPD2    H3 9131   2.283   3.991  11.655
  612MPD2     N 9132   1.965   4.323  11.613
  612MPD2    H5 9133   1.893   4.250  11.614
  612MPD2    N1 9134   2.429   4.424  11.651
  612MPD2    H7 9135   2.525   4.390  11.649
  613MPD2     C 9136   1.550   0.120  11.543
  613MPD2    C1 9137   1.647   0.161  11.636
  613MPD2    C2 9138   1.774   0.126  11.605
  613MPD2    C3 9139   1.813   0.065  11.485
  613MPD2    C4 9140   1.716   0.022  11.396
  613MPD2    C5 9141   1.589   0.054  11.430
  613MPD2     H 9142   1.847   0.151  11.681
  613MPD2    H1 9143   1.732   4.759  11.304
  613MPD2    H2 9144   1.448   0.142  11.570
  613MPD2    H3 9145   1.507   0.016  11.370
  613MPD2     N 9146   1.940   0.029  11.451
  613MPD2    H5 9147   1.950   4.774  11.363
  613MPD2    N1 9148   1.626   0.237  11.749
  613MPD2    H7 9149   1.700   0.293  11.790
  614MPD2     C 9150   1.666   2.068   7.535
  614MPD2    C1 9151   1.673   2.169   7.624
  614MPD2    C2 9152   1.748   2.278   7.590
  614MPD2    C3 9153   1.812   2.290   7.473
  614MPD2    C4 9154   1.806   2.190   7.379
  614MPD2    C5 9155   1.724   2.086   7.415
  614MPD2     H 9156   1.759   2.349   7.672
  614MPD2    H1 9157   1.859   2.201   7.285
  614MPD2    H2 9158   1.622   1.970   7.556
  614MPD2    H3 9159   1.717   2.002   7.347
  614MPD2     N 9160   1.905   2.392   7.446
  614MPD2    H5 9161   1.971   2.380   7.370
  614MPD2    N1 9162   1.610   2.169   7.750
  614MPD2    H7 9163   1.624   2.253   7.806
  615MPD2     C 9164   0.452   4.217   9.450
  615MPD2    C1 9165   0.329   4.275   9.476
  615MPD2    C2 9166   0.283   4.372   9.385
  615MPD2    C3 9167   0.324   4.360   9.255
  615MPD2    C4 9168   0.450   4.305   9.227
  615MPD2    C5 9169   0.512   4.231   9.327
  615MPD2     H 9170   0.196   4.431   9.411
  615MPD2    H1 9171   0.486   4.295   9.126
  615MPD2    H2 9172   0.504   4.155   9.522
  615MPD2    H3 9173   0.610   4.189   9.312
  615MPD2     N 9174   0.241   4.411   9.153
  615MPD2    H5 9175   0.164   4.471   9.180
  615MPD2    N1 9176   0.272   4.236   9.600
  615MPD2    H7 9177   0.346   4.203   9.661
  616MPD2     C 9178   4.546   4.585   9.141
  616MPD2    C1 9179   4.502   4.462   9.124
  616MPD2    C2 9180   4.406   4.428   9.024
  616MPD2    C3 9181   4.337   4.525   8.953
  616MPD2    C4 9182   4.373   4.656   8.979
  616MPD2    C5 9183   4.477   4.685   9.072
  616MPD2     H 9184   4.388   4.321   9.016
  616MPD2    H1 9185   4.324   4.750   8.955
  616MPD2    H2 9186   4.623   4.618   9.210
  616MPD2    H3 9187   4.482   4.790   9.098
  616MPD2     N 9188   4.238   4.490   8.853
  616MPD2    H5 9189   4.199   4.397   8.864
  616MPD2    N1 9190   4.556   4.357   9.204
  616MPD2    H7 9191   4.510   4.267   9.199
  617MPD2     C 9192   4.513   1.491  14.566
  617MPD2    C1 9193   4.541   1.375  14.498
  617MPD2    C2 9194   4.628   1.378  14.390
  617MPD2    C3 9195   4.686   1.494  14.338
  617MPD2    C4 9196   4.646   1.610  14.410
  617MPD2    C5 9197   4.562   1.608  14.517
  617MPD2     H 9198   4.655   1.281  14.348
  617MPD2    H1 9199   4.683   1.702  14.367
  617MPD2    H2 9200   4.444   1.504  14.649
  617MPD2    H3 9201   4.532   1.701  14.565
  617MPD2     N 9202   4.768   1.493  14.221
  617MPD2    H5 9203   4.778   1.399  14.183
  617MPD2    N1 9204   4.501   1.254  14.557
  617MPD2    H7 9205   4.478   1.258  14.655
  618MPD2     C 9206   1.959   2.928  14.020
  618MPD2    C1 9207   2.062   2.908  14.112
  618MPD2    C2 9208   2.033   2.946  14.241
  618MPD2    C3 9209   1.912   2.998  14.287
  618MPD2    C4 9210   1.822   3.017  14.190
  618MPD2    C5 9211   1.838   2.986  14.058
  618MPD2     H 9212   2.112   2.931  14.313
  618MPD2    H1 9213   1.730   3.067  14.217
  618MPD2    H2 9214   1.974   2.904  13.916
  618MPD2    H3 9215   1.757   3.013  13.991
  618MPD2     N 9216   1.876   3.036  14.416
  618MPD2    H5 9217   1.784   3.079  14.420
  618MPD2    N1 9218   2.189   2.842  14.089
  618MPD2    H7 9219   2.247   2.839  14.172
  619MPD2     C 9220   3.775   4.654  10.036
  619MPD2    C1 9221   3.898   4.656  10.102
  619MPD2    C2 9222   3.978   4.771  10.100
  619MPD2    C3 9223   3.928   0.085  10.031
  619MPD2    C4 9224   3.806   0.084   9.964
  619MPD2    C5 9225   3.732   4.768   9.969
  619MPD2     H 9226   4.060   4.778  10.171
  619MPD2    H1 9227   3.768   0.170   9.911
  619MPD2    H2 9228   3.711   4.567  10.035
  619MPD2    H3 9229   3.636   4.761   9.919
  619MPD2     N 9230   3.990   0.204  10.030
  619MPD2    H5 9231   3.937   0.284   9.999
  619MPD2    N1 9232   3.944   4.547  10.190
  619MPD2    H7 9233   4.008   4.582  10.261
  620MPD2     C 9234   1.309   2.329  14.875
  620MPD2    C1 9235   1.419   2.377  14.948
  620MPD2    C2 9236   1.398   2.471  15.051
  620MPD2    C3 9237   1.268   2.509  15.082
  620MPD2    C4 9238   1.170   2.448  15.007
  620MPD2    C5 9239   1.182   2.362  14.904
  620MPD2     H 9240   1.485   2.518  15.095
  620MPD2    H1 9241   1.073   2.495  15.013
  620MPD2    H2 9242   1.332   2.260  14.795
  620MPD2    H3 9243   1.101   2.334  14.837
  620MPD2     N 9244   1.231   2.605  15.181
  620MPD2    H5 9245   1.136   2.640  15.184
  620MPD2    N1 9246   1.553   2.340  14.918
  620MPD2    H7 9247   1.621   2.384  14.980
  621MPD2     C 9248   1.672   2.514  14.603
  621MPD2    C1 9249   1.535   2.522  14.611
  621MPD2    C2 9250   1.486   2.614  14.699
  621MPD2    C3 9251   1.562   2.686  14.784
  621MPD2    C4 9252   1.699   2.669  14.783
  621MPD2    C5 9253   1.751   2.583  14.690
  621MPD2     H 9254   1.378   2.622  14.711
  621MPD2    H1 9255   1.766   2.726  14.846
  621MPD2    H2 9256   1.719   2.458  14.522
  621MPD2    H3 9257   1.858   2.573  14.680
  621MPD2     N 9258   1.507   2.781  14.878
  621MPD2    H5 9259   1.571   2.824  14.945
  621MPD2    N1 9260   1.441   2.451  14.537
  621MPD2    H7 9261   1.342   2.470  14.548
  622MPD2     C 9262   1.294   0.895   9.531
  622MPD2    C1 9263   1.197   0.939   9.446
  622MPD2    C2 9264   1.072   0.878   9.449
  622MPD2    C3 9265   1.052   0.770   9.539
  622MPD2    C4 9266   1.161   0.728   9.613
  622MPD2    C5 9267   1.280   0.786   9.615
  622MPD2     H 9268   0.993   0.916   9.386
  622MPD2    H1 9269   1.151   0.633   9.665
  622MPD2    H2 9270   1.384   0.956   9.531
  622MPD2    H3 9271   1.363   0.745   9.672
  622MPD2     N 9272   0.928   0.705   9.512
  622MPD2    H5 9273   0.866   0.745   9.443
  622MPD2    N1 9274   1.227   1.038   9.352
  622MPD2    H7 9275   1.324   1.064   9.340
  623MPD2     C 9276   1.095   0.442   8.983
  623MPD2    C1 9277   1.001   0.532   9.021
  623MPD2    C2 9278   1.025   0.668   8.988
  623MPD2    C3 9279   1.137   0.706   8.913
  623MPD2    C4 9280   1.229   0.612   8.882
  623MPD2    C5 9281   1.201   0.484   8.911
  623MPD2     H 9282   0.963   0.748   9.026
  623MPD2    H1 9283   1.327   0.634   8.843
  623MPD2    H2 9284   1.099   0.336   9.006
  623MPD2    H3 9285   1.269   0.404   8.882
  623MPD2     N 9286   1.171   0.839   8.894
  623MPD2    H5 9287   1.259   0.869   8.853
  623MPD2    N1 9288   0.890   0.503   9.103
  623MPD2    H7 9289   0.839   0.586   9.130
  624MPD2     C 9290   3.245   3.906   6.857
  624MPD2    C1 9291   3.301   4.010   6.787
  624MPD2    C2 9292   3.437   4.039   6.796
  624MPD2    C3 9293   3.514   3.973   6.885
  624MPD2    C4 9294   3.455   3.871   6.966
  624MPD2    C5 9295   3.319   3.832   6.950
  624MPD2     H 9296   3.480   4.116   6.733
  624MPD2    H1 9297   3.518   3.821   7.038
  624MPD2    H2 9298   3.139   3.881   6.855
  624MPD2    H3 9299   3.280   3.747   7.005
  624MPD2     N 9300   3.649   4.011   6.890
  624MPD2    H5 9301   3.672   4.082   6.821
  624MPD2    N1 9302   3.211   4.086   6.706
  624MPD2    H7 9303   3.114   4.057   6.694
  625MPD2     C 9304   3.600   0.068   6.568
  625MPD2    C1 9305   3.536   0.024   6.683
  625MPD2    C2 9306   3.416   4.758   6.661
  625MPD2    C3 9307   3.365   4.734   6.534
  625MPD2    C4 9308   3.423   4.787   6.423
  625MPD2    C5 9309   3.551   0.047   6.441
  625MPD2     H 9310   3.368   4.715   6.749
  625MPD2    H1 9311   3.393   4.759   6.322
  625MPD2    H2 9312   3.692   0.124   6.571
  625MPD2    H3 9313   3.613   0.064   6.355
  625MPD2     N 9314   3.273   4.634   6.519
  625MPD2    H5 9315   3.246   4.593   6.607
  625MPD2    N1 9316   3.600   0.030   6.810
  625MPD2    H7 9317   3.697   0.061   6.810
  626MPD2     C 9318   2.950   4.342   7.690
  626MPD2    C1 9319   2.988   4.381   7.560
  626MPD2    C2 9320   2.986   4.301   7.456
  626MPD2    C3 9321   2.933   4.165   7.472
  626MPD2    C4 9322   2.893   4.129   7.597
  626MPD2    C5 9323   2.905   4.215   7.703
  626MPD2     H 9324   3.019   4.343   7.362
  626MPD2    H1 9325   2.863   4.026   7.613
  626MPD2    H2 9326   2.971   4.399   7.779
  626MPD2    H3 9327   2.892   4.168   7.799
  626MPD2     N 9328   2.937   4.068   7.368
  626MPD2    H5 9329   2.911   3.975   7.401
  626MPD2    N1 9330   3.042   4.507   7.536
  626MPD2    H7 9331   3.065   4.542   7.444
  627MPD2     C 9332   2.781   2.098   9.638
  627MPD2    C1 9333   2.760   2.216   9.569
  627MPD2    C2 9334   2.869   2.277   9.501
  627MPD2    C3 9335   2.991   2.212   9.492
  627MPD2    C4 9336   3.011   2.091   9.556
  627MPD2    C5 9337   2.906   2.035   9.629
  627MPD2     H 9338   2.867   2.368   9.443
  627MPD2    H1 9339   3.101   2.035   9.537
  627MPD2    H2 9340   2.698   2.041   9.679
  627MPD2    H3 9341   2.921   1.939   9.677
  627MPD2     N 9342   3.096   2.251   9.404
  627MPD2    H5 9343   3.175   2.187   9.407
  627MPD2    N1 9344   2.638   2.277   9.594
  627MPD2    H7 9345   2.603   2.238   9.681
  628MPD2     C 9346   3.165   1.855   8.738
  628MPD2    C1 9347   3.249   1.963   8.739
  628MPD2    C2 9348   3.356   1.967   8.648
  628MPD2    C3 9349   3.383   1.862   8.571
  628MPD2    C4 9350   3.295   1.755   8.558
  628MPD2    C5 9351   3.190   1.755   8.650
  628MPD2     H 9352   3.422   2.053   8.652
  628MPD2    H1 9353   3.299   1.680   8.480
  628MPD2    H2 9354   3.076   1.841   8.799
  628MPD2    H3 9355   3.117   1.675   8.646
  628MPD2     N 9356   3.511   1.860   8.511
  628MPD2    H5 9357   3.570   1.940   8.533
  628MPD2    N1 9358   3.244   2.076   8.829
  628MPD2    H7 9359   3.311   2.150   8.812
  629MPD2     C 9360   4.738   1.230  15.099
  629MPD2    C1 9361   4.763   1.105  15.041
  629MPD2    C2 9362   0.087   1.040  15.072
  629MPD2    C3 9363   0.179   1.093  15.159
  629MPD2    C4 9364   0.161   1.220  15.211
  629MPD2    C5 9365   0.047   1.291  15.168
  629MPD2     H 9366   0.110   0.943  15.029
  629MPD2    H1 9367   0.233   1.275  15.270
  629MPD2    H2 9368   4.641   1.277  15.094
  629MPD2    H3 9369   0.034   1.393  15.202
  629MPD2     N 9370   0.296   1.018  15.181
  629MPD2    H5 9371   0.303   0.926  15.139
  629MPD2    N1 9372   4.671   1.062  14.938
  629MPD2    H7 9373   4.595   1.125  14.910
  630MPD2     C 9374   4.234   2.255   8.291
  630MPD2    C1 9375   4.154   2.202   8.397
  630MPD2    C2 9376   4.175   2.252   8.524
  630MPD2    C3 9377   4.261   2.352   8.543
  630MPD2    C4 9378   4.343   2.402   8.441
  630MPD2    C5 9379   4.326   2.356   8.313
  630MPD2     H 9380   4.121   2.216   8.611
  630MPD2    H1 9381   4.426   2.469   8.460
  630MPD2    H2 9382   4.213   2.219   8.191
  630MPD2    H3 9383   4.393   2.388   8.233
  630MPD2     N 9384   4.283   2.397   8.673
  630MPD2    H5 9385   4.234   2.339   8.740
  630MPD2    N1 9386   4.067   2.096   8.361
  630MPD2    H7 9387   4.060   2.075   8.262
  631MPD2     C 9388   0.942   2.621  14.296
  631MPD2    C1 9389   0.908   2.726  14.374
  631MPD2    C2 9390   0.796   2.703  14.455
  631MPD2    C3 9391   0.727   2.579  14.474
  631MPD2    C4 9392   0.782   2.469  14.394
  631MPD2    C5 9393   0.884   2.499  14.307
  631MPD2     H 9394   0.775   2.789  14.518
  631MPD2    H1 9395   0.744   2.368  14.394
  631MPD2    H2 9396   1.012   2.636  14.215
  631MPD2    H3 9397   0.925   2.425  14.239
  631MPD2     N 9398   0.635   2.564  14.580
  631MPD2    H5 9399   0.592   2.472  14.590
  631MPD2    N1 9400   0.985   2.842  14.380
  631MPD2    H7 9401   0.944   2.912  14.441
  632MPD2     C 9402   4.489   2.515  14.749
  632MPD2    C1 9403   4.567   2.414  14.797
  632MPD2    C2 9404   4.697   2.441  14.826
  632MPD2    C3 9405   4.743   2.576  14.838
  632MPD2    C4 9406   4.656   2.679  14.810
  632MPD2    C5 9407   4.540   2.648  14.746
  632MPD2     H 9408   4.774   2.367  14.844
  632MPD2    H1 9409   4.682   2.782  14.830
  632MPD2    H2 9410   4.408   2.497  14.679
  632MPD2    H3 9411   4.474   2.728  14.714
  632MPD2     N 9412   0.086   2.582  14.871
  632MPD2    H5 9413   0.136   2.495  14.889
  632MPD2    N1 9414   4.520   2.277  14.776
  632MPD2    H7 9415   4.420   2.274  14.760
  633MPD2     C 9416   2.128   0.039  10.587
  633MPD2    C1 9417   2.151   0.012  10.455
  633MPD2    C2 9418   2.137   0.108  10.360
  633MPD2    C3 9419   2.087   0.231  10.392
  633MPD2    C4 9420   2.070   0.261  10.527
  633MPD2    C5 9421   2.092   0.171  10.625
  633MPD2     H 9422   2.163   0.082  10.258
  633MPD2    H1 9423   2.049   0.360  10.565
  633MPD2    H2 9424   2.138   4.757  10.664
  633MPD2    H3 9425   2.069   0.198  10.727
  633MPD2     N 9426   2.046   0.330  10.294
  633MPD2    H5 9427   2.056   0.425  10.327
  633MPD2    N1 9428   2.185   4.673  10.423
  633MPD2    H7 9429   2.231   4.616  10.493
  634MPD2     C 9430   3.796   4.516   8.304
  634MPD2    C1 9431   3.698   4.572   8.223
  634MPD2    C2 9432   3.658   4.501   8.117
  634MPD2    C3 9433   3.700   4.373   8.087
  634MPD2    C4 9434   3.787   4.310   8.176
  634MPD2    C5 9435   3.835   4.386   8.284
  634MPD2     H 9436   3.590   4.550   8.048
  634MPD2    H1 9437   3.826   4.209   8.172
  634MPD2    H2 9438   3.837   4.569   8.389
  634MPD2    H3 9439   3.898   4.341   8.360
  634MPD2     N 9440   3.647   4.306   7.973
  634MPD2    H5 9441   3.581   4.358   7.916
  634MPD2    N1 9442   3.638   4.699   8.243
  634MPD2    H7 9443   3.558   4.728   8.187
  635MPD2     C 9444   1.871   3.844  14.777
  635MPD2    C1 9445   1.815   3.911  14.672
  635MPD2    C2 9446   1.843   3.864  14.543
  635MPD2    C3 9447   1.928   3.764  14.515
  635MPD2    C4 9448   1.967   3.687  14.623
  635MPD2    C5 9449   1.948   3.737  14.753
  635MPD2     H 9450   1.798   3.921  14.462
  635MPD2    H1 9451   2.022   3.595  14.605
  635MPD2    H2 9452   1.845   3.854  14.881
  635MPD2    H3 9453   1.984   3.681  14.839
  635MPD2     N 9454   1.958   3.745  14.377
  635MPD2    H5 9455   1.937   3.819  14.312
  635MPD2    N1 9456   1.734   4.020  14.690
  635MPD2    H7 9457   1.739   4.075  14.775
  636MPD2     C 9458   1.250   0.632  10.082
  636MPD2    C1 9459   1.371   0.634  10.014
  636MPD2    C2 9460   1.376   0.577   9.889
  636MPD2    C3 9461   1.269   0.507   9.838
  636MPD2    C4 9462   1.147   0.514   9.901
  636MPD2    C5 9463   1.136   0.579  10.018
  636MPD2     H 9464   1.477   0.574   9.848
  636MPD2    H1 9465   1.058   0.465   9.865
  636MPD2    H2 9466   1.236   0.667  10.183
  636MPD2    H3 9467   1.049   0.585  10.083
  636MPD2     N 9468   1.273   0.420   9.725
  636MPD2    H5 9469   1.197   0.353   9.726
  636MPD2    N1 9470   1.489   0.694  10.069
  636MPD2    H7 9471   1.563   0.722  10.006
  637MPD2     C 9472   1.968   3.731  10.080
  637MPD2    C1 9473   1.925   3.801  10.190
  637MPD2    C2 9474   1.792   3.831  10.198
  637MPD2    C3 9475   1.704   3.796  10.096
  637MPD2    C4 9476   1.752   3.746   9.977
  637MPD2    C5 9477   1.883   3.708   9.976
  637MPD2     H 9478   1.749   3.883  10.283
  637MPD2    H1 9479   1.698   3.737   9.883
  637MPD2    H2 9480   2.072   3.702  10.071
  637MPD2    H3 9481   1.929   3.670   9.886
  637MPD2     N 9482   1.565   3.834  10.095
  637MPD2    H5 9483   1.503   3.783  10.032
  637MPD2    N1 9484   1.997   3.817  10.313
  637MPD2    H7 9485   1.950   3.864  10.391
  638MPD2     C 9486   1.164   0.064  10.427
  638MPD2    C1 9487   1.122   0.177  10.497
  638MPD2    C2 9488   1.017   0.167  10.590
  638MPD2    C3 9489   0.945   0.049  10.600
  638MPD2    C4 9490   0.976   4.736  10.515
  638MPD2    C5 9491   1.082   4.749  10.432
  638MPD2     H 9492   1.003   0.254  10.652
  638MPD2    H1 9493   0.911   4.651  10.498
  638MPD2    H2 9494   1.251   0.061  10.363
  638MPD2    H3 9495   1.111   4.667  10.367
  638MPD2     N 9496   0.847   0.018  10.705
  638MPD2    H5 9497   0.828   4.712  10.709
  638MPD2    N1 9498   1.194   0.301  10.490
  638MPD2    H7 9499   1.163   0.380  10.546
  639MPD2     C 9500   2.016   2.605  15.205
  639MPD2    C1 9501   2.026   2.594  15.068
  639MPD2    C2 9502   2.046   2.710  14.998
  639MPD2    C3 9503   2.035   2.829  15.062
  639MPD2    C4 9504   2.035   2.840  15.201
  639MPD2    C5 9505   2.014   2.729  15.270
  639MPD2     H 9506   2.042   2.707  14.890
  639MPD2    H1 9507   2.023   2.937  15.248
  639MPD2    H2 9508   2.006   2.517  15.268
  639MPD2    H3 9509   2.011   2.737  15.378
  639MPD2     N 9510   2.019   2.938  14.981
  639MPD2    H5 9511   2.016   2.912  14.883
  639MPD2    N1 9512   2.021   2.477  14.992
  639MPD2    H7 9513   2.032   2.487  14.892
  640MPD2     C 9514   4.478   2.836   8.045
  640MPD2    C1 9515   4.351   2.890   8.059
  640MPD2    C2 9516   4.271   2.853   8.163
  640MPD2    C3 9517   4.316   2.764   8.258
  640MPD2    C4 9518   4.443   2.712   8.250
  640MPD2    C5 9519   4.522   2.749   8.144
  640MPD2     H 9520   4.170   2.890   8.167
  640MPD2    H1 9521   4.491   2.647   8.322
  640MPD2    H2 9522   4.546   2.863   7.965
  640MPD2    H3 9523   4.627   2.719   8.142
  640MPD2     N 9524   4.232   2.720   8.369
  640MPD2    H5 9525   4.294   2.679   8.438
  640MPD2    N1 9526   4.297   2.988   7.969
  640MPD2    H7 9527   4.201   3.013   7.988
  641MPD2     C 9528   4.726   4.233   6.935
  641MPD2    C1 9529   0.039   4.166   6.983
  641MPD2    C2 9530   0.024   4.057   7.073
  641MPD2    C3 9531   4.696   4.021   7.114
  641MPD2    C4 9532   4.591   4.083   7.059
  641MPD2    C5 9533   4.608   4.179   6.966
  641MPD2     H 9534   0.117   4.009   7.104
  641MPD2    H1 9535   4.494   4.047   7.092
  641MPD2    H2 9536   4.724   4.310   6.859
  641MPD2    H3 9537   4.518   4.224   6.925
  641MPD2     N 9538   4.667   3.922   7.207
  641MPD2    H5 9539   4.570   3.893   7.217
  641MPD2    N1 9540   0.167   4.214   6.939
  641MPD2    H7 9541   0.160   4.291   6.872
  642MPD2     C 9542   4.075   1.615   7.283
  642MPD2    C1 9543   4.013   1.492   7.300
  642MPD2    C2 9544   4.068   1.382   7.238
  642MPD2    C3 9545   4.182   1.399   7.161
  642MPD2    C4 9546   4.233   1.525   7.132
  642MPD2    C5 9547   4.182   1.630   7.199
  642MPD2     H 9548   4.030   1.285   7.266
  642MPD2    H1 9549   4.318   1.543   7.067
  642MPD2    H2 9550   4.050   1.708   7.333
  642MPD2    H3 9551   4.226   1.728   7.194
  642MPD2     N 9552   4.250   1.293   7.101
  642MPD2    H5 9553   4.319   1.333   7.039
  642MPD2    N1 9554   3.890   1.472   7.368
  642MPD2    H7 9555   3.851   1.378   7.372
  643MPD2     C 9556   0.157   4.623   8.426
  643MPD2    C1 9557   0.115   4.748   8.472
  643MPD2    C2 9558   4.771   4.769   8.497
  643MPD2    C3 9559   4.677   4.667   8.467
  643MPD2    C4 9560   4.727   4.548   8.415
  643MPD2    C5 9561   0.064   4.523   8.396
  643MPD2     H 9562   4.742   0.059   8.559
  643MPD2    H1 9563   4.667   4.461   8.389
  643MPD2    H2 9564   0.260   4.600   8.400
  643MPD2    H3 9565   0.098   4.431   8.350
  643MPD2     N 9566   4.539   4.674   8.485
  643MPD2    H5 9567   4.480   4.592   8.489
  643MPD2    N1 9568   0.205   0.054   8.502
  643MPD2    H7 9569   0.159   0.142   8.524
  644MPD2     C 9570   0.939   4.551   9.558
  644MPD2    C1 9571   1.026   4.616   9.473
  644MPD2    C2 9572   1.002   4.595   9.338
  644MPD2    C3 9573   0.911   4.505   9.291
  644MPD2    C4 9574   0.811   4.456   9.374
  644MPD2    C5 9575   0.828   4.481   9.505
  644MPD2     H 9576   1.064   4.653   9.271
  644MPD2    H1 9577   0.723   4.405   9.336
  644MPD2    H2 9578   0.954   4.552   9.665
  644MPD2    H3 9579   0.755   4.441   9.575
  644MPD2     N 9580   0.885   4.499   9.147
  644MPD2    H5 9581   0.940   4.569   9.098
  644MPD2    N1 9582   1.125   4.697   9.524
  644MPD2    H7 9583   1.148   4.689   9.623
  645MPD2     C 9584   4.039   4.323   6.186
  645MPD2    C1 9585   4.149   4.305   6.266
  645MPD2    C2 9586   4.136   4.271   6.401
  645MPD2    C3 9587   4.010   4.260   6.466
  645MPD2    C4 9588   3.902   4.290   6.390
  645MPD2    C5 9589   3.921   4.319   6.259
  645MPD2     H 9590   4.225   4.239   6.455
  645MPD2    H1 9591   3.800   4.292   6.429
  645MPD2    H2 9592   4.037   4.348   6.081
  645MPD2    H3 9593   3.831   4.354   6.209
  645MPD2     N 9594   3.981   4.212   6.601
  645MPD2    H5 9595   3.884   4.201   6.629
  645MPD2    N1 9596   4.271   4.290   6.203
  645MPD2    H7 9597   4.275   4.271   6.104
  646MPD2     C 9598   2.257   1.704  15.411
  646MPD2    C1 9599   2.179   1.807  15.380
  646MPD2    C2 9600   2.236   1.919  15.341
  646MPD2    C3 9601   2.374   1.944  15.334
  646MPD2    C4 9602   2.458   1.836  15.366
  646MPD2    C5 9603   2.394   1.719  15.397
  646MPD2     H 9604   2.167   2.002  15.326
  646MPD2    H1 9605   2.566   1.841  15.376
  646MPD2    H2 9606   2.226   1.614  15.462
  646MPD2    H3 9607   2.459   1.635  15.416
  646MPD2     N 9608   2.424   2.063  15.288
  646MPD2    H5 9609   2.350   2.125  15.259
  646MPD2    N1 9610   2.040   1.797  15.406
  646MPD2    H7 9611   1.982   1.879  15.390
  647MPD2     C 9612   3.867   1.985  14.265
  647MPD2    C1 9613   3.836   2.006  14.400
  647MPD2    C2 9614   3.943   2.026  14.488
  647MPD2    C3 9615   4.069   1.996  14.447
  647MPD2    C4 9616   4.097   1.979  14.313
  647MPD2    C5 9617   3.992   1.971  14.223
  647MPD2     H 9618   3.926   2.053  14.592
  647MPD2    H1 9619   4.193   1.952  14.271
  647MPD2    H2 9620   3.789   1.986  14.189
  647MPD2    H3 9621   4.016   1.957  14.118
  647MPD2     N 9622   4.180   1.994  14.528
  647MPD2    H5 9623   4.265   1.961  14.483
  647MPD2    N1 9624   3.700   2.028  14.432
  647MPD2    H7 9625   3.634   2.032  14.355
  648MPD2     C 9626   1.129   3.025  11.213
  648MPD2    C1 9627   1.205   2.999  11.100
  648MPD2    C2 9628   1.300   3.085  11.056
  648MPD2    C3 9629   1.334   3.200  11.133
  648MPD2    C4 9630   1.248   3.228  11.234
  648MPD2    C5 9631   1.139   3.147  11.271
  648MPD2     H 9632   1.358   3.071  10.965
  648MPD2    H1 9633   1.264   3.310  11.303
  648MPD2    H2 9634   1.059   2.952  11.254
  648MPD2    H3 9635   1.079   3.175  11.357
  648MPD2     N 9636   1.447   3.280  11.122
  648MPD2    H5 9637   1.446   3.369  11.171
  648MPD2    N1 9638   1.186   2.878  11.027
  648MPD2    H7 9639   1.120   2.809  11.060
  649MPD2     C 9640   3.027   4.633   8.773
  649MPD2    C1 9641   2.905   4.660   8.828
  649MPD2    C2 9642   2.831   4.765   8.776
  649MPD2    C3 9643   2.878   0.058   8.684
  649MPD2    C4 9644   2.998   0.031   8.625
  649MPD2    C5 9645   3.070   4.719   8.673
  649MPD2     H 9646   2.728   4.770   8.809
  649MPD2    H1 9647   3.035   0.102   8.551
  649MPD2    H2 9648   3.077   4.539   8.794
  649MPD2    H3 9649   3.166   4.693   8.628
  649MPD2     N 9650   2.800   0.157   8.629
  649MPD2    H5 9651   2.809   0.161   8.528
  649MPD2    N1 9652   2.851   4.591   8.932
  649MPD2    H7 9653   2.755   4.614   8.956
  650MPD2     C 9654   3.650   2.908   8.140
  650MPD2    C1 9655   3.710   2.982   8.251
  650MPD2    C2 9656   3.730   3.117   8.237
  650MPD2    C3 9657   3.691   3.180   8.122
  650MPD2    C4 9658   3.628   3.118   8.018
  650MPD2    C5 9659   3.609   2.980   8.032
  650MPD2     H 9660   3.777   3.184   8.307
  650MPD2    H1 9661   3.603   3.155   7.920
  650MPD2    H2 9662   3.643   2.800   8.144
  650MPD2    H3 9663   3.563   2.921   7.954
  650MPD2     N 9664   3.723   3.319   8.117
  650MPD2    H5 9665   3.776   3.355   8.196
  650MPD2    N1 9666   3.727   2.907   8.375
  650MPD2    H7 9667   3.721   2.806   8.372
  651TMC3    C1 9668   0.599   2.887   9.896
  651TMC3    C2 9669   0.571   3.009   9.844
  651TMC3    C3 9670   0.638   3.118   9.892
  651TMC3    C4 9671   0.698   2.862   9.982
  651TMC3    C5 9672   0.765   2.975  10.031
  651TMC3    C6 9673   0.724   3.104   9.998
  651TMC3     C 9674   0.509   2.786   9.853
  651TMC3     O 9675   0.473   2.787   9.739
  651TMC3     H 9676   0.495   3.014   9.766
  651TMC3    H1 9677   0.743   2.770  10.020
  651TMC3    H2 9678   0.751   3.187  10.062
  651TMC3    C7 9679   0.858   2.952  10.135
  651TMC3    C8 9680   0.557   3.235   9.882
  651TMC3    O1 9681   0.857   2.853  10.209
  651TMC3    O2 9682   0.442   3.232   9.841
  652TMC3    C1 9683   1.125   3.888   6.834
  652TMC3    C2 9684   1.149   4.019   6.800
  652TMC3    C3 9685   1.175   4.039   6.665
  652TMC3    C4 9686   1.119   3.781   6.749
  652TMC3    C5 9687   1.131   3.812   6.616
  652TMC3    C6 9688   1.169   3.938   6.570
  652TMC3     C 9689   1.101   3.872   6.975
  652TMC3     O 9690   1.029   3.778   7.010
  652TMC3     H 9691   1.130   4.104   6.864
  652TMC3    H1 9692   1.113   3.681   6.790
  652TMC3    H2 9693   1.173   3.963   6.465
  652TMC3    C7 9694   1.092   3.716   6.513
  652TMC3    C8 9695   1.207   4.171   6.621
  652TMC3    O1 9696   1.063   3.765   6.407
  652TMC3    O2 9697   1.185   4.216   6.509
  653TMC3    C1 9698   1.864   2.596  12.380
  653TMC3    C2 9699   1.969   2.674  12.408
  653TMC3    C3 9700   1.968   2.745  12.526
  653TMC3    C4 9701   1.761   2.590  12.462
  653TMC3    C5 9702   1.767   2.643  12.591
  653TMC3    C6 9703   1.872   2.727  12.622
  653TMC3     C 9704   1.825   2.589  12.240
  653TMC3     O 9705   1.701   2.600  12.206
  653TMC3     H 9706   2.044   2.695  12.333
  653TMC3    H1 9707   1.667   2.539  12.443
  653TMC3    H2 9708   1.878   2.776  12.718
  653TMC3    C7 9709   1.706   2.558  12.696
  653TMC3    C8 9710   2.082   2.838  12.555
  653TMC3    O1 9711   1.646   2.456  12.666
  653TMC3    O2 9712   2.154   2.801  12.646
  654TMC3    C1 9713   4.662   1.082   7.829
  654TMC3    C2 9714   4.712   1.135   7.709
  654TMC3    C3 9715   4.646   1.241   7.660
  654TMC3    C4 9716   4.551   1.137   7.901
  654TMC3    C5 9717   4.488   1.246   7.839
  654TMC3    C6 9718   4.532   1.294   7.717
  654TMC3     C 9719   4.716   0.952   7.863
  654TMC3     O 9720   4.629   0.872   7.895
  654TMC3     H 9721   4.788   1.075   7.660
  654TMC3    H1 9722   4.511   1.088   7.989
  654TMC3    H2 9723   4.469   1.370   7.672
  654TMC3    C7 9724   4.396   1.332   7.910
  654TMC3    C8 9725   4.671   1.252   7.520
  654TMC3    O1 9726   4.423   1.451   7.909
  654TMC3    O2 9727   4.720   1.157   7.454
  655TMC3    C1 9728   3.987   2.445  10.171
  655TMC3    C2 9729   4.016   2.349  10.080
  655TMC3    C3 9730   4.001   2.217  10.113
  655TMC3    C4 9731   3.945   2.411  10.292
  655TMC3    C5 9732   3.937   2.277  10.324
  655TMC3    C6 9733   3.968   2.176  10.239
  655TMC3     C 9734   4.030   2.584  10.148
  655TMC3     O 9735   4.001   2.662  10.236
  655TMC3     H 9736   4.036   2.365   9.975
  655TMC3    H1 9737   3.920   2.486  10.367
  655TMC3    H2 9738   3.952   2.074  10.274
  655TMC3    C7 9739   3.913   2.256  10.465
  655TMC3    C8 9740   4.070   2.125  10.028
  655TMC3    O1 9741   3.845   2.336  10.523
  655TMC3    O2 9742   4.160   2.170   9.959
  656TMC3    C1 9743   2.674   3.833  14.180
  656TMC3    C2 9744   2.750   3.894  14.083
  656TMC3    C3 9745   2.880   3.848  14.088
  656TMC3    C4 9746   2.709   3.723  14.256
  656TMC3    C5 9747   2.841   3.689  14.253
  656TMC3    C6 9748   2.927   3.768  14.182
  656TMC3     C 9749   2.534   3.863  14.173
  656TMC3     O 9750   2.487   3.908  14.068
  656TMC3     H 9751   2.712   3.954  14.001
  656TMC3    H1 9752   2.635   3.672  14.317
  656TMC3    H2 9753   3.032   3.745  14.183
  656TMC3    C7 9754   2.870   3.558  14.196
  656TMC3    C8 9755   2.958   3.862  13.965
  656TMC3    O1 9756   2.960   3.540  14.119
  656TMC3    O2 9757   2.945   3.964  13.896
  657TMC3    C1 9758   4.630   2.833   8.525
  657TMC3    C2 9759   4.677   2.876   8.404
  657TMC3    C3 9760   4.639   2.992   8.353
  657TMC3    C4 9761   4.549   2.912   8.607
  657TMC3    C5 9762   4.499   3.027   8.551
  657TMC3    C6 9763   4.552   3.065   8.428
  657TMC3     C 9764   4.666   2.696   8.545
  657TMC3     O 9765   4.682   2.625   8.451
  657TMC3     H 9766   4.734   2.816   8.334
  657TMC3    H1 9767   4.495   2.881   8.697
  657TMC3    H2 9768   4.492   3.136   8.372
  657TMC3    C7 9769   4.500   3.136   8.647
  657TMC3    C8 9770   4.757   3.070   8.318
  657TMC3    O1 9771   4.566   3.123   8.751
  657TMC3    O2 9772   0.064   3.004   8.322
  658TMC3    C1 9773   1.331   2.498   8.478
  658TMC3    C2 9774   1.421   2.451   8.372
  658TMC3    C3 9775   1.501   2.545   8.315
  658TMC3    C4 9776   1.333   2.630   8.514
  658TMC3    C5 9777   1.408   2.716   8.443
  658TMC3    C6 9778   1.494   2.676   8.344
  658TMC3     C 9779   1.233   2.402   8.518
  658TMC3     O 9780   1.187   2.324   8.434
  658TMC3     H 9781   1.428   2.344   8.361
  658TMC3    H1 9782   1.265   2.657   8.594
  658TMC3    H2 9783   1.566   2.741   8.295
  658TMC3    C7 9784   1.391   2.858   8.458
  658TMC3    C8 9785   1.609   2.509   8.229
  658TMC3    O1 9786   1.432   2.921   8.362
  658TMC3    O2 9787   1.608   2.567   8.116
  659TMC3    C1 9788   2.438   2.907  12.056
  659TMC3    C2 9789   2.459   2.941  12.186
  659TMC3    C3 9790   2.473   3.071  12.211
  659TMC3    C4 9791   2.407   3.002  11.957
  659TMC3    C5 9792   2.379   3.127  11.996
  659TMC3    C6 9793   2.419   3.166  12.122
  659TMC3     C 9794   2.428   2.766  12.036
  659TMC3     O 9795   2.382   2.698  12.125
  659TMC3     H 9796   2.488   2.869  12.262
  659TMC3    H1 9797   2.373   2.969  11.860
  659TMC3    H2 9798   2.390   3.259  12.170
  659TMC3    C7 9799   2.328   3.227  11.902
  659TMC3    C8 9800   2.460   3.114  12.346
  659TMC3    O1 9801   2.251   3.188  11.812
  659TMC3    O2 9802   2.375   3.065  12.422
  660TMC3    C1 9803   4.369   4.157  14.707
  660TMC3    C2 9804   4.340   4.260  14.615
  660TMC3    C3 9805   4.426   4.283  14.517
  660TMC3    C4 9806   4.500   4.112  14.723
  660TMC3    C5 9807   4.591   4.154  14.631
  660TMC3    C6 9808   4.557   4.237  14.525
  660TMC3     C 9809   4.290   4.043  14.670
  660TMC3     O 9810   4.351   3.950  14.617
  660TMC3     H 9811   4.235   4.282  14.601
  660TMC3    H1 9812   4.526   4.030  14.789
  660TMC3    H2 9813   4.621   4.260  14.440
  660TMC3    C7 9814   4.716   4.085  14.615
  660TMC3    C8 9815   4.366   4.263  14.377
  660TMC3    O1 9816   4.720   3.972  14.665
  660TMC3    O2 9817   4.262   4.204  14.369
  661TMC3    C1 9818   0.395   2.704  11.974
  661TMC3    C2 9819   0.287   2.644  11.914
  661TMC3    C3 9820   0.289   2.508  11.907
  661TMC3    C4 9821   0.511   2.644  12.019
  661TMC3    C5 9822   0.514   2.510  11.999
  661TMC3    C6 9823   0.412   2.443  11.928
  661TMC3     C 9824   0.397   2.850  11.953
  661TMC3     O 9825   0.289   2.903  11.949
  661TMC3     H 9826   0.202   2.699  11.874
  661TMC3    H1 9827   0.594   2.697  12.065
  661TMC3    H2 9828   0.407   2.335  11.921
  661TMC3    C7 9829   0.644   2.456  12.009
  661TMC3    C8 9830   0.224   2.449  11.789
  661TMC3    O1 9831   0.713   2.506  12.100
  661TMC3    O2 9832   0.283   2.353  11.733
  662TMC3    C1 9833   4.685   2.416  10.764
  662TMC3    C2 9834   0.000   2.339  10.750
  662TMC3    C3 9835   0.027   2.246  10.848
  662TMC3    C4 9836   4.609   2.408  10.878
  662TMC3    C5 9837   4.636   2.311  10.970
  662TMC3    C6 9838   4.741   2.228  10.959
  662TMC3     C 9839   4.683   2.545  10.692
  662TMC3     O 9840   4.788   2.593  10.646
  662TMC3     H 9841   0.072   2.362  10.672
  662TMC3    H1 9842   4.524   2.474  10.887
  662TMC3    H2 9843   4.775   2.156  11.033
  662TMC3    C7 9844   4.601   2.352  11.103
  662TMC3    C8 9845   0.147   2.172  10.830
  662TMC3    O1 9846   4.543   2.271  11.177
  662TMC3    O2 9847   0.189   2.177  10.716
  663TMC3    C1 9848   1.529   1.464   7.943
  663TMC3    C2 9849   1.496   1.518   7.820
  663TMC3    C3 9850   1.413   1.628   7.817
  663TMC3    C4 9851   1.498   1.526   8.058
  663TMC3    C5 9852   1.411   1.633   8.046
  663TMC3    C6 9853   1.376   1.690   7.927
  663TMC3     C 9854   1.641   1.364   7.945
  663TMC3     O 9855   1.702   1.344   7.839
  663TMC3     H 9856   1.501   1.464   7.726
  663TMC3    H1 9857   1.514   1.483   8.156
  663TMC3    H2 9858   1.284   1.748   7.929
  663TMC3    C7 9859   1.317   1.655   8.150
  663TMC3    C8 9860   1.326   1.643   7.706
  663TMC3    O1 9861   1.197   1.657   8.120
  663TMC3    O2 9862   1.250   1.552   7.677
  664TMC3    C1 9863   1.517   3.825  11.436
  664TMC3    C2 9864   1.523   3.824  11.573
  664TMC3    C3 9865   1.637   3.852  11.641
  664TMC3    C4 9866   1.625   3.869  11.363
  664TMC3    C5 9867   1.729   3.929  11.436
  664TMC3    C6 9868   1.737   3.912  11.571
  664TMC3     C 9869   1.419   3.734  11.372
  664TMC3     O 9870   1.343   3.685  11.450
  664TMC3     H 9871   1.440   3.794  11.636
  664TMC3    H1 9872   1.610   3.896  11.259
  664TMC3    H2 9873   1.822   3.953  11.624
  664TMC3    C7 9874   1.780   4.054  11.399
  664TMC3    C8 9875   1.662   3.779  11.767
  664TMC3    O1 9876   1.807   4.134  11.489
  664TMC3    O2 9877   1.763   3.805  11.831
  665TMC3    C1 9878   2.821   2.616  10.322
  665TMC3    C2 9879   2.719   2.697  10.318
  665TMC3    C3 9880   2.604   2.664  10.376
  665TMC3    C4 9881   2.803   2.480  10.348
  665TMC3    C5 9882   2.686   2.444  10.403
  665TMC3    C6 9883   2.583   2.535  10.424
  665TMC3     C 9884   2.917   2.641  10.212
  665TMC3     O 9885   2.930   2.558  10.120
  665TMC3     H 9886   2.730   2.799  10.284
  665TMC3    H1 9887   2.895   2.422  10.351
  665TMC3    H2 9888   2.491   2.492  10.463
  665TMC3    C7 9889   2.645   2.302  10.406
  665TMC3    C8 9890   2.487   2.750  10.356
  665TMC3    O1 9891   2.556   2.281  10.483
  665TMC3    O2 9892   2.508   2.860  10.305
  666TMC3    C1 9893   1.458   2.090  13.926
  666TMC3    C2 9894   1.511   2.210  13.939
  666TMC3    C3 9895   1.461   2.314  13.860
  666TMC3    C4 9896   1.337   2.061  13.867
  666TMC3    C5 9897   1.292   2.161  13.781
  666TMC3    C6 9898   1.355   2.285  13.779
  666TMC3     C 9899   1.565   1.995  13.895
  666TMC3     O 9900   1.538   1.879  13.881
  666TMC3     H 9901   1.584   2.230  14.017
  666TMC3    H1 9902   1.318   1.960  13.834
  666TMC3    H2 9903   1.315   2.363  13.714
  666TMC3    C7 9904   1.169   2.136  13.718
  666TMC3    C8 9905   1.570   2.405  13.824
  666TMC3    O1 9906   1.136   2.216  13.629
  666TMC3    O2 9907   1.680   2.356  13.825
  667TMC3    C1 9908   0.979   2.665  10.455
  667TMC3    C2 9909   1.114   2.684  10.451
  667TMC3    C3 9910   1.184   2.650  10.345
  667TMC3    C4 9911   0.916   2.620  10.344
  667TMC3    C5 9912   0.995   2.571  10.239
  667TMC3    C6 9913   1.131   2.586  10.240
  667TMC3     C 9914   0.916   2.744  10.557
  667TMC3     O 9915   0.928   2.705  10.672
  667TMC3     H 9916   1.167   2.719  10.539
  667TMC3    H1 9917   0.809   2.603  10.349
  667TMC3    H2 9918   1.197   2.533  10.173
  667TMC3    C7 9919   0.938   2.572  10.110
  667TMC3    C8 9920   1.317   2.698  10.325
  667TMC3    O1 9921   1.009   2.613  10.017
  667TMC3    O2 9922   1.405   2.614  10.328
  668TMC3    C1 9923   2.653   4.461  11.216
  668TMC3    C2 9924   2.627   4.590  11.237
  668TMC3    C3 9925   2.662   4.651  11.350
  668TMC3    C4 9926   2.716   4.393  11.313
  668TMC3    C5 9927   2.756   4.452  11.429
  668TMC3    C6 9928   2.727   4.583  11.450
  668TMC3     C 9929   2.699   4.433  11.078
  668TMC3     O 9930   2.713   4.533  11.009
  668TMC3     H 9931   2.572   4.642  11.160
  668TMC3    H1 9932   2.750   4.290  11.308
  668TMC3    H2 9933   2.744   4.641  11.540
  668TMC3    C7 9934   2.763   4.374  11.553
  668TMC3    C8 9935   2.625   4.790  11.367
  668TMC3    O1 9936   2.669   4.295  11.562
  668TMC3    O2 9937   2.516   0.026  11.329
  669TMC3    C1 9938   1.546   3.845   8.711
  669TMC3    C2 9939   1.674   3.843   8.668
  669TMC3    C3 9940   1.705   3.949   8.590
  669TMC3    C4 9941   1.446   3.939   8.688
  669TMC3    C5 9942   1.488   4.040   8.612
  669TMC3    C6 9943   1.613   4.046   8.564
  669TMC3     C 9944   1.492   3.740   8.794
  669TMC3     O 9945   1.378   3.701   8.768
  669TMC3     H 9946   1.743   3.761   8.683
  669TMC3    H1 9947   1.344   3.931   8.724
  669TMC3    H2 9948   1.649   4.134   8.511
  669TMC3    C7 9949   1.410   4.159   8.606
  669TMC3    C8 9950   1.852   3.981   8.568
  669TMC3    O1 9951   1.443   4.242   8.522
  669TMC3    O2 9952   1.929   3.965   8.663
  670TMC3    C1 9953   0.766   1.640  14.898
  670TMC3    C2 9954   0.748   1.540  14.799
  670TMC3    C3 9955   0.852   1.455  14.764
  670TMC3    C4 9956   0.895   1.656  14.949
  670TMC3    C5 9957   0.999   1.576  14.901
  670TMC3    C6 9958   0.980   1.479  14.808
  670TMC3     C 9959   0.694   1.757  14.899
  670TMC3     O 9960   0.739   1.852  14.963
  670TMC3     H 9961   0.646   1.527  14.765
  670TMC3    H1 9962   0.915   1.728  15.028
  670TMC3    H2 9963   1.057   1.406  14.788
  670TMC3    C7 9964   1.125   1.596  14.958
  670TMC3    C8 9965   0.825   1.352  14.661
  670TMC3    O1 9966   1.123   1.633  15.076
  670TMC3    O2 9967   0.709   1.329  14.630
  671TMC3    C1 9968   2.602   1.726  10.645
  671TMC3    C2 9969   2.477   1.774  10.642
  671TMC3    C3 9970   2.464   1.901  10.692
  671TMC3    C4 9971   2.711   1.805  10.658
  671TMC3    C5 9972   2.693   1.943  10.682
  671TMC3    C6 9973   2.566   1.994  10.688
  671TMC3     C 9974   2.604   1.602  10.724
  671TMC3     O 9975   2.494   1.586  10.777
  671TMC3     H 9976   2.386   1.717  10.629
  671TMC3    H1 9977   2.815   1.776  10.654
  671TMC3    H2 9978   2.550   2.097  10.719
  671TMC3    C7 9979   2.814   2.019  10.708
  671TMC3    C8 9980   2.378   1.915  10.799
  671TMC3    O1 9981   2.915   1.962  10.745
  671TMC3    O2 9982   2.354   2.025  10.842
  672TMC3    C1 9983   2.534   1.344  10.434
  672TMC3    C2 9984   2.462   1.445  10.369
  672TMC3    C3 9985   2.333   1.461  10.410
  672TMC3    C4 9986   2.485   1.283  10.544
  672TMC3    C5 9987   2.355   1.305  10.570
  672TMC3    C6 9988   2.273   1.391  10.503
  672TMC3     C 9989   2.674   1.349  10.439
  672TMC3     O 9990   2.725   1.436  10.368
  672TMC3     H 9991   2.511   1.507  10.295
  672TMC3    H1 9992   2.546   1.213  10.600
  672TMC3    H2 9993   2.166   1.398  10.515
  672TMC3    C7 9994   2.276   1.190  10.614
  672TMC3    C8 9995   2.271   1.568  10.329
  672TMC3    O1 9996   2.160   1.185  10.577
  672TMC3    O2 9997   2.280   1.563  10.209
  673TMC3    C1 9998   1.945   0.825  13.958
  673TMC3    C2 9999   1.928   0.731  13.853
  673TMC3    C310000   1.872   0.609  13.885
  673TMC3    C410001   1.879   0.804  14.078
  673TMC3    C510002   1.799   0.692  14.087
  673TMC3    C610003   1.798   0.591  13.999
  673TMC3     C10004   1.935   0.961  13.924
  673TMC3     O10005   1.854   0.984  13.833
  673TMC3     H10006   1.980   0.760  13.763
  673TMC3    H110007   1.855   0.885  14.146
  673TMC3    H210008   1.753   0.496  14.027
  673TMC3    C710009   1.740   0.659  14.216
  673TMC3    C810010   1.847   0.510  13.780
  673TMC3    O110011   1.798   0.696  14.319
  673TMC3    O210012   1.936   0.487  13.698
  674TMC3    C110013   3.747   2.310   9.503
  674TMC3    C210014   3.716   2.442   9.480
  674TMC3    C310015   3.596   2.470   9.423
  674TMC3    C410016   3.668   2.206   9.460
  674TMC3    C510017   3.551   2.243   9.402
  674TMC3    C610018   3.510   2.370   9.380
  674TMC3     C10019   3.892   2.289   9.537
  674TMC3     O10020   3.943   2.388   9.582
  674TMC3     H10021   3.756   2.528   9.533
  674TMC3    H110022   3.704   2.104   9.466
  674TMC3    H210023   3.417   2.396   9.331
  674TMC3    C710024   3.466   2.137   9.360
  674TMC3    C810025   3.620   2.566   9.314
  674TMC3    O110026   3.354   2.139   9.419
  674TMC3    O210027   3.525   2.585   9.232
  675TMC3    C110028   4.002   0.748  14.853
  675TMC3    C210029   4.095   0.843  14.804
  675TMC3    C310030   4.043   0.973  14.780
  675TMC3    C410031   3.869   0.770  14.870
  675TMC3    C510032   3.828   0.897  14.842
  675TMC3    C610033   3.911   1.004  14.805
  675TMC3     C10034   4.034   0.607  14.881
  675TMC3     O10035   3.968   0.555  14.973
  675TMC3     H10036   4.198   0.817  14.781
  675TMC3    H110037   3.797   0.694  14.898
  675TMC3    H210038   3.862   1.099  14.786
  675TMC3    C710039   3.688   0.930  14.824
  675TMC3    C810040   4.113   1.081  14.708
  675TMC3    O110041   3.649   1.014  14.744
  675TMC3    O210042   4.207   1.049  14.636
  676TMC3    C110043   1.480   3.576  12.329
  676TMC3    C210044   1.543   3.693  12.294
  676TMC3    C310045   1.461   3.798  12.264
  676TMC3    C410046   1.339   3.555  12.317
  676TMC3    C510047   1.263   3.665  12.291
  676TMC3    C610048   1.323   3.779  12.267
  676TMC3     C10049   1.549   3.472  12.393
  676TMC3     O10050   1.518   3.357  12.359
  676TMC3     H10051   1.649   3.703  12.315
  676TMC3    H110052   1.305   3.463  12.363
  676TMC3    H210053   1.260   3.867  12.260
  676TMC3    C710054   1.158   3.676  12.387
  676TMC3    C810055   1.509   3.932  12.247
  676TMC3    O110056   1.183   3.757  12.476
  676TMC3    O210057   1.418   4.012  12.246
  677TMC3    C110058   2.189   2.887   7.421
  677TMC3    C210059   2.124   2.936   7.311
  677TMC3    C310060   1.992   2.952   7.327
  677TMC3    C410061   2.131   2.858   7.543
  677TMC3    C510062   1.996   2.878   7.550
  677TMC3    C610063   1.923   2.921   7.443
  677TMC3     C10064   2.331   2.922   7.436
  677TMC3     O10065   2.367   3.034   7.404
  677TMC3     H10066   2.186   2.956   7.224
  677TMC3    H110067   2.195   2.835   7.628
  677TMC3    H210068   1.816   2.931   7.453
  677TMC3    C710069   1.949   2.885   7.689
  677TMC3    C810070   1.941   3.051   7.236
  677TMC3    O110071   2.028   2.837   7.770
  677TMC3    O210072   2.017   3.127   7.172
  678TMC3    C110073   3.780   3.683  14.888
  678TMC3    C210074   3.890   3.627  14.826
  678TMC3    C310075   3.881   3.591  14.700
  678TMC3    C410076   3.662   3.698  14.818
  678TMC3    C510077   3.662   3.663  14.686
  678TMC3    C610078   3.769   3.607  14.624
  678TMC3     C10079   3.816   3.807  14.958
  678TMC3     O10080   3.726   3.880  14.993
  678TMC3     H10081   3.983   3.608  14.878
  678TMC3    H110082   3.577   3.740  14.870
  678TMC3    H210083   3.756   3.568  14.524
  678TMC3    C710084   3.540   3.658  14.616
  678TMC3    C810085   4.006   3.539  14.648
  678TMC3    O110086   3.525   3.573  14.531
  678TMC3    O210087   4.110   3.554  14.717
  679TMC3    C110088   4.643   2.603   7.646
  679TMC3    C210089   4.513   2.599   7.671
  679TMC3    C310090   4.476   2.573   7.798
  679TMC3    C410091   4.741   2.574   7.742
  679TMC3    C510092   4.704   2.539   7.867
  679TMC3    C610093   4.571   2.544   7.899
  679TMC3     C10094   4.683   2.596   7.510
  679TMC3     O10095   4.612   2.536   7.432
  679TMC3     H10096   4.453   2.596   7.581
  679TMC3    H110097   0.053   2.570   7.719
  679TMC3    H210098   4.534   2.517   7.997
  679TMC3    C710099   0.017   2.525   7.962
  679TMC3    C810100   4.345   2.511   7.807
  679TMC3    O110101   0.105   2.609   7.941
  679TMC3    O210102   4.307   2.467   7.704
  680TMC3    C110103   3.260   4.328  10.807
  680TMC3    C210104   3.342   4.220  10.823
  680TMC3    C310105   3.379   4.176  10.947
  680TMC3    C410106   3.191   4.370  10.923
  680TMC3    C510107   3.232   4.319  11.045
  680TMC3    C610108   3.337   4.236  11.064
  680TMC3     C10109   3.220   4.367  10.677
  680TMC3     O10110   3.275   4.313  10.579
  680TMC3     H10111   3.395   4.181  10.737
  680TMC3    H110112   3.103   4.434  10.922
  680TMC3    H210113   3.343   4.196  11.165
  680TMC3    C710114   3.139   4.346  11.143
  680TMC3    C810115   3.450   4.051  10.957
  680TMC3    O110116   3.030   4.305  11.122
  680TMC3    O210117   3.393   3.951  10.909
  681TMC3    C110118   0.019   2.498  14.167
  681TMC3    C210119   4.729   2.412  14.236
  681TMC3    C310120   4.654   2.464  14.333
  681TMC3    C410121   0.028   2.632  14.194
  681TMC3    C510122   4.754   2.677  14.300
  681TMC3    C610123   4.673   2.596  14.374
  681TMC3     C10124   0.047   2.446  14.029
  681TMC3     O10125   4.766   2.362  13.987
  681TMC3     H10126   4.714   2.308  14.213
  681TMC3    H110127   0.087   2.703  14.137
  681TMC3    H210128   4.625   2.642  14.459
  681TMC3    C710129   4.681   2.792  14.269
  681TMC3    C810130   4.527   2.395  14.381
  681TMC3    O110131   4.561   2.783  14.259
  681TMC3    O210132   4.510   2.275  14.373
  682TMC3    C110133   4.518   2.778  13.076
  682TMC3    C210134   4.614   2.685  13.043
  682TMC3    C310135   4.737   2.728  13.011
  682TMC3    C410136   4.544   2.915  13.053
  682TMC3    C510137   4.669   2.950  12.999
  682TMC3    C610138   4.766   2.862  12.987
  682TMC3     C10139   4.404   2.730  13.151
  682TMC3     O10140   4.425   2.630  13.218
  682TMC3     H10141   4.595   2.586  13.082
  682TMC3    H110142   4.467   2.988  13.075
  682TMC3    H210143   0.077   2.888  12.998
  682TMC3    C710144   4.641   3.019  12.876
  682TMC3    C810145   0.002   2.638  12.909
  682TMC3    O110146   4.529   3.062  12.855
  682TMC3    O210147   4.748   2.526  12.893
  683TMC3    C110148   1.290   4.258   9.555
  683TMC3    C210149   1.313   4.139   9.627
  683TMC3    C310150   1.258   4.133   9.754
  683TMC3    C410151   1.241   4.365   9.619
  683TMC3    C510152   1.203   4.357   9.752
  683TMC3    C610153   1.205   4.241   9.818
  683TMC3     C10154   1.295   4.245   9.410
  683TMC3     O10155   1.247   4.144   9.360
  683TMC3     H10156   1.348   4.049   9.577
  683TMC3    H110157   1.221   4.458   9.566
  683TMC3    H210158   1.173   4.241   9.921
  683TMC3    C710159   1.226   4.481   9.829
  683TMC3    C810160   1.315   4.043   9.842
  683TMC3    O110161   1.189   4.588   9.786
  683TMC3    O210162   1.439   4.030   9.843
  684TMC3    C110163   0.865   4.038   7.871
  684TMC3    C210164   0.874   4.017   8.004
  684TMC3    C310165   0.841   4.125   8.079
  684TMC3    C410166   0.830   4.153   7.811
  684TMC3    C510167   0.797   4.257   7.892
  684TMC3    C610168   0.791   4.238   8.025
  684TMC3     C10169   0.913   3.926   7.793
  684TMC3     O10170   1.005   3.864   7.848
  684TMC3     H10171   0.895   3.915   8.035
  684TMC3    H110172   0.824   4.166   7.704
  684TMC3    H210173   0.775   4.313   8.102
  684TMC3    C710174   0.788   4.388   7.837
  684TMC3    C810175   0.786   4.091   8.205
  684TMC3    O110176   0.682   4.443   7.856
  684TMC3    O210177   0.664   4.116   8.203
  685TMC3    C110178   1.461   3.222  13.261
  685TMC3    C210179   1.501   3.126  13.349
  685TMC3    C310180   1.545   3.179  13.467
  685TMC3    C410181   1.456   3.357  13.296
  685TMC3    C510182   1.496   3.404  13.414
  685TMC3    C610183   1.548   3.314  13.507
  685TMC3     C10184   1.388   3.185  13.141
  685TMC3     O10185   1.358   3.278  13.068
  685TMC3     H10186   1.533   3.023  13.334
  685TMC3    H110187   1.452   3.431  13.217
  685TMC3    H210188   1.579   3.344  13.606
  685TMC3    C710189   1.449   3.533  13.460
  685TMC3    C810190   1.615   3.092  13.565
  685TMC3    O110191   1.507   3.577  13.559
  685TMC3    O210192   1.691   3.140  13.648
  686TMC3    C110193   3.174   0.841   9.400
  686TMC3    C210194   3.070   0.756   9.430
  686TMC3    C310195   3.096   0.621   9.438
  686TMC3    C410196   3.301   0.794   9.376
  686TMC3    C510197   3.326   0.659   9.404
  686TMC3    C610198   3.227   0.566   9.432
  686TMC3     C10199   3.140   0.977   9.360
  686TMC3     O10200   3.039   1.018   9.399
  686TMC3     H10201   2.970   0.792   9.447
  686TMC3    H110202   3.380   0.855   9.333
  686TMC3    H210203   3.240   0.459   9.430
  686TMC3    C710204   3.461   0.616   9.364
  686TMC3    C810205   2.987   0.534   9.429
  686TMC3    O110206   3.488   0.636   9.246
  686TMC3    O210207   2.979   0.436   9.504
  687TMC3    C110208   3.111   2.280  12.688
  687TMC3    C210209   3.075   2.378  12.599
  687TMC3    C310210   3.046   2.340  12.472
  687TMC3    C410211   3.119   2.149  12.650
  687TMC3    C510212   3.080   2.114  12.520
  687TMC3    C610213   3.052   2.211  12.426
  687TMC3     C10214   3.194   2.313  12.810
  687TMC3     O10215   3.285   2.238  12.844
  687TMC3     H10216   3.063   2.482  12.629
  687TMC3    H110217   3.173   2.078  12.712
  687TMC3    H210218   3.010   2.183  12.330
  687TMC3    C710219   3.125   1.989  12.471
  687TMC3    C810220   2.975   2.448  12.392
  687TMC3    O110221   3.123   1.972  12.351
  687TMC3    O210222   2.913   2.531  12.459
  688TMC3    C110223   3.840   2.574  13.017
  688TMC3    C210224   3.835   2.474  12.932
  688TMC3    C310225   3.949   2.400  12.918
  688TMC3    C410226   3.945   2.589  13.109
  688TMC3    C510227   4.052   2.508  13.099
  688TMC3    C610228   4.066   2.434  12.988
  688TMC3     C10229   3.716   2.625  13.067
  688TMC3     O10230   3.722   2.728  13.135
  688TMC3     H10231   3.756   2.454  12.860
  688TMC3    H110232   3.942   2.664  13.187
  688TMC3    H210233   4.147   2.362  12.984
  688TMC3    C710234   4.074   2.428  13.220
  688TMC3    C810235   3.941   2.255  12.908
  688TMC3    O110236   3.990   2.442  13.310
  688TMC3    O210237   3.845   2.199  12.966
  689TMC3    C110238   2.807   3.872  10.684
  689TMC3    C210239   2.847   3.828  10.807
  689TMC3    C310240   2.974   3.858  10.851
  689TMC3    C410241   2.892   3.946  10.606
  689TMC3    C510242   3.013   3.984  10.666
  689TMC3    C610243   3.052   3.945  10.786
  689TMC3     C10244   2.703   3.801  10.618
  689TMC3     O10245   2.637   3.724  10.685
  689TMC3     H10246   2.781   3.761  10.861
  689TMC3    H110247   2.852   3.986  10.514
  689TMC3    H210248   3.156   3.960  10.812
  689TMC3    C710249   3.124   4.000  10.572
  689TMC3    C810250   3.041   3.758  10.924
  689TMC3    O110251   3.231   3.978  10.620
  689TMC3    O210252   2.996   3.649  10.894
  690TMC3    C110253   3.610   0.007  10.333
  690TMC3    C210254   3.601   0.119  10.252
  690TMC3    C310255   3.475   0.156  10.211
  690TMC3    C410256   3.501   4.725  10.350
  690TMC3    C510257   3.375   4.746  10.291
  690TMC3    C610258   3.365   0.071  10.222
  690TMC3     C10259   3.746   4.763  10.380
  690TMC3     O10260   3.830   0.055  10.367
  690TMC3     H10261   3.682   0.191  10.243
  690TMC3    H110262   3.508   4.634  10.409
  690TMC3    H210263   3.274   0.099  10.169
  690TMC3    C710264   3.327   4.624  10.231
  690TMC3    C810265   3.464   0.269  10.122
  690TMC3    O110266   3.346   4.522  10.295
  690TMC3    O210267   3.569   0.321  10.080
  691TMC3    C110268   0.550   1.711   7.986
  691TMC3    C210269   0.435   1.765   7.930
  691TMC3    C310270   0.437   1.827   7.812
  691TMC3    C410271   0.657   1.683   7.912
  691TMC3    C510272   0.665   1.737   7.787
  691TMC3    C610273   0.557   1.810   7.739
  691TMC3     C10274   0.569   1.737   8.127
  691TMC3     O10275   0.504   1.660   8.199
  691TMC3     H10276   0.348   1.780   7.993
  691TMC3    H110277   0.725   1.611   7.955
  691TMC3    H210278   0.572   1.869   7.649
  691TMC3    C710279   0.793   1.721   7.725
  691TMC3    C810280   0.404   1.971   7.819
  691TMC3    O110281   0.867   1.635   7.768
  691TMC3    O210282   0.451   2.040   7.731
  692TMC3    C110283   3.166   0.770  13.459
  692TMC3    C210284   3.077   0.791  13.567
  692TMC3    C310285   2.975   0.698  13.582
  692TMC3    C410286   3.145   0.673  13.366
  692TMC3    C510287   3.040   0.585  13.384
  692TMC3    C610288   2.958   0.594  13.491
  692TMC3     C10289   3.275   0.862  13.434
  692TMC3     O10290   3.323   0.885  13.320
  692TMC3     H10291   3.087   0.873  13.637
  692TMC3    H110292   3.216   0.662  13.284
  692TMC3    H210293   2.883   0.521  13.518
  692TMC3    C710294   3.001   0.483  13.289
  692TMC3    C810295   2.918   0.674  13.708
  692TMC3    O110296   2.907   0.410  13.323
  692TMC3    O210297   2.952   0.567  13.757
  693TMC3    C110298   0.510   0.687   6.592
  693TMC3    C210299   0.413   0.589   6.569
  693TMC3    C310300   0.458   0.463   6.539
  693TMC3    C410301   0.645   0.673   6.577
  693TMC3    C510302   0.688   0.552   6.532
  693TMC3    C610303   0.594   0.447   6.519
  693TMC3     C10304   0.469   0.827   6.626
  693TMC3     O10305   0.554   0.911   6.603
  693TMC3     H10306   0.310   0.615   6.549
  693TMC3    H110307   0.712   0.757   6.590
  693TMC3    H210308   0.629   0.354   6.476
  693TMC3    C710309   0.826   0.530   6.498
  693TMC3    C810310   0.364   0.363   6.508
  693TMC3    O110311   0.857   0.415   6.472
  693TMC3    O210312   0.248   0.397   6.493
  694TMC3    C110313   4.248   3.514   9.244
  694TMC3    C210314   4.304   3.609   9.163
  694TMC3    C310315   4.441   3.618   9.140
  694TMC3    C410316   4.333   3.433   9.315
  694TMC3    C510317   4.466   3.451   9.299
  694TMC3    C610318   4.523   3.541   9.211
  694TMC3     C10319   4.169   3.572   9.349
  694TMC3     O10320   4.103   3.499   9.418
  694TMC3     H10321   4.240   3.676   9.106
  694TMC3    H110322   4.289   3.367   9.390
  694TMC3    H210323   4.627   3.531   9.186
  694TMC3    C710324   4.551   3.361   9.376
  694TMC3    C810325   4.497   3.728   9.061
  694TMC3    O110326   4.507   3.252   9.403
  694TMC3    O210327   4.601   3.778   9.101
  695TMC3    C110328   4.557   0.028   8.090
  695TMC3    C210329   4.682   0.053   8.147
  695TMC3    C310330   4.770   0.127   8.079
  695TMC3    C410331   4.517   0.093   7.979
  695TMC3    C510332   4.603   0.180   7.922
  695TMC3    C610333   4.729   0.198   7.972
  695TMC3     C10334   4.447   4.774   8.171
  695TMC3     O10335   4.459   4.656   8.191
  695TMC3     H10336   4.714   0.020   8.245
  695TMC3    H110337   4.431   0.052   7.927
  695TMC3    H210338   4.793   0.284   7.952
  695TMC3    C710339   4.548   0.296   7.861
  695TMC3    C810340   0.093   0.188   8.146
  695TMC3    O110341   4.625   0.388   7.831
  695TMC3    O210342   0.078   0.226   8.259
  696TMC3    C110343   4.088   1.202  13.027
  696TMC3    C210344   4.008   1.145  12.931
  696TMC3    C310345   4.005   1.206  12.807
  696TMC3    C410346   4.150   1.318  13.000
  696TMC3    C510347   4.161   1.371  12.873
  696TMC3    C610348   4.084   1.309  12.770
  696TMC3     C10349   4.178   1.113  13.085
  696TMC3     O10350   4.131   1.014  13.145
  696TMC3     H10351   3.964   1.049  12.955
  696TMC3    H110352   4.228   1.362  13.061
  696TMC3    H210353   4.095   1.335  12.666
  696TMC3    C710354   4.290   1.412  12.817
  696TMC3    C810355   3.948   1.125  12.699
  696TMC3    O110356   4.333   1.343  12.724
  696TMC3    O210357   4.003   1.124  12.591
  697TMC3    C110358   3.943   3.847  12.404
  697TMC3    C210359   3.964   3.965  12.332
  697TMC3    C310360   3.912   3.978  12.202
  697TMC3    C410361   3.870   3.741  12.353
  697TMC3    C510362   3.823   3.758  12.223
  697TMC3    C610363   3.842   3.877  12.151
  697TMC3     C10364   3.979   3.851  12.545
  697TMC3     O10365   3.977   3.966  12.589
  697TMC3     H10366   4.030   4.040  12.374
  697TMC3    H110367   3.864   3.648  12.407
  697TMC3    H210368   3.797   3.881  12.052
  697TMC3    C710369   3.736   3.661  12.164
  697TMC3    C810370   3.895   4.109  12.142
  697TMC3    O110371   3.753   3.551  12.212
  697TMC3    O210372   3.868   4.121  12.020
  698TMC3    C110373   3.265   3.412  14.933
  698TMC3    C210374   3.164   3.441  14.845
  698TMC3    C310375   3.044   3.380  14.853
  698TMC3    C410376   3.239   3.327  15.032
  698TMC3    C510377   3.106   3.272  15.046
  698TMC3    C610378   3.007   3.295  14.958
  698TMC3     C10379   3.389   3.376  14.865
  698TMC3     O10380   3.363   3.337  14.747
  698TMC3     H10381   3.190   3.480  14.747
  698TMC3    H110382   3.315   3.282  15.095
  698TMC3    H210383   2.905   3.259  14.968
  698TMC3    C710384   3.088   3.189  15.162
  698TMC3    C810385   2.990   3.347  14.730
  698TMC3    O110386   3.142   3.226  15.264
  698TMC3    O210387   2.984   3.440  14.649
  699TMC3    C110388   4.409   0.725   7.624
  699TMC3    C210389   4.350   0.602   7.635
  699TMC3    C310390   4.410   0.490   7.585
  699TMC3    C410391   4.534   0.737   7.570
  699TMC3    C510392   4.593   0.617   7.539
  699TMC3    C610393   4.537   0.497   7.546
  699TMC3     C10394   4.347   0.850   7.665
  699TMC3     O10395   4.401   0.953   7.622
  699TMC3     H10396   4.254   0.595   7.684
  699TMC3    H110397   4.589   0.830   7.557
  699TMC3    H210398   4.596   0.409   7.520
  699TMC3    C710399   4.714   0.625   7.468
  699TMC3    C810400   4.325   0.378   7.543
  699TMC3    O110401   4.785   0.527   7.458
  699TMC3    O210402   4.205   0.393   7.571
  700TMC3    C110403   1.843   3.577  13.177
  700TMC3    C210404   1.971   3.598  13.225
  700TMC3    C310405   2.057   3.493  13.200
  700TMC3    C410406   1.799   3.460  13.125
  700TMC3    C510407   1.892   3.366  13.096
  700TMC3    C610408   2.022   3.377  13.126
  700TMC3     C10409   1.741   3.663  13.226
  700TMC3     O10410   1.630   3.620  13.244
  700TMC3     H10411   2.012   3.687  13.271
  700TMC3    H110412   1.695   3.453  13.097
  700TMC3    H210413   2.076   3.284  13.113
  700TMC3    C710414   1.831   3.241  13.079
  700TMC3    C810415   2.203   3.521  13.221
  700TMC3    O110416   1.745   3.240  12.990
  700TMC3    O210417   2.228   3.632  13.269
  701TMC3    C110418   3.417   4.196   7.149
  701TMC3    C210419   3.549   4.234   7.127
  701TMC3    C310420   3.566   4.351   7.046
  701TMC3    C410421   3.309   4.252   7.070
  701TMC3    C510422   3.339   4.351   6.979
  701TMC3    C610423   3.465   4.407   6.973
  701TMC3     C10424   3.375   4.075   7.233
  701TMC3     O10425   3.263   4.072   7.272
  701TMC3     H10426   3.629   4.188   7.185
  701TMC3    H110427   3.209   4.213   7.084
  701TMC3    H210428   3.492   4.472   6.891
  701TMC3    C710429   3.230   4.430   6.927
  701TMC3    C810430   3.693   4.357   6.985
  701TMC3    O110431   3.249   4.514   6.837
  701TMC3    O210432   3.698   4.339   6.865
  702TMC3    C110433   2.575   0.600  10.343
  702TMC3    C210434   2.660   0.573  10.239
  702TMC3    C310435   2.788   0.628  10.249
  702TMC3    C410436   2.618   0.672  10.455
  702TMC3    C510437   2.752   0.703  10.466
  702TMC3    C610438   2.840   0.680  10.363
  702TMC3     C10439   2.510   0.478  10.380
  702TMC3     O10440   2.529   0.452  10.497
  702TMC3     H10441   2.637   0.524  10.145
  702TMC3    H110442   2.553   0.684  10.541
  702TMC3    H210443   2.942   0.718  10.362
  702TMC3    C710444   2.798   0.747  10.587
  702TMC3    C810445   2.879   0.560  10.167
  702TMC3    O110446   2.714   0.791  10.669
  702TMC3    O210447   2.882   0.437  10.170
  703TMC3    C110448   1.662   0.194   8.682
  703TMC3    C210449   1.643   0.108   8.786
  703TMC3    C310450   1.688   4.780   8.771
  703TMC3    C410451   1.720   0.168   8.567
  703TMC3    C510452   1.769   0.043   8.557
  703TMC3    C610453   1.753   4.741   8.656
  703TMC3     C10454   1.603   0.322   8.701
  703TMC3     O10455   1.587   0.371   8.810
  703TMC3     H10456   1.590   0.139   8.875
  703TMC3    H110457   1.753   0.242   8.496
  703TMC3    H210458   1.804   4.646   8.647
  703TMC3    C710459   1.870   0.004   8.458
  703TMC3    C810460   1.710   4.686   8.879
  703TMC3    O110461   1.977   4.750   8.505
  703TMC3    O210462   1.749   4.736   8.984
  704TMC3    C110463   0.662   2.440   7.239
  704TMC3    C210464   0.799   2.440   7.237
  704TMC3    C310465   0.857   2.360   7.138
  704TMC3    C410466   0.580   2.384   7.144
  704TMC3    C510467   0.641   2.315   7.043
  704TMC3    C610468   0.781   2.300   7.038
  704TMC3     C10469   0.601   2.535   7.324
  704TMC3     O10470   0.504   2.502   7.388
  704TMC3     H10471   0.858   2.505   7.300
  704TMC3    H110472   0.473   2.401   7.149
  704TMC3    H210473   0.831   2.245   6.959
  704TMC3    C710474   0.563   2.301   6.922
  704TMC3    C810475   0.997   2.333   7.138
  704TMC3    O110476   0.469   2.379   6.902
  704TMC3    O210477   1.044   2.309   7.028
  705TMC3    C110478   3.725   4.678  15.261
  705TMC3    C210479   3.602   4.635  15.239
  705TMC3    C310480   3.588   4.503  15.200
  705TMC3    C410481   3.835   4.599  15.258
  705TMC3    C510482   3.813   4.471  15.212
  705TMC3    C610483   3.692   4.421  15.178
  705TMC3     C10484   3.746   0.028  15.258
  705TMC3     O10485   3.841   0.068  15.326
  705TMC3     H10486   3.519   4.705  15.234
  705TMC3    H110487   3.937   4.634  15.267
  705TMC3    H210488   3.665   4.322  15.143
  705TMC3    C710489   3.932   4.393  15.199
  705TMC3    C810490   3.468   4.467  15.127
  705TMC3    O110491   4.037   4.430  15.256
  705TMC3    O210492   3.480   4.397  15.029
  706TMC3    C110493   1.175   1.474  10.163
  706TMC3    C210494   1.193   1.438  10.030
  706TMC3    C310495   1.299   1.487   9.959
  706TMC3    C410496   1.275   1.536  10.233
  706TMC3    C510497   1.379   1.582  10.164
  706TMC3    C610498   1.396   1.554  10.030
  706TMC3     C10499   1.084   1.391  10.244
  706TMC3     O10500   0.985   1.347  10.189
  706TMC3     H10501   1.102   1.404   9.982
  706TMC3    H110502   1.250   1.581  10.328
  706TMC3    H210503   1.490   1.579   9.982
  706TMC3    C710504   1.387   1.721  10.175
  706TMC3    C810505   1.267   1.555   9.830
  706TMC3    O110506   1.287   1.782  10.210
  706TMC3    O210507   1.156   1.529   9.782
  707TMC3    C110508   2.252   2.767   9.180
  707TMC3    C210509   2.319   2.799   9.067
  707TMC3    C310510   2.407   2.899   9.070
  707TMC3    C410511   2.269   2.834   9.299
  707TMC3    C510512   2.352   2.943   9.287
  707TMC3    C610513   2.433   2.971   9.184
  707TMC3     C10514   2.160   2.655   9.174
  707TMC3     O10515   2.147   2.596   9.068
  707TMC3     H10516   2.305   2.743   8.975
  707TMC3    H110517   2.219   2.808   9.391
  707TMC3    H210518   2.491   3.063   9.179
  707TMC3    C710519   2.368   3.023   9.409
  707TMC3    C810520   2.465   2.950   8.946
  707TMC3    O110521   2.351   2.961   9.512
  707TMC3    O210522   2.474   3.073   8.929
  708TMC3    C110523   0.734   1.631  14.402
  708TMC3    C210524   0.776   1.525  14.337
  708TMC3    C310525   0.681   1.437  14.309
  708TMC3    C410526   0.617   1.644  14.462
  708TMC3    C510527   0.534   1.532  14.456
  708TMC3    C610528   0.558   1.430  14.370
  708TMC3     C10529   0.833   1.734  14.435
  708TMC3     O10530   0.927   1.699  14.502
  708TMC3     H10531   0.872   1.527  14.288
  708TMC3    H110532   0.599   1.726  14.531
  708TMC3    H210533   0.476   1.362  14.347
  708TMC3    C710534   0.401   1.551  14.504
  708TMC3    C810535   0.712   1.340  14.204
  708TMC3    O110536   0.366   1.673  14.517
  708TMC3    O210537   0.824   1.350  14.162
  709TMC3    C110538   1.771   1.307   8.905
  709TMC3    C210539   1.827   1.200   8.968
  709TMC3    C310540   1.841   1.089   8.892
  709TMC3    C410541   1.735   1.311   8.772
  709TMC3    C510542   1.779   1.208   8.696
  709TMC3    C610543   1.826   1.090   8.749
  709TMC3     C10544   1.687   1.368   9.001
  709TMC3     O10545   1.719   1.407   9.113
  709TMC3     H10546   1.822   1.189   9.075
  709TMC3    H110547   1.707   1.403   8.722
  709TMC3    H210548   1.843   0.998   8.694
  709TMC3    C710549   1.748   1.229   8.552
  709TMC3    C810550   1.879   0.965   8.962
  709TMC3    O110551   1.651   1.301   8.529
  709TMC3    O210552   1.900   0.970   9.081
  710TMC3    C110553   2.903   0.098  12.282
  710TMC3    C210554   2.816   0.007  12.328
  710TMC3    C310555   2.686   0.050  12.358
  710TMC3    C410556   2.860   0.223  12.239
  710TMC3    C510557   2.731   0.260  12.265
  710TMC3    C610558   2.645   0.176  12.333
  710TMC3     C10559   3.045   0.067  12.272
  710TMC3     O10560   3.107   0.118  12.178
  710TMC3     H10561   2.854   4.703  12.355
  710TMC3    H110562   2.928   0.282  12.179
  710TMC3    H210563   2.537   0.189  12.333
  710TMC3    C710564   2.689   0.397  12.262
  710TMC3    C810565   2.597   4.748  12.432
  710TMC3    O110566   2.603   0.432  12.341
  710TMC3    O210567   2.647   4.640  12.428
  711TMC3    C110568   2.238   1.937   7.420
  711TMC3    C210569   2.371   1.905   7.406
  711TMC3    C310570   2.445   1.981   7.323
  711TMC3    C410571   2.182   2.039   7.348
  711TMC3    C510572   2.258   2.117   7.275
  711TMC3    C610573   2.397   2.091   7.262
  711TMC3     C10574   2.147   1.845   7.481
  711TMC3     O10575   2.034   1.832   7.431
  711TMC3     H10576   2.424   1.826   7.457
  711TMC3    H110577   2.076   2.061   7.358
  711TMC3    H210578   2.453   2.139   7.182
  711TMC3    C710579   2.190   2.238   7.210
  711TMC3    C810580   2.538   1.911   7.236
  711TMC3    O110581   2.075   2.272   7.237
  711TMC3    O210582   2.619   1.981   7.172
  712TMC3    C110583   0.601   2.433   7.830
  712TMC3    C210584   0.611   2.378   7.709
  712TMC3    C310585   0.740   2.373   7.649
  712TMC3    C410586   0.709   2.494   7.889
  712TMC3    C510587   0.831   2.492   7.828
  712TMC3    C610588   0.844   2.445   7.698
  712TMC3     C10589   0.490   2.519   7.848
  712TMC3     O10590   0.506   2.632   7.804
  712TMC3     H10591   0.518   2.346   7.662
  712TMC3    H110592   0.693   2.531   7.990
  712TMC3    H210593   0.944   2.433   7.657
  712TMC3    C710594   0.934   2.584   7.878
  712TMC3    C810595   0.777   2.286   7.540
  712TMC3    O110596   1.033   2.593   7.801
  712TMC3    O210597   0.882   2.307   7.482
  713TMC3    C110598   3.114   2.960  11.791
  713TMC3    C210599   3.080   3.044  11.687
  713TMC3    C310600   3.147   3.166  11.686
  713TMC3    C410601   3.221   2.985  11.874
  713TMC3    C510602   3.288   3.103  11.866
  713TMC3    C610603   3.250   3.198  11.771
  713TMC3     C10604   3.128   2.819  11.748
  713TMC3     O10605   3.034   2.774  11.683
  713TMC3     H10606   2.999   3.023  11.618
  713TMC3    H110607   3.235   2.923  11.962
  713TMC3    H210608   3.294   3.297  11.761
  713TMC3    C710609   3.424   3.104  11.898
  713TMC3    C810610   3.091   3.274  11.605
  713TMC3    O110611   3.461   3.000  11.953
  713TMC3    O210612   3.133   3.386  11.622
  714TMC3    C110613   0.049   0.042   9.905
  714TMC3    C210614   4.753   4.734   9.876
  714TMC3    C310615   4.638   4.748   9.945
  714TMC3    C410616   0.028   0.151   9.987
  714TMC3    C510617   4.699   0.149  10.047
  714TMC3    C610618   4.610   0.050  10.027
  714TMC3     C10619   0.172   0.053   9.832
  714TMC3     O10620   0.230   0.162   9.848
  714TMC3     H10621   4.760   4.663   9.794
  714TMC3    H110622   0.101   0.227  10.010
  714TMC3    H210623   4.507   0.069  10.056
  714TMC3    C710624   4.625   0.271  10.017
  714TMC3    C810625   4.526   4.665   9.912
  714TMC3    O110626   4.543   0.261   9.932
  714TMC3    O210627   4.427   4.653   9.986
  715TMC3    C110628   4.132   0.508  12.500
  715TMC3    C210629   4.103   0.427  12.603
  715TMC3    C310630   4.022   0.320  12.587
  715TMC3    C410631   4.087   0.472  12.374
  715TMC3    C510632   3.999   0.366  12.359
  715TMC3    C610633   3.975   0.285  12.462
  715TMC3     C10634   4.263   0.577  12.512
  715TMC3     O10635   4.324   0.563  12.621
  715TMC3     H10636   4.153   0.437  12.698
  715TMC3    H110637   4.100   0.541  12.290
  715TMC3    H210638   3.915   0.195  12.455
  715TMC3    C710639   4.010   0.301  12.229
  715TMC3    C810640   4.009   0.218  12.692
  715TMC3    O110641   4.003   0.368  12.127
  715TMC3    O210642   4.001   0.101  12.657
  716TMC3    C110643   0.337   3.587  11.767
  716TMC3    C210644   0.213   3.564  11.830
  716TMC3    C310645   0.144   3.681  11.838
  716TMC3    C410646   0.366   3.693  11.685
  716TMC3    C510647   0.275   3.793  11.673
  716TMC3    C610648   0.161   3.787  11.754
  716TMC3     C10649   0.457   3.507  11.797
  716TMC3     O10650   0.565   3.567  11.782
  716TMC3     H10651   0.187   3.486  11.900
  716TMC3    H110652   0.442   3.694  11.608
  716TMC3    H210653   0.092   3.870  11.766
  716TMC3    C710654   0.326   3.932  11.688
  716TMC3    C810655   0.043   3.695  11.941
  716TMC3    O110656   0.244   4.019  11.680
  716TMC3    O210657   4.768   3.596  11.952
  717TMC3    C110658   0.102   4.443  10.481
  717TMC3    C210659   4.777   4.436  10.541
  717TMC3    C310660   4.727   4.314  10.570
  717TMC3    C410661   0.183   4.344  10.445
  717TMC3    C510662   0.135   4.222  10.482
  717TMC3    C610663   0.013   4.207  10.541
  717TMC3     C10664   0.146   4.581  10.452
  717TMC3     O10665   0.120   4.665  10.543
  717TMC3     H10666   4.719   4.524  10.564
  717TMC3    H110667   0.278   4.356  10.395
  717TMC3    H210668   4.755   4.113  10.554
  717TMC3    C710669   0.229   4.111  10.481
  717TMC3    C810670   4.605   4.293  10.644
  717TMC3    O110671   0.340   4.135  10.443
  717TMC3    O210672   4.504   4.244  10.591
  718TMC3    C110673   1.165   0.162   7.056
  718TMC3    C210674   1.204   0.153   6.916
  718TMC3    C310675   1.197   0.270   6.843
  718TMC3    C410676   1.106   0.278   7.109
  718TMC3    C510677   1.072   0.372   7.016
  718TMC3    C610678   1.122   0.368   6.889
  718TMC3     C10679   1.150   0.048   7.140
  718TMC3     O10680   1.165   0.052   7.260
  718TMC3     H10681   1.265   0.073   6.876
  718TMC3    H110682   1.071   0.283   7.212
  718TMC3    H210683   1.119   0.461   6.834
  718TMC3    C710684   1.009   0.498   7.066
  718TMC3    C810685   1.319   0.305   6.769
  718TMC3    O110686   1.015   0.525   7.186
  718TMC3    O210687   1.387   0.209   6.738
  719TMC3    C110688   1.004   0.577  12.779
  719TMC3    C210689   1.126   0.528  12.745
  719TMC3    C310690   1.145   0.466  12.626
  719TMC3    C410691   0.907   0.565  12.682
  719TMC3    C510692   0.934   0.516  12.556
  719TMC3    C610693   1.049   0.462  12.523
  719TMC3     C10694   0.992   0.710  12.829
  719TMC3     O10695   0.954   0.797  12.756
  719TMC3     H10696   1.201   0.550  12.819
  719TMC3    H110697   0.815   0.617  12.702
  719TMC3    H210698   1.065   0.420  12.425
  719TMC3    C710699   0.896   0.631  12.472
  719TMC3    C810700   1.283   0.443  12.576
  719TMC3    O110701   0.809   0.703  12.505
  719TMC3    O210702   1.371   0.512  12.621
  720TMC3    C110703   4.419   0.293   9.294
  720TMC3    C210704   4.349   0.366   9.192
  720TMC3    C310705   4.408   0.386   9.067
  720TMC3    C410706   4.548   0.265   9.273
  720TMC3    C510707   4.598   0.281   9.145
  720TMC3    C610708   4.534   0.341   9.041
  720TMC3     C10709   4.348   0.191   9.365
  720TMC3     O10710   4.394   0.079   9.372
  720TMC3     H10711   4.244   0.384   9.208
  720TMC3    H110712   4.605   0.205   9.344
  720TMC3    H210713   4.583   0.333   8.944
  720TMC3    C710714   4.723   0.202   9.119
  720TMC3    C810715   4.334   0.458   8.967
  720TMC3    O110716   4.745   0.098   9.179
  720TMC3    O210717   4.234   0.517   9.007
  721TMC3    C110718   4.328   3.009  12.273
  721TMC3    C210719   4.201   3.061  12.266
  721TMC3    C310720   4.125   3.024  12.153
  721TMC3    C410721   4.385   2.945  12.164
  721TMC3    C510722   4.309   2.930  12.052
  721TMC3    C610723   4.175   2.958  12.053
  721TMC3     C10724   4.410   3.053  12.380
  721TMC3     O10725   4.359   3.110  12.476
  721TMC3     H10726   4.166   3.133  12.339
  721TMC3    H110727   4.476   2.888  12.181
  721TMC3    H210728   4.127   2.922  11.963
  721TMC3    C710729   4.371   2.856  11.943
  721TMC3    C810730   4.049   3.137  12.114
  721TMC3    O110731   4.304   2.769  11.897
  721TMC3    O210732   4.088   3.249  12.149
  722TMC3    C110733   4.172   4.332  12.476
  722TMC3    C210734   4.088   4.319  12.589
  722TMC3    C310735   4.050   4.435  12.648
  722TMC3    C410736   4.223   4.452  12.444
  722TMC3    C510737   4.180   4.564  12.503
  722TMC3    C610738   4.093   4.559  12.609
  722TMC3     C10739   4.227   4.210  12.406
  722TMC3     O10740   4.266   4.215  12.290
  722TMC3     H10741   4.041   4.223  12.609
  722TMC3    H110742   4.298   4.460  12.366
  722TMC3    H210743   4.060   4.652  12.654
  722TMC3    C710744   4.289   4.662  12.505
  722TMC3    C810745   3.973   4.426  12.770
  722TMC3    O110746   4.379   4.649  12.421
  722TMC3    O210747   3.990   4.322  12.837
  723TMC3    C110748   3.073   1.554  13.636
  723TMC3    C210749   3.006   1.505  13.533
  723TMC3    C310750   2.992   1.373  13.497
  723TMC3    C410751   3.138   1.467  13.720
  723TMC3    C510752   3.122   1.331  13.691
  723TMC3    C610753   3.050   1.284  13.579
  723TMC3     C10754   3.113   1.694  13.616
  723TMC3     O10755   3.058   1.765  13.533
  723TMC3     H10756   2.960   1.573  13.462
  723TMC3    H110757   3.202   1.490  13.803
  723TMC3    H210758   3.025   1.179  13.567
  723TMC3    C710759   3.119   1.235  13.802
  723TMC3    C810760   2.952   1.338  13.363
  723TMC3    O110761   3.126   1.118  13.781
  723TMC3    O210762   2.890   1.419  13.293
  724TMC3    C110763   0.972   2.881   9.481
  724TMC3    C210764   0.956   2.757   9.422
  724TMC3    C310765   0.833   2.702   9.424
  724TMC3    C410766   0.864   2.945   9.540
  724TMC3    C510767   0.737   2.897   9.533
  724TMC3    C610768   0.725   2.769   9.476
  724TMC3     C10769   1.102   2.949   9.500
  724TMC3     O10770   1.110   3.029   9.591
  724TMC3     H10771   1.034   2.702   9.373
  724TMC3    H110772   0.875   3.049   9.572
  724TMC3    H210773   0.627   2.726   9.464
  724TMC3    C710774   0.632   2.988   9.493
  724TMC3    C810775   0.804   2.590   9.342
  724TMC3    O110776   0.673   3.090   9.439
  724TMC3    O210777   0.733   2.498   9.384
  725TMC3    C110778   0.805   0.598   8.463
  725TMC3    C210779   0.753   0.710   8.409
  725TMC3    C310780   0.722   0.807   8.496
  725TMC3    C410781   0.814   0.577   8.601
  725TMC3    C510782   0.773   0.682   8.685
  725TMC3    C610783   0.740   0.802   8.633
  725TMC3     C10784   0.810   0.476   8.380
  725TMC3     O10785   0.810   0.477   8.257
  725TMC3     H10786   0.742   0.711   8.301
  725TMC3    H110787   0.848   0.485   8.649
  725TMC3    H210788   0.690   0.880   8.690
  725TMC3    C710789   0.713   0.647   8.811
  725TMC3    C810790   0.596   0.855   8.458
  725TMC3    O110791   0.673   0.533   8.815
  725TMC3    O210792   0.513   0.873   8.543
  726TMC3    C110793   2.703   1.181   7.542
  726TMC3    C210794   2.762   1.300   7.516
  726TMC3    C310795   2.892   1.326   7.557
  726TMC3    C410796   2.786   1.082   7.602
  726TMC3    C510797   2.918   1.103   7.632
  726TMC3    C610798   2.970   1.227   7.608
  726TMC3     C10799   2.608   1.153   7.432
  726TMC3     O10800   2.538   1.243   7.395
  726TMC3     H10801   2.695   1.373   7.472
  726TMC3    H110802   2.740   0.988   7.631
  726TMC3    H210803   3.072   1.251   7.633
  726TMC3    C710804   3.011   0.988   7.624
  726TMC3    C810805   2.969   1.431   7.491
  726TMC3    O110806   3.126   1.020   7.655
  726TMC3    O210807   3.088   1.406   7.482
  727TMC3    C110808   1.898   3.289   8.108
  727TMC3    C210809   1.972   3.172   8.085
  727TMC3    C310810   2.012   3.094   8.196
  727TMC3    C410811   1.858   3.312   8.234
  727TMC3    C510812   1.911   3.239   8.339
  727TMC3    C610813   2.003   3.135   8.328
  727TMC3     C10814   1.905   3.396   8.014
  727TMC3     O10815   1.928   3.372   7.896
  727TMC3     H10816   1.998   3.139   7.985
  727TMC3    H110817   1.784   3.387   8.261
  727TMC3    H210818   2.037   3.071   8.409
  727TMC3    C710819   1.832   3.216   8.458
  727TMC3    C810820   2.086   2.971   8.166
  727TMC3    O110821   1.712   3.246   8.448
  727TMC3    O210822   2.160   2.986   8.070
  728TMC3    C110823   1.657   1.005   7.256
  728TMC3    C210824   1.614   0.998   7.131
  728TMC3    C310825   1.686   0.926   7.044
  728TMC3    C410826   1.766   0.932   7.307
  728TMC3    C510827   1.836   0.857   7.221
  728TMC3    C610828   1.799   0.856   7.085
  728TMC3     C10829   1.584   1.090   7.346
  728TMC3     O10830   1.548   1.202   7.311
  728TMC3     H10831   1.514   1.029   7.102
  728TMC3    H110832   1.785   0.928   7.414
  728TMC3    H210833   1.869   0.806   7.019
  728TMC3    C710834   1.886   0.726   7.269
  728TMC3    C810835   1.607   0.854   6.944
  728TMC3    O110836   1.937   0.709   7.377
  728TMC3    O210837   1.486   0.848   6.960
  729TMC3    C110838   0.789   3.515   7.701
  729TMC3    C210839   0.858   3.424   7.622
  729TMC3    C310840   0.985   3.391   7.674
  729TMC3    C410841   0.831   3.561   7.821
  729TMC3    C510842   0.950   3.510   7.873
  729TMC3    C610843   1.031   3.429   7.794
  729TMC3     C10844   0.644   3.506   7.699
  729TMC3     O10845   0.581   3.608   7.713
  729TMC3     H10846   0.824   3.388   7.526
  729TMC3    H110847   0.776   3.640   7.870
  729TMC3    H210848   1.130   3.403   7.831
  729TMC3    C710849   1.023   3.574   7.984
  729TMC3    C810850   1.081   3.325   7.584
  729TMC3    O110851   1.141   3.599   7.964
  729TMC3    O210852   1.174   3.259   7.636
  730TMC3    C110853   1.889   3.751   7.445
  730TMC3    C210854   2.019   3.756   7.402
  730TMC3    C310855   2.035   3.741   7.268
  730TMC3    C410856   1.782   3.739   7.356
  730TMC3    C510857   1.805   3.735   7.220
  730TMC3    C610858   1.937   3.736   7.177
  730TMC3     C10859   1.862   3.730   7.584
  730TMC3     O10860   1.773   3.649   7.611
  730TMC3     H10861   2.104   3.761   7.469
  730TMC3    H110862   1.682   3.724   7.396
  730TMC3    H210863   1.956   3.715   7.072
  730TMC3    C710864   1.713   3.645   7.155
  730TMC3    C810865   2.169   3.701   7.227
  730TMC3    O110866   1.597   3.671   7.137
  730TMC3    O210867   2.213   3.764   7.134
  731TMC3    C110868   1.163   0.984  11.248
  731TMC3    C210869   1.094   0.876  11.296
  731TMC3    C310870   1.175   0.772  11.348
  731TMC3    C410871   1.300   0.999  11.275
  731TMC3    C510872   1.367   0.899  11.332
  731TMC3    C610873   1.311   0.773  11.357
  731TMC3     C10874   1.089   1.083  11.166
  731TMC3     O10875   1.108   1.200  11.198
  731TMC3     H10876   0.987   0.864  11.290
  731TMC3    H110877   1.358   1.080  11.232
  731TMC3    H210878   1.372   0.686  11.381
  731TMC3    C710879   1.514   0.908  11.323
  731TMC3    C810880   1.110   0.645  11.361
  731TMC3    O110881   1.569   1.011  11.356
  731TMC3    O210882   0.997   0.637  11.323
  732TMC3    C110883   1.356   1.037  13.452
  732TMC3    C210884   1.484   0.999  13.473
  732TMC3    C310885   1.512   0.869  13.498
  732TMC3    C410886   1.257   0.945  13.428
  732TMC3    C510887   1.287   0.820  13.473
  732TMC3    C610888   1.409   0.775  13.511
  732TMC3     C10889   1.331   1.172  13.400
  732TMC3     O10890   1.434   1.233  13.378
  732TMC3     H10891   1.555   1.080  13.485
  732TMC3    H110892   1.160   0.967  13.385
  732TMC3    H210893   1.437   0.670  13.518
  732TMC3    C710894   1.174   0.727  13.452
  732TMC3    C810895   1.614   0.852  13.594
  732TMC3    O110896   1.209   0.612  13.420
  732TMC3    O210897   1.577   0.787  13.691
  733TMC3    C110898   4.097   2.459  13.960
  733TMC3    C210899   4.195   2.361  13.967
  733TMC3    C310900   4.147   2.231  13.944
  733TMC3    C410901   3.967   2.434  13.962
  733TMC3    C510902   3.919   2.306  13.954
  733TMC3    C610903   4.012   2.209  13.938
  733TMC3     C10904   4.138   2.598  13.927
  733TMC3     O10905   4.052   2.681  13.917
  733TMC3     H10906   4.297   2.392  13.981
  733TMC3    H110907   3.898   2.514  13.987
  733TMC3    H210908   3.972   2.109  13.925
  733TMC3    C710909   3.785   2.275  13.983
  733TMC3    C810910   4.227   2.113  13.925
  733TMC3    O110911   3.753   2.159  13.974
  733TMC3    O210912   4.172   2.005  13.913
  734TMC3    C110913   3.299   1.551  13.245
  734TMC3    C210914   3.295   1.461  13.138
  734TMC3    C310915   3.187   1.462  13.047
  734TMC3    C410916   3.198   1.643  13.273
  734TMC3    C510917   3.096   1.639  13.177
  734TMC3    C610918   3.084   1.551  13.072
  734TMC3     C10919   3.372   1.510  13.358
  734TMC3     O10920   3.383   1.583  13.454
  734TMC3     H10921   3.378   1.391  13.128
  734TMC3    H110922   3.191   1.709  13.358
  734TMC3    H210923   2.989   1.546  13.021
  734TMC3    C710924   2.992   1.738  13.191
  734TMC3    C810925   3.178   1.352  12.952
  734TMC3    O110926   3.031   1.851  13.186
  734TMC3    O210927   3.274   1.273  12.960
  735TMC3    C110928   1.302   3.903  13.956
  735TMC3    C210929   1.168   3.923  13.988
  735TMC3    C310930   1.109   3.820  14.055
  735TMC3    C410931   1.377   3.795  13.996
  735TMC3    C510932   1.316   3.695  14.065
  735TMC3    C610933   1.178   3.703  14.093
  735TMC3     C10934   1.369   4.014  13.895
  735TMC3     O10935   1.479   4.007  13.841
  735TMC3     H10936   1.105   3.989  13.929
  735TMC3    H110937   1.484   3.799  13.976
  735TMC3    H210938   1.136   3.626  14.156
  735TMC3    C710939   1.396   3.658  14.182
  735TMC3    C810940   1.022   3.849  14.163
  735TMC3    O110941   1.335   3.645  14.289
  735TMC3    O210942   1.053   3.798  14.269
  736TMC3    C110943   4.538   2.513   9.989
  736TMC3    C210944   4.459   2.473  10.102
  736TMC3    C310945   4.429   2.343  10.108
  736TMC3    C410946   4.555   2.431   9.882
  736TMC3    C510947   4.515   2.303   9.893
  736TMC3    C610948   4.451   2.255  10.003
  736TMC3     C10949   4.645   2.603  10.024
  736TMC3     O10950   4.653   2.619  10.143
  736TMC3     H10951   4.454   2.543  10.185
  736TMC3    H110952   4.620   2.456   9.798
  736TMC3    H210953   4.431   2.148  10.000
  736TMC3    C710954   4.486   2.240   9.766
  736TMC3    C810955   4.425   2.282  10.238
  736TMC3    O110956   4.561   2.240   9.671
  736TMC3    O210957   4.442   2.158  10.241
  737TMC3    C110958   4.241   3.728  11.215
  737TMC3    C210959   4.177   3.832  11.154
  737TMC3    C310960   4.177   3.835  11.019
  737TMC3    C410961   4.324   3.646  11.138
  737TMC3    C510962   4.316   3.651  11.001
  737TMC3    C610963   4.241   3.750  10.937
  737TMC3     C10964   4.272   3.732  11.349
  737TMC3     O10965   4.287   3.834  11.412
  737TMC3     H10966   4.119   3.914  11.196
  737TMC3    H110967   4.398   3.576  11.174
  737TMC3    H210968   4.233   3.751  10.829
  737TMC3    C710969   4.388   3.560  10.919
  737TMC3    C810970   4.068   3.908  10.959
  737TMC3    O110971   4.448   3.599  10.823
  737TMC3    O210972   4.016   4.009  11.006
  738TMC3    C110973   2.662   0.741   6.544
  738TMC3    C210974   2.710   0.800   6.658
  738TMC3    C310975   2.851   0.813   6.662
  738TMC3    C410976   2.734   0.697   6.437
  738TMC3    C510977   2.867   0.716   6.439
  738TMC3    C610978   2.928   0.771   6.554
  738TMC3     C10979   2.522   0.709   6.545
  738TMC3     O10980   2.461   0.713   6.437
  738TMC3     H10981   2.648   0.815   6.746
  738TMC3    H110982   2.689   0.630   6.364
  738TMC3    H210983   3.028   0.811   6.542
  738TMC3    C710984   2.959   0.629   6.365
  738TMC3    C810985   2.918   0.868   6.775
  738TMC3    O110986   2.909   0.575   6.267
  738TMC3    O210987   3.036   0.845   6.792
  739TMC3    C110988   2.391   1.108  12.715
  739TMC3    C210989   2.495   1.126  12.795
  739TMC3    C310990   2.575   1.239  12.778
  739TMC3    C410991   2.360   1.205  12.627
  739TMC3    C510992   2.429   1.324  12.623
  739TMC3    C610993   2.538   1.346  12.700
  739TMC3     C10994   2.295   1.006  12.758
  739TMC3     O10995   2.332   0.921  12.839
  739TMC3     H10996   2.528   1.038  12.849
  739TMC3    H110997   2.273   1.198  12.563
  739TMC3    H210998   2.594   1.439  12.704
  739TMC3    C710999   2.430   1.390  12.493
  739TMC3    C811000   2.697   1.252  12.862
  739TMC3    O111001   2.393   1.322  12.394
  739TMC3    O211002   2.721   1.365  12.895
  740TMC3    C111003   1.631   1.179  11.080
  740TMC3    C211004   1.520   1.123  11.028
  740TMC3    C311005   1.537   1.017  10.951
  740TMC3    C411006   1.753   1.117  11.074
  740TMC3    C511007   1.763   1.005  10.991
  740TMC3    C611008   1.654   0.955  10.933
  740TMC3     C11009   1.613   1.286  11.168
  740TMC3     O11010   1.517   1.360  11.144
  740TMC3     H11011   1.420   1.161  11.047
  740TMC3    H111012   1.838   1.180  11.095
  740TMC3    H211013   1.654   0.871  10.864
  740TMC3    C711014   1.871   1.005  10.898
  740TMC3    C811015   1.423   0.935  10.927
  740TMC3    O111016   1.838   1.021  10.779
  740TMC3    O211017   1.418   0.818  10.968
  741TMC3    C111018   4.220   4.524  11.154
  741TMC3    C211019   4.214   4.460  11.279
  741TMC3    C311020   4.180   4.328  11.271
  741TMC3    C411021   4.196   4.468  11.031
  741TMC3    C511022   4.159   4.341  11.033
  741TMC3    C611023   4.145   4.271  11.153
  741TMC3     C11024   4.194   4.667  11.160
  741TMC3     O11025   4.224   4.740  11.065
  741TMC3     H11026   4.239   4.504  11.375
  741TMC3    H111027   4.192   4.524  10.938
  741TMC3    H211028   4.120   4.166  11.156
  741TMC3    C711029   4.113   4.277  10.916
  741TMC3    C811030   4.242   4.238  11.369
  741TMC3    O111031   3.996   4.286  10.900
  741TMC3    O211032   4.185   4.127  11.372
  742TMC3    C111033   4.658   2.575   6.863
  742TMC3    C211034   4.755   2.574   6.767
  742TMC3    C311035   4.764   2.457   6.690
  742TMC3    C411036   4.579   2.465   6.887
  742TMC3    C511037   4.605   2.349   6.825
  742TMC3    C611038   4.695   2.351   6.723
  742TMC3     C11039   4.666   2.674   6.971
  742TMC3     O11040   4.573   2.712   7.040
  742TMC3     H11041   0.025   2.658   6.745
  742TMC3    H111042   4.491   2.472   6.949
  742TMC3    H211043   4.713   2.256   6.674
  742TMC3    C711044   4.547   2.225   6.873
  742TMC3    C811045   0.062   2.449   6.580
  742TMC3    O111046   4.567   2.129   6.799
  742TMC3    O211047   0.042   2.369   6.490
  743TMC3    C111048   0.789   1.838   8.566
  743TMC3    C211049   0.761   1.784   8.690
  743TMC3    C311050   0.677   1.860   8.762
  743TMC3    C411051   0.749   1.955   8.511
  743TMC3    C511052   0.680   2.039   8.598
  743TMC3    C611053   0.638   1.985   8.717
  743TMC3     C11054   0.903   1.776   8.500
  743TMC3     O11055   0.904   1.772   8.377
  743TMC3     H11056   0.796   1.686   8.721
  743TMC3    H111057   0.799   1.997   8.425
  743TMC3    H211058   0.565   2.041   8.774
  743TMC3    C711059   0.742   2.166   8.607
  743TMC3    C811060   0.709   1.849   8.899
  743TMC3    O111061   0.770   2.222   8.504
  743TMC3    O211062   0.729   1.960   8.949
  744TMC3    C111063   0.254   2.959  13.984
  744TMC3    C211064   0.129   2.931  13.929
  744TMC3    C311065   0.059   3.039  13.879
  744TMC3    C411066   0.308   3.085  14.002
  744TMC3    C511067   0.218   3.185  13.984
  744TMC3    C611068   0.099   3.165  13.907
  744TMC3     C11069   0.341   2.845  14.019
  744TMC3     O11070   0.298   2.742  14.059
  744TMC3     H11071   0.088   2.831  13.925
  744TMC3    H111072   0.399   3.104  14.057
  744TMC3    H211073   0.030   3.247  13.893
  744TMC3    C711074   0.233   3.307  14.062
  744TMC3    C811075   4.720   3.022  13.824
  744TMC3    O111076   0.327   3.386  14.042
  744TMC3    O211077   4.660   3.127  13.819
  745TMC3    C111078   3.502   1.871   9.867
  745TMC3    C211079   3.470   1.837   9.993
  745TMC3    C311080   3.400   1.928  10.075
  745TMC3    C411081   3.476   2.000   9.821
  745TMC3    C511082   3.392   2.077   9.898
  745TMC3    C611083   3.345   2.040  10.022
  745TMC3     C11084   3.444   1.783   9.770
  745TMC3     O11085   3.342   1.732   9.811
  745TMC3     H11086   3.493   1.736  10.025
  745TMC3    H111087   3.492   2.033   9.719
  745TMC3    H211088   3.289   2.104  10.090
  745TMC3    C711089   3.339   2.200   9.835
  745TMC3    C811090   3.296   1.859  10.146
  745TMC3    O111091   3.421   2.256   9.761
  745TMC3    O211092   3.253   1.906  10.251
  746TMC3    C111093   0.342   2.929  10.382
  746TMC3    C211094   0.367   2.800  10.411
  746TMC3    C311095   0.400   2.771  10.540
  746TMC3    C411096   0.331   3.026  10.478
  746TMC3    C511097   0.333   2.982  10.607
  746TMC3    C611098   0.372   2.855  10.644
  746TMC3     C11099   0.310   2.969  10.244
  746TMC3     O11100   0.351   3.078  10.198
  746TMC3     H11101   0.386   2.730  10.331
  746TMC3    H111102   0.322   3.131  10.456
  746TMC3    H211103   0.375   2.832  10.749
  746TMC3    C711104   0.381   3.093  10.685
  746TMC3    C811105   0.472   2.650  10.571
  746TMC3    O111106   0.499   3.087  10.708
  746TMC3    O211107   0.553   2.615  10.485
  747TMC3    C111108   1.848   0.151   9.329
  747TMC3    C211109   1.835   0.257   9.416
  747TMC3    C311110   1.718   0.326   9.416
  747TMC3    C411111   1.738   0.104   9.262
  747TMC3    C511112   1.619   0.166   9.274
  747TMC3    C611113   1.603   0.277   9.356
  747TMC3     C11114   1.983   0.097   9.313
  747TMC3     O11115   2.022   0.078   9.198
  747TMC3     H11116   1.931   0.304   9.436
  747TMC3    H111117   1.746   0.010   9.209
  747TMC3    H211118   1.507   0.328   9.366
  747TMC3    C711119   1.502   0.133   9.202
  747TMC3    C811120   1.720   0.472   9.431
  747TMC3    O111121   1.452   0.223   9.137
  747TMC3    O211122   1.656   0.538   9.355
  748TMC3    C111123   3.047   0.507  14.786
  748TMC3    C211124   3.168   0.526  14.853
  748TMC3    C311125   3.163   0.533  14.990
  748TMC3    C411126   2.935   0.508  14.858
  748TMC3    C511127   2.934   0.523  14.998
  748TMC3    C611128   3.053   0.529  15.064
  748TMC3     C11129   3.043   0.544  14.654
  748TMC3     O11130   2.956   0.623  14.622
  748TMC3     H11131   3.259   0.536  14.795
  748TMC3    H111132   2.841   0.504  14.804
  748TMC3    H211133   3.065   0.532  15.171
  748TMC3    C711134   2.831   0.445  15.077
  748TMC3    C811135   3.288   0.535  15.064
  748TMC3    O111136   2.870   0.384  15.175
  748TMC3    O211137   3.286   0.593  15.169
  749TMC3    C111138   2.707   4.124  13.230
  749TMC3    C211139   2.795   4.106  13.120
  749TMC3    C311140   2.873   3.993  13.110
  749TMC3    C411141   2.694   4.018  13.321
  749TMC3    C511142   2.762   3.897  13.289
  749TMC3    C611143   2.852   3.886  13.189
  749TMC3     C11144   2.617   4.240  13.244
  749TMC3     O11145   2.552   4.242  13.346
  749TMC3     H11146   2.795   4.184  13.046
  749TMC3    H111147   2.649   4.030  13.419
  749TMC3    H211148   2.909   3.795  13.173
  749TMC3    C711149   2.779   3.797  13.394
  749TMC3    C811150   2.926   3.957  12.978
  749TMC3    O111151   2.887   3.737  13.399
  749TMC3    O211152   3.015   3.880  12.970
  750TMC3    C111153   1.242   1.022  11.706
  750TMC3    C211154   1.305   0.902  11.708
  750TMC3    C311155   1.442   0.885  11.679
  750TMC3    C411156   1.317   1.131  11.675
  750TMC3    C511157   1.458   1.115  11.646
  750TMC3    C611158   1.518   0.991  11.654
  750TMC3     C11159   1.110   1.039  11.762
  750TMC3     O11160   1.075   0.946  11.840
  750TMC3     H11161   1.245   0.816  11.736
  750TMC3    H111162   1.261   1.222  11.658
  750TMC3    H211163   1.620   0.969  11.625
  750TMC3    C711164   1.548   1.221  11.609
  750TMC3    C811165   1.480   0.746  11.637
  750TMC3    O111166   1.665   1.225  11.645
  750TMC3    O211167   1.395   0.662  11.605
  751TMC3    C111168   2.217   1.397  13.698
  751TMC3    C211169   2.107   1.424  13.620
  751TMC3    C311170   2.117   1.540  13.553
  751TMC3    C411171   2.333   1.464  13.703
  751TMC3    C511172   2.345   1.568  13.612
  751TMC3    C611173   2.234   1.610  13.550
  751TMC3     C11174   2.247   1.255  13.681
  751TMC3     O11175   2.224   1.210  13.571
  751TMC3     H11176   2.024   1.354  13.626
  751TMC3    H111177   2.423   1.430  13.753
  751TMC3    H211178   2.234   1.703  13.494
  751TMC3    C711179   2.472   1.583  13.540
  751TMC3    C811180   2.067   1.515  13.423
  751TMC3    O111181   2.558   1.498  13.560
  751TMC3    O211182   2.022   1.615  13.375
  752TMC3    C111183   3.663   1.648   8.788
  752TMC3    C211184   3.796   1.678   8.800
  752TMC3    C311185   3.859   1.657   8.920
  752TMC3    C411186   3.614   1.553   8.879
  752TMC3    C511187   3.680   1.528   8.997
  752TMC3    C611188   3.801   1.587   9.026
  752TMC3     C11189   3.600   1.772   8.825
  752TMC3     O11190   3.667   1.875   8.819
  752TMC3     H11191   3.828   1.753   8.729
  752TMC3    H111192   3.535   1.484   8.850
  752TMC3    H211193   3.856   1.570   9.118
  752TMC3    C711194   3.591   1.487   9.104
  752TMC3    C811195   3.971   1.730   8.954
  752TMC3    O111196   3.514   1.397   9.076
  752TMC3    O211197   3.994   1.750   9.073
  753TMC3    C111198   2.182   4.765   7.711
  753TMC3    C211199   2.224   4.766   7.578
  753TMC3    C311200   2.258   4.644   7.531
  753TMC3    C411201   2.189   4.658   7.795
  753TMC3    C511202   2.239   4.545   7.741
  753TMC3    C611203   2.273   4.534   7.610
  753TMC3     C11204   2.152   0.101   7.774
  753TMC3     O11205   2.078   0.088   7.869
  753TMC3     H11206   2.233   0.060   7.515
  753TMC3    H111207   2.175   4.652   7.903
  753TMC3    H211208   2.316   4.446   7.563
  753TMC3    C711209   2.307   4.456   7.833
  753TMC3    C811210   2.284   4.633   7.388
  753TMC3    O111211   2.262   4.439   7.947
  753TMC3    O211212   2.232   4.718   7.323
  754TMC3    C111213   3.741   0.233  11.732
  754TMC3    C211214   3.644   0.300  11.666
  754TMC3    C311215   3.521   0.321  11.721
  754TMC3    C411216   3.717   0.190  11.857
  754TMC3    C511217   3.594   0.207  11.920
  754TMC3    C611218   3.501   0.278  11.855
  754TMC3     C11219   3.885   0.248  11.704
  754TMC3     O11220   3.953   0.158  11.754
  754TMC3     H11221   3.662   0.332  11.564
  754TMC3    H111222   3.798   0.167  11.926
  754TMC3    H211223   3.409   0.315  11.898
  754TMC3    C711224   3.586   0.208  12.067
  754TMC3    C811225   3.458   0.445  11.681
  754TMC3    O111226   3.620   0.107  12.130
  754TMC3    O211227   3.516   0.511  11.596
  755TMC3    C111228   3.478   3.222   9.396
  755TMC3    C211229   3.357   3.260   9.345
  755TMC3    C311230   3.350   3.329   9.227
  755TMC3    C411231   3.592   3.238   9.327
  755TMC3    C511232   3.586   3.305   9.203
  755TMC3    C611233   3.465   3.355   9.155
  755TMC3     C11234   3.484   3.157   9.525
  755TMC3     O11235   3.378   3.149   9.582
  755TMC3     H11236   3.264   3.238   9.396
  755TMC3    H111237   3.686   3.218   9.376
  755TMC3    H211238   3.464   3.398   9.055
  755TMC3    C711239   3.702   3.335   9.124
  755TMC3    C811240   3.221   3.314   9.167
  755TMC3    O111241   3.697   3.410   9.031
  755TMC3    O211242   3.127   3.263   9.229
  756TMC3    C111243   1.283   3.046  12.188
  756TMC3    C211244   1.380   3.068  12.286
  756TMC3    C311245   1.478   2.980  12.301
  756TMC3    C411246   1.293   2.944  12.101
  756TMC3    C511247   1.407   2.868  12.109
  756TMC3    C611248   1.504   2.886  12.205
  756TMC3     C11249   1.153   3.099  12.196
  756TMC3     O11250   1.093   3.120  12.093
  756TMC3     H11251   1.376   3.141  12.366
  756TMC3    H111252   1.223   2.921  12.022
  756TMC3    H211253   1.586   2.817  12.220
  756TMC3    C711254   1.424   2.751  12.024
  756TMC3    C811255   1.602   3.023  12.358
  756TMC3    O111256   1.520   2.777  11.958
  756TMC3    O211257   1.619   3.025  12.478
  757TMC3    C111258   4.144   3.675  11.877
  757TMC3    C211259   4.218   3.786  11.894
  757TMC3    C311260   4.346   3.761  11.924
  757TMC3    C411261   4.197   3.553  11.882
  757TMC3    C511262   4.328   3.525  11.908
  757TMC3    C611263   4.410   3.638  11.931
  757TMC3     C11264   4.009   3.701  11.845
  757TMC3     O11265   3.954   3.795  11.896
  757TMC3     H11266   4.175   3.886  11.897
  757TMC3    H111267   4.127   3.471  11.874
  757TMC3    H211268   4.514   3.634  11.961
  757TMC3    C711269   4.372   3.384  11.890
  757TMC3    C811270   4.438   3.867  11.881
  757TMC3    O111271   4.299   3.310  11.822
  757TMC3    O211272   4.538   3.892  11.947
  758TMC3    C111273   1.943   4.696  12.711
  758TMC3    C211274   2.013   4.652  12.602
  758TMC3    C311275   2.024   4.735  12.498
  758TMC3    C411276   1.895   0.030  12.731
  758TMC3    C511277   1.889   0.098  12.611
  758TMC3    C611278   1.958   0.063  12.501
  758TMC3     C11279   1.893   4.604  12.808
  758TMC3     O11280   1.810   4.648  12.888
  758TMC3     H11281   2.047   4.550  12.587
  758TMC3    H111282   1.847   0.065  12.822
  758TMC3    H211283   1.947   0.129  12.416
  758TMC3    C711284   1.858   0.236  12.619
  758TMC3    C811285   2.059   4.672  12.369
  758TMC3    O111286   1.940   0.313  12.561
  758TMC3    O211287   2.142   4.582  12.377
  759TMC3    C111288   2.863   3.155  12.833
  759TMC3    C211289   2.800   3.112  12.718
  759TMC3    C311290   2.870   3.067  12.611
  759TMC3    C411291   3.002   3.143  12.838
  759TMC3    C511292   3.073   3.085  12.733
  759TMC3    C611293   3.006   3.049  12.619
  759TMC3     C11294   2.811   3.267  12.898
  759TMC3     O11295   2.893   3.353  12.925
  759TMC3     H11296   2.698   3.140  12.697
  759TMC3    H111297   3.056   3.175  12.926
  759TMC3    H211298   3.052   3.019  12.526
  759TMC3    C711299   3.211   3.034  12.751
  759TMC3    C811300   2.801   2.972  12.524
  759TMC3    O111301   3.285   3.079  12.838
  759TMC3    O211302   2.855   2.947  12.416
  760TMC3    C111303   2.506   4.696   8.184
  760TMC3    C211304   2.513   4.717   8.050
  760TMC3    C311305   2.572   0.039   8.002
  760TMC3    C411306   2.565   4.786   8.263
  760TMC3    C511307   2.604   0.114   8.219
  760TMC3    C611308   2.609   0.143   8.084
  760TMC3     C11309   2.464   4.566   8.241
  760TMC3     O11310   2.529   4.519   8.334
  760TMC3     H11311   2.493   4.644   7.972
  760TMC3    H111312   2.574   4.759   8.368
  760TMC3    H211313   2.655   0.237   8.055
  760TMC3    C711314   2.725   0.169   8.285
  760TMC3    C811315   2.596   0.039   7.852
  760TMC3    O111316   2.809   0.101   8.347
  760TMC3    O211317   2.502   0.014   7.779
  761TMC3    C111318   4.757   4.617  13.571
  761TMC3    C211319   4.717   4.529  13.669
  761TMC3    C311320   4.771   4.403  13.663
  761TMC3    C411321   0.038   4.581  13.461
  761TMC3    C511322   0.082   4.451  13.463
  761TMC3    C611323   0.062   4.363  13.562
  761TMC3     C11324   4.698   4.751  13.583
  761TMC3     O11325   4.605   4.759  13.661
  761TMC3     H11326   4.645   4.559  13.744
  761TMC3    H111327   0.058   4.643  13.375
  761TMC3    H211328   0.107   4.265  13.564
  761TMC3    C711329   0.135   4.386  13.346
  761TMC3    C811330   4.705   4.292  13.735
  761TMC3    O111331   0.131   4.263  13.341
  761TMC3    O211332   4.699   4.178  13.687
  762TMC3    C111333   2.090   3.436  10.362
  762TMC3    C211334   1.959   3.452  10.380
  762TMC3    C311335   1.875   3.408  10.282
  762TMC3    C411336   2.134   3.381  10.244
  762TMC3    C511337   2.049   3.362  10.148
  762TMC3    C611338   1.916   3.374  10.163
  762TMC3     C11339   2.160   3.383  10.475
  762TMC3     O11340   2.276   3.419  10.492
  762TMC3     H11341   1.918   3.485  10.475
  762TMC3    H111342   2.240   3.357  10.238
  762TMC3    H211343   1.842   3.340  10.091
  762TMC3    C711344   2.097   3.294  10.029
  762TMC3    C811345   1.797   3.311  10.343
  762TMC3    O111346   2.021   3.213   9.973
  762TMC3    O211347   1.853   3.211  10.367
  763TMC3    C111348   3.273   1.441  15.212
  763TMC3    C211349   3.149   1.393  15.244
  763TMC3    C311350   3.093   1.294  15.169
  763TMC3    C411351   3.350   1.372  15.115
  763TMC3    C511352   3.286   1.278  15.041
  763TMC3    C611353   3.159   1.243  15.061
  763TMC3     C11354   3.266   1.583  15.183
  763TMC3     O11355   3.180   1.645  15.242
  763TMC3     H11356   3.088   1.440  15.320
  763TMC3    H111357   3.458   1.383  15.105
  763TMC3    H211358   3.117   1.175  14.988
  763TMC3    C711359   3.318   1.294  14.904
  763TMC3    C811360   2.953   1.289  15.155
  763TMC3    O111361   3.223   1.297  14.828
  763TMC3    O211362   2.913   1.292  15.041
  764TMC3    C111363   0.199   3.854   9.052
  764TMC3    C211364   0.117   3.757   9.000
  764TMC3    C311365   0.115   3.731   8.866
  764TMC3    C411366   0.285   3.927   8.974
  764TMC3    C511367   0.293   3.881   8.845
  764TMC3    C611368   0.212   3.787   8.791
  764TMC3     C11369   0.187   3.881   9.195
  764TMC3     O11370   0.076   3.886   9.243
  764TMC3     H11371   0.035   3.713   9.056
  764TMC3    H111372   0.366   3.986   9.014
  764TMC3    H211373   0.229   3.753   8.689
  764TMC3    C711374   0.378   3.952   8.754
  764TMC3    C811375   4.786   3.718   8.789
  764TMC3    O111376   0.404   3.898   8.647
  764TMC3    O211377   4.747   3.826   8.746
  765TMC3    C111378   3.221   3.545  12.766
  765TMC3    C211379   3.302   3.626  12.693
  765TMC3    C311380   3.257   3.684  12.579
  765TMC3    C411381   3.087   3.524  12.727
  765TMC3    C511382   3.052   3.572  12.606
  765TMC3    C611383   3.135   3.643  12.525
  765TMC3     C11384   3.271   3.429  12.825
  765TMC3     O11385   3.243   3.416  12.948
  765TMC3     H11386   3.402   3.649  12.726
  765TMC3    H111387   3.019   3.447  12.761
  765TMC3    H211388   3.093   3.696  12.441
  765TMC3    C711389   2.926   3.529  12.545
  765TMC3    C811390   3.269   3.827  12.599
  765TMC3    O111391   2.941   3.488  12.430
  765TMC3    O211392   3.315   3.867  12.708
  766TMC3    C111393   0.665   3.821  12.916
  766TMC3    C211394   0.579   3.913  12.966
  766TMC3    C311395   0.599   3.946  13.095
  766TMC3    C411396   0.768   3.774  12.993
  766TMC3    C511397   0.789   3.816  13.123
  766TMC3    C611398   0.702   3.910  13.174
  766TMC3     C11399   0.658   3.791  12.774
  766TMC3     O11400   0.551   3.818  12.715
  766TMC3     H11401   0.490   3.947  12.914
  766TMC3    H111402   0.841   3.707  12.949
  766TMC3    H211403   0.717   3.951  13.273
  766TMC3    C711404   0.925   3.792  13.185
  766TMC3    C811405   0.515   4.060  13.142
  766TMC3    O111406   0.994   3.721  13.114
  766TMC3    O211407   0.484   4.069  13.260
  767TMC3    C111408   4.374   2.975   9.351
  767TMC3    C211409   4.490   2.960   9.277
  767TMC3    C311410   4.578   2.865   9.321
  767TMC3    C411411   4.357   2.923   9.476
  767TMC3    C511412   4.462   2.851   9.528
  767TMC3    C611413   4.575   2.819   9.450
  767TMC3     C11414   4.252   3.016   9.286
  767TMC3     O11415   4.145   2.975   9.331
  767TMC3     H11416   4.497   3.015   9.184
  767TMC3    H111417   4.260   2.915   9.523
  767TMC3    H211418   4.652   2.752   9.487
  767TMC3    C711419   4.446   2.799   9.665
  767TMC3    C811420   4.690   2.823   9.236
  767TMC3    O111421   4.481   2.685   9.694
  767TMC3    O211422   4.763   2.739   9.283
  768TMC3    C111423   2.509   0.472   7.245
  768TMC3    C211424   2.467   0.378   7.155
  768TMC3    C311425   2.354   0.417   7.084
  768TMC3    C411426   2.452   0.593   7.258
  768TMC3    C511427   2.341   0.621   7.189
  768TMC3    C611428   2.286   0.530   7.104
  768TMC3     C11429   2.622   0.445   7.325
  768TMC3     O11430   2.720   0.518   7.302
  768TMC3     H11431   2.523   0.286   7.144
  768TMC3    H111432   2.505   0.665   7.320
  768TMC3    H211433   2.192   0.554   7.056
  768TMC3    C711434   2.270   0.755   7.200
  768TMC3    C811435   2.285   0.304   7.028
  768TMC3    O111436   2.220   0.801   7.103
  768TMC3    O211437   2.289   0.193   7.077
  769TMC3    C111438   2.585   1.653  14.015
  769TMC3    C211439   2.477   1.600  14.081
  769TMC3    C311440   2.473   1.463  14.090
  769TMC3    C411441   2.679   1.576  13.948
  769TMC3    C511442   2.660   1.437  13.948
  769TMC3    C611443   2.553   1.380  14.011
  769TMC3     C11444   2.586   1.801  14.009
  769TMC3     O11445   2.514   1.865  14.091
  769TMC3     H11446   2.418   1.675  14.134
  769TMC3    H111447   2.766   1.618  13.898
  769TMC3    H211448   2.529   1.276  13.994
  769TMC3    C711449   2.730   1.367  13.847
  769TMC3    C811450   2.356   1.397  14.133
  769TMC3    O111451   2.787   1.423  13.758
  769TMC3    O211452   2.378   1.278  14.168
  770TMC3    C111453   3.016   0.057  15.041
  770TMC3    C211454   2.896   0.054  15.112
  770TMC3    C311455   2.780   0.051  15.042
  770TMC3    C411456   3.027   0.071  14.906
  770TMC3    C511457   2.905   0.074  14.840
  770TMC3    C611458   2.782   0.054  14.903
  770TMC3     C11459   3.135   0.079  15.116
  770TMC3     O11460   3.242   0.052  15.063
  770TMC3     H11461   2.896   0.033  15.218
  770TMC3    H111462   3.118   0.097  14.854
  770TMC3    H211463   2.696   0.033  14.841
  770TMC3    C711464   2.891   0.112  14.692
  770TMC3    C811465   2.659   4.774  15.104
  770TMC3    O111466   2.782   0.149  14.658
  770TMC3    O211467   2.563   4.747  15.034
  771TMC3    C111468   0.270   3.651  12.791
  771TMC3    C211469   0.220   3.766  12.741
  771TMC3    C311470   0.205   3.774  12.609
  771TMC3    C411471   0.287   3.529  12.719
  771TMC3    C511472   0.243   3.540  12.586
  771TMC3    C611473   0.207   3.661  12.533
  771TMC3     C11474   0.289   3.659  12.935
  771TMC3     O11475   0.340   3.759  12.989
  771TMC3     H11476   0.195   3.848  12.807
  771TMC3    H111477   0.332   3.440  12.762
  771TMC3    H211478   0.201   3.666  12.425
  771TMC3    C711479   0.289   3.441  12.491
  771TMC3    C811480   0.129   3.885  12.547
  771TMC3    O111481   0.396   3.395  12.511
  771TMC3    O211482   0.157   3.902  12.430
  772TMC3    C111483   0.759   2.065  10.206
  772TMC3    C211484   0.671   2.100  10.112
  772TMC3    C311485   0.537   2.118  10.148
  772TMC3    C411486   0.723   2.037  10.336
  772TMC3    C511487   0.585   2.037  10.362
  772TMC3    C611488   0.490   2.077  10.266
  772TMC3     C11489   0.900   2.099  10.192
  772TMC3     O11490   0.974   2.080  10.290
  772TMC3     H11491   0.695   2.134  10.012
  772TMC3    H111492   0.796   2.011  10.412
  772TMC3    H211493   0.385   2.097  10.285
  772TMC3    C711494   0.538   1.925  10.449
  772TMC3    C811495   0.438   2.151  10.042
  772TMC3    O111496   0.631   1.865  10.508
  772TMC3    O211497   0.326   2.103  10.059
  773TMC3    C111498   4.474   0.823   8.294
  773TMC3    C211499   4.578   0.900   8.236
  773TMC3    C311500   4.672   0.948   8.318
  773TMC3    C411501   4.462   0.816   8.426
  773TMC3    C511502   4.554   0.873   8.504
  773TMC3    C611503   4.666   0.932   8.451
  773TMC3     C11504   4.358   0.787   8.213
  773TMC3     O11505   4.253   0.775   8.278
  773TMC3     H11506   4.594   0.906   8.129
  773TMC3    H111507   4.373   0.773   8.471
  773TMC3    H211508   4.745   0.964   8.520
  773TMC3    C711509   4.505   0.921   8.633
  773TMC3    C811510   4.791   1.017   8.258
  773TMC3    O111511   4.387   0.956   8.635
  773TMC3    O211512   4.768   1.083   8.160
  774TMC3    C111513   1.327   0.815  14.476
  774TMC3    C211514   1.438   0.855  14.405
  774TMC3    C311515   1.547   0.885  14.471
  774TMC3    C411516   1.328   0.787  14.612
  774TMC3    C511517   1.446   0.810  14.669
  774TMC3    C611518   1.557   0.863  14.605
  774TMC3     C11519   1.213   0.765  14.398
  774TMC3     O11520   1.236   0.756  14.278
  774TMC3     H11521   1.424   0.884  14.301
  774TMC3    H111522   1.254   0.726  14.664
  774TMC3    H211523   1.644   0.891  14.664
  774TMC3    C711524   1.437   0.847  14.812
  774TMC3    C811525   1.632   0.992  14.415
  774TMC3    O111526   1.531   0.901  14.866
  774TMC3    O211527   1.580   1.080  14.342
  775TMC3    C111528   2.235   1.786  12.776
  775TMC3    C211529   2.123   1.752  12.704
  775TMC3    C311530   2.090   1.826  12.586
  775TMC3    C411531   2.313   1.885  12.731
  775TMC3    C511532   2.277   1.958  12.616
  775TMC3    C611533   2.161   1.943  12.547
  775TMC3     C11534   2.303   1.676  12.842
  775TMC3     O11535   2.414   1.643  12.797
  775TMC3     H11536   2.068   1.663  12.733
  775TMC3    H111537   2.416   1.893  12.766
  775TMC3    H211538   2.135   1.998  12.457
  775TMC3    C711539   2.376   2.045  12.543
  775TMC3    C811540   1.954   1.804  12.540
  775TMC3    O111541   2.386   2.158  12.592
  775TMC3    O211542   1.904   1.906  12.493
  776TMC3    C111543   2.628   0.198  10.903
  776TMC3    C211544   2.522   0.276  10.859
  776TMC3    C311545   2.548   0.408  10.826
  776TMC3    C411546   2.746   0.264  10.937
  776TMC3    C511547   2.769   0.392  10.906
  776TMC3    C611548   2.668   0.469  10.855
  776TMC3     C11549   2.651   0.074  10.827
  776TMC3     O11550   2.762   0.068  10.777
  776TMC3     H11551   2.432   0.235  10.815
  776TMC3    H111552   2.829   0.200  10.964
  776TMC3    H211553   2.685   0.575  10.839
  776TMC3    C711554   2.894   0.425  10.855
  776TMC3    C811555   2.430   0.489  10.804
  776TMC3    O111556   2.893   0.455  10.737
  776TMC3    O211557   2.324   0.437  10.839
  777TMC3    C111558   0.845   3.396   7.014
  777TMC3    C211559   0.805   3.528   7.017
  777TMC3    C311560   0.727   3.564   7.123
  777TMC3    C411561   0.795   3.298   7.094
  777TMC3    C511562   0.706   3.338   7.191
  777TMC3    C611563   0.665   3.468   7.199
  777TMC3     C11564   0.962   3.375   6.928
  777TMC3     O11565   0.943   3.410   6.814
  777TMC3     H11566   0.848   3.609   6.959
  777TMC3    H111567   0.847   3.202   7.094
  777TMC3    H211568   0.603   3.501   7.282
  777TMC3    C711569   0.662   3.243   7.286
  777TMC3    C811570   0.686   3.700   7.136
  777TMC3    O111571   0.656   3.279   7.405
  777TMC3    O211572   0.626   3.750   7.043
  778TMC3    C111573   2.897   4.224   8.580
  778TMC3    C211574   2.889   4.242   8.447
  778TMC3    C311575   2.762   4.244   8.394
  778TMC3    C411576   2.800   4.223   8.669
  778TMC3    C511577   2.673   4.244   8.622
  778TMC3    C611578   2.653   4.250   8.482
  778TMC3     C11579   3.019   4.272   8.631
  778TMC3     O11580   3.083   4.206   8.715
  778TMC3     H11581   2.977   4.207   8.393
  778TMC3    H111582   2.822   4.226   8.775
  778TMC3    H211583   2.558   4.251   8.430
  778TMC3    C711584   2.565   4.288   8.708
  778TMC3    C811585   2.750   4.206   8.252
  778TMC3    O111586   2.581   4.259   8.827
  778TMC3    O211587   2.844   4.137   8.214
  779TMC3    C111588   1.830   1.719  11.971
  779TMC3    C211589   1.716   1.801  11.979
  779TMC3    C311590   1.618   1.771  12.070
  779TMC3    C411591   1.855   1.633  12.071
  779TMC3    C511592   1.762   1.606  12.171
  779TMC3    C611593   1.634   1.657  12.145
  779TMC3     C11594   1.807   1.634  11.855
  779TMC3     O11595   1.825   1.515  11.868
  779TMC3     H11596   1.734   1.905  11.954
  779TMC3    H111597   1.953   1.588  12.073
  779TMC3    H211598   1.564   1.639  12.225
  779TMC3    C711599   1.772   1.471  12.213
  779TMC3    C811600   1.485   1.789  12.024
  779TMC3    O111601   1.882   1.418  12.196
  779TMC3    O211602   1.404   1.708  12.073
  780TMC3    C111603   3.288   1.093   9.692
  780TMC3    C211604   3.227   0.975   9.724
  780TMC3    C311605   3.104   0.979   9.783
  780TMC3    C411606   3.219   1.215   9.699
  780TMC3    C511607   3.103   1.216   9.770
  780TMC3    C611608   3.050   1.100   9.821
  780TMC3     C11609   3.401   1.107   9.604
  780TMC3     O11610   3.386   1.184   9.508
  780TMC3     H11611   3.278   0.880   9.715
  780TMC3    H111612   3.260   1.299   9.645
  780TMC3    H211613   2.960   1.104   9.880
  780TMC3    C711614   3.083   1.346   9.833
  780TMC3    C811615   3.035   0.852   9.769
  780TMC3    O111616   3.106   1.440   9.760
  780TMC3    O211617   3.101   0.762   9.719
  781TMC3    C111618   1.073   0.017  13.938
  781TMC3    C211619   1.132   0.136  13.970
  781TMC3    C311620   1.113   0.187  14.095
  781TMC3    C411621   0.995   4.745  14.031
  781TMC3    C511622   0.982   0.003  14.159
  781TMC3    C611623   1.044   0.122  14.192
  781TMC3     C11624   1.158   4.719  13.854
  781TMC3     O11625   1.240   4.773  13.780
  781TMC3     H11626   1.186   0.193  13.895
  781TMC3    H111627   0.939   4.656  14.005
  781TMC3    H211628   1.016   0.176  14.282
  781TMC3    C711629   0.979   4.696  14.263
  781TMC3    C811630   1.195   0.301  14.135
  781TMC3    O111631   1.034   4.594  14.243
  781TMC3    O211632   1.222   0.384  14.049
  782TMC3    C111633   0.493   2.941   9.052
  782TMC3    C211634   0.419   3.053   9.065
  782TMC3    C311635   0.476   3.176   9.084
  782TMC3    C411636   0.630   2.956   9.052
  782TMC3    C511637   0.683   3.083   9.063
  782TMC3    C611638   0.608   3.200   9.081
  782TMC3     C11639   0.430   2.810   9.071
  782TMC3     O11640   0.404   2.779   9.191
  782TMC3     H11641   0.312   3.038   9.076
  782TMC3    H111642   0.687   2.864   9.046
  782TMC3    H211643   0.642   3.302   9.084
  782TMC3    C711644   0.822   3.099   9.094
  782TMC3    C811645   0.395   3.285   9.138
  782TMC3    O111646   0.852   3.186   9.173
  782TMC3    O211647   0.401   3.385   9.067
  783TMC3    C111648   1.909   2.197   9.656
  783TMC3    C211649   1.814   2.117   9.595
  783TMC3    C311650   1.860   1.993   9.559
  783TMC3    C411651   2.023   2.145   9.695
  783TMC3    C511652   2.049   2.010   9.679
  783TMC3    C611653   1.979   1.941   9.596
  783TMC3     C11654   1.855   2.309   9.736
  783TMC3     O11655   1.731   2.314   9.753
  783TMC3     H11656   1.714   2.156   9.580
  783TMC3    H111657   2.083   2.208   9.760
  783TMC3    H211658   1.997   1.838   9.566
  783TMC3    C711659   2.064   1.942   9.811
  783TMC3    C811660   1.748   1.898   9.555
  783TMC3    O111661   2.051   2.014   9.906
  783TMC3    O211662   1.761   1.787   9.611
  784TMC3    C111663   1.666   4.239  12.647
  784TMC3    C211664   1.662   4.339  12.559
  784TMC3    C311665   1.550   4.419  12.554
  784TMC3    C411666   1.561   4.220  12.736
  784TMC3    C511667   1.438   4.273  12.708
  784TMC3    C611668   1.432   4.377  12.619
  784TMC3     C11669   1.736   4.115  12.626
  784TMC3     O11670   1.722   4.022  12.705
  784TMC3     H11671   1.753   4.389  12.526
  784TMC3    H111672   1.565   4.138  12.808
  784TMC3    H211673   1.340   4.431  12.599
  784TMC3    C711674   1.338   4.279  12.805
  784TMC3    C811675   1.566   4.568  12.548
  784TMC3    O111676   1.277   4.387  12.805
  784TMC3    O211677   1.682   4.596  12.518
  785TMC3    C111678   2.214   2.421  13.301
  785TMC3    C211679   2.263   2.311  13.237
  785TMC3    C311680   2.278   2.199  13.312
  785TMC3    C411681   2.165   2.412  13.429
  785TMC3    C511682   2.183   2.292  13.496
  785TMC3    C611683   2.256   2.188  13.442
  785TMC3     C11684   2.190   2.541  13.225
  785TMC3     O11685   2.170   2.532  13.105
  785TMC3     H11686   2.300   2.315  13.135
  785TMC3    H111687   2.091   2.484  13.463
  785TMC3    H211688   2.286   2.107  13.508
  785TMC3    C711689   2.078   2.257  13.586
  785TMC3    C811690   2.237   2.069  13.260
  785TMC3    O111691   2.023   2.336  13.657
  785TMC3    O211692   2.223   1.986  13.349
  786TMC3    C111693   2.988   3.374   7.739
  786TMC3    C211694   2.906   3.284   7.684
  786TMC3    C311695   2.902   3.276   7.549
  786TMC3    C411696   3.056   3.467   7.667
  786TMC3    C511697   3.047   3.464   7.530
  786TMC3    C611698   2.970   3.367   7.468
  786TMC3     C11699   3.025   3.328   7.873
  786TMC3     O11700   2.949   3.245   7.922
  786TMC3     H11701   2.840   3.223   7.745
  786TMC3    H111702   3.137   3.521   7.715
  786TMC3    H211703   2.959   3.358   7.361
  786TMC3    C711704   3.174   3.494   7.466
  786TMC3    C811705   2.819   3.161   7.498
  786TMC3    O111706   3.241   3.397   7.425
  786TMC3    O211707   2.743   3.177   7.401
  787TMC3    C111708   2.936   0.034  13.427
  787TMC3    C211709   2.914   4.786  13.554
  787TMC3    C311710   3.001   0.028  13.653
  787TMC3    C411711   3.055   0.099  13.396
  787TMC3    C511712   3.140   0.140  13.497
  787TMC3    C611713   3.117   0.100  13.629
  787TMC3     C11714   2.855   4.767  13.326
  787TMC3     O11715   2.912   4.730  13.229
  787TMC3     H11716   2.832   4.719  13.577
  787TMC3    H111717   3.081   0.129  13.295
  787TMC3    H211718   3.187   0.131  13.706
  787TMC3    C711719   3.256   0.230  13.465
  787TMC3    C811720   2.956   4.791  13.787
  787TMC3    O111721   3.314   0.203  13.362
  787TMC3    O211722   3.044   4.773  13.871
  788TMC3    C111723   1.634   1.946  11.132
  788TMC3    C211724   1.540   1.960  11.037
  788TMC3    C311725   1.418   2.016  11.076
  788TMC3    C411726   1.606   1.985  11.263
  788TMC3    C511727   1.491   2.040  11.296
  788TMC3    C611728   1.395   2.053  11.203
  788TMC3     C11729   1.679   1.808  11.132
  788TMC3     O11730   1.621   1.729  11.063
  788TMC3     H11731   1.566   1.917  10.941
  788TMC3    H111732   1.684   1.973  11.337
  788TMC3    H211733   1.311   2.108  11.242
  788TMC3    C711734   1.460   2.053  11.437
  788TMC3    C811735   1.339   2.082  10.979
  788TMC3    O111736   1.550   2.088  11.507
  788TMC3    O211737   1.222   2.116  11.003
  789TMC3    C111738   3.735   1.573  11.417
  789TMC3    C211739   3.808   1.485  11.342
  789TMC3    C311740   3.864   1.378  11.403
  789TMC3    C411741   3.736   1.568  11.553
  789TMC3    C511742   3.815   1.470  11.612
  789TMC3    C611743   3.862   1.363  11.538
  789TMC3     C11744   3.623   1.638  11.350
  789TMC3     O11745   3.551   1.576  11.276
  789TMC3     H11746   3.806   1.506  11.236
  789TMC3    H111747   3.681   1.646  11.606
  789TMC3    H211748   3.914   1.279  11.583
  789TMC3    C711749   3.825   1.469  11.752
  789TMC3    C811750   3.968   1.305  11.339
  789TMC3    O111751   3.824   1.360  11.805
  789TMC3    O211752   4.010   1.206  11.398
  790TMC3    C111753   0.797   2.840   6.691
  790TMC3    C211754   0.825   2.779   6.805
  790TMC3    C311755   0.926   2.834   6.877
  790TMC3    C411756   0.864   2.949   6.645
  790TMC3    C511757   0.969   2.998   6.721
  790TMC3    C611758   1.006   2.941   6.844
  790TMC3     C11759   0.722   2.758   6.589
  790TMC3     O11760   0.753   2.774   6.473
  790TMC3     H11761   0.776   2.689   6.838
  790TMC3    H111762   0.816   3.010   6.569
  790TMC3    H211763   1.088   2.980   6.903
  790TMC3    C711764   1.057   3.099   6.673
  790TMC3    C811765   0.949   2.779   7.008
  790TMC3    O111766   1.128   3.157   6.757
  790TMC3    O211767   0.920   2.659   7.027
  791TMC3    C111768   2.319   3.971   7.408
  791TMC3    C211769   2.358   4.059   7.305
  791TMC3    C311770   2.490   4.059   7.266
  791TMC3    C411771   2.404   3.885   7.468
  791TMC3    C511772   2.535   3.889   7.426
  791TMC3    C611773   2.575   3.966   7.323
  791TMC3     C11774   2.220   4.026   7.498
  791TMC3     O11775   2.192   3.953   7.594
  791TMC3     H11776   2.293   4.114   7.238
  791TMC3    H111777   2.368   3.818   7.546
  791TMC3    H211778   2.682   3.967   7.309
  791TMC3    C711779   2.635   3.824   7.511
  791TMC3    C811780   2.528   4.062   7.126
  791TMC3    O111781   2.749   3.863   7.502
  791TMC3    O211782   2.592   3.961   7.091
  792TMC3    C111783   1.584   2.850  11.594
  792TMC3    C211784   1.578   2.966  11.665
  792TMC3    C311785   1.465   3.038  11.653
  792TMC3    C411786   1.479   2.804  11.525
  792TMC3    C511787   1.362   2.871  11.519
  792TMC3    C611788   1.357   2.994  11.578
  792TMC3     C11789   1.695   2.762  11.619
  792TMC3     O11790   1.727   2.688  11.526
  792TMC3     H11791   1.661   2.995  11.729
  792TMC3    H111792   1.490   2.706  11.480
  792TMC3    H211793   1.268   3.056  11.582
  792TMC3    C711794   1.245   2.799  11.496
  792TMC3    C811795   1.457   3.176  11.697
  792TMC3    O111796   1.253   2.691  11.442
  792TMC3    O211797   1.382   3.256  11.642
  793TMC3    C111798   3.645   3.383  13.182
  793TMC3    C211799   3.728   3.275  13.168
  793TMC3    C311800   3.781   3.225  13.282
  793TMC3    C411801   3.614   3.439  13.302
  793TMC3    C511802   3.663   3.373  13.415
  793TMC3    C611803   3.751   3.269  13.405
  793TMC3     C11804   3.627   3.456  13.052
  793TMC3     O11805   3.651   3.395  12.950
  793TMC3     H11806   3.755   3.236  13.070
  793TMC3    H111807   3.548   3.524  13.317
  793TMC3    H211808   3.807   3.237  13.492
  793TMC3    C711809   3.670   3.457  13.535
  793TMC3    C811810   3.895   3.138  13.255
  793TMC3    O111811   3.680   3.575  13.511
  793TMC3    O211812   3.968   3.183  13.169
  794TMC3    C111813   4.116   2.063   7.757
  794TMC3    C211814   4.173   2.028   7.877
  794TMC3    C311815   4.308   1.992   7.880
  794TMC3    C411816   4.187   2.040   7.639
  794TMC3    C511817   4.322   1.998   7.649
  794TMC3    C611818   4.384   1.972   7.769
  794TMC3     C11819   3.977   2.103   7.741
  794TMC3     O11820   3.921   2.037   7.658
  794TMC3     H11821   4.118   2.044   7.969
  794TMC3    H111822   4.135   2.078   7.551
  794TMC3    H211823   4.479   1.921   7.777
  794TMC3    C711824   4.399   1.976   7.530
  794TMC3    C811825   4.383   2.027   7.999
  794TMC3    O111826   4.486   1.888   7.535
  794TMC3    O211827   4.322   1.996   8.105
  795TMC3    C111828   4.260   3.055  11.423
  795TMC3    C211829   4.269   2.999  11.300
  795TMC3    C311830   4.387   3.013  11.232
  795TMC3    C411831   4.349   3.137  11.468
  795TMC3    C511832   4.471   3.142  11.403
  795TMC3    C611833   4.490   3.079  11.287
  795TMC3     C11834   4.127   3.091  11.475
  795TMC3     O11835   4.107   3.081  11.596
  795TMC3     H11836   4.194   2.928  11.266
  795TMC3    H111837   4.355   3.164  11.573
  795TMC3    H211838   4.583   3.094  11.234
  795TMC3    C711839   4.591   3.155  11.486
  795TMC3    C811840   4.396   2.942  11.103
  795TMC3    O111841   4.646   3.048  11.491
  795TMC3    O211842   4.317   2.847  11.092
  796TMC3    C111843   0.914   1.347  12.424
  796TMC3    C211844   0.984   1.353  12.542
  796TMC3    C311845   0.963   1.464  12.621
  796TMC3    C411846   0.819   1.441  12.391
  796TMC3    C511847   0.796   1.544  12.478
  796TMC3    C611848   0.861   1.553  12.598
  796TMC3     C11849   0.962   1.257  12.317
  796TMC3     O11850   0.967   1.301  12.206
  796TMC3     H11851   1.072   1.292  12.557
  796TMC3    H111852   0.761   1.422  12.301
  796TMC3    H211853   0.840   1.634  12.667
  796TMC3    C711854   0.718   1.653  12.435
  796TMC3    C811855   1.088   1.529  12.660
  796TMC3    O111856   0.675   1.723  12.531
  796TMC3    O211857   1.189   1.466  12.684
  797TMC3    C111858   3.035   2.370  11.338
  797TMC3    C211859   2.960   2.435  11.432
  797TMC3    C311860   2.870   2.355  11.498
  797TMC3    C411861   3.030   2.238  11.314
  797TMC3    C511862   2.945   2.158  11.375
  797TMC3    C611863   2.873   2.212  11.483
  797TMC3     C11864   3.085   2.445  11.226
  797TMC3     O11865   3.003   2.517  11.163
  797TMC3     H11866   2.952   2.543  11.433
  797TMC3    H111867   3.084   2.206  11.226
  797TMC3    H211868   2.791   2.157  11.527
  797TMC3    C711869   2.886   2.063  11.287
  797TMC3    C811870   2.785   2.435  11.587
  797TMC3    O111871   2.917   2.069  11.166
  797TMC3    O211872   2.797   2.555  11.579
  798TMC3    C111873   2.429   1.625   9.896
  798TMC3    C211874   2.534   1.695   9.951
  798TMC3    C311875   2.629   1.631  10.026
  798TMC3    C411876   2.421   1.490   9.901
  798TMC3    C511877   2.527   1.421   9.957
  798TMC3    C611878   2.623   1.491  10.024
  798TMC3     C11879   2.381   1.673   9.767
  798TMC3     O11880   2.282   1.617   9.726
  798TMC3     H11881   2.545   1.801   9.932
  798TMC3    H111882   2.338   1.439   9.854
  798TMC3    H211883   2.709   1.443  10.069
  798TMC3    C711884   2.591   1.331   9.867
  798TMC3    C811885   2.764   1.689  10.020
  798TMC3    O111886   2.702   1.296   9.894
  798TMC3    O211887   2.839   1.631   9.942
  799TMC3    C111888   3.910   1.151   9.475
  799TMC3    C211889   3.882   1.252   9.383
  799TMC3    C311890   3.968   1.268   9.283
  799TMC3    C411891   4.007   1.059   9.461
  799TMC3    C511892   4.091   1.071   9.351
  799TMC3    C611893   4.067   1.178   9.262
  799TMC3     C11894   3.840   1.150   9.604
  799TMC3     O11895   3.885   1.079   9.694
  799TMC3     H11896   3.800   1.322   9.393
  799TMC3    H111897   4.037   0.995   9.543
  799TMC3    H211898   4.124   1.191   9.170
  799TMC3    C711899   4.231   1.053   9.388
  799TMC3    C811900   4.022   1.407   9.276
  799TMC3    O111901   4.257   0.994   9.492
  799TMC3    O211902   3.974   1.470   9.367
  800TMC3    C111903   2.308   2.966  11.465
  800TMC3    C211904   2.210   3.038  11.522
  800TMC3    C311905   2.081   2.991  11.542
  800TMC3    C411906   2.277   2.845  11.413
  800TMC3    C511907   2.152   2.804  11.415
  800TMC3    C611908   2.052   2.874  11.480
  800TMC3     C11909   2.441   2.983  11.512
  800TMC3     O11910   2.512   2.884  11.521
  800TMC3     H11911   2.241   3.132  11.566
  800TMC3    H111912   2.361   2.791  11.372
  800TMC3    H211913   1.951   2.837  11.490
  800TMC3    C711914   2.120   2.668  11.379
  800TMC3    C811915   1.982   3.090  11.565
  800TMC3    O111916   2.208   2.590  11.359
  800TMC3    O211917   1.870   3.049  11.536
  801TMC3    C111918   1.846   4.659  13.427
  801TMC3    C211919   1.939   4.714  13.338
  801TMC3    C311920   2.012   4.629  13.262
  801TMC3    C411921   1.819   4.524  13.424
  801TMC3    C511922   1.886   4.445  13.332
  801TMC3    C611923   1.980   4.498  13.252
  801TMC3     C11924   1.744   4.736  13.492
  801TMC3     O11925   1.642   4.678  13.529
  801TMC3     H11926   1.950   0.027  13.324
  801TMC3    H111927   1.762   4.487  13.508
  801TMC3    H211928   2.033   4.440  13.178
  801TMC3    C711929   1.867   4.300  13.336
  801TMC3    C811930   2.145   4.678  13.221
  801TMC3    O111931   1.960   4.236  13.290
  801TMC3    O211932   2.165   0.003  13.193
  802TMC3    C111933   3.819   2.957  10.786
  802TMC3    C211934   3.945   2.927  10.742
  802TMC3    C311935   3.955   2.835  10.640
  802TMC3    C411936   3.712   2.895  10.729
  802TMC3    C511937   3.733   2.808  10.624
  802TMC3    C611938   3.852   2.766  10.581
  802TMC3     C11939   3.804   3.045  10.902
  802TMC3     O11940   3.900   3.025  10.979
  802TMC3     H11941   4.034   2.958  10.795
  802TMC3    H111942   3.615   2.908  10.777
  802TMC3    H211943   3.864   2.710  10.489
  802TMC3    C711944   3.615   2.751  10.558
  802TMC3    C811945   4.089   2.786  10.613
  802TMC3    O111946   3.619   2.643  10.500
  802TMC3    O211947   4.101   2.667  10.585
  803TMC3    C111948   0.205   1.199  12.810
  803TMC3    C211949   0.314   1.144  12.863
  803TMC3    C311950   0.339   1.012  12.838
  803TMC3    C411951   0.127   1.134  12.717
  803TMC3    C511952   0.155   1.000  12.690
  803TMC3    C611953   0.253   0.933  12.761
  803TMC3     C11954   0.148   1.307  12.890
  803TMC3     O11955   0.220   1.389  12.940
  803TMC3     H11956   0.370   1.189  12.944
  803TMC3    H111957   0.044   1.181  12.665
  803TMC3    H211958   0.272   0.828  12.745
  803TMC3    C711959   0.033   0.923  12.678
  803TMC3    C811960   0.406   0.944  12.946
  803TMC3    O111961   0.026   0.823  12.749
  803TMC3    O211962   0.355   0.943  13.054
  804TMC3    C111963   2.060   1.153   7.035
  804TMC3    C211964   1.999   1.097   6.923
  804TMC3    C311965   2.087   1.072   6.825
  804TMC3    C411966   2.178   1.224   7.020
  804TMC3    C511967   2.253   1.213   6.903
  804TMC3    C611968   2.213   1.134   6.799
  804TMC3     C11969   1.962   1.212   7.121
  804TMC3     O11970   1.868   1.255   7.060
  804TMC3     H11971   1.904   1.047   6.932
  804TMC3    H111972   2.217   1.278   7.106
  804TMC3    H211973   2.283   1.109   6.719
  804TMC3    C711974   2.374   1.291   6.883
  804TMC3    C811975   2.033   0.972   6.729
  804TMC3    O111976   2.463   1.241   6.817
  804TMC3    O211977   1.938   0.903   6.772
  805TMC3    C111978   0.263   2.490  11.177
  805TMC3    C211979   0.166   2.403  11.228
  805TMC3    C311980   0.189   2.321  11.329
  805TMC3    C411981   0.390   2.482  11.226
  805TMC3    C511982   0.410   2.389  11.328
  805TMC3    C611983   0.317   2.302  11.370
  805TMC3     C11984   0.208   2.605  11.114
  805TMC3     O11985   0.102   2.588  11.052
  805TMC3     H11986   0.063   2.406  11.194
  805TMC3    H111987   0.473   2.547  11.198
  805TMC3    H211988   0.346   2.230  11.446
  805TMC3    C711989   0.549   2.386  11.374
  805TMC3    C811990   0.087   2.214  11.324
  805TMC3    O111991   0.605   2.493  11.367
  805TMC3    O211992   0.110   2.140  11.228
  806TMC3    C111993   2.011   0.501  14.967
  806TMC3    C211994   2.050   0.632  14.947
  806TMC3    C311995   1.941   0.718  14.922
  806TMC3    C411996   1.878   0.459  14.959
  806TMC3    C511997   1.784   0.549  14.941
  806TMC3    C611998   1.806   0.677  14.915
  806TMC3     C11999   2.104   0.410  15.037
  806TMC3     O12000   2.059   0.335  15.122
  806TMC3     H12001   2.155   0.657  14.947
  806TMC3    H112002   1.849   0.360  14.991
  806TMC3    H212003   1.728   0.740  14.875
  806TMC3    C712004   1.647   0.507  14.922
  806TMC3    C812005   1.969   0.867  14.900
  806TMC3    O112006   1.553   0.581  14.955
  806TMC3    O212007   2.084   0.908  14.915
  807TMC3    C112008   0.439   3.587  14.439
  807TMC3    C212009   0.457   3.553  14.570
  807TMC3    C312010   0.533   3.436  14.596
  807TMC3    C412011   0.502   3.517  14.339
  807TMC3    C512012   0.557   3.395  14.371
  807TMC3    C612013   0.581   3.356  14.499
  807TMC3     C12014   0.429   3.732  14.406
  807TMC3     O12015   0.488   3.770  14.301
  807TMC3     H12016   0.416   3.617  14.648
  807TMC3    H112017   0.475   3.541  14.237
  807TMC3    H212018   0.627   3.261  14.521
  807TMC3    C712019   0.623   3.323  14.261
  807TMC3    C812020   0.567   3.416  14.739
  807TMC3    O112021   0.693   3.387  14.184
  807TMC3    O212022   0.497   3.469  14.822
  808TMC3    C112023   4.202   1.447   9.925
  808TMC3    C212024   4.078   1.421   9.972
  808TMC3    C312025   4.028   1.478  10.079
  808TMC3    C412026   4.291   1.537   9.984
  808TMC3    C512027   4.234   1.601  10.082
  808TMC3    C612028   4.108   1.576  10.140
  808TMC3     C12029   4.230   1.395   9.791
  808TMC3     O12030   4.135   1.334   9.734
  808TMC3     H12031   4.013   1.366   9.905
  808TMC3    H112032   4.393   1.558   9.953
  808TMC3    H212033   4.074   1.643  10.218
  808TMC3    C712034   4.328   1.693  10.155
  808TMC3    C812035   3.879   1.484  10.109
  808TMC3    O112036   4.282   1.788  10.219
  808TMC3    O212037   3.835   1.599  10.114
  809TMC3    C112038   0.592   3.302  11.099
  809TMC3    C212039   0.529   3.400  11.175
  809TMC3    C312040   0.607   3.495  11.237
  809TMC3    C412041   0.723   3.281  11.101
  809TMC3    C512042   0.797   3.371  11.165
  809TMC3    C612043   0.745   3.480  11.229
  809TMC3     C12044   0.530   3.175  11.107
  809TMC3     O12045   0.606   3.085  11.124
  809TMC3     H12046   0.422   3.412  11.177
  809TMC3    H112047   0.769   3.204  11.040
  809TMC3    H212048   0.806   3.551  11.284
  809TMC3    C712049   0.933   3.377  11.119
  809TMC3    C812050   0.565   3.634  11.277
  809TMC3    O112051   0.943   3.324  11.009
  809TMC3    O212052   0.658   3.713  11.266
  810TMC3    C112053   2.288   4.225  15.060
  810TMC3    C212054   2.331   4.139  14.965
  810TMC3    C312055   2.239   4.092  14.877
  810TMC3    C412056   2.157   4.245  15.091
  810TMC3    C512057   2.070   4.194  14.998
  810TMC3    C612058   2.107   4.119  14.890
  810TMC3     C12059   2.388   4.313  15.118
  810TMC3     O12060   2.494   4.307  15.061
  810TMC3     H12061   2.436   4.117  14.952
  810TMC3    H112062   2.123   4.311  15.170
  810TMC3    H212063   2.028   4.073  14.831
  810TMC3    C712064   1.930   4.230  14.994
  810TMC3    C812065   2.292   4.047  14.750
  810TMC3    O112066   1.862   4.168  14.914
  810TMC3    O212067   2.410   4.021  14.741
  811TMC3    C112068   1.525   2.018  13.116
  811TMC3    C212069   1.639   1.940  13.149
  811TMC3    C312070   1.626   1.806  13.140
  811TMC3    C412071   1.404   1.956  13.095
  811TMC3    C512072   1.399   1.821  13.106
  811TMC3    C612073   1.504   1.743  13.123
  811TMC3     C12074   1.553   2.142  13.047
  811TMC3     O12075   1.486   2.171  12.948
  811TMC3     H12076   1.737   1.978  13.174
  811TMC3    H112077   1.318   2.018  13.073
  811TMC3    H212078   1.497   1.637  13.101
  811TMC3    C712079   1.265   1.769  13.140
  811TMC3    C812080   1.722   1.713  13.195
  811TMC3    O112081   1.172   1.842  13.107
  811TMC3    O212082   1.666   1.630  13.269
  812TMC3    C112083   3.065   0.966   8.081
  812TMC3    C212084   3.164   0.881   8.038
  812TMC3    C312085   3.124   0.781   7.953
  812TMC3    C412086   2.937   0.957   8.044
  812TMC3    C512087   2.902   0.852   7.960
  812TMC3    C612088   2.992   0.763   7.912
  812TMC3     C12089   3.107   1.075   8.166
  812TMC3     O12090   3.033   1.172   8.174
  812TMC3     H12091   3.264   0.894   8.075
  812TMC3    H112092   2.857   1.023   8.076
  812TMC3    H212093   2.959   0.676   7.857
  812TMC3    C712094   2.771   0.851   7.889
  812TMC3    C812095   3.213   0.673   7.930
  812TMC3    O112096   2.761   0.773   7.794
  812TMC3    O212097   3.174   0.560   7.896
  813TMC3    C112098   2.284   0.231   8.576
  813TMC3    C212099   2.359   0.300   8.480
  813TMC3    C312100   2.296   0.393   8.402
  813TMC3    C412101   2.150   0.257   8.599
  813TMC3    C512102   2.093   0.360   8.529
  813TMC3    C612103   2.158   0.417   8.422
  813TMC3     C12104   2.340   0.101   8.601
  813TMC3     O12105   2.417   0.048   8.527
  813TMC3     H12106   2.456   0.264   8.448
  813TMC3    H112107   2.094   0.195   8.668
  813TMC3    H212108   2.103   0.486   8.358
  813TMC3    C712109   2.004   0.440   8.594
  813TMC3    C812110   2.367   0.424   8.280
  813TMC3    O112111   1.945   0.520   8.523
  813TMC3    O212112   2.487   0.453   8.283
  814TMC3    C112113   1.159   2.154   9.625
  814TMC3    C212114   1.096   2.055   9.551
  814TMC3    C312115   1.001   2.076   9.448
  814TMC3    C412116   1.139   2.277   9.569
  814TMC3    C512117   1.062   2.296   9.460
  814TMC3    C612118   0.991   2.200   9.399
  814TMC3     C12119   1.297   2.123   9.671
  814TMC3     O12120   1.391   2.178   9.615
  814TMC3     H12121   1.121   1.955   9.584
  814TMC3    H112122   1.208   2.354   9.599
  814TMC3    H212123   0.939   2.220   9.306
  814TMC3    C712124   1.138   2.364   9.358
  814TMC3    C812125   0.995   1.974   9.339
  814TMC3    O112126   1.175   2.476   9.380
  814TMC3    O212127   1.027   2.008   9.225
  815TMC3    C112128   0.788   3.321  12.888
  815TMC3    C212129   0.649   3.337  12.890
  815TMC3    C312130   0.592   3.355  13.013
  815TMC3    C412131   0.860   3.335  13.001
  815TMC3    C512132   0.808   3.377  13.115
  815TMC3    C612133   0.669   3.385  13.120
  815TMC3     C12134   0.859   3.283  12.769
  815TMC3     O12135   0.979   3.291  12.775
  815TMC3     H12136   0.582   3.322  12.806
  815TMC3    H112137   0.968   3.329  12.997
  815TMC3    H212138   0.625   3.423  13.211
  815TMC3    C712139   0.882   3.403  13.236
  815TMC3    C812140   0.477   3.271  13.031
  815TMC3    O112141   0.829   3.474  13.319
  815TMC3    O212142   0.440   3.212  12.930
  816TMC3    C112143   0.309   2.604  13.056
  816TMC3    C212144   0.381   2.553  12.950
  816TMC3    C312145   0.407   2.416  12.945
  816TMC3    C412146   0.272   2.519  13.158
  816TMC3    C512147   0.299   2.384  13.151
  816TMC3    C612148   0.365   2.325  13.041
  816TMC3     C12149   0.323   2.745  13.072
  816TMC3     O12150   0.310   2.815  12.974
  816TMC3     H12151   0.418   2.626  12.878
  816TMC3    H112152   0.225   2.550  13.251
  816TMC3    H212153   0.368   2.218  13.026
  816TMC3    C712154   0.232   2.296  13.239
  816TMC3    C812155   0.502   2.364  12.845
  816TMC3    O112156   0.120   2.318  13.281
  816TMC3    O212157   0.549   2.254  12.863
  817TMC3    C112158   1.450   2.718  12.877
  817TMC3    C212159   1.406   2.603  12.937
  817TMC3    C312160   1.339   2.506  12.870
  817TMC3    C412161   1.425   2.738  12.738
  817TMC3    C512162   1.357   2.637  12.673
  817TMC3    C612163   1.313   2.522  12.736
  817TMC3     C12164   1.545   2.808  12.940
  817TMC3     O12165   1.583   2.904  12.877
  817TMC3     H12166   1.411   2.592  13.045
  817TMC3    H112167   1.461   2.831  12.697
  817TMC3    H212168   1.274   2.441  12.675
  817TMC3    C712169   1.338   2.649  12.531
  817TMC3    C812170   1.255   2.415  12.953
  817TMC3    O112171   1.408   2.735  12.476
  817TMC3    O212172   1.249   2.441  13.076
  818TMC3    C112173   1.628   3.800   9.311
  818TMC3    C212174   1.571   3.758   9.425
  818TMC3    C312175   1.437   3.787   9.438
  818TMC3    C412176   1.572   3.883   9.222
  818TMC3    C512177   1.444   3.920   9.242
  818TMC3    C612178   1.374   3.867   9.342
  818TMC3     C12179   1.774   3.816   9.330
  818TMC3     O12180   1.825   3.757   9.427
  818TMC3     H12181   1.624   3.691   9.492
  818TMC3    H112182   1.610   3.920   9.127
  818TMC3    H212183   1.267   3.878   9.357
  818TMC3    C712184   1.371   3.958   9.122
  818TMC3    C812185   1.355   3.744   9.552
  818TMC3    O112186   1.428   3.960   9.016
  818TMC3    O212187   1.257   3.810   9.582
  819TMC3    C112188   0.290   1.323   9.312
  819TMC3    C212189   0.233   1.389   9.418
  819TMC3    C312190   0.316   1.483   9.474
  819TMC3    C412191   0.417   1.356   9.271
  819TMC3    C512192   0.482   1.465   9.308
  819TMC3    C612193   0.440   1.519   9.429
  819TMC3     C12194   0.192   1.306   9.204
  819TMC3     O12195   0.083   1.276   9.249
  819TMC3     H12196   0.125   1.392   9.425
  819TMC3    H112197   0.459   1.300   9.189
  819TMC3    H212198   0.491   1.609   9.463
  819TMC3    C712199   0.480   1.556   9.201
  819TMC3    C812200   0.251   1.589   9.542
  819TMC3    O112201   0.452   1.510   9.087
  819TMC3    O212202   0.298   1.701   9.527
  820TMC3    C112203   2.817   4.317   9.881
  820TMC3    C212204   2.885   4.232   9.795
  820TMC3    C312205   3.024   4.232   9.822
  820TMC3    C412206   2.870   4.384   9.989
  820TMC3    C512207   3.002   4.368  10.014
  820TMC3    C612208   3.081   4.289   9.934
  820TMC3     C12209   2.686   4.374   9.829
  820TMC3     O12210   2.669   4.353   9.713
  820TMC3     H12211   2.843   4.202   9.700
  820TMC3    H112212   2.814   4.426  10.072
  820TMC3    H212213   3.185   4.269   9.958
  820TMC3    C712214   3.035   4.383  10.159
  820TMC3    C812215   3.093   4.110   9.782
  820TMC3    O112216   3.087   4.279  10.208
  820TMC3    O212217   3.030   4.009   9.782
  821TMC3    C112218   4.371   1.401  10.489
  821TMC3    C212219   4.274   1.373  10.397
  821TMC3    C312220   4.274   1.256  10.328
  821TMC3    C412221   4.463   1.295  10.516
  821TMC3    C512222   4.463   1.179  10.446
  821TMC3    C612223   4.364   1.152  10.361
  821TMC3     C12224   4.333   1.471  10.608
  821TMC3     O12225   4.213   1.486  10.619
  821TMC3     H12226   4.200   1.448  10.370
  821TMC3    H112227   4.543   1.311  10.589
  821TMC3    H212228   4.372   1.064  10.299
  821TMC3    C712229   4.596   1.160  10.393
  821TMC3    C812230   4.147   1.224  10.267
  821TMC3    O112231   4.631   1.253  10.317
  821TMC3    O212232   4.048   1.248  10.334
  822TMC3    C112233   1.126   0.619   8.089
  822TMC3    C212234   1.151   0.712   7.991
  822TMC3    C312235   1.174   0.668   7.864
  822TMC3    C412236   1.110   0.483   8.059
  822TMC3    C512237   1.141   0.446   7.929
  822TMC3    C612238   1.180   0.537   7.834
  822TMC3     C12239   1.170   0.650   8.224
  822TMC3     O12240   1.159   0.768   8.262
  822TMC3     H12241   1.161   0.816   8.020
  822TMC3    H112242   1.073   0.416   8.136
  822TMC3    H212243   1.206   0.509   7.733
  822TMC3    C712244   1.197   0.314   7.910
  822TMC3    C812245   1.264   0.746   7.772
  822TMC3    O112246   1.121   0.221   7.926
  822TMC3    O212247   1.354   0.680   7.719
  823TMC3    C112248   0.395   4.752  11.417
  823TMC3    C212249   0.468   0.048  11.487
  823TMC3    C312250   0.514   0.016  11.610
  823TMC3    C412251   0.410   4.622  11.447
  823TMC3    C512252   0.450   4.588  11.575
  823TMC3    C612253   0.502   4.683  11.662
  823TMC3     C12254   0.421   4.783  11.277
  823TMC3     O12255   0.531   4.742  11.244
  823TMC3     H12256   0.500   0.143  11.445
  823TMC3    H112257   0.376   4.543  11.381
  823TMC3    H212258   0.520   4.663  11.767
  823TMC3    C712259   0.458   4.444  11.598
  823TMC3    C812260   0.626   0.099  11.648
  823TMC3    O112261   0.394   4.372  11.521
  823TMC3    O212262   0.628   0.219  11.627
  824TMC3    C112263   4.020   1.112   7.602
  824TMC3    C212264   4.078   1.041   7.494
  824TMC3    C312265   4.020   0.927   7.464
  824TMC3    C412266   3.934   1.058   7.691
  824TMC3    C512267   3.886   0.932   7.661
  824TMC3    C612268   3.924   0.867   7.547
  824TMC3     C12269   4.057   1.253   7.619
  824TMC3     O12270   4.163   1.301   7.580
  824TMC3     H12271   4.154   1.080   7.427
  824TMC3    H112272   3.901   1.096   7.787
  824TMC3    H212273   3.882   0.770   7.522
  824TMC3    C712274   3.802   0.869   7.758
  824TMC3    C812275   4.086   0.845   7.362
  824TMC3    O112276   3.768   0.932   7.862
  824TMC3    O212277   4.207   0.838   7.354
  825TMC3    C112278   1.723   4.641   7.366
  825TMC3    C212279   1.671   4.666   7.244
  825TMC3    C312280   1.538   4.640   7.223
  825TMC3    C412281   1.634   4.613   7.467
  825TMC3    C512282   1.509   4.577   7.444
  825TMC3    C612283   1.455   4.580   7.313
  825TMC3     C12284   1.852   4.567   7.365
  825TMC3     O12285   1.892   4.521   7.261
  825TMC3     H12286   1.734   4.709   7.167
  825TMC3    H112287   1.672   4.601   7.568
  825TMC3    H212288   1.355   4.551   7.283
  825TMC3    C712289   1.454   4.489   7.546
  825TMC3    C812290   1.490   4.660   7.087
  825TMC3    O112291   1.533   4.441   7.629
  825TMC3    O212292   1.504   4.774   7.043
  826TMC3    C112293   1.538   4.531   8.052
  826TMC3    C212294   1.633   4.531   8.152
  826TMC3    C312295   1.627   4.438   8.249
  826TMC3    C412296   1.429   4.446   8.060
  826TMC3    C512297   1.428   4.356   8.157
  826TMC3    C612298   1.529   4.344   8.251
  826TMC3     C12299   1.553   4.620   7.934
  826TMC3     O12300   1.663   4.667   7.921
  826TMC3     H12301   1.702   4.615   8.157
  826TMC3    H112302   1.362   4.430   7.977
  826TMC3    H212303   1.540   4.264   8.322
  826TMC3    C712304   1.310   4.279   8.168
  826TMC3    C812305   1.745   4.423   8.338
  826TMC3    O112306   1.213   4.326   8.100
  826TMC3    O212307   1.732   4.385   8.452
  827TMC3    C112308   4.133   4.189   7.711
  827TMC3    C212309   4.182   4.110   7.808
  827TMC3    C312310   4.143   4.149   7.934
  827TMC3    C412311   4.040   4.290   7.724
  827TMC3    C512312   3.998   4.319   7.842
  827TMC3    C612313   4.050   4.249   7.948
  827TMC3     C12314   4.219   4.222   7.599
  827TMC3     O12315   4.184   4.301   7.517
  827TMC3     H12316   4.250   4.027   7.792
  827TMC3    H112317   4.006   4.361   7.650
  827TMC3    H212318   4.013   4.271   8.048
  827TMC3    C712319   3.976   4.450   7.865
  827TMC3    C812320   4.155   4.038   8.027
  827TMC3    O112321   3.904   4.517   7.798
  827TMC3    O212322   4.191   3.926   7.990
  828TMC3    C112323   0.491   0.538  12.919
  828TMC3    C212324   0.534   0.577  12.794
  828TMC3    C312325   0.447   0.550  12.692
  828TMC3    C412326   0.361   0.495  12.941
  828TMC3    C512327   0.288   0.462  12.830
  828TMC3    C612328   0.338   0.481  12.704
  828TMC3     C12329   0.589   0.472  12.999
  828TMC3     O12330   0.556   0.442  13.112
  828TMC3     H12331   0.630   0.625  12.782
  828TMC3    H112332   0.335   0.467  13.042
  828TMC3    H212333   0.275   0.457  12.619
  828TMC3    C712334   0.264   0.320  12.834
  828TMC3    C812335   0.521   0.502  12.582
  828TMC3    O112336   0.212   0.275  12.934
  828TMC3    O212337   0.598   0.415  12.623
  829TMC3    C112338   2.998   2.038  12.072
  829TMC3    C212339   2.876   2.050  12.016
  829TMC3    C312340   2.827   1.954  11.927
  829TMC3    C412341   3.064   1.917  12.052
  829TMC3    C512342   3.020   1.826  11.972
  829TMC3    C612343   2.901   1.837  11.903
  829TMC3     C12344   3.081   2.149  12.044
  829TMC3     O12345   3.124   2.226  12.134
  829TMC3     H12346   2.814   2.139  12.015
  829TMC3    H112347   3.164   1.916  12.093
  829TMC3    H212348   2.876   1.783  11.813
  829TMC3    C712349   3.066   1.690  12.003
  829TMC3    C812350   2.748   2.021  11.823
  829TMC3    O112351   3.124   1.673  12.108
  829TMC3    O212352   2.776   2.136  11.796
  830TMC3    C112353   4.358   3.283   6.205
  830TMC3    C212354   4.335   3.202   6.310
  830TMC3    C312355   4.254   3.090   6.283
  830TMC3    C412356   4.292   3.265   6.085
  830TMC3    C512357   4.227   3.151   6.062
  830TMC3    C612358   4.204   3.057   6.157
  830TMC3     C12359   4.428   3.410   6.220
  830TMC3     O12360   4.418   3.496   6.132
  830TMC3     H12361   4.368   3.232   6.409
  830TMC3    H112362   4.329   3.326   6.003
  830TMC3    H212363   4.134   2.975   6.148
  830TMC3    C712364   4.132   3.148   5.955
  830TMC3    C812365   4.264   2.989   6.392
  830TMC3    O112366   4.106   3.247   5.897
  830TMC3    O212367   4.297   3.039   6.501
  831TMC3    C112368   0.396   4.154  10.773
  831TMC3    C212369   0.441   4.257  10.697
  831TMC3    C312370   0.564   4.246  10.643
  831TMC3    C412371   0.468   4.045  10.797
  831TMC3    C512372   0.599   4.042  10.760
  831TMC3    C612373   0.640   4.135  10.673
  831TMC3     C12374   0.281   4.169  10.851
  831TMC3     O12375   0.210   4.073  10.867
  831TMC3     H12376   0.369   4.337  10.688
  831TMC3    H112377   0.417   3.953  10.823
  831TMC3    H212378   0.735   4.121  10.622
  831TMC3    C712379   0.684   4.040  10.869
  831TMC3    C812380   0.612   4.339  10.544
  831TMC3    O112381   0.794   4.089  10.855
  831TMC3    O212382   0.699   4.297  10.466
  832TMC3    C112383   2.534   1.114  12.138
  832TMC3    C212384   2.610   1.100  12.249
  832TMC3    C312385   2.708   1.188  12.278
  832TMC3    C412386   2.549   1.226  12.062
  832TMC3    C512387   2.649   1.316  12.093
  832TMC3    C612388   2.728   1.299  12.205
  832TMC3     C12389   2.450   1.008  12.089
  832TMC3     O12390   2.335   1.044  12.067
  832TMC3     H12391   2.589   1.015  12.313
  832TMC3    H112392   2.492   1.237  11.971
  832TMC3    H212393   2.817   1.359  12.221
  832TMC3    C712394   2.697   1.386  11.980
  832TMC3    C812395   2.805   1.126  12.367
  832TMC3    O112396   2.712   1.316  11.887
  832TMC3    O212397   2.818   1.005  12.375
  833TMC3    C112398   2.280   3.947  12.015
  833TMC3    C212399   2.212   4.064  11.993
  833TMC3    C312400   2.274   4.191  11.985
  833TMC3    C412401   2.415   3.954  12.041
  833TMC3    C512402   2.477   4.078  12.049
  833TMC3    C612403   2.404   4.199  12.029
  833TMC3     C12404   2.218   3.870  12.118
  833TMC3     O12405   2.247   3.758  12.130
  833TMC3     H12406   2.109   4.046  11.964
  833TMC3    H112407   2.469   3.862  12.061
  833TMC3    H212408   2.439   4.300  12.050
  833TMC3    C712409   2.607   4.081  11.994
  833TMC3    C812410   2.185   4.297  12.036
  833TMC3    O112411   2.629   4.031  11.888
  833TMC3    O212412   2.141   4.273  12.146
  834TMC3    C112413   3.965   1.119  14.319
  834TMC3    C212414   4.053   1.216  14.287
  834TMC3    C312415   4.178   1.186  14.240
  834TMC3    C412416   4.006   0.987  14.296
  834TMC3    C512417   4.134   0.956  14.245
  834TMC3    C612418   4.223   1.060  14.227
  834TMC3     C12419   3.819   1.138  14.343
  834TMC3     O12420   3.763   1.045  14.394
  834TMC3     H12421   4.031   1.322  14.302
  834TMC3    H112422   3.928   0.911  14.296
  834TMC3    H212423   4.322   1.030  14.194
  834TMC3    C712424   4.211   0.840  14.292
  834TMC3    C812425   4.238   1.277  14.147
  834TMC3    O112426   4.312   0.804  14.237
  834TMC3    O212427   4.185   1.387  14.134
  835TMC3    C112428   0.800   1.453  13.580
  835TMC3    C212429   0.669   1.504  13.562
  835TMC3    C312430   0.661   1.640  13.538
  835TMC3    C412431   0.906   1.536  13.576
  835TMC3    C512432   0.898   1.671  13.558
  835TMC3    C612433   0.776   1.722  13.528
  835TMC3     C12434   0.804   1.353  13.682
  835TMC3     O12435   0.885   1.374  13.766
  835TMC3     H12436   0.584   1.437  13.553
  835TMC3    H112437   1.001   1.484  13.590
  835TMC3    H212438   0.756   1.827  13.543
  835TMC3    C712439   1.014   1.747  13.523
  835TMC3    C812440   0.526   1.696  13.535
  835TMC3    O112441   0.989   1.848  13.459
  835TMC3    O212442   0.436   1.620  13.583
  836TMC3    C112443   4.222   2.760   7.231
  836TMC3    C212444   4.185   2.636   7.265
  836TMC3    C312445   4.150   2.544   7.172
  836TMC3    C412446   4.226   2.797   7.102
  836TMC3    C512447   4.199   2.701   7.006
  836TMC3    C612448   4.168   2.571   7.039
  836TMC3     C12449   4.306   2.826   7.326
  836TMC3     O12450   4.252   2.853   7.432
  836TMC3     H12451   4.207   2.617   7.370
  836TMC3    H112452   4.247   2.901   7.080
  836TMC3    H212453   4.152   2.492   6.967
  836TMC3    C712454   4.236   2.739   6.873
  836TMC3    C812455   4.122   2.405   7.219
  836TMC3    O112456   4.240   2.858   6.850
  836TMC3    O212457   4.087   2.400   7.338
  837TMC3    C112458   3.665   4.166   8.948
  837TMC3    C212459   3.746   4.076   8.888
  837TMC3    C312460   3.805   4.115   8.772
  837TMC3    C412461   3.645   4.296   8.910
  837TMC3    C512462   3.709   4.325   8.796
  837TMC3    C612463   3.792   4.243   8.727
  837TMC3     C12464   3.605   4.123   9.066
  837TMC3     O12465   3.669   4.036   9.126
  837TMC3     H12466   3.737   3.972   8.917
  837TMC3    H112467   3.600   4.372   8.973
  837TMC3    H212468   3.823   4.272   8.627
  837TMC3    C712469   3.645   4.413   8.702
  837TMC3    C812470   3.884   4.022   8.693
  837TMC3    O112471   3.710   4.483   8.628
  837TMC3    O212472   3.881   3.901   8.730
  838TMC3    C112473   1.003   4.161  14.827
  838TMC3    C212474   1.082   4.255  14.895
  838TMC3    C312475   1.172   4.217  14.995
  838TMC3    C412476   1.017   4.030  14.861
  838TMC3    C512477   1.117   3.993  14.951
  838TMC3    C612478   1.199   4.086  15.013
  838TMC3     C12479   0.919   4.201  14.717
  838TMC3     O12480   0.878   4.314  14.716
  838TMC3     H12481   1.067   4.359  14.868
  838TMC3    H112482   0.948   3.955  14.823
  838TMC3    H212483   1.267   4.047  15.088
  838TMC3    C712484   1.116   3.858  15.001
  838TMC3    C812485   1.268   4.314  15.036
  838TMC3    O112486   1.145   3.842  15.120
  838TMC3    O212487   1.219   4.425  15.038
  839TMC3    C112488   1.990   3.377   9.281
  839TMC3    C212489   2.054   3.293   9.198
  839TMC3    C312490   2.067   3.163   9.238
  839TMC3    C412491   1.926   3.329   9.391
  839TMC3    C512492   1.949   3.202   9.438
  839TMC3    C612493   2.023   3.116   9.359
  839TMC3     C12494   1.907   3.469   9.212
  839TMC3     O12495   1.958   3.522   9.115
  839TMC3     H12496   2.080   3.328   9.099
  839TMC3    H112497   1.879   3.403   9.456
  839TMC3    H212498   2.058   3.021   9.397
  839TMC3    C712499   1.827   3.143   9.491
  839TMC3    C812500   2.029   3.064   9.137
  839TMC3    O112501   1.745   3.210   9.550
  839TMC3    O212502   1.978   2.962   9.180
  840TMC3    C112503   3.875   2.743  11.682
  840TMC3    C212504   3.897   2.776  11.815
  840TMC3    C312505   3.903   2.674  11.905
  840TMC3    C412506   3.855   2.615  11.654
  840TMC3    C512507   3.851   2.515  11.743
  840TMC3    C612508   3.872   2.548  11.878
  840TMC3     C12509   3.766   2.824  11.628
  840TMC3     O12510   3.679   2.843  11.713
  840TMC3     H12511   3.915   2.879  11.841
  840TMC3    H112512   3.850   2.586  11.550
  840TMC3    H212513   3.867   2.468  11.951
  840TMC3    C712514   3.732   2.448  11.707
  840TMC3    C812515   3.949   2.711  12.035
  840TMC3    O112516   3.722   2.394  11.599
  840TMC3    O212517   3.926   2.817  12.094
  841TMC3    C112518   3.628   0.309  13.098
  841TMC3    C212519   3.610   0.410  13.189
  841TMC3    C312520   3.541   0.517  13.151
  841TMC3    C412521   3.595   0.319  12.964
  841TMC3    C512522   3.538   0.433  12.929
  841TMC3    C612523   3.497   0.523  13.020
  841TMC3     C12524   3.668   0.174  13.149
  841TMC3     O12525   3.671   0.142  13.267
  841TMC3     H12526   3.656   0.415  13.287
  841TMC3    H112527   3.626   0.247  12.889
  841TMC3    H212528   3.436   0.607  12.989
  841TMC3    C712529   3.611   0.492  12.815
  841TMC3    C812530   3.574   0.648  13.201
  841TMC3    O112531   3.649   0.412  12.726
  841TMC3    O212532   3.630   0.720  13.120
  842TMC3    C112533   2.775   3.206  13.650
  842TMC3    C212534   2.654   3.140  13.622
  842TMC3    C312535   2.598   3.150  13.495
  842TMC3    C412536   2.838   3.257  13.550
  842TMC3    C512537   2.790   3.247  13.426
  842TMC3    C612538   2.667   3.207  13.394
  842TMC3     C12539   2.827   3.219  13.784
  842TMC3     O12540   2.912   3.307  13.787
  842TMC3     H12541   2.592   3.098  13.700
  842TMC3    H112542   2.941   3.286  13.566
  842TMC3    H212543   2.634   3.203  13.291
  842TMC3    C712544   2.873   3.161  13.349
  842TMC3    C812545   2.479   3.065  13.468
  842TMC3    O112546   2.822   3.062  13.298
  842TMC3    O212547   2.455   2.981  13.555
  843TMC3    C112548   0.189   1.906  12.354
  843TMC3    C212549   0.181   2.041  12.351
  843TMC3    C312550   0.228   2.115  12.454
  843TMC3    C412551   0.258   1.844  12.456
  843TMC3    C512552   0.288   1.924  12.566
  843TMC3    C612553   0.273   2.061  12.569
  843TMC3     C12554   0.093   1.823  12.281
  843TMC3     O12555   0.134   1.714  12.240
  843TMC3     H12556   0.125   2.085  12.269
  843TMC3    H112557   0.267   1.737  12.472
  843TMC3    H212558   0.318   2.118  12.650
  843TMC3    C712559   0.314   1.866  12.695
  843TMC3    C812560   0.242   2.261  12.430
  843TMC3    O112561   0.371   1.760  12.700
  843TMC3    O212562   0.257   2.305  12.319
  844TMC3    C112563   2.799   0.485   6.993
  844TMC3    C212564   2.791   0.375   6.918
  844TMC3    C312565   2.878   0.274   6.946
  844TMC3    C412566   2.911   0.518   7.054
  844TMC3    C512567   3.006   0.418   7.074
  844TMC3    C612568   2.990   0.295   7.028
  844TMC3     C12569   2.705   0.594   6.968
  844TMC3     O12570   2.634   0.596   6.871
  844TMC3     H12571   2.696   0.368   6.866
  844TMC3    H112572   2.942   0.621   7.070
  844TMC3    H212573   3.057   0.220   7.067
  844TMC3    C712574   3.081   0.424   7.198
  844TMC3    C812575   2.821   0.143   6.936
  844TMC3    O112576   3.189   0.370   7.213
  844TMC3    O212577   2.699   0.142   6.927
  845TMC3    C112578   1.552   1.828  14.510
  845TMC3    C212579   1.642   1.904  14.582
  845TMC3    C312580   1.770   1.851  14.597
  845TMC3    C412581   1.592   1.714  14.450
  845TMC3    C512582   1.721   1.664  14.466
  845TMC3    C612583   1.814   1.736  14.540
  845TMC3     C12584   1.409   1.837  14.549
  845TMC3     O12585   1.317   1.779  14.488
  845TMC3     H12586   1.621   2.003  14.620
  845TMC3    H112587   1.525   1.646  14.398
  845TMC3    H212588   1.914   1.709  14.571
  845TMC3    C712589   1.736   1.517  14.447
  845TMC3    C812590   1.831   1.888  14.719
  845TMC3    O112591   1.625   1.462  14.466
  845TMC3    O212592   1.764   1.921  14.815
  846TMC3    C112593   1.935   0.506  12.282
  846TMC3    C212594   2.025   0.528  12.185
  846TMC3    C312595   2.063   0.661  12.165
  846TMC3    C412596   1.888   0.595  12.369
  846TMC3    C512597   1.910   0.726  12.337
  846TMC3    C612598   1.993   0.753  12.230
  846TMC3     C12599   1.850   0.392  12.253
  846TMC3     O12600   1.888   0.300  12.179
  846TMC3     H12601   2.071   0.454  12.121
  846TMC3    H112602   1.826   0.583  12.457
  846TMC3    H212603   2.013   0.857  12.206
  846TMC3    C712604   1.783   0.808  12.328
  846TMC3    C812605   2.170   0.702  12.079
  846TMC3    O112606   1.682   0.740  12.345
  846TMC3    O212607   2.284   0.673  12.119
  847TMC3    C112608   2.632   3.283   8.365
  847TMC3    C212609   2.532   3.379   8.346
  847TMC3    C312610   2.576   3.503   8.306
  847TMC3    C412611   2.764   3.297   8.323
  847TMC3    C512612   2.795   3.423   8.262
  847TMC3    C612613   2.705   3.522   8.267
  847TMC3     C12614   2.593   3.184   8.470
  847TMC3     O12615   2.514   3.226   8.552
  847TMC3     H12616   2.430   3.355   8.375
  847TMC3    H112617   2.829   3.212   8.340
  847TMC3    H212618   2.730   3.621   8.230
  847TMC3    C712619   2.932   3.471   8.274
  847TMC3    C812620   2.530   3.608   8.394
  847TMC3    O112621   2.966   3.558   8.195
  847TMC3    O212622   2.410   3.623   8.402
  848TMC3    C112623   1.000   1.847  10.711
  848TMC3    C212624   0.986   1.964  10.635
  848TMC3    C312625   0.960   2.078  10.702
  848TMC3    C412626   0.971   1.845  10.846
  848TMC3    C512627   0.922   1.962  10.898
  848TMC3    C612628   0.910   2.078  10.825
  848TMC3     C12629   0.965   1.721  10.646
  848TMC3     O12630   1.038   1.689  10.554
  848TMC3     H12631   1.005   1.955  10.528
  848TMC3    H112632   0.982   1.763  10.916
  848TMC3    H212633   0.884   2.165  10.883
  848TMC3    C712634   0.876   1.965  11.035
  848TMC3    C812635   0.937   2.201  10.626
  848TMC3    O112636   0.780   1.900  11.074
  848TMC3    O212637   0.822   2.215  10.585
  849TMC3    C112638   4.473   0.015  13.224
  849TMC3    C212639   4.431   0.011  13.354
  849TMC3    C312640   4.376   0.122  13.414
  849TMC3    C412641   4.469   0.134  13.153
  849TMC3    C512642   4.411   0.241  13.212
  849TMC3    C612643   4.374   0.238  13.344
  849TMC3     C12644   4.528   4.687  13.166
  849TMC3     O12645   4.516   4.582  13.227
  849TMC3     H12646   4.432   4.706  13.398
  849TMC3    H112647   4.478   0.130  13.045
  849TMC3    H212648   4.354   0.326  13.404
  849TMC3    C712649   4.374   0.353  13.127
  849TMC3    C812650   4.280   0.124  13.525
  849TMC3    O112651   4.455   0.387  13.044
  849TMC3    O212652   4.182   0.196  13.507
  850TMC3    C112653   2.847   1.094  11.353
  850TMC3    C212654   2.792   1.220  11.335
  850TMC3    C312655   2.667   1.238  11.280
  850TMC3    C412656   2.782   0.980  11.311
  850TMC3    C512657   2.656   1.004  11.250
  850TMC3    C612658   2.604   1.127  11.219
  850TMC3     C12659   2.987   1.091  11.358
  850TMC3     O12660   3.033   1.009  11.439
  850TMC3     H12661   2.820   1.299  11.404
  850TMC3    H112662   2.812   0.879  11.338
  850TMC3    H212663   2.505   1.137  11.177
  850TMC3    C712664   2.587   0.886  11.197
  850TMC3    C812665   2.625   1.376  11.248
  850TMC3    O112666   2.544   0.887  11.085
  850TMC3    O212667   2.523   1.379  11.178
  851TMC3    C112668   2.312   3.729  12.583
  851TMC3    C212669   2.271   3.628  12.661
  851TMC3    C312670   2.206   3.650  12.773
  851TMC3    C412671   2.279   3.858  12.611
  851TMC3    C512672   2.202   3.878  12.724
  851TMC3    C612673   2.160   3.774  12.807
  851TMC3     C12674   2.397   3.696  12.474
  851TMC3     O12675   2.403   3.578  12.439
  851TMC3     H12676   2.303   3.526  12.642
  851TMC3    H112677   2.302   3.945  12.551
  851TMC3    H212678   2.098   3.778  12.896
  851TMC3    C712679   2.159   4.013  12.757
  851TMC3    C812680   2.124   3.543  12.824
  851TMC3    O112681   2.228   4.097  12.698
  851TMC3    O212682   2.179   3.439  12.849
  852TMC3    C112683   4.281   1.639  13.526
  852TMC3    C212684   4.194   1.712  13.600
  852TMC3    C312685   4.098   1.788  13.540
  852TMC3    C412686   4.278   1.638  13.388
  852TMC3    C512687   4.174   1.708  13.332
  852TMC3    C612688   4.081   1.777  13.406
  852TMC3     C12689   4.385   1.560  13.587
  852TMC3     O12690   4.496   1.559  13.542
  852TMC3     H12691   4.199   1.711  13.709
  852TMC3    H112692   4.347   1.574  13.334
  852TMC3    H212693   3.994   1.825  13.361
  852TMC3    C712694   4.169   1.713  13.186
  852TMC3    C812695   4.041   1.900  13.609
  852TMC3    O112696   4.249   1.638  13.122
  852TMC3    O212697   3.968   1.880  13.711
  853TMC3    C112698   3.372   2.326   7.958
  853TMC3    C212699   3.383   2.323   8.095
  853TMC3    C312700   3.461   2.425   8.158
  853TMC3    C412701   3.437   2.417   7.872
  853TMC3    C512702   3.498   2.516   7.944
  853TMC3    C612703   3.512   2.523   8.080
  853TMC3     C12704   3.278   2.241   7.896
  853TMC3     O12705   3.165   2.235   7.950
  853TMC3     H12706   3.351   2.235   8.150
  853TMC3    H112707   3.425   2.424   7.765
  853TMC3    H212708   3.566   2.610   8.117
  853TMC3    C712709   3.546   2.629   7.867
  853TMC3    C812710   3.424   2.447   8.295
  853TMC3    O112711   3.665   2.659   7.878
  853TMC3    O212712   3.390   2.340   8.345
  854TMC3    C112713   3.403   0.909  12.353
  854TMC3    C212714   3.445   0.930  12.483
  854TMC3    C312715   3.400   1.046  12.537
  854TMC3    C412716   3.325   0.996  12.276
  854TMC3    C512717   3.290   1.116  12.339
  854TMC3    C612718   3.322   1.138  12.471
  854TMC3     C12719   3.430   0.780  12.304
  854TMC3     O12720   3.404   0.769  12.186
  854TMC3     H12721   3.521   0.866  12.525
  854TMC3    H112722   3.293   0.968  12.176
  854TMC3    H212723   3.276   1.224  12.519
  854TMC3    C712724   3.192   1.209  12.269
  854TMC3    C812725   3.435   1.054  12.680
  854TMC3    O112726   3.151   1.300  12.336
  854TMC3    O212727   3.419   0.946  12.743
  855TMC3    C112728   4.021   3.845  13.925
  855TMC3    C212729   4.003   3.806  14.058
  855TMC3    C312730   4.108   3.736  14.114
  855TMC3    C412731   4.139   3.848  13.861
  855TMC3    C512732   4.250   3.784  13.928
  855TMC3    C612733   4.234   3.733  14.056
  855TMC3     C12734   3.898   3.848  13.841
  855TMC3     O12735   3.794   3.813  13.891
  855TMC3     H12736   3.904   3.821  14.098
  855TMC3    H112737   4.149   3.865  13.755
  855TMC3    H212738   4.323   3.700  14.107
  855TMC3    C712739   4.364   3.741  13.850
  855TMC3    C812740   4.112   3.746  14.266
  855TMC3    O112741   4.467   3.727  13.917
  855TMC3    O212742   4.216   3.702  14.312
  856TMC3    C112743   3.024   2.702   8.517
  856TMC3    C212744   3.027   2.770   8.640
  856TMC3    C312745   3.033   2.907   8.637
  856TMC3    C412746   3.041   2.766   8.397
  856TMC3    C512747   3.054   2.903   8.404
  856TMC3    C612748   3.048   2.979   8.517
  856TMC3     C12749   2.997   2.557   8.518
  856TMC3     O12750   3.022   2.482   8.425
  856TMC3     H12751   3.022   2.712   8.732
  856TMC3    H112752   3.033   2.713   8.303
  856TMC3    H212753   3.046   3.087   8.524
  856TMC3    C712754   3.090   2.973   8.280
  856TMC3    C812755   2.989   2.985   8.749
  856TMC3    O112756   3.061   2.933   8.170
  856TMC3    O212757   2.925   3.084   8.719
  857TMC3    C112758   0.747   1.323   6.766
  857TMC3    C212759   0.715   1.229   6.665
  857TMC3    C312760   0.819   1.159   6.615
  857TMC3    C412761   0.878   1.348   6.807
  857TMC3    C512762   0.980   1.276   6.747
  857TMC3    C612763   0.947   1.171   6.661
  857TMC3     C12764   0.650   1.432   6.785
  857TMC3     O12765   0.664   1.510   6.878
  857TMC3     H12766   0.615   1.194   6.641
  857TMC3    H112767   0.906   1.420   6.883
  857TMC3    H212768   1.031   1.110   6.628
  857TMC3    C712769   1.111   1.297   6.804
  857TMC3    C812770   0.800   1.049   6.527
  857TMC3    O112771   1.128   1.373   6.898
  857TMC3    O212772   0.858   0.952   6.573
  858TMC3    C112773   3.132   2.978   9.481
  858TMC3    C212774   3.178   2.892   9.573
  858TMC3    C312775   3.288   2.810   9.530
  858TMC3    C412776   3.181   2.987   9.349
  858TMC3    C512777   3.291   2.917   9.325
  858TMC3    C612778   3.343   2.823   9.404
  858TMC3     C12779   3.014   3.042   9.527
  858TMC3     O12780   2.939   2.966   9.589
  858TMC3     H12781   3.132   2.888   9.671
  858TMC3    H112782   3.114   3.027   9.275
  858TMC3    H212783   3.435   2.767   9.389
  858TMC3    C712784   3.381   2.948   9.212
  858TMC3    C812785   3.281   2.675   9.587
  858TMC3    O112786   3.500   2.917   9.234
  858TMC3    O212787   3.389   2.616   9.594
  859TMC3    C112788   2.860   2.843   7.229
  859TMC3    C212789   2.987   2.849   7.286
  859TMC3    C312790   3.061   2.961   7.267
  859TMC3    C412791   2.812   2.936   7.144
  859TMC3    C512792   2.893   3.046   7.125
  859TMC3    C612793   3.012   3.061   7.188
  859TMC3     C12794   2.778   2.723   7.251
  859TMC3     O12795   2.662   2.724   7.214
  859TMC3     H12796   3.003   2.791   7.376
  859TMC3    H112797   2.717   2.924   7.094
  859TMC3    H212798   3.073   3.145   7.155
  859TMC3    C712799   2.865   3.146   7.019
  859TMC3    C812800   3.194   2.977   7.328
  859TMC3    O112801   2.951   3.178   6.939
  859TMC3    O212802   3.258   3.073   7.293
  860TMC3    C112803   1.336   4.361  12.141
  860TMC3    C212804   1.275   4.263  12.064
  860TMC3    C312805   1.213   4.293  11.946
  860TMC3    C412806   1.349   4.485  12.096
  860TMC3    C512807   1.287   4.510  11.979
  860TMC3    C612808   1.222   4.420  11.898
  860TMC3     C12809   1.268   4.365  12.271
  860TMC3     O12810   1.223   4.473  12.306
  860TMC3     H12811   1.257   4.164  12.104
  860TMC3    H112812   1.381   4.566  12.160
  860TMC3    H212813   1.183   4.450  11.801
  860TMC3    C712814   1.248   4.648  11.960
  860TMC3    C812815   1.080   4.256  11.957
  860TMC3    O112816   1.309   4.745  12.005
  860TMC3    O212817   1.000   4.349  11.973
  861TMC3    C112818   0.530   1.287  12.489
  861TMC3    C212819   0.601   1.305  12.604
  861TMC3    C312820   0.549   1.388  12.705
  861TMC3    C412821   0.399   1.330  12.481
  861TMC3    C512822   0.348   1.403  12.579
  861TMC3    C612823   0.415   1.433  12.697
  861TMC3     C12824   0.564   1.161  12.433
  861TMC3     O12825   0.619   1.081  12.506
  861TMC3     H12826   0.700   1.261  12.614
  861TMC3    H112827   0.338   1.291  12.400
  861TMC3    H212828   0.375   1.503  12.769
  861TMC3    C712829   0.217   1.456  12.542
  861TMC3    C812830   0.607   1.382  12.841
  861TMC3    O112831   0.171   1.422  12.432
  861TMC3    O212832   0.536   1.409  12.938
  862TMC3    C112833   3.734   3.994  10.341
  862TMC3    C212834   3.751   3.871  10.282
  862TMC3    C312835   3.867   3.806  10.311
  862TMC3    C412836   3.838   4.054  10.411
  862TMC3    C512837   3.948   3.984  10.450
  862TMC3    C612838   3.964   3.855  10.395
  862TMC3     C12839   3.607   4.061  10.330
  862TMC3     O12840   3.575   4.150  10.411
  862TMC3     H12841   3.669   3.818  10.236
  862TMC3    H112842   3.819   4.152  10.451
  862TMC3    H212843   4.045   3.793  10.431
  862TMC3    C712844   4.074   4.044  10.434
  862TMC3    C812845   3.889   3.674  10.249
  862TMC3    O112846   4.171   3.975  10.464
  862TMC3    O212847   3.794   3.641  10.178
  863TMC3    C112848   0.105   1.158  10.137
  863TMC3    C212849   0.013   1.179  10.036
  863TMC3    C312850   4.770   1.305  10.016
  863TMC3    C412851   0.140   1.254  10.228
  863TMC3    C512852   0.106   1.380  10.191
  863TMC3    C612853   0.029   1.411  10.080
  863TMC3     C12854   0.111   1.023  10.197
  863TMC3     O12855   0.211   0.988  10.257
  863TMC3     H12856   4.785   1.093   9.975
  863TMC3    H112857   0.206   1.234  10.312
  863TMC3    H212858   4.784   1.510  10.061
  863TMC3    C712859   0.176   1.480  10.271
  863TMC3    C812860   4.625   1.319   9.994
  863TMC3    O112861   0.283   1.443  10.320
  863TMC3    O212862   4.564   1.407  10.048
  864TMC3    C112863   0.434   0.537   7.530
  864TMC3    C212864   0.312   0.524   7.578
  864TMC3    C312865   0.276   0.397   7.625
  864TMC3    C412866   0.528   0.443   7.523
  864TMC3    C512867   0.482   0.314   7.549
  864TMC3    C612868   0.360   0.288   7.606
  864TMC3     C12869   0.490   0.666   7.546
  864TMC3     O12870   0.587   0.666   7.618
  864TMC3     H12871   0.254   0.615   7.587
  864TMC3    H112872   0.632   0.457   7.495
  864TMC3    H212873   0.326   0.189   7.635
  864TMC3    C712874   0.565   0.210   7.503
  864TMC3    C812875   0.164   0.365   7.703
  864TMC3    O112876   0.570   0.105   7.563
  864TMC3    O212877   0.112   0.257   7.669
  865TMC3    C112878   3.987   1.190  12.135
  865TMC3    C212879   4.109   1.151  12.172
  865TMC3    C312880   4.177   1.215  12.272
  865TMC3    C412881   3.923   1.291  12.202
  865TMC3    C512882   3.987   1.343  12.305
  865TMC3    C612883   4.120   1.312  12.337
  865TMC3     C12884   3.905   1.087  12.066
  865TMC3     O12885   3.949   0.971  12.077
  865TMC3     H12886   4.159   1.060  12.140
  865TMC3    H112887   3.822   1.320  12.174
  865TMC3    H212888   4.169   1.360  12.421
  865TMC3    C712889   3.900   1.412  12.402
  865TMC3    C812890   4.296   1.143  12.325
  865TMC3    O112891   3.955   1.506  12.460
  865TMC3    O212892   4.394   1.123  12.258
  866TMC3    C112893   3.814   2.826  14.306
  866TMC3    C212894   3.861   2.882  14.423
  866TMC3    C312895   3.842   3.019  14.428
  866TMC3    C412896   3.751   2.893  14.203
  866TMC3    C512897   3.755   3.028  14.215
  866TMC3    C612898   3.784   3.095  14.335
  866TMC3     C12899   3.861   2.702  14.266
  866TMC3     O12900   3.791   2.633  14.190
  866TMC3     H12901   3.918   2.827  14.497
  866TMC3    H112902   3.755   2.845  14.105
  866TMC3    H212903   3.780   3.204  14.340
  866TMC3    C712904   3.723   3.112  14.107
  866TMC3    C812905   3.871   3.074  14.557
  866TMC3    O112906   3.768   3.223  14.100
  866TMC3    O212907   3.972   3.027  14.605
  867TMC3    C112908   2.974   2.985  11.143
  867TMC3    C212909   3.022   2.872  11.199
  867TMC3    C312910   3.141   2.887  11.269
  867TMC3    C412911   3.031   3.106  11.163
  867TMC3    C512912   3.144   3.119  11.234
  867TMC3    C612913   3.197   3.011  11.289
  867TMC3     C12914   2.900   2.960  11.016
  867TMC3     O12915   2.924   3.050  10.938
  867TMC3     H12916   2.981   2.775  11.175
  867TMC3    H112917   2.973   3.194  11.134
  867TMC3    H212918   3.289   3.017  11.345
  867TMC3    C712919   3.219   3.237  11.260
  867TMC3    C812920   3.179   2.773  11.344
  867TMC3    O112921   3.302   3.236  11.349
  867TMC3    O212922   3.090   2.706  11.381
  868TMC3    C112923   1.339   1.085  12.841
  868TMC3    C212924   1.417   1.144  12.744
  868TMC3    C312925   1.552   1.130  12.744
  868TMC3    C412926   1.401   1.021  12.946
  868TMC3    C512927   1.536   1.000  12.944
  868TMC3    C612928   1.606   1.057  12.843
  868TMC3     C12929   1.195   1.121  12.844
  868TMC3     O12930   1.144   1.159  12.738
  868TMC3     H12931   1.375   1.175  12.649
  868TMC3    H112932   1.342   1.000  13.035
  868TMC3    H212933   1.714   1.057  12.837
  868TMC3    C712934   1.604   0.956  13.065
  868TMC3    C812935   1.632   1.236  12.682
  868TMC3    O112936   1.528   0.890  13.140
  868TMC3    O212937   1.755   1.232  12.689
  869TMC3    C112938   4.394   1.690  11.649
  869TMC3    C212939   4.271   1.706  11.590
  869TMC3    C312940   4.206   1.829  11.613
  869TMC3    C412941   4.449   1.789  11.721
  869TMC3    C512942   4.386   1.907  11.738
  869TMC3    C612943   4.263   1.927  11.690
  869TMC3     C12944   4.472   1.570  11.630
  869TMC3     O12945   4.593   1.568  11.647
  869TMC3     H12946   4.219   1.640  11.521
  869TMC3    H112947   4.550   1.771  11.757
  869TMC3    H212948   4.220   2.023  11.715
  869TMC3    C712949   4.449   2.013  11.811
  869TMC3    C812950   4.060   1.830  11.589
  869TMC3    O112951   4.374   2.086  11.875
  869TMC3    O212952   4.014   1.720  11.586
  870TMC3    C112953   4.237   4.290  13.145
  870TMC3    C212954   4.336   4.229  13.076
  870TMC3    C312955   4.406   4.296  12.985
  870TMC3    C412956   4.195   4.416  13.116
  870TMC3    C512957   4.268   4.483  13.022
  870TMC3    C612958   4.374   4.426  12.953
  870TMC3     C12959   4.119   4.201  13.156
  870TMC3     O12960   4.021   4.239  13.224
  870TMC3     H12961   4.369   4.132  13.111
  870TMC3    H112962   4.099   4.448  13.153
  870TMC3    H212963   4.429   4.479  12.876
  870TMC3    C712964   4.231   4.619  12.982
  870TMC3    C812965   4.487   4.216  12.899
  870TMC3    O112966   4.243   4.634  12.858
  870TMC3    O212967   4.506   4.100  12.931
  871TMC3    C112968   3.482   0.900  14.119
  871TMC3    C212969   3.512   0.784  14.183
  871TMC3    C312970   3.635   0.726  14.174
  871TMC3    C412971   3.562   0.953  14.032
  871TMC3    C512972   3.683   0.893  14.018
  871TMC3    C612973   3.723   0.784  14.089
  871TMC3     C12974   3.350   0.955  14.137
  871TMC3     O12975   3.262   0.879  14.099
  871TMC3     H12976   3.438   0.743  14.250
  871TMC3    H112977   3.534   1.031  13.962
  871TMC3    H212978   3.818   0.733  14.081
  871TMC3    C712979   3.783   0.978  13.945
  871TMC3    C812980   3.693   0.653  14.287
  871TMC3    O112981   3.739   1.089  13.909
  871TMC3    O212982   3.816   0.632  14.291
  872TMC3    C112983   0.524   4.503  12.407
  872TMC3    C212984   0.616   4.519  12.510
  872TMC3    C312985   0.664   4.396  12.553
  872TMC3    C412986   0.505   4.395  12.320
  872TMC3    C512987   0.570   4.282  12.365
  872TMC3    C612988   0.636   4.278  12.485
  872TMC3     C12989   0.486   4.623  12.335
  872TMC3     O12990   0.491   4.625  12.215
  872TMC3     H12991   0.647   4.614  12.553
  872TMC3    H112992   0.465   4.402  12.220
  872TMC3    H212993   0.683   4.186  12.519
  872TMC3    C712994   0.651   4.228  12.266
  872TMC3    C812995   0.808   4.409  12.565
  872TMC3    O112996   0.652   4.286  12.158
  872TMC3    O212997   0.850   4.516  12.528
  873TMC3    C112998   0.270   3.039  11.611
  873TMC3    C212999   0.401   2.996  11.627
  873TMC3    C313000   0.421   2.864  11.598
  873TMC3    C413001   0.169   2.956  11.582
  873TMC3    C513002   0.198   2.819  11.565
  873TMC3    C613003   0.323   2.776  11.566
  873TMC3     C13004   0.232   3.179  11.625
  873TMC3     O13005   0.118   3.199  11.665
  873TMC3     H13006   0.476   3.070  11.651
  873TMC3    H113007   0.070   2.999  11.577
  873TMC3    H213008   0.347   2.671  11.554
  873TMC3    C713009   0.109   2.742  11.487
  873TMC3    C813010   0.539   2.794  11.646
  873TMC3    O113011   0.165   2.644  11.437
  873TMC3    O213012   0.517   2.689  11.705
  874TMC3    C113013   1.679   2.390   6.920
  874TMC3    C213014   1.811   2.361   6.900
  874TMC3    C313015   1.850   2.351   6.773
  874TMC3    C413016   1.596   2.414   6.816
  874TMC3    C513017   1.641   2.391   6.688
  874TMC3    C613018   1.770   2.353   6.663
  874TMC3     C13019   1.635   2.397   7.057
  874TMC3     O13020   1.725   2.402   7.141
  874TMC3     H13021   1.878   2.334   6.980
  874TMC3    H113022   1.490   2.430   6.831
  874TMC3    H213023   1.819   2.346   6.567
  874TMC3    C713024   1.540   2.334   6.599
  874TMC3    C813025   1.984   2.299   6.760
  874TMC3    O113026   1.421   2.348   6.624
  874TMC3    O213027   2.029   2.315   6.646
  875TMC3    C113028   2.407   4.027   9.623
  875TMC3    C213029   2.510   4.084   9.552
  875TMC3    C313030   2.542   4.029   9.430
  875TMC3    C413031   2.367   3.899   9.600
  875TMC3    C513032   2.416   3.835   9.483
  875TMC3    C613033   2.504   3.903   9.397
  875TMC3     C13034   2.294   4.117   9.599
  875TMC3     O13035   2.316   4.240   9.578
  875TMC3     H13036   2.554   4.177   9.586
  875TMC3    H113037   2.317   3.857   9.686
  875TMC3    H213038   2.548   3.860   9.308
  875TMC3    C713039   2.406   3.691   9.457
  875TMC3    C813040   2.561   4.129   9.328
  875TMC3    O113041   2.473   3.646   9.365
  875TMC3    O213042   2.613   4.101   9.220
  876TMC3    C113043   0.963   2.555  13.390
  876TMC3    C213044   0.933   2.632  13.280
  876TMC3    C313045   0.892   2.567  13.166
  876TMC3    C413046   0.940   2.418  13.391
  876TMC3    C513047   0.902   2.373  13.270
  876TMC3    C613048   0.865   2.435  13.157
  876TMC3     C13049   1.049   2.616  13.484
  876TMC3     O13050   1.093   2.723  13.451
  876TMC3     H13051   0.958   2.738  13.276
  876TMC3    H113052   0.964   2.342  13.465
  876TMC3    H213053   0.835   2.383  13.066
  876TMC3    C713054   0.844   2.245  13.279
  876TMC3    C813055   0.949   2.623  13.048
  876TMC3    O113056   0.776   2.229  13.379
  876TMC3    O213057   0.891   2.594  12.941
  877TMC3    C113058   1.927   2.893   6.906
  877TMC3    C213059   1.920   3.019   6.858
  877TMC3    C313060   1.795   3.071   6.830
  877TMC3    C413061   1.814   2.817   6.924
  877TMC3    C513062   1.698   2.869   6.895
  877TMC3    C613063   1.685   2.994   6.838
  877TMC3     C13064   2.054   2.825   6.908
  877TMC3     O13065   2.142   2.889   6.855
  877TMC3     H13066   2.008   3.082   6.862
  877TMC3    H113067   1.819   2.714   6.957
  877TMC3    H213068   1.586   3.039   6.826
  877TMC3    C713069   1.580   2.790   6.917
  877TMC3    C813070   1.795   3.191   6.751
  877TMC3    O113071   1.580   2.703   7.005
  877TMC3    O213072   1.894   3.263   6.756
  878TMC3    C113073   0.507   1.811  11.449
  878TMC3    C213074   0.434   1.853  11.556
  878TMC3    C313075   0.450   1.784  11.678
  878TMC3    C413076   0.588   1.701  11.449
  878TMC3    C513077   0.594   1.632  11.566
  878TMC3    C613078   0.522   1.668  11.674
  878TMC3     C13079   0.478   1.889  11.329
  878TMC3     O13080   0.445   2.006  11.360
  878TMC3     H13081   0.381   1.947  11.563
  878TMC3    H113082   0.642   1.673  11.359
  878TMC3    H213083   0.538   1.612  11.765
  878TMC3    C713084   0.672   1.506  11.565
  878TMC3    C813085   0.456   1.864  11.798
  878TMC3    O113086   0.763   1.502  11.481
  878TMC3    O213087   0.369   1.947  11.814
  879TMC3    C113088   4.757   4.622  12.393
  879TMC3    C213089   0.053   4.530  12.354
  879TMC3    C313090   0.037   4.477  12.230
  879TMC3    C413091   4.669   4.677  12.308
  879TMC3    C513092   4.661   4.627  12.178
  879TMC3    C613093   4.738   4.520  12.140
  879TMC3     C13094   4.747   4.663  12.536
  879TMC3     O13095   4.726   4.778  12.564
  879TMC3     H13096   0.133   4.495  12.418
  879TMC3    H113097   4.616   4.760  12.351
  879TMC3    H213098   4.731   4.486  12.037
  879TMC3    C713099   4.554   4.668  12.086
  879TMC3    C813100   0.130   4.369  12.196
  879TMC3    O113101   4.566   4.648  11.965
  879TMC3    O213102   0.225   4.364  12.267
  880TMC3    C113103   3.405   0.412   8.874
  880TMC3    C213104   3.531   0.449   8.843
  880TMC3    C313105   3.631   0.436   8.941
  880TMC3    C413106   3.371   0.355   8.993
  880TMC3    C513107   3.474   0.335   9.079
  880TMC3    C613108   3.601   0.381   9.057
  880TMC3     C13109   3.322   0.515   8.829
  880TMC3     O13110   3.377   0.623   8.805
  880TMC3     H13111   3.565   0.495   8.751
  880TMC3    H113112   3.271   0.320   9.016
  880TMC3    H213113   3.679   0.375   9.132
  880TMC3    C713114   3.433   0.281   9.210
  880TMC3    C813115   3.699   0.562   8.967
  880TMC3    O113116   3.318   0.241   9.216
  880TMC3    O213117   3.804   0.550   9.025
  881TMC3    C113118   1.506   2.870  10.035
  881TMC3    C213119   1.437   2.780   9.962
  881TMC3    C313120   1.343   2.833   9.874
  881TMC3    C413121   1.483   3.000  10.040
  881TMC3    C513122   1.388   3.056   9.962
  881TMC3    C613123   1.324   2.971   9.872
  881TMC3     C13124   1.645   2.842  10.049
  881TMC3     O13125   1.716   2.939  10.078
  881TMC3     H13126   1.463   2.676   9.947
  881TMC3    H113127   1.543   3.069  10.097
  881TMC3    H213128   1.270   3.029   9.798
  881TMC3    C713129   1.426   3.181   9.900
  881TMC3    C813130   1.359   2.784   9.744
  881TMC3    O113131   1.448   3.160   9.782
  881TMC3    O213132   1.360   2.659   9.742
  882TMC3    C113133   0.825   0.332   7.762
  882TMC3    C213134   0.888   0.436   7.690
  882TMC3    C313135   0.956   0.394   7.577
  882TMC3    C413136   0.842   0.194   7.732
  882TMC3    C513137   0.901   0.162   7.611
  882TMC3    C613138   0.958   0.264   7.535
  882TMC3     C13139   0.743   0.375   7.868
  882TMC3     O13140   0.746   0.495   7.888
  882TMC3     H13141   0.900   0.534   7.733
  882TMC3    H113142   0.793   0.110   7.780
  882TMC3    H213143   1.003   0.247   7.437
  882TMC3    C713144   1.008   0.056   7.648
  882TMC3    C813145   1.049   0.482   7.516
  882TMC3    O113146   0.992   4.759   7.728
  882TMC3    O213147   1.152   0.436   7.468
  883TMC3    C113148   3.488   4.424  13.100
  883TMC3    C213149   3.441   4.522  13.014
  883TMC3    C313150   3.467   4.507  12.885
  883TMC3    C413151   3.542   4.311  13.049
  883TMC3    C513152   3.578   4.300  12.919
  883TMC3    C613153   3.547   4.403  12.829
  883TMC3     C13154   3.455   4.427  13.244
  883TMC3     O13155   3.478   4.328  13.315
  883TMC3     H13156   3.388   4.613  13.040
  883TMC3    H113157   3.573   4.234  13.118
  883TMC3    H213158   3.558   4.394  12.722
  883TMC3    C713159   3.636   4.181  12.864
  883TMC3    C813160   3.386   4.593  12.794
  883TMC3    O113161   3.694   4.197  12.757
  883TMC3    O213162   3.299   4.669  12.833
  884TMC3    C113163   4.758   0.209  12.036
  884TMC3    C213164   4.695   0.238  12.156
  884TMC3    C313165   4.587   0.315  12.149
  884TMC3    C413166   4.721   0.256  11.916
  884TMC3    C513167   4.602   0.324  11.918
  884TMC3    C613168   4.529   0.359  12.029
  884TMC3     C13169   0.058   0.098  12.045
  884TMC3     O13170   0.102   0.062  12.152
  884TMC3     H13171   4.715   0.175  12.241
  884TMC3    H113172   4.770   0.230  11.823
  884TMC3    H213173   4.436   0.415  12.025
  884TMC3    C713174   4.537   0.338  11.790
  884TMC3    C813175   4.498   0.300  12.260
  884TMC3    O113176   4.609   0.323  11.687
  884TMC3    O213177   4.377   0.289  12.242
  885TMC3    C113178   3.650   4.168  11.465
  885TMC3    C213179   3.780   4.203  11.487
  885TMC3    C313180   3.830   4.322  11.436
  885TMC3    C413181   3.566   4.254  11.399
  885TMC3    C513182   3.627   4.369  11.355
  885TMC3    C613183   3.755   4.405  11.362
  885TMC3     C13184   3.607   4.028  11.480
  885TMC3     O13185   3.495   3.997  11.437
  885TMC3     H13186   3.854   4.131  11.520
  885TMC3    H113187   3.463   4.230  11.376
  885TMC3    H213188   3.793   4.502  11.331
  885TMC3    C713189   3.549   4.458  11.277
  885TMC3    C813190   3.944   4.384  11.493
  885TMC3    O113191   3.438   4.497  11.320
  885TMC3    O213192   3.982   4.490  11.451
  886TMC3    C113193   0.141   4.152  11.339
  886TMC3    C213194   0.132   4.217  11.459
  886TMC3    C313195   0.024   4.301  11.484
  886TMC3    C413196   0.050   4.153  11.236
  886TMC3    C513197   4.739   4.236  11.268
  886TMC3    C613198   4.730   4.312  11.380
  886TMC3     C13199   0.255   4.063  11.315
  886TMC3     O13200   0.231   3.968  11.241
  886TMC3     H13201   0.212   4.208  11.531
  886TMC3    H113202   0.070   4.107  11.140
  886TMC3    H213203   4.637   4.362  11.403
  886TMC3    C713204   4.621   4.252  11.180
  886TMC3    C813205   0.029   4.413  11.591
  886TMC3    O113206   4.538   4.339  11.200
  886TMC3    O213207   4.750   4.511  11.577
  887TMC3    C113208   3.224   3.812   9.061
  887TMC3    C213209   3.303   3.790   8.952
  887TMC3    C313210   3.269   3.850   8.836
  887TMC3    C413211   3.100   3.876   9.058
  887TMC3    C513212   3.064   3.919   8.932
  887TMC3    C613213   3.148   3.918   8.825
  887TMC3     C13214   3.236   3.731   9.186
  887TMC3     O13215   3.134   3.727   9.254
  887TMC3     H13216   3.398   3.739   8.960
  887TMC3    H113217   3.032   3.888   9.141
  887TMC3    H213218   3.110   3.965   8.735
  887TMC3    C713219   2.924   3.944   8.907
  887TMC3    C813220   3.361   3.854   8.722
  887TMC3    O113221   2.860   4.015   8.986
  887TMC3    O213222   3.450   3.766   8.720
  888TMC3    C113223   3.293   2.565  13.359
  888TMC3    C213224   3.168   2.526  13.306
  888TMC3    C313225   3.148   2.394  13.300
  888TMC3    C413226   3.381   2.475  13.424
  888TMC3    C513227   3.345   2.345  13.420
  888TMC3    C613228   3.227   2.298  13.362
  888TMC3     C13229   3.336   2.701  13.366
  888TMC3     O13230   3.448   2.722  13.422
  888TMC3     H13231   3.100   2.597  13.260
  888TMC3    H113232   3.466   2.505  13.483
  888TMC3    H213233   3.193   2.196  13.370
  888TMC3    C713234   3.408   2.267  13.525
  888TMC3    C813235   3.011   2.355  13.290
  888TMC3    O113236   3.471   2.323  13.614
  888TMC3    O213237   2.990   2.238  13.265
  889TMC3    C113238   0.540   0.731  13.975
  889TMC3    C213239   0.614   0.839  14.000
  889TMC3    C313240   0.621   0.874  14.133
  889TMC3    C413241   0.480   0.660  14.075
  889TMC3    C513242   0.483   0.706  14.202
  889TMC3    C613243   0.550   0.819  14.236
  889TMC3     C13244   0.576   0.663  13.855
  889TMC3     O13245   0.500   0.573  13.814
  889TMC3     H13246   0.655   0.915  13.934
  889TMC3    H113247   0.404   0.592  14.038
  889TMC3    H213248   0.561   0.847  14.340
  889TMC3    C713249   0.357   0.678  14.274
  889TMC3    C813250   0.752   0.919  14.172
  889TMC3    O113251   0.306   0.773  14.331
  889TMC3    O213252   0.838   0.898  14.085
  890TMC3    C113253   0.200   1.451   7.369
  890TMC3    C213254   0.246   1.575   7.414
  890TMC3    C313255   0.288   1.672   7.320
  890TMC3    C413256   0.174   1.437   7.238
  890TMC3    C513257   0.221   1.528   7.149
  890TMC3    C613258   0.271   1.650   7.189
  890TMC3     C13259   0.217   1.337   7.463
  890TMC3     O13260   0.209   1.367   7.581
  890TMC3     H13261   0.286   1.590   7.513
  890TMC3    H113262   0.138   1.342   7.198
  890TMC3    H213263   0.307   1.716   7.111
  890TMC3    C713264   0.232   1.504   7.008
  890TMC3    C813265   0.369   1.781   7.376
  890TMC3    O113266   0.179   1.588   6.933
  890TMC3    O213267   0.344   1.837   7.481
  891TMC3    C113268   2.165   1.124  11.313
  891TMC3    C213269   2.161   1.258  11.296
  891TMC3    C313270   2.249   1.333  11.371
  891TMC3    C413271   2.254   1.066  11.404
  891TMC3    C513272   2.335   1.139  11.487
  891TMC3    C613273   2.336   1.275  11.466
  891TMC3     C13274   2.042   1.053  11.302
  891TMC3     O13275   1.946   1.130  11.307
  891TMC3     H13276   2.098   1.302  11.219
  891TMC3    H113277   2.246   0.962  11.432
  891TMC3    H213278   2.399   1.341  11.525
  891TMC3    C713279   2.453   1.086  11.549
  891TMC3    C813280   2.242   1.471  11.357
  891TMC3    O113281   2.564   1.135  11.535
  891TMC3    O213282   2.271   1.546  11.449
  892TMC3    C113283   0.236   1.145  11.072
  892TMC3    C213284   0.128   1.231  11.096
  892TMC3    C313285   0.149   1.364  11.075
  892TMC3    C413286   0.348   1.178  10.997
  892TMC3    C513287   0.358   1.310  10.965
  892TMC3    C613288   0.268   1.404  11.012
  892TMC3     C13289   0.237   1.027  11.161
  892TMC3     O13290   0.131   0.985  11.210
  892TMC3     H13291   0.036   1.188  11.134
  892TMC3    H113292   0.435   1.117  10.975
  892TMC3    H213293   0.279   1.507  10.979
  892TMC3    C713294   0.485   1.372  10.921
  892TMC3    C813295   0.028   1.442  11.037
  892TMC3    O113296   0.505   1.487  10.961
  892TMC3    O213297   0.043   1.530  10.951
  893TMC3    C113298   3.524   3.411  10.135
  893TMC3    C213299   3.531   3.298  10.210
  893TMC3    C313300   3.470   3.307  10.332
  893TMC3    C413301   3.467   3.530  10.179
  893TMC3    C513302   3.393   3.533  10.288
  893TMC3    C613303   3.401   3.421  10.366
  893TMC3     C13304   3.576   3.402   9.997
  893TMC3     O13305   3.505   3.338   9.923
  893TMC3     H13306   3.588   3.215  10.171
  893TMC3    H113307   3.479   3.618  10.117
  893TMC3    H213308   3.352   3.432  10.462
  893TMC3    C713309   3.389   3.650  10.374
  893TMC3    C813310   3.506   3.218  10.439
  893TMC3    O113311   3.484   3.724  10.390
  893TMC3    O213312   3.598   3.135  10.441
  894TMC3    C113313   2.925   4.413  14.621
  894TMC3    C213314   3.007   4.309  14.587
  894TMC3    C313315   3.022   4.265  14.458
  894TMC3    C413316   2.879   4.493  14.513
  894TMC3    C513317   2.915   4.457  14.380
  894TMC3    C613318   2.971   4.336  14.357
  894TMC3     C13319   2.912   4.471  14.754
  894TMC3     O13320   2.815   4.548  14.771
  894TMC3     H13321   3.051   4.259  14.672
  894TMC3    H113322   2.822   4.580  14.542
  894TMC3    H213323   2.984   4.304  14.254
  894TMC3    C713324   2.889   4.543  14.261
  894TMC3    C813325   3.041   4.123  14.436
  894TMC3    O113326   2.946   4.508  14.152
  894TMC3    O213327   2.980   4.073  14.340
  895TMC3    C113328   3.250   3.325  13.853
  895TMC3    C213329   3.195   3.223  13.921
  895TMC3    C313330   3.234   3.216  14.058
  895TMC3    C413331   3.350   3.407  13.904
  895TMC3    C513332   3.371   3.405  14.038
  895TMC3    C613333   3.319   3.309  14.119
  895TMC3     C13334   3.231   3.321  13.709
  895TMC3     O13335   3.205   3.216  13.656
  895TMC3     H13336   3.106   3.170  13.891
  895TMC3    H113337   3.408   3.473  13.840
  895TMC3    H213338   3.348   3.293  14.223
  895TMC3    C713339   3.382   3.536  14.106
  895TMC3    C813340   3.162   3.123  14.139
  895TMC3    O113341   3.350   3.548  14.223
  895TMC3    O213342   3.140   3.008  14.097
  896TMC3    C113343   2.062   2.260   8.758
  896TMC3    C213344   1.995   2.193   8.859
  896TMC3    C313345   1.933   2.268   8.954
  896TMC3    C413346   2.033   2.388   8.729
  896TMC3    C513347   1.948   2.459   8.809
  896TMC3    C613348   1.891   2.398   8.916
  896TMC3     C13349   2.109   2.181   8.651
  896TMC3     O13350   2.217   2.210   8.600
  896TMC3     H13351   2.021   2.088   8.867
  896TMC3    H113352   2.075   2.427   8.637
  896TMC3    H213353   1.810   2.444   8.971
  896TMC3    C713354   1.878   2.566   8.747
  896TMC3    C813355   1.833   2.204   9.038
  896TMC3    O113356   1.771   2.599   8.797
  896TMC3    O213357   1.789   2.104   8.986
  897TMC3    C113358   2.656   2.088  14.835
  897TMC3    C213359   2.629   2.219  14.804
  897TMC3    C313360   2.741   2.303  14.784
  897TMC3    C413361   2.781   2.048  14.880
  897TMC3    C513362   2.886   2.138  14.879
  897TMC3    C613363   2.867   2.263  14.822
  897TMC3     C13364   2.544   2.008  14.879
  897TMC3     O13365   2.567   1.936  14.975
  897TMC3     H13366   2.532   2.251  14.768
  897TMC3    H113367   2.783   1.941  14.900
  897TMC3    H213368   2.946   2.337  14.832
  897TMC3    C713369   3.012   2.081  14.838
  897TMC3    C813370   2.733   2.397  14.669
  897TMC3    O113371   3.076   2.145  14.755
  897TMC3    O213372   2.620   2.433  14.628
  898TMC3    C113373   2.814   0.149   9.717
  898TMC3    C213374   2.945   0.168   9.719
  898TMC3    C313375   3.028   0.090   9.800
  898TMC3    C413376   2.760   0.042   9.783
  898TMC3    C513377   2.835   4.760   9.875
  898TMC3    C613378   2.969   4.792   9.883
  898TMC3     C13379   2.738   0.269   9.760
  898TMC3     O13380   2.629   0.243   9.808
  898TMC3     H13381   2.987   0.254   9.668
  898TMC3    H113382   2.654   0.023   9.772
  898TMC3    H213383   3.035   4.739   9.951
  898TMC3    C713384   2.769   4.745   9.995
  898TMC3    C813385   3.174   0.109   9.801
  898TMC3    O113386   2.793   4.653  10.077
  898TMC3    O213387   3.229   0.073   9.903
  899TMC3    C113388   0.843   2.887   8.438
  899TMC3    C213389   0.717   2.849   8.403
  899TMC3    C313390   0.697   2.714   8.421
  899TMC3    C413391   0.929   2.823   8.513
  899TMC3    C513392   0.900   2.694   8.540
  899TMC3    C613393   0.787   2.634   8.488
  899TMC3     C13394   0.887   3.015   8.382
  899TMC3     O13395   0.812   3.114   8.410
  899TMC3     H13396   0.651   2.910   8.344
  899TMC3    H113397   1.019   2.871   8.549
  899TMC3    H213398   0.768   2.529   8.511
  899TMC3    C713399   0.912   2.685   8.684
  899TMC3    C813400   0.555   2.669   8.437
  899TMC3    O113401   1.015   2.716   8.746
  899TMC3    O213402   0.474   2.749   8.478
  900TMC3    C113403   3.439   1.484  12.043
  900TMC3    C213404   3.454   1.615  11.998
  900TMC3    C313405   3.459   1.623  11.860
  900TMC3    C413406   3.426   1.374  11.966
  900TMC3    C513407   3.416   1.386  11.827
  900TMC3    C613408   3.442   1.509  11.775
  900TMC3     C13409   3.422   1.473  12.192
  900TMC3     O13410   3.463   1.374  12.252
  900TMC3     H13411   3.477   1.700  12.061
  900TMC3    H113412   3.404   1.279  12.014
  900TMC3    H213413   3.409   1.532  11.674
  900TMC3    C713414   3.361   1.284  11.735
  900TMC3    C813415   3.436   1.749  11.795
  900TMC3    O113416   3.292   1.324  11.644
  900TMC3    O213417   3.351   1.752  11.711
  901TMC3    C113418   0.350   1.106  11.554
  901TMC3    C213419   0.219   1.105  11.512
  901TMC3    C313420   0.142   1.027  11.586
  901TMC3    C413421   0.401   1.030  11.652
  901TMC3    C513422   0.315   0.947  11.720
  901TMC3    C613423   0.181   0.954  11.695
  901TMC3     C13424   0.452   1.189  11.486
  901TMC3     O13425   0.561   1.136  11.485
  901TMC3     H13426   0.188   1.153  11.420
  901TMC3    H113427   0.507   1.026  11.674
  901TMC3    H213428   0.112   0.902  11.760
  901TMC3    C713429   0.344   0.938  11.861
  901TMC3    C813430   4.790   1.026  11.559
  901TMC3    O113431   0.253   0.972  11.935
  901TMC3    O213432   4.724   0.935  11.608
  902TMC3    C113433   3.738   0.166  13.996
  902TMC3    C213434   3.676   0.232  14.100
  902TMC3    C313435   3.548   0.267  14.087
  902TMC3    C413436   3.667   0.134  13.878
  902TMC3    C513437   3.536   0.169  13.873
  902TMC3    C613438   3.477   0.237  13.975
  902TMC3     C13439   3.864   0.106  14.022
  902TMC3     O13440   3.913   0.096  14.132
  902TMC3     H13441   3.733   0.252  14.190
  902TMC3    H113442   3.705   0.064  13.805
  902TMC3    H213443   3.369   0.246  13.968
  902TMC3    C713444   3.450   0.068  13.822
  902TMC3    C813445   3.493   0.336  14.198
  902TMC3    O113446   3.371   0.019  13.897
  902TMC3    O213447   3.531   0.312  14.311
  903TMC3    C113448   1.533   2.320  12.216
  903TMC3    C213449   1.476   2.300  12.094
  903TMC3    C313450   1.343   2.257  12.094
  903TMC3    C413451   1.461   2.312  12.337
  903TMC3    C513452   1.341   2.248  12.327
  903TMC3    C613453   1.282   2.213  12.205
  903TMC3     C13454   1.663   2.285  12.225
  903TMC3     O13455   1.715   2.286  12.336
  903TMC3     H13456   1.520   2.315  11.997
  903TMC3    H113457   1.517   2.326  12.429
  903TMC3    H213458   1.184   2.167  12.206
  903TMC3    C713459   1.309   2.195  12.456
  903TMC3    C813460   1.264   2.258  11.979
  903TMC3    O113461   1.370   2.244  12.551
  903TMC3    O213462   1.325   2.237  11.875
  904TMC3    C113463   2.818   3.331  12.100
  904TMC3    C213464   2.946   3.337  12.147
  904TMC3    C313465   3.012   3.222  12.171
  904TMC3    C413466   2.761   3.209  12.085
  904TMC3    C513467   2.837   3.098  12.092
  904TMC3    C613468   2.967   3.100  12.140
  904TMC3     C13469   2.724   3.435  12.130
  904TMC3     O13470   2.608   3.403  12.150
  904TMC3     H13471   2.997   3.431  12.167
  904TMC3    H113472   2.656   3.204  12.055
  904TMC3    H213473   3.035   3.017  12.155
  904TMC3    C713474   2.780   2.965  12.059
  904TMC3    C813475   3.145   3.211  12.224
  904TMC3    O113476   2.703   2.952  11.966
  904TMC3    O213477   3.224   3.134  12.169
  905TMC3    C113478   2.204   0.605   7.644
  905TMC3    C213479   2.106   0.576   7.736
  905TMC3    C313480   2.010   0.480   7.701
  905TMC3    C413481   2.232   0.528   7.536
  905TMC3    C513482   2.140   0.430   7.506
  905TMC3    C613483   2.028   0.398   7.592
  905TMC3     C13484   2.305   0.704   7.682
  905TMC3     O13485   2.399   0.705   7.606
  905TMC3     H13486   2.089   0.637   7.823
  905TMC3    H113487   2.315   0.545   7.468
  905TMC3    H213488   1.964   0.312   7.583
  905TMC3    C713489   2.201   0.327   7.421
  905TMC3    C813490   1.917   0.450   7.810
  905TMC3    O113491   2.307   0.287   7.456
  905TMC3    O213492   1.963   0.460   7.920
  906TMC3    C113493   2.842   3.106  10.511
  906TMC3    C213494   2.717   3.101  10.460
  906TMC3    C313495   2.618   3.192  10.485
  906TMC3    C413496   2.872   3.214  10.587
  906TMC3    C513497   2.773   3.298  10.622
  906TMC3    C613498   2.642   3.285  10.587
  906TMC3     C13499   2.925   2.990  10.496
  906TMC3     O13500   2.862   2.893  10.462
  906TMC3     H13501   2.684   3.016  10.401
  906TMC3    H113502   2.965   3.224  10.641
  906TMC3    H213503   2.573   3.362  10.618
  906TMC3    C713504   2.797   3.412  10.709
  906TMC3    C813505   2.591   3.255  10.354
  906TMC3    O113506   2.750   3.393  10.821
  906TMC3    O213507   2.669   3.235  10.264
  907TMC3    C113508   3.209   0.601  11.381
  907TMC3    C213509   3.259   0.712  11.320
  907TMC3    C313510   3.365   0.701  11.229
  907TMC3    C413511   3.275   0.484  11.371
  907TMC3    C513512   3.372   0.475  11.278
  907TMC3    C613513   3.414   0.580  11.199
  907TMC3     C13514   3.069   0.581  11.352
  907TMC3     O13515   3.035   0.639  11.247
  907TMC3     H13516   3.212   0.809  11.331
  907TMC3    H113517   3.252   0.406  11.441
  907TMC3    H213518   3.501   0.575  11.135
  907TMC3    C713519   3.427   0.345  11.242
  907TMC3    C813520   3.458   0.814  11.222
  907TMC3    O113521   3.462   0.275  11.338
  907TMC3    O213522   3.494   0.863  11.328
  908TMC3    C113523   3.062   3.445   9.762
  908TMC3    C213524   3.133   3.368   9.856
  908TMC3    C313525   3.059   3.327   9.964
  908TMC3    C413526   2.925   3.456   9.771
  908TMC3    C513527   2.861   3.408   9.878
  908TMC3    C613528   2.921   3.342   9.977
  908TMC3     C13529   3.129   3.525   9.659
  908TMC3     O13530   3.073   3.618   9.603
  908TMC3     H13531   3.238   3.340   9.858
  908TMC3    H113532   2.877   3.512   9.692
  908TMC3    H213533   2.863   3.310  10.063
  908TMC3    C713534   2.719   3.395   9.868
  908TMC3    C813535   3.112   3.233  10.064
  908TMC3    O113536   2.653   3.499   9.850
  908TMC3    O213537   3.069   3.237  10.175
  909TMC3    C113538   1.913   0.397  12.903
  909TMC3    C213539   2.037   0.361  12.891
  909TMC3    C313540   2.087   0.249  12.959
  909TMC3    C413541   1.823   0.327  12.979
  909TMC3    C513542   1.863   0.212  13.038
  909TMC3    C613543   1.999   0.168  13.031
  909TMC3     C13544   1.864   0.520  12.839
  909TMC3     O13545   1.754   0.518  12.785
  909TMC3     H13546   2.114   0.395  12.823
  909TMC3    H113547   1.718   0.355  12.990
  909TMC3    H213548   2.011   0.064  13.059
  909TMC3    C713549   1.766   0.155  13.138
  909TMC3    C813550   2.215   0.181  12.904
  909TMC3    O113551   1.760   0.036  13.141
  909TMC3    O213552   2.304   0.251  12.856
  910TMC3    C113553   2.333   4.615  11.538
  910TMC3    C213554   2.335   4.556  11.418
  910TMC3    C313555   2.256   4.618  11.321
  910TMC3    C413556   2.258   4.731  11.564
  910TMC3    C513557   2.178   4.792  11.468
  910TMC3    C613558   2.181   4.732  11.346
  910TMC3     C13559   2.418   4.559  11.643
  910TMC3     O13560   2.495   4.639  11.695
  910TMC3     H13561   2.401   4.475  11.387
  910TMC3    H113562   2.242   4.767  11.665
  910TMC3    H213563   2.115   4.770  11.269
  910TMC3    C713564   2.056   0.056  11.523
  910TMC3    C813565   2.199   4.539  11.210
  910TMC3    O113566   2.066   0.126  11.625
  910TMC3    O213567   2.210   4.587  11.100
  911TMC3    C113568   2.060   2.540   7.554
  911TMC3    C213569   2.077   2.551   7.687
  911TMC3    C313570   2.185   2.491   7.747
  911TMC3    C413571   2.152   2.471   7.482
  911TMC3    C513572   2.268   2.418   7.540
  911TMC3    C613573   2.283   2.429   7.674
  911TMC3     C13574   1.920   2.507   7.517
  911TMC3     O13575   1.837   2.559   7.584
  911TMC3     H13576   2.001   2.600   7.746
  911TMC3    H113577   2.138   2.459   7.376
  911TMC3    H213578   2.378   2.404   7.719
  911TMC3    C713579   2.383   2.433   7.456
  911TMC3    C813580   2.179   2.480   7.892
  911TMC3    O113581   2.377   2.534   7.389
  911TMC3    O213582   2.275   2.429   7.947
  912TMC3    C113583   4.684   4.262   9.384
  912TMC3    C213584   0.011   4.244   9.438
  912TMC3    C313585   0.026   4.239   9.575
  912TMC3    C413586   4.569   4.238   9.458
  912TMC3    C513587   4.586   4.227   9.593
  912TMC3    C613588   4.710   4.223   9.658
  912TMC3     C13589   4.672   4.361   9.278
  912TMC3     O13590   4.765   4.440   9.285
  912TMC3     H13591   0.089   4.246   9.363
  912TMC3    H113592   4.472   4.267   9.420
  912TMC3    H213593   4.721   4.246   9.764
  912TMC3    C713594   4.485   4.135   9.647
  912TMC3    C813595   0.149   4.268   9.655
  912TMC3    O113596   4.485   4.118   9.766
  912TMC3    O213597   0.140   4.277   9.777
  913TMC3    C113598   3.955   2.865  12.782
  913TMC3    C213599   4.072   2.807  12.742
  913TMC3    C313600   4.180   2.881  12.708
  913TMC3    C413601   3.944   3.003  12.775
  913TMC3    C513602   4.056   3.078  12.740
  913TMC3    C613603   4.170   3.016  12.703
  913TMC3     C13604   3.834   2.793  12.735
  913TMC3     O13605   3.851   2.687  12.676
  913TMC3     H13606   4.081   2.700  12.733
  913TMC3    H113607   3.846   3.047  12.794
  913TMC3    H213608   4.264   3.071  12.698
  913TMC3    C713609   4.034   3.218  12.715
  913TMC3    C813610   4.262   2.830  12.597
  913TMC3    O113611   3.942   3.274  12.770
  913TMC3    O213612   4.379   2.802  12.623
  914TMC3    C113613   0.342   1.640  13.975
  914TMC3    C213614   0.344   1.532  13.889
  914TMC3    C313615   0.241   1.451  13.887
  914TMC3    C413616   0.242   1.665  14.059
  914TMC3    C513617   0.156   1.560  14.072
  914TMC3    C613618   0.142   1.468  13.982
  914TMC3     C13619   0.475   1.698  14.012
  914TMC3     O13620   0.568   1.620  14.024
  914TMC3     H13621   0.437   1.501  13.843
  914TMC3    H113622   0.264   1.740  14.135
  914TMC3    H213623   0.061   1.396  13.991
  914TMC3    C713624   0.062   1.593  14.182
  914TMC3    C813625   0.210   1.355  13.780
  914TMC3    O113626   0.074   1.708  14.225
  914TMC3    O213627   0.134   1.260  13.802
  915TMC3    C113628   1.866   1.654  10.643
  915TMC3    C213629   1.864   1.679  10.511
  915TMC3    C313630   1.747   1.638  10.440
  915TMC3    C413631   1.754   1.605  10.706
  915TMC3    C513632   1.649   1.565  10.638
  915TMC3    C613633   1.638   1.591  10.507
  915TMC3     C13634   1.983   1.589  10.689
  915TMC3     O13635   2.096   1.623  10.654
  915TMC3     H13636   1.947   1.721  10.456
  915TMC3    H113637   1.752   1.588  10.813
  915TMC3    H213638   1.545   1.562  10.460
  915TMC3    C713639   1.586   1.449  10.691
  915TMC3    C813640   1.751   1.610  10.300
  915TMC3    O113641   1.660   1.370  10.748
  915TMC3    O213642   1.693   1.515  10.255
  916TMC3    C113643   2.374   2.753  13.967
  916TMC3    C213644   2.439   2.741  13.852
  916TMC3    C313645   2.577   2.719  13.851
  916TMC3    C413646   2.434   2.739  14.085
  916TMC3    C513647   2.573   2.725  14.084
  916TMC3    C613648   2.642   2.701  13.966
  916TMC3     C13649   2.231   2.796  13.966
  916TMC3     O13650   2.167   2.785  13.865
  916TMC3     H13651   2.379   2.756  13.763
  916TMC3    H113652   2.377   2.715  14.174
  916TMC3    H213653   2.749   2.684  13.968
  916TMC3    C713654   2.630   2.674  14.208
  916TMC3    C813655   2.656   2.679  13.735
  916TMC3    O113656   2.548   2.658  14.298
  916TMC3    O213657   2.777   2.684  13.743
  917TMC3    C113658   2.774   3.705  11.671
  917TMC3    C213659   2.850   3.695  11.773
  917TMC3    C313660   2.984   3.712  11.759
  917TMC3    C413661   2.833   3.729  11.547
  917TMC3    C513662   2.968   3.748  11.536
  917TMC3    C613663   3.050   3.747  11.646
  917TMC3     C13664   2.697   3.584  11.646
  917TMC3     O13665   2.623   3.579  11.548
  917TMC3     H13666   2.806   3.677  11.870
  917TMC3    H113667   2.768   3.721  11.460
  917TMC3    H213668   3.150   3.709  11.630
  917TMC3    C713669   3.023   3.759  11.393
  917TMC3    C813670   3.054   3.658  11.872
  917TMC3    O113671   3.077   3.863  11.376
  917TMC3    O213672   2.989   3.571  11.927
  918TMC3    C113673   4.148   0.369  10.018
  918TMC3    C213674   4.238   0.437  10.093
  918TMC3    C313675   4.272   0.565  10.050
  918TMC3    C413676   4.079   0.416   9.905
  918TMC3    C513677   4.114   0.546   9.874
  918TMC3    C613678   4.197   0.622   9.945
  918TMC3     C13679   4.122   0.231  10.070
  918TMC3     O13680   4.212   0.165  10.120
  918TMC3     H13681   4.298   0.396  10.174
  918TMC3    H113682   4.029   0.350   9.834
  918TMC3    H213683   4.214   0.721   9.904
  918TMC3    C713684   4.076   0.589   9.738
  918TMC3    C813685   4.365   0.657  10.114
  918TMC3    O113686   4.149   0.657   9.670
  918TMC3    O213687   4.379   0.767  10.057
  919TMC3    C113688   1.132   2.907  15.107
  919TMC3    C213689   1.211   2.940  14.998
  919TMC3    C313690   1.344   2.903  15.002
  919TMC3    C413691   1.181   2.839  15.215
  919TMC3    C513692   1.312   2.812  15.226
  919TMC3    C613693   1.390   2.849  15.118
  919TMC3     C13694   1.020   2.992  15.135
  919TMC3     O13695   1.004   3.011  15.255
  919TMC3     H13696   1.162   2.963  14.905
  919TMC3    H113697   1.109   2.812  15.291
  919TMC3    H213698   1.491   2.810  15.116
  919TMC3    C713699   1.333   2.671  15.253
  919TMC3    C813700   1.379   2.835  14.877
  919TMC3    O113701   1.448   2.632  15.287
  919TMC3    O213702   1.292   2.820  14.794
  920TMC3    C113703   0.956   1.940   6.388
  920TMC3    C213704   0.917   1.810   6.372
  920TMC3    C313705   0.891   1.738   6.489
  920TMC3    C413706   0.979   1.997   6.509
  920TMC3    C513707   0.955   1.919   6.620
  920TMC3    C613708   0.913   1.788   6.614
  920TMC3     C13709   1.079   1.970   6.309
  920TMC3     O13710   1.092   1.918   6.198
  920TMC3     H13711   0.912   1.769   6.272
  920TMC3    H113712   0.983   2.104   6.523
  920TMC3    H213713   0.912   1.715   6.694
  920TMC3    C713714   1.034   1.954   6.733
  920TMC3    C813715   0.862   1.590   6.473
  920TMC3    O113716   1.135   2.026   6.720
  920TMC3    O213717   0.899   1.511   6.560
  921TMC3    C113718   1.196   1.172   9.160
  921TMC3    C213719   1.145   1.289   9.111
  921TMC3    C313720   1.112   1.289   8.977
  921TMC3    C413721   1.203   1.064   9.077
  921TMC3    C513722   1.156   1.060   8.949
  921TMC3    C613723   1.109   1.176   8.898
  921TMC3     C13724   1.134   1.114   9.276
  921TMC3     O13725   1.013   1.102   9.269
  921TMC3     H13726   1.137   1.378   9.173
  921TMC3    H113727   1.238   0.974   9.126
  921TMC3    H213728   1.059   1.167   8.803
  921TMC3    C713729   1.083   0.941   8.920
  921TMC3    C813730   1.053   1.416   8.921
  921TMC3    O113731   0.963   0.950   8.946
  921TMC3    O213732   0.943   1.415   8.875
  922TMC3    C113733   4.450   1.859  10.963
  922TMC3    C213734   4.527   1.859  10.850
  922TMC3    C313735   4.665   1.851  10.868
  922TMC3    C413736   4.514   1.850  11.088
  922TMC3    C513737   4.651   1.832  11.094
  922TMC3    C613738   4.729   1.835  10.986
  922TMC3     C13739   4.312   1.901  10.966
  922TMC3     O13740   4.269   1.938  11.075
  922TMC3     H13741   4.492   1.873  10.748
  922TMC3    H113742   4.456   1.867  11.178
  922TMC3    H213743   0.039   1.811  11.002
  922TMC3    C713744   4.722   1.853  11.223
  922TMC3    C813745   4.746   1.834  10.749
  922TMC3    O113746   0.045   1.813  11.229
  922TMC3    O213747   4.724   1.893  10.645
  923TMC3    C113748   2.329   0.834   9.038
  923TMC3    C213749   2.210   0.870   9.097
  923TMC3    C313750   2.192   0.991   9.152
  923TMC3    C413751   2.431   0.928   9.033
  923TMC3    C513752   2.414   1.049   9.089
  923TMC3    C613753   2.298   1.083   9.152
  923TMC3     C13754   2.378   0.704   9.086
  923TMC3     O13755   2.299   0.614   9.110
  923TMC3     H13756   2.148   0.785   9.124
  923TMC3    H113757   2.515   0.907   8.968
  923TMC3    H213758   2.286   1.180   9.198
  923TMC3    C713759   2.532   1.076   9.180
  923TMC3    C813760   2.150   0.985   9.289
  923TMC3    O113761   2.641   1.042   9.134
  923TMC3    O213762   2.231   1.026   9.367
  924TMC3    C113763   3.143   4.229   6.316
  924TMC3    C213764   3.156   4.368   6.305
  924TMC3    C313765   3.169   4.449   6.414
  924TMC3    C413766   3.117   4.169   6.436
  924TMC3    C513767   3.139   4.258   6.548
  924TMC3    C613768   3.149   4.396   6.536
  924TMC3     C13769   3.131   4.162   6.189
  924TMC3     O13770   3.088   4.232   6.101
  924TMC3     H13771   3.187   4.401   6.207
  924TMC3    H113772   3.117   4.062   6.452
  924TMC3    H213773   3.168   4.448   6.630
  924TMC3    C713774   3.241   4.210   6.648
  924TMC3    C813775   3.205   4.588   6.402
  924TMC3    O113776   3.339   4.282   6.662
  924TMC3    O213777   3.216   4.626   6.288
  925TMC3    C113778   0.070   2.377   9.515
  925TMC3    C213779   0.059   2.415   9.386
  925TMC3    C313780   0.005   2.334   9.295
  925TMC3    C413781   0.039   2.251   9.557
  925TMC3    C513782   4.786   2.168   9.457
  925TMC3    C613783   4.762   2.206   9.325
  925TMC3     C13784   0.126   2.470   9.608
  925TMC3     O13785   0.145   2.589   9.571
  925TMC3     H13786   0.107   2.510   9.368
  925TMC3    H113787   0.068   2.203   9.650
  925TMC3    H213788   4.724   2.141   9.247
  925TMC3    C713789   4.767   2.024   9.477
  925TMC3    C813790   0.056   2.343   9.156
  925TMC3    O113791   4.768   1.959   9.372
  925TMC3    O213792   0.102   2.240   9.107
  926TMC3    C113793   2.857   3.771   7.108
  926TMC3    C213794   2.916   3.861   7.196
  926TMC3    C313795   2.946   3.987   7.145
  926TMC3    C413796   2.846   3.790   6.973
  926TMC3    C513797   2.878   3.916   6.930
  926TMC3    C613798   2.931   4.009   7.016
  926TMC3     C13799   2.807   3.646   7.166
  926TMC3     O13800   2.875   3.577   7.249
  926TMC3     H13801   2.924   3.827   7.299
  926TMC3    H113802   2.800   3.716   6.909
  926TMC3    H213803   2.951   4.108   6.978
  926TMC3    C713804   2.892   3.955   6.793
  926TMC3    C813805   2.952   4.101   7.231
  926TMC3    O113806   2.904   4.076   6.769
  926TMC3    O213807   2.971   4.208   7.175
  927TMC3    C113808   2.225   1.959  11.688
  927TMC3    C213809   2.336   2.024  11.643
  927TMC3    C313810   2.347   2.052  11.508
  927TMC3    C413811   2.119   1.929  11.603
  927TMC3    C513812   2.124   1.974  11.471
  927TMC3    C613813   2.233   2.035  11.424
  927TMC3     C13814   2.197   1.994  11.830
  927TMC3     O13815   2.286   2.026  11.907
  927TMC3     H13816   2.403   2.075  11.712
  927TMC3    H113817   2.026   1.887  11.637
  927TMC3    H213818   2.226   2.086  11.329
  927TMC3    C713819   2.012   2.046  11.431
  927TMC3    C813820   2.464   2.115  11.453
  927TMC3    O113821   1.913   1.983  11.411
  927TMC3    O213822   2.553   2.146  11.530
  928TMC3    C113823   4.497   3.409  12.838
  928TMC3    C213824   4.538   3.397  12.968
  928TMC3    C313825   4.438   3.409  13.068
  928TMC3    C413826   4.374   3.461  12.813
  928TMC3    C513827   4.285   3.486  12.911
  928TMC3    C613828   4.310   3.449  13.040
  928TMC3     C13829   4.602   3.412  12.737
  928TMC3     O13830   4.713   3.426  12.786
  928TMC3     H13831   4.633   3.352  12.997
  928TMC3    H113832   4.360   3.507  12.716
  928TMC3    H213833   4.236   3.468  13.116
  928TMC3    C713834   4.213   3.615  12.895
  928TMC3    C813835   4.494   3.440  13.197
  928TMC3    O113836   4.288   3.698  12.843
  928TMC3    O213837   4.611   3.401  13.208
  929TMC3    C113838   4.600   1.679   8.778
  929TMC3    C213839   4.709   1.736   8.837
  929TMC3    C313840   4.772   1.847   8.767
  929TMC3    C413841   4.555   1.728   8.660
  929TMC3    C513842   4.599   1.850   8.620
  929TMC3    C613843   4.713   1.905   8.664
  929TMC3     C13844   4.501   1.619   8.867
  929TMC3     O13845   4.415   1.555   8.815
  929TMC3     H13846   4.753   1.702   8.931
  929TMC3    H113847   4.467   1.684   8.615
  929TMC3    H213848   4.738   1.995   8.610
  929TMC3    C713849   4.515   1.942   8.542
  929TMC3    C813850   0.102   1.906   8.818
  929TMC3    O113851   4.563   1.964   8.436
  929TMC3    O213852   0.143   2.008   8.761
  930TMC3    C113853   0.646   0.348   9.440
  930TMC3    C213854   0.681   0.333   9.309
  930TMC3    C313855   0.782   0.417   9.275
  930TMC3    C413856   0.695   0.442   9.526
  930TMC3    C513857   0.799   0.516   9.484
  930TMC3    C613858   0.850   0.499   9.363
  930TMC3     C13859   0.538   0.266   9.495
  930TMC3     O13860   0.456   0.317   9.572
  930TMC3     H13861   0.643   0.269   9.231
  930TMC3    H113862   0.656   0.458   9.626
  930TMC3    H213863   0.947   0.544   9.345
  930TMC3    C713864   0.875   0.593   9.574
  930TMC3    C813865   0.857   0.388   9.159
  930TMC3    O113866   0.922   0.530   9.666
  930TMC3    O213867   0.881   0.273   9.122
  931TMC3    C113868   2.573   2.556   9.224
  931TMC3    C213869   2.529   2.455   9.143
  931TMC3    C313870   2.553   2.329   9.174
  931TMC3    C413871   2.617   2.535   9.350
  931TMC3    C513872   2.614   2.402   9.391
  931TMC3    C613873   2.593   2.298   9.302
  931TMC3     C13874   2.660   2.643   9.145
  931TMC3     O13875   2.666   2.616   9.025
  931TMC3     H13876   2.490   2.469   9.043
  931TMC3    H113877   2.639   2.610   9.425
  931TMC3    H213878   2.595   2.195   9.337
  931TMC3    C713879   2.579   2.383   9.532
  931TMC3    C813880   2.635   2.250   9.072
  931TMC3    O113881   2.479   2.438   9.574
  931TMC3    O213882   2.635   2.126   9.068
  932TMC3    C113883   3.194   2.335   9.205
  932TMC3    C213884   3.183   2.448   9.125
  932TMC3    C313885   3.173   2.434   8.988
  932TMC3    C413886   3.181   2.209   9.153
  932TMC3    C513887   3.169   2.204   9.015
  932TMC3    C613888   3.178   2.308   8.934
  932TMC3     C13889   3.096   2.357   9.314
  932TMC3     O13890   3.017   2.450   9.302
  932TMC3     H13891   3.179   2.547   9.169
  932TMC3    H113892   3.153   2.126   9.217
  932TMC3    H213893   3.162   2.298   8.827
  932TMC3    C713894   3.163   2.080   8.942
  932TMC3    C813895   3.203   2.552   8.910
  932TMC3    O113896   3.080   1.999   8.970
  932TMC3    O213897   3.155   2.660   8.948
  933TMC3    C113898   3.534   1.162  10.513
  933TMC3    C213899   3.494   1.101  10.394
  933TMC3    C313900   3.432   1.169  10.295
  933TMC3    C413901   3.520   1.299  10.529
  933TMC3    C513902   3.462   1.367  10.424
  933TMC3    C613903   3.424   1.306  10.303
  933TMC3     C13904   3.539   1.080  10.631
  933TMC3     O13905   3.483   0.969  10.624
  933TMC3     H13906   3.517   0.998  10.369
  933TMC3    H113907   3.524   1.348  10.626
  933TMC3    H213908   3.379   1.361  10.221
  933TMC3    C713909   3.470   1.513  10.428
  933TMC3    C813910   3.411   1.111  10.163
  933TMC3    O113911   3.392   1.566  10.350
  933TMC3    O213912   3.314   1.132  10.095
  934TMC3    C113913   3.877   2.595  10.984
  934TMC3    C213914   3.897   2.641  11.109
  934TMC3    C313915   4.027   2.652  11.152
  934TMC3    C413916   3.976   2.562  10.896
  934TMC3    C513917   4.105   2.574  10.949
  934TMC3    C613918   4.135   2.616  11.072
  934TMC3     C13919   3.744   2.582  10.937
  934TMC3     O13920   3.722   2.587  10.817
  934TMC3     H13921   3.815   2.671  11.173
  934TMC3    H113922   3.961   2.520  10.798
  934TMC3    H213923   4.236   2.617  11.111
  934TMC3    C713924   4.203   2.473  10.897
  934TMC3    C813925   4.051   2.632  11.291
  934TMC3    O113926   4.297   2.448  10.972
  934TMC3    O213927   3.985   2.693  11.374
  935TMC3    C113928   3.285   1.891  10.703
  935TMC3    C213929   3.194   1.798  10.655
  935TMC3    C313930   3.213   1.666  10.685
  935TMC3    C413931   3.397   1.857  10.765
  935TMC3    C513932   3.408   1.725  10.800
  935TMC3    C613933   3.325   1.630  10.759
  935TMC3     C13934   3.294   2.023  10.635
  935TMC3     O13935   3.353   2.108  10.696
  935TMC3     H13936   3.104   1.822  10.599
  935TMC3    H113937   3.476   1.929  10.784
  935TMC3    H213938   3.338   1.530  10.799
  935TMC3    C713939   3.534   1.685  10.859
  935TMC3    C813940   3.116   1.566  10.643
  935TMC3    O113941   3.582   1.576  10.840
  935TMC3    O213942   3.005   1.613  10.636
  936TMC3    C113943   3.385   4.739  11.766
  936TMC3    C213944   3.279   4.789  11.706
  936TMC3    C313945   3.290   0.020  11.567
  936TMC3    C413946   3.509   4.741  11.704
  936TMC3    C513947   3.516   4.773  11.574
  936TMC3    C613948   3.413   0.016  11.502
  936TMC3     C13949   3.344   4.632  11.855
  936TMC3     O13950   3.223   4.607  11.860
  936TMC3     H13951   3.179   0.006  11.745
  936TMC3    H113952   3.599   4.699  11.747
  936TMC3    H213953   3.425   0.018  11.394
  936TMC3    C713954   3.643   4.763  11.512
  936TMC3    C813955   3.201   0.132  11.525
  936TMC3    O113956   3.719   4.674  11.555
  936TMC3    O213957   3.182   0.226  11.602
  937TMC3    C113958   4.595   0.912  14.769
  937TMC3    C213959   4.612   0.790  14.709
  937TMC3    C313960   4.584   0.779  14.573
  937TMC3    C413961   4.541   1.026  14.714
  937TMC3    C513962   4.508   1.013  14.582
  937TMC3    C613963   4.524   0.889  14.515
  937TMC3     C13964   4.682   0.932  14.872
  937TMC3     O13965   4.758   0.840  14.897
  937TMC3     H13966   4.657   0.703  14.755
  937TMC3    H113967   4.511   1.116  14.767
  937TMC3    H213968   4.497   0.885  14.410
  937TMC3    C713969   4.503   1.130  14.496
  937TMC3    C813970   4.667   0.702  14.481
  937TMC3    O113971   4.518   1.106  14.378
  937TMC3    O213972   4.687   0.745  14.370
  938TMC3    C113973   3.843   4.364  10.077
  938TMC3    C213974   3.937   4.360   9.981
  938TMC3    C313975   3.924   4.283   9.871
  938TMC3    C413976   3.730   4.281  10.065
  938TMC3    C513977   3.711   4.219   9.949
  938TMC3    C613978   3.806   4.214   9.848
  938TMC3     C13979   3.875   4.425  10.200
  938TMC3     O13980   3.858   4.350  10.292
  938TMC3     H13981   4.026   4.419  10.000
  938TMC3    H113982   3.660   4.284  10.148
  938TMC3    H213983   3.795   4.158   9.756
  938TMC3    C713984   3.597   4.126   9.949
  938TMC3    C813985   4.027   4.275   9.761
  938TMC3    O113986   3.636   4.009   9.959
  938TMC3    O213987   3.999   4.221   9.654
  939TMC3    C113988   1.536   2.040   8.149
  939TMC3    C213989   1.580   2.076   8.029
  939TMC3    C313990   1.488   2.087   7.926
  939TMC3    C413991   1.404   2.020   8.173
  939TMC3    C513992   1.318   2.021   8.073
  939TMC3    C613993   1.357   2.057   7.950
  939TMC3     C13994   1.622   2.003   8.259
  939TMC3     O13995   1.580   2.014   8.374
  939TMC3     H13996   1.682   2.090   7.996
  939TMC3    H113997   1.379   1.961   8.261
  939TMC3    H213998   1.288   2.049   7.867
  939TMC3    C713999   1.175   1.993   8.107
  939TMC3    C814000   1.538   2.063   7.797
  939TMC3    O114001   1.146   1.956   8.221
  939TMC3    O214002   1.516   1.948   7.754
  940TMC3    C114003   3.837   1.806   8.182
  940TMC3    C214004   3.718   1.764   8.238
  940TMC3    C314005   3.690   1.818   8.358
  940TMC3    C414006   3.926   1.889   8.238
  940TMC3    C514007   3.897   1.938   8.364
  940TMC3    C614008   3.783   1.904   8.423
  940TMC3     C14009   3.856   1.800   8.039
  940TMC3     O14010   3.900   1.904   7.986
  940TMC3     H14011   3.650   1.699   8.183
  940TMC3    H114012   4.023   1.899   8.190
  940TMC3    H214013   3.763   1.944   8.522
  940TMC3    C714014   3.991   2.018   8.442
  940TMC3    C814015   3.560   1.776   8.410
  940TMC3    O114016   3.979   2.025   8.563
  940TMC3    O214017   3.504   1.683   8.356
  941TMC3    C114018   0.311   2.661  14.880
  941TMC3    C214019   0.330   2.549  14.954
  941TMC3    C314020   0.424   2.458  14.910
  941TMC3    C414021   0.397   2.704  14.791
  941TMC3    C514022   0.490   2.616  14.752
  941TMC3    C614023   0.504   2.495  14.809
  941TMC3     C14024   0.164   2.699  14.870
  941TMC3     O14025   0.133   2.813  14.860
  941TMC3     H14026   0.262   2.520  15.033
  941TMC3    H114027   0.374   2.795  14.737
  941TMC3    H214028   0.554   2.413  14.759
  941TMC3    C714029   0.590   2.665  14.659
  941TMC3    C814030   0.363   2.329  14.895
  941TMC3    O114031   0.592   2.787  14.643
  941TMC3    O214032   0.238   2.329  14.900
  942TMC3    C114033   1.446   3.602   8.162
  942TMC3    C214034   1.356   3.532   8.241
  942TMC3    C314035   1.305   3.412   8.195
  942TMC3    C414036   1.507   3.543   8.055
  942TMC3    C514037   1.459   3.427   8.016
  942TMC3    C614038   1.359   3.357   8.080
  942TMC3     C14039   1.516   3.712   8.221
  942TMC3     O14040   1.516   3.715   8.339
  942TMC3     H14041   1.319   3.586   8.327
  942TMC3    H114042   1.587   3.596   8.004
  942TMC3    H214043   1.319   3.262   8.049
  942TMC3    C714044   1.554   3.344   7.944
  942TMC3    C814045   1.229   3.327   8.286
  942TMC3    O114046   1.627   3.398   7.862
  942TMC3    O214047   1.158   3.234   8.237
  943TMC3    C114048   4.709   3.153  13.497
  943TMC3    C214049   4.744   3.021  13.467
  943TMC3    C314050   4.642   2.939  13.419
  943TMC3    C414051   4.586   3.198  13.471
  943TMC3    C514052   4.493   3.115  13.427
  943TMC3    C614053   4.517   2.985  13.399
  943TMC3     C14054   0.024   3.252  13.493
  943TMC3     O14055   0.107   3.237  13.580
  943TMC3     H14056   0.046   2.982  13.498
  943TMC3    H114057   4.560   3.302  13.488
  943TMC3    H214058   4.434   2.919  13.374
  943TMC3    C714059   4.363   3.174  13.395
  943TMC3    C814060   4.669   2.797  13.424
  943TMC3    O114061   4.313   3.159  13.281
  943TMC3    O214062   4.787   2.777  13.427
  944TMC3    C114063   2.269   4.503  10.280
  944TMC3    C214064   2.394   4.521  10.327
  944TMC3    C314065   2.484   4.412  10.322
  944TMC3    C414066   2.233   4.396  10.205
  944TMC3    C514067   2.334   4.301  10.178
  944TMC3    C614068   2.458   4.305  10.241
  944TMC3     C14069   2.182   4.618  10.296
  944TMC3     O14070   2.122   4.650  10.193
  944TMC3     H14071   2.427   4.614  10.373
  944TMC3    H114072   2.129   4.396  10.178
  944TMC3    H214073   2.512   4.211  10.247
  944TMC3    C714074   2.297   4.177  10.117
  944TMC3    C814075   2.622   4.423  10.358
  944TMC3    O114076   2.181   4.139  10.135
  944TMC3    O214077   2.708   4.385  10.275
    1TMC1    C114078   1.645   4.201  10.836
    1TMC1    C214079   1.724   4.211  10.727
    1TMC1    C314080   1.764   4.094  10.660
    1TMC1    C414081   1.616   4.082  10.892
    1TMC1    C514082   1.669   3.974  10.833
    1TMC1    C614083   1.741   3.975  10.714
    1TMC1     C14084   1.535   4.291  10.850
    1TMC1     O14085   1.428   4.236  10.872
    1TMC1     H14086   1.747   4.309  10.687
    1TMC1    H114087   1.551   4.067  10.977
    1TMC1    H214088   1.786   3.884  10.677
    1TMC1    C714089   1.656   3.854  10.915
    1TMC1    C814090   1.855   4.094  10.548
    1TMC1    O114091   1.650   3.863  11.036
    1TMC1    O214092   1.888   3.983  10.503
    1TMC1    O314093   1.608   3.763  10.836
    1TMC1    H314094   1.590   3.800  10.747
    1TMC1    O514095   1.917   4.215  10.549
    1TMC1    H514096   1.999   4.220  10.496
    2TMC2    C114097   1.593   0.272  10.686
    2TMC2    C214098   1.674   0.358  10.762
    2TMC2    C314099   1.767   0.436  10.702
    2TMC2    C414100   1.609   0.278  10.548
    2TMC2    C514101   1.696   0.366  10.489
    2TMC2    C614102   1.773   0.454  10.567
    2TMC2     C14103   1.565   0.148  10.751
    2TMC2     O14104   1.629   0.117  10.847
    2TMC2     H14105   1.682   0.346  10.870
    2TMC2    H114106   1.563   0.200  10.489
    2TMC2    H214107   1.849   0.520  10.527
    2TMC2    C714108   1.698   0.358  10.345
    2TMC2    C814109   1.836   0.524  10.786
    2TMC2    O114110   1.646   0.262  10.289
    2TMC2    O214111   1.957   0.534  10.787
    2TMC2    O514112   1.743   0.589  10.860
    2TMC2    H514113   1.652   0.561  10.836
    3TMC2    C114114   1.973   1.003  10.212
    3TMC2    C214115   2.094   1.038  10.254
    3TMC2    C314116   2.197   0.953  10.250
    3TMC2    C414117   1.956   0.885  10.139
    3TMC2    C514118   2.065   0.810  10.120
    3TMC2    C614119   2.188   0.836  10.174
    3TMC2     C14120   1.887   1.115  10.174
    3TMC2     O14121   1.935   1.227  10.165
    3TMC2     H14122   2.102   1.127  10.315
    3TMC2    H114123   1.875   0.880  10.068
    3TMC2    H214124   2.267   0.762  10.161
    3TMC2    C714125   2.082   0.768   9.984
    3TMC2    C814126   2.335   0.984  10.287
    3TMC2    O114127   2.189   0.803   9.940
    3TMC2    O214128   2.417   0.898  10.322
    3TMC2    O514129   2.370   1.108  10.230
    3TMC2    H514130   2.300   1.164  10.191
    4MPD1     C14131   0.843   1.683  10.227
    4MPD1    C114132   0.875   1.731  10.096
    4MPD1    C214133   0.773   1.769  10.014
    4MPD1    C314134   0.642   1.774  10.063
    4MPD1    C414135   0.609   1.720  10.185
    4MPD1    C514136   0.712   1.683  10.275
    4MPD1     H14137   0.806   1.807   9.918
    4MPD1    H114138   0.508   1.732  10.223
    4MPD1    H214139   0.922   1.650  10.294
    4MPD1    H314140   0.692   1.645  10.374
    4MPD1     N14141   0.530   1.813   9.982
    4MPD1    H514142   0.440   1.809  10.030
    4MPD1    N114143   1.012   1.739  10.057
    4MPD1    H614144   1.036   1.803   9.983
    4MPD1    H714145   1.076   1.763  10.133
    5MPD2     C14146   0.761   1.149   9.538
    5MPD2    C114147   0.858   1.160   9.639
    5MPD2    C214148   0.907   1.286   9.670
    5MPD2    C314149   0.849   1.396   9.617
    5MPD2    C414150   0.748   1.388   9.526
    5MPD2    C514151   0.705   1.264   9.488
    5MPD2     H14152   0.986   1.300   9.743
    5MPD2    H114153   0.689   1.471   9.488
    5MPD2    H214154   0.711   1.054   9.524
    5MPD2    H314155   0.625   1.257   9.415
    5MPD2     N14156   0.894   1.520   9.674
    5MPD2    H514157   0.983   1.515   9.723
    5MPD2    N114158   0.909   1.035   9.688
    5MPD2    H714159   0.861   0.949   9.664
    6MPD2     C14160   0.352   1.149   9.911
    6MPD2    C114161   0.476   1.202   9.937
    6MPD2    C214162   0.579   1.112   9.978
    6MPD2    C314163   0.559   0.976   9.989
    6MPD2    C414164   0.431   0.932   9.974
    6MPD2    C514165   0.342   1.015   9.922
    6MPD2     H14166   0.679   1.150   9.997
    6MPD2    H114167   0.396   0.830   9.973
    6MPD2    H214168   0.266   1.208   9.879
    6MPD2    H314169   0.241   0.981   9.903
    6MPD2     N14170   0.666   0.886  10.015
    6MPD2    H514171   0.664   0.789   9.985
    6MPD2    N114172   0.515   1.333   9.908
    6MPD2    H714173   0.612   1.362   9.915
    7MPD2     C14174   1.448   1.213   9.947
    7MPD2    C114175   1.423   1.114  10.035
    7MPD2    C214176   1.522   1.076  10.124
    7MPD2    C314177   1.648   1.129  10.105
    7MPD2    C414178   1.676   1.228  10.013
    7MPD2    C514179   1.576   1.272   9.936
    7MPD2     H14180   1.502   1.007  10.205
    7MPD2    H114181   1.779   1.260  10.007
    7MPD2    H214182   1.369   1.241   9.877
    7MPD2    H314183   1.608   1.335   9.854
    7MPD2     N14184   1.756   1.067  10.171
    7MPD2    H514185   1.736   0.973  10.204
    7MPD2    N114186   1.292   1.067  10.034
    7MPD2    H714187   1.237   1.100   9.956
    8MPD2     C14188   1.687   0.438  10.051
    8MPD2    C114189   1.772   0.497  10.148
    8MPD2    C214190   1.861   0.594  10.105
    8MPD2    C314191   1.876   0.620   9.970
    8MPD2    C414192   1.798   0.559   9.878
    8MPD2    C514193   1.709   0.466   9.916
    8MPD2     H14194   1.925   0.629  10.185
    8MPD2    H114195   1.814   0.584   9.774
    8MPD2    H214196   1.623   0.356  10.079
    8MPD2    H314197   1.654   0.421   9.835
    8MPD2     N14198   1.975   0.711   9.918
    8MPD2    H514199   1.964   0.720   9.818
    8MPD2    N114200   1.770   0.462  10.287
    8MPD2    H714201   1.816   0.516  10.360
    9MPD2     C14202   1.295   4.705  10.686
    9MPD2    C114203   1.426   4.744  10.718
    9MPD2    C214204   1.513   4.651  10.770
    9MPD2    C314205   1.477   4.515  10.781
    9MPD2    C414206   1.347   4.483  10.747
    9MPD2    C514207   1.257   4.574  10.704
    9MPD2     H14208   1.613   4.681  10.797
    9MPD2    H114209   1.309   4.382  10.742
    9MPD2    H214210   1.211   4.767  10.656
    9MPD2    H314211   1.156   4.535  10.692
    9MPD2     N14212   1.567   4.416  10.813
    9MPD2    H514213   1.666   4.437  10.816
    9MPD2    N114214   1.459   0.084  10.691
    9MPD2    H714215   1.404   0.133  10.621
   10TMC3    C114216   0.893   0.865  10.039
   10TMC3    C214217   1.004   0.907  10.117
   10TMC3    C314218   1.126   0.915  10.056
   10TMC3    C414219   0.914   0.857   9.899
   10TMC3    C514220   1.030   0.898   9.847
   10TMC3    C614221   1.141   0.922   9.917
   10TMC3     C14222   0.776   0.936  10.073
   10TMC3     O14223   0.789   1.029  10.157
   10TMC3     H14224   0.997   0.918  10.225
   10TMC3    H114225   0.833   0.847   9.827
   10TMC3    H214226   1.234   0.930   9.862
   10TMC3    C714227   1.019   1.025   9.777
   10TMC3    C814228   1.236   0.978  10.124
   10TMC3    O114229   1.115   1.102   9.777
   10TMC3    O214230   1.281   0.922  10.225
   11TMC3    C114231   0.506   1.778   9.755
   11TMC3    C214232   0.622   1.754   9.684
   11TMC3    C314233   0.687   1.634   9.694
   11TMC3    C414234   0.448   1.667   9.812
   11TMC3    C514235   0.514   1.548   9.832
   11TMC3    C614236   0.631   1.530   9.763
   11TMC3     C14237   0.525   1.879   9.860
   11TMC3     O14238   0.612   1.957   9.828
   11TMC3     H14239   0.669   1.837   9.632
   11TMC3    H114240   0.354   1.680   9.864
   11TMC3    H214241   0.696   1.446   9.786
   11TMC3    C714242   0.439   1.433   9.860
   11TMC3    C814243   0.832   1.642   9.664
   11TMC3    O114244   0.320   1.436   9.837
   11TMC3    O214245   0.887   1.752   9.667
    1MPD1     C14246   3.564   1.791  13.128
    1MPD1    C114247   3.619   1.801  13.253
    1MPD1    C214248   3.704   1.700  13.302
    1MPD1    C314249   3.701   1.578  13.243
    1MPD1    C414250   3.638   1.566  13.117
    1MPD1    C514251   3.570   1.671  13.064
    1MPD1     H14252   3.741   1.707  13.404
    1MPD1    H114253   3.640   1.472  13.063
    1MPD1    H214254   3.515   1.879  13.086
    1MPD1    H314255   3.530   1.663  12.963
    1MPD1     N14256   3.768   1.472  13.303
    1MPD1    H514257   3.806   1.484  13.397
    1MPD1    N114258   3.595   1.915  13.332
    1MPD1    H614259   3.510   1.970  13.325
    1MPD1    H714260   3.622   1.911  13.430
    2MPD1     C14261   4.726   1.233  13.422
    2MPD1    C114262   4.669   1.164  13.524
    2MPD1    C214263   4.534   1.139  13.509
    2MPD1    C314264   4.446   1.206  13.426
    2MPD1    C414265   4.508   1.289  13.335
    2MPD1    C514266   4.649   1.294  13.333
    2MPD1     H14267   4.486   1.074  13.582
    2MPD1    H114268   4.455   1.338  13.254
    2MPD1    H214269   0.038   1.256  13.417
    2MPD1    H314270   4.697   1.350  13.254
    2MPD1     N14271   4.307   1.188  13.448
    2MPD1    H514272   4.271   1.116  13.509
    2MPD1    N114273   4.756   1.099  13.605
    2MPD1    H614274   4.706   1.072  13.690
    2MPD1    H714275   0.044   1.157  13.620
    3MPD1     C14276   3.979   0.436  13.640
    3MPD1    C114277   3.864   0.483  13.586
    3MPD1    C214278   3.866   0.615  13.549
    3MPD1    C314279   3.971   0.701  13.562
    3MPD1    C414280   4.085   0.648  13.628
    3MPD1    C514281   4.084   0.516  13.661
    3MPD1     H14282   3.774   0.653  13.506
    3MPD1    H114283   4.172   0.710  13.649
    3MPD1    H214284   3.989   0.334  13.674
    3MPD1    H314285   4.171   0.469  13.706
    3MPD1     N14286   3.976   0.835  13.519
    3MPD1    H514287   4.069   0.871  13.535
    3MPD1    N114288   3.747   0.403  13.595
    3MPD1    H614289   3.676   0.407  13.523
    3MPD1    H714290   3.773   0.306  13.609
    4TMC3    C114291   4.072   1.219  13.422
    4TMC3    C214292   3.974   1.306  13.371
    4TMC3    C314293   3.853   1.254  13.347
    4TMC3    C414294   4.044   1.088  13.461
    4TMC3    C514295   3.918   1.046  13.435
    4TMC3    C614296   3.822   1.123  13.374
    4TMC3     C14297   4.204   1.262  13.391
    4TMC3     O14298   4.209   1.356  13.316
    4TMC3     H14299   4.000   1.405  13.336
    4TMC3    H114300   4.115   1.019  13.506
    4TMC3    H214301   3.722   1.089  13.353
    4TMC3    C714302   3.878   0.906  13.461
    4TMC3    C814303   3.759   1.338  13.279
    4TMC3    O114304   3.761   0.869  13.451
    4TMC3    O214305   3.698   1.283  13.190
    1TMC1    C114306   0.462   1.193   8.604
    1TMC1    C214307   0.409   1.272   8.513
    1TMC1    C314308   0.268   1.263   8.495
    1TMC1    C414309   0.391   1.110   8.684
    1TMC1    C514310   0.254   1.109   8.665
    1TMC1    C614311   0.187   1.189   8.570
    1TMC1     C14312   0.605   1.168   8.609
    1TMC1     O14313   0.651   1.122   8.711
    1TMC1     H14314   0.470   1.321   8.438
    1TMC1    H114315   0.442   1.051   8.758
    1TMC1    H214316   0.081   1.180   8.549
    1TMC1    C714317   0.186   0.988   8.708
    1TMC1    C814318   0.218   1.340   8.383
    1TMC1    O114319   0.065   0.980   8.709
    1TMC1    O214320   0.283   1.427   8.328
    1TMC1    O314321   0.274   0.884   8.690
    1TMC1    H314322   0.359   0.900   8.642
    1TMC1    O514323   0.088   1.307   8.364
    1TMC1    H514324   0.039   1.366   8.302
    2MPD1     C14325   1.049   1.072   8.365
    2MPD1    C114326   0.970   1.147   8.285
    2MPD1    C214327   0.841   1.175   8.328
    2MPD1    C314328   0.803   1.154   8.456
    2MPD1    C414329   0.892   1.099   8.547
    2MPD1    C514330   1.017   1.058   8.495
    2MPD1     H14331   0.770   1.222   8.261
    2MPD1    H114332   0.868   1.102   8.653
    2MPD1    H214333   1.133   1.012   8.330
    2MPD1    H314334   1.090   1.017   8.563
    2MPD1     N14335   0.671   1.195   8.487
    2MPD1    H514336   0.616   1.219   8.406
    2MPD1    N114337   0.999   1.161   8.150
    2MPD1    H614338   0.964   1.246   8.107
    2MPD1    H714339   1.099   1.172   8.135
    1TMC1    C114340   3.836   2.328  15.027
    1TMC1    C214341   3.750   2.347  14.924
    1TMC1    C314342   3.798   2.319  14.795
    1TMC1    C414343   3.971   2.285  15.011
    1TMC1    C514344   4.017   2.270  14.887
    1TMC1    C614345   3.934   2.292  14.777
    1TMC1     C14346   3.793   2.352  15.161
    1TMC1     O14347   3.888   2.364  15.240
    1TMC1     H14348   3.652   2.390  14.936
    1TMC1    H114349   4.030   2.260  15.099
    1TMC1    H214350   3.964   2.261  14.678
    1TMC1    C714351   4.165   2.271  14.870
    1TMC1    C814352   3.710   2.348  14.680
    1TMC1    O114353   4.242   2.229  14.960
    1TMC1    O214354   3.589   2.364  14.690
    1TMC1    O314355   4.191   2.311  14.747
    1TMC1    H314356   4.128   2.382  14.722
    1TMC1    O514357   3.786   2.340  14.572
    1TMC1    H514358   3.730   2.341  14.491
    2MPD1     C14359   3.487   2.329  15.567
    2MPD1    C114360   3.415   2.295  15.459
    2MPD1    C214361   3.477   2.290  15.333
    2MPD1    C314362   3.608   2.318  15.318
    2MPD1    C414363   3.675   2.368  15.424
    2MPD1    C514364   3.614   2.374  15.544
    2MPD1     H14365   3.430   2.246  15.245
    2MPD1    H114366   3.773   2.414  15.424
    2MPD1    H214367   3.441   2.329  15.665
    2MPD1    H314368   3.681   2.396  15.626
    2MPD1     N14369   3.666   2.307  15.181
    2MPD1    H514370   3.615   2.265  15.104
    2MPD1    N114371   3.279   2.260  15.482
    2MPD1    H614372   3.217   2.281  15.403
    2MPD1    H714373   3.248   2.310  15.565
    1MPD1     C14374   1.412   1.222   9.604
    1MPD1    C114375   1.385   1.337   9.526
    1MPD1    C214376   1.487   1.419   9.472
    1MPD1    C314377   1.616   1.378   9.498
    1MPD1    C414378   1.642   1.266   9.577
    1MPD1    C514379   1.539   1.189   9.636
    1MPD1     H14380   1.465   1.498   9.402
    1MPD1    H114381   1.740   1.230   9.604
    1MPD1    H214382   1.343   1.146   9.641
    1MPD1    H314383   1.572   1.110   9.703
    1MPD1     N14384   1.724   1.459   9.449
    1MPD1    H514385   1.706   1.524   9.373
    1MPD1    N114386   1.251   1.365   9.512
    1MPD1    H614387   1.227   1.451   9.561
    1MPD1    H714388   1.191   1.296   9.556
    2MPD1     C14389   1.711   1.803   8.804
    2MPD1    C114390   1.640   1.809   8.686
    2MPD1    C214391   1.685   1.760   8.562
    2MPD1    C314392   1.813   1.700   8.564
    2MPD1    C414393   1.896   1.716   8.672
    2MPD1    C514394   1.839   1.764   8.789
    2MPD1     H14395   1.619   1.763   8.476
    2MPD1    H114396   2.000   1.688   8.680
    2MPD1    H214397   1.675   1.858   8.889
    2MPD1    H314398   1.904   1.771   8.875
    2MPD1     N14399   1.873   1.634   8.447
    2MPD1    H514400   1.974   1.626   8.445
    2MPD1    N114401   1.525   1.883   8.684
    2MPD1    H614402   1.487   1.902   8.777
    2MPD1    H714403   1.456   1.858   8.614
    3MPD1     C14404   2.099   2.133   7.781
    3MPD1    C114405   2.193   2.081   7.864
    3MPD1    C214406   2.197   1.948   7.891
    3MPD1    C314407   2.081   1.876   7.855
    3MPD1    C414408   1.978   1.931   7.778
    3MPD1    C514409   1.999   2.060   7.732
    3MPD1     H14410   2.266   1.906   7.963
    3MPD1    H114411   1.902   1.868   7.733
    3MPD1    H214412   2.105   2.237   7.751
    3MPD1    H314413   1.939   2.094   7.649
    3MPD1     N14414   2.060   1.756   7.913
    3MPD1    H514415   2.136   1.716   7.967
    3MPD1    N114416   2.283   2.164   7.918
    3MPD1    H614417   2.255   2.261   7.927
    3MPD1    H714418   2.325   2.127   8.003
    4MPD2     C14419   2.109   2.036   9.148
    4MPD2    C114420   2.128   1.921   9.076
    4MPD2    C214421   2.245   1.900   8.999
    4MPD2    C314422   2.330   2.004   8.973
    4MPD2    C414423   2.305   2.125   9.041
    4MPD2    C514424   2.197   2.140   9.125
    4MPD2     H14425   2.247   1.809   8.940
    4MPD2    H114426   2.379   2.201   9.021
    4MPD2    H214427   2.018   2.055   9.204
    4MPD2    H314428   2.194   2.234   9.178
    4MPD2     N14429   2.444   1.999   8.890
    4MPD2    H514430   2.518   2.067   8.903
    4MPD2    N114431   2.052   1.806   9.092
    4MPD2    H714432   2.084   1.725   9.039
    5MPD2     C14433   2.694   1.587   9.291
    5MPD2    C114434   2.642   1.567   9.165
    5MPD2    C214435   2.519   1.510   9.151
    5MPD2    C314436   2.443   1.485   9.263
    5MPD2    C414437   2.491   1.506   9.391
    5MPD2    C514438   2.620   1.548   9.397
    5MPD2     H14439   2.465   1.522   9.057
    5MPD2    H114440   2.430   1.498   9.480
    5MPD2    H214441   2.796   1.621   9.300
    5MPD2    H314442   2.644   1.562   9.502
    5MPD2     N14443   2.299   1.456   9.260
    5MPD2    H514444   2.255   1.438   9.349
    5MPD2    N114445   2.718   1.617   9.053
    5MPD2    H714446   2.792   1.682   9.078
    6MPD2     C14447   2.527   1.313   8.607
    6MPD2    C114448   2.531   1.423   8.531
    6MPD2    C214449   2.449   1.433   8.417
    6MPD2    C314450   2.348   1.342   8.398
    6MPD2    C414451   2.339   1.242   8.487
    6MPD2    C514452   2.430   1.229   8.583
    6MPD2     H14453   2.463   1.519   8.352
    6MPD2    H114454   2.260   1.169   8.484
    6MPD2    H214455   2.588   1.310   8.697
    6MPD2    H314456   2.411   1.143   8.646
    6MPD2     N14457   2.242   1.352   8.303
    6MPD2    H514458   2.161   1.292   8.315
    6MPD2    N114459   2.614   1.529   8.571
    6MPD2    H714460   2.655   1.512   8.662
    7TMC3    C114461   1.909   1.650   9.188
    7TMC3    C214462   2.007   1.583   9.125
    7TMC3    C314463   2.076   1.483   9.192
    7TMC3    C414464   1.868   1.624   9.316
    7TMC3    C514465   1.934   1.521   9.379
    7TMC3    C614466   2.044   1.457   9.324
    7TMC3     C14467   1.939   1.790   9.172
    7TMC3     O14468   1.882   1.871   9.237
    7TMC3     H14469   2.022   1.588   9.018
    7TMC3    H114470   1.809   1.694   9.374
    7TMC3    H214471   2.082   1.370   9.377
    7TMC3    C714472   1.859   1.441   9.472
    7TMC3    C814473   2.216   1.476   9.153
    7TMC3    O114474   1.923   1.373   9.550
    7TMC3    O214475   2.247   1.519   9.044
    8TMC3    C114476   1.886   1.535   8.233
    8TMC3    C214477   1.855   1.573   8.107
    8TMC3    C314478   1.956   1.581   8.019
    8TMC3    C414479   2.001   1.469   8.260
    8TMC3    C514480   2.095   1.467   8.169
    8TMC3    C614481   2.079   1.531   8.047
    8TMC3     C14482   1.803   1.590   8.337
    8TMC3     O14483   1.685   1.596   8.300
    8TMC3     H14484   1.765   1.631   8.094
    8TMC3    H114485   2.024   1.444   8.363
    8TMC3    H214486   2.160   1.547   7.977
    8TMC3    C714487   2.228   1.449   8.204
    8TMC3    C814488   1.940   1.695   7.932
    8TMC3    O114489   2.311   1.522   8.150
    8TMC3    O214490   1.830   1.736   7.912
    9TMC3    C114491   2.746   1.720   8.846
    9TMC3    C214492   2.758   1.675   8.710
    9TMC3    C314493   2.681   1.744   8.616
    9TMC3    C414494   2.682   1.838   8.872
    9TMC3    C514495   2.608   1.895   8.770
    9TMC3    C614496   2.609   1.856   8.639
    9TMC3     C14497   2.692   1.609   8.918
    9TMC3     O14498   2.621   1.526   8.863
    9TMC3     H14499   2.822   1.595   8.675
    9TMC3    H114500   2.650   1.857   8.974
    9TMC3    H214501   2.533   1.889   8.570
    9TMC3    C714502   2.473   1.900   8.807
    9TMC3    C814503   2.627   1.656   8.519
    9TMC3    O114504   2.403   1.809   8.768
    9TMC3    O214505   2.591   1.703   8.411
    1TMC2    C114506   2.350   0.468  12.527
    1TMC2    C214507   2.295   0.583  12.485
    1TMC2    C314508   2.360   0.701  12.537
    1TMC2    C414509   2.469   0.457  12.593
    1TMC2    C514510   2.525   0.568  12.644
    1TMC2    C614511   2.466   0.694  12.623
    1TMC2     C14512   2.323   0.352  12.442
    1TMC2     O14513   2.355   0.242  12.478
    1TMC2     H14514   2.205   0.601  12.428
    1TMC2    H114515   2.516   0.360  12.607
    1TMC2    H214516   2.494   0.792  12.661
    1TMC2    C714517   2.672   0.590  12.639
    1TMC2    C814518   2.339   0.815  12.447
    1TMC2    O114519   2.696   0.703  12.601
    1TMC2    O214520   2.230   0.851  12.402
    1TMC2    O514521   2.461   0.876  12.438
    1TMC2    H514522   2.526   0.819  12.485
    2MPD1     C14523   2.311   0.121  11.992
    2MPD1    C114524   2.327   0.259  11.971
    2MPD1    C214525   2.309   0.341  12.081
    2MPD1    C314526   2.291   0.290  12.205
    2MPD1    C414527   2.281   0.154  12.225
    2MPD1    C514528   2.300   0.071  12.121
    2MPD1     H14529   2.314   0.449  12.071
    2MPD1    H114530   2.263   0.117  12.325
    2MPD1    H214531   2.313   0.052  11.909
    2MPD1    H314532   2.286   4.758  12.131
    2MPD1     N14533   2.289   0.385  12.314
    2MPD1    H514534   2.296   0.483  12.287
    2MPD1    N114535   2.321   0.313  11.842
    2MPD1    H614536   2.375   0.245  11.789
    2MPD1    H714537   2.366   0.404  11.837
    3MPD1     C14538   3.095   0.395  12.446
    3MPD1    C114539   3.051   0.526  12.438
    3MPD1    C214540   2.925   0.544  12.495
    3MPD1    C314541   2.868   0.451  12.576
    3MPD1    C414542   2.926   0.326  12.590
    3MPD1    C514543   3.039   0.299  12.523
    3MPD1     H14544   2.875   0.640  12.487
    3MPD1    H114545   2.874   0.250  12.646
    3MPD1    H214546   3.184   0.370  12.389
    3MPD1    H314547   3.083   0.201  12.539
    3MPD1     N14548   2.743   0.472  12.639
    3MPD1    H514549   2.702   0.399  12.697
    3MPD1    N114550   3.105   0.605  12.335
    3MPD1    H614551   3.076   0.702  12.346
    3MPD1    H714552   3.206   0.617  12.340
    1TMC1    C114553   0.354   4.097   9.964
    1TMC1    C214554   0.287   4.182  10.053
    1TMC1    C314555   0.155   4.145  10.082
    1TMC1    C414556   0.307   3.980   9.910
    1TMC1    C514557   0.186   3.944   9.949
    1TMC1    C614558   0.107   4.024  10.031
    1TMC1     C14559   0.485   4.144   9.917
    1TMC1     O14560   0.492   4.190   9.804
    1TMC1     H14561   0.330   4.271  10.098
    1TMC1    H114562   0.363   3.944   9.824
    1TMC1    H214563   0.001   4.010  10.047
    1TMC1    C714564   0.133   3.810   9.921
    1TMC1    C814565   0.068   4.249  10.134
    1TMC1    O114566   0.015   3.777   9.926
    1TMC1    O214567   0.098   4.369  10.128
    1TMC1    O314568   0.239   3.748   9.864
    1TMC1    H314569   0.325   3.793   9.878
    1TMC1    O514570   4.781   4.192  10.229
    1TMC1    H514571   4.786   4.095  10.238
    2TMC1    C114572   1.077   4.306  10.468
    2TMC1    C214573   1.168   4.217  10.520
    2TMC1    C314574   1.158   4.172  10.650
    2TMC1    C414575   0.980   4.354  10.550
    2TMC1    C514576   0.971   4.303  10.676
    2TMC1    C614577   1.066   4.218  10.733
    2TMC1     C14578   1.064   4.318  10.322
    2TMC1     O14579   1.153   4.295  10.243
    2TMC1     H14580   1.223   4.161  10.446
    2TMC1    H114581   0.911   4.428  10.509
    2TMC1    H214582   1.056   4.182  10.835
    2TMC1    C714583   0.897   4.406  10.755
    2TMC1    C814584   1.231   4.054  10.694
    2TMC1    O114585   0.878   4.519  10.717
    2TMC1    O214586   1.186   3.978  10.778
    2TMC1    O314587   0.938   4.373  10.883
    2TMC1    H314588   0.935   4.275  10.886
    2TMC1    O514589   1.344   4.043  10.622
    2TMC1    H514590   1.375   4.124  10.575
    3MPD2     C14591   0.756   4.302   9.913
    3MPD2    C114592   0.687   4.250  10.021
    3MPD2    C214593   0.740   4.272  10.152
    3MPD2    C314594   0.870   4.324  10.170
    3MPD2    C414595   0.943   4.369  10.060
    3MPD2    C514596   0.883   4.355   9.937
    3MPD2     H14597   0.693   4.236  10.243
    3MPD2    H114598   1.029   4.434  10.061
    3MPD2    H214599   0.716   4.291   9.813
    3MPD2    H314600   0.931   4.390   9.846
    3MPD2     N14601   0.930   4.324  10.294
    3MPD2    H514602   0.871   4.306  10.374
    3MPD2    N114603   0.567   4.177  10.020
    3MPD2    H714604   0.543   4.136  10.109
    1TMC1    C114605   4.586   0.759  10.784
    1TMC1    C214606   4.554   0.833  10.896
    1TMC1    C314607   4.644   0.839  11.000
    1TMC1    C414608   4.701   0.697  10.778
    1TMC1    C514609   4.786   0.697  10.883
    1TMC1    C614610   4.768   0.770  11.000
    1TMC1     C14611   4.509   0.763  10.658
    1TMC1     O14612   4.563   0.826  10.569
    1TMC1     H14613   4.460   0.884  10.912
    1TMC1    H114614   4.723   0.646  10.685
    1TMC1    H214615   0.050   0.778  11.077
    1TMC1    C714616   0.124   0.685  10.836
    1TMC1    C814617   4.616   0.920  11.115
    1TMC1    O114618   0.149   0.725  10.724
    1TMC1    O214619   4.503   0.974  11.113
    1TMC1    O314620   0.202   0.694  10.939
    1TMC1    H314621   0.165   0.633  11.006
    1TMC1    O514622   4.689   0.876  11.224
    1TMC1    H514623   4.785   0.888  11.210
    2TMC2    C114624   4.422   0.234  10.889
    2TMC2    C214625   4.426   0.167  11.008
    2TMC2    C314626   4.466   0.239  11.116
    2TMC2    C414627   4.454   0.370  10.882
    2TMC2    C514628   4.466   0.443  10.999
    2TMC2    C614629   4.484   0.376  11.114
    2TMC2     C14630   4.315   0.203  10.792
    2TMC2     O14631   4.294   0.278  10.702
    2TMC2     H14632   4.428   0.058  11.012
    2TMC2    H114633   4.428   0.408  10.784
    2TMC2    H214634   4.518   0.429  11.201
    2TMC2    C714635   4.369   0.561  11.002
    2TMC2    C814636   4.519   0.166  11.234
    2TMC2    O114637   4.325   0.592  10.891
    2TMC2    O214638   4.508   0.221  11.341
    2TMC2    O514639   4.637   0.133  11.186
    2TMC2    H514640   4.624   0.084  11.101
    3MPD2     C14641   4.304   0.816  10.448
    3MPD2    C114642   4.273   0.777  10.579
    3MPD2    C214643   4.141   0.750  10.615
    3MPD2    C314644   4.041   0.772  10.526
    3MPD2    C414645   4.064   0.822  10.401
    3MPD2    C514646   4.196   0.843  10.361
    3MPD2     H14647   4.113   0.713  10.713
    3MPD2    H114648   3.982   0.831  10.330
    3MPD2    H214649   4.398   0.834  10.399
    3MPD2    H314650   4.218   0.870  10.259
    3MPD2     N14651   3.914   0.745  10.580
    3MPD2    H514652   3.911   0.716  10.677
    3MPD2    N114653   4.373   0.750  10.679
    3MPD2    H714654   4.350   0.702  10.765
    4MPD2     C14655   3.985   0.788  11.244
    4MPD2    C114656   3.994   0.730  11.121
    4MPD2    C214657   4.108   0.672  11.078
    4MPD2    C314658   4.220   0.667  11.163
    4MPD2    C414659   4.210   0.714  11.286
    4MPD2    C514660   4.096   0.776  11.321
    4MPD2     H14661   4.121   0.618  10.985
    4MPD2    H114662   4.286   0.711  11.363
    4MPD2    H214663   3.890   0.826  11.281
    4MPD2    H314664   4.083   0.817  11.421
    4MPD2     N14665   4.347   0.612  11.126
    4MPD2    H514666   4.418   0.599  11.198
    4MPD2    N114667   3.873   0.730  11.044
    4MPD2    H714668   3.790   0.776  11.079
    5MPD2     C14669   4.014   0.004  10.837
    5MPD2    C114670   4.092   0.119  10.826
    5MPD2    C214671   4.034   0.233  10.782
    5MPD2    C314672   3.895   0.238  10.754
    5MPD2    C414673   3.826   0.124  10.757
    5MPD2    C514674   3.879   0.012  10.795
    5MPD2     H14675   4.085   0.328  10.769
    5MPD2    H114676   3.719   0.134  10.745
    5MPD2    H214677   4.048   4.700  10.868
    5MPD2    H314678   3.820   4.715  10.805
    5MPD2     N14679   3.823   0.359  10.746
    5MPD2    H514680   3.867   0.443  10.780
    5MPD2    N114681   4.229   0.104  10.836
    5MPD2    H714682   4.259   0.046  10.914
    6TMC3    C114683   3.727   0.679  10.871
    6TMC3    C214684   3.677   0.552  10.852
    6TMC3    C314685   3.642   0.513  10.724
    6TMC3    C414686   3.736   0.760  10.752
    6TMC3    C514687   3.698   0.719  10.627
    6TMC3    C614688   3.640   0.596  10.614
    6TMC3     C14689   3.859   0.667  10.925
    6TMC3     O14690   3.935   0.614  10.842
    6TMC3     H14691   3.681   0.476  10.929
    6TMC3    H114692   3.774   0.861  10.762
    6TMC3    H214693   3.619   0.552  10.517
    6TMC3    C714694   3.789   0.754  10.521
    6TMC3    C814695   3.694   0.378  10.693
    6TMC3    O114696   3.759   0.757  10.403
    6TMC3    O214697   3.616   0.301  10.636
  958TMC0    C114698   2.971   1.841  15.425
  958TMC0    C214699   2.847   1.799  15.469
  958TMC0    C314700   2.851   1.709  15.578
  958TMC0    C414701   3.087   1.802  15.482
  958TMC0    C514702   3.086   1.711  15.583
  958TMC0    C614703   2.970   1.662  15.633
  958TMC0     C14704   2.974   1.966  15.345
  958TMC0     O14705   3.069   2.039  15.370
  958TMC0     H14706   2.756   1.837  15.425
  958TMC0    H114707   3.175   1.848  15.439
  958TMC0    H214708   2.984   1.578  15.699
  958TMC0    C714709   3.217   1.658  15.632
  958TMC0    C814710   2.731   1.633  15.609
  958TMC0    O114711   3.220   1.597  15.736
  958TMC0    O214712   2.738   1.522  15.667
  958TMC0    O314713   3.283   1.627  15.517
  958TMC0    H314714   3.247   1.672  15.438
  958TMC0    O414715   2.943   1.927  15.216
  958TMC0    H414716   2.862   1.872  15.207
  958TMC0    O514717   2.629   1.722  15.619
  958TMC0    H514718   2.657   1.815  15.603
  959TMC0    C114719   3.536   0.829   6.206
  959TMC0    C214720   3.587   0.707   6.157
  959TMC0    C314721   3.509   0.645   6.064
  959TMC0    C414722   3.410   0.875   6.190
  959TMC0    C514723   3.334   0.806   6.092
  959TMC0    C614724   3.384   0.696   6.025
  959TMC0     C14725   3.593   0.882   6.325
  959TMC0     O14726   3.679   0.824   6.391
  959TMC0     H14727   3.689   0.676   6.175
  959TMC0    H114728   3.379   0.961   6.249
  959TMC0    H214729   3.319   0.631   5.968
  959TMC0    C714730   3.199   0.854   6.063
  959TMC0    C814731   3.567   0.549   5.974
  959TMC0    O114732   3.138   0.821   5.963
  959TMC0    O214733   3.495   0.453   5.937
  959TMC0    O314734   3.146   0.891   6.180
  959TMC0    H314735   3.215   0.897   6.249
  959TMC0    O414736   3.619   1.004   6.271
  959TMC0    H414737   3.585   1.024   6.181
  959TMC0    O514738   3.675   0.597   5.914
  959TMC0    H514739   3.694   0.687   5.946
  960TMC0    C114740   3.595   4.755   9.095
  960TMC0    C214741   3.602   4.778   8.962
  960TMC0    C314742   3.489   4.773   8.891
  960TMC0    C414743   3.477   4.737   9.164
  960TMC0    C514744   3.362   4.736   9.082
  960TMC0    C614745   3.364   4.750   8.947
  960TMC0     C14746   3.723   4.750   9.164
  960TMC0     O14747   3.825   0.009   9.122
  960TMC0     H14748   3.699   4.794   8.915
  960TMC0    H114749   3.459   4.716   9.268
  960TMC0    H214750   3.272   4.750   8.891
  960TMC0    C714751   3.246   4.682   9.145
  960TMC0    C814752   3.483   0.040   8.758
  960TMC0    O114753   3.238   4.563   9.161
  960TMC0    O214754   3.371   0.079   8.734
  960TMC0    O314755   3.235   4.773   9.250
  960TMC0    H314756   3.232   0.075   9.230
  960TMC0    O414757   3.706   4.646   9.248
  960TMC0    H414758   3.617   4.606   9.243
  960TMC0    O514759   3.596   0.110   8.752
  960TMC0    H514760   3.675   0.068   8.711
  961SOL     OW14761   0.935   2.614   2.524
  961SOL    HW114762   0.918   2.622   2.618
  961SOL    HW214763   0.908   2.525   2.502
  962SOL     OW14764   3.597   2.488  20.464
  962SOL    HW114765   3.524   2.440  20.428
  962SOL    HW214766   3.671   2.427  20.461
  963SOL     OW14767   2.297   2.326   4.594
  963SOL    HW114768   2.236   2.390   4.558
  963SOL    HW214769   2.268   2.313   4.685
  964SOL     OW14770   2.880   3.442   4.912
  964SOL    HW114771   2.965   3.466   4.875
  964SOL    HW214772   2.816   3.471   4.847
  965SOL     OW14773   2.091   3.232  17.632
  965SOL    HW114774   2.161   3.237  17.697
  965SOL    HW214775   2.060   3.141  17.638
  966SOL     OW14776   0.654   2.043  15.908
  966SOL    HW114777   0.742   2.063  15.875
  966SOL    HW214778   0.597   2.051  15.831
  967SOL     OW14779   0.504   0.022   2.625
  967SOL    HW114780   0.476   0.027   2.533
  967SOL    HW214781   0.427   4.780   2.671
  968SOL     OW14782   2.714   3.789  12.693
  968SOL    HW114783   2.735   3.756  12.605
  968SOL    HW214784   2.789   3.765  12.747
  969SOL     OW14785   2.867   4.327   6.001
  969SOL    HW114786   2.813   4.249   5.994
  969SOL    HW214787   2.949   4.296   6.040
  970SOL     OW14788   1.790   1.336  13.530
  970SOL    HW114789   1.705   1.340  13.575
  970SOL    HW214790   1.785   1.256  13.477
  971SOL     OW14791   3.563   1.344  18.964
  971SOL    HW114792   3.541   1.399  18.888
  971SOL    HW214793   3.478   1.324  19.004
  972SOL     OW14794   3.315   2.752   7.013
  972SOL    HW114795   3.319   2.698   7.092
  972SOL    HW214796   3.222   2.749   6.988
  973SOL     OW14797   4.339   2.141   2.397
  973SOL    HW114798   4.289   2.104   2.324
  973SOL    HW214799   4.287   2.217   2.425
  974SOL     OW14800   0.843   4.527   6.380
  974SOL    HW114801   0.918   4.542   6.322
  974SOL    HW214802   0.842   4.432   6.393
  975SOL     OW14803   1.433   4.272   5.563
  975SOL    HW114804   1.473   4.292   5.479
  975SOL    HW214805   1.423   4.356   5.607
  976SOL     OW14806   1.927   0.955   3.683
  976SOL    HW114807   1.979   1.016   3.734
  976SOL    HW214808   1.837   0.971   3.711
  977SOL     OW14809   2.442   0.236   3.735
  977SOL    HW114810   2.421   0.143   3.736
  977SOL    HW214811   2.537   0.239   3.730
  978SOL     OW14812   1.570   3.579  15.334
  978SOL    HW114813   1.617   3.603  15.254
  978SOL    HW214814   1.482   3.615  15.322
  979SOL     OW14815   2.247   4.043   1.673
  979SOL    HW114816   2.156   4.067   1.657
  979SOL    HW214817   2.258   4.053   1.767
  980SOL     OW14818   0.130   0.192  15.756
  980SOL    HW114819   0.058   0.245  15.789
  980SOL    HW214820   0.196   0.255  15.728
  981SOL     OW14821   4.238   3.078  17.430
  981SOL    HW114822   4.243   3.124  17.514
  981SOL    HW214823   4.306   3.118  17.376
  982SOL     OW14824   3.969   3.597  18.103
  982SOL    HW114825   3.901   3.643  18.054
  982SOL    HW214826   3.927   3.574  18.187
  983SOL     OW14827   2.409   0.646   0.738
  983SOL    HW114828   2.337   0.655   0.799
  983SOL    HW214829   2.488   0.653   0.792
  984SOL     OW14830   2.205   0.065  20.111
  984SOL    HW114831   2.145   0.129  20.073
  984SOL    HW214832   2.290   0.109  20.111
  985SOL     OW14833   3.371   0.988   1.898
  985SOL    HW114834   3.359   1.081   1.876
  985SOL    HW214835   3.446   0.987   1.957
  986SOL     OW14836   0.488   3.422  20.139
  986SOL    HW114837   0.574   3.400  20.174
  986SOL    HW214838   0.506   3.488  20.072
  987SOL     OW14839   2.499   4.783  17.279
  987SOL    HW114840   2.460   0.075  17.288
  987SOL    HW214841   2.586   4.791  17.319
  988SOL     OW14842   1.408   2.908  16.802
  988SOL    HW114843   1.339   2.957  16.756
  988SOL    HW214844   1.378   2.904  16.892
  989SOL     OW14845   0.201   3.514  15.480
  989SOL    HW114846   0.141   3.501  15.407
  989SOL    HW214847   0.278   3.460  15.458
  990SOL     OW14848   1.035   4.215  20.799
  990SOL    HW114849   0.986   4.200  20.719
  990SOL    HW214850   1.049   4.309  20.802
  991SOL     OW14851   3.464   0.761   3.748
  991SOL    HW114852   3.541   0.705   3.756
  991SOL    HW214853   3.421   0.756   3.833
  992SOL     OW14854   4.514   2.557  18.944
  992SOL    HW114855   4.563   2.504  19.007
  992SOL    HW214856   4.547   2.529  18.859
  993SOL     OW14857   0.104   2.651  21.261
  993SOL    HW114858   0.165   2.681  21.194
  993SOL    HW214859   0.156   2.645   0.065
  994SOL     OW14860   2.080   3.628  18.953
  994SOL    HW114861   1.998   3.615  19.001
  994SOL    HW214862   2.052   3.659  18.866
  995SOL     OW14863   0.973   0.061   2.339
  995SOL    HW114864   1.051   0.051   2.285
  995SOL    HW214865   0.940   4.766   2.350
  996SOL     OW14866   1.062   0.669  16.343
  996SOL    HW114867   1.036   0.748  16.391
  996SOL    HW214868   1.138   0.696  16.292
  997SOL     OW14869   1.663   0.241  19.503
  997SOL    HW114870   1.631   0.235  19.414
  997SOL    HW214871   1.754   0.211  19.498
  998SOL     OW14872   1.767   0.417  18.794
  998SOL    HW114873   1.694   0.469  18.828
  998SOL    HW214874   1.824   0.481  18.752
  999SOL     OW14875   2.813   2.510  15.776
  999SOL    HW114876   2.727   2.532  15.812
  999SOL    HW214877   2.867   2.586  15.796
 1000SOL     OW14878   0.141   0.500  19.211
 1000SOL    HW114879   0.210   0.531  19.270
 1000SOL    HW214880   0.164   0.409  19.194
 1001SOL     OW14881   4.357   1.863  16.844
 1001SOL    HW114882   4.363   1.955  16.871
 1001SOL    HW214883   4.278   1.858  16.791
 1002SOL     OW14884   2.830   3.118  17.974
 1002SOL    HW114885   2.770   3.175  18.022
 1002SOL    HW214886   2.868   3.061  18.042
 1003SOL     OW14887   1.786   4.778  17.747
 1003SOL    HW114888   1.691   4.766  17.751
 1003SOL    HW214889   1.798   0.074  17.719
 1004SOL     OW14890   0.283   0.433  18.019
 1004SOL    HW114891   0.325   0.482  18.090
 1004SOL    HW214892   0.312   0.478  17.939
 1005SOL     OW14893   0.158   4.669   3.311
 1005SOL    HW114894   0.155   4.727   3.388
 1005SOL    HW214895   0.080   4.615   3.319
 1006SOL     OW14896   2.881   0.756  20.657
 1006SOL    HW114897   2.810   0.731  20.715
 1006SOL    HW214898   2.839   0.777  20.574
 1007SOL     OW14899   1.282   2.343  19.764
 1007SOL    HW114900   1.289   2.272  19.828
 1007SOL    HW214901   1.197   2.383  19.782
 1008SOL     OW14902   3.266   1.634   3.900
 1008SOL    HW114903   3.339   1.617   3.840
 1008SOL    HW214904   3.196   1.576   3.870
 1009SOL     OW14905   2.052   2.496  20.044
 1009SOL    HW114906   1.977   2.514  20.100
 1009SOL    HW214907   2.020   2.432  19.980
 1010SOL     OW14908   2.085   3.277   1.388
 1010SOL    HW114909   2.169   3.318   1.364
 1010SOL    HW214910   2.034   3.281   1.307
 1011SOL     OW14911   0.321   1.723   3.631
 1011SOL    HW114912   0.338   1.797   3.689
 1011SOL    HW214913   0.317   1.647   3.690
 1012SOL     OW14914   3.662   0.079   5.863
 1012SOL    HW114915   3.705   0.123   5.936
 1012SOL    HW214916   3.732   0.027   5.822
 1013SOL     OW14917   2.316   0.102   1.452
 1013SOL    HW114918   2.385   0.120   1.516
 1013SOL    HW214919   2.356   0.121   1.367
 1014SOL     OW14920   4.478   1.724   1.253
 1014SOL    HW114921   4.533   1.654   1.218
 1014SOL    HW214922   4.393   1.682   1.267
 1015SOL     OW14923   0.826   3.675   1.171
 1015SOL    HW114924   0.920   3.663   1.154
 1015SOL    HW214925   0.793   3.586   1.184
 1016SOL     OW14926   1.282   4.320   3.234
 1016SOL    HW114927   1.274   4.273   3.316
 1016SOL    HW214928   1.343   4.268   3.182
 1017SOL     OW14929   3.325   4.351  15.980
 1017SOL    HW114930   3.357   4.325  15.893
 1017SOL    HW214931   3.235   4.321  15.982
 1018SOL     OW14932   0.161   3.229  18.726
 1018SOL    HW114933   0.119   3.262  18.647
 1018SOL    HW214934   0.090   3.225  18.791
 1019SOL     OW14935   1.256   4.783  18.094
 1019SOL    HW114936   1.278   4.714  18.156
 1019SOL    HW214937   1.290   0.069  18.135
 1020SOL     OW14938   3.286   0.833   5.196
 1020SOL    HW114939   3.200   0.814   5.233
 1020SOL    HW214940   3.339   0.757   5.219
 1021SOL     OW14941   0.263   2.022  20.148
 1021SOL    HW114942   0.193   1.965  20.180
 1021SOL    HW214943   0.290   1.981  20.066
 1022SOL     OW14944   1.374   3.171   3.339
 1022SOL    HW114945   1.307   3.237   3.320
 1022SOL    HW214946   1.425   3.209   3.410
 1023SOL     OW14947   2.173   1.357  19.027
 1023SOL    HW114948   2.173   1.380  18.934
 1023SOL    HW214949   2.161   1.262  19.029
 1024SOL     OW14950   1.435   3.717  17.052
 1024SOL    HW114951   1.523   3.702  17.016
 1024SOL    HW214952   1.379   3.726  16.975
 1025SOL     OW14953   4.737   1.432  20.775
 1025SOL    HW114954   4.776   1.345  20.781
 1025SOL    HW214955   4.764   1.465  20.690
 1026SOL     OW14956   4.365   3.638  20.673
 1026SOL    HW114957   4.409   3.607  20.753
 1026SOL    HW214958   4.295   3.575  20.659
 1027SOL     OW14959   2.368   1.142   5.844
 1027SOL    HW114960   2.287   1.146   5.895
 1027SOL    HW214961   2.364   1.058   5.798
 1028SOL     OW14962   0.253   3.461   3.573
 1028SOL    HW114963   0.313   3.389   3.553
 1028SOL    HW214964   0.288   3.501   3.652
 1029SOL     OW14965   4.268   0.714   3.481
 1029SOL    HW114966   4.360   0.731   3.462
 1029SOL    HW214967   4.227   0.800   3.482
 1030SOL     OW14968   1.842   4.108  20.357
 1030SOL    HW114969   1.824   4.021  20.321
 1030SOL    HW214970   1.903   4.147  20.294
 1031SOL     OW14971   1.720   3.449  18.855
 1031SOL    HW114972   1.691   3.445  18.764
 1031SOL    HW214973   1.796   3.391  18.859
 1032SOL     OW14974   4.671   0.367  16.178
 1032SOL    HW114975   4.661   0.337  16.269
 1032SOL    HW214976   4.629   0.453  16.176
 1033SOL     OW14977   0.618   1.240   0.329
 1033SOL    HW114978   0.600   1.169   0.267
 1033SOL    HW214979   0.533   1.282   0.343
 1034SOL     OW14980   3.454   1.173   4.900
 1034SOL    HW114981   3.438   1.081   4.924
 1034SOL    HW214982   3.544   1.173   4.867
 1035SOL     OW14983   0.606   4.388   2.184
 1035SOL    HW114984   0.539   4.330   2.220
 1035SOL    HW214985   0.645   4.339   2.112
 1036SOL     OW14986   0.672   0.815   4.321
 1036SOL    HW114987   0.685   0.811   4.227
 1036SOL    HW214988   0.757   0.795   4.359
 1037SOL     OW14989   4.212   4.337   8.185
 1037SOL    HW114990   4.224   4.424   8.223
 1037SOL    HW214991   4.294   4.291   8.203
 1038SOL     OW14992   0.013   0.183   0.167
 1038SOL    HW114993   4.764   0.124   0.105
 1038SOL    HW214994   4.736   0.231   0.209
 1039SOL     OW14995   0.808   3.026  18.378
 1039SOL    HW114996   0.809   3.027  18.283
 1039SOL    HW214997   0.863   2.952  18.402
 1040SOL     OW14998   0.318   0.745  19.752
 1040SOL    HW114999   0.339   0.802  19.826
 1040SOL    HW215000   0.382   0.768  19.685
 1041SOL     OW15001   4.733   1.885   7.419
 1041SOL    HW115002   4.643   1.875   7.450
 1041SOL    HW215003   4.788   1.859   7.494
 1042SOL     OW15004   1.218   4.304  19.326
 1042SOL    HW115005   1.152   4.312  19.395
 1042SOL    HW215006   1.302   4.310  19.373
 1043SOL     OW15007   4.337   3.713  16.359
 1043SOL    HW115008   4.316   3.739  16.448
 1043SOL    HW215009   4.347   3.618  16.363
 1044SOL     OW15010   0.243   3.011  16.941
 1044SOL    HW115011   0.193   3.079  16.897
 1044SOL    HW215012   0.224   3.023  17.034
 1045SOL     OW15013   0.963   2.745  16.088
 1045SOL    HW115014   0.937   2.803  16.160
 1045SOL    HW215015   1.036   2.694  16.124
 1046SOL     OW15016   2.545   3.107  21.155
 1046SOL    HW115017   2.621   3.128  21.100
 1046SOL    HW215018   2.483   3.066  21.096
 1047SOL     OW15019   1.052   4.385  19.523
 1047SOL    HW115020   0.989   4.446  19.485
 1047SOL    HW215021   1.026   4.379  19.615
 1048SOL     OW15022   2.782   1.151  20.642
 1048SOL    HW115023   2.697   1.108  20.632
 1048SOL    HW215024   2.842   1.097  20.590
 1049SOL     OW15025   4.219   3.618  14.964
 1049SOL    HW115026   4.306   3.595  14.998
 1049SOL    HW215027   4.236   3.647  14.874
 1050SOL     OW15028   0.087   2.478   4.474
 1050SOL    HW115029   0.113   2.391   4.503
 1050SOL    HW215030   0.031   2.462   4.398
 1051SOL     OW15031   4.075   1.347   0.057
 1051SOL    HW115032   4.070   1.304  21.248
 1051SOL    HW215033   4.166   1.375   0.066
 1052SOL     OW15034   3.608   4.061  16.953
 1052SOL    HW115035   3.596   4.137  17.009
 1052SOL    HW215036   3.562   3.990  16.998
 1053SOL     OW15037   3.817   3.976  18.290
 1053SOL    HW115038   3.855   3.982  18.377
 1053SOL    HW215039   3.834   4.061  18.250
 1054SOL     OW15040   3.322   3.535   0.213
 1054SOL    HW115041   3.307   3.588   0.135
 1054SOL    HW215042   3.341   3.447   0.178
 1055SOL     OW15043   3.711   4.517  16.890
 1055SOL    HW115044   3.698   4.471  16.806
 1055SOL    HW215045   3.675   4.457  16.955
 1056SOL     OW15046   2.620   2.591   0.501
 1056SOL    HW115047   2.617   2.503   0.466
 1056SOL    HW215048   2.662   2.582   0.587
 1057SOL     OW15049   2.664   0.105   6.326
 1057SOL    HW115050   2.716   0.140   6.398
 1057SOL    HW215051   2.626   0.025   6.360
 1058SOL     OW15052   1.774   2.070   6.983
 1058SOL    HW115053   1.717   2.050   7.057
 1058SOL    HW215054   1.747   2.010   6.914
 1059SOL     OW15055   0.640   0.314  16.504
 1059SOL    HW115056   0.587   0.329  16.426
 1059SOL    HW215057   0.686   0.397  16.518
 1060SOL     OW15058   3.325   3.606  20.213
 1060SOL    HW115059   3.386   3.533  20.201
 1060SOL    HW215060   3.361   3.655  20.286
 1061SOL     OW15061   0.084   4.512  16.052
 1061SOL    HW115062   0.143   4.587  16.061
 1061SOL    HW215063   0.065   4.486  16.142
 1062SOL     OW15064   1.303   3.629   3.347
 1062SOL    HW115065   1.345   3.586   3.422
 1062SOL    HW215066   1.212   3.599   3.350
 1063SOL     OW15067   3.641   3.096  16.529
 1063SOL    HW115068   3.707   3.142  16.477
 1063SOL    HW215069   3.685   3.076  16.612
 1064SOL     OW15070   3.094   1.733   5.977
 1064SOL    HW115071   3.154   1.804   5.955
 1064SOL    HW215072   3.063   1.701   5.892
 1065SOL     OW15073   1.613   0.393  20.086
 1065SOL    HW115074   1.552   0.382  20.159
 1065SOL    HW215075   1.567   0.450  20.024
 1066SOL     OW15076   4.603   3.228   0.440
 1066SOL    HW115077   4.644   3.152   0.398
 1066SOL    HW215078   4.675   3.291   0.448
 1067SOL     OW15079   1.364   1.424  15.634
 1067SOL    HW115080   1.366   1.396  15.543
 1067SOL    HW215081   1.312   1.357  15.679
 1068SOL     OW15082   4.772   2.529  15.736
 1068SOL    HW115083   0.070   2.505  15.744
 1068SOL    HW215084   4.733   2.505  15.820
 1069SOL     OW15085   1.633   1.867   1.260
 1069SOL    HW115086   1.702   1.884   1.325
 1069SOL    HW215087   1.557   1.915   1.293
 1070SOL     OW15088   0.793   2.426  18.450
 1070SOL    HW115089   0.771   2.434  18.543
 1070SOL    HW215090   0.819   2.334  18.440
 1071SOL     OW15091   0.709   1.852  17.749
 1071SOL    HW115092   0.655   1.781  17.782
 1071SOL    HW215093   0.747   1.817  17.668
 1072SOL     OW15094   3.083   0.468   1.876
 1072SOL    HW115095   2.993   0.453   1.846
 1072SOL    HW215096   3.077   0.549   1.927
 1073SOL     OW15097   2.085   0.809   2.569
 1073SOL    HW115098   2.127   0.762   2.497
 1073SOL    HW215099   2.041   0.740   2.619
 1074SOL     OW15100   0.047   0.705   3.523
 1074SOL    HW115101   0.131   0.660   3.523
 1074SOL    HW215102   4.787   0.654   3.583
 1075SOL     OW15103   2.641   1.782  21.269
 1075SOL    HW115104   2.721   1.729  21.263
 1075SOL    HW215105   2.599   1.752   0.073
 1076SOL     OW15106   1.707   1.349  21.263
 1076SOL    HW115107   1.678   1.390  21.182
 1076SOL    HW215108   1.637   1.368   0.049
 1077SOL     OW15109   0.615   4.762   7.906
 1077SOL    HW115110   0.544   0.006   7.958
 1077SOL    HW215111   0.670   4.718   7.970
 1078SOL     OW15112   4.492   4.266   3.615
 1078SOL    HW115113   4.571   4.290   3.566
 1078SOL    HW215114   4.471   4.345   3.666
 1079SOL     OW15115   1.955   0.720  14.549
 1079SOL    HW115116   2.040   0.729  14.507
 1079SOL    HW215117   1.896   0.693  14.478
 1080SOL     OW15118   3.283   0.059  17.473
 1080SOL    HW115119   3.247   0.054  17.561
 1080SOL    HW215120   3.343   0.132  17.476
 1081SOL     OW15121   1.844   3.628   3.528
 1081SOL    HW115122   1.933   3.645   3.496
 1081SOL    HW215123   1.833   3.687   3.603
 1082SOL     OW15124   3.774   3.623  18.938
 1082SOL    HW115125   3.739   3.652  19.022
 1082SOL    HW215126   3.860   3.665  18.933
 1083SOL     OW15127   4.794   2.109   3.221
 1083SOL    HW115128   0.007   2.103   3.316
 1083SOL    HW215129   4.747   2.029   3.195
 1084SOL     OW15130   4.153   3.954   5.317
 1084SOL    HW115131   4.081   3.908   5.359
 1084SOL    HW215132   4.118   4.040   5.295
 1085SOL     OW15133   3.852   3.303  12.320
 1085SOL    HW115134   3.928   3.274  12.270
 1085SOL    HW215135   3.809   3.368  12.264
 1086SOL     OW15136   2.809   4.665   6.009
 1086SOL    HW115137   2.794   4.623   6.093
 1086SOL    HW215138   2.876   4.612   5.967
 1087SOL     OW15139   1.999   0.412  21.126
 1087SOL    HW115140   2.035   0.347  21.186
 1087SOL    HW215141   1.906   0.418  21.150
 1088SOL     OW15142   2.238   0.640  18.462
 1088SOL    HW115143   2.314   0.697  18.452
 1088SOL    HW215144   2.188   0.654  18.381
 1089SOL     OW15145   0.376   1.379   0.093
 1089SOL    HW115146   0.391   1.294   0.053
 1089SOL    HW215147   0.297   1.412   0.050
 1090SOL     OW15148   0.542   0.013  15.747
 1090SOL    HW115149   0.499   4.727  15.778
 1090SOL    HW215150   0.488   0.042  15.674
 1091SOL     OW15151   1.162   3.497  18.359
 1091SOL    HW115152   1.076   3.463  18.384
 1091SOL    HW215153   1.144   3.586  18.327
 1092SOL     OW15154   0.748   3.089   2.931
 1092SOL    HW115155   0.833   3.059   2.961
 1092SOL    HW215156   0.766   3.137   2.850
 1093SOL     OW15157   0.504   4.023  19.733
 1093SOL    HW115158   0.581   4.001  19.681
 1093SOL    HW215159   0.439   3.958  19.708
 1094SOL     OW15160   4.677   4.293   2.101
 1094SOL    HW115161   4.624   4.263   2.174
 1094SOL    HW215162   4.614   4.313   2.032
 1095SOL     OW15163   1.407   3.665  18.194
 1095SOL    HW115164   1.442   3.747  18.230
 1095SOL    HW215165   1.312   3.673  18.203
 1096SOL     OW15166   0.585   1.267  20.493
 1096SOL    HW115167   0.617   1.351  20.460
 1096SOL    HW215168   0.507   1.249  20.439
 1097SOL     OW15169   1.085   4.786   3.614
 1097SOL    HW115170   1.023   4.743   3.556
 1097SOL    HW215171   1.167   4.739   3.602
 1098SOL     OW15172   4.615   4.016   5.280
 1098SOL    HW115173   4.571   3.931   5.275
 1098SOL    HW215174   4.676   4.007   5.354
 1099SOL     OW15175   4.375   3.342   4.245
 1099SOL    HW115176   4.464   3.371   4.226
 1099SOL    HW215177   4.319   3.405   4.198
 1100SOL     OW15178   1.318   3.598  17.257
 1100SOL    HW115179   1.347   3.636  17.174
 1100SOL    HW215180   1.342   3.506  17.252
 1101SOL     OW15181   2.592   2.233   6.728
 1101SOL    HW115182   2.614   2.217   6.636
 1101SOL    HW215183   2.521   2.172   6.746
 1102SOL     OW15184   3.790   3.069  18.643
 1102SOL    HW115185   3.796   2.974  18.656
 1102SOL    HW215186   3.734   3.099  18.715
 1103SOL     OW15187   0.908   4.524   4.619
 1103SOL    HW115188   0.930   4.615   4.643
 1103SOL    HW215189   0.832   4.503   4.674
 1104SOL     OW15190   1.937   1.118   4.698
 1104SOL    HW115191   2.019   1.119   4.747
 1104SOL    HW215192   1.960   1.079   4.613
 1105SOL     OW15193   0.316   4.743  14.948
 1105SOL    HW115194   0.277   4.665  14.987
 1105SOL    HW215195   0.310   0.016  15.015
 1106SOL     OW15196   2.980   3.690  17.765
 1106SOL    HW115197   3.024   3.758  17.816
 1106SOL    HW215198   2.901   3.669  17.816
 1107SOL     OW15199   4.224   0.274   5.572
 1107SOL    HW115200   4.214   0.321   5.655
 1107SOL    HW215201   4.152   0.211   5.572
 1108SOL     OW15202   1.240   4.125   3.439
 1108SOL    HW115203   1.198   4.063   3.379
 1108SOL    HW215204   1.258   4.073   3.517
 1109SOL     OW15205   0.909   0.436  16.903
 1109SOL    HW115206   0.983   0.494  16.883
 1109SOL    HW215207   0.832   0.492  16.897
 1110SOL     OW15208   4.230   4.492  18.989
 1110SOL    HW115209   4.322   4.481  18.965
 1110SOL    HW215210   4.185   4.508  18.906
 1111SOL     OW15211   3.214   0.677  20.976
 1111SOL    HW115212   3.197   0.648  20.886
 1111SOL    HW215213   3.132   0.663  21.022
 1112SOL     OW15214   3.822   4.230  18.197
 1112SOL    HW115215   3.856   4.256  18.283
 1112SOL    HW215216   3.809   4.312  18.150
 1113SOL     OW15217   3.421   4.533  15.782
 1113SOL    HW115218   3.414   4.610  15.839
 1113SOL    HW215219   3.331   4.514  15.757
 1114SOL     OW15220   3.074   3.509  20.233
 1114SOL    HW115221   3.124   3.429  20.249
 1114SOL    HW215222   3.138   3.579  20.244
 1115SOL     OW15223   4.546   0.312   1.719
 1115SOL    HW115224   4.615   0.376   1.733
 1115SOL    HW215225   4.578   0.258   1.646
 1116SOL     OW15226   0.400   2.452   4.407
 1116SOL    HW115227   0.315   2.495   4.393
 1116SOL    HW215228   0.445   2.461   4.323
 1117SOL     OW15229   3.500   1.426  16.117
 1117SOL    HW115230   3.497   1.490  16.046
 1117SOL    HW215231   3.423   1.371  16.103
 1118SOL     OW15232   0.851   0.459  21.037
 1118SOL    HW115233   0.860   0.554  21.042
 1118SOL    HW215234   0.819   0.442  20.948
 1119SOL     OW15235   1.020   4.243   4.407
 1119SOL    HW115236   1.084   4.207   4.469
 1119SOL    HW215237   1.036   4.337   4.407
 1120SOL     OW15238   3.766   3.930   5.125
 1120SOL    HW115239   3.852   3.968   5.105
 1120SOL    HW215240   3.753   3.948   5.218
 1121SOL     OW15241   0.263   1.720   3.384
 1121SOL    HW115242   0.286   1.703   3.476
 1121SOL    HW215243   0.260   1.633   3.344
 1122SOL     OW15244   3.816   1.173   1.119
 1122SOL    HW115245   3.892   1.120   1.096
 1122SOL    HW215246   3.797   1.148   1.210
 1123SOL     OW15247   4.658   2.211  16.222
 1123SOL    HW115248   4.698   2.286  16.265
 1123SOL    HW215249   4.631   2.154  16.294
 1124SOL     OW15250   1.180   2.460   4.107
 1124SOL    HW115251   1.106   2.467   4.167
 1124SOL    HW215252   1.257   2.454   4.163
 1125SOL     OW15253   0.779   2.146   3.593
 1125SOL    HW115254   0.723   2.146   3.671
 1125SOL    HW215255   0.864   2.178   3.625
 1126SOL     OW15256   1.874   0.542   1.762
 1126SOL    HW115257   1.862   0.598   1.839
 1126SOL    HW215258   1.901   0.601   1.692
 1127SOL     OW15259   1.690   3.353  17.698
 1127SOL    HW115260   1.712   3.420  17.763
 1127SOL    HW215261   1.615   3.389  17.651
 1128SOL     OW15262   3.156   3.623  17.141
 1128SOL    HW115263   3.212   3.644  17.066
 1128SOL    HW215264   3.212   3.569  17.197
 1129SOL     OW15265   4.020   2.039   9.077
 1129SOL    HW115266   3.990   2.037   8.986
 1129SOL    HW215267   4.039   1.948   9.098
 1130SOL     OW15268   3.311   0.707   4.291
 1130SOL    HW115269   3.373   0.675   4.356
 1130SOL    HW215270   3.230   0.719   4.340
 1131SOL     OW15271   2.910   0.659   0.606
 1131SOL    HW115272   2.977   0.610   0.654
 1131SOL    HW215273   2.879   0.724   0.669
 1132SOL     OW15274   1.082   1.637   2.017
 1132SOL    HW115275   1.171   1.651   1.983
 1132SOL    HW215276   1.025   1.658   1.943
 1133SOL     OW15277   4.687   0.195   7.540
 1133SOL    HW115278   4.642   0.132   7.596
 1133SOL    HW215279   4.768   0.216   7.588
 1134SOL     OW15280   3.802   4.151  12.508
 1134SOL    HW115281   3.859   4.081  12.541
 1134SOL    HW215282   3.762   4.188  12.586
 1135SOL     OW15283   1.941   3.702   1.068
 1135SOL    HW115284   1.951   3.773   1.132
 1135SOL    HW215285   1.848   3.680   1.070
 1136SOL     OW15286   2.367   1.357   0.452
 1136SOL    HW115287   2.289   1.410   0.470
 1136SOL    HW215288   2.339   1.267   0.470
 1137SOL     OW15289   1.201   1.872   2.396
 1137SOL    HW115290   1.205   1.942   2.330
 1137SOL    HW215291   1.160   1.798   2.350
 1138SOL     OW15292   1.750   0.145  18.096
 1138SOL    HW115293   1.705   0.216  18.051
 1138SOL    HW215294   1.828   0.128  18.044
 1139SOL     OW15295   3.592   2.619   6.231
 1139SOL    HW115296   3.575   2.625   6.325
 1139SOL    HW215297   3.509   2.640   6.189
 1140SOL     OW15298   2.953   4.468   3.929
 1140SOL    HW115299   3.033   4.510   3.899
 1140SOL    HW215300   2.968   4.374   3.918
 1141SOL     OW15301   0.299   0.518   4.486
 1141SOL    HW115302   0.236   0.479   4.425
 1141SOL    HW215303   0.314   0.451   4.552
 1142SOL     OW15304   2.622   2.349  19.107
 1142SOL    HW115305   2.696   2.349  19.167
 1142SOL    HW215306   2.566   2.421  19.136
 1143SOL     OW15307   0.699   2.576   6.128
 1143SOL    HW115308   0.623   2.552   6.076
 1143SOL    HW215309   0.743   2.493   6.147
 1144SOL     OW15310   2.311   0.533   5.746
 1144SOL    HW115311   2.337   0.566   5.832
 1144SOL    HW215312   2.312   0.438   5.756
 1145SOL     OW15313   0.683   0.631  18.774
 1145SOL    HW115314   0.752   0.695  18.759
 1145SOL    HW215315   0.605   0.683  18.794
 1146SOL     OW15316   2.222   1.467  20.214
 1146SOL    HW115317   2.259   1.555  20.208
 1146SOL    HW215318   2.256   1.432  20.296
 1147SOL     OW15319   1.838   2.048   2.885
 1147SOL    HW115320   1.928   2.019   2.873
 1147SOL    HW215321   1.831   2.127   2.831
 1148SOL     OW15322   4.011   4.343   0.818
 1148SOL    HW115323   4.029   4.334   0.912
 1148SOL    HW215324   3.918   4.325   0.809
 1149SOL     OW15325   3.855   2.286   1.128
 1149SOL    HW115326   3.948   2.264   1.129
 1149SOL    HW215327   3.812   2.211   1.169
 1150SOL     OW15328   1.972   0.428   3.976
 1150SOL    HW115329   1.989   0.400   3.886
 1150SOL    HW215330   1.903   0.493   3.968
 1151SOL     OW15331   4.127   3.368  18.224
 1151SOL    HW115332   4.158   3.458  18.212
 1151SOL    HW215333   4.173   3.337  18.302
 1152SOL     OW15334   2.553   1.739  16.206
 1152SOL    HW115335   2.519   1.803  16.144
 1152SOL    HW215336   2.479   1.720  16.264
 1153SOL     OW15337   0.855   3.957  20.835
 1153SOL    HW115338   0.828   3.929  20.923
 1153SOL    HW215339   0.912   4.033  20.851
 1154SOL     OW15340   4.338   0.011   3.593
 1154SOL    HW115341   4.402   4.782   3.525
 1154SOL    HW215342   4.256   4.766   3.563
 1155SOL     OW15343   2.568   2.465   4.777
 1155SOL    HW115344   2.576   2.407   4.852
 1155SOL    HW215345   2.482   2.445   4.740
 1156SOL     OW15346   4.724   3.952   5.533
 1156SOL    HW115347   4.714   4.042   5.564
 1156SOL    HW215348   4.685   3.899   5.603
 1157SOL     OW15349   0.641   4.556  13.697
 1157SOL    HW115350   0.588   4.500  13.640
 1157SOL    HW215351   0.702   4.600  13.637
 1158SOL     OW15352   0.712   2.568  15.427
 1158SOL    HW115353   0.622   2.596  15.409
 1158SOL    HW215354   0.712   2.543  15.519
 1159SOL     OW15355   1.360   1.015  15.530
 1159SOL    HW115356   1.307   0.941  15.560
 1159SOL    HW215357   1.297   1.086  15.517
 1160SOL     OW15358   1.290   2.797  19.445
 1160SOL    HW115359   1.212   2.840  19.477
 1160SOL    HW215360   1.363   2.849  19.480
 1161SOL     OW15361   0.884   0.050   6.254
 1161SOL    HW115362   0.947   4.793   6.306
 1161SOL    HW215363   0.799   0.030   6.293
 1162SOL     OW15364   3.738   3.928   2.503
 1162SOL    HW115365   3.662   3.920   2.446
 1162SOL    HW215366   3.704   3.966   2.584
 1163SOL     OW15367   2.667   1.769  19.274
 1163SOL    HW115368   2.753   1.737  19.249
 1163SOL    HW215369   2.674   1.787  19.368
 1164SOL     OW15370   0.368   3.750  18.004
 1164SOL    HW115371   0.458   3.782  18.018
 1164SOL    HW215372   0.375   3.655  18.006
 1165SOL     OW15373   4.171   2.520   5.992
 1165SOL    HW115374   4.244   2.464   5.966
 1165SOL    HW215375   4.143   2.486   6.077
 1166SOL     OW15376   1.510   4.474  13.399
 1166SOL    HW115377   1.529   4.456  13.307
 1166SOL    HW215378   1.543   4.562  13.415
 1167SOL     OW15379   4.087   1.680  15.100
 1167SOL    HW115380   4.052   1.648  15.017
 1167SOL    HW215381   4.103   1.600  15.151
 1168SOL     OW15382   1.490   4.694   0.919
 1168SOL    HW115383   1.500   4.613   0.970
 1168SOL    HW215384   1.418   4.674   0.858
 1169SOL     OW15385   4.107   0.707  15.335
 1169SOL    HW115386   4.052   0.744  15.404
 1169SOL    HW215387   4.123   0.781  15.276
 1170SOL     OW15388   0.657   3.720   6.015
 1170SOL    HW115389   0.752   3.735   6.016
 1170SOL    HW215390   0.641   3.663   6.090
 1171SOL     OW15391   0.644   3.178  13.940
 1171SOL    HW115392   0.718   3.132  13.980
 1171SOL    HW215393   0.627   3.252  13.999
 1172SOL     OW15394   0.474   2.877   2.039
 1172SOL    HW115395   0.467   2.949   2.102
 1172SOL    HW215396   0.564   2.884   2.005
 1173SOL     OW15397   0.375   4.166   0.574
 1173SOL    HW115398   0.421   4.083   0.569
 1173SOL    HW215399   0.307   4.153   0.640
 1174SOL     OW15400   4.616   3.976   7.953
 1174SOL    HW115401   4.594   3.888   7.923
 1174SOL    HW215402   4.701   3.995   7.912
 1175SOL     OW15403   1.418   3.761  21.052
 1175SOL    HW115404   1.395   3.849  21.080
 1175SOL    HW215405   1.343   3.731  21.002
 1176SOL     OW15406   4.222   0.238  18.916
 1176SOL    HW115407   4.150   0.200  18.966
 1176SOL    HW215408   4.286   0.265  18.983
 1177SOL     OW15409   3.502   1.854   5.872
 1177SOL    HW115410   3.489   1.802   5.792
 1177SOL    HW215411   3.451   1.934   5.857
 1178SOL     OW15412   0.079   0.868  16.017
 1178SOL    HW115413   0.105   0.893  15.929
 1178SOL    HW215414   0.128   0.788  16.035
 1179SOL     OW15415   4.093   0.927  19.088
 1179SOL    HW115416   4.104   0.840  19.126
 1179SOL    HW215417   4.162   0.934  19.023
 1180SOL     OW15418   0.919   3.599   2.321
 1180SOL    HW115419   0.985   3.668   2.311
 1180SOL    HW215420   0.865   3.627   2.395
 1181SOL     OW15421   3.749   4.529  19.638
 1181SOL    HW115422   3.771   4.618  19.666
 1181SOL    HW215423   3.743   4.535  19.542
 1182SOL     OW15424   2.716   3.018   4.259
 1182SOL    HW115425   2.660   3.094   4.277
 1182SOL    HW215426   2.754   2.995   4.344
 1183SOL     OW15427   1.796   2.297  15.715
 1183SOL    HW115428   1.730   2.301  15.646
 1183SOL    HW215429   1.854   2.226  15.688
 1184SOL     OW15430   4.106   2.844  17.478
 1184SOL    HW115431   4.143   2.924  17.442
 1184SOL    HW215432   4.056   2.806  17.406
 1185SOL     OW15433   2.323   0.338  14.510
 1185SOL    HW115434   2.412   0.326  14.478
 1185SOL    HW215435   2.321   0.294  14.595
 1186SOL     OW15436   2.225   3.411  19.406
 1186SOL    HW115437   2.139   3.429  19.368
 1186SOL    HW215438   2.207   3.362  19.486
 1187SOL     OW15439   2.657   4.727  18.032
 1187SOL    HW115440   2.717   4.679  17.975
 1187SOL    HW215441   2.669   0.025  18.007
 1188SOL     OW15442   4.391   3.416   2.394
 1188SOL    HW115443   4.347   3.459   2.467
 1188SOL    HW215444   4.327   3.420   2.322
 1189SOL     OW15445   1.187   0.741  17.839
 1189SOL    HW115446   1.098   0.709  17.852
 1189SOL    HW215447   1.243   0.673  17.876
 1190SOL     OW15448   1.028   3.522  16.855
 1190SOL    HW115449   0.962   3.453  16.864
 1190SOL    HW215450   1.079   3.498  16.778
 1191SOL     OW15451   0.517   3.084  15.667
 1191SOL    HW115452   0.499   3.154  15.730
 1191SOL    HW215453   0.483   3.005  15.709
 1192SOL     OW15454   3.158   0.167   3.730
 1192SOL    HW115455   3.145   0.083   3.685
 1192SOL    HW215456   3.111   0.231   3.675
 1193SOL     OW15457   0.383   0.131   1.756
 1193SOL    HW115458   0.379   0.074   1.832
 1193SOL    HW215459   0.360   0.074   1.682
 1194SOL     OW15460   1.824   2.621   0.947
 1194SOL    HW115461   1.819   2.714   0.969
 1194SOL    HW215462   1.917   2.600   0.951
 1195SOL     OW15463   2.062   3.626   4.428
 1195SOL    HW115464   2.082   3.706   4.477
 1195SOL    HW215465   1.970   3.607   4.448
 1196SOL     OW15466   3.441   3.224  16.727
 1196SOL    HW115467   3.420   3.181  16.644
 1196SOL    HW215468   3.525   3.267  16.711
 1197SOL     OW15469   3.923   0.034  19.949
 1197SOL    HW115470   4.009   0.031  19.908
 1197SOL    HW215471   3.941   0.030  20.043
 1198SOL     OW15472   2.513   2.443   1.590
 1198SOL    HW115473   2.449   2.511   1.572
 1198SOL    HW215474   2.522   2.395   1.507
 1199SOL     OW15475   2.255   3.150   3.380
 1199SOL    HW115476   2.183   3.102   3.420
 1199SOL    HW215477   2.240   3.143   3.286
 1200SOL     OW15478   0.720   0.454  15.554
 1200SOL    HW115479   0.724   0.376  15.610
 1200SOL    HW215480   0.642   0.439  15.500
 1201SOL     OW15481   0.472   1.657  18.602
 1201SOL    HW115482   0.455   1.745  18.569
 1201SOL    HW215483   0.385   1.619  18.617
 1202SOL     OW15484   4.512   3.977  14.365
 1202SOL    HW115485   4.466   4.060  14.350
 1202SOL    HW215486   4.496   3.956  14.457
 1203SOL     OW15487   4.759   1.533  18.926
 1203SOL    HW115488   4.664   1.539  18.922
 1203SOL    HW215489   4.781   1.552  19.017
 1204SOL     OW15490   4.006   1.292   2.688
 1204SOL    HW115491   3.985   1.385   2.686
 1204SOL    HW215492   4.078   1.285   2.750
 1205SOL     OW15493   0.577   1.563  17.292
 1205SOL    HW115494   0.589   1.468  17.294
 1205SOL    HW215495   0.659   1.596  17.254
 1206SOL     OW15496   2.337   1.888   3.467
 1206SOL    HW115497   2.318   1.822   3.534
 1206SOL    HW215498   2.256   1.938   3.459
 1207SOL     OW15499   0.086   1.213   6.294
 1207SOL    HW115500   0.048   1.134   6.332
 1207SOL    HW215501   0.020   1.281   6.309
 1208SOL     OW15502   0.322   4.436  20.164
 1208SOL    HW115503   0.369   4.458  20.245
 1208SOL    HW215504   0.304   4.342  20.172
 1209SOL     OW15505   1.712   1.392  15.631
 1209SOL    HW115506   1.625   1.432  15.623
 1209SOL    HW215507   1.698   1.301  15.603
 1210SOL     OW15508   0.430   2.634  15.350
 1210SOL    HW115509   0.401   2.682  15.428
 1210SOL    HW215510   0.368   2.658  15.282
 1211SOL     OW15511   1.822   4.548   4.459
 1211SOL    HW115512   1.769   4.503   4.525
 1211SOL    HW215513   1.897   4.489   4.445
 1212SOL     OW15514   1.533   2.424  13.402
 1212SOL    HW115515   1.618   2.390  13.431
 1212SOL    HW215516   1.485   2.347  13.373
 1213SOL     OW15517   0.557   0.424  18.651
 1213SOL    HW115518   0.565   0.332  18.676
 1213SOL    HW215519   0.616   0.470  18.710
 1214SOL     OW15520   4.469   4.460  17.601
 1214SOL    HW115521   4.509   4.491  17.682
 1214SOL    HW215522   4.377   4.487  17.607
 1215SOL     OW15523   3.271   1.511   2.970
 1215SOL    HW115524   3.304   1.428   2.937
 1215SOL    HW215525   3.321   1.526   3.051
 1216SOL     OW15526   0.881   3.016   3.466
 1216SOL    HW115527   0.938   2.963   3.522
 1216SOL    HW215528   0.839   2.953   3.408
 1217SOL     OW15529   1.781   4.294   3.290
 1217SOL    HW115530   1.789   4.216   3.346
 1217SOL    HW215531   1.687   4.302   3.275
 1218SOL     OW15532   2.160   0.334  17.654
 1218SOL    HW115533   2.218   0.289  17.715
 1218SOL    HW215534   2.131   0.412  17.701
 1219SOL     OW15535   2.661   1.055   5.791
 1219SOL    HW115536   2.613   1.137   5.803
 1219SOL    HW215537   2.751   1.083   5.773
 1220SOL     OW15538   0.894   1.664   1.782
 1220SOL    HW115539   0.848   1.723   1.843
 1220SOL    HW215540   0.899   1.714   1.700
 1221SOL     OW15541   3.426   1.065  15.544
 1221SOL    HW115542   3.425   1.115  15.463
 1221SOL    HW215543   3.412   1.130  15.613
 1222SOL     OW15544   4.241   1.517   8.573
 1222SOL    HW115545   4.246   1.528   8.668
 1222SOL    HW215546   4.160   1.469   8.558
 1223SOL     OW15547   3.001   0.928   2.894
 1223SOL    HW115548   2.991   0.942   2.800
 1223SOL    HW215549   3.049   1.005   2.924
 1224SOL     OW15550   4.182   3.449   1.946
 1224SOL    HW115551   4.179   3.379   2.011
 1224SOL    HW215552   4.095   3.489   1.948
 1225SOL     OW15553   0.867   0.608   0.703
 1225SOL    HW115554   0.945   0.599   0.758
 1225SOL    HW215555   0.807   0.662   0.755
 1226SOL     OW15556   0.570   1.504   8.853
 1226SOL    HW115557   0.494   1.498   8.794
 1226SOL    HW215558   0.537   1.472   8.937
 1227SOL     OW15559   1.838   4.003   3.729
 1227SOL    HW115560   1.771   4.061   3.694
 1227SOL    HW215561   1.800   3.968   3.809
 1228SOL     OW15562   0.326   0.989  17.142
 1228SOL    HW115563   0.333   1.033  17.227
 1228SOL    HW215564   0.265   1.043  17.093
 1229SOL     OW15565   4.015   3.337  17.208
 1229SOL    HW115566   3.926   3.366  17.188
 1229SOL    HW215567   4.006   3.244  17.228
 1230SOL     OW15568   0.191   0.097   7.372
 1230SOL    HW115569   0.245   0.024   7.341
 1230SOL    HW215570   0.196   0.092   7.467
 1231SOL     OW15571   3.651   3.881  14.165
 1231SOL    HW115572   3.593   3.863  14.092
 1231SOL    HW215573   3.673   3.795  14.201
 1232SOL     OW15574   0.030   1.868   3.484
 1232SOL    HW115575   0.098   1.801   3.487
 1232SOL    HW215576   0.002   1.870   3.393
 1233SOL     OW15577   1.765   1.576   6.472
 1233SOL    HW115578   1.826   1.546   6.539
 1233SOL    HW215579   1.681   1.583   6.517
 1234SOL     OW15580   2.817   2.582   0.303
 1234SOL    HW115581   2.739   2.626   0.336
 1234SOL    HW215582   2.881   2.589   0.374
 1235SOL     OW15583   3.400   1.030  19.504
 1235SOL    HW115584   3.313   1.003  19.535
 1235SOL    HW215585   3.455   0.953  19.520
 1236SOL     OW15586   2.757   2.670   4.232
 1236SOL    HW115587   2.704   2.731   4.180
 1236SOL    HW215588   2.697   2.637   4.299
 1237SOL     OW15589   4.070   0.024   5.513
 1237SOL    HW115590   4.160   0.013   5.483
 1237SOL    HW215591   4.057   4.748   5.577
 1238SOL     OW15592   1.274   2.601  20.175
 1238SOL    HW115593   1.321   2.563  20.101
 1238SOL    HW215594   1.282   2.535  20.244
 1239SOL     OW15595   4.142   1.176  16.630
 1239SOL    HW115596   4.159   1.202  16.721
 1239SOL    HW215597   4.224   1.195  16.584
 1240SOL     OW15598   2.639   3.573   6.116
 1240SOL    HW115599   2.639   3.550   6.209
 1240SOL    HW215600   2.546   3.579   6.093
 1241SOL     OW15601   0.911   1.073   0.386
 1241SOL    HW115602   0.994   1.029   0.406
 1241SOL    HW215603   0.884   1.112   0.470
 1242SOL     OW15604   3.779   2.123  17.459
 1242SOL    HW115605   3.843   2.115  17.530
 1242SOL    HW215606   3.782   2.215  17.433
 1243SOL     OW15607   1.382   1.827  21.175
 1243SOL    HW115608   1.473   1.802  21.190
 1243SOL    HW215609   1.374   1.914  21.215
 1244SOL     OW15610   1.738   4.600  17.118
 1244SOL    HW115611   1.713   4.529  17.176
 1244SOL    HW215612   1.715   4.569  17.030
 1245SOL     OW15613   1.699   2.892   6.243
 1245SOL    HW115614   1.607   2.896   6.216
 1245SOL    HW215615   1.731   2.981   6.235
 1246SOL     OW15616   0.125   1.050   1.789
 1246SOL    HW115617   0.138   1.009   1.874
 1246SOL    HW215618   0.179   1.129   1.791
 1247SOL     OW15619   3.935   1.859   1.737
 1247SOL    HW115620   3.886   1.845   1.656
 1247SOL    HW215621   3.976   1.775   1.756
 1248SOL     OW15622   1.511   1.704  17.623
 1248SOL    HW115623   1.507   1.667  17.536
 1248SOL    HW215624   1.543   1.793  17.610
 1249SOL     OW15625   0.125   0.712   4.262
 1249SOL    HW115626   0.080   0.760   4.331
 1249SOL    HW215627   0.218   0.733   4.275
 1250SOL     OW15628   3.825   4.436   2.565
 1250SOL    HW115629   3.817   4.450   2.470
 1250SOL    HW215630   3.734   4.430   2.595
 1251SOL     OW15631   1.871   0.747  19.286
 1251SOL    HW115632   1.912   0.661  19.292
 1251SOL    HW215633   1.850   0.757  19.193
 1252SOL     OW15634   0.487   2.226   3.655
 1252SOL    HW115635   0.437   2.303   3.626
 1252SOL    HW215636   0.447   2.153   3.608
 1253SOL     OW15637   2.596   2.571   3.297
 1253SOL    HW115638   2.650   2.577   3.218
 1253SOL    HW215639   2.547   2.653   3.299
 1254SOL     OW15640   4.008   2.740  19.405
 1254SOL    HW115641   4.024   2.646  19.400
 1254SOL    HW215642   3.913   2.748  19.397
 1255SOL     OW15643   0.153   3.140   1.842
 1255SOL    HW115644   0.124   3.086   1.915
 1255SOL    HW215645   0.072   3.164   1.797
 1256SOL     OW15646   2.729   2.191   6.167
 1256SOL    HW115647   2.664   2.259   6.183
 1256SOL    HW215648   2.702   2.118   6.223
 1257SOL     OW15649   0.726   4.367   3.057
 1257SOL    HW115650   0.649   4.355   3.112
 1257SOL    HW215651   0.693   4.416   2.981
 1258SOL     OW15652   4.392   0.821  17.768
 1258SOL    HW115653   4.443   0.796  17.846
 1258SOL    HW215654   4.397   0.745  17.710
 1259SOL     OW15655   4.578   2.271   6.052
 1259SOL    HW115656   4.592   2.203   5.987
 1259SOL    HW215657   4.654   2.265   6.110
 1260SOL     OW15658   1.505   0.046  18.443
 1260SOL    HW115659   1.466   4.754  18.431
 1260SOL    HW215660   1.501   0.087  18.357
 1261SOL     OW15661   3.404   1.494  18.236
 1261SOL    HW115662   3.402   1.518  18.144
 1261SOL    HW215663   3.349   1.559  18.280
 1262SOL     OW15664   4.541   4.554  17.854
 1262SOL    HW115665   4.625   4.546  17.900
 1262SOL    HW215666   4.511   4.643  17.874
 1263SOL     OW15667   4.209   4.081   1.213
 1263SOL    HW115668   4.280   4.101   1.153
 1263SOL    HW215669   4.252   4.043   1.290
 1264SOL     OW15670   0.995   3.996  19.762
 1264SOL    HW115671   0.922   3.986  19.823
 1264SOL    HW215672   1.056   3.926  19.785
 1265SOL     OW15673   1.940   0.475  19.654
 1265SOL    HW115674   1.875   0.480  19.584
 1265SOL    HW215675   1.893   0.439  19.729
 1266SOL     OW15676   3.958   1.643  16.052
 1266SOL    HW115677   3.901   1.677  15.983
 1266SOL    HW215678   3.897   1.610  16.118
 1267SOL     OW15679   3.391   3.071   1.162
 1267SOL    HW115680   3.302   3.103   1.177
 1267SOL    HW215681   3.427   3.130   1.096
 1268SOL     OW15682   0.141   2.887   2.624
 1268SOL    HW115683   0.133   2.808   2.679
 1268SOL    HW215684   0.063   2.939   2.645
 1269SOL     OW15685   4.287   1.802  20.699
 1269SOL    HW115686   4.213   1.794  20.639
 1269SOL    HW215687   4.343   1.727  20.678
 1270SOL     OW15688   1.839   3.446   2.787
 1270SOL    HW115689   1.897   3.373   2.805
 1270SOL    HW215690   1.801   3.426   2.702
 1271SOL     OW15691   0.566   4.442   4.745
 1271SOL    HW115692   0.627   4.483   4.806
 1271SOL    HW215693   0.609   4.360   4.719
 1272SOL     OW15694   0.555   2.937   6.020
 1272SOL    HW115695   0.521   2.869   6.078
 1272SOL    HW215696   0.626   2.977   6.071
 1273SOL     OW15697   3.596   2.993  17.451
 1273SOL    HW115698   3.537   2.980  17.525
 1273SOL    HW215699   3.683   2.971  17.486
 1274SOL     OW15700   2.207   0.056   8.333
 1274SOL    HW115701   2.172   4.772   8.375
 1274SOL    HW215702   2.301   0.055   8.355
 1275SOL     OW15703   4.090   2.772   3.791
 1275SOL    HW115704   4.056   2.858   3.815
 1275SOL    HW215705   4.175   2.766   3.834
 1276SOL     OW15706   3.366   2.430   3.637
 1276SOL    HW115707   3.424   2.414   3.563
 1276SOL    HW215708   3.365   2.347   3.685
 1277SOL     OW15709   1.394   0.190  20.829
 1277SOL    HW115710   1.407   0.279  20.797
 1277SOL    HW215711   1.436   0.189  20.915
 1278SOL     OW15712   1.926   1.304   5.560
 1278SOL    HW115713   1.859   1.247   5.523
 1278SOL    HW215714   1.888   1.392   5.556
 1279SOL     OW15715   0.792   2.221  17.509
 1279SOL    HW115716   0.717   2.272  17.476
 1279SOL    HW215717   0.799   2.147  17.449
 1280SOL     OW15718   3.954   2.903   7.668
 1280SOL    HW115719   3.895   2.866   7.602
 1280SOL    HW215720   4.019   2.952   7.617
 1281SOL     OW15721   1.316   1.531  19.676
 1281SOL    HW115722   1.408   1.558  19.673
 1281SOL    HW215723   1.308   1.478  19.755
 1282SOL     OW15724   0.429   1.594   1.894
 1282SOL    HW115725   0.358   1.567   1.837
 1282SOL    HW215726   0.460   1.513   1.934
 1283SOL     OW15727   2.964   4.246  18.075
 1283SOL    HW115728   2.887   4.200  18.040
 1283SOL    HW215729   3.000   4.292  17.999
 1284SOL     OW15730   1.478   3.208   3.912
 1284SOL    HW115731   1.483   3.259   3.993
 1284SOL    HW215732   1.568   3.181   3.895
 1285SOL     OW15733   0.946   2.282   3.304
 1285SOL    HW115734   0.890   2.229   3.360
 1285SOL    HW215735   0.907   2.370   3.307
 1286SOL     OW15736   3.630   3.707  20.803
 1286SOL    HW115737   3.618   3.643  20.873
 1286SOL    HW215738   3.557   3.769  20.814
 1287SOL     OW15739   3.855   1.710  19.950
 1287SOL    HW115740   3.870   1.785  20.007
 1287SOL    HW215741   3.806   1.745  19.876
 1288SOL     OW15742   4.725   4.375   5.274
 1288SOL    HW115743   0.002   4.330   5.319
 1288SOL    HW215744   4.768   4.422   5.202
 1289SOL     OW15745   2.234   1.908   6.379
 1289SOL    HW115746   2.188   1.826   6.395
 1289SOL    HW215747   2.168   1.976   6.396
 1290SOL     OW15748   0.184   3.574   6.243
 1290SOL    HW115749   0.238   3.576   6.322
 1290SOL    HW215750   0.100   3.536   6.271
 1291SOL     OW15751   3.972   4.498  17.642
 1291SOL    HW115752   3.950   4.499  17.549
 1291SOL    HW215753   3.893   4.468  17.685
 1292SOL     OW15754   3.990   3.200  18.079
 1292SOL    HW115755   4.018   3.277  18.128
 1292SOL    HW215756   4.046   3.129  18.109
 1293SOL     OW15757   4.160   2.105  18.877
 1293SOL    HW115758   4.249   2.140  18.877
 1293SOL    HW215759   4.103   2.182  18.880
 1294SOL     OW15760   2.960   4.148  14.917
 1294SOL    HW115761   2.892   4.196  14.964
 1294SOL    HW215762   2.913   4.078  14.871
 1295SOL     OW15763   4.695   2.202  13.170
 1295SOL    HW115764   4.754   2.226  13.242
 1295SOL    HW215765   4.628   2.271  13.170
 1296SOL     OW15766   3.143   4.501   3.121
 1296SOL    HW115767   3.205   4.552   3.173
 1296SOL    HW215768   3.058   4.540   3.141
 1297SOL     OW15769   3.844   4.345   5.361
 1297SOL    HW115770   3.820   4.257   5.391
 1297SOL    HW215771   3.862   4.334   5.268
 1298SOL     OW15772   2.725   0.113   6.629
 1298SOL    HW115773   2.817   0.100   6.649
 1298SOL    HW215774   2.699   0.188   6.682
 1299SOL     OW15775   3.049   1.217   2.346
 1299SOL    HW115776   2.964   1.206   2.305
 1299SOL    HW215777   3.040   1.175   2.432
 1300SOL     OW15778   2.099   3.446  18.568
 1300SOL    HW115779   2.028   3.382  18.560
 1300SOL    HW215780   2.057   3.524  18.604
 1301SOL     OW15781   0.544   3.438  16.684
 1301SOL    HW115782   0.594   3.518  16.698
 1301SOL    HW215783   0.503   3.450  16.598
 1302SOL     OW15784   2.868   0.809   3.323
 1302SOL    HW115785   2.897   0.780   3.237
 1302SOL    HW215786   2.909   0.747   3.384
 1303SOL     OW15787   3.388   3.848   1.316
 1303SOL    HW115788   3.414   3.756   1.319
 1303SOL    HW215789   3.415   3.884   1.400
 1304SOL     OW15790   3.900   4.663   2.937
 1304SOL    HW115791   3.993   4.664   2.912
 1304SOL    HW215792   3.866   4.582   2.898
 1305SOL     OW15793   1.865   2.207  20.122
 1305SOL    HW115794   1.782   2.181  20.163
 1305SOL    HW215795   1.838   2.255  20.043
 1306SOL     OW15796   3.096   3.457  17.697
 1306SOL    HW115797   3.047   3.538  17.686
 1306SOL    HW215798   3.128   3.461  17.787
 1307SOL     OW15799   3.394   1.071   3.721
 1307SOL    HW115800   3.411   0.981   3.694
 1307SOL    HW215801   3.398   1.121   3.640
 1308SOL     OW15802   3.764   4.399   2.922
 1308SOL    HW115803   3.727   4.417   3.009
 1308SOL    HW215804   3.763   4.303   2.915
 1309SOL     OW15805   2.427   2.175  16.192
 1309SOL    HW115806   2.373   2.157  16.269
 1309SOL    HW215807   2.442   2.089  16.153
 1310SOL     OW15808   2.268   1.086   0.528
 1310SOL    HW115809   2.336   1.028   0.563
 1310SOL    HW215810   2.186   1.043   0.550
 1311SOL     OW15811   2.146   2.247  20.956
 1311SOL    HW115812   2.064   2.275  20.997
 1311SOL    HW215813   2.138   2.152  20.949
 1312SOL     OW15814   2.056   1.133   3.827
 1312SOL    HW115815   2.094   1.217   3.855
 1312SOL    HW215816   2.050   1.081   3.906
 1313SOL     OW15817   2.058   2.135   0.882
 1313SOL    HW115818   2.000   2.147   0.957
 1313SOL    HW215819   2.040   2.046   0.852
 1314SOL     OW15820   2.808   3.928   9.656
 1314SOL    HW115821   2.821   3.934   9.561
 1314SOL    HW215822   2.895   3.943   9.693
 1315SOL     OW15823   0.597   4.192   5.094
 1315SOL    HW115824   0.563   4.130   5.158
 1315SOL    HW215825   0.551   4.171   5.013
 1316SOL     OW15826   0.795   0.090  21.102
 1316SOL    HW115827   0.831   0.135  21.179
 1316SOL    HW215828   0.703   0.114  21.101
 1317SOL     OW15829   0.797   1.508   7.128
 1317SOL    HW115830   0.878   1.456   7.131
 1317SOL    HW215831   0.753   1.479   7.049
 1318SOL     OW15832   2.262   4.068  18.867
 1318SOL    HW115833   2.251   4.136  18.800
 1318SOL    HW215834   2.325   4.105  18.929
 1319SOL     OW15835   0.895   0.725  20.445
 1319SOL    HW115836   0.875   0.727  20.351
 1319SOL    HW215837   0.843   0.653  20.479
 1320SOL     OW15838   3.000   2.638  13.908
 1320SOL    HW115839   2.924   2.641  13.850
 1320SOL    HW215840   3.045   2.557  13.884
 1321SOL     OW15841   0.677   1.726  13.201
 1321SOL    HW115842   0.748   1.787  13.220
 1321SOL    HW215843   0.692   1.700  13.110
 1322SOL     OW15844   0.448   2.892  19.843
 1322SOL    HW115845   0.518   2.919  19.902
 1322SOL    HW215846   0.373   2.875  19.901
 1323SOL     OW15847   1.143   2.424   8.117
 1323SOL    HW115848   1.096   2.375   8.185
 1323SOL    HW215849   1.133   2.516   8.142
 1324SOL     OW15850   4.614   2.514   6.170
 1324SOL    HW115851   4.591   2.474   6.086
 1324SOL    HW215852   4.609   2.443   6.233
 1325SOL     OW15853   1.855   3.039   9.855
 1325SOL    HW115854   1.915   3.098   9.899
 1325SOL    HW215855   1.818   2.986   9.926
 1326SOL     OW15856   2.857   2.548  20.088
 1326SOL    HW115857   2.806   2.484  20.039
 1326SOL    HW215858   2.937   2.502  20.113
 1327SOL     OW15859   3.834   1.639  21.027
 1327SOL    HW115860   3.797   1.551  21.024
 1327SOL    HW215861   3.839   1.660  21.120
 1328SOL     OW15862   4.624   3.019  15.925
 1328SOL    HW115863   4.696   3.010  15.987
 1328SOL    HW215864   4.604   3.113  15.924
 1329SOL     OW15865   3.737   3.111   1.095
 1329SOL    HW115866   3.674   3.110   1.023
 1329SOL    HW215867   3.807   3.052   1.066
 1330SOL     OW15868   2.308   1.873   0.505
 1330SOL    HW115869   2.282   1.947   0.450
 1330SOL    HW215870   2.382   1.907   0.557
 1331SOL     OW15871   1.629   2.626   6.206
 1331SOL    HW115872   1.675   2.701   6.243
 1331SOL    HW215873   1.686   2.594   6.136
 1332SOL     OW15874   1.434   1.289  14.519
 1332SOL    HW115875   1.498   1.360  14.519
 1332SOL    HW215876   1.479   1.216  14.477
 1333SOL     OW15877   2.324   3.942  18.307
 1333SOL    HW115878   2.369   3.967  18.227
 1333SOL    HW215879   2.347   4.011  18.370
 1334SOL     OW15880   1.096   4.105  19.201
 1334SOL    HW115881   1.151   4.173  19.240
 1334SOL    HW215882   1.107   4.117  19.106
 1335SOL     OW15883   3.978   3.648   0.060
 1335SOL    HW115884   4.057   3.669   0.109
 1335SOL    HW215885   3.913   3.712   0.089
 1336SOL     OW15886   4.689   1.539  19.735
 1336SOL    HW115887   4.639   1.619  19.750
 1336SOL    HW215888   4.631   1.484  19.681
 1337SOL     OW15889   3.122   1.927   1.393
 1337SOL    HW115890   3.212   1.918   1.363
 1337SOL    HW215891   3.100   2.019   1.378
 1338SOL     OW15892   3.081   1.878  21.166
 1338SOL    HW115893   3.022   1.949  21.139
 1338SOL    HW215894   3.168   1.919  21.165
 1339SOL     OW15895   1.838   2.436  19.877
 1339SOL    HW115896   1.783   2.392  19.813
 1339SOL    HW215897   1.862   2.519  19.836
 1340SOL     OW15898   0.444   0.165   3.823
 1340SOL    HW115899   0.456   0.259   3.837
 1340SOL    HW215900   0.499   0.124   3.889
 1341SOL     OW15901   0.701   3.565  18.962
 1341SOL    HW115902   0.652   3.541  19.041
 1341SOL    HW215903   0.752   3.642  18.987
 1342SOL     OW15904   2.130   4.494   2.120
 1342SOL    HW115905   2.185   4.418   2.100
 1342SOL    HW215906   2.126   4.543   2.038
 1343SOL     OW15907   1.128   2.623   4.667
 1343SOL    HW115908   1.176   2.580   4.596
 1343SOL    HW215909   1.038   2.590   4.659
 1344SOL     OW15910   4.516   1.627   2.312
 1344SOL    HW115911   4.430   1.637   2.352
 1344SOL    HW215912   4.554   1.551   2.356
 1345SOL     OW15913   0.915   2.703  15.835
 1345SOL    HW115914   0.961   2.775  15.792
 1345SOL    HW215915   0.941   2.709  15.927
 1346SOL     OW15916   3.332   1.369  20.028
 1346SOL    HW115917   3.319   1.382  19.934
 1346SOL    HW215918   3.312   1.454  20.067
 1347SOL     OW15919   1.619   4.622   4.192
 1347SOL    HW115920   1.682   4.589   4.256
 1347SOL    HW215921   1.586   4.543   4.149
 1348SOL     OW15922   4.323   2.891   5.462
 1348SOL    HW115923   4.302   2.891   5.369
 1348SOL    HW215924   4.276   2.966   5.497
 1349SOL     OW15925   3.501   3.583   1.102
 1349SOL    HW115926   3.483   3.592   1.196
 1349SOL    HW215927   3.489   3.490   1.084
 1350SOL     OW15928   2.497   3.252   5.800
 1350SOL    HW115929   2.515   3.338   5.764
 1350SOL    HW215930   2.571   3.198   5.773
 1351SOL     OW15931   4.153   4.497   1.098
 1351SOL    HW115932   4.101   4.417   1.094
 1351SOL    HW215933   4.171   4.510   1.191
 1352SOL     OW15934   2.928   1.258   1.680
 1352SOL    HW115935   2.992   1.211   1.627
 1352SOL    HW215936   2.857   1.196   1.693
 1353SOL     OW15937   4.271   1.928  20.337
 1353SOL    HW115938   4.179   1.907  20.350
 1353SOL    HW215939   4.309   1.848  20.301
 1354SOL     OW15940   3.691   1.479  18.711
 1354SOL    HW115941   3.692   1.488  18.806
 1354SOL    HW215942   3.772   1.432  18.691
 1355SOL     OW15943   0.568   1.155   3.463
 1355SOL    HW115944   0.618   1.184   3.386
 1355SOL    HW215945   0.502   1.096   3.428
 1356SOL     OW15946   0.901   4.555   1.467
 1356SOL    HW115947   0.808   4.537   1.483
 1356SOL    HW215948   0.923   4.499   1.392
 1357SOL     OW15949   2.994   2.879   1.566
 1357SOL    HW115950   2.974   2.973   1.561
 1357SOL    HW215951   2.932   2.839   1.505
 1358SOL     OW15952   1.009   1.423  11.034
 1358SOL    HW115953   1.105   1.419  11.030
 1358SOL    HW215954   0.989   1.434  11.127
 1359SOL     OW15955   3.924   2.786  21.222
 1359SOL    HW115956   3.979   2.768   0.022
 1359SOL    HW215957   3.914   2.701  21.179
 1360SOL     OW15958   2.771   4.439  16.697
 1360SOL    HW115959   2.720   4.465  16.774
 1360SOL    HW215960   2.858   4.475  16.713
 1361SOL     OW15961   0.582   1.890  15.486
 1361SOL    HW115962   0.655   1.952  15.480
 1361SOL    HW215963   0.523   1.931  15.550
 1362SOL     OW15964   2.443   4.646   4.486
 1362SOL    HW115965   2.440   4.741   4.472
 1362SOL    HW215966   2.535   4.628   4.507
 1363SOL     OW15967   3.278   3.294   6.962
 1363SOL    HW115968   3.373   3.302   6.976
 1363SOL    HW215969   3.257   3.206   6.994
 1364SOL     OW15970   0.207   1.674   0.458
 1364SOL    HW115971   0.289   1.624   0.453
 1364SOL    HW215972   0.212   1.720   0.542
 1365SOL     OW15973   2.422   2.327   0.076
 1365SOL    HW115974   2.445   2.234   0.069
 1365SOL    HW215975   2.505   2.373   0.059
 1366SOL     OW15976   0.795   1.692   4.820
 1366SOL    HW115977   0.736   1.746   4.768
 1366SOL    HW215978   0.832   1.752   4.886
 1367SOL     OW15979   4.264   1.438   6.163
 1367SOL    HW115980   4.185   1.436   6.217
 1367SOL    HW215981   4.326   1.382   6.209
 1368SOL     OW15982   1.225   1.260  17.625
 1368SOL    HW115983   1.194   1.175  17.595
 1368SOL    HW215984   1.212   1.318  17.550
 1369SOL     OW15985   2.737   4.359   5.726
 1369SOL    HW115986   2.649   4.377   5.761
 1369SOL    HW215987   2.792   4.351   5.804
 1370SOL     OW15988   0.788   2.686  20.108
 1370SOL    HW115989   0.719   2.621  20.094
 1370SOL    HW215990   0.855   2.639  20.159
 1371SOL     OW15991   4.615   2.921  21.027
 1371SOL    HW115992   4.661   2.958  21.102
 1371SOL    HW215993   4.682   2.872  20.980
 1372SOL     OW15994   1.167   1.568   6.324
 1372SOL    HW115995   1.124   1.508   6.263
 1372SOL    HW215996   1.217   1.627   6.268
 1373SOL     OW15997   1.790   1.361  17.988
 1373SOL    HW115998   1.780   1.455  18.004
 1373SOL    HW215999   1.832   1.356  17.902
 1374SOL     OW16000   2.145   1.813  20.442
 1374SOL    HW116001   2.199   1.856  20.376
 1374SOL    HW216002   2.058   1.850  20.431
 1375SOL     OW16003   3.479   3.130  14.347
 1375SOL    HW116004   3.409   3.181  14.388
 1375SOL    HW216005   3.444   3.041  14.342
 1376SOL     OW16006   0.592   3.780  11.992
 1376SOL    HW116007   0.607   3.868  11.958
 1376SOL    HW216008   0.680   3.747  12.010
 1377SOL     OW16009   1.624   4.171   3.599
 1377SOL    HW116010   1.598   4.180   3.507
 1377SOL    HW216011   1.576   4.094   3.629
 1378SOL     OW16012   3.486   0.378   0.544
 1378SOL    HW116013   3.419   0.386   0.611
 1378SOL    HW216014   3.559   0.335   0.589
 1379SOL     OW16015   1.235   0.922   0.715
 1379SOL    HW116016   1.193   0.940   0.799
 1379SOL    HW216017   1.279   0.838   0.727
 1380SOL     OW16018   1.180   4.412   1.980
 1380SOL    HW116019   1.181   4.316   1.973
 1380SOL    HW216020   1.192   4.429   2.073
 1381SOL     OW16021   1.192   3.114   5.263
 1381SOL    HW116022   1.101   3.099   5.237
 1381SOL    HW216023   1.244   3.073   5.193
 1382SOL     OW16024   3.587   4.755   5.432
 1382SOL    HW116025   3.677   4.786   5.432
 1382SOL    HW216026   3.590   4.675   5.484
 1383SOL     OW16027   3.248   0.203  17.233
 1383SOL    HW116028   3.328   0.177  17.185
 1383SOL    HW216029   3.257   0.160  17.318
 1384SOL     OW16030   1.635   0.726  20.322
 1384SOL    HW116031   1.671   0.742  20.235
 1384SOL    HW216032   1.544   0.700  20.305
 1385SOL     OW16033   2.376   3.527  18.207
 1385SOL    HW116034   2.422   3.449  18.238
 1385SOL    HW216035   2.344   3.569  18.287
 1386SOL     OW16036   2.116   1.331   1.223
 1386SOL    HW116037   2.204   1.367   1.215
 1386SOL    HW216038   2.095   1.339   1.316
 1387SOL     OW16039   4.555   0.636  11.329
 1387SOL    HW116040   4.579   0.727  11.315
 1387SOL    HW216041   4.634   0.595  11.366
 1388SOL     OW16042   1.311   2.230   0.247
 1388SOL    HW116043   1.258   2.309   0.236
 1388SOL    HW216044   1.247   2.161   0.267
 1389SOL     OW16045   4.710   1.191  19.761
 1389SOL    HW116046   4.655   1.262  19.726
 1389SOL    HW216047   4.648   1.127  19.794
 1390SOL     OW16048   1.154   3.890  19.392
 1390SOL    HW116049   1.183   3.957  19.453
 1390SOL    HW216050   1.124   3.938  19.315
 1391SOL     OW16051   4.779   1.649  20.558
 1391SOL    HW116052   4.762   1.731  20.511
 1391SOL    HW216053   4.789   1.584  20.489
 1392SOL     OW16054   0.311   0.491  18.964
 1392SOL    HW116055   0.360   0.565  19.001
 1392SOL    HW216056   0.224   0.527  18.946
 1393SOL     OW16057   4.051   0.805  15.934
 1393SOL    HW116058   4.065   0.871  16.001
 1393SOL    HW216059   3.986   0.843  15.876
 1394SOL     OW16060   0.315   3.505  20.837
 1394SOL    HW116061   0.254   3.439  20.869
 1394SOL    HW216062   0.360   3.464  20.764
 1395SOL     OW16063   0.179   0.578   5.218
 1395SOL    HW116064   0.172   0.669   5.248
 1395SOL    HW216065   0.200   0.586   5.125
 1396SOL     OW16066   1.165   2.185   4.289
 1396SOL    HW116067   1.091   2.235   4.254
 1396SOL    HW216068   1.170   2.108   4.233
 1397SOL     OW16069   0.708   4.675  19.741
 1397SOL    HW116070   0.656   4.631  19.808
 1397SOL    HW216071   0.784   4.710  19.788
 1398SOL     OW16072   0.204   0.248  17.683
 1398SOL    HW116073   0.268   0.189  17.723
 1398SOL    HW216074   0.220   0.239  17.589
 1399SOL     OW16075   1.799   0.849   4.070
 1399SOL    HW116076   1.729   0.893   4.022
 1399SOL    HW216077   1.779   0.756   4.062
 1400SOL     OW16078   0.581   0.000   6.313
 1400SOL    HW116079   0.516   0.045   6.258
 1400SOL    HW216080   0.533   4.722   6.354
 1401SOL     OW16081   2.718   2.953   0.117
 1401SOL    HW116082   2.691   2.934   0.207
 1401SOL    HW216083   2.775   3.030   0.125
 1402SOL     OW16084   3.356   4.731   0.522
 1402SOL    HW116085   3.400   4.647   0.507
 1402SOL    HW216086   3.390   4.789   0.453
 1403SOL     OW16087   4.264   0.431   0.070
 1403SOL    HW116088   4.211   0.502   0.034
 1403SOL    HW216089   4.292   0.462   0.155
 1404SOL     OW16090   0.893   3.101  17.120
 1404SOL    HW116091   0.814   3.070  17.165
 1404SOL    HW216092   0.949   3.134  17.189
 1405SOL     OW16093   1.269   3.050   0.040
 1405SOL    HW116094   1.324   2.974   0.021
 1405SOL    HW216095   1.201   3.016   0.100
 1406SOL     OW16096   3.294   0.597   4.630
 1406SOL    HW116097   3.241   0.676   4.619
 1406SOL    HW216098   3.242   0.542   4.688
 1407SOL     OW16099   3.760   2.215   4.190
 1407SOL    HW116100   3.787   2.127   4.162
 1407SOL    HW216101   3.717   2.252   4.113
 1408SOL     OW16102   2.447   2.777   5.372
 1408SOL    HW116103   2.446   2.703   5.434
 1408SOL    HW216104   2.375   2.758   5.312
 1409SOL     OW16105   4.198   4.399   5.040
 1409SOL    HW116106   4.130   4.467   5.037
 1409SOL    HW216107   4.276   4.444   5.070
 1410SOL     OW16108   4.020   3.927   3.954
 1410SOL    HW116109   4.002   4.021   3.953
 1410SOL    HW216110   3.934   3.886   3.960
 1411SOL     OW16111   0.274   3.042  20.215
 1411SOL    HW116112   0.201   2.994  20.175
 1411SOL    HW216113   0.350   3.016  20.164
 1412SOL     OW16114   1.535   0.775   3.653
 1412SOL    HW116115   1.626   0.747   3.641
 1412SOL    HW216116   1.510   0.813   3.569
 1413SOL     OW16117   0.946   1.731   3.096
 1413SOL    HW116118   0.965   1.759   3.006
 1413SOL    HW216119   0.865   1.681   3.089
 1414SOL     OW16120   3.773   2.331  21.002
 1414SOL    HW116121   3.758   2.296  20.914
 1414SOL    HW216122   3.868   2.334  21.011
 1415SOL     OW16123   3.017   3.157  17.768
 1415SOL    HW116124   3.018   3.251  17.753
 1415SOL    HW216125   2.977   3.148  17.855
 1416SOL     OW16126   2.417   4.058  19.873
 1416SOL    HW116127   2.377   3.981  19.833
 1416SOL    HW216128   2.456   4.105  19.800
 1417SOL     OW16129   1.496   3.915   6.703
 1417SOL    HW116130   1.580   3.888   6.741
 1417SOL    HW216131   1.470   3.841   6.647
 1418SOL     OW16132   2.328   3.181  20.237
 1418SOL    HW116133   2.369   3.266  20.250
 1418SOL    HW216134   2.378   3.120  20.292
 1419SOL     OW16135   1.707   0.998  18.630
 1419SOL    HW116136   1.759   0.949  18.567
 1419SOL    HW216137   1.723   1.090  18.609
 1420SOL     OW16138   3.056   2.861   4.507
 1420SOL    HW116139   3.027   2.918   4.578
 1420SOL    HW216140   3.046   2.772   4.541
 1421SOL     OW16141   4.235   0.337   6.102
 1421SOL    HW116142   4.228   0.281   6.179
 1421SOL    HW216143   4.306   0.299   6.051
 1422SOL     OW16144   1.274   2.770   0.819
 1422SOL    HW116145   1.199   2.825   0.800
 1422SOL    HW216146   1.322   2.817   0.887
 1423SOL     OW16147   0.152   2.449   2.916
 1423SOL    HW116148   0.132   2.361   2.885
 1423SOL    HW216149   0.081   2.469   2.977
 1424SOL     OW16150   1.236   2.940   4.114
 1424SOL    HW116151   1.295   2.866   4.097
 1424SOL    HW216152   1.293   3.009   4.147
 1425SOL     OW16153   4.429   2.480   0.710
 1425SOL    HW116154   4.357   2.422   0.687
 1425SOL    HW216155   4.503   2.422   0.727
 1426SOL     OW16156   1.699   1.585   1.687
 1426SOL    HW116157   1.766   1.589   1.619
 1426SOL    HW216158   1.744   1.549   1.763
 1427SOL     OW16159   2.234   4.248  16.186
 1427SOL    HW116160   2.323   4.220  16.207
 1427SOL    HW216161   2.200   4.178  16.129
 1428SOL     OW16162   1.065   1.197   1.069
 1428SOL    HW116163   1.102   1.264   1.011
 1428SOL    HW216164   1.013   1.247   1.132
 1429SOL     OW16165   1.840   0.347  14.228
 1429SOL    HW116166   1.908   0.357  14.295
 1429SOL    HW216167   1.872   0.400  14.155
 1430SOL     OW16168   4.609   0.728   4.849
 1430SOL    HW116169   4.521   0.694   4.836
 1430SOL    HW216170   4.662   0.685   4.782
 1431SOL     OW16171   2.777   1.973  19.468
 1431SOL    HW116172   2.845   2.010  19.411
 1431SOL    HW216173   2.712   2.043  19.475
 1432SOL     OW16174   1.956   1.089  20.053
 1432SOL    HW116175   1.907   1.019  20.096
 1432SOL    HW216176   2.048   1.068  20.069
 1433SOL     OW16177   2.579   4.252  12.770
 1433SOL    HW116178   2.519   4.221  12.838
 1433SOL    HW216179   2.644   4.304  12.817
 1434SOL     OW16180   3.064   2.454   0.818
 1434SOL    HW116181   3.126   2.418   0.755
 1434SOL    HW216182   3.119   2.495   0.885
 1435SOL     OW16183   1.634   1.389   4.366
 1435SOL    HW116184   1.693   1.454   4.403
 1435SOL    HW216185   1.550   1.434   4.359
 1436SOL     OW16186   2.208   2.643  16.493
 1436SOL    HW116187   2.233   2.560  16.534
 1436SOL    HW216188   2.286   2.698  16.501
 1437SOL     OW16189   1.938   3.262   3.001
 1437SOL    HW116190   1.891   3.194   3.049
 1437SOL    HW216191   1.899   3.344   3.030
 1438SOL     OW16192   2.346   4.598  21.147
 1438SOL    HW116193   2.333   4.546  21.227
 1438SOL    HW216194   2.287   4.673  21.157
 1439SOL     OW16195   4.157   1.967  19.131
 1439SOL    HW116196   4.164   2.009  19.045
 1439SOL    HW216197   4.188   1.877  19.117
 1440SOL     OW16198   3.811   2.172   0.054
 1440SOL    HW116199   3.887   2.141   0.003
 1440SOL    HW216200   3.821   2.267   0.054
 1441SOL     OW16201   1.265   1.014   3.847
 1441SOL    HW116202   1.298   1.004   3.758
 1441SOL    HW216203   1.233   1.104   3.852
 1442SOL     OW16204   3.633   2.413   6.433
 1442SOL    HW116205   3.633   2.450   6.344
 1442SOL    HW216206   3.616   2.320   6.420
 1443SOL     OW16207   0.200   0.909  15.457
 1443SOL    HW116208   0.240   0.922  15.544
 1443SOL    HW216209   0.192   0.997  15.421
 1444SOL     OW16210   2.508   3.864  20.784
 1444SOL    HW116211   2.594   3.858  20.742
 1444SOL    HW216212   2.448   3.886  20.712
 1445SOL     OW16213   4.496   2.368  19.832
 1445SOL    HW116214   4.531   2.283  19.858
 1445SOL    HW216215   4.573   2.419  19.807
 1446SOL     OW16216   4.461   0.222  16.643
 1446SOL    HW116217   4.468   0.317  16.650
 1446SOL    HW216218   4.532   0.189  16.698
 1447SOL     OW16219   4.316   3.118   2.912
 1447SOL    HW116220   4.319   3.199   2.861
 1447SOL    HW216221   4.394   3.121   2.967
 1448SOL     OW16222   0.554   1.678   0.234
 1448SOL    HW116223   0.594   1.764   0.241
 1448SOL    HW216224   0.627   1.617   0.244
 1449SOL     OW16225   0.007   4.289  19.656
 1449SOL    HW116226   0.005   4.355  19.587
 1449SOL    HW216227   4.709   4.263  19.666
 1450SOL     OW16228   1.781   2.446   1.819
 1450SOL    HW116229   1.758   2.514   1.882
 1450SOL    HW216230   1.769   2.363   1.867
 1451SOL     OW16231   1.731   4.123  13.781
 1451SOL    HW116232   1.778   4.138  13.863
 1451SOL    HW216233   1.648   4.082  13.808
 1452SOL     OW16234   3.171   2.828  16.999
 1452SOL    HW116235   3.218   2.760  16.950
 1452SOL    HW216236   3.230   2.903  16.997
 1453SOL     OW16237   0.222   1.691  15.591
 1453SOL    HW116238   0.173   1.616  15.555
 1453SOL    HW216239   0.276   1.721  15.517
 1454SOL     OW16240   1.793   1.909   1.491
 1454SOL    HW116241   1.875   1.860   1.491
 1454SOL    HW216242   1.777   1.928   1.584
 1455SOL     OW16243   0.332   0.882  16.704
 1455SOL    HW116244   0.252   0.933  16.692
 1455SOL    HW216245   0.302   0.801  16.747
 1456SOL     OW16246   0.556   2.925   6.320
 1456SOL    HW116247   0.467   2.898   6.344
 1456SOL    HW216248   0.612   2.857   6.357
 1457SOL     OW16249   1.464   3.648   2.531
 1457SOL    HW116250   1.378   3.675   2.563
 1457SOL    HW216251   1.448   3.564   2.488
 1458SOL     OW16252   3.064   0.606   1.622
 1458SOL    HW116253   3.065   0.532   1.561
 1458SOL    HW216254   3.122   0.579   1.693
 1459SOL     OW16255   3.052   0.227  20.239
 1459SOL    HW116256   3.057   0.322  20.226
 1459SOL    HW216257   3.049   0.215  20.333
 1460SOL     OW16258   3.550   2.996  20.935
 1460SOL    HW116259   3.468   2.948  20.951
 1460SOL    HW216260   3.523   3.088  20.934
 1461SOL     OW16261   4.074   4.627   5.087
 1461SOL    HW116262   4.009   4.612   5.156
 1461SOL    HW216263   4.079   4.722   5.078
 1462SOL     OW16264   0.130   2.127  18.441
 1462SOL    HW116265   0.082   2.061  18.489
 1462SOL    HW216266   0.101   2.116  18.350
 1463SOL     OW16267   1.113   1.490   5.407
 1463SOL    HW116268   1.153   1.455   5.327
 1463SOL    HW216269   1.180   1.546   5.445
 1464SOL     OW16270   2.747   3.499  15.726
 1464SOL    HW116271   2.651   3.497  15.719
 1464SOL    HW216272   2.764   3.467  15.815
 1465SOL     OW16273   3.082   2.566   1.210
 1465SOL    HW116274   2.995   2.552   1.173
 1465SOL    HW216275   3.079   2.656   1.244
 1466SOL     OW16276   2.867   4.788  15.470
 1466SOL    HW116277   2.959   4.789  15.498
 1466SOL    HW216278   2.832   0.078  15.499
 1467SOL     OW16279   2.387   2.926  14.321
 1467SOL    HW116280   2.441   2.859  14.362
 1467SOL    HW216281   2.361   2.984  14.393
 1468SOL     OW16282   2.522   4.591  14.467
 1468SOL    HW116283   2.485   4.557  14.386
 1468SOL    HW216284   2.539   4.513  14.520
 1469SOL     OW16285   3.529   3.233  19.253
 1469SOL    HW116286   3.447   3.279  19.271
 1469SOL    HW216287   3.585   3.252  19.329
 1470SOL     OW16288   4.114   0.130  14.836
 1470SOL    HW116289   4.110   0.157  14.745
 1470SOL    HW216290   4.056   0.191  14.882
 1471SOL     OW16291   0.383   1.988   4.651
 1471SOL    HW116292   0.294   1.958   4.668
 1471SOL    HW216293   0.399   2.056   4.717
 1472SOL     OW16294   0.636   0.050   3.661
 1472SOL    HW116295   0.650   4.773   3.724
 1472SOL    HW216296   0.559   0.096   3.694
 1473SOL     OW16297   1.818   4.075   2.571
 1473SOL    HW116298   1.792   4.111   2.487
 1473SOL    HW216299   1.913   4.070   2.567
 1474SOL     OW16300   2.172   3.542   2.217
 1474SOL    HW116301   2.147   3.518   2.128
 1474SOL    HW216302   2.122   3.621   2.236
 1475SOL     OW16303   4.054   1.995  16.206
 1475SOL    HW116304   3.980   2.056  16.200
 1475SOL    HW216305   4.084   1.985  16.116
 1476SOL     OW16306   0.891   2.437  20.171
 1476SOL    HW116307   0.913   2.413  20.081
 1476SOL    HW216308   0.962   2.400  20.224
 1477SOL     OW16309   2.009   2.294  19.536
 1477SOL    HW116310   2.049   2.231  19.476
 1477SOL    HW216311   2.002   2.374  19.484
 1478SOL     OW16312   3.428   0.985  17.217
 1478SOL    HW116313   3.465   1.066  17.183
 1478SOL    HW216314   3.504   0.927  17.231
 1479SOL     OW16315   2.947   2.147  18.615
 1479SOL    HW116316   2.879   2.081  18.603
 1479SOL    HW216317   3.009   2.106  18.676
 1480SOL     OW16318   4.347   2.311   1.942
 1480SOL    HW116319   4.418   2.373   1.925
 1480SOL    HW216320   4.296   2.310   1.861
 1481SOL     OW16321   2.261   4.787  16.268
 1481SOL    HW116322   2.263   0.089  16.276
 1481SOL    HW216323   2.229   4.757  16.353
 1482SOL     OW16324   3.335   1.852  18.053
 1482SOL    HW116325   3.418   1.900  18.045
 1482SOL    HW216326   3.268   1.919  18.053
 1483SOL     OW16327   0.062   1.361  16.526
 1483SOL    HW116328   0.073   1.444  16.572
 1483SOL    HW216329   4.785   1.317  16.572
 1484SOL     OW16330   0.180   4.541  14.286
 1484SOL    HW116331   0.131   4.482  14.342
 1484SOL    HW216332   0.197   4.491  14.206
 1485SOL     OW16333   2.955   3.534  18.587
 1485SOL    HW116334   2.973   3.592  18.661
 1485SOL    HW216335   2.991   3.450  18.613
 1486SOL     OW16336   1.860   3.431   2.479
 1486SOL    HW116337   1.776   3.409   2.521
 1486SOL    HW216338   1.874   3.360   2.416
 1487SOL     OW16339   0.964   0.431   4.691
 1487SOL    HW116340   0.877   0.421   4.651
 1487SOL    HW216341   0.958   0.381   4.773
 1488SOL     OW16342   0.665   2.555  15.150
 1488SOL    HW116343   0.694   2.540  15.240
 1488SOL    HW216344   0.571   2.536  15.152
 1489SOL     OW16345   3.999   1.373   5.234
 1489SOL    HW116346   3.911   1.396   5.204
 1489SOL    HW216347   4.053   1.378   5.156
 1490SOL     OW16348   3.653   0.478  19.782
 1490SOL    HW116349   3.711   0.549  19.753
 1490SOL    HW216350   3.565   0.516  19.779
 1491SOL     OW16351   1.111   2.416  21.258
 1491SOL    HW116352   1.148   2.443   0.066
 1491SOL    HW216353   1.059   2.339   0.002
 1492SOL     OW16354   0.180   4.622   4.034
 1492SOL    HW116355   0.223   4.567   4.099
 1492SOL    HW216356   0.087   4.602   4.044
 1493SOL     OW16357   2.825   0.803   5.435
 1493SOL    HW116358   2.777   0.801   5.517
 1493SOL    HW216359   2.766   0.764   5.371
 1494SOL     OW16360   4.349   1.780   5.700
 1494SOL    HW116361   4.407   1.710   5.730
 1494SOL    HW216362   4.260   1.745   5.712
 1495SOL     OW16363   1.686   3.656   1.029
 1495SOL    HW116364   1.624   3.649   0.957
 1495SOL    HW216365   1.634   3.640   1.107
 1496SOL     OW16366   3.353   2.321  12.252
 1496SOL    HW116367   3.273   2.271  12.234
 1496SOL    HW216368   3.330   2.412  12.231
 1497SOL     OW16369   0.272   4.433  14.866
 1497SOL    HW116370   0.307   4.344  14.857
 1497SOL    HW216371   0.249   4.458  14.776
 1498SOL     OW16372   2.086   3.609  16.323
 1498SOL    HW116373   2.178   3.632  16.305
 1498SOL    HW216374   2.075   3.523  16.284
 1499SOL     OW16375   2.509   1.228   4.076
 1499SOL    HW116376   2.500   1.299   4.013
 1499SOL    HW216377   2.539   1.271   4.156
 1500SOL     OW16378   0.697   4.578   0.399
 1500SOL    HW116379   0.649   4.657   0.376
 1500SOL    HW216380   0.706   4.582   0.494
 1501SOL     OW16381   0.640   2.670  18.998
 1501SOL    HW116382   0.689   2.673  19.080
 1501SOL    HW216383   0.702   2.702  18.932
 1502SOL     OW16384   4.282   0.950  20.175
 1502SOL    HW116385   4.339   0.894  20.122
 1502SOL    HW216386   4.338   0.982  20.246
 1503SOL     OW16387   0.595   1.859   1.296
 1503SOL    HW116388   0.586   1.924   1.226
 1503SOL    HW216389   0.655   1.793   1.261
 1504SOL     OW16390   0.179   4.575  15.169
 1504SOL    HW116391   0.159   4.663  15.203
 1504SOL    HW216392   0.254   4.547  15.221
 1505SOL     OW16393   3.634   0.855  18.484
 1505SOL    HW116394   3.616   0.949  18.486
 1505SOL    HW216395   3.548   0.815  18.475
 1506SOL     OW16396   0.148   0.908   4.984
 1506SOL    HW116397   0.064   0.884   5.023
 1506SOL    HW216398   0.158   0.849   4.909
 1507SOL     OW16399   1.415   1.336   5.609
 1507SOL    HW116400   1.412   1.260   5.667
 1507SOL    HW216401   1.351   1.397   5.646
 1508SOL     OW16402   4.397   2.811  18.463
 1508SOL    HW116403   4.383   2.737  18.521
 1508SOL    HW216404   4.327   2.805  18.398
 1509SOL     OW16405   4.431   4.598  14.796
 1509SOL    HW116406   4.402   4.666  14.857
 1509SOL    HW216407   4.377   4.611  14.718
 1510SOL     OW16408   0.111   3.119  16.299
 1510SOL    HW116409   0.203   3.119  16.323
 1510SOL    HW216410   0.110   3.104  16.204
 1511SOL     OW16411   2.773   2.259   3.367
 1511SOL    HW116412   2.766   2.260   3.463
 1511SOL    HW216413   2.764   2.167   3.344
 1512SOL     OW16414   4.572   4.773   7.658
 1512SOL    HW116415   4.630   4.700   7.637
 1512SOL    HW216416   4.484   4.738   7.646
 1513SOL     OW16417   1.750   2.649  15.670
 1513SOL    HW116418   1.687   2.682  15.735
 1513SOL    HW216419   1.746   2.712  15.598
 1514SOL     OW16420   2.246   2.630   8.696
 1514SOL    HW116421   2.228   2.723   8.711
 1514SOL    HW216422   2.306   2.629   8.622
 1515SOL     OW16423   3.477   1.850   4.281
 1515SOL    HW116424   3.479   1.889   4.194
 1515SOL    HW216425   3.423   1.909   4.333
 1516SOL     OW16426   3.083   4.726   3.621
 1516SOL    HW116427   3.002   4.675   3.615
 1516SOL    HW216428   3.139   4.676   3.680
 1517SOL     OW16429   2.451   0.772   2.854
 1517SOL    HW116430   2.457   0.683   2.891
 1517SOL    HW216431   2.530   0.816   2.886
 1518SOL     OW16432   4.265   3.376   4.851
 1518SOL    HW116433   4.337   3.317   4.829
 1518SOL    HW216434   4.192   3.318   4.874
 1519SOL     OW16435   3.132   0.459   0.451
 1519SOL    HW116436   3.202   0.484   0.391
 1519SOL    HW216437   3.060   0.432   0.394
 1520SOL     OW16438   2.506   2.395   3.528
 1520SOL    HW116439   2.512   2.301   3.507
 1520SOL    HW216440   2.561   2.438   3.463
 1521SOL     OW16441   4.005   2.522   8.761
 1521SOL    HW116442   4.058   2.454   8.803
 1521SOL    HW216443   3.922   2.520   8.808
 1522SOL     OW16444   2.420   0.223  17.437
 1522SOL    HW116445   2.428   0.148  17.496
 1522SOL    HW216446   2.486   0.285  17.469
 1523SOL     OW16447   1.040   0.407  15.116
 1523SOL    HW116448   1.115   0.466  15.111
 1523SOL    HW216449   0.979   0.449  15.176
 1524SOL     OW16450   3.195   2.544  18.214
 1524SOL    HW116451   3.175   2.494  18.293
 1524SOL    HW216452   3.262   2.607  18.241
 1525SOL     OW16453   2.237   0.512   1.406
 1525SOL    HW116454   2.154   0.464   1.405
 1525SOL    HW216455   2.223   0.580   1.473
 1526SOL     OW16456   3.791   4.639  20.979
 1526SOL    HW116457   3.831   4.697  20.915
 1526SOL    HW216458   3.821   4.671  21.063
 1527SOL     OW16459   1.126   0.623   4.618
 1527SOL    HW116460   1.070   0.548   4.638
 1527SOL    HW216461   1.131   0.672   4.700
 1528SOL     OW16462   4.570   1.953   1.147
 1528SOL    HW116463   4.513   1.926   1.075
 1528SOL    HW216464   4.552   1.888   1.216
 1529SOL     OW16465   0.063   3.091   5.030
 1529SOL    HW116466   0.039   3.008   5.072
 1529SOL    HW216467   4.793   3.101   4.959
 1530SOL     OW16468   0.661   3.041   2.316
 1530SOL    HW116469   0.641   3.075   2.403
 1530SOL    HW216470   0.583   3.061   2.264
 1531SOL     OW16471   0.663   0.150  14.173
 1531SOL    HW116472   0.714   0.139  14.093
 1531SOL    HW216473   0.614   0.069  14.182
 1532SOL     OW16474   3.957   0.088  18.687
 1532SOL    HW116475   4.038   0.038  18.696
 1532SOL    HW216476   3.974   0.149  18.616
 1533SOL     OW16477   3.502   4.633  19.247
 1533SOL    HW116478   3.455   4.632  19.331
 1533SOL    HW216479   3.436   4.611  19.182
 1534SOL     OW16480   3.138   3.517   7.006
 1534SOL    HW116481   3.118   3.524   7.099
 1534SOL    HW216482   3.168   3.427   6.994
 1535SOL     OW16483   2.112   0.626  15.631
 1535SOL    HW116484   2.088   0.636  15.539
 1535SOL    HW216485   2.129   0.715  15.661
 1536SOL     OW16486   2.210   4.216   0.576
 1536SOL    HW116487   2.268   4.292   0.583
 1536SOL    HW216488   2.165   4.227   0.493
 1537SOL     OW16489   0.756   3.473   6.599
 1537SOL    HW116490   0.755   3.567   6.583
 1537SOL    HW216491   0.814   3.462   6.674
 1538SOL     OW16492   2.699   4.091  15.615
 1538SOL    HW116493   2.767   4.035  15.577
 1538SOL    HW216494   2.714   4.176  15.574
 1539SOL     OW16495   3.624   3.703  20.336
 1539SOL    HW116496   3.588   3.695  20.424
 1539SOL    HW216497   3.684   3.629  20.329
 1540SOL     OW16498   2.449   1.745   6.359
 1540SOL    HW116499   2.417   1.687   6.290
 1540SOL    HW216500   2.390   1.820   6.358
 1541SOL     OW16501   3.866   0.389   1.199
 1541SOL    HW116502   3.828   0.440   1.271
 1541SOL    HW216503   3.955   0.422   1.192
 1542SOL     OW16504   4.727   4.211   5.644
 1542SOL    HW116505   4.750   4.201   5.736
 1542SOL    HW216506   4.659   4.278   5.644
 1543SOL     OW16507   1.220   1.489  17.401
 1543SOL    HW116508   1.291   1.450  17.350
 1543SOL    HW216509   1.171   1.541  17.339
 1544SOL     OW16510   0.899   3.121   4.541
 1544SOL    HW116511   0.855   3.192   4.493
 1544SOL    HW216512   0.964   3.166   4.595
 1545SOL     OW16513   0.086   2.175  15.052
 1545SOL    HW116514   0.143   2.234  15.004
 1545SOL    HW216515   0.013   2.158  14.992
 1546SOL     OW16516   3.617   4.005  19.684
 1546SOL    HW116517   3.675   3.976  19.753
 1546SOL    HW216518   3.569   3.926  19.658
 1547SOL     OW16519   3.853   0.831  14.544
 1547SOL    HW116520   3.818   0.749  14.511
 1547SOL    HW216521   3.794   0.898  14.510
 1548SOL     OW16522   1.240   3.817  15.515
 1548SOL    HW116523   1.167   3.792  15.571
 1548SOL    HW216524   1.318   3.790  15.565
 1549SOL     OW16525   2.287   4.734  14.254
 1549SOL    HW116526   2.337   4.659  14.288
 1549SOL    HW216527   2.202   4.726  14.296
 1550SOL     OW16528   3.748   0.749   4.315
 1550SOL    HW116529   3.711   0.827   4.273
 1550SOL    HW216530   3.695   0.736   4.394
 1551SOL     OW16531   3.923   1.640  17.235
 1551SOL    HW116532   4.001   1.659  17.288
 1551SOL    HW216533   3.958   1.623  17.147
 1552SOL     OW16534   3.048   4.511   5.895
 1552SOL    HW116535   3.094   4.453   5.835
 1552SOL    HW216536   2.984   4.455   5.938
 1553SOL     OW16537   0.161   1.985   5.922
 1553SOL    HW116538   0.220   1.910   5.913
 1553SOL    HW216539   0.139   1.987   6.015
 1554SOL     OW16540   0.650   3.688  16.696
 1554SOL    HW116541   0.688   3.746  16.630
 1554SOL    HW216542   0.700   3.706  16.776
 1555SOL     OW16543   0.776   4.768   0.178
 1555SOL    HW116544   0.696   0.026   0.169
 1555SOL    HW216545   0.796   4.770   0.271
 1556SOL     OW16546   4.573   3.269  18.251
 1556SOL    HW116547   4.533   3.184  18.232
 1556SOL    HW216548   4.528   3.300  18.330
 1557SOL     OW16549   2.257   3.199  18.441
 1557SOL    HW116550   2.270   3.121  18.496
 1557SOL    HW216551   2.202   3.256  18.494
 1558SOL     OW16552   3.716   1.729   5.079
 1558SOL    HW116553   3.788   1.699   5.023
 1558SOL    HW216554   3.645   1.749   5.018
 1559SOL     OW16555   3.428   3.984  20.835
 1559SOL    HW116556   3.362   3.914  20.829
 1559SOL    HW216557   3.423   4.029  20.751
 1560SOL     OW16558   2.072   0.142  18.614
 1560SOL    HW116559   2.114   0.197  18.680
 1560SOL    HW216560   2.140   0.078  18.590
 1561SOL     OW16561   0.652   3.513  15.877
 1561SOL    HW116562   0.743   3.533  15.855
 1561SOL    HW216563   0.605   3.595  15.859
 1562SOL     OW16564   3.706   3.326  20.007
 1562SOL    HW116565   3.729   3.240  20.042
 1562SOL    HW216566   3.784   3.353  19.958
 1563SOL     OW16567   1.156   1.572   6.616
 1563SOL    HW116568   1.063   1.554   6.621
 1563SOL    HW216569   1.172   1.595   6.524
 1564SOL     OW16570   1.703   1.541  14.115
 1564SOL    HW116571   1.688   1.447  14.111
 1564SOL    HW216572   1.653   1.577  14.042
 1565SOL     OW16573   3.959   4.522  15.534
 1565SOL    HW116574   3.990   4.533  15.625
 1565SOL    HW216575   3.998   4.595  15.487
 1566SOL     OW16576   0.161   0.763  13.188
 1566SOL    HW116577   0.221   0.828  13.151
 1566SOL    HW216578   0.098   0.746  13.118
 1567SOL     OW16579   1.345   2.129  19.931
 1567SOL    HW116580   1.373   2.097  19.845
 1567SOL    HW216581   1.394   2.076  19.993
 1568SOL     OW16582   0.181   0.058   3.117
 1568SOL    HW116583   0.121   0.030   3.047
 1568SOL    HW216584   0.172   4.785   3.184
 1569SOL     OW16585   1.330   0.538   5.643
 1569SOL    HW116586   1.357   0.509   5.730
 1569SOL    HW216587   1.386   0.613   5.624
 1570SOL     OW16588   3.410   2.895   4.035
 1570SOL    HW116589   3.397   2.956   3.962
 1570SOL    HW216590   3.488   2.927   4.080
 1571SOL     OW16591   1.154   3.071   1.979
 1571SOL    HW116592   1.062   3.098   1.982
 1571SOL    HW216593   1.192   3.106   2.059
 1572SOL     OW16594   4.717   1.395  19.965
 1572SOL    HW116595   4.715   1.427  19.875
 1572SOL    HW216596   4.739   1.303  19.958
 1573SOL     OW16597   2.629   1.245   2.663
 1573SOL    HW116598   2.578   1.235   2.583
 1573SOL    HW216599   2.721   1.240   2.634
 1574SOL     OW16600   1.189   0.417   2.798
 1574SOL    HW116601   1.125   0.479   2.832
 1574SOL    HW216602   1.272   0.443   2.839
 1575SOL     OW16603   1.630   1.631  18.665
 1575SOL    HW116604   1.632   1.618  18.760
 1575SOL    HW216605   1.720   1.656  18.643
 1576SOL     OW16606   1.965   1.702   0.105
 1576SOL    HW116607   2.031   1.764   0.074
 1576SOL    HW216608   2.006   1.616   0.094
 1577SOL     OW16609   4.720   2.955  19.286
 1577SOL    HW116610   4.670   3.036  19.281
 1577SOL    HW216611   0.011   2.977  19.248
 1578SOL     OW16612   4.525   0.621  16.160
 1578SOL    HW116613   4.520   0.713  16.183
 1578SOL    HW216614   4.447   0.605  16.107
 1579SOL     OW16615   1.037   1.834   2.843
 1579SOL    HW116616   1.094   1.911   2.856
 1579SOL    HW216617   1.011   1.840   2.751
 1580SOL     OW16618   4.377   2.658   4.774
 1580SOL    HW116619   4.288   2.670   4.805
 1580SOL    HW216620   4.417   2.599   4.839
 1581SOL     OW16621   4.228   1.603  15.765
 1581SOL    HW116622   4.141   1.638  15.746
 1581SOL    HW216623   4.258   1.653  15.841
 1582SOL     OW16624   0.680   0.043   1.464
 1582SOL    HW116625   0.645   0.089   1.388
 1582SOL    HW216626   0.714   0.113   1.520
 1583SOL     OW16627   4.665   1.234   2.789
 1583SOL    HW116628   4.620   1.317   2.809
 1583SOL    HW216629   4.689   1.241   2.697
 1584SOL     OW16630   1.521   4.584  17.486
 1584SOL    HW116631   1.591   4.527  17.519
 1584SOL    HW216632   1.524   4.573  17.391
 1585SOL     OW16633   0.539   3.512   4.237
 1585SOL    HW116634   0.563   3.515   4.330
 1585SOL    HW216635   0.575   3.592   4.200
 1586SOL     OW16636   2.518   3.250  19.829
 1586SOL    HW116637   2.440   3.201  19.857
 1586SOL    HW216638   2.485   3.312  19.764
 1587SOL     OW16639   2.736   2.328  12.647
 1587SOL    HW116640   2.775   2.403  12.603
 1587SOL    HW216641   2.645   2.326  12.616
 1588SOL     OW16642   0.952   0.803   3.021
 1588SOL    HW116643   1.032   0.819   2.971
 1588SOL    HW216644   0.961   0.857   3.099
 1589SOL     OW16645   2.356   0.688  19.618
 1589SOL    HW116646   2.284   0.654  19.565
 1589SOL    HW216647   2.340   0.782  19.624
 1590SOL     OW16648   4.725   0.705  17.167
 1590SOL    HW116649   0.008   0.762  17.166
 1590SOL    HW216650   4.735   0.652  17.246
 1591SOL     OW16651   0.007   2.474  15.221
 1591SOL    HW116652   4.792   2.385  15.254
 1591SOL    HW216653   4.713   2.500  15.196
 1592SOL     OW16654   4.777   0.164   6.187
 1592SOL    HW116655   4.739   0.181   6.273
 1592SOL    HW216656   0.051   0.230   6.177
 1593SOL     OW16657   4.673   3.437  20.468
 1593SOL    HW116658   4.702   3.355  20.427
 1593SOL    HW216659   4.650   3.494  20.395
 1594SOL     OW16660   1.015   1.754  12.903
 1594SOL    HW116661   1.042   1.779  12.815
 1594SOL    HW216662   1.081   1.791  12.961
 1595SOL     OW16663   4.250   4.529   0.355
 1595SOL    HW116664   4.198   4.473   0.413
 1595SOL    HW216665   4.283   4.598   0.413
 1596SOL     OW16666   3.357   2.066   1.015
 1596SOL    HW116667   3.284   2.021   0.972
 1596SOL    HW216668   3.325   2.154   1.030
 1597SOL     OW16669   0.819   3.871   1.639
 1597SOL    HW116670   0.898   3.852   1.689
 1597SOL    HW216671   0.841   3.847   1.549
 1598SOL     OW16672   0.911   4.333  15.746
 1598SOL    HW116673   0.907   4.336  15.651
 1598SOL    HW216674   0.971   4.404  15.769
 1599SOL     OW16675   4.334   1.714   3.544
 1599SOL    HW116676   4.416   1.744   3.504
 1599SOL    HW216677   4.304   1.789   3.596
 1600SOL     OW16678   3.126   0.813   3.746
 1600SOL    HW116679   3.170   0.732   3.772
 1600SOL    HW216680   3.156   0.878   3.810
 1601SOL     OW16681   3.831   4.160  20.899
 1601SOL    HW116682   3.795   4.084  20.946
 1601SOL    HW216683   3.759   4.223  20.896
 1602SOL     OW16684   1.079   2.240   6.004
 1602SOL    HW116685   1.166   2.222   5.967
 1602SOL    HW216686   1.038   2.153   6.012
 1603SOL     OW16687   3.046   3.166   5.978
 1603SOL    HW116688   3.012   3.169   5.889
 1603SOL    HW216689   2.982   3.216   6.029
 1604SOL     OW16690   2.491   0.825  15.898
 1604SOL    HW116691   2.489   0.869  15.813
 1604SOL    HW216692   2.559   0.871  15.947
 1605SOL     OW16693   1.292   3.131  16.673
 1605SOL    HW116694   1.344   3.153  16.595
 1605SOL    HW216695   1.215   3.189  16.667
 1606SOL     OW16696   2.498   4.069   3.792
 1606SOL    HW116697   2.407   4.087   3.816
 1606SOL    HW216698   2.549   4.130   3.845
 1607SOL     OW16699   1.485   2.617  19.146
 1607SOL    HW116700   1.567   2.620  19.097
 1607SOL    HW216701   1.505   2.564  19.223
 1608SOL     OW16702   3.943   2.699   6.249
 1608SOL    HW116703   3.903   2.656   6.173
 1608SOL    HW216704   4.036   2.677   6.242
 1609SOL     OW16705   1.832   1.236  20.705
 1609SOL    HW116706   1.846   1.255  20.612
 1609SOL    HW216707   1.909   1.185  20.731
 1610SOL     OW16708   4.341   3.675   5.934
 1610SOL    HW116709   4.436   3.675   5.919
 1610SOL    HW216710   4.329   3.617   6.009
 1611SOL     OW16711   2.112   2.526   4.820
 1611SOL    HW116712   2.125   2.432   4.830
 1611SOL    HW216713   2.024   2.543   4.853
 1612SOL     OW16714   2.069   2.556  19.121
 1612SOL    HW116715   2.033   2.591  19.040
 1612SOL    HW216716   2.108   2.472  19.097
 1613SOL     OW16717   2.778   2.421   1.997
 1613SOL    HW116718   2.776   2.513   1.970
 1613SOL    HW216719   2.749   2.372   1.920
 1614SOL     OW16720   0.213   1.115   3.702
 1614SOL    HW116721   0.264   1.037   3.724
 1614SOL    HW216722   0.131   1.081   3.666
 1615SOL     OW16723   4.210   0.193  16.775
 1615SOL    HW116724   4.223   0.199  16.870
 1615SOL    HW216725   4.297   0.174  16.741
 1616SOL     OW16726   0.448   2.228   4.809
 1616SOL    HW116727   0.527   2.233   4.862
 1616SOL    HW216728   0.376   2.237   4.872
 1617SOL     OW16729   0.470   0.709   3.355
 1617SOL    HW116730   0.564   0.727   3.358
 1617SOL    HW216731   0.454   0.651   3.429
 1618SOL     OW16732   4.078   0.345   3.926
 1618SOL    HW116733   4.115   0.417   3.977
 1618SOL    HW216734   4.151   0.284   3.914
 1619SOL     OW16735   4.578   2.112   4.201
 1619SOL    HW116736   4.656   2.078   4.157
 1619SOL    HW216737   4.508   2.101   4.136
 1620SOL     OW16738   4.003   1.696  15.654
 1620SOL    HW116739   3.974   1.769  15.708
 1620SOL    HW216740   3.972   1.716  15.566
 1621SOL     OW16741   4.401   2.982  21.191
 1621SOL    HW116742   4.448   2.964  21.110
 1621SOL    HW216743   4.367   2.898  21.219
 1622SOL     OW16744   2.207   0.449  19.219
 1622SOL    HW116745   2.276   0.402  19.172
 1622SOL    HW216746   2.217   0.540  19.192
 1623SOL     OW16747   1.526   0.288  18.613
 1623SOL    HW116748   1.505   0.228  18.542
 1623SOL    HW216749   1.602   0.247  18.656
 1624SOL     OW16750   1.337   1.602   0.758
 1624SOL    HW116751   1.388   1.655   0.697
 1624SOL    HW216752   1.294   1.666   0.815
 1625SOL     OW16753   1.178   3.904   4.470
 1625SOL    HW116754   1.173   3.983   4.523
 1625SOL    HW216755   1.088   3.871   4.469
 1626SOL     OW16756   2.809   3.512   3.742
 1626SOL    HW116757   2.816   3.417   3.740
 1626SOL    HW216758   2.899   3.543   3.749
 1627SOL     OW16759   3.663   1.560   2.749
 1627SOL    HW116760   3.637   1.487   2.807
 1627SOL    HW216761   3.734   1.524   2.696
 1628SOL     OW16762   1.264   4.789  14.438
 1628SOL    HW116763   1.325   4.722  14.469
 1628SOL    HW216764   1.190   4.740  14.402
 1629SOL     OW16765   0.890   3.350   1.314
 1629SOL    HW116766   0.966   3.387   1.359
 1629SOL    HW216767   0.815   3.376   1.366
 1630SOL     OW16768   2.443   0.479  20.538
 1630SOL    HW116769   2.453   0.425  20.616
 1630SOL    HW216770   2.522   0.461  20.487
 1631SOL     OW16771   1.630   3.257   4.768
 1631SOL    HW116772   1.592   3.173   4.792
 1631SOL    HW216773   1.561   3.321   4.787
 1632SOL     OW16774   3.850   0.366  20.730
 1632SOL    HW116775   3.849   0.337  20.821
 1632SOL    HW216776   3.777   0.428  20.725
 1633SOL     OW16777   4.154   4.018  20.020
 1633SOL    HW116778   4.171   3.955  20.090
 1633SOL    HW216779   4.210   3.989  19.947
 1634SOL     OW16780   2.221   4.236   6.629
 1634SOL    HW116781   2.215   4.141   6.628
 1634SOL    HW216782   2.310   4.256   6.602
 1635SOL     OW16783   3.531   1.810   2.329
 1635SOL    HW116784   3.459   1.869   2.306
 1635SOL    HW216785   3.490   1.742   2.383
 1636SOL     OW16786   0.804   1.808  15.707
 1636SOL    HW116787   0.766   1.895  15.692
 1636SOL    HW216788   0.867   1.797  15.636
 1637SOL     OW16789   3.008   2.869   2.940
 1637SOL    HW116790   2.927   2.915   2.962
 1637SOL    HW216791   2.985   2.816   2.864
 1638SOL     OW16792   0.309   1.448  15.824
 1638SOL    HW116793   0.404   1.445  15.814
 1638SOL    HW216794   0.276   1.439  15.734
 1639SOL     OW16795   4.712   4.147  18.502
 1639SOL    HW116796   4.736   4.173  18.413
 1639SOL    HW216797   4.789   4.170  18.555
 1640SOL     OW16798   4.458   2.373  17.862
 1640SOL    HW116799   4.395   2.438  17.832
 1640SOL    HW216800   4.504   2.415  17.935
 1641SOL     OW16801   0.653   2.191   2.982
 1641SOL    HW116802   0.733   2.151   3.017
 1641SOL    HW216803   0.617   2.241   3.056
 1642SOL     OW16804   0.295   2.799   6.370
 1642SOL    HW116805   0.319   2.713   6.405
 1642SOL    HW216806   0.259   2.780   6.283
 1643SOL     OW16807   4.229   3.623   5.239
 1643SOL    HW116808   4.191   3.579   5.163
 1643SOL    HW216809   4.162   3.618   5.307
 1644SOL     OW16810   3.925   0.875  18.814
 1644SOL    HW116811   4.015   0.906  18.802
 1644SOL    HW216812   3.877   0.912  18.740
 1645SOL     OW16813   1.008   1.612   5.988
 1645SOL    HW116814   1.024   1.518   5.997
 1645SOL    HW216815   0.922   1.618   5.946
 1646SOL     OW16816   1.355   1.813  16.489
 1646SOL    HW116817   1.300   1.885  16.457
 1646SOL    HW216818   1.307   1.734  16.464
 1647SOL     OW16819   1.823   4.283   7.119
 1647SOL    HW116820   1.878   4.257   7.193
 1647SOL    HW216821   1.836   4.378   7.112
 1648SOL     OW16822   4.195   2.065   5.463
 1648SOL    HW116823   4.134   2.138   5.462
 1648SOL    HW216824   4.282   2.106   5.465
 1649SOL     OW16825   2.390   1.908  16.039
 1649SOL    HW116826   2.479   1.928  16.010
 1649SOL    HW216827   2.339   1.903  15.958
 1650SOL     OW16828   1.770   2.352  13.548
 1650SOL    HW116829   1.853   2.319  13.582
 1650SOL    HW216830   1.730   2.399  13.621
 1651SOL     OW16831   3.894   2.986   1.427
 1651SOL    HW116832   3.868   3.050   1.494
 1651SOL    HW216833   3.836   2.911   1.441
 1652SOL     OW16834   2.147   4.121  17.767
 1652SOL    HW116835   2.081   4.121  17.836
 1652SOL    HW216836   2.222   4.167  17.805
 1653SOL     OW16837   1.034   3.242  16.570
 1653SOL    HW116838   0.996   3.177  16.630
 1653SOL    HW216839   0.979   3.236  16.491
 1654SOL     OW16840   4.278   4.517  20.567
 1654SOL    HW116841   4.279   4.532  20.472
 1654SOL    HW216842   4.212   4.448  20.579
 1655SOL     OW16843   3.971   1.941   6.632
 1655SOL    HW116844   3.912   2.016   6.633
 1655SOL    HW216845   3.963   1.905   6.544
 1656SOL     OW16846   1.239   4.063  17.720
 1656SOL    HW116847   1.289   3.983  17.733
 1656SOL    HW216848   1.154   4.033  17.688
 1657SOL     OW16849   3.902   3.763   2.225
 1657SOL    HW116850   3.890   3.757   2.320
 1657SOL    HW216851   3.943   3.849   2.212
 1658SOL     OW16852   3.563   4.773   2.028
 1658SOL    HW116853   3.520   4.741   2.107
 1658SOL    HW216854   3.492   0.015   1.974
 1659SOL     OW16855   2.931   1.867  14.520
 1659SOL    HW116856   2.838   1.887  14.532
 1659SOL    HW216857   2.939   1.774  14.542
 1660SOL     OW16858   2.685   1.981  16.039
 1660SOL    HW116859   2.704   2.074  16.023
 1660SOL    HW216860   2.708   1.968  16.131
 1661SOL     OW16861   4.247   1.641   7.899
 1661SOL    HW116862   4.158   1.625   7.868
 1661SOL    HW216863   4.293   1.559   7.883
 1662SOL     OW16864   2.414   2.182   2.073
 1662SOL    HW116865   2.405   2.117   2.143
 1662SOL    HW216866   2.422   2.266   2.119
 1663SOL     OW16867   4.454   3.102  20.025
 1663SOL    HW116868   4.409   3.037  19.971
 1663SOL    HW216869   4.423   3.087  20.114
 1664SOL     OW16870   2.219   4.633  16.513
 1664SOL    HW116871   2.229   4.544  16.478
 1664SOL    HW216872   2.299   4.648  16.563
 1665SOL     OW16873   4.769   3.964  17.272
 1665SOL    HW116874   4.689   3.994  17.229
 1665SOL    HW216875   4.772   4.012  17.354
 1666SOL     OW16876   0.023   4.489  15.618
 1666SOL    HW116877   4.791   4.573  15.579
 1666SOL    HW216878   4.750   4.471  15.684
 1667SOL     OW16879   3.151   2.740  14.766
 1667SOL    HW116880   3.196   2.771  14.688
 1667SOL    HW216881   3.208   2.765  14.839
 1668SOL     OW16882   1.815   1.585   5.497
 1668SOL    HW116883   1.864   1.666   5.486
 1668SOL    HW216884   1.741   1.608   5.553
 1669SOL     OW16885   4.224   3.472   4.594
 1669SOL    HW116886   4.129   3.463   4.589
 1669SOL    HW216887   4.247   3.440   4.682
 1670SOL     OW16888   1.551   3.608   6.780
 1670SOL    HW116889   1.608   3.531   6.774
 1670SOL    HW216890   1.610   3.679   6.807
 1671SOL     OW16891   2.469   2.135   2.594
 1671SOL    HW116892   2.409   2.063   2.616
 1671SOL    HW216893   2.550   2.091   2.569
 1672SOL     OW16894   2.682   0.390   6.317
 1672SOL    HW116895   2.755   0.437   6.275
 1672SOL    HW216896   2.678   0.306   6.271
 1673SOL     OW16897   4.063   0.888   5.344
 1673SOL    HW116898   4.007   0.871   5.269
 1673SOL    HW216899   4.075   0.983   5.344
 1674SOL     OW16900   0.901   0.247  17.682
 1674SOL    HW116901   0.990   0.239  17.645
 1674SOL    HW216902   0.913   0.232  17.776
 1675SOL     OW16903   0.168   2.734  17.706
 1675SOL    HW116904   0.120   2.806  17.664
 1675SOL    HW216905   0.129   2.655  17.669
 1676SOL     OW16906   1.945   3.099  19.317
 1676SOL    HW116907   1.903   3.045  19.250
 1676SOL    HW216908   1.995   3.037  19.370
 1677SOL     OW16909   4.264   1.164   1.853
 1677SOL    HW116910   4.287   1.080   1.813
 1677SOL    HW216911   4.218   1.141   1.933
 1678SOL     OW16912   4.122   2.778  15.522
 1678SOL    HW116913   4.096   2.745  15.608
 1678SOL    HW216914   4.181   2.711  15.488
 1679SOL     OW16915   1.313   0.425   9.270
 1679SOL    HW116916   1.342   0.515   9.259
 1679SOL    HW216917   1.365   0.375   9.207
 1680SOL     OW16918   2.366   1.876  15.741
 1680SOL    HW116919   2.393   1.868  15.649
 1680SOL    HW216920   2.406   1.957  15.770
 1681SOL     OW16921   1.214   3.774   2.628
 1681SOL    HW116922   1.145   3.827   2.589
 1681SOL    HW216923   1.194   3.775   2.722
 1682SOL     OW16924   1.382   1.624  20.316
 1682SOL    HW116925   1.478   1.623  20.316
 1682SOL    HW216926   1.358   1.535  20.291
 1683SOL     OW16927   0.224   2.041  19.100
 1683SOL    HW116928   0.217   1.995  19.184
 1683SOL    HW216929   0.181   2.125  19.115
 1684SOL     OW16930   1.517   3.175   8.286
 1684SOL    HW116931   1.577   3.211   8.351
 1684SOL    HW216932   1.492   3.089   8.321
 1685SOL     OW16933   3.859   3.489  14.063
 1685SOL    HW116934   3.819   3.403  14.079
 1685SOL    HW216935   3.947   3.469  14.032
 1686SOL     OW16936   0.929   2.427  15.811
 1686SOL    HW116937   0.991   2.425  15.883
 1686SOL    HW216938   0.902   2.519  15.806
 1687SOL     OW16939   2.263   2.780  19.738
 1687SOL    HW116940   2.176   2.783  19.778
 1687SOL    HW216941   2.277   2.688  19.716
 1688SOL     OW16942   2.007   0.785  16.282
 1688SOL    HW116943   2.100   0.808  16.284
 1688SOL    HW216944   1.970   0.830  16.358
 1689SOL     OW16945   4.068   2.552  14.738
 1689SOL    HW116946   4.112   2.601  14.807
 1689SOL    HW216947   3.999   2.611  14.707
 1690SOL     OW16948   3.465   3.389  20.125
 1690SOL    HW116949   3.462   3.313  20.183
 1690SOL    HW216950   3.549   3.382  20.080
 1691SOL     OW16951   2.411   3.480   2.373
 1691SOL    HW116952   2.357   3.501   2.298
 1691SOL    HW216953   2.349   3.457   2.442
 1692SOL     OW16954   3.590   1.959   1.023
 1692SOL    HW116955   3.608   1.886   0.963
 1692SOL    HW216956   3.497   1.977   1.010
 1693SOL     OW16957   3.809   3.324   6.166
 1693SOL    HW116958   3.832   3.237   6.132
 1693SOL    HW216959   3.732   3.349   6.116
 1694SOL     OW16960   0.621   0.908  18.358
 1694SOL    HW116961   0.548   0.897  18.296
 1694SOL    HW216962   0.661   0.992  18.333
 1695SOL     OW16963   4.230   4.783   2.640
 1695SOL    HW116964   4.137   4.759   2.640
 1695SOL    HW216965   4.235   0.066   2.583
 1696SOL     OW16966   0.545   3.041  14.686
 1696SOL    HW116967   0.496   3.053  14.767
 1696SOL    HW216968   0.511   2.961  14.648
 1697SOL     OW16969   1.746   1.241   0.950
 1697SOL    HW116970   1.743   1.336   0.934
 1697SOL    HW216971   1.675   1.226   1.013
 1698SOL     OW16972   0.552   0.508  21.116
 1698SOL    HW116973   0.463   0.541  21.130
 1698SOL    HW216974   0.608   0.584  21.131
 1699SOL     OW16975   0.004   4.528   4.622
 1699SOL    HW116976   4.775   4.448   4.670
 1699SOL    HW216977   0.059   4.577   4.683
 1700SOL     OW16978   0.491   2.300   3.933
 1700SOL    HW116979   0.578   2.336   3.952
 1700SOL    HW216980   0.493   2.283   3.838
 1701SOL     OW16981   1.213   4.470  16.047
 1701SOL    HW116982   1.230   4.557  16.085
 1701SOL    HW216983   1.214   4.411  16.122
 1702SOL     OW16984   2.511   4.473   2.096
 1702SOL    HW116985   2.457   4.450   2.020
 1702SOL    HW216986   2.597   4.436   2.077
 1703SOL     OW16987   2.559   1.684   4.808
 1703SOL    HW116988   2.533   1.596   4.836
 1703SOL    HW216989   2.532   1.741   4.880
 1704SOL     OW16990   0.110   4.014  16.718
 1704SOL    HW116991   0.188   3.982  16.672
 1704SOL    HW216992   0.086   4.094  16.672
 1705SOL     OW16993   3.467   3.286   7.739
 1705SOL    HW116994   3.519   3.265   7.661
 1705SOL    HW216995   3.525   3.340   7.792
 1706SOL     OW16996   3.891   0.109   1.546
 1706SOL    HW116997   3.830   0.069   1.484
 1706SOL    HW216998   3.890   0.051   1.622
 1707SOL     OW16999   0.715   1.157   5.328
 1707SOL    HW117000   0.742   1.233   5.380
 1707SOL    HW217001   0.733   1.082   5.385
 1708SOL     OW17002   4.730   4.707  17.143
 1708SOL    HW117003   4.665   4.705  17.073
 1708SOL    HW217004   0.017   4.735  17.100
 1709SOL     OW17005   1.149   3.322   3.332
 1709SOL    HW117006   1.085   3.394   3.334
 1709SOL    HW217007   1.156   3.294   3.423
 1710SOL     OW17008   1.699   4.784   4.513
 1710SOL    HW117009   1.758   4.709   4.505
 1710SOL    HW217010   1.644   4.779   4.436
 1711SOL     OW17011   3.465   4.432   6.178
 1711SOL    HW117012   3.440   4.340   6.183
 1711SOL    HW217013   3.422   4.465   6.099
 1712SOL     OW17014   1.733   0.472   0.116
 1712SOL    HW117015   1.775   0.494   0.199
 1712SOL    HW217016   1.650   0.519   0.118
 1713SOL     OW17017   2.229   0.408   2.212
 1713SOL    HW117018   2.201   0.417   2.121
 1713SOL    HW217019   2.309   0.461   2.218
 1714SOL     OW17020   0.582   1.389   8.246
 1714SOL    HW117021   0.520   1.461   8.250
 1714SOL    HW217022   0.668   1.431   8.246
 1715SOL     OW17023   0.014   2.546  17.557
 1715SOL    HW117024   4.790   2.458  17.591
 1715SOL    HW217025   4.758   2.551  17.475
 1716SOL     OW17026   4.138   3.603   4.966
 1716SOL    HW117027   4.177   3.520   4.939
 1716SOL    HW217028   4.127   3.652   4.884
 1717SOL     OW17029   0.795   4.029   3.027
 1717SOL    HW117030   0.700   4.037   3.021
 1717SOL    HW217031   0.823   4.006   2.939
 1718SOL     OW17032   2.262   0.943  18.844
 1718SOL    HW117033   2.259   0.850  18.824
 1718SOL    HW217034   2.282   0.986  18.760
 1719SOL     OW17035   0.243   1.800   4.439
 1719SOL    HW117036   0.315   1.830   4.383
 1719SOL    HW217037   0.272   1.715   4.471
 1720SOL     OW17038   4.449   4.787  17.215
 1720SOL    HW117039   4.420   4.709  17.261
 1720SOL    HW217040   4.535   0.013  17.252
 1721SOL     OW17041   0.702   0.634  16.960
 1721SOL    HW117042   0.694   0.638  17.055
 1721SOL    HW217043   0.697   0.725  16.932
 1722SOL     OW17044   4.699   0.413  18.167
 1722SOL    HW117045   4.724   0.347  18.102
 1722SOL    HW217046   4.713   0.497  18.124
 1723SOL     OW17047   0.495   4.158  17.793
 1723SOL    HW117048   0.450   4.078  17.767
 1723SOL    HW217049   0.521   4.199  17.710
 1724SOL     OW17050   2.446   1.517   1.106
 1724SOL    HW117051   2.429   1.570   1.028
 1724SOL    HW217052   2.365   1.525   1.158
 1725SOL     OW17053   0.649   4.548  20.247
 1725SOL    HW117054   0.582   4.551  20.315
 1725SOL    HW217055   0.661   4.454  20.231
 1726SOL     OW17056   4.583   2.666  17.723
 1726SOL    HW117057   4.580   2.762  17.728
 1726SOL    HW217058   4.638   2.648  17.646
 1727SOL     OW17059   2.329   3.029  19.580
 1727SOL    HW117060   2.311   2.956  19.639
 1727SOL    HW217061   2.425   3.033  19.577
 1728SOL     OW17062   2.905   3.584   2.207
 1728SOL    HW117063   2.877   3.619   2.122
 1728SOL    HW217064   2.824   3.576   2.257
 1729SOL     OW17065   4.241   4.738   4.047
 1729SOL    HW117066   4.225   4.693   4.130
 1729SOL    HW217067   4.154   4.753   4.011
 1730SOL     OW17068   0.647   1.052  15.721
 1730SOL    HW117069   0.602   1.067  15.804
 1730SOL    HW217070   0.600   1.106  15.658
 1731SOL     OW17071   2.888   2.631  19.806
 1731SOL    HW117072   2.931   2.546  19.796
 1731SOL    HW217073   2.849   2.627  19.893
 1732SOL     OW17074   1.733   4.662  18.219
 1732SOL    HW117075   1.731   4.723  18.145
 1732SOL    HW217076   1.753   4.716  18.295
 1733SOL     OW17077   4.004   2.634   1.752
 1733SOL    HW117078   3.962   2.620   1.667
 1733SOL    HW217079   3.990   2.726   1.771
 1734SOL     OW17080   4.078   4.314  14.817
 1734SOL    HW117081   4.075   4.332  14.723
 1734SOL    HW217082   3.996   4.348  14.851
 1735SOL     OW17083   0.787   4.700  13.501
 1735SOL    HW117084   0.717   4.674  13.442
 1735SOL    HW217085   0.866   4.700  13.447
 1736SOL     OW17086   0.919   1.959  18.179
 1736SOL    HW117087   0.824   1.955  18.173
 1736SOL    HW217088   0.938   2.047  18.212
 1737SOL     OW17089   2.357   4.586   2.709
 1737SOL    HW117090   2.341   4.579   2.615
 1737SOL    HW217091   2.426   4.652   2.716
 1738SOL     OW17092   2.949   2.396  19.708
 1738SOL    HW117093   2.930   2.305  19.685
 1738SOL    HW217094   3.044   2.402  19.703
 1739SOL     OW17095   0.548   0.613   6.071
 1739SOL    HW117096   0.533   0.529   6.115
 1739SOL    HW217097   0.598   0.589   5.992
 1740SOL     OW17098   4.653   3.534   0.648
 1740SOL    HW117099   4.607   3.555   0.729
 1740SOL    HW217100   4.592   3.560   0.579
 1741SOL     OW17101   0.319   1.753   5.978
 1741SOL    HW117102   0.272   1.673   5.998
 1741SOL    HW217103   0.370   1.732   5.899
 1742SOL     OW17104   1.940   1.528  12.918
 1742SOL    HW117105   1.961   1.435  12.926
 1742SOL    HW217106   1.846   1.529  12.901
 1743SOL     OW17107   1.643   4.615  20.871
 1743SOL    HW117108   1.709   4.682  20.887
 1743SOL    HW217109   1.603   4.599  20.956
 1744SOL     OW17110   0.554   3.918  19.066
 1744SOL    HW117111   0.619   3.952  19.005
 1744SOL    HW217112   0.575   3.826  19.076
 1745SOL     OW17113   0.304   3.740  15.365
 1745SOL    HW117114   0.265   3.666  15.413
 1745SOL    HW217115   0.232   3.802  15.355
 1746SOL     OW17116   2.459   2.251  14.258
 1746SOL    HW117117   2.393   2.318  14.276
 1746SOL    HW217118   2.514   2.251  14.336
 1747SOL     OW17119   3.287   2.782  13.874
 1747SOL    HW117120   3.214   2.738  13.919
 1747SOL    HW217121   3.247   2.856  13.829
 1748SOL     OW17122   0.282   0.004   5.257
 1748SOL    HW117123   0.201   0.024   5.211
 1748SOL    HW217124   0.330   4.740   5.198
 1749SOL     OW17125   2.994   2.752  16.525
 1749SOL    HW117126   2.905   2.722  16.539
 1749SOL    HW217127   3.014   2.805  16.603
 1750SOL     OW17128   3.349   0.742  18.495
 1750SOL    HW117129   3.395   0.662  18.522
 1750SOL    HW217130   3.329   0.728  18.402
 1751SOL     OW17131   2.446   1.865   5.977
 1751SOL    HW117132   2.535   1.830   5.978
 1751SOL    HW217133   2.400   1.809   5.914
 1752SOL     OW17134   2.584   2.664   6.530
 1752SOL    HW117135   2.525   2.597   6.494
 1752SOL    HW217136   2.648   2.615   6.581
 1753SOL     OW17137   2.524   4.545  19.711
 1753SOL    HW117138   2.563   4.579  19.791
 1753SOL    HW217139   2.507   4.623  19.658
 1754SOL     OW17140   3.274   3.281   5.735
 1754SOL    HW117141   3.204   3.261   5.798
 1754SOL    HW217142   3.352   3.241   5.773
 1755SOL     OW17143   4.181   4.634   2.870
 1755SOL    HW117144   4.263   4.610   2.915
 1755SOL    HW217145   4.209   4.696   2.802
 1756SOL     OW17146   3.396   0.210   2.258
 1756SOL    HW117147   3.319   0.266   2.247
 1756SOL    HW217148   3.466   0.257   2.214
 1757SOL     OW17149   1.909   0.483  19.337
 1757SOL    HW117150   1.829   0.430  19.328
 1757SOL    HW217151   1.973   0.440  19.280
 1758SOL     OW17152   3.772   4.152  21.190
 1758SOL    HW117153   3.715   4.109  21.126
 1758SOL    HW217154   3.727   4.234  21.212
 1759SOL     OW17155   2.379   3.605  14.458
 1759SOL    HW117156   2.286   3.617  14.437
 1759SOL    HW217157   2.399   3.517  14.425
 1760SOL     OW17158   4.290   4.670  20.098
 1760SOL    HW117159   4.365   4.646  20.152
 1760SOL    HW217160   4.255   4.750  20.139
 1761SOL     OW17161   2.301   0.083   0.263
 1761SOL    HW117162   2.382   0.110   0.220
 1761SOL    HW217163   2.263   0.164   0.295
 1762SOL     OW17164   3.839   2.592  19.690
 1762SOL    HW117165   3.784   2.670  19.678
 1762SOL    HW217166   3.802   2.527  19.630
 1763SOL     OW17167   1.567   2.483   8.702
 1763SOL    HW117168   1.634   2.532   8.749
 1763SOL    HW217169   1.616   2.435   8.634
 1764SOL     OW17170   2.045   0.009   8.123
 1764SOL    HW117171   2.070   0.071   8.054
 1764SOL    HW217172   2.103   0.031   8.197
 1765SOL     OW17173   4.647   0.767  18.322
 1765SOL    HW117174   4.635   0.701  18.390
 1765SOL    HW217175   4.710   0.829  18.359
 1766SOL     OW17176   2.724   0.864  16.435
 1766SOL    HW117177   2.735   0.891  16.526
 1766SOL    HW217178   2.799   0.807  16.418
 1767SOL     OW17179   1.428   2.528  18.403
 1767SOL    HW117180   1.490   2.537  18.475
 1767SOL    HW217181   1.380   2.611  18.402
 1768SOL     OW17182   4.200   3.348  16.559
 1768SOL    HW117183   4.166   3.437  16.566
 1768SOL    HW217184   4.150   3.298  16.624
 1769SOL     OW17185   4.716   4.222  18.155
 1769SOL    HW117186   4.622   4.239  18.153
 1769SOL    HW217187   4.726   4.137  18.112
 1770SOL     OW17188   1.087   4.684  18.413
 1770SOL    HW117189   1.077   4.607  18.470
 1770SOL    HW217190   1.166   4.667  18.363
 1771SOL     OW17191   0.733   3.256   0.879
 1771SOL    HW117192   0.724   3.242   0.973
 1771SOL    HW217193   0.681   3.186   0.839
 1772SOL     OW17194   4.119   1.742   5.079
 1772SOL    HW117195   4.113   1.734   5.174
 1772SOL    HW217196   4.184   1.676   5.053
 1773SOL     OW17197   3.769   3.679  16.685
 1773SOL    HW117198   3.773   3.774  16.687
 1773SOL    HW217199   3.827   3.650  16.756
 1774SOL     OW17200   2.237   4.207   4.136
 1774SOL    HW117201   2.254   4.301   4.140
 1774SOL    HW217202   2.306   4.168   4.189
 1775SOL     OW17203   1.969   4.252  16.553
 1775SOL    HW117204   1.881   4.268  16.518
 1775SOL    HW217205   2.019   4.330  16.529
 1776SOL     OW17206   1.146   0.458   1.203
 1776SOL    HW117207   1.164   0.404   1.125
 1776SOL    HW217208   1.054   0.441   1.222
 1777SOL     OW17209   3.379   4.079   4.312
 1777SOL    HW117210   3.305   4.048   4.365
 1777SOL    HW217211   3.339   4.107   4.229
 1778SOL     OW17212   3.015   3.563  16.724
 1778SOL    HW117213   3.110   3.559  16.713
 1778SOL    HW217214   2.997   3.500  16.794
 1779SOL     OW17215   3.909   0.456   2.126
 1779SOL    HW117216   3.909   0.383   2.065
 1779SOL    HW217217   3.999   0.461   2.158
 1780SOL     OW17218   2.414   4.400   1.493
 1780SOL    HW117219   2.346   4.434   1.435
 1780SOL    HW217220   2.418   4.464   1.565
 1781SOL     OW17221   3.975   3.854  19.386
 1781SOL    HW117222   3.975   3.865  19.481
 1781SOL    HW217223   3.883   3.838  19.363
 1782SOL     OW17224   2.401   1.208   1.049
 1782SOL    HW117225   2.343   1.206   0.973
 1782SOL    HW217226   2.354   1.158   1.116
 1783SOL     OW17227   4.761   4.719   2.625
 1783SOL    HW117228   4.681   4.673   2.651
 1783SOL    HW217229   4.729   0.006   2.584
 1784SOL     OW17230   4.448   1.263  21.117
 1784SOL    HW117231   4.518   1.258  21.182
 1784SOL    HW217232   4.493   1.280  21.035
 1785SOL     OW17233   3.081   1.275  16.293
 1785SOL    HW117234   3.033   1.192  16.294
 1785SOL    HW217235   3.117   1.282  16.381
 1786SOL     OW17236   0.755   2.452   8.253
 1786SOL    HW117237   0.834   2.410   8.286
 1786SOL    HW217238   0.703   2.381   8.215
 1787SOL     OW17239   0.074   1.750  17.893
 1787SOL    HW117240   0.065   1.839  17.927
 1787SOL    HW217241   0.139   1.709  17.950
 1788SOL     OW17242   3.884   1.735   9.311
 1788SOL    HW117243   3.946   1.721   9.239
 1788SOL    HW217244   3.910   1.671   9.378
 1789SOL     OW17245   1.428   0.165   7.215
 1789SOL    HW117246   1.468   0.100   7.157
 1789SOL    HW217247   1.373   0.113   7.274
 1790SOL     OW17248   0.853   4.444  13.852
 1790SOL    HW117249   0.892   4.432  13.765
 1790SOL    HW217250   0.763   4.472  13.834
 1791SOL     OW17251   0.235   2.510   6.914
 1791SOL    HW117252   0.312   2.459   6.890
 1791SOL    HW217253   0.223   2.494   7.008
 1792SOL     OW17254   4.727   1.871   9.117
 1792SOL    HW117255   4.734   1.885   9.212
 1792SOL    HW217256   4.773   1.945   9.078
 1793SOL     OW17257   1.441   3.490   4.829
 1793SOL    HW117258   1.405   3.527   4.910
 1793SOL    HW217259   1.369   3.440   4.791
 1794SOL     OW17260   2.401   1.966   5.482
 1794SOL    HW117261   2.486   1.925   5.493
 1794SOL    HW217262   2.341   1.913   5.534
 1795SOL     OW17263   2.964   0.076   8.035
 1795SOL    HW117264   3.010   0.154   8.002
 1795SOL    HW217265   3.009   0.055   8.117
 1796SOL     OW17266   0.554   2.260  10.607
 1796SOL    HW117267   0.648   2.240  10.601
 1796SOL    HW217268   0.544   2.303  10.691
 1797SOL     OW17269   3.024   2.086   8.168
 1797SOL    HW117270   3.045   2.122   8.081
 1797SOL    HW217271   3.073   2.141   8.229
 1798SOL     OW17272   4.040   0.985  16.119
 1798SOL    HW117273   4.118   1.032  16.149
 1798SOL    HW217274   3.972   1.052  16.114
 1799SOL     OW17275   0.367   0.997   9.101
 1799SOL    HW117276   0.416   0.980   9.021
 1799SOL    HW217277   0.275   0.982   9.077
 1800SOL     OW17278   0.019   3.403   9.096
 1800SOL    HW117279   0.071   3.458   9.154
 1800SOL    HW217280   0.073   3.393   9.017
 1801SOL     OW17281   0.432   2.373   9.472
 1801SOL    HW117282   0.470   2.357   9.385
 1801SOL    HW217283   0.430   2.468   9.480
 1802SOL     OW17284   0.306   2.523   7.557
 1802SOL    HW117285   0.279   2.431   7.565
 1802SOL    HW217286   0.355   2.526   7.475
 1803SOL     OW17287   0.392   2.637   9.405
 1803SOL    HW117288   0.309   2.666   9.443
 1803SOL    HW217289   0.399   2.686   9.323
 1804SOL     OW17290   2.372   2.616   8.449
 1804SOL    HW117291   2.363   2.647   8.359
 1804SOL    HW217292   2.445   2.554   8.447
 1805SOL     OW17293   4.344   0.029  14.930
 1805SOL    HW117294   4.314   0.043  15.020
 1805SOL    HW217295   4.265   0.040  14.877
 1806SOL     OW17296   0.299   4.627   8.749
 1806SOL    HW117297   0.337   4.645   8.663
 1806SOL    HW217298   0.342   4.546   8.777
 1807SOL     OW17299   3.101   0.659   9.105
 1807SOL    HW117300   3.057   0.683   9.024
 1807SOL    HW217301   3.067   0.572   9.126
 1808SOL     OW17302   4.144   1.735   6.708
 1808SOL    HW117303   4.085   1.808   6.689
 1808SOL    HW217304   4.229   1.776   6.724
 1809SOL     OW17305   3.788   4.105  14.063
 1809SOL    HW117306   3.725   4.167  14.026
 1809SOL    HW217307   3.735   4.039  14.107
 1810SOL     OW17308   4.535   3.312   9.928
 1810SOL    HW117309   4.517   3.291   9.836
 1810SOL    HW217310   4.567   3.402   9.925
 1811SOL     OW17311   4.505   0.910   9.496
 1811SOL    HW117312   4.424   0.960   9.504
 1811SOL    HW217313   4.484   0.824   9.533
 1812SOL     OW17314   3.733   1.442   1.795
 1812SOL    HW117315   3.718   1.387   1.872
 1812SOL    HW217316   3.648   1.482   1.777
 1813SOL     OW17317   2.855   3.916   9.982
 1813SOL    HW117318   2.904   3.950   9.907
 1813SOL    HW217319   2.791   3.856   9.944
 1814SOL     OW17320   3.476   3.546   8.863
 1814SOL    HW117321   3.564   3.555   8.900
 1814SOL    HW217322   3.467   3.620   8.804
 1815SOL     OW17323   1.851   2.585   5.749
 1815SOL    HW117324   1.923   2.551   5.697
 1815SOL    HW217325   1.875   2.675   5.769
 1816SOL     OW17326   0.742   2.364  10.365
 1816SOL    HW117327   0.664   2.387  10.415
 1816SOL    HW217328   0.777   2.287  10.410
 1817SOL     OW17329   3.639   2.380  10.696
 1817SOL    HW117330   3.654   2.462  10.743
 1817SOL    HW217331   3.722   2.362  10.653
 1818SOL     OW17332   4.205   2.037  10.362
 1818SOL    HW117333   4.298   2.057  10.350
 1818SOL    HW217334   4.190   1.960  10.308
 1819SOL     OW17335   2.262   4.106  11.205
 1819SOL    HW117336   2.242   4.017  11.176
 1819SOL    HW217337   2.191   4.159  11.168
 1820SOL     OW17338   3.610   2.807  10.187
 1820SOL    HW117339   3.608   2.765  10.101
 1820SOL    HW217340   3.564   2.746  10.245
 1821SOL     OW17341   4.355   1.042  11.778
 1821SOL    HW117342   4.410   0.983  11.726
 1821SOL    HW217343   4.268   1.036  11.738
 1822SOL     OW17344   3.506   2.189  10.884
 1822SOL    HW117345   3.541   2.267  10.841
 1822SOL    HW217346   3.441   2.155  10.822
 1823SOL     OW17347   3.312   1.726  11.306
 1823SOL    HW117348   3.375   1.660  11.276
 1823SOL    HW217349   3.248   1.677  11.357
 1824SOL     OW17350   3.728   2.273   9.831
 1824SOL    HW117351   3.663   2.243   9.893
 1824SOL    HW217352   3.751   2.361   9.861
 1825SOL     OW17353   4.621   3.143  10.111
 1825SOL    HW117354   4.644   3.061  10.068
 1825SOL    HW217355   4.582   3.196  10.042
 1826SOL     OW17356   3.993   0.389   9.098
 1826SOL    HW117357   3.915   0.428   9.059
 1826SOL    HW217358   4.065   0.442   9.065
 1827SOL     OW17359   4.090   1.755  10.466
 1827SOL    HW117360   4.160   1.759  10.401
 1827SOL    HW217361   4.010   1.771  10.417
 1828SOL     OW17362   4.505   3.950  11.305
 1828SOL    HW117363   4.477   4.033  11.267
 1828SOL    HW217364   4.438   3.929  11.370
 1829SOL     OW17365   3.022   1.984   9.996
 1829SOL    HW117366   3.064   1.923  10.056
 1829SOL    HW217367   3.021   1.939   9.912
 1830SOL     OW17368   3.369   1.301  10.832
 1830SOL    HW117369   3.399   1.349  10.909
 1830SOL    HW217370   3.420   1.219  10.834
 1831SOL     OW17371   0.001   1.526  13.551
 1831SOL    HW117372   4.700   1.515  13.551
 1831SOL    HW217373   0.035   1.437  13.548
 1832SOL     OW17374   3.456   0.921  13.090
 1832SOL    HW117375   3.406   0.923  13.172
 1832SOL    HW217376   3.533   0.869  13.110
 1833SOL     OW17377   2.118   0.933  11.643
 1833SOL    HW117378   2.083   0.995  11.707
 1833SOL    HW217379   2.043   0.910  11.589
 1834SOL     OW17380   3.527   2.514   9.798
 1834SOL    HW117381   3.489   2.547   9.717
 1834SOL    HW217382   3.522   2.419   9.790
 1835SOL     OW17383   3.310   1.884  11.086
 1835SOL    HW117384   3.224   1.906  11.051
 1835SOL    HW217385   3.294   1.820  11.154
 1836SOL     OW17386   0.491   1.410  12.191
 1836SOL    HW117387   0.562   1.446  12.138
 1836SOL    HW217388   0.413   1.457  12.163
 1837SOL     OW17389   0.063   1.143  12.395
 1837SOL    HW117390   0.129   1.152  12.326
 1837SOL    HW217391   4.793   1.211  12.377
 1838SOL     OW17392   4.733   1.648  12.007
 1838SOL    HW117393   4.791   1.594  12.061
 1838SOL    HW217394   4.791   1.687  11.942
 1839SOL     OW17395   3.010   1.954  11.607
 1839SOL    HW117396   3.082   2.007  11.572
 1839SOL    HW217397   3.046   1.866  11.612
 1840SOL     OW17398   4.768   2.586  12.021
 1840SOL    HW117399   4.760   2.502  12.066
 1840SOL    HW217400   4.793   2.648  12.090
 1841SOL     OW17401   3.875   1.914  12.649
 1841SOL    HW117402   3.849   1.931  12.558
 1841SOL    HW217403   3.949   1.854  12.641
 1842SOL     OW17404   3.881   1.072  10.081
 1842SOL    HW117405   3.819   1.075  10.009
 1842SOL    HW217406   3.828   1.051  10.158
 1843SOL     OW17407   4.255   0.735  11.960
 1843SOL    HW117408   4.349   0.722  11.944
 1843SOL    HW217409   4.217   0.748  11.874
 1844SOL     OW17410   3.705   2.038  10.162
 1844SOL    HW117411   3.695   2.125  10.123
 1844SOL    HW217412   3.658   2.044  10.245
 1845SOL     OW17413   3.003   1.520  12.329
 1845SOL    HW117414   3.078   1.569  12.296
 1845SOL    HW217415   3.032   1.429  12.331
 1846SOL     OW17416   2.777   1.492  12.476
 1846SOL    HW117417   2.867   1.505  12.447
 1846SOL    HW217418   2.730   1.568  12.441
 1847SOL     OW17419   4.094   3.388  11.644
 1847SOL    HW117420   4.176   3.373  11.691
 1847SOL    HW217421   4.053   3.301  11.639
 1848SOL     OW17422   4.590   2.168  12.914
 1848SOL    HW117423   4.662   2.127  12.961
 1848SOL    HW217424   4.528   2.193  12.983
 1849SOL     OW17425   3.731   2.395  11.315
 1849SOL    HW117426   3.759   2.304  11.325
 1849SOL    HW217427   3.719   2.426  11.405
 1850SOL     OW17428   3.837   1.207  10.481
 1850SOL    HW117429   3.861   1.220  10.573
 1850SOL    HW217430   3.917   1.228  10.433
 1851SOL     OW17431   4.411   2.068  11.299
 1851SOL    HW117432   4.434   2.136  11.236
 1851SOL    HW217433   4.336   2.023  11.260
 1852SOL     OW17434   4.128   1.412  11.751
 1852SOL    HW117435   4.193   1.389  11.817
 1852SOL    HW217436   4.045   1.412  11.799
 1853SOL     OW17437   3.949   1.031  18.237
 1853SOL    HW117438   3.862   1.050  18.203
 1853SOL    HW217439   3.994   0.986  18.165
 1854SOL     OW17440   4.522   4.758   3.400
 1854SOL    HW117441   4.580   0.038   3.384
 1854SOL    HW217442   4.458   4.761   3.329
 1855SOL     OW17443   4.249   1.948  12.082
 1855SOL    HW117444   4.215   1.891  12.152
 1855SOL    HW217445   4.337   1.916  12.065
 1856SOL     OW17446   4.073   3.434   0.343
 1856SOL    HW117447   4.137   3.403   0.406
 1856SOL    HW217448   4.116   3.423   0.258
 1857SOL     OW17449   0.263   2.730  16.971
 1857SOL    HW117450   0.225   2.745  17.058
 1857SOL    HW217451   0.261   2.816  16.929
 1858SOL     OW17452   2.343   1.639   0.842
 1858SOL    HW117453   2.266   1.696   0.846
 1858SOL    HW217454   2.341   1.601   0.755
 1859SOL     OW17455   1.702   3.890   6.441
 1859SOL    HW117456   1.673   3.978   6.419
 1859SOL    HW217457   1.622   3.841   6.457
 1860SOL     OW17458   2.116   1.860   3.218
 1860SOL    HW117459   2.104   1.889   3.309
 1860SOL    HW217460   2.148   1.938   3.173
 1861SOL     OW17461   1.957   0.627  18.282
 1861SOL    HW117462   1.917   0.706  18.318
 1861SOL    HW217463   1.897   0.556  18.305
 1862SOL     OW17464   1.248   0.310  19.386
 1862SOL    HW117465   1.318   0.249  19.365
 1862SOL    HW217466   1.226   0.291  19.477
 1863SOL     OW17467   2.090   1.222  16.325
 1863SOL    HW117468   2.080   1.164  16.250
 1863SOL    HW217469   2.046   1.303  16.299
 1864SOL     OW17470   0.660   3.194   6.752
 1864SOL    HW117471   0.584   3.224   6.701
 1864SOL    HW217472   0.727   3.262   6.737
 1865SOL     OW17473   3.735   3.803   5.790
 1865SOL    HW117474   3.645   3.774   5.771
 1865SOL    HW217475   3.775   3.729   5.836
 1866SOL     OW17476   0.273   3.386   5.413
 1866SOL    HW117477   0.339   3.354   5.351
 1866SOL    HW217478   0.308   3.470   5.443
 1867SOL     OW17479   4.152   2.511  18.474
 1867SOL    HW117480   4.177   2.463  18.395
 1867SOL    HW217481   4.235   2.532  18.516
 1868SOL     OW17482   3.584   2.233  13.082
 1868SOL    HW117483   3.640   2.202  13.011
 1868SOL    HW217484   3.522   2.161  13.098
 1869SOL     OW17485   3.411   4.368  15.495
 1869SOL    HW117486   3.434   4.312  15.421
 1869SOL    HW217487   3.492   4.376  15.545
 1870SOL     OW17488   1.348   0.531   3.344
 1870SOL    HW117489   1.319   0.591   3.413
 1870SOL    HW217490   1.268   0.487   3.315
 1871SOL     OW17491   3.574   2.537   1.947
 1871SOL    HW117492   3.656   2.491   1.928
 1871SOL    HW217493   3.520   2.524   1.869
 1872SOL     OW17494   1.365   0.836  12.547
 1872SOL    HW117495   1.341   0.828  12.639
 1872SOL    HW217496   1.306   0.904  12.512
 1873SOL     OW17497   4.242   4.784  17.779
 1873SOL    HW117498   4.232   0.082  17.754
 1873SOL    HW217499   4.304   4.785  17.852
 1874SOL     OW17500   2.732   2.088  17.403
 1874SOL    HW117501   2.814   2.128  17.431
 1874SOL    HW217502   2.751   2.055  17.314
 1875SOL     OW17503   4.653   1.767  13.466
 1875SOL    HW117504   4.577   1.710  13.457
 1875SOL    HW217505   4.726   1.706  13.484
 1876SOL     OW17506   1.531   2.219  19.051
 1876SOL    HW117507   1.505   2.167  18.975
 1876SOL    HW217508   1.450   2.263  19.078
 1877SOL     OW17509   4.682   4.287   4.444
 1877SOL    HW117510   4.755   4.271   4.505
 1877SOL    HW217511   4.702   4.233   4.368
 1878SOL     OW17512   1.590   0.365   4.492
 1878SOL    HW117513   1.570   0.457   4.508
 1878SOL    HW217514   1.537   0.317   4.555
 1879SOL     OW17515   2.791   0.166   2.005
 1879SOL    HW117516   2.877   0.151   1.966
 1879SOL    HW217517   2.768   0.083   2.046
 1880SOL     OW17518   0.082   2.723  13.684
 1880SOL    HW117519   0.152   2.658  13.689
 1880SOL    HW217520   0.080   2.748  13.591
 1881SOL     OW17521   0.400   1.455  11.852
 1881SOL    HW117522   0.323   1.397  11.853
 1881SOL    HW217523   0.387   1.513  11.927
 1882SOL     OW17524   1.186   2.108   3.328
 1882SOL    HW117525   1.153   2.194   3.305
 1882SOL    HW217526   1.273   2.125   3.365
 1883SOL     OW17527   1.618   3.034   5.473
 1883SOL    HW117528   1.660   2.965   5.524
 1883SOL    HW217529   1.645   3.018   5.383
 1884SOL     OW17530   2.124   1.368   4.537
 1884SOL    HW117531   2.116   1.464   4.535
 1884SOL    HW217532   2.066   1.337   4.468
 1885SOL     OW17533   4.114   3.512  17.853
 1885SOL    HW117534   4.155   3.426  17.848
 1885SOL    HW217535   4.061   3.509  17.932
 1886SOL     OW17536   1.798   3.247   2.306
 1886SOL    HW117537   1.714   3.200   2.311
 1886SOL    HW217538   1.863   3.179   2.287
 1887SOL     OW17539   4.765   3.342   5.112
 1887SOL    HW117540   0.022   3.265   5.086
 1887SOL    HW217541   4.764   3.397   5.033
 1888SOL     OW17542   3.198   4.457  17.122
 1888SOL    HW117543   3.165   4.512  17.051
 1888SOL    HW217544   3.215   4.518  17.194
 1889SOL     OW17545   1.709   0.676   2.887
 1889SOL    HW117546   1.731   0.734   2.960
 1889SOL    HW217547   1.613   0.678   2.883
 1890SOL     OW17548   3.932   1.578  16.406
 1890SOL    HW117549   3.902   1.581  16.315
 1890SOL    HW217550   3.959   1.487  16.419
 1891SOL     OW17551   4.165   1.659  14.222
 1891SOL    HW117552   4.221   1.585  14.200
 1891SOL    HW217553   4.152   1.705  14.139
 1892SOL     OW17554   4.702   0.059   6.920
 1892SOL    HW117555   4.789   0.096   6.934
 1892SOL    HW217556   4.686   0.003   6.997
 1893SOL     OW17557   2.351   4.389  13.728
 1893SOL    HW117558   2.446   4.388  13.713
 1893SOL    HW217559   2.319   4.462  13.676
 1894SOL     OW17560   2.787   0.217  18.020
 1894SOL    HW117561   2.721   0.280  17.991
 1894SOL    HW217562   2.776   0.211  18.115
 1895SOL     OW17563   3.575   1.086  18.904
 1895SOL    HW117564   3.579   1.171  18.949
 1895SOL    HW217565   3.488   1.086  18.863
 1896SOL     OW17566   1.831   3.479  20.549
 1896SOL    HW117567   1.745   3.478  20.505
 1896SOL    HW217568   1.877   3.404  20.512
 1897SOL     OW17569   1.211   4.156   4.581
 1897SOL    HW117570   1.298   4.154   4.619
 1897SOL    HW217571   1.152   4.166   4.656
 1898SOL     OW17572   1.362   0.513   2.154
 1898SOL    HW117573   1.267   0.500   2.156
 1898SOL    HW217574   1.375   0.603   2.185
 1899SOL     OW17575   3.033   1.113  15.865
 1899SOL    HW117576   2.960   1.053  15.847
 1899SOL    HW217577   3.000   1.199  15.837
 1900SOL     OW17578   0.302   4.096   3.833
 1900SOL    HW117579   0.382   4.144   3.854
 1900SOL    HW217580   0.254   4.090   3.916
 1901SOL     OW17581   4.145   4.503   1.392
 1901SOL    HW117582   4.154   4.597   1.376
 1901SOL    HW217583   4.137   4.495   1.487
 1902SOL     OW17584   1.518   2.573  19.681
 1902SOL    HW117585   1.426   2.594  19.666
 1902SOL    HW217586   1.516   2.491  19.732
 1903SOL     OW17587   0.093   0.332   6.725
 1903SOL    HW117588   4.791   0.325   6.724
 1903SOL    HW217589   0.120   0.299   6.639
 1904SOL     OW17590   1.757   3.679  15.929
 1904SOL    HW117591   1.791   3.707  16.014
 1904SOL    HW217592   1.666   3.710  15.928
 1905SOL     OW17593   1.602   3.240  20.227
 1905SOL    HW117594   1.525   3.204  20.182
 1905SOL    HW217595   1.608   3.190  20.309
 1906SOL     OW17596   2.556   4.064  18.938
 1906SOL    HW117597   2.580   4.075  18.846
 1906SOL    HW217598   2.604   3.986  18.966
 1907SOL     OW17599   0.649   1.676   5.931
 1907SOL    HW117600   0.708   1.713   5.866
 1907SOL    HW217601   0.598   1.611   5.884
 1908SOL     OW17602   2.376   1.205  16.239
 1908SOL    HW117603   2.380   1.231  16.148
 1908SOL    HW217604   2.302   1.255  16.275
 1909SOL     OW17605   4.708   1.824  18.238
 1909SOL    HW117606   4.663   1.828  18.154
 1909SOL    HW217607   4.723   1.731  18.254
 1910SOL     OW17608   2.952   2.222  17.474
 1910SOL    HW117609   3.006   2.161  17.424
 1910SOL    HW217610   3.012   2.258  17.540
 1911SOL     OW17611   0.066   4.787  13.925
 1911SOL    HW117612   0.097   0.075  13.962
 1911SOL    HW217613   0.129   4.766  13.857
 1912SOL     OW17614   2.552   2.731   0.275
 1912SOL    HW117615   2.580   2.738   0.366
 1912SOL    HW217616   2.487   2.660   0.275
 1913SOL     OW17617   1.010   0.310  15.736
 1913SOL    HW117618   1.050   0.378  15.792
 1913SOL    HW217619   0.983   0.242  15.798
 1914SOL     OW17620   4.254   4.426  20.278
 1914SOL    HW117621   4.257   4.332  20.261
 1914SOL    HW217622   4.346   4.453  20.281
 1915SOL     OW17623   1.982   3.536  17.168
 1915SOL    HW117624   1.897   3.494  17.183
 1915SOL    HW217625   2.034   3.468  17.125
 1916SOL     OW17626   4.679   2.453  19.508
 1916SOL    HW117627   4.715   2.526  19.458
 1916SOL    HW217628   4.693   2.377  19.453
 1917SOL     OW17629   2.092   3.976   5.967
 1917SOL    HW117630   2.093   3.977   6.063
 1917SOL    HW217631   2.005   3.942   5.945
 1918SOL     OW17632   2.403   2.895  20.958
 1918SOL    HW117633   2.339   2.838  20.915
 1918SOL    HW217634   2.477   2.838  20.977
 1919SOL     OW17635   0.695   1.122  16.118
 1919SOL    HW117636   0.700   1.039  16.164
 1919SOL    HW217637   0.756   1.180  16.164
 1920SOL     OW17638   4.723   0.347   7.288
 1920SOL    HW117639   4.713   0.264   7.334
 1920SOL    HW217640   4.736   0.412   7.358
 1921SOL     OW17641   1.567   1.608   3.170
 1921SOL    HW117642   1.654   1.640   3.196
 1921SOL    HW217643   1.511   1.686   3.175
 1922SOL     OW17644   2.762   4.088   5.599
 1922SOL    HW117645   2.742   4.159   5.660
 1922SOL    HW217646   2.783   4.131   5.517
 1923SOL     OW17647   2.924   0.697  16.372
 1923SOL    HW117648   2.922   0.604  16.397
 1923SOL    HW217649   2.999   0.733  16.421
 1924SOL     OW17650   2.205   4.787  17.588
 1924SOL    HW117651   2.175   4.732  17.661
 1924SOL    HW217652   2.170   0.080  17.608
 1925SOL     OW17653   2.646   0.026   4.233
 1925SOL    HW117654   2.709   4.748   4.238
 1925SOL    HW217655   2.699   0.105   4.230
 1926SOL     OW17656   2.361   3.867  13.045
 1926SOL    HW117657   2.378   3.818  13.126
 1926SOL    HW217658   2.443   3.858  12.995
 1927SOL     OW17659   4.513   2.866   1.498
 1927SOL    HW117660   4.477   2.798   1.555
 1927SOL    HW217661   4.568   2.919   1.557
 1928SOL     OW17662   1.680   0.075  15.169
 1928SOL    HW117663   1.760   0.123  15.192
 1928SOL    HW217664   1.694   0.047  15.078
 1929SOL     OW17665   1.772   0.427   0.786
 1929SOL    HW117666   1.761   0.342   0.828
 1929SOL    HW217667   1.843   0.468   0.835
 1930SOL     OW17668   3.561   3.331  15.631
 1930SOL    HW117669   3.539   3.346  15.723
 1930SOL    HW217670   3.479   3.302  15.591
 1931SOL     OW17671   2.347   4.201  17.012
 1931SOL    HW117672   2.294   4.216  16.934
 1931SOL    HW217673   2.283   4.186  17.082
 1932SOL     OW17674   0.641   0.341   2.213
 1932SOL    HW117675   0.580   0.279   2.173
 1932SOL    HW217676   0.617   0.426   2.175
 1933SOL     OW17677   3.076   3.577  16.158
 1933SOL    HW117678   3.098   3.596  16.249
 1933SOL    HW217679   2.990   3.617  16.145
 1934SOL     OW17680   3.994   0.702   0.881
 1934SOL    HW117681   4.037   0.684   0.797
 1934SOL    HW217682   3.901   0.703   0.861
 1935SOL     OW17683   0.230   2.395   2.033
 1935SOL    HW117684   0.218   2.352   2.118
 1935SOL    HW217685   0.296   2.341   1.989
 1936SOL     OW17686   2.704   2.314   1.757
 1936SOL    HW117687   2.648   2.377   1.711
 1936SOL    HW217688   2.650   2.236   1.769
 1937SOL     OW17689   0.938   3.516  19.858
 1937SOL    HW117690   0.933   3.420  19.854
 1937SOL    HW217691   0.849   3.545  19.835
 1938SOL     OW17692   4.336   1.357  15.664
 1938SOL    HW117693   4.281   1.424  15.704
 1938SOL    HW217694   4.347   1.291  15.732
 1939SOL     OW17695   4.109   2.178   6.074
 1939SOL    HW117696   4.044   2.186   6.004
 1939SOL    HW217697   4.173   2.247   6.055
 1940SOL     OW17698   4.792   2.684  19.394
 1940SOL    HW117699   0.000   2.780  19.394
 1940SOL    HW217700   0.010   2.659  19.303
 1941SOL     OW17701   0.915   3.106   0.727
 1941SOL    HW117702   0.867   3.092   0.645
 1941SOL    HW217703   0.863   3.172   0.774
 1942SOL     OW17704   4.623   1.147   0.982
 1942SOL    HW117705   4.686   1.079   1.004
 1942SOL    HW217706   4.665   1.198   0.913
 1943SOL     OW17707   4.722   3.902   0.007
 1943SOL    HW117708   0.016   3.874  21.256
 1943SOL    HW217709   4.731   3.919   0.101
 1944SOL     OW17710   3.115   2.583   3.009
 1944SOL    HW117711   3.107   2.678   3.010
 1944SOL    HW217712   3.197   2.567   2.962
 1945SOL     OW17713   4.165   4.218   5.524
 1945SOL    HW117714   4.245   4.181   5.488
 1945SOL    HW217715   4.163   4.308   5.491
 1946SOL     OW17716   2.643   0.738   4.930
 1946SOL    HW117717   2.710   0.727   4.863
 1946SOL    HW217718   2.684   0.792   4.997
 1947SOL     OW17719   2.591   1.723  20.980
 1947SOL    HW117720   2.577   1.801  20.926
 1947SOL    HW217721   2.615   1.758  21.066
 1948SOL     OW17722   2.177   3.841   8.649
 1948SOL    HW117723   2.087   3.856   8.677
 1948SOL    HW217724   2.229   3.842   8.729
 1949SOL     OW17725   1.800   0.045  20.895
 1949SOL    HW117726   1.790   0.140  20.898
 1949SOL    HW217727   1.858   0.029  20.821
 1950SOL     OW17728   3.690   2.776  16.531
 1950SOL    HW117729   3.658   2.844  16.590
 1950SOL    HW217730   3.620   2.767  16.466
 1951SOL     OW17731   0.105   0.037  15.230
 1951SOL    HW117732   0.146   0.123  15.225
 1951SOL    HW217733   0.011   0.054  15.221
 1952SOL     OW17734   3.376   3.658   4.318
 1952SOL    HW117735   3.422   3.646   4.401
 1952SOL    HW217736   3.325   3.578   4.308
 1953SOL     OW17737   0.301   1.970  15.207
 1953SOL    HW117738   0.303   2.060  15.238
 1953SOL    HW217739   0.278   1.977  15.115
 1954SOL     OW17740   0.678   3.524  20.675
 1954SOL    HW117741   0.589   3.553  20.695
 1954SOL    HW217742   0.674   3.428  20.680
 1955SOL     OW17743   4.404   2.779   2.604
 1955SOL    HW117744   4.393   2.874   2.603
 1955SOL    HW217745   4.387   2.751   2.514
 1956SOL     OW17746   0.663   0.691   5.651
 1956SOL    HW117747   0.610   0.645   5.587
 1956SOL    HW217748   0.730   0.628   5.677
 1957SOL     OW17749   1.575   3.436  18.617
 1957SOL    HW117750   1.529   3.370  18.565
 1957SOL    HW217751   1.526   3.439  18.700
 1958SOL     OW17752   3.918   4.132  19.577
 1958SOL    HW117753   3.980   4.137  19.505
 1958SOL    HW217754   3.895   4.223  19.596
 1959SOL     OW17755   3.664   1.295   4.727
 1959SOL    HW117756   3.657   1.379   4.682
 1959SOL    HW217757   3.678   1.231   4.657
 1960SOL     OW17758   2.631   4.428   2.555
 1960SOL    HW117759   2.613   4.416   2.648
 1960SOL    HW217760   2.555   4.389   2.511
 1961SOL     OW17761   3.280   4.759  14.702
 1961SOL    HW117762   3.373   4.754  14.679
 1961SOL    HW217763   3.246   4.672  14.682
 1962SOL     OW17764   0.501   1.375   5.438
 1962SOL    HW117765   0.544   1.387   5.353
 1962SOL    HW217766   0.559   1.418   5.501
 1963SOL     OW17767   2.820   4.341   5.070
 1963SOL    HW117768   2.736   4.372   5.036
 1963SOL    HW217769   2.873   4.420   5.079
 1964SOL     OW17770   2.026   4.255  18.191
 1964SOL    HW117771   2.038   4.198  18.115
 1964SOL    HW217772   1.961   4.319  18.162
 1965SOL     OW17773   0.335   2.357   0.536
 1965SOL    HW117774   0.356   2.426   0.600
 1965SOL    HW217775   0.407   2.295   0.543
 1966SOL     OW17776   1.193   4.745  15.357
 1966SOL    HW117777   1.174   4.654  15.331
 1966SOL    HW217778   1.280   4.741  15.395
 1967SOL     OW17779   1.057   3.310   2.531
 1967SOL    HW117780   1.138   3.322   2.580
 1967SOL    HW217781   0.988   3.317   2.596
 1968SOL     OW17782   1.194   2.034  16.427
 1968SOL    HW117783   1.255   2.070  16.493
 1968SOL    HW217784   1.198   2.097  16.355
 1969SOL     OW17785   2.871   3.444  20.892
 1969SOL    HW117786   2.824   3.490  20.962
 1969SOL    HW217787   2.857   3.351  20.910
 1970SOL     OW17788   3.867   3.027  19.094
 1970SOL    HW117789   3.835   3.022  19.184
 1970SOL    HW217790   3.933   3.096  19.096
 1971SOL     OW17791   0.351   2.585   0.691
 1971SOL    HW117792   0.312   2.666   0.658
 1971SOL    HW217793   0.387   2.609   0.777
 1972SOL     OW17794   4.192   2.495   3.799
 1972SOL    HW117795   4.123   2.480   3.863
 1972SOL    HW217796   4.172   2.581   3.761
 1973SOL     OW17797   3.195   4.571  16.496
 1973SOL    HW117798   3.284   4.553  16.526
 1973SOL    HW217799   3.197   4.553  16.402
 1974SOL     OW17800   4.207   1.971  15.681
 1974SOL    HW117801   4.234   2.060  15.661
 1974SOL    HW217802   4.246   1.918  15.611
 1975SOL     OW17803   0.288   2.732   4.494
 1975SOL    HW117804   0.311   2.666   4.559
 1975SOL    HW217805   0.200   2.709   4.465
 1976SOL     OW17806   1.578   1.601  18.219
 1976SOL    HW117807   1.607   1.676  18.168
 1976SOL    HW217808   1.547   1.638  18.302
 1977SOL     OW17809   4.145   1.582  18.227
 1977SOL    HW117810   4.159   1.527  18.304
 1977SOL    HW217811   4.232   1.613  18.202
 1978SOL     OW17812   2.726   0.928   4.709
 1978SOL    HW117813   2.730   1.019   4.680
 1978SOL    HW217814   2.750   0.931   4.801
 1979SOL     OW17815   1.982   1.337  20.187
 1979SOL    HW117816   2.010   1.248  20.167
 1979SOL    HW217817   2.063   1.388  20.194
 1980SOL     OW17818   3.550   0.892  16.884
 1980SOL    HW117819   3.532   0.979  16.920
 1980SOL    HW217820   3.608   0.909  16.810
 1981SOL     OW17821   4.667   3.877  19.744
 1981SOL    HW117822   4.683   3.809  19.809
 1981SOL    HW217823   4.754   3.897  19.708
 1982SOL     OW17824   2.066   1.453   0.055
 1982SOL    HW117825   2.059   1.381   0.118
 1982SOL    HW217826   2.008   1.427  21.260
 1983SOL     OW17827   4.047   1.728   2.274
 1983SOL    HW117828   4.083   1.814   2.251
 1983SOL    HW217829   3.990   1.746   2.349
 1984SOL     OW17830   1.086   1.611  20.120
 1984SOL    HW117831   1.026   1.650  20.056
 1984SOL    HW217832   1.029   1.577  20.189
 1985SOL     OW17833   0.830   0.387   0.947
 1985SOL    HW117834   0.738   0.395   0.971
 1985SOL    HW217835   0.840   0.445   0.872
 1986SOL     OW17836   4.774   1.635  17.079
 1986SOL    HW117837   0.030   1.625  17.160
 1986SOL    HW217838   4.735   1.722  17.086
 1987SOL     OW17839   3.755   2.649  13.402
 1987SOL    HW117840   3.827   2.587  13.386
 1987SOL    HW217841   3.726   2.675  13.314
 1988SOL     OW17842   3.802   3.584   5.940
 1988SOL    HW117843   3.854   3.579   6.021
 1988SOL    HW217844   3.721   3.538   5.961
 1989SOL     OW17845   2.751   1.336  14.672
 1989SOL    HW117846   2.784   1.406  14.729
 1989SOL    HW217847   2.829   1.305  14.625
 1990SOL     OW17848   2.482   0.267  21.235
 1990SOL    HW117849   2.474   0.281  21.141
 1990SOL    HW217850   2.536   0.341  21.265
 1991SOL     OW17851   4.289   4.653  15.855
 1991SOL    HW117852   4.255   4.625  15.940
 1991SOL    HW217853   4.354   4.587  15.831
 1992SOL     OW17854   0.987   3.389   5.554
 1992SOL    HW117855   0.987   3.318   5.618
 1992SOL    HW217856   0.951   3.464   5.601
 1993SOL     OW17857   1.331   0.305   4.613
 1993SOL    HW117858   1.331   0.219   4.655
 1993SOL    HW217859   1.335   0.368   4.685
 1994SOL     OW17860   1.530   4.283   6.591
 1994SOL    HW117861   1.580   4.364   6.606
 1994SOL    HW217862   1.444   4.301   6.630
 1995SOL     OW17863   3.572   0.978   2.101
 1995SOL    HW117864   3.532   1.016   2.179
 1995SOL    HW217865   3.654   0.939   2.132
 1996SOL     OW17866   0.002   0.206  12.704
 1996SOL    HW117867   0.084   0.185  12.749
 1996SOL    HW217868   4.776   0.128  12.652
 1997SOL     OW17869   1.446   2.211  20.711
 1997SOL    HW117870   1.467   2.297  20.676
 1997SOL    HW217871   1.430   2.226  20.804
 1998SOL     OW17872   1.381   0.741   1.606
 1998SOL    HW117873   1.349   0.786   1.528
 1998SOL    HW217874   1.396   0.651   1.578
 1999SOL     OW17875   2.966   1.029  16.344
 1999SOL    HW117876   2.953   0.943  16.382
 1999SOL    HW217877   2.932   1.090  16.409
 2000SOL     OW17878   0.217   1.869  18.401
 2000SOL    HW117879   0.270   1.790  18.388
 2000SOL    HW217880   0.142   1.840  18.452
 2001SOL     OW17881   1.851   3.320  20.198
 2001SOL    HW117882   1.859   3.305  20.104
 2001SOL    HW217883   1.765   3.284  20.221
 2002SOL     OW17884   2.095   1.458   6.379
 2002SOL    HW117885   2.027   1.395   6.404
 2002SOL    HW217886   2.058   1.543   6.398
 2003SOL     OW17887   3.111   4.708  17.026
 2003SOL    HW117888   3.146   4.740  17.110
 2003SOL    HW217889   3.104   4.786  16.972
 2004SOL     OW17890   0.043   3.536   2.846
 2004SOL    HW117891   0.109   3.467   2.836
 2004SOL    HW217892   4.771   3.515   2.780
 2005SOL     OW17893   1.311   2.139   5.863
 2005SOL    HW117894   1.356   2.216   5.897
 2005SOL    HW217895   1.375   2.068   5.872
 2006SOL     OW17896   2.683   2.683   3.715
 2006SOL    HW117897   2.743   2.611   3.735
 2006SOL    HW217898   2.596   2.650   3.736
 2007SOL     OW17899   0.165   4.462  18.572
 2007SOL    HW117900   0.103   4.453  18.500
 2007SOL    HW217901   0.111   4.462  18.651
 2008SOL     OW17902   2.195   3.671   3.733
 2008SOL    HW117903   2.167   3.601   3.675
 2008SOL    HW217904   2.192   3.750   3.679
 2009SOL     OW17905   0.472   3.884  13.620
 2009SOL    HW117906   0.411   3.926  13.559
 2009SOL    HW217907   0.417   3.827  13.673
 2010SOL     OW17908   3.799   2.287  20.512
 2010SOL    HW117909   3.876   2.336  20.542
 2010SOL    HW217910   3.769   2.239  20.590
 2011SOL     OW17911   1.071   0.342   1.869
 2011SOL    HW117912   1.153   0.306   1.835
 2011SOL    HW217913   1.016   0.266   1.885
 2012SOL     OW17914   0.385   4.122  20.782
 2012SOL    HW117915   0.321   4.068  20.829
 2012SOL    HW217916   0.458   4.063  20.765
 2013SOL     OW17917   4.276   3.439  15.194
 2013SOL    HW117918   4.294   3.498  15.267
 2013SOL    HW217919   4.208   3.484  15.143
 2014SOL     OW17920   4.651   4.290  20.991
 2014SOL    HW117921   4.559   4.274  20.972
 2014SOL    HW217922   4.659   4.277  21.085
 2015SOL     OW17923   1.407   4.189   1.911
 2015SOL    HW117924   1.455   4.232   1.840
 2015SOL    HW217925   1.392   4.100   1.880
 2016SOL     OW17926   4.556   0.733  15.740
 2016SOL    HW117927   4.474   0.752  15.694
 2016SOL    HW217928   4.534   0.663  15.801
 2017SOL     OW17929   1.414   1.293   1.429
 2017SOL    HW117930   1.491   1.240   1.447
 2017SOL    HW217931   1.351   1.232   1.391
 2018SOL     OW17932   3.119   3.549   5.554
 2018SOL    HW117933   3.201   3.553   5.504
 2018SOL    HW217934   3.145   3.518   5.641
 2019SOL     OW17935   4.511   2.387  13.211
 2019SOL    HW117936   4.483   2.353  13.296
 2019SOL    HW217937   4.487   2.480  13.214
 2020SOL     OW17938   4.335   2.550  12.795
 2020SOL    HW117939   4.320   2.624  12.736
 2020SOL    HW217940   4.287   2.477  12.754
 2021SOL     OW17941   2.800   4.319  18.469
 2021SOL    HW117942   2.836   4.240  18.511
 2021SOL    HW217943   2.749   4.285  18.396
 2022SOL     OW17944   3.171   2.799   4.046
 2022SOL    HW117945   3.148   2.783   4.137
 2022SOL    HW217946   3.264   2.820   4.047
 2023SOL     OW17947   1.585   0.419   3.349
 2023SOL    HW117948   1.494   0.448   3.336
 2023SOL    HW217949   1.607   0.450   3.437
 2024SOL     OW17950   1.750   3.132  17.531
 2024SOL    HW117951   1.836   3.101  17.560
 2024SOL    HW217952   1.722   3.191  17.602
 2025SOL     OW17953   0.896   2.867   4.496
 2025SOL    HW117954   0.879   2.958   4.519
 2025SOL    HW217955   0.991   2.862   4.484
 2026SOL     OW17956   2.093   3.562   4.076
 2026SOL    HW117957   2.162   3.627   4.061
 2026SOL    HW217958   2.120   3.516   4.155
 2027SOL     OW17959   1.539   1.669  19.705
 2027SOL    HW117960   1.573   1.663  19.795
 2027SOL    HW217961   1.607   1.716  19.657
 2028SOL     OW17962   2.481   3.389  20.306
 2028SOL    HW117963   2.466   3.483  20.320
 2028SOL    HW217964   2.527   3.361  20.385
 2029SOL     OW17965   2.184   2.616   3.381
 2029SOL    HW117966   2.272   2.583   3.402
 2029SOL    HW217967   2.126   2.541   3.397
 2030SOL     OW17968   2.287   1.196   6.481
 2030SOL    HW117969   2.323   1.182   6.394
 2030SOL    HW217970   2.298   1.289   6.497
 2031SOL     OW17971   0.267   2.557  19.745
 2031SOL    HW117972   0.188   2.557  19.799
 2031SOL    HW217973   0.297   2.648  19.747
 2032SOL     OW17974   3.656   1.466   8.507
 2032SOL    HW117975   3.612   1.532   8.453
 2032SOL    HW217976   3.747   1.468   8.478
 2033SOL     OW17977   3.075   3.517   1.544
 2033SOL    HW117978   3.122   3.463   1.481
 2033SOL    HW217979   2.984   3.488   1.536
 2034SOL     OW17980   4.443   0.817  19.969
 2034SOL    HW117981   4.384   0.791  19.898
 2034SOL    HW217982   4.493   0.738  19.989
 2035SOL     OW17983   0.197   4.195   1.098
 2035SOL    HW117984   0.105   4.170   1.088
 2035SOL    HW217985   0.238   4.118   1.137
 2036SOL     OW17986   2.140   1.500  17.832
 2036SOL    HW117987   2.139   1.442  17.908
 2036SOL    HW217988   2.056   1.484  17.789
 2037SOL     OW17989   0.647   0.208   0.530
 2037SOL    HW117990   0.565   0.245   0.499
 2037SOL    HW217991   0.624   0.121   0.561
 2038SOL     OW17992   3.959   3.860   6.602
 2038SOL    HW117993   3.974   3.907   6.520
 2038SOL    HW217994   4.045   3.826   6.627
 2039SOL     OW17995   4.754   1.741  15.173
 2039SOL    HW117996   4.752   1.836  15.178
 2039SOL    HW217997   4.662   1.715  15.172
 2040SOL     OW17998   4.743   2.460  19.772
 2040SOL    HW117999   4.725   2.551  19.792
 2040SOL    HW218000   4.729   2.452  19.678
 2041SOL     OW18001   2.932   3.015  20.660
 2041SOL    HW118002   2.964   3.030  20.570
 2041SOL    HW218003   2.838   3.005  20.650
 2042SOL     OW18004   0.534   4.132  18.378
 2042SOL    HW118005   0.491   4.202  18.427
 2042SOL    HW218006   0.556   4.067  18.445
 2043SOL     OW18007   1.937   2.250   5.580
 2043SOL    HW118008   1.959   2.341   5.602
 2043SOL    HW218009   2.020   2.213   5.549
 2044SOL     OW18010   0.013   0.226  20.570
 2044SOL    HW118011   4.720   0.265  20.559
 2044SOL    HW218012   0.002   0.134  20.543
 2045SOL     OW18013   2.577   2.620  15.490
 2045SOL    HW118014   2.652   2.569  15.460
 2045SOL    HW218015   2.615   2.691  15.542
 2046SOL     OW18016   0.879   0.804   5.453
 2046SOL    HW118017   0.786   0.785   5.464
 2046SOL    HW218018   0.923   0.744   5.513
 2047SOL     OW18019   0.405   3.156  16.372
 2047SOL    HW118020   0.403   3.251  16.362
 2047SOL    HW218021   0.452   3.125  16.294
 2048SOL     OW18022   3.780   3.763  17.946
 2048SOL    HW118023   3.793   3.836  18.006
 2048SOL    HW218024   3.711   3.711  17.987
 2049SOL     OW18025   0.182   0.665   1.845
 2049SOL    HW118026   0.241   0.602   1.805
 2049SOL    HW218027   0.162   0.628   1.931
 2050SOL     OW18028   1.264   2.434  17.962
 2050SOL    HW118029   1.300   2.441  17.874
 2050SOL    HW218030   1.184   2.487  17.960
 2051SOL     OW18031   3.701   4.085   4.226
 2051SOL    HW118032   3.658   4.105   4.143
 2051SOL    HW218033   3.662   4.003   4.255
 2052SOL     OW18034   0.206   1.527   4.008
 2052SOL    HW118035   0.134   1.569   4.055
 2052SOL    HW218036   0.284   1.570   4.041
 2053SOL     OW18037   0.794   0.829   5.074
 2053SOL    HW118038   0.704   0.818   5.105
 2053SOL    HW218039   0.784   0.861   4.984
 2054SOL     OW18040   1.309   2.782  21.236
 2054SOL    HW118041   1.306   2.790  21.141
 2054SOL    HW218042   1.394   2.743  21.255
 2055SOL     OW18043   3.929   1.364  15.734
 2055SOL    HW118044   3.975   1.321  15.806
 2055SOL    HW218045   3.952   1.457  15.742
 2056SOL     OW18046   3.631   0.515  13.874
 2056SOL    HW118047   3.640   0.518  13.779
 2056SOL    HW218048   3.720   0.525  13.908
 2057SOL     OW18049   1.137   2.178   4.675
 2057SOL    HW118050   1.064   2.232   4.645
 2057SOL    HW218051   1.207   2.242   4.693
 2058SOL     OW18052   0.026   1.374  18.665
 2058SOL    HW118053   0.010   1.411  18.752
 2058SOL    HW218054   4.748   1.312  18.652
 2059SOL     OW18055   3.976   1.184   5.906
 2059SOL    HW118056   4.039   1.228   5.849
 2059SOL    HW218057   3.997   1.091   5.897
 2060SOL     OW18058   0.455   3.360   5.195
 2060SOL    HW118059   0.497   3.287   5.242
 2060SOL    HW218060   0.466   3.337   5.103
 2061SOL     OW18061   1.489   4.631  14.497
 2061SOL    HW118062   1.540   4.704  14.460
 2061SOL    HW218063   1.542   4.553  14.479
 2062SOL     OW18064   0.461   1.496   1.147
 2062SOL    HW118065   0.516   1.529   1.076
 2062SOL    HW218066   0.441   1.573   1.200
 2063SOL     OW18067   0.433   0.573  16.962
 2063SOL    HW118068   0.524   0.573  16.932
 2063SOL    HW218069   0.436   0.615  17.048
 2064SOL     OW18070   3.958   4.087   4.333
 2064SOL    HW118071   3.880   4.107   4.282
 2064SOL    HW218072   3.981   3.997   4.307
 2065SOL     OW18073   0.463   1.323  16.568
 2065SOL    HW118074   0.453   1.407  16.614
 2065SOL    HW218075   0.404   1.329  16.493
 2066SOL     OW18076   1.933   1.826   0.619
 2066SOL    HW118077   1.958   1.873   0.539
 2066SOL    HW218078   1.889   1.892   0.672
 2067SOL     OW18079   1.557   0.728   7.413
 2067SOL    HW118080   1.534   0.718   7.320
 2067SOL    HW218081   1.474   0.724   7.459
 2068SOL     OW18082   3.670   1.972  19.989
 2068SOL    HW118083   3.732   1.946  20.057
 2068SOL    HW218084   3.675   1.901  19.925
 2069SOL     OW18085   3.183   0.468  19.295
 2069SOL    HW118086   3.198   0.562  19.285
 2069SOL    HW218087   3.105   0.461  19.350
 2070SOL     OW18088   2.999   2.800   6.697
 2070SOL    HW118089   3.069   2.778   6.636
 2070SOL    HW218090   2.938   2.852   6.645
 2071SOL     OW18091   0.842   2.647  20.642
 2071SOL    HW118092   0.929   2.610  20.658
 2071SOL    HW218093   0.812   2.603  20.562
 2072SOL     OW18094   4.344   3.703  17.578
 2072SOL    HW118095   4.257   3.666  17.561
 2072SOL    HW218096   4.405   3.636  17.546
 2073SOL     OW18097   4.635   0.510   2.163
 2073SOL    HW118098   4.574   0.484   2.095
 2073SOL    HW218099   4.584   0.509   2.244
 2074SOL     OW18100   3.156   2.393  18.467
 2074SOL    HW118101   3.073   2.404  18.514
 2074SOL    HW218102   3.215   2.459  18.506
 2075SOL     OW18103   2.960   2.897  19.156
 2075SOL    HW118104   2.966   2.917  19.062
 2075SOL    HW218105   2.969   2.802  19.160
 2076SOL     OW18106   3.484   1.488   4.540
 2076SOL    HW118107   3.579   1.505   4.547
 2076SOL    HW218108   3.466   1.495   4.446
 2077SOL     OW18109   0.813   0.039  12.536
 2077SOL    HW118110   0.826   4.793  12.449
 2077SOL    HW218111   0.887   0.100  12.545
 2078SOL     OW18112   3.231   2.791   4.310
 2078SOL    HW118113   3.299   2.858   4.321
 2078SOL    HW218114   3.165   2.812   4.376
 2079SOL     OW18115   2.292   0.509  17.066
 2079SOL    HW118116   2.262   0.429  17.110
 2079SOL    HW218117   2.225   0.525  17.000
 2080SOL     OW18118   2.190   4.008   5.712
 2080SOL    HW118119   2.147   4.002   5.797
 2080SOL    HW218120   2.190   4.102   5.691
 2081SOL     OW18121   1.252   1.277   8.071
 2081SOL    HW118122   1.177   1.330   8.097
 2081SOL    HW218123   1.307   1.273   8.149
 2082SOL     OW18124   2.172   2.156  18.054
 2082SOL    HW118125   2.267   2.161  18.047
 2082SOL    HW218126   2.156   2.076  18.104
 2083SOL     OW18127   4.397   1.857  17.301
 2083SOL    HW118128   4.475   1.912  17.296
 2083SOL    HW218129   4.429   1.768  17.287
 2084SOL     OW18130   4.215   1.048  18.347
 2084SOL    HW118131   4.135   1.008  18.379
 2084SOL    HW218132   4.219   1.024  18.254
 2085SOL     OW18133   1.675   1.270  19.348
 2085SOL    HW118134   1.749   1.282  19.406
 2085SOL    HW218135   1.668   1.353  19.300
 2086SOL     OW18136   4.401   1.243   1.089
 2086SOL    HW118137   4.485   1.244   1.043
 2086SOL    HW218138   4.397   1.157   1.130
 2087SOL     OW18139   4.670   0.291   3.665
 2087SOL    HW118140   4.698   0.255   3.581
 2087SOL    HW218141   4.675   0.216   3.725
 2088SOL     OW18142   1.660   2.568   4.769
 2088SOL    HW118143   1.678   2.486   4.723
 2088SOL    HW218144   1.565   2.574   4.771
 2089SOL     OW18145   0.081   1.548  15.964
 2089SOL    HW118146   0.105   1.628  16.010
 2089SOL    HW218147   0.164   1.506  15.944
 2090SOL     OW18148   1.499   3.743   0.057
 2090SOL    HW118149   1.490   3.727  21.239
 2090SOL    HW218150   1.478   3.836   0.067
 2091SOL     OW18151   3.275   3.835  12.978
 2091SOL    HW118152   3.297   3.854  12.887
 2091SOL    HW218153   3.180   3.843  12.982
 2092SOL     OW18154   0.021   2.192   1.443
 2092SOL    HW118155   4.754   2.150   1.383
 2092SOL    HW218156   0.061   2.262   1.392
 2093SOL     OW18157   2.786   2.787  20.219
 2093SOL    HW118158   2.835   2.711  20.188
 2093SOL    HW218159   2.695   2.758  20.221
 2094SOL     OW18160   4.252   2.079   6.347
 2094SOL    HW118161   4.188   2.140   6.383
 2094SOL    HW218162   4.206   2.037   6.274
 2095SOL     OW18163   0.827   3.865   5.721
 2095SOL    HW118164   0.915   3.902   5.731
 2095SOL    HW218165   0.777   3.900   5.794
 2096SOL     OW18166   3.825   0.930  15.839
 2096SOL    HW118167   3.807   0.900  15.750
 2096SOL    HW218168   3.744   0.973  15.867
 2097SOL     OW18169   2.569   4.543  20.582
 2097SOL    HW118170   2.529   4.628  20.602
 2097SOL    HW218171   2.621   4.523  20.659
 2098SOL     OW18172   4.318   3.632   4.400
 2098SOL    HW118173   4.271   3.623   4.317
 2098SOL    HW218174   4.269   3.579   4.462
 2099SOL     OW18175   3.225   1.904  20.471
 2099SOL    HW118176   3.292   1.916  20.404
 2099SOL    HW218177   3.274   1.894  20.553
 2100SOL     OW18178   1.811   3.428  19.639
 2100SOL    HW118179   1.865   3.494  19.596
 2100SOL    HW218180   1.818   3.351  19.582
 2101SOL     OW18181   4.636   3.870  15.901
 2101SOL    HW118182   4.612   3.886  15.992
 2101SOL    HW218183   4.613   3.952  15.856
 2102SOL     OW18184   2.339   3.049  17.667
 2102SOL    HW118185   2.275   3.074  17.734
 2102SOL    HW218186   2.389   2.977  17.706
 2103SOL     OW18187   2.858   1.613  19.163
 2103SOL    HW118188   2.889   1.562  19.238
 2103SOL    HW218189   2.934   1.621  19.106
 2104SOL     OW18190   0.910   0.119  20.744
 2104SOL    HW118191   0.903   0.058  20.671
 2104SOL    HW218192   0.847   0.086  20.809
 2105SOL     OW18193   4.597   3.019   0.977
 2105SOL    HW118194   4.611   2.986   0.888
 2105SOL    HW218195   4.660   3.090   0.986
 2106SOL     OW18196   4.613   2.095  15.744
 2106SOL    HW118197   4.642   2.007  15.721
 2106SOL    HW218198   4.573   2.086  15.831
 2107SOL     OW18199   0.666   4.691   0.922
 2107SOL    HW118200   0.708   4.738   0.994
 2107SOL    HW218201   0.722   4.614   0.908
 2108SOL     OW18202   0.720   3.902  20.229
 2108SOL    HW118203   0.637   3.932  20.193
 2108SOL    HW218204   0.697   3.850  20.305
 2109SOL     OW18205   1.567   3.111   1.149
 2109SOL    HW118206   1.542   3.036   1.095
 2109SOL    HW218207   1.523   3.186   1.107
 2110SOL     OW18208   4.374   2.845  15.890
 2110SOL    HW118209   4.383   2.825  15.797
 2110SOL    HW218210   4.462   2.872  15.917
 2111SOL     OW18211   4.773   1.094  17.631
 2111SOL    HW118212   0.005   1.048  17.551
 2111SOL    HW218213   4.677   1.091  17.629
 2112SOL     OW18214   0.077   0.199  17.007
 2112SOL    HW118215   0.057   0.287  16.975
 2112SOL    HW218216   0.085   0.146  16.928
 2113SOL     OW18217   3.790   0.563  20.972
 2113SOL    HW118218   3.755   0.643  20.933
 2113SOL    HW218219   3.880   0.585  20.994
 2114SOL     OW18220   2.076   0.549   4.640
 2114SOL    HW118221   2.003   0.568   4.581
 2114SOL    HW218222   2.148   0.526   4.581
 2115SOL     OW18223   2.346   2.841  16.210
 2115SOL    HW118224   2.326   2.899  16.284
 2115SOL    HW218225   2.357   2.901  16.136
 2116SOL     OW18226   1.791   2.552   1.566
 2116SOL    HW118227   1.810   2.494   1.493
 2116SOL    HW218228   1.816   2.503   1.644
 2117SOL     OW18229   2.615   1.294  18.250
 2117SOL    HW118230   2.639   1.361  18.314
 2117SOL    HW218231   2.676   1.308  18.177
 2118SOL     OW18232   2.905   2.544  17.679
 2118SOL    HW118233   2.935   2.612  17.739
 2118SOL    HW218234   2.966   2.548  17.605
 2119SOL     OW18235   4.100   0.777  12.177
 2119SOL    HW118236   4.042   0.847  12.146
 2119SOL    HW218237   4.167   0.769  12.109
 2120SOL     OW18238   0.324   0.014  21.096
 2120SOL    HW118239   0.393   4.746  21.074
 2120SOL    HW218240   0.263   4.756  21.149
 2121SOL     OW18241   4.502   4.589  17.001
 2121SOL    HW118242   4.473   4.652  17.067
 2121SOL    HW218243   4.556   4.527  17.050
 2122SOL     OW18244   2.282   1.505  11.939
 2122SOL    HW118245   2.198   1.466  11.962
 2122SOL    HW218246   2.266   1.547  11.854
 2123SOL     OW18247   1.509   2.849   1.699
 2123SOL    HW118248   1.532   2.940   1.716
 2123SOL    HW218249   1.553   2.828   1.617
 2124SOL     OW18250   4.370   3.298  18.858
 2124SOL    HW118251   4.353   3.379  18.809
 2124SOL    HW218252   4.289   3.281  18.905
 2125SOL     OW18253   3.141   3.766   1.182
 2125SOL    HW118254   3.138   3.759   1.086
 2125SOL    HW218255   3.231   3.792   1.200
 2126SOL     OW18256   0.541   2.121  19.290
 2126SOL    HW118257   0.593   2.201  19.287
 2126SOL    HW218258   0.454   2.148  19.261
 2127SOL     OW18259   0.877   2.450   0.287
 2127SOL    HW118260   0.794   2.471   0.331
 2127SOL    HW218261   0.939   2.513   0.322
 2128SOL     OW18262   2.413   3.132  18.094
 2128SOL    HW118263   2.447   3.179  18.170
 2128SOL    HW218264   2.344   3.076  18.130
 2129SOL     OW18265   2.352   3.452  15.527
 2129SOL    HW118266   2.413   3.427  15.596
 2129SOL    HW218267   2.375   3.543  15.506
 2130SOL     OW18268   4.288   2.920  19.908
 2130SOL    HW118269   4.220   2.934  19.842
 2130SOL    HW218270   4.354   2.866  19.864
 2131SOL     OW18271   0.799   1.419  12.024
 2131SOL    HW118272   0.862   1.398  12.093
 2131SOL    HW218273   0.778   1.334  11.984
 2132SOL     OW18274   4.314   4.730  16.216
 2132SOL    HW118275   4.306   4.712  16.310
 2132SOL    HW218276   4.395   4.685  16.190
 2133SOL     OW18277   2.558   3.575   2.050
 2133SOL    HW118278   2.488   3.573   1.985
 2133SOL    HW218279   2.589   3.485   2.054
 2134SOL     OW18280   0.982   4.176  17.421
 2134SOL    HW118281   0.942   4.197  17.505
 2134SOL    HW218282   0.926   4.109  17.383
 2135SOL     OW18283   3.027   0.252   3.973
 2135SOL    HW118284   3.086   0.189   3.932
 2135SOL    HW218285   2.991   0.303   3.900
 2136SOL     OW18286   4.399   3.528  14.419
 2136SOL    HW118287   4.322   3.580  14.394
 2136SOL    HW218288   4.380   3.500  14.509
 2137SOL     OW18289   2.934   1.829  18.485
 2137SOL    HW118290   2.888   1.796  18.408
 2137SOL    HW218291   2.866   1.860  18.543
 2138SOL     OW18292   1.753   4.401   4.906
 2138SOL    HW118293   1.801   4.392   4.989
 2138SOL    HW218294   1.767   4.492   4.880
 2139SOL     OW18295   3.944   1.539   1.667
 2139SOL    HW118296   4.000   1.462   1.658
 2139SOL    HW218297   3.876   1.513   1.729
 2140SOL     OW18298   1.419   2.663  19.937
 2140SOL    HW118299   1.461   2.581  19.963
 2140SOL    HW218300   1.371   2.640  19.857
 2141SOL     OW18301   0.894   0.169   3.692
 2141SOL    HW118302   0.806   0.138   3.715
 2141SOL    HW218303   0.953   0.099   3.719
 2142SOL     OW18304   1.629   2.695   4.331
 2142SOL    HW118305   1.676   2.627   4.380
 2142SOL    HW218306   1.692   2.726   4.266
 2143SOL     OW18307   4.791   4.383   1.624
 2143SOL    HW118308   0.022   4.452   1.562
 2143SOL    HW218309   4.722   4.422   1.677
 2144SOL     OW18310   0.925   3.262  16.301
 2144SOL    HW118311   0.927   3.193  16.235
 2144SOL    HW218312   0.848   3.314  16.278
 2145SOL     OW18313   1.129   0.898   0.461
 2145SOL    HW118314   1.212   0.898   0.413
 2145SOL    HW218315   1.154   0.890   0.553
 2146SOL     OW18316   4.222   2.549   5.234
 2146SOL    HW118317   4.235   2.476   5.173
 2146SOL    HW218318   4.297   2.606   5.219
 2147SOL     OW18319   3.610   1.162   6.766
 2147SOL    HW118320   3.657   1.101   6.709
 2147SOL    HW218321   3.655   1.156   6.850
 2148SOL     OW18322   4.754   3.075   2.531
 2148SOL    HW118323   4.687   3.129   2.572
 2148SOL    HW218324   0.028   3.136   2.504
 2149SOL     OW18325   1.056   3.119  13.869
 2149SOL    HW118326   1.002   3.195  13.845
 2149SOL    HW218327   1.042   3.056  13.799
 2150SOL     OW18328   1.759   1.467   2.329
 2150SOL    HW118329   1.819   1.486   2.401
 2150SOL    HW218330   1.755   1.549   2.279
 2151SOL     OW18331   2.258   0.969  14.707
 2151SOL    HW118332   2.200   0.929  14.772
 2151SOL    HW218333   2.275   1.057  14.740
 2152SOL     OW18334   1.791   4.145   2.009
 2152SOL    HW118335   1.792   4.200   1.931
 2152SOL    HW218336   1.726   4.186   2.066
 2153SOL     OW18337   2.269   1.286  19.687
 2153SOL    HW118338   2.353   1.244  19.704
 2153SOL    HW218339   2.205   1.228  19.726
 2154SOL     OW18340   2.099   2.415   4.438
 2154SOL    HW118341   2.171   2.412   4.376
 2154SOL    HW218342   2.063   2.503   4.429
 2155SOL     OW18343   4.452   0.725   6.701
 2155SOL    HW118344   4.357   0.737   6.711
 2155SOL    HW218345   4.479   0.796   6.643
 2156SOL     OW18346   3.010   1.171  17.877
 2156SOL    HW118347   2.931   1.181  17.825
 2156SOL    HW218348   2.979   1.166  17.967
 2157SOL     OW18349   4.240   1.438   0.470
 2157SOL    HW118350   4.243   1.460   0.563
 2157SOL    HW218351   4.323   1.394   0.452
 2158SOL     OW18352   2.976   1.905  20.332
 2158SOL    HW118353   2.910   1.862  20.386
 2158SOL    HW218354   3.055   1.907  20.387
 2159SOL     OW18355   4.306   3.252   1.570
 2159SOL    HW118356   4.303   3.240   1.475
 2159SOL    HW218357   4.373   3.319   1.583
 2160SOL     OW18358   3.863   1.955  19.545
 2160SOL    HW118359   3.865   2.021  19.475
 2160SOL    HW218360   3.930   1.984  19.607
 2161SOL     OW18361   1.270   2.275   5.002
 2161SOL    HW118362   1.176   2.255   4.994
 2161SOL    HW218363   1.274   2.345   5.067
 2162SOL     OW18364   1.161   3.491  12.791
 2162SOL    HW118365   1.092   3.426  12.806
 2162SOL    HW218366   1.216   3.452  12.723
 2163SOL     OW18367   2.122   0.514  14.163
 2163SOL    HW118368   2.170   0.431  14.158
 2163SOL    HW218369   2.184   0.580  14.131
 2164SOL     OW18370   0.603   4.149  15.272
 2164SOL    HW118371   0.636   4.078  15.218
 2164SOL    HW218372   0.533   4.110  15.324
 2165SOL     OW18373   1.142   4.147   2.015
 2165SOL    HW118374   1.234   4.134   1.990
 2165SOL    HW218375   1.142   4.138   2.110
 2166SOL     OW18376   3.301   4.226   1.888
 2166SOL    HW118377   3.355   4.152   1.915
 2166SOL    HW218378   3.266   4.200   1.803
 2167SOL     OW18379   1.215   1.249  16.542
 2167SOL    HW118380   1.244   1.163  16.572
 2167SOL    HW218381   1.182   1.234  16.453
 2168SOL     OW18382   0.155   2.377   1.012
 2168SOL    HW118383   0.240   2.337   1.025
 2168SOL    HW218384   0.173   2.471   1.005
 2169SOL     OW18385   0.254   2.019   2.784
 2169SOL    HW118386   0.344   2.053   2.783
 2169SOL    HW218387   0.238   1.995   2.875
 2170SOL     OW18388   2.959   0.861   4.504
 2170SOL    HW118389   2.887   0.841   4.564
 2170SOL    HW218390   2.948   0.954   4.484
 2171SOL     OW18391   0.558   4.564  16.477
 2171SOL    HW118392   0.589   4.618  16.405
 2171SOL    HW218393   0.567   4.620  16.554
 2172SOL     OW18394   4.631   4.157  18.845
 2172SOL    HW118395   4.598   4.095  18.911
 2172SOL    HW218396   4.694   4.106  18.794
 2173SOL     OW18397   2.901   1.512   3.249
 2173SOL    HW118398   2.893   1.572   3.175
 2173SOL    HW218399   2.948   1.437   3.214
 2174SOL     OW18400   1.789   4.313   4.632
 2174SOL    HW118401   1.717   4.268   4.588
 2174SOL    HW218402   1.757   4.329   4.721
 2175SOL     OW18403   3.642   3.641   2.245
 2175SOL    HW118404   3.669   3.550   2.236
 2175SOL    HW218405   3.725   3.690   2.249
 2176SOL     OW18406   2.325   3.437  19.744
 2176SOL    HW118407   2.317   3.441  19.839
 2176SOL    HW218408   2.287   3.520  19.713
 2177SOL     OW18409   2.572   2.834   0.883
 2177SOL    HW118410   2.479   2.813   0.870
 2177SOL    HW218411   2.611   2.752   0.913
 2178SOL     OW18412   4.237   0.047   7.779
 2178SOL    HW118413   4.145   0.063   7.800
 2178SOL    HW218414   4.235   4.774   7.711
 2179SOL     OW18415   2.392   3.102   4.507
 2179SOL    HW118416   2.353   3.176   4.555
 2179SOL    HW218417   2.401   3.033   4.572
 2180SOL     OW18418   3.759   2.831   2.360
 2180SOL    HW118419   3.757   2.738   2.341
 2180SOL    HW218420   3.698   2.870   2.297
 2181SOL     OW18421   0.784   0.169  13.944
 2181SOL    HW118422   0.841   0.242  13.970
 2181SOL    HW218423   0.786   0.169  13.849
 2182SOL     OW18424   3.465   2.980  19.230
 2182SOL    HW118425   3.512   3.062  19.215
 2182SOL    HW218426   3.374   3.000  19.211
 2183SOL     OW18427   1.230   0.533   4.365
 2183SOL    HW118428   1.198   0.577   4.443
 2183SOL    HW218429   1.213   0.440   4.381
 2184SOL     OW18430   3.374   2.329   5.041
 2184SOL    HW118431   3.309   2.376   5.093
 2184SOL    HW218432   3.367   2.238   5.070
 2185SOL     OW18433   0.853   4.277  17.625
 2185SOL    HW118434   0.873   4.368  17.649
 2185SOL    HW218435   0.882   4.225  17.700
 2186SOL     OW18436   2.506   3.605   8.938
 2186SOL    HW118437   2.575   3.672   8.942
 2186SOL    HW218438   2.433   3.643   8.987
 2187SOL     OW18439   1.575   1.111  20.769
 2187SOL    HW118440   1.527   1.080  20.692
 2187SOL    HW218441   1.644   1.167  20.734
 2188SOL     OW18442   4.536   3.078   5.911
 2188SOL    HW118443   4.574   3.149   5.962
 2188SOL    HW218444   4.547   3.106   5.820
 2189SOL     OW18445   3.271   4.073   1.220
 2189SOL    HW118446   3.320   3.995   1.246
 2189SOL    HW218447   3.331   4.145   1.235
 2190SOL     OW18448   3.587   4.081  17.264
 2190SOL    HW118449   3.659   4.116  17.317
 2190SOL    HW218450   3.510   4.086  17.321
 2191SOL     OW18451   4.297   1.954   2.841
 2191SOL    HW118452   4.260   1.867   2.826
 2191SOL    HW218453   4.255   1.984   2.922
 2192SOL     OW18454   2.313   1.657  18.380
 2192SOL    HW118455   2.359   1.603  18.444
 2192SOL    HW218456   2.222   1.628  18.385
 2193SOL     OW18457   4.016   4.617  20.221
 2193SOL    HW118458   3.948   4.552  20.199
 2193SOL    HW218459   4.096   4.565  20.232
 2194SOL     OW18460   3.024   4.394   5.381
 2194SOL    HW118461   3.097   4.439   5.423
 2194SOL    HW218462   3.011   4.441   5.299
 2195SOL     OW18463   3.626   4.662  18.292
 2195SOL    HW118464   3.583   4.739  18.255
 2195SOL    HW218465   3.692   4.697  18.351
 2196SOL     OW18466   4.630   4.414   2.516
 2196SOL    HW118467   4.677   4.490   2.482
 2196SOL    HW218468   4.678   4.338   2.482
 2197SOL     OW18469   1.269   4.612   0.773
 2197SOL    HW118470   1.188   4.649   0.808
 2197SOL    HW218471   1.253   4.605   0.679
 2198SOL     OW18472   0.209   1.994   1.490
 2198SOL    HW118473   0.243   1.974   1.577
 2198SOL    HW218474   0.164   2.078   1.500
 2199SOL     OW18475   0.475   2.269   3.193
 2199SOL    HW118476   0.523   2.307   3.267
 2199SOL    HW218477   0.463   2.343   3.132
 2200SOL     OW18478   2.041   3.944   0.692
 2200SOL    HW118479   2.099   3.873   0.664
 2200SOL    HW218480   1.953   3.911   0.673
 2201SOL     OW18481   4.440   3.409  15.643
 2201SOL    HW118482   4.463   3.475  15.578
 2201SOL    HW218483   4.505   3.340  15.632
 2202SOL     OW18484   2.691   1.614   6.238
 2202SOL    HW118485   2.731   1.542   6.189
 2202SOL    HW218486   2.647   1.571   6.311
 2203SOL     OW18487   0.709   1.538  20.740
 2203SOL    HW118488   0.707   1.550  20.835
 2203SOL    HW218489   0.796   1.567  20.714
 2204SOL     OW18490   1.000   2.885   2.142
 2204SOL    HW118491   1.002   2.950   2.212
 2204SOL    HW218492   1.075   2.828   2.159
 2205SOL     OW18493   3.966   3.172   6.936
 2205SOL    HW118494   4.031   3.166   6.866
 2205SOL    HW218495   3.954   3.082   6.965
 2206SOL     OW18496   1.521   0.951  19.671
 2206SOL    HW118497   1.550   0.921  19.584
 2206SOL    HW218498   1.572   0.898  19.732
 2207SOL     OW18499   4.039   1.427   6.340
 2207SOL    HW118500   3.966   1.489   6.342
 2207SOL    HW218501   4.102   1.462   6.404
 2208SOL     OW18502   4.432   2.505   9.526
 2208SOL    HW118503   4.449   2.573   9.592
 2208SOL    HW218504   4.503   2.442   9.537
 2209SOL     OW18505   0.415   2.157  18.405
 2209SOL    HW118506   0.454   2.133  18.321
 2209SOL    HW218507   0.335   2.104  18.410
 2210SOL     OW18508   4.023   2.746  15.199
 2210SOL    HW118509   4.004   2.827  15.152
 2210SOL    HW218510   3.939   2.719  15.236
 2211SOL     OW18511   3.899   4.530   5.545
 2211SOL    HW118512   3.979   4.490   5.578
 2211SOL    HW218513   3.850   4.457   5.505
 2212SOL     OW18514   2.529   3.916  21.149
 2212SOL    HW118515   2.517   3.991  21.091
 2212SOL    HW218516   2.462   3.854  21.121
 2213SOL     OW18517   3.863   0.080  17.035
 2213SOL    HW118518   3.819   0.158  17.000
 2213SOL    HW218519   3.916   0.113  17.107
 2214SOL     OW18520   0.582   0.342  12.275
 2214SOL    HW118521   0.668   0.378  12.253
 2214SOL    HW218522   0.583   0.254  12.237
 2215SOL     OW18523   2.512   0.411   5.456
 2215SOL    HW118524   2.468   0.491   5.484
 2215SOL    HW218525   2.461   0.340   5.495
 2216SOL     OW18526   2.950   1.909  20.822
 2216SOL    HW118527   2.955   1.910  20.918
 2216SOL    HW218528   2.972   1.998  20.796
 2217SOL     OW18529   0.437   1.101   0.066
 2217SOL    HW118530   0.528   1.072   0.058
 2217SOL    HW218531   0.396   1.073  21.260
 2218SOL     OW18532   2.207   1.154   8.872
 2218SOL    HW118533   2.157   1.211   8.815
 2218SOL    HW218534   2.284   1.205   8.896
 2219SOL     OW18535   1.826   1.409   1.875
 2219SOL    HW118536   1.742   1.371   1.899
 2219SOL    HW218537   1.879   1.403   1.954
 2220SOL     OW18538   1.307   4.329  17.746
 2220SOL    HW118539   1.333   4.339  17.837
 2220SOL    HW218540   1.284   4.236  17.737
 2221SOL     OW18541   2.352   3.570  15.868
 2221SOL    HW118542   2.333   3.485  15.827
 2221SOL    HW218543   2.442   3.588  15.843
 2222SOL     OW18544   3.081   3.345  20.689
 2222SOL    HW118545   3.045   3.339  20.601
 2222SOL    HW218546   3.009   3.378  20.742
 2223SOL     OW18547   4.763   3.037  20.111
 2223SOL    HW118548   4.675   3.036  20.074
 2223SOL    HW218549   0.025   3.062  20.037
 2224SOL     OW18550   2.044   4.293   5.657
 2224SOL    HW118551   1.996   4.344   5.592
 2224SOL    HW218552   1.977   4.244   5.704
 2225SOL     OW18553   3.375   4.330   2.502
 2225SOL    HW118554   3.385   4.362   2.412
 2225SOL    HW218555   3.451   4.365   2.549
 2226SOL     OW18556   2.035   1.723   6.459
 2226SOL    HW118557   2.005   1.727   6.550
 2226SOL    HW218558   1.964   1.761   6.408
 2227SOL     OW18559   1.968   3.318  15.825
 2227SOL    HW118560   2.046   3.276  15.786
 2227SOL    HW218561   1.978   3.305  15.919
 2228SOL     OW18562   1.212   0.566  13.875
 2228SOL    HW118563   1.157   0.631  13.919
 2228SOL    HW218564   1.230   0.501  13.942
 2229SOL     OW18565   1.547   4.328   4.056
 2229SOL    HW118566   1.565   4.250   4.109
 2229SOL    HW218567   1.498   4.295   3.981
 2230SOL     OW18568   3.427   2.797  17.872
 2230SOL    HW118569   3.346   2.802  17.922
 2230SOL    HW218570   3.492   2.764  17.934
 2231SOL     OW18571   4.459   4.012   2.030
 2231SOL    HW118572   4.466   4.063   1.949
 2231SOL    HW218573   4.370   3.977   2.028
 2232SOL     OW18574   2.476   1.591   4.515
 2232SOL    HW118575   2.411   1.631   4.573
 2232SOL    HW218576   2.497   1.660   4.452
 2233SOL     OW18577   1.090   0.327   5.390
 2233SOL    HW118578   1.068   0.415   5.359
 2233SOL    HW218579   1.013   0.299   5.439
 2234SOL     OW18580   4.466   4.018  16.553
 2234SOL    HW118581   4.426   3.937  16.583
 2234SOL    HW218582   4.393   4.068  16.516
 2235SOL     OW18583   3.033   1.742  17.240
 2235SOL    HW118584   3.055   1.671  17.299
 2235SOL    HW218585   2.966   1.706  17.182
 2236SOL     OW18586   0.008   4.253  14.225
 2236SOL    HW118587   4.782   4.163  14.200
 2236SOL    HW218588   0.079   4.280  14.166
 2237SOL     OW18589   4.380   1.507   4.501
 2237SOL    HW118590   4.464   1.471   4.471
 2237SOL    HW218591   4.374   1.592   4.457
 2238SOL     OW18592   1.522   3.421   2.856
 2238SOL    HW118593   1.599   3.389   2.904
 2238SOL    HW218594   1.457   3.436   2.925
 2239SOL     OW18595   2.164   0.669  13.104
 2239SOL    HW118596   2.075   0.653  13.135
 2239SOL    HW218597   2.167   0.764  13.088
 2240SOL     OW18598   3.937   4.747   2.505
 2240SOL    HW118599   3.849   4.711   2.512
 2240SOL    HW218600   3.925   0.047   2.522
 2241SOL     OW18601   1.494   0.784  18.442
 2241SOL    HW118602   1.421   0.774  18.503
 2241SOL    HW218603   1.549   0.707  18.457
 2242SOL     OW18604   1.012   4.655   3.042
 2242SOL    HW118605   1.101   4.650   3.009
 2242SOL    HW218606   0.997   4.570   3.084
 2243SOL     OW18607   4.548   1.679   0.908
 2243SOL    HW118608   4.478   1.724   0.956
 2243SOL    HW218609   4.587   1.619   0.971
 2244SOL     OW18610   2.843   0.667  16.792
 2244SOL    HW118611   2.775   0.609  16.824
 2244SOL    HW218612   2.798   0.749  16.771
 2245SOL     OW18613   1.026   2.067  19.478
 2245SOL    HW118614   1.101   2.047  19.421
 2245SOL    HW218615   1.021   1.993  19.538
 2246SOL     OW18616   4.421   2.929   4.982
 2246SOL    HW118617   4.436   3.023   4.990
 2246SOL    HW218618   4.495   2.897   4.931
 2247SOL     OW18619   3.088   1.981   0.924
 2247SOL    HW118620   3.016   1.963   0.985
 2247SOL    HW218621   3.099   1.898   0.876
 2248SOL     OW18622   4.685   2.835  18.534
 2248SOL    HW118623   4.675   2.910  18.592
 2248SOL    HW218624   4.600   2.825  18.492
 2249SOL     OW18625   1.675   4.057  16.637
 2249SOL    HW118626   1.633   4.092  16.558
 2249SOL    HW218627   1.616   3.987  16.666
 2250SOL     OW18628   0.135   4.702   7.916
 2250SOL    HW118629   0.134   4.610   7.889
 2250SOL    HW218630   0.051   4.737   7.887
 2251SOL     OW18631   1.283   3.307   4.727
 2251SOL    HW118632   1.190   3.310   4.706
 2251SOL    HW218633   1.298   3.220   4.763
 2252SOL     OW18634   4.641   2.186  21.213
 2252SOL    HW118635   4.567   2.225  21.259
 2252SOL    HW218636   4.717   2.234  21.246
 2253SOL     OW18637   4.505   2.541   5.015
 2253SOL    HW118638   4.424   2.492   5.021
 2253SOL    HW218639   4.502   2.602   5.089
 2254SOL     OW18640   4.044   2.760   9.480
 2254SOL    HW118641   4.098   2.687   9.449
 2254SOL    HW218642   4.069   2.833   9.423
 2255SOL     OW18643   2.786   0.641  15.984
 2255SOL    HW118644   2.696   0.634  15.954
 2255SOL    HW218645   2.795   0.574  16.052
 2256SOL     OW18646   0.502   0.648  16.317
 2256SOL    HW118647   0.533   0.668  16.406
 2256SOL    HW218648   0.456   0.727  16.290
 2257SOL     OW18649   3.735   4.102   2.910
 2257SOL    HW118650   3.663   4.040   2.911
 2257SOL    HW218651   3.786   4.079   2.833
 2258SOL     OW18652   1.791   0.993  20.292
 2258SOL    HW118653   1.741   0.917  20.263
 2258SOL    HW218654   1.867   0.955  20.338
 2259SOL     OW18655   1.585   2.505  19.405
 2259SOL    HW118656   1.582   2.530  19.498
 2259SOL    HW218657   1.549   2.417  19.403
 2260SOL     OW18658   0.162   3.199  20.546
 2260SOL    HW118659   0.098   3.221  20.479
 2260SOL    HW218660   0.229   3.149  20.500
 2261SOL     OW18661   1.838   1.341   0.612
 2261SOL    HW118662   1.906   1.343   0.680
 2261SOL    HW218663   1.813   1.433   0.600
 2262SOL     OW18664   3.475   3.135   5.890
 2262SOL    HW118665   3.422   3.138   5.969
 2262SOL    HW218666   3.471   3.043   5.862
 2263SOL     OW18667   0.031   2.985   2.071
 2263SOL    HW118668   0.067   2.912   2.121
 2263SOL    HW218669   4.735   2.960   2.053
 2264SOL     OW18670   2.538   2.643  20.115
 2264SOL    HW118671   2.475   2.581  20.076
 2264SOL    HW218672   2.599   2.588  20.164
 2265SOL     OW18673   4.017   2.997  15.979
 2265SOL    HW118674   4.039   3.023  15.890
 2265SOL    HW218675   3.998   3.079  16.025
 2266SOL     OW18676   3.721   3.632  14.230
 2266SOL    HW118677   3.676   3.557  14.268
 2266SOL    HW218678   3.777   3.595  14.162
 2267SOL     OW18679   1.189   0.014   4.116
 2267SOL    HW118680   1.139   4.779   4.192
 2267SOL    HW218681   1.165   0.107   4.106
 2268SOL     OW18682   3.674   2.367   3.002
 2268SOL    HW118683   3.671   2.452   2.958
 2268SOL    HW218684   3.607   2.315   2.956
 2269SOL     OW18685   4.005   0.543  16.059
 2269SOL    HW118686   4.042   0.617  16.012
 2269SOL    HW218687   3.933   0.580  16.110
 2270SOL     OW18688   1.482   2.502  20.673
 2270SOL    HW118689   1.454   2.494  20.764
 2270SOL    HW218690   1.420   2.564  20.634
 2271SOL     OW18691   1.182   0.358  19.943
 2271SOL    HW118692   1.261   0.308  19.961
 2271SOL    HW218693   1.183   0.371  19.848
 2272SOL     OW18694   3.273   4.074   4.068
 2272SOL    HW118695   3.321   3.998   4.036
 2272SOL    HW218696   3.182   4.045   4.072
 2273SOL     OW18697   0.216   2.024   3.073
 2273SOL    HW118698   0.191   1.940   3.111
 2273SOL    HW218699   0.161   2.088   3.118
 2274SOL     OW18700   0.160   0.590   3.200
 2274SOL    HW118701   0.192   0.607   3.112
 2274SOL    HW218702   0.170   0.496   3.213
 2275SOL     OW18703   3.489   3.202   6.578
 2275SOL    HW118704   3.538   3.174   6.501
 2275SOL    HW218705   3.466   3.121   6.624
 2276SOL     OW18706   0.837   2.179  15.141
 2276SOL    HW118707   0.844   2.258  15.194
 2276SOL    HW218708   0.764   2.131  15.181
 2277SOL     OW18709   2.722   4.586   8.505
 2277SOL    HW118710   2.665   4.588   8.427
 2277SOL    HW218711   2.759   4.674   8.510
 2278SOL     OW18712   4.400   3.916   6.533
 2278SOL    HW118713   4.470   3.871   6.487
 2278SOL    HW218714   4.426   4.008   6.534
 2279SOL     OW18715   4.189   3.192  18.424
 2279SOL    HW118716   4.170   3.235  18.508
 2279SOL    HW218717   4.123   3.123  18.417
 2280SOL     OW18718   0.402   1.283  17.710
 2280SOL    HW118719   0.477   1.286  17.770
 2280SOL    HW218720   0.417   1.206  17.656
 2281SOL     OW18721   2.619   3.544  21.085
 2281SOL    HW118722   2.625   3.604  21.159
 2281SOL    HW218723   2.676   3.471  21.109
 2282SOL     OW18724   1.087   3.704  19.727
 2282SOL    HW118725   1.033   3.662  19.793
 2282SOL    HW218726   1.176   3.703  19.764
 2283SOL     OW18727   0.591   3.470   3.146
 2283SOL    HW118728   0.503   3.446   3.177
 2283SOL    HW218729   0.641   3.485   3.226
 2284SOL     OW18730   3.342   3.556   7.819
 2284SOL    HW118731   3.388   3.472   7.813
 2284SOL    HW218732   3.410   3.622   7.808
 2285SOL     OW18733   3.607   0.634  16.850
 2285SOL    HW118734   3.526   0.659  16.807
 2285SOL    HW218735   3.652   0.717  16.865
 2286SOL     OW18736   3.401   0.299   1.282
 2286SOL    HW118737   3.367   0.233   1.222
 2286SOL    HW218738   3.472   0.340   1.233
 2287SOL     OW18739   4.559   3.616   0.409
 2287SOL    HW118740   4.543   3.706   0.437
 2287SOL    HW218741   4.543   3.617   0.315
 2288SOL     OW18742   3.445   1.097   2.318
 2288SOL    HW118743   3.489   1.073   2.399
 2288SOL    HW218744   3.426   1.190   2.326
 2289SOL     OW18745   1.491   2.048  19.704
 2289SOL    HW118746   1.548   2.015  19.774
 2289SOL    HW218747   1.479   1.974  19.645
 2290SOL     OW18748   0.105   1.944  17.445
 2290SOL    HW118749   0.104   2.014  17.511
 2290SOL    HW218750   0.182   1.892  17.466
 2291SOL     OW18751   4.436   0.668   3.834
 2291SOL    HW118752   4.403   0.739   3.889
 2291SOL    HW218753   4.357   0.630   3.795
 2292SOL     OW18754   0.043   1.574  15.414
 2292SOL    HW118755   4.756   1.528  15.395
 2292SOL    HW218756   0.032   1.661  15.375
 2293SOL     OW18757   2.678   1.201  16.680
 2293SOL    HW118758   2.754   1.255  16.658
 2293SOL    HW218759   2.628   1.194  16.599
 2294SOL     OW18760   0.769   0.026   5.995
 2294SOL    HW118761   0.707   4.765   6.042
 2294SOL    HW218762   0.836   0.047   6.061
 2295SOL     OW18763   3.116   0.687   2.079
 2295SOL    HW118764   3.144   0.762   2.132
 2295SOL    HW218765   3.130   0.715   1.988
 2296SOL     OW18766   3.668   3.160   6.332
 2296SOL    HW118767   3.695   3.069   6.327
 2296SOL    HW218768   3.730   3.207   6.276
 2297SOL     OW18769   4.599   2.153   7.698
 2297SOL    HW118770   4.693   2.134   7.706
 2297SOL    HW218771   4.589   2.184   7.608
 2298SOL     OW18772   4.739   1.542   2.138
 2298SOL    HW118773   4.690   1.463   2.116
 2298SOL    HW218774   4.672   1.603   2.170
 2299SOL     OW18775   3.597   0.910   0.581
 2299SOL    HW118776   3.538   0.854   0.632
 2299SOL    HW218777   3.590   0.878   0.491
 2300SOL     OW18778   1.274   3.385  20.545
 2300SOL    HW118779   1.279   3.448  20.472
 2300SOL    HW218780   1.293   3.438  20.622
 2301SOL     OW18781   3.742   0.235  16.729
 2301SOL    HW118782   3.735   0.259  16.822
 2301SOL    HW218783   3.824   0.274  16.700
 2302SOL     OW18784   3.132   3.462  18.936
 2302SOL    HW118785   3.164   3.519  18.867
 2302SOL    HW218786   3.188   3.481  19.011
 2303SOL     OW18787   3.540   0.286  20.370
 2303SOL    HW118788   3.479   0.219  20.398
 2303SOL    HW218789   3.619   0.238  20.346
 2304SOL     OW18790   3.678   1.704  18.555
 2304SOL    HW118791   3.768   1.726  18.580
 2304SOL    HW218792   3.664   1.617  18.592
 2305SOL     OW18793   1.512   1.023  16.869
 2305SOL    HW118794   1.592   1.062  16.833
 2305SOL    HW218795   1.537   0.933  16.889
 2306SOL     OW18796   3.543   4.003  20.107
 2306SOL    HW118797   3.544   4.098  20.110
 2306SOL    HW218798   3.635   3.977  20.112
 2307SOL     OW18799   0.040   0.790  19.177
 2307SOL    HW118800   0.093   0.827  19.247
 2307SOL    HW218801   0.098   0.726  19.134
 2308SOL     OW18802   1.963   0.842   7.905
 2308SOL    HW118803   1.971   0.925   7.858
 2308SOL    HW218804   1.872   0.817   7.893
 2309SOL     OW18805   1.459   4.541   3.775
 2309SOL    HW118806   1.548   4.537   3.811
 2309SOL    HW218807   1.415   4.607   3.828
 2310SOL     OW18808   4.256   3.145  21.023
 2310SOL    HW118809   4.321   3.095  21.072
 2310SOL    HW218810   4.177   3.092  21.027
 2311SOL     OW18811   1.638   1.003   5.646
 2311SOL    HW118812   1.544   1.017   5.636
 2311SOL    HW218813   1.660   0.942   5.575
 2312SOL     OW18814   2.901   2.078  20.607
 2312SOL    HW118815   2.936   1.995  20.576
 2312SOL    HW218816   2.813   2.057  20.639
 2313SOL     OW18817   0.375   3.210   4.566
 2313SOL    HW118818   0.420   3.135   4.528
 2313SOL    HW218819   0.324   3.248   4.494
 2314SOL     OW18820   0.387   1.554  16.755
 2314SOL    HW118821   0.297   1.575  16.779
 2314SOL    HW218822   0.409   1.618  16.688
 2315SOL     OW18823   3.616   4.405   5.858
 2315SOL    HW118824   3.580   4.489   5.830
 2315SOL    HW218825   3.552   4.371   5.921
 2316SOL     OW18826   0.981   0.463  20.698
 2316SOL    HW118827   1.047   0.496  20.759
 2316SOL    HW218828   0.911   0.529  20.700
 2317SOL     OW18829   4.014   4.056   4.744
 2317SOL    HW118830   4.068   4.132   4.765
 2317SOL    HW218831   3.982   4.073   4.655
 2318SOL     OW18832   4.678   1.358  16.793
 2318SOL    HW118833   4.629   1.408  16.728
 2318SOL    HW218834   4.616   1.345  16.865
 2319SOL     OW18835   1.492   2.653   5.936
 2319SOL    HW118836   1.487   2.671   6.030
 2319SOL    HW218837   1.496   2.739   5.895
 2320SOL     OW18838   1.345   3.100  16.347
 2320SOL    HW118839   1.250   3.086  16.342
 2320SOL    HW218840   1.376   3.082  16.258
 2321SOL     OW18841   4.346   2.337   3.350
 2321SOL    HW118842   4.365   2.245   3.335
 2321SOL    HW218843   4.254   2.339   3.374
 2322SOL     OW18844   1.959   2.841   4.830
 2322SOL    HW118845   1.919   2.759   4.859
 2322SOL    HW218846   1.886   2.901   4.819
 2323SOL     OW18847   4.345   1.923   0.961
 2323SOL    HW118848   4.352   2.005   0.912
 2323SOL    HW218849   4.272   1.877   0.920
 2324SOL     OW18850   3.186   4.104  20.952
 2324SOL    HW118851   3.268   4.058  20.934
 2324SOL    HW218852   3.162   4.142  20.867
 2325SOL     OW18853   2.813   1.772  20.511
 2325SOL    HW118854   2.820   1.770  20.607
 2325SOL    HW218855   2.743   1.710  20.490
 2326SOL     OW18856   4.244   4.398   2.587
 2326SOL    HW118857   4.192   4.466   2.631
 2326SOL    HW218858   4.215   4.402   2.495
 2327SOL     OW18859   2.852   3.499   5.507
 2327SOL    HW118860   2.887   3.441   5.574
 2327SOL    HW218861   2.926   3.555   5.483
 2328SOL     OW18862   2.059   3.037   3.985
 2328SOL    HW118863   2.025   3.096   4.052
 2328SOL    HW218864   2.153   3.034   4.001
 2329SOL     OW18865   2.931   0.363   2.639
 2329SOL    HW118866   2.879   0.373   2.719
 2329SOL    HW218867   2.942   0.452   2.606
 2330SOL     OW18868   4.791   4.028  12.972
 2330SOL    HW118869   0.015   3.956  13.033
 2330SOL    HW218870   4.698   4.047  12.984
 2331SOL     OW18871   1.884   0.541  15.292
 2331SOL    HW118872   1.811   0.583  15.247
 2331SOL    HW218873   1.844   0.503  15.371
 2332SOL     OW18874   3.882   0.601  17.415
 2332SOL    HW118875   3.927   0.677  17.452
 2332SOL    HW218876   3.835   0.562  17.489
 2333SOL     OW18877   3.404   2.734   2.494
 2333SOL    HW118878   3.318   2.732   2.536
 2333SOL    HW218879   3.425   2.641   2.480
 2334SOL     OW18880   2.310   1.397  19.264
 2334SOL    HW118881   2.269   1.406  19.178
 2334SOL    HW218882   2.388   1.452  19.259
 2335SOL     OW18883   4.509   1.809   4.012
 2335SOL    HW118884   4.519   1.740   3.947
 2335SOL    HW218885   4.459   1.877   3.968
 2336SOL     OW18886   0.433   3.226  17.515
 2336SOL    HW118887   0.457   3.245  17.424
 2336SOL    HW218888   0.480   3.291  17.567
 2337SOL     OW18889   3.157   2.343   5.302
 2337SOL    HW118890   3.227   2.395   5.341
 2337SOL    HW218891   3.111   2.404   5.244
 2338SOL     OW18892   4.316   1.287  15.173
 2338SOL    HW118893   4.348   1.377  15.169
 2338SOL    HW218894   4.373   1.244  15.236
 2339SOL     OW18895   2.590   1.068  13.253
 2339SOL    HW118896   2.605   1.150  13.300
 2339SOL    HW218897   2.651   1.071  13.180
 2340SOL     OW18898   2.333   0.396   8.932
 2340SOL    HW118899   2.342   0.313   8.980
 2340SOL    HW218900   2.301   0.457   8.998
 2341SOL     OW18901   1.924   1.309   2.129
 2341SOL    HW118902   1.889   1.363   2.200
 2341SOL    HW218903   1.988   1.252   2.172
 2342SOL     OW18904   2.256   4.265   2.040
 2342SOL    HW118905   2.191   4.212   1.994
 2342SOL    HW218906   2.318   4.201   2.076
 2343SOL     OW18907   3.763   2.316  19.546
 2343SOL    HW118908   3.738   2.243  19.489
 2343SOL    HW218909   3.789   2.275  19.628
 2344SOL     OW18910   4.530   3.090  20.701
 2344SOL    HW118911   4.569   3.155  20.759
 2344SOL    HW218912   4.527   3.010  20.754
 2345SOL     OW18913   2.116   4.168  18.420
 2345SOL    HW118914   2.103   4.077  18.394
 2345SOL    HW218915   2.100   4.218  18.340
 2346SOL     OW18916   4.374   2.368  15.788
 2346SOL    HW118917   4.379   2.449  15.838
 2346SOL    HW218918   4.430   2.307  15.837
 2347SOL     OW18919   0.292   3.988  19.088
 2347SOL    HW118920   0.388   3.982  19.089
 2347SOL    HW218921   0.265   3.948  19.171
 2348SOL     OW18922   1.966   1.218  19.804
 2348SOL    HW118923   1.954   1.169  19.886
 2348SOL    HW218924   1.886   1.270  19.796
 2349SOL     OW18925   1.793   3.572  13.511
 2349SOL    HW118926   1.817   3.618  13.591
 2349SOL    HW218927   1.702   3.598  13.494
 2350SOL     OW18928   1.057   1.926   4.705
 2350SOL    HW118929   1.136   1.876   4.725
 2350SOL    HW218930   1.087   2.017   4.698
 2351SOL     OW18931   3.545   0.938   7.075
 2351SOL    HW118932   3.605   1.004   7.039
 2351SOL    HW218933   3.464   0.949   7.024
 2352SOL     OW18934   3.785   4.742  17.777
 2352SOL    HW118935   3.768   4.684  17.703
 2352SOL    HW218936   3.701   4.749  17.822
 2353SOL     OW18937   1.061   0.655   5.600
 2353SOL    HW118938   1.043   0.645   5.693
 2353SOL    HW218939   1.157   0.650   5.594
 2354SOL     OW18940   2.204   1.487  15.209
 2354SOL    HW118941   2.161   1.556  15.259
 2354SOL    HW218942   2.136   1.421  15.196
 2355SOL     OW18943   0.752   3.601   2.959
 2355SOL    HW118944   0.705   3.603   2.876
 2355SOL    HW218945   0.701   3.543   3.015
 2356SOL     OW18946   0.527   0.312  16.997
 2356SOL    HW118947   0.455   0.282  17.053
 2356SOL    HW218948   0.506   0.403  16.978
 2357SOL     OW18949   2.438   2.093  14.550
 2357SOL    HW118950   2.412   2.049  14.469
 2357SOL    HW218951   2.516   2.144  14.526
 2358SOL     OW18952   0.053   0.102   4.311
 2358SOL    HW118953   0.064   0.014   4.346
 2358SOL    HW218954   0.086   0.096   4.221
 2359SOL     OW18955   2.711   1.558   3.429
 2359SOL    HW118956   2.750   1.632   3.476
 2359SOL    HW218957   2.768   1.546   3.352
 2360SOL     OW18958   2.176   2.045   4.515
 2360SOL    HW118959   2.227   2.125   4.525
 2360SOL    HW218960   2.085   2.074   4.516
 2361SOL     OW18961   0.540   4.078   2.745
 2361SOL    HW118962   0.525   4.111   2.834
 2361SOL    HW218963   0.635   4.069   2.739
 2362SOL     OW18964   0.094   1.590  16.764
 2362SOL    HW118965   0.034   1.538  16.818
 2362SOL    HW218966   0.051   1.676  16.757
 2363SOL     OW18967   0.155   1.625  17.322
 2363SOL    HW118968   0.149   1.529  17.321
 2363SOL    HW218969   0.110   1.651  17.402
 2364SOL     OW18970   2.635   3.801  12.965
 2364SOL    HW118971   2.691   3.724  12.974
 2364SOL    HW218972   2.629   3.815  12.870
 2365SOL     OW18973   0.705   3.756  14.043
 2365SOL    HW118974   0.610   3.765  14.046
 2365SOL    HW218975   0.733   3.759  14.134
 2366SOL     OW18976   1.523   2.636  18.680
 2366SOL    HW118977   1.433   2.655  18.705
 2366SOL    HW218978   1.539   2.547  18.714
 2367SOL     OW18979   1.016   0.048   4.353
 2367SOL    HW118980   0.996   0.141   4.369
 2367SOL    HW218981   1.082   0.026   4.420
 2368SOL     OW18982   3.618   0.609   3.164
 2368SOL    HW118983   3.544   0.667   3.148
 2368SOL    HW218984   3.584   0.521   3.148
 2369SOL     OW18985   2.547   2.739   6.164
 2369SOL    HW118986   2.583   2.652   6.150
 2369SOL    HW218987   2.598   2.775   6.237
 2370SOL     OW18988   0.250   0.815   1.308
 2370SOL    HW118989   0.284   0.842   1.222
 2370SOL    HW218990   0.293   0.874   1.370
 2371SOL     OW18991   1.779   0.975   2.255
 2371SOL    HW118992   1.799   1.028   2.178
 2371SOL    HW218993   1.690   0.942   2.239
 2372SOL     OW18994   0.825   0.551  16.532
 2372SOL    HW118995   0.906   0.527  16.578
 2372SOL    HW218996   0.810   0.642  16.557
 2373SOL     OW18997   2.514   0.372   2.676
 2373SOL    HW118998   2.423   0.352   2.655
 2373SOL    HW218999   2.565   0.306   2.630
 2374SOL     OW19000   1.289   4.017   3.942
 2374SOL    HW119001   1.272   4.018   4.036
 2374SOL    HW219002   1.338   4.098   3.925
 2375SOL     OW19003   0.558   0.155  18.693
 2375SOL    HW119004   0.637   0.102  18.706
 2375SOL    HW219005   0.494   0.094  18.656
 2376SOL     OW19006   1.575   2.671  20.263
 2376SOL    HW119007   1.567   2.765  20.278
 2376SOL    HW219008   1.514   2.653  20.191
 2377SOL     OW19009   3.040   3.005  20.918
 2377SOL    HW119010   2.994   2.927  20.949
 2377SOL    HW219011   3.021   3.008  20.824
 2378SOL     OW19012   4.398   4.251   1.066
 2378SOL    HW119013   4.411   4.306   1.143
 2378SOL    HW219014   4.360   4.310   1.001
 2379SOL     OW19015   2.230   2.693   1.519
 2379SOL    HW119016   2.209   2.643   1.598
 2379SOL    HW219017   2.170   2.658   1.452
 2380SOL     OW19018   2.564   3.123   7.216
 2380SOL    HW119019   2.621   3.147   7.289
 2380SOL    HW219020   2.490   3.079   7.258
 2381SOL     OW19021   0.528   2.721  20.472
 2381SOL    HW119022   0.527   2.786  20.542
 2381SOL    HW219023   0.606   2.669  20.489
 2382SOL     OW19024   1.017   3.327  15.697
 2382SOL    HW119025   0.937   3.330  15.646
 2382SOL    HW219026   0.992   3.285  15.780
 2383SOL     OW19027   4.346   4.765   4.548
 2383SOL    HW119028   4.261   4.743   4.585
 2383SOL    HW219029   4.393   4.682   4.544
 2384SOL     OW19030   3.679   1.212  15.119
 2384SOL    HW119031   3.719   1.126  15.130
 2384SOL    HW219032   3.635   1.229  15.203
 2385SOL     OW19033   2.857   1.832   0.428
 2385SOL    HW119034   2.928   1.855   0.488
 2385SOL    HW219035   2.884   1.750   0.388
 2386SOL     OW19036   4.264   2.749   3.488
 2386SOL    HW119037   4.295   2.820   3.544
 2386SOL    HW219038   4.178   2.778   3.456
 2387SOL     OW19039   0.920   3.657  14.509
 2387SOL    HW119040   0.912   3.704  14.426
 2387SOL    HW219041   0.852   3.695  14.565
 2388SOL     OW19042   2.647   4.244   3.913
 2388SOL    HW119043   2.690   4.263   3.997
 2388SOL    HW219044   2.632   4.330   3.874
 2389SOL     OW19045   2.189   1.368  18.486
 2389SOL    HW119046   2.146   1.424  18.422
 2389SOL    HW219047   2.264   1.331  18.439
 2390SOL     OW19048   2.343   2.465  20.028
 2390SOL    HW119049   2.348   2.375  20.061
 2390SOL    HW219050   2.250   2.488  20.037
 2391SOL     OW19051   4.540   1.232   3.079
 2391SOL    HW119052   4.614   1.172   3.077
 2391SOL    HW219053   4.500   1.217   3.165
 2392SOL     OW19054   4.551   0.553   6.073
 2392SOL    HW119055   4.495   0.589   6.141
 2392SOL    HW219056   4.528   0.460   6.070
 2393SOL     OW19057   0.007   2.457  16.318
 2393SOL    HW119058   0.094   2.417  16.321
 2393SOL    HW219059   4.758   2.429  16.398
 2394SOL     OW19060   0.827   1.975  17.043
 2394SOL    HW119061   0.792   1.889  17.019
 2394SOL    HW219062   0.913   1.978  17.001
 2395SOL     OW19063   4.154   2.232   0.310
 2395SOL    HW119064   4.147   2.292   0.236
 2395SOL    HW219065   4.245   2.200   0.306
 2396SOL     OW19066   4.362   2.619  20.431
 2396SOL    HW119067   4.430   2.574  20.480
 2396SOL    HW219068   4.292   2.555  20.422
 2397SOL     OW19069   3.817   0.300   3.796
 2397SOL    HW119070   3.837   0.233   3.730
 2397SOL    HW219071   3.902   0.320   3.835
 2398SOL     OW19072   4.007   2.731  18.558
 2398SOL    HW119073   4.049   2.652  18.591
 2398SOL    HW219074   3.963   2.704  18.478
 2399SOL     OW19075   2.914   4.579   3.247
 2399SOL    HW119076   2.892   4.512   3.312
 2399SOL    HW219077   2.850   4.649   3.262
 2400SOL     OW19078   4.134   3.943  17.368
 2400SOL    HW119079   4.071   3.933  17.297
 2400SOL    HW219080   4.114   3.871  17.428
 2401SOL     OW19081   2.422   2.471  14.446
 2401SOL    HW119082   2.448   2.545  14.392
 2401SOL    HW219083   2.493   2.461  14.509
 2402SOL     OW19084   3.365   4.427   1.480
 2402SOL    HW119085   3.439   4.371   1.507
 2402SOL    HW219086   3.296   4.365   1.457
 2403SOL     OW19087   4.520   2.506  18.338
 2403SOL    HW119088   4.611   2.518  18.363
 2403SOL    HW219089   4.504   2.571  18.270
 2404SOL     OW19090   1.848   4.656   2.550
 2404SOL    HW119091   1.902   4.722   2.592
 2404SOL    HW219092   1.857   4.674   2.456
 2405SOL     OW19093   0.508   1.505   4.979
 2405SOL    HW119094   0.543   1.476   4.895
 2405SOL    HW219095   0.484   1.597   4.965
 2406SOL     OW19096   1.418   2.831  15.569
 2406SOL    HW119097   1.491   2.821  15.631
 2406SOL    HW219098   1.356   2.889  15.614
 2407SOL     OW19099   3.900   4.439   0.134
 2407SOL    HW119100   3.843   4.422   0.058
 2407SOL    HW219101   3.882   4.366   0.193
 2408SOL     OW19102   3.483   3.203   1.824
 2408SOL    HW119103   3.507   3.138   1.758
 2408SOL    HW219104   3.461   3.151   1.902
 2409SOL     OW19105   3.060   1.468   6.824
 2409SOL    HW119106   3.093   1.378   6.828
 2409SOL    HW219107   3.024   1.476   6.736
 2410SOL     OW19108   0.965   4.216   0.112
 2410SOL    HW119109   0.922   4.174   0.186
 2410SOL    HW219110   0.896   4.267   0.070
 2411SOL     OW19111   1.971   4.721   0.524
 2411SOL    HW119112   2.067   4.720   0.520
 2411SOL    HW219113   1.952   4.772   0.603
 2412SOL     OW19114   1.267   4.123   1.063
 2412SOL    HW119115   1.188   4.095   1.109
 2412SOL    HW219116   1.243   4.124   0.971
 2413SOL     OW19117   3.863   1.007  20.401
 2413SOL    HW119118   3.877   0.949  20.327
 2413SOL    HW219119   3.818   1.083  20.364
 2414SOL     OW19120   3.938   1.318  18.665
 2414SOL    HW119121   3.897   1.233  18.682
 2414SOL    HW219122   3.944   1.323  18.570
 2415SOL     OW19123   4.067   2.958   1.720
 2415SOL    HW119124   3.987   2.961   1.773
 2415SOL    HW219125   4.096   3.049   1.716
 2416SOL     OW19126   2.280   1.917   2.513
 2416SOL    HW119127   2.200   1.875   2.546
 2416SOL    HW219128   2.311   1.858   2.445
 2417SOL     OW19129   4.368   1.604   1.963
 2417SOL    HW119130   4.450   1.650   1.947
 2417SOL    HW219131   4.386   1.514   1.935
 2418SOL     OW19132   3.988   1.411  20.447
 2418SOL    HW119133   4.044   1.362  20.386
 2418SOL    HW219134   3.972   1.494  20.404
 2419SOL     OW19135   2.056   2.303  16.228
 2419SOL    HW119136   2.151   2.318  16.230
 2419SOL    HW219137   2.045   2.228  16.169
 2420SOL     OW19138   2.546   2.760   5.738
 2420SOL    HW119139   2.640   2.759   5.751
 2420SOL    HW219140   2.511   2.807   5.813
 2421SOL     OW19141   2.666   0.689  14.865
 2421SOL    HW119142   2.715   0.768  14.887
 2421SOL    HW219143   2.648   0.697  14.771
 2422SOL     OW19144   1.376   1.424   1.131
 2422SOL    HW119145   1.401   1.501   1.181
 2422SOL    HW219146   1.283   1.411   1.150
 2423SOL     OW19147   2.042   4.310   3.706
 2423SOL    HW119148   2.081   4.229   3.739
 2423SOL    HW219149   1.947   4.295   3.714
 2424SOL     OW19150   3.975   3.300   4.017
 2424SOL    HW119151   3.969   3.286   4.112
 2424SOL    HW219152   4.059   3.263   3.992
 2425SOL     OW19153   3.518   0.281   8.088
 2425SOL    HW119154   3.435   0.261   8.044
 2425SOL    HW219155   3.585   0.246   8.030
 2426SOL     OW19156   3.835   4.436  14.808
 2426SOL    HW119157   3.879   4.521  14.807
 2426SOL    HW219158   3.816   4.418  14.716
 2427SOL     OW19159   1.153   0.226   3.482
 2427SOL    HW119160   1.141   0.211   3.388
 2427SOL    HW219161   1.107   0.154   3.524
 2428SOL     OW19162   3.276   3.452   3.218
 2428SOL    HW119163   3.251   3.516   3.285
 2428SOL    HW219164   3.285   3.503   3.138
 2429SOL     OW19165   1.190   2.171  18.020
 2429SOL    HW119166   1.208   2.260  17.991
 2429SOL    HW219167   1.124   2.181  18.089
 2430SOL     OW19168   1.159   1.185   2.855
 2430SOL    HW119169   1.093   1.202   2.922
 2430SOL    HW219170   1.228   1.249   2.873
 2431SOL     OW19171   4.249   1.534   5.916
 2431SOL    HW119172   4.326   1.508   5.865
 2431SOL    HW219173   4.274   1.518   6.007
 2432SOL     OW19174   4.651   2.221   0.443
 2432SOL    HW119175   4.742   2.216   0.414
 2432SOL    HW219176   4.635   2.137   0.487
 2433SOL     OW19177   2.697   3.513   4.040
 2433SOL    HW119178   2.604   3.532   4.035
 2433SOL    HW219179   2.731   3.536   3.953
 2434SOL     OW19180   1.853   1.789   5.806
 2434SOL    HW119181   1.901   1.760   5.728
 2434SOL    HW219182   1.851   1.884   5.799
 2435SOL     OW19183   0.987   1.727   1.265
 2435SOL    HW119184   1.030   1.787   1.203
 2435SOL    HW219185   1.044   1.650   1.268
 2436SOL     OW19186   0.078   0.941   0.587
 2436SOL    HW119187   0.118   0.866   0.543
 2436SOL    HW219188   0.084   1.012   0.522
 2437SOL     OW19189   4.125   3.001   4.876
 2437SOL    HW119190   4.076   3.076   4.909
 2437SOL    HW219191   4.160   3.030   4.792
 2438SOL     OW19192   2.138   1.508   7.306
 2438SOL    HW119193   2.097   1.558   7.376
 2438SOL    HW219194   2.232   1.525   7.316
 2439SOL     OW19195   3.326   2.038  17.828
 2439SOL    HW119196   3.232   2.030  17.811
 2439SOL    HW219197   3.336   2.125  17.868
 2440SOL     OW19198   3.820   1.874  17.971
 2440SOL    HW119199   3.771   1.849  17.892
 2440SOL    HW219200   3.864   1.794  17.998
 2441SOL     OW19201   0.130   2.709  18.596
 2441SOL    HW119202   0.185   2.787  18.586
 2441SOL    HW219203   0.041   2.739  18.577
 2442SOL     OW19204   0.607   4.425   3.988
 2442SOL    HW119205   0.544   4.401   4.056
 2442SOL    HW219206   0.587   4.367   3.915
 2443SOL     OW19207   0.678   2.971   0.165
 2443SOL    HW119208   0.626   3.040   0.124
 2443SOL    HW219209   0.761   3.013   0.187
 2444SOL     OW19210   4.424   2.927  17.679
 2444SOL    HW119211   4.385   2.844  17.652
 2444SOL    HW219212   4.353   2.991  17.673
 2445SOL     OW19213   0.375   2.468  14.326
 2445SOL    HW119214   0.327   2.399  14.279
 2445SOL    HW219215   0.408   2.424  14.405
 2446SOL     OW19216   0.920   1.118  19.605
 2446SOL    HW119217   0.982   1.174  19.557
 2446SOL    HW219218   0.883   1.061  19.538
 2447SOL     OW19219   0.737   3.796  14.319
 2447SOL    HW119220   0.746   3.883  14.359
 2447SOL    HW219221   0.643   3.780  14.317
 2448SOL     OW19222   1.813   4.485  18.843
 2448SOL    HW119223   1.846   4.431  18.915
 2448SOL    HW219224   1.722   4.504  18.866
 2449SOL     OW19225   1.507   1.184   1.072
 2449SOL    HW119226   1.462   1.172   0.988
 2449SOL    HW219227   1.467   1.261   1.110
 2450SOL     OW19228   4.024   4.280  17.904
 2450SOL    HW119229   4.068   4.318  17.828
 2450SOL    HW219230   3.944   4.242  17.868
 2451SOL     OW19231   1.934   1.227   6.284
 2451SOL    HW119232   2.000   1.159   6.297
 2451SOL    HW219233   1.965   1.277   6.209
 2452SOL     OW19234   3.894   1.079  15.359
 2452SOL    HW119235   3.906   1.165  15.398
 2452SOL    HW219236   3.921   1.017  15.427
 2453SOL     OW19237   2.801   1.391  19.593
 2453SOL    HW119238   2.869   1.325  19.610
 2453SOL    HW219239   2.726   1.341  19.561
 2454SOL     OW19240   0.647   0.776   7.198
 2454SOL    HW119241   0.727   0.800   7.151
 2454SOL    HW219242   0.579   0.773   7.130
 2455SOL     OW19243   3.740   4.048   3.173
 2455SOL    HW119244   3.754   4.099   3.093
 2455SOL    HW219245   3.799   3.973   3.165
 2456SOL     OW19246   3.906   4.154   3.378
 2456SOL    HW119247   3.847   4.150   3.303
 2456SOL    HW219248   3.989   4.118   3.346
 2457SOL     OW19249   1.575   1.310  20.449
 2457SOL    HW119250   1.666   1.279  20.441
 2457SOL    HW219251   1.579   1.379  20.515
 2458SOL     OW19252   4.792   0.555  12.645
 2458SOL    HW119253   4.792   0.648  12.624
 2458SOL    HW219254   4.731   0.546  12.717
 2459SOL     OW19255   0.315   3.896  18.305
 2459SOL    HW119256   0.410   3.910  18.305
 2459SOL    HW219257   0.288   3.913  18.395
 2460SOL     OW19258   2.722   0.047   7.302
 2460SOL    HW119259   2.726   4.792   7.220
 2460SOL    HW219260   2.628   0.060   7.318
 2461SOL     OW19261   1.121   0.185   3.197
 2461SOL    HW119262   1.194   0.151   3.144
 2461SOL    HW219263   1.075   0.106   3.227
 2462SOL     OW19264   3.964   3.781  20.708
 2462SOL    HW119265   3.977   3.758  20.616
 2462SOL    HW219266   3.874   3.754  20.727
 2463SOL     OW19267   1.811   2.257  20.490
 2463SOL    HW119268   1.752   2.331  20.490
 2463SOL    HW219269   1.767   2.190  20.542
 2464SOL     OW19270   3.000   2.122  19.377
 2464SOL    HW119271   3.044   2.042  19.348
 2464SOL    HW219272   3.071   2.184  19.392
 2465SOL     OW19273   3.906   4.291   1.385
 2465SOL    HW119274   3.985   4.320   1.339
 2465SOL    HW219275   3.834   4.319   1.328
 2466SOL     OW19276   3.551   0.576   4.199
 2466SOL    HW119277   3.483   0.631   4.237
 2466SOL    HW219278   3.633   0.614   4.230
 2467SOL     OW19279   2.224   0.952   1.414
 2467SOL    HW119280   2.184   0.965   1.499
 2467SOL    HW219281   2.311   0.918   1.433
 2468SOL     OW19282   1.655   4.170   6.950
 2468SOL    HW119283   1.714   4.136   6.882
 2468SOL    HW219284   1.714   4.198   7.020
 2469SOL     OW19285   2.737   3.829   4.684
 2469SOL    HW119286   2.797   3.899   4.658
 2469SOL    HW219287   2.786   3.748   4.668
 2470SOL     OW19288   1.590   0.871  19.138
 2470SOL    HW119289   1.656   0.924  19.182
 2470SOL    HW219290   1.547   0.931  19.077
 2471SOL     OW19291   2.094   1.965  17.534
 2471SOL    HW119292   2.060   1.876  17.535
 2471SOL    HW219293   2.135   1.976  17.620
 2472SOL     OW19294   4.174   4.561  19.739
 2472SOL    HW119295   4.172   4.530  19.830
 2472SOL    HW219296   4.238   4.504  19.696
 2473SOL     OW19297   1.399   1.182   1.776
 2473SOL    HW119298   1.433   1.115   1.717
 2473SOL    HW219299   1.475   1.209   1.828
 2474SOL     OW19300   2.889   0.122  17.769
 2474SOL    HW119301   2.864   0.138  17.860
 2474SOL    HW219302   2.895   0.208  17.729
 2475SOL     OW19303   4.197   2.531  18.827
 2475SOL    HW119304   4.120   2.511  18.774
 2475SOL    HW219305   4.168   2.601  18.886
 2476SOL     OW19306   1.246   3.436   5.451
 2476SOL    HW119307   1.159   3.420   5.486
 2476SOL    HW219308   1.284   3.348   5.440
 2477SOL     OW19309   3.450   2.460   1.677
 2477SOL    HW119310   3.410   2.378   1.650
 2477SOL    HW219311   3.390   2.496   1.743
 2478SOL     OW19312   4.066   1.862  17.667
 2478SOL    HW119313   4.028   1.940  17.627
 2478SOL    HW219314   4.105   1.814  17.593
 2479SOL     OW19315   2.178   3.737  16.879
 2479SOL    HW119316   2.210   3.753  16.790
 2479SOL    HW219317   2.257   3.733  16.933
 2480SOL     OW19318   3.951   3.465   4.587
 2480SOL    HW119319   3.874   3.434   4.635
 2480SOL    HW219320   3.942   3.560   4.586
 2481SOL     OW19321   3.737   3.923  17.619
 2481SOL    HW119322   3.811   3.864  17.632
 2481SOL    HW219323   3.664   3.881  17.665
 2482SOL     OW19324   3.715   2.300   0.859
 2482SOL    HW119325   3.705   2.207   0.836
 2482SOL    HW219326   3.775   2.300   0.932
 2483SOL     OW19327   1.583   0.876  15.940
 2483SOL    HW119328   1.666   0.882  15.892
 2483SOL    HW219329   1.530   0.816  15.887
 2484SOL     OW19330   4.260   4.501  16.426
 2484SOL    HW119331   4.166   4.512  16.436
 2484SOL    HW219332   4.291   4.470  16.511
 2485SOL     OW19333   2.847   1.700  14.850
 2485SOL    HW119334   2.897   1.619  14.845
 2485SOL    HW219335   2.764   1.675  14.890
 2486SOL     OW19336   1.855   0.164  16.226
 2486SOL    HW119337   1.875   0.190  16.316
 2486SOL    HW219338   1.818   0.076  16.233
 2487SOL     OW19339   0.957   4.056   3.657
 2487SOL    HW119340   0.958   4.132   3.598
 2487SOL    HW219341   1.049   4.029   3.661
 2488SOL     OW19342   0.933   4.176  17.887
 2488SOL    HW119343   1.003   4.118  17.918
 2488SOL    HW219344   0.972   4.264  17.891
 2489SOL     OW19345   1.796   1.659  16.471
 2489SOL    HW119346   1.836   1.744  16.459
 2489SOL    HW219347   1.719   1.660  16.414
 2490SOL     OW19348   4.641   3.972  19.076
 2490SOL    HW119349   4.666   4.037  19.142
 2490SOL    HW219350   4.630   3.891  19.125
 2491SOL     OW19351   3.997   4.030   2.469
 2491SOL    HW119352   3.909   3.996   2.450
 2491SOL    HW219353   3.982   4.107   2.523
 2492SOL     OW19354   2.571   4.619   6.341
 2492SOL    HW119355   2.578   4.524   6.344
 2492SOL    HW219356   2.528   4.639   6.258
 2493SOL     OW19357   3.598   1.373   6.378
 2493SOL    HW119358   3.593   1.285   6.415
 2493SOL    HW219359   3.625   1.429   6.451
 2494SOL     OW19360   2.377   3.641   1.381
 2494SOL    HW119361   2.362   3.695   1.303
 2494SOL    HW219362   2.410   3.703   1.446
 2495SOL     OW19363   3.480   4.613   0.072
 2495SOL    HW119364   3.392   4.611   0.110
 2495SOL    HW219365   3.492   4.704   0.045
 2496SOL     OW19366   1.678   2.500  17.254
 2496SOL    HW119367   1.618   2.567  17.220
 2496SOL    HW219368   1.688   2.438  17.182
 2497SOL     OW19369   1.509   1.514   6.589
 2497SOL    HW119370   1.487   1.603   6.562
 2497SOL    HW219371   1.443   1.492   6.654
 2498SOL     OW19372   2.506   0.023   2.682
 2498SOL    HW119373   2.420   0.050   2.650
 2498SOL    HW219374   2.568   0.076   2.631
 2499SOL     OW19375   1.925   3.737  16.154
 2499SOL    HW119376   1.971   3.711  16.233
 2499SOL    HW219377   1.989   3.726  16.083
 2500SOL     OW19378   1.273   1.510   7.364
 2500SOL    HW119379   1.252   1.503   7.458
 2500SOL    HW219380   1.196   1.553   7.326
 2501SOL     OW19381   3.925   2.984  15.075
 2501SOL    HW119382   3.835   2.960  15.093
 2501SOL    HW219383   3.942   2.952  14.987
 2502SOL     OW19384   4.578   3.746  19.196
 2502SOL    HW119385   4.499   3.693  19.189
 2502SOL    HW219386   4.586   3.765  19.290
 2503SOL     OW19387   1.375   4.032  20.783
 2503SOL    HW119388   1.414   4.099  20.727
 2503SOL    HW219389   1.368   4.074  20.869
 2504SOL     OW19390   0.297   1.725   2.936
 2504SOL    HW119391   0.268   1.730   2.845
 2504SOL    HW219392   0.389   1.751   2.933
 2505SOL     OW19393   4.363   2.373  19.175
 2505SOL    HW119394   4.338   2.462  19.199
 2505SOL    HW219395   4.286   2.320  19.195
 2506SOL     OW19396   0.526   3.918   0.046
 2506SOL    HW119397   0.549   4.000   0.003
 2506SOL    HW219398   0.488   3.865  21.252
 2507SOL     OW19399   1.358   1.039  19.328
 2507SOL    HW119400   1.346   0.992  19.411
 2507SOL    HW219401   1.444   1.012  19.297
 2508SOL     OW19402   3.591   0.330   2.085
 2508SOL    HW119403   3.586   0.413   2.039
 2508SOL    HW219404   3.667   0.286   2.046
 2509SOL     OW19405   1.919   2.574  18.283
 2509SOL    HW119406   1.945   2.507  18.221
 2509SOL    HW219407   1.859   2.530  18.344
 2510SOL     OW19408   1.624   3.048  18.170
 2510SOL    HW119409   1.652   3.130  18.212
 2510SOL    HW219410   1.611   3.072  18.078
 2511SOL     OW19411   3.817   3.152   1.612
 2511SOL    HW119412   3.756   3.204   1.559
 2511SOL    HW219413   3.891   3.211   1.628
 2512SOL     OW19414   4.184   2.395   9.359
 2512SOL    HW119415   4.168   2.354   9.444
 2512SOL    HW219416   4.233   2.475   9.379
 2513SOL     OW19417   2.918   1.001   2.074
 2513SOL    HW119418   3.013   1.006   2.087
 2513SOL    HW219419   2.908   0.939   2.002
 2514SOL     OW19420   1.707   1.762   4.153
 2514SOL    HW119421   1.667   1.741   4.237
 2514SOL    HW219422   1.791   1.715   4.155
 2515SOL     OW19423   3.091   2.785   5.690
 2515SOL    HW119424   3.150   2.782   5.766
 2515SOL    HW219425   3.076   2.878   5.674
 2516SOL     OW19426   1.436   3.472   2.209
 2516SOL    HW119427   1.397   3.507   2.129
 2516SOL    HW219428   1.403   3.382   2.214
 2517SOL     OW19429   2.181   4.088   3.883
 2517SOL    HW119430   2.131   4.008   3.900
 2517SOL    HW219431   2.207   4.119   3.970
 2518SOL     OW19432   0.545   2.394  20.793
 2518SOL    HW119433   0.617   2.332  20.781
 2518SOL    HW219434   0.474   2.340  20.830
 2519SOL     OW19435   0.991   4.234   5.388
 2519SOL    HW119436   1.072   4.187   5.409
 2519SOL    HW219437   0.942   4.174   5.332
 2520SOL     OW19438   1.473   0.780   2.216
 2520SOL    HW119439   1.510   0.827   2.290
 2520SOL    HW219440   1.536   0.793   2.145
 2521SOL     OW19441   1.473   0.275   5.375
 2521SOL    HW119442   1.426   0.192   5.387
 2521SOL    HW219443   1.550   0.252   5.324
 2522SOL     OW19444   3.936   1.403   4.107
 2522SOL    HW119445   4.020   1.417   4.150
 2522SOL    HW219446   3.887   1.346   4.168
 2523SOL     OW19447   0.912   2.752  19.826
 2523SOL    HW119448   0.847   2.685  19.843
 2523SOL    HW219449   0.867   2.835  19.842
 2524SOL     OW19450   4.634   3.080  18.747
 2524SOL    HW119451   4.598   3.114  18.666
 2524SOL    HW219452   4.571   3.012  18.774
 2525SOL     OW19453   2.838   1.535  21.233
 2525SOL    HW119454   2.772   1.490  21.181
 2525SOL    HW219455   2.908   1.556  21.171
 2526SOL     OW19456   1.345   3.969  11.053
 2526SOL    HW119457   1.256   3.948  11.083
 2526SOL    HW219458   1.332   4.010  10.968
 2527SOL     OW19459   0.573   3.546   2.759
 2527SOL    HW119460   0.517   3.550   2.837
 2527SOL    HW219461   0.514   3.522   2.688
 2528SOL     OW19462   1.090   4.563  12.834
 2528SOL    HW119463   1.159   4.498  12.818
 2528SOL    HW219464   1.083   4.611  12.751
 2529SOL     OW19465   1.022   1.606  15.368
 2529SOL    HW119466   1.063   1.633  15.286
 2529SOL    HW219467   0.934   1.643  15.365
 2530SOL     OW19468   3.223   1.836  16.350
 2530SOL    HW119469   3.152   1.896  16.331
 2530SOL    HW219470   3.199   1.796  16.434
 2531SOL     OW19471   1.360   2.680   2.853
 2531SOL    HW119472   1.324   2.599   2.816
 2531SOL    HW219473   1.352   2.669   2.947
 2532SOL     OW19474   4.626   0.602  19.994
 2532SOL    HW119475   4.629   0.572  19.903
 2532SOL    HW219476   4.717   0.615  20.018
 2533SOL     OW19477   3.876   3.241   7.770
 2533SOL    HW119478   3.787   3.274   7.766
 2533SOL    HW219479   3.907   3.242   7.679
 2534SOL     OW19480   1.753   2.097  18.151
 2534SOL    HW119481   1.660   2.116  18.151
 2534SOL    HW219482   1.784   2.125  18.064
 2535SOL     OW19483   1.840   0.270  20.274
 2535SOL    HW119484   1.785   0.307  20.204
 2535SOL    HW219485   1.819   0.322  20.351
 2536SOL     OW19486   0.600   3.052  18.843
 2536SOL    HW119487   0.631   2.962  18.829
 2536SOL    HW219488   0.638   3.102  18.771
 2537SOL     OW19489   0.746   3.587  17.884
 2537SOL    HW119490   0.823   3.627  17.844
 2537SOL    HW219491   0.706   3.658  17.934
 2538SOL     OW19492   1.817   4.014  18.986
 2538SOL    HW119493   1.841   3.965  19.064
 2538SOL    HW219494   1.722   4.003  18.978
 2539SOL     OW19495   1.436   2.122   3.949
 2539SOL    HW119496   1.432   2.030   3.921
 2539SOL    HW219497   1.518   2.128   4.000
 2540SOL     OW19498   1.239   1.704  15.621
 2540SOL    HW119499   1.229   1.735  15.531
 2540SOL    HW219500   1.303   1.633  15.615
 2541SOL     OW19501   4.608   2.461   1.901
 2541SOL    HW119502   4.668   2.432   1.832
 2541SOL    HW219503   4.594   2.554   1.885
 2542SOL     OW19504   4.440   4.019   0.381
 2542SOL    HW119505   4.345   4.008   0.379
 2542SOL    HW219506   4.460   4.074   0.305
 2543SOL     OW19507   4.038   0.468  10.378
 2543SOL    HW119508   4.125   0.490  10.414
 2543SOL    HW219509   4.006   0.399  10.436
 2544SOL     OW19510   2.521   4.565  17.635
 2544SOL    HW119511   2.477   4.540  17.553
 2544SOL    HW219512   2.603   4.514  17.634
 2545SOL     OW19513   2.002   0.544   1.140
 2545SOL    HW119514   2.075   0.515   1.195
 2545SOL    HW219515   2.036   0.621   1.094
 2546SOL     OW19516   1.963   1.566   5.121
 2546SOL    HW119517   2.002   1.534   5.202
 2546SOL    HW219518   2.003   1.513   5.052
 2547SOL     OW19519   2.287   3.003  12.697
 2547SOL    HW119520   2.230   2.926  12.694
 2547SOL    HW219521   2.343   2.995  12.619
 2548SOL     OW19522   2.291   3.716   3.985
 2548SOL    HW119523   2.247   3.715   3.900
 2548SOL    HW219524   2.381   3.741   3.965
 2549SOL     OW19525   0.960   0.378   5.953
 2549SOL    HW119526   1.009   0.295   5.946
 2549SOL    HW219527   1.018   0.443   5.913
 2550SOL     OW19528   3.724   0.976  17.571
 2550SOL    HW119529   3.709   0.955  17.479
 2550SOL    HW219530   3.807   1.024  17.571
 2551SOL     OW19531   4.105   4.756   1.358
 2551SOL    HW119532   4.105   0.051   1.395
 2551SOL    HW219533   4.028   4.753   1.302
 2552SOL     OW19534   4.356   3.956   1.402
 2552SOL    HW119535   4.451   3.953   1.391
 2552SOL    HW219536   4.334   3.872   1.443
 2553SOL     OW19537   3.689   2.609   4.083
 2553SOL    HW119538   3.618   2.549   4.108
 2553SOL    HW219539   3.693   2.672   4.154
 2554SOL     OW19540   2.684   4.333  16.044
 2554SOL    HW119541   2.755   4.396  16.053
 2554SOL    HW219542   2.627   4.370  15.976
 2555SOL     OW19543   4.045   0.456  20.154
 2555SOL    HW119544   4.036   0.420  20.243
 2555SOL    HW219545   3.957   0.451  20.117
 2556SOL     OW19546   1.093   0.465  18.050
 2556SOL    HW119547   1.160   0.510  18.101
 2556SOL    HW219548   1.138   0.390  18.012
 2557SOL     OW19549   4.160   0.986  18.754
 2557SOL    HW119550   4.200   0.968  18.669
 2557SOL    HW219551   4.229   0.968  18.818
 2558SOL     OW19552   1.554   4.261   4.496
 2558SOL    HW119553   1.523   4.174   4.470
 2558SOL    HW219554   1.513   4.321   4.433
 2559SOL     OW19555   1.875   2.752   9.050
 2559SOL    HW119556   1.918   2.837   9.056
 2559SOL    HW219557   1.944   2.689   9.068
 2560SOL     OW19558   3.929   1.567  19.475
 2560SOL    HW119559   3.959   1.611  19.555
 2560SOL    HW219560   3.966   1.619  19.404
 2561SOL     OW19561   1.268   1.799  19.622
 2561SOL    HW119562   1.341   1.832  19.571
 2561SOL    HW219563   1.294   1.710  19.647
 2562SOL     OW19564   3.216   0.682   3.212
 2562SOL    HW119565   3.278   0.742   3.169
 2562SOL    HW219566   3.267   0.639   3.280
 2563SOL     OW19567   3.673   0.937  15.536
 2563SOL    HW119568   3.593   0.961  15.491
 2563SOL    HW219569   3.713   1.020  15.562
 2564SOL     OW19570   1.033   1.694   2.272
 2564SOL    HW119571   1.039   1.662   2.182
 2564SOL    HW219572   0.972   1.635   2.315
 2565SOL     OW19573   0.751   2.383   3.864
 2565SOL    HW119574   0.749   2.465   3.816
 2565SOL    HW219575   0.781   2.319   3.800
 2566SOL     OW19576   1.825   0.401  19.897
 2566SOL    HW119577   1.758   0.361  19.953
 2566SOL    HW219578   1.799   0.493  19.891
 2567SOL     OW19579   2.890   0.964  18.467
 2567SOL    HW119580   2.889   0.945  18.373
 2567SOL    HW219581   2.939   0.892  18.505
 2568SOL     OW19582   3.261   1.901  16.723
 2568SOL    HW119583   3.223   1.885  16.809
 2568SOL    HW219584   3.311   1.821  16.704
 2569SOL     OW19585   1.933   3.445  17.572
 2569SOL    HW119586   1.884   3.392  17.509
 2569SOL    HW219587   2.002   3.387  17.603
 2570SOL     OW19588   0.082   2.035  21.089
 2570SOL    HW119589   0.014   2.094  21.057
 2570SOL    HW219590   0.034   1.957  21.118
 2571SOL     OW19591   3.524   4.043  12.453
 2571SOL    HW119592   3.618   4.059  12.463
 2571SOL    HW219593   3.519   3.973  12.388
 2572SOL     OW19594   1.931   1.951   6.086
 2572SOL    HW119595   1.858   1.984   6.034
 2572SOL    HW219596   1.992   2.025   6.091
 2573SOL     OW19597   2.292   2.468   5.100
 2573SOL    HW119598   2.198   2.452   5.100
 2573SOL    HW219599   2.301   2.560   5.125
 2574SOL     OW19600   0.090   1.750   0.208
 2574SOL    HW119601   0.146   1.716   0.278
 2574SOL    HW219602   0.080   1.677   0.147
 2575SOL     OW19603   4.536   4.625  11.448
 2575SOL    HW119604   4.504   4.699  11.500
 2575SOL    HW219605   4.609   4.590  11.498
 2576SOL     OW19606   0.155   4.376   6.681
 2576SOL    HW119607   0.079   4.377   6.623
 2576SOL    HW219608   0.216   4.316   6.639
 2577SOL     OW19609   3.824   2.403  17.377
 2577SOL    HW119610   3.817   2.376  17.285
 2577SOL    HW219611   3.918   2.395  17.397
 2578SOL     OW19612   0.566   1.888  17.357
 2578SOL    HW119613   0.523   1.907  17.440
 2578SOL    HW219614   0.512   1.821  17.316
 2579SOL     OW19615   0.138   3.308  12.876
 2579SOL    HW119616   0.155   3.219  12.845
 2579SOL    HW219617   0.053   3.331  12.839
 2580SOL     OW19618   1.053   3.300  17.981
 2580SOL    HW119619   1.082   3.295  17.890
 2580SOL    HW219620   1.130   3.273  18.031
 2581SOL     OW19621   0.588   2.819   0.421
 2581SOL    HW119622   0.514   2.861   0.376
 2581SOL    HW219623   0.661   2.825   0.359
 2582SOL     OW19624   4.350   4.557   5.924
 2582SOL    HW119625   4.344   4.480   5.868
 2582SOL    HW219626   4.259   4.574   5.952
 2583SOL     OW19627   2.902   2.180  18.344
 2583SOL    HW119628   2.987   2.154  18.308
 2583SOL    HW219629   2.917   2.187  18.438
 2584SOL     OW19630   4.737   0.983  17.342
 2584SOL    HW119631   4.709   1.069  17.308
 2584SOL    HW219632   4.665   0.924  17.317
 2585SOL     OW19633   4.236   0.187   2.460
 2585SOL    HW119634   4.219   0.272   2.502
 2585SOL    HW219635   4.321   0.198   2.416
 2586SOL     OW19636   3.833   0.838  17.077
 2586SOL    HW119637   3.915   0.816  17.034
 2586SOL    HW219638   3.792   0.902  17.019
 2587SOL     OW19639   1.190   2.891  16.583
 2587SOL    HW119640   1.198   2.977  16.623
 2587SOL    HW219641   1.131   2.843  16.641
 2588SOL     OW19642   2.918   3.173   6.489
 2588SOL    HW119643   2.848   3.128   6.537
 2588SOL    HW219644   2.970   3.216   6.557
 2589SOL     OW19645   4.132   0.619  18.721
 2589SOL    HW119646   4.094   0.701  18.690
 2589SOL    HW219647   4.227   0.632  18.713
 2590SOL     OW19648   2.523   1.097  19.661
 2590SOL    HW119649   2.566   1.155  19.598
 2590SOL    HW219650   2.450   1.060  19.613
 2591SOL     OW19651   2.109   0.548   0.147
 2591SOL    HW119652   2.189   0.595   0.170
 2591SOL    HW219653   2.066   0.604   0.083
 2592SOL     OW19654   0.377   1.713  17.213
 2592SOL    HW119655   0.296   1.684  17.255
 2592SOL    HW219656   0.441   1.644  17.233
 2593SOL     OW19657   3.388   3.563   5.439
 2593SOL    HW119658   3.437   3.629   5.391
 2593SOL    HW219659   3.435   3.481   5.424
 2594SOL     OW19660   3.990   3.746   1.710
 2594SOL    HW119661   3.977   3.678   1.777
 2594SOL    HW219662   3.901   3.766   1.679
 2595SOL     OW19663   3.120   4.124  16.597
 2595SOL    HW119664   3.043   4.076  16.629
 2595SOL    HW219665   3.165   4.151  16.677
 2596SOL     OW19666   2.944   1.247  18.457
 2596SOL    HW119667   2.911   1.168  18.413
 2596SOL    HW219668   3.039   1.241  18.449
 2597SOL     OW19669   2.122   2.114  20.074
 2597SOL    HW119670   2.113   2.129  19.980
 2597SOL    HW219671   2.041   2.147  20.112
 2598SOL     OW19672   4.769   0.078   4.864
 2598SOL    HW119673   4.700   0.020   4.895
 2598SOL    HW219674   4.747   0.164   4.901
 2599SOL     OW19675   2.078   0.172  19.026
 2599SOL    HW119676   2.098   0.141  19.114
 2599SOL    HW219677   2.105   0.100  18.969
 2600SOL     OW19678   2.243   1.661  19.727
 2600SOL    HW119679   2.193   1.592  19.770
 2600SOL    HW219680   2.294   1.616  19.659
 2601SOL     OW19681   0.709   2.229  14.615
 2601SOL    HW119682   0.688   2.190  14.700
 2601SOL    HW219683   0.769   2.167  14.575
 2602SOL     OW19684   3.765   1.102   2.716
 2602SOL    HW119685   3.814   1.038   2.663
 2602SOL    HW219686   3.820   1.181   2.714
 2603SOL     OW19687   0.176   2.696   1.006
 2603SOL    HW119688   0.260   2.719   0.967
 2603SOL    HW219689   0.154   2.771   1.061
 2604SOL     OW19690   3.834   0.334  15.892
 2604SOL    HW119691   3.906   0.272  15.882
 2604SOL    HW219692   3.873   0.410  15.934
 2605SOL     OW19693   4.362   4.253  20.863
 2605SOL    HW119694   4.267   4.244  20.858
 2605SOL    HW219695   4.396   4.179  20.812
 2606SOL     OW19696   4.187   1.356   4.612
 2606SOL    HW119697   4.240   1.404   4.549
 2606SOL    HW219698   4.117   1.317   4.559
 2607SOL     OW19699   3.030   1.646   1.079
 2607SOL    HW119700   2.942   1.633   1.113
 2607SOL    HW219701   3.083   1.669   1.156
 2608SOL     OW19702   1.421   3.812  17.589
 2608SOL    HW119703   1.386   3.724  17.607
 2608SOL    HW219704   1.472   3.801  17.509
 2609SOL     OW19705   4.605   2.738  17.224
 2609SOL    HW119706   4.517   2.774  17.221
 2609SOL    HW219707   4.595   2.647  17.194
 2610SOL     OW19708   2.850   2.813  12.920
 2610SOL    HW119709   2.764   2.815  12.961
 2610SOL    HW219710   2.910   2.793  12.992
 2611SOL     OW19711   0.959   1.233  21.067
 2611SOL    HW119712   0.971   1.229  21.162
 2611SOL    HW219713   0.949   1.142  21.040
 2612SOL     OW19714   2.009   1.126   3.259
 2612SOL    HW119715   2.029   1.123   3.165
 2612SOL    HW219716   2.047   1.210   3.288
 2613SOL     OW19717   2.516   3.942  19.532
 2613SOL    HW119718   2.464   3.925  19.453
 2613SOL    HW219719   2.576   4.012  19.506
 2614SOL     OW19720   4.550   3.464   2.760
 2614SOL    HW119721   4.460   3.446   2.787
 2614SOL    HW219722   4.558   3.559   2.767
 2615SOL     OW19723   0.736   1.868   0.921
 2615SOL    HW119724   0.762   1.924   0.994
 2615SOL    HW219725   0.641   1.864   0.926
 2616SOL     OW19726   0.141   3.610   0.254
 2616SOL    HW119727   0.091   3.691   0.260
 2616SOL    HW219728   0.077   3.543   0.232
 2617SOL     OW19729   0.456   2.838   5.782
 2617SOL    HW119730   0.490   2.874   5.864
 2617SOL    HW219731   0.368   2.875   5.774
 2618SOL     OW19732   2.327   0.998   9.820
 2618SOL    HW119733   2.281   0.920   9.852
 2618SOL    HW219734   2.386   0.964   9.752
 2619SOL     OW19735   2.753   3.078   5.040
 2619SOL    HW119736   2.696   3.007   5.068
 2619SOL    HW219737   2.718   3.105   4.955
 2620SOL     OW19738   0.663   0.791  21.194
 2620SOL    HW119739   0.601   0.847  21.147
 2620SOL    HW219740   0.622   0.777   0.003
 2621SOL     OW19741   1.007   3.450  20.379
 2621SOL    HW119742   1.037   3.488  20.462
 2621SOL    HW219743   1.062   3.491  20.312
 2622SOL     OW19744   2.194   0.040   6.203
 2622SOL    HW119745   2.233   0.086   6.277
 2622SOL    HW219746   2.264   4.779   6.168
 2623SOL     OW19747   0.559   1.326  18.842
 2623SOL    HW119748   0.531   1.413  18.867
 2623SOL    HW219749   0.483   1.270  18.859
 2624SOL     OW19750   2.705   0.369   1.161
 2624SOL    HW119751   2.691   0.374   1.255
 2624SOL    HW219752   2.628   0.322   1.128
 2625SOL     OW19753   3.979   1.807   3.503
 2625SOL    HW119754   3.929   1.886   3.484
 2625SOL    HW219755   4.041   1.833   3.572
 2626SOL     OW19756   2.495   3.303  16.519
 2626SOL    HW119757   2.425   3.304  16.583
 2626SOL    HW219758   2.467   3.239  16.453
 2627SOL     OW19759   1.486   1.088   2.112
 2627SOL    HW119760   1.394   1.111   2.123
 2627SOL    HW219761   1.486   0.993   2.102
 2628SOL     OW19762   0.428   1.026  19.940
 2628SOL    HW119763   0.351   1.081  19.954
 2628SOL    HW219764   0.492   1.085  19.900
 2629SOL     OW19765   1.493   2.316   2.614
 2629SOL    HW119766   1.517   2.407   2.629
 2629SOL    HW219767   1.405   2.320   2.577
 2630SOL     OW19768   1.601   1.267   1.945
 2630SOL    HW119769   1.543   1.342   1.962
 2630SOL    HW219770   1.586   1.209   2.020
 2631SOL     OW19771   4.315   2.073   2.114
 2631SOL    HW119772   4.296   2.021   2.036
 2631SOL    HW219773   4.319   2.163   2.083
 2632SOL     OW19774   3.094   4.541   4.473
 2632SOL    HW119775   3.154   4.615   4.475
 2632SOL    HW219776   3.115   4.494   4.392
 2633SOL     OW19777   0.318   4.102  15.664
 2633SOL    HW119778   0.294   4.020  15.706
 2633SOL    HW219779   0.259   4.167  15.702
 2634SOL     OW19780   0.623   4.726  16.948
 2634SOL    HW119781   0.624   0.027  16.959
 2634SOL    HW219782   0.596   4.692  17.034
 2635SOL     OW19783   4.384   2.673  17.897
 2635SOL    HW119784   4.324   2.712  17.834
 2635SOL    HW219785   4.471   2.686  17.859
 2636SOL     OW19786   0.144   2.059  17.699
 2636SOL    HW119787   0.094   2.078  17.778
 2636SOL    HW219788   0.198   1.983  17.722
 2637SOL     OW19789   2.552   0.036   5.673
 2637SOL    HW119790   2.616   0.105   5.695
 2637SOL    HW219791   2.535   0.049   5.579
 2638SOL     OW19792   1.581   2.384   0.219
 2638SOL    HW119793   1.510   2.325   0.244
 2638SOL    HW219794   1.554   2.420   0.134
 2639SOL     OW19795   3.739   2.717  17.148
 2639SOL    HW119796   3.678   2.791  17.146
 2639SOL    HW219797   3.715   2.664  17.071
 2640SOL     OW19798   0.188   1.557   7.763
 2640SOL    HW119799   0.176   1.499   7.687
 2640SOL    HW219800   0.235   1.503   7.826
 2641SOL     OW19801   3.643   0.746  20.204
 2641SOL    HW119802   3.703   0.733  20.131
 2641SOL    HW219803   3.583   0.671  20.200
 2642SOL     OW19804   2.251   0.357   2.501
 2642SOL    HW119805   2.246   0.349   2.406
 2642SOL    HW219806   2.197   0.433   2.521
 2643SOL     OW19807   0.075   3.885  15.371
 2643SOL    HW119808   0.066   3.942  15.294
 2643SOL    HW219809   4.783   3.844  15.380
 2644SOL     OW19810   0.763   3.402   6.344
 2644SOL    HW119811   0.766   3.402   6.440
 2644SOL    HW219812   0.854   3.389   6.317
 2645SOL     OW19813   2.362   3.696   6.129
 2645SOL    HW119814   2.323   3.730   6.048
 2645SOL    HW219815   2.330   3.606   6.135
 2646SOL     OW19816   3.450   1.664   6.534
 2646SOL    HW119817   3.456   1.612   6.614
 2646SOL    HW219818   3.365   1.708   6.541
 2647SOL     OW19819   0.204   3.194   3.412
 2647SOL    HW119820   0.194   3.130   3.342
 2647SOL    HW219821   0.131   3.176   3.472
 2648SOL     OW19822   3.118   3.282   2.407
 2648SOL    HW119823   3.031   3.261   2.372
 2648SOL    HW219824   3.121   3.377   2.408
 2649SOL     OW19825   3.268   2.572   5.418
 2649SOL    HW119826   3.279   2.664   5.392
 2649SOL    HW219827   3.321   2.563   5.497
 2650SOL     OW19828   1.013   4.777   1.617
 2650SOL    HW119829   0.963   4.698   1.594
 2650SOL    HW219830   1.103   4.755   1.595
 2651SOL     OW19831   3.364   3.177   5.133
 2651SOL    HW119832   3.367   3.250   5.071
 2651SOL    HW219833   3.383   3.216   5.218
 2652SOL     OW19834   3.139   2.155   0.335
 2652SOL    HW119835   3.201   2.141   0.263
 2652SOL    HW219836   3.160   2.243   0.368
 2653SOL     OW19837   2.819   3.842  21.010
 2653SOL    HW119838   2.756   3.897  20.963
 2653SOL    HW219839   2.781   3.831  21.097
 2654SOL     OW19840   1.040   2.051  19.114
 2654SOL    HW119841   1.086   1.982  19.161
 2654SOL    HW219842   0.947   2.031  19.126
 2655SOL     OW19843   3.148   2.596   7.374
 2655SOL    HW119844   3.189   2.579   7.289
 2655SOL    HW219845   3.188   2.532   7.433
 2656SOL     OW19846   4.621   4.449   6.684
 2656SOL    HW119847   4.532   4.413   6.691
 2656SOL    HW219848   4.619   4.500   6.603
 2657SOL     OW19849   4.402   3.250   5.706
 2657SOL    HW119850   4.485   3.239   5.661
 2657SOL    HW219851   4.349   3.174   5.681
 2658SOL     OW19852   0.679   0.494  17.831
 2658SOL    HW119853   0.640   0.509  17.917
 2658SOL    HW219854   0.621   0.430  17.789
 2659SOL     OW19855   3.764   2.796   4.552
 2659SOL    HW119856   3.723   2.729   4.497
 2659SOL    HW219857   3.766   2.875   4.497
 2660SOL     OW19858   3.716   4.299  16.457
 2660SOL    HW119859   3.803   4.336  16.444
 2660SOL    HW219860   3.668   4.321  16.377
 2661SOL     OW19861   0.702   4.200  15.514
 2661SOL    HW119862   0.684   4.180  15.422
 2661SOL    HW219863   0.796   4.219  15.516
 2662SOL     OW19864   0.856   4.398  17.359
 2662SOL    HW119865   0.899   4.317  17.385
 2662SOL    HW219866   0.794   4.372  17.291
 2663SOL     OW19867   0.677   4.537  15.346
 2663SOL    HW119868   0.716   4.617  15.309
 2663SOL    HW219869   0.744   4.502  15.404
 2664SOL     OW19870   3.996   3.246   2.769
 2664SOL    HW119871   4.017   3.155   2.788
 2664SOL    HW219872   3.943   3.274   2.843
 2665SOL     OW19873   3.072   2.072   6.264
 2665SOL    HW119874   3.032   1.988   6.287
 2665SOL    HW219875   3.068   2.124   6.344
 2666SOL     OW19876   1.650   2.588  14.243
 2666SOL    HW119877   1.729   2.566  14.193
 2666SOL    HW219878   1.629   2.508  14.291
 2667SOL     OW19879   3.288   3.460  15.364
 2667SOL    HW119880   3.224   3.416  15.308
 2667SOL    HW219881   3.360   3.484  15.306
 2668SOL     OW19882   2.013   0.720   2.986
 2668SOL    HW119883   1.997   0.647   3.046
 2668SOL    HW219884   2.012   0.797   3.042
 2669SOL     OW19885   2.323   3.201   6.784
 2669SOL    HW119886   2.355   3.275   6.835
 2669SOL    HW219887   2.308   3.132   6.849
 2670SOL     OW19888   3.386   4.684   1.322
 2670SOL    HW119889   3.368   4.596   1.355
 2670SOL    HW219890   3.451   4.719   1.382
 2671SOL     OW19891   1.839   2.047  18.435
 2671SOL    HW119892   1.822   2.038  18.341
 2671SOL    HW219893   1.935   2.042  18.442
 2672SOL     OW19894   2.650   3.335   0.831
 2672SOL    HW119895   2.669   3.244   0.809
 2672SOL    HW219896   2.684   3.346   0.920
 2673SOL     OW19897   0.526   3.397   3.909
 2673SOL    HW119898   0.488   3.333   3.848
 2673SOL    HW219899   0.618   3.372   3.915
 2674SOL     OW19900   2.213   2.089  19.425
 2674SOL    HW119901   2.154   2.019  19.452
 2674SOL    HW219902   2.295   2.045  19.404
 2675SOL     OW19903   4.398   1.637  18.098
 2675SOL    HW119904   4.489   1.611  18.082
 2675SOL    HW219905   4.400   1.733  18.101
 2676SOL     OW19906   0.613   4.592  13.302
 2676SOL    HW119907   0.538   4.533  13.314
 2676SOL    HW219908   0.675   4.541  13.249
 2677SOL     OW19909   0.918   4.023   1.024
 2677SOL    HW119910   0.834   3.990   1.056
 2677SOL    HW219911   0.896   4.103   0.976
 2678SOL     OW19912   2.967   0.192   5.099
 2678SOL    HW119913   3.031   0.170   5.031
 2678SOL    HW219914   3.019   0.205   5.178
 2679SOL     OW19915   4.289   0.859   4.011
 2679SOL    HW119916   4.351   0.931   4.006
 2679SOL    HW219917   4.204   0.901   4.025
 2680SOL     OW19918   2.171   3.250   3.739
 2680SOL    HW119919   2.113   3.175   3.722
 2680SOL    HW219920   2.115   3.314   3.783
 2681SOL     OW19921   1.093   0.107  16.661
 2681SOL    HW119922   1.115   0.129  16.752
 2681SOL    HW219923   0.998   0.110  16.658
 2682SOL     OW19924   4.439   1.575  17.286
 2682SOL    HW119925   4.420   1.502  17.226
 2682SOL    HW219926   4.424   1.540  17.373
 2683SOL     OW19927   0.212   2.270   5.552
 2683SOL    HW119928   0.144   2.319   5.597
 2683SOL    HW219929   0.220   2.189   5.602
 2684SOL     OW19930   1.484   1.548  10.962
 2684SOL    HW119931   1.491   1.478  11.026
 2684SOL    HW219932   1.543   1.616  10.994
 2685SOL     OW19933   2.274   1.587   0.162
 2685SOL    HW119934   2.216   1.603   0.237
 2685SOL    HW219935   2.228   1.522   0.109
 2686SOL     OW19936   4.445   2.189   2.944
 2686SOL    HW119937   4.424   2.114   2.888
 2686SOL    HW219938   4.407   2.167   3.029
 2687SOL     OW19939   2.172   0.070   4.787
 2687SOL    HW119940   2.134   4.794   4.839
 2687SOL    HW219941   2.113   0.145   4.800
 2688SOL     OW19942   0.182   4.492   1.890
 2688SOL    HW119943   0.115   4.558   1.872
 2688SOL    HW219944   0.249   4.507   1.823
 2689SOL     OW19945   1.225   0.759   1.122
 2689SOL    HW119946   1.162   0.824   1.091
 2689SOL    HW219947   1.176   0.676   1.123
 2690SOL     OW19948   2.211   4.187  13.150
 2690SOL    HW119949   2.236   4.201  13.242
 2690SOL    HW219950   2.128   4.140  13.155
 2691SOL     OW19951   4.342   4.225  20.095
 2691SOL    HW119952   4.409   4.170  20.137
 2691SOL    HW219953   4.289   4.163  20.045
 2692SOL     OW19954   1.408   0.172   5.779
 2692SOL    HW119955   1.321   0.182   5.739
 2692SOL    HW219956   1.460   0.243   5.742
 2693SOL     OW19957   0.489   0.614  20.724
 2693SOL    HW119958   0.518   0.534  20.767
 2693SOL    HW219959   0.461   0.671  20.795
 2694SOL     OW19960   4.273   1.423   2.595
 2694SOL    HW119961   4.261   1.500   2.540
 2694SOL    HW219962   4.324   1.363   2.540
 2695SOL     OW19963   4.713   1.656   5.078
 2695SOL    HW119964   4.623   1.680   5.099
 2695SOL    HW219965   4.733   1.703   4.997
 2696SOL     OW19966   0.726   0.766   7.818
 2696SOL    HW119967   0.673   0.739   7.743
 2696SOL    HW219968   0.721   0.692   7.878
 2697SOL     OW19969   2.859   3.706  16.110
 2697SOL    HW119970   2.922   3.751  16.054
 2697SOL    HW219971   2.799   3.774  16.139
 2698SOL     OW19972   0.520   4.116   3.057
 2698SOL    HW119973   0.505   4.195   3.109
 2698SOL    HW219974   0.506   4.044   3.118
 2699SOL     OW19975   0.554   4.780   5.822
 2699SOL    HW119976   0.632   0.013   5.871
 2699SOL    HW219977   0.500   4.734   5.887
 2700SOL     OW19978   0.145   4.268  15.802
 2700SOL    HW119979   0.114   4.306  15.720
 2700SOL    HW219980   0.202   4.334  15.839
 2701SOL     OW19981   2.503   2.088  16.563
 2701SOL    HW119982   2.429   2.141  16.594
 2701SOL    HW219983   2.558   2.077  16.640
 2702SOL     OW19984   3.942   1.952  18.821
 2702SOL    HW119985   3.906   1.918  18.903
 2702SOL    HW219986   4.017   2.004  18.848
 2703SOL     OW19987   0.179   3.350  14.514
 2703SOL    HW119988   0.095   3.372  14.555
 2703SOL    HW219989   0.192   3.420  14.450
 2704SOL     OW19990   0.275   0.246  20.598
 2704SOL    HW119991   0.180   0.233  20.587
 2704SOL    HW219992   0.314   0.207  20.520
 2705SOL     OW19993   1.921   1.983  20.365
 2705SOL    HW119994   1.841   1.939  20.336
 2705SOL    HW219995   1.907   2.075  20.346
 2706SOL     OW19996   2.399   1.442   6.521
 2706SOL    HW119997   2.344   1.481   6.589
 2706SOL    HW219998   2.361   1.475   6.439
 2707SOL     OW19999   0.515   2.061   2.792
 2707SOL    HW120000   0.554   2.106   2.717
 2707SOL    HW220001   0.554   2.105   2.868
 2708SOL     OW20002   1.591   2.809  18.321
 2708SOL    HW120003   1.595   2.884  18.261
 2708SOL    HW220004   1.593   2.847  18.408
 2709SOL     OW20005   4.099   4.688   0.638
 2709SOL    HW120006   4.112   4.596   0.616
 2709SOL    HW220007   4.013   4.710   0.601
 2710SOL     OW20008   1.180   4.553  21.188
 2710SOL    HW120009   1.107   4.581  21.244
 2710SOL    HW220010   1.192   4.626  21.128
 2711SOL     OW20011   3.840   4.750  15.756
 2711SOL    HW120012   3.905   0.025  15.740
 2711SOL    HW220013   3.891   4.677  15.791
 2712SOL     OW20014   2.583   0.745  12.934
 2712SOL    HW120015   2.522   0.672  12.931
 2712SOL    HW220016   2.528   0.822  12.950
 2713SOL     OW20017   1.519   4.000  14.264
 2713SOL    HW120018   1.530   3.978  14.357
 2713SOL    HW220019   1.426   4.017  14.255
 2714SOL     OW20020   2.455   3.169   2.032
 2714SOL    HW120021   2.447   3.233   1.961
 2714SOL    HW220022   2.366   3.156   2.063
 2715SOL     OW20023   1.004   3.388  17.466
 2715SOL    HW120024   0.912   3.412  17.454
 2715SOL    HW220025   1.028   3.342  17.385
 2716SOL     OW20026   1.318   2.292  18.684
 2716SOL    HW120027   1.337   2.248  18.601
 2716SOL    HW220028   1.404   2.305  18.724
 2717SOL     OW20029   4.141   0.384   2.855
 2717SOL    HW120030   4.206   0.341   2.911
 2717SOL    HW220031   4.078   0.423   2.915
 2718SOL     OW20032   1.001   4.778   3.307
 2718SOL    HW120033   1.046   4.693   3.304
 2718SOL    HW220034   0.912   4.757   3.335
 2719SOL     OW20035   1.826   1.669   4.730
 2719SOL    HW120036   1.897   1.731   4.710
 2719SOL    HW220037   1.776   1.712   4.799
 2720SOL     OW20038   3.118   0.202  20.520
 2720SOL    HW120039   3.066   0.126  20.546
 2720SOL    HW220040   3.129   0.252  20.601
 2721SOL     OW20041   4.616   3.836  15.324
 2721SOL    HW120042   4.594   3.929  15.330
 2721SOL    HW220043   4.542   3.798  15.276
 2722SOL     OW20044   3.375   1.721   5.672
 2722SOL    HW120045   3.281   1.723   5.688
 2722SOL    HW220046   3.386   1.673   5.590
 2723SOL     OW20047   0.284   2.418  18.409
 2723SOL    HW120048   0.345   2.357  18.450
 2723SOL    HW220049   0.330   2.502  18.409
 2724SOL     OW20050   2.675   1.574  18.445
 2724SOL    HW120051   2.712   1.587  18.533
 2724SOL    HW220052   2.699   1.653  18.397
 2725SOL     OW20053   2.577   1.646   0.508
 2725SOL    HW120054   2.635   1.630   0.582
 2725SOL    HW220055   2.489   1.634   0.544
 2726SOL     OW20056   2.599   0.747   2.078
 2726SOL    HW120057   2.646   0.698   2.011
 2726SOL    HW220058   2.537   0.801   2.030
 2727SOL     OW20059   2.645   4.606   3.659
 2727SOL    HW120060   2.680   4.650   3.737
 2727SOL    HW220061   2.564   4.565   3.689
 2728SOL     OW20062   0.608   3.551  13.439
 2728SOL    HW120063   0.612   3.517  13.529
 2728SOL    HW220064   0.685   3.512  13.396
 2729SOL     OW20065   3.583   4.131   4.486
 2729SOL    HW120066   3.497   4.133   4.444
 2729SOL    HW220067   3.645   4.143   4.415
 2730SOL     OW20068   0.018   4.638  14.905
 2730SOL    HW120069   0.087   4.596  14.957
 2730SOL    HW220070   4.751   4.673  14.969
 2731SOL     OW20071   1.710   3.914   0.856
 2731SOL    HW120072   1.689   3.996   0.811
 2731SOL    HW220073   1.734   3.854   0.786
 2732SOL     OW20074   2.480   4.409  18.444
 2732SOL    HW120075   2.434   4.490  18.465
 2732SOL    HW220076   2.523   4.427  18.360
 2733SOL     OW20077   2.758   4.442  17.529
 2733SOL    HW120078   2.770   4.371  17.465
 2733SOL    HW220079   2.825   4.427  17.595
 2734SOL     OW20080   2.995   2.437  15.535
 2734SOL    HW120081   2.922   2.471  15.482
 2734SOL    HW220082   2.971   2.460  15.625
 2735SOL     OW20083   1.568   2.242   5.561
 2735SOL    HW120084   1.504   2.192   5.509
 2735SOL    HW220085   1.637   2.179   5.581
 2736SOL     OW20086   2.969   0.849   8.932
 2736SOL    HW120087   2.959   0.871   9.025
 2736SOL    HW220088   2.903   0.902   8.888
 2737SOL     OW20089   1.829   0.905  15.576
 2737SOL    HW120090   1.889   0.934  15.645
 2737SOL    HW220091   1.872   0.929  15.495
 2738SOL     OW20092   0.901   0.906   0.808
 2738SOL    HW120093   0.919   0.849   0.732
 2738SOL    HW220094   0.816   0.875   0.840
 2739SOL     OW20095   4.662   0.333   3.129
 2739SOL    HW120096   4.657   0.403   3.195
 2739SOL    HW220097   4.743   0.349   3.083
 2740SOL     OW20098   4.656   3.718   5.134
 2740SOL    HW120099   4.608   3.729   5.216
 2740SOL    HW220100   4.619   3.640   5.095
 2741SOL     OW20101   4.366   3.148   1.102
 2741SOL    HW120102   4.448   3.108   1.074
 2741SOL    HW220103   4.328   3.085   1.163
 2742SOL     OW20104   3.229   2.508   5.690
 2742SOL    HW120105   3.198   2.598   5.693
 2742SOL    HW220106   3.151   2.456   5.669
 2743SOL     OW20107   0.910   4.234   0.825
 2743SOL    HW120108   0.946   4.190   0.749
 2743SOL    HW220109   0.820   4.255   0.800
 2744SOL     OW20110   3.935   3.231  16.086
 2744SOL    HW120111   3.868   3.191  16.031
 2744SOL    HW220112   3.920   3.325  16.079
 2745SOL     OW20113   0.899   3.939  16.026
 2745SOL    HW120114   0.881   3.989  15.946
 2745SOL    HW220115   0.950   4.000  16.081
 2746SOL     OW20116   3.806   1.404  18.150
 2746SOL    HW120117   3.804   1.498  18.136
 2746SOL    HW220118   3.844   1.394  18.237
 2747SOL     OW20119   4.477   4.788  19.717
 2747SOL    HW120120   4.432   4.780  19.633
 2747SOL    HW220121   4.407   0.010  19.780
 2748SOL     OW20122   3.613   3.257   7.508
 2748SOL    HW120123   3.702   3.234   7.481
 2748SOL    HW220124   3.565   3.270   7.426
 2749SOL     OW20125   0.559   2.645  20.902
 2749SOL    HW120126   0.569   2.556  20.867
 2749SOL    HW220127   0.482   2.680  20.857
 2750SOL     OW20128   4.564   4.438   5.566
 2750SOL    HW120129   4.590   4.441   5.474
 2750SOL    HW220130   4.538   4.527   5.586
 2751SOL     OW20131   2.484   0.805  18.441
 2751SOL    HW120132   2.510   0.879  18.496
 2751SOL    HW220133   2.488   0.840  18.351
 2752SOL     OW20134   1.808   3.512  15.721
 2752SOL    HW120135   1.855   3.434  15.752
 2752SOL    HW220136   1.779   3.556  15.801
 2753SOL     OW20137   4.315   0.273   3.790
 2753SOL    HW120138   4.296   0.208   3.723
 2753SOL    HW220139   4.272   0.353   3.759
 2754SOL     OW20140   1.818   3.646  20.794
 2754SOL    HW120141   1.768   3.725  20.778
 2754SOL    HW220142   1.828   3.606  20.707
 2755SOL     OW20143   2.796   1.584  18.669
 2755SOL    HW120144   2.890   1.597  18.677
 2755SOL    HW220145   2.768   1.556  18.756
 2756SOL     OW20146   2.780   3.900   4.105
 2756SOL    HW120147   2.868   3.865   4.103
 2756SOL    HW220148   2.741   3.874   4.022
 2757SOL     OW20149   2.209   0.465   0.622
 2757SOL    HW120150   2.288   0.514   0.641
 2757SOL    HW220151   2.141   0.507   0.674
 2758SOL     OW20152   2.338   0.807   4.602
 2758SOL    HW120153   2.269   0.852   4.552
 2758SOL    HW220154   2.291   0.739   4.649
 2759SOL     OW20155   2.737   4.395   2.001
 2759SOL    HW120156   2.811   4.424   1.947
 2759SOL    HW220157   2.717   4.307   1.969
 2760SOL     OW20158   2.917   3.758  17.170
 2760SOL    HW120159   2.947   3.830  17.226
 2760SOL    HW220160   2.988   3.694  17.174
 2761SOL     OW20161   2.905   1.537  17.075
 2761SOL    HW120162   2.837   1.510  17.137
 2761SOL    HW220163   2.982   1.487  17.101
 2762SOL     OW20164   2.800   4.603   2.660
 2762SOL    HW120165   2.812   4.617   2.754
 2762SOL    HW220166   2.742   4.528   2.654
 2763SOL     OW20167   3.287   3.192   6.096
 2763SOL    HW120168   3.216   3.224   6.040
 2763SOL    HW220169   3.322   3.271   6.137
 2764SOL     OW20170   2.701   1.768   6.026
 2764SOL    HW120171   2.691   1.730   6.113
 2764SOL    HW220172   2.721   1.694   5.969
 2765SOL     OW20173   0.528   2.715   2.858
 2765SOL    HW120174   0.539   2.770   2.781
 2765SOL    HW220175   0.497   2.631   2.824
 2766SOL     OW20176   3.951   3.842   3.509
 2766SOL    HW120177   3.974   3.922   3.462
 2766SOL    HW220178   4.028   3.823   3.563
 2767SOL     OW20179   3.893   4.703  16.255
 2767SOL    HW120180   3.801   4.725  16.243
 2767SOL    HW220181   3.922   4.761  16.325
 2768SOL     OW20182   3.203   4.687  14.110
 2768SOL    HW120183   3.126   4.644  14.073
 2768SOL    HW220184   3.245   4.729  14.034
 2769SOL     OW20185   1.388   0.230   5.037
 2769SOL    HW120186   1.375   0.142   5.002
 2769SOL    HW220187   1.313   0.246   5.093
 2770SOL     OW20188   3.695   0.309  16.134
 2770SOL    HW120189   3.712   0.284  16.225
 2770SOL    HW220190   3.719   0.401  16.130
 2771SOL     OW20191   3.817   3.264   2.964
 2771SOL    HW120192   3.734   3.217   2.970
 2771SOL    HW220193   3.868   3.230   3.038
 2772SOL     OW20194   4.515   2.223   1.261
 2772SOL    HW120195   4.511   2.134   1.228
 2772SOL    HW220196   4.593   2.261   1.220
 2773SOL     OW20197   3.007   3.642  20.011
 2773SOL    HW120198   3.040   3.611  20.095
 2773SOL    HW220199   2.978   3.563  19.966
 2774SOL     OW20200   2.122   2.934   4.610
 2774SOL    HW120201   2.090   2.884   4.686
 2774SOL    HW220202   2.093   3.024   4.627
 2775SOL     OW20203   4.468   0.475  17.740
 2775SOL    HW120204   4.517   0.521  17.807
 2775SOL    HW220205   4.462   0.385  17.771
 2776SOL     OW20206   4.522   1.858   5.187
 2776SOL    HW120207   4.483   1.771   5.195
 2776SOL    HW220208   4.505   1.899   5.272
 2777SOL     OW20209   3.382   3.028   0.757
 2777SOL    HW120210   3.462   2.976   0.756
 2777SOL    HW220211   3.312   2.965   0.771
 2778SOL     OW20212   4.737   0.431  17.639
 2778SOL    HW120213   4.794   0.354  17.635
 2778SOL    HW220214   4.657   0.400  17.683
 2779SOL     OW20215   3.856   1.370  21.017
 2779SOL    HW120216   3.938   1.323  21.031
 2779SOL    HW220217   3.819   1.332  20.938
 2780SOL     OW20218   4.307   3.908  19.013
 2780SOL    HW120219   4.246   3.975  18.983
 2780SOL    HW220220   4.377   3.956  19.056
 2781SOL     OW20221   3.149   4.123  20.622
 2781SOL    HW120222   3.241   4.133  20.599
 2781SOL    HW220223   3.118   4.212  20.638
 2782SOL     OW20224   1.461   0.094   3.438
 2782SOL    HW120225   1.390   0.158   3.448
 2782SOL    HW220226   1.538   0.138   3.473
 2783SOL     OW20227   1.768   0.498  17.381
 2783SOL    HW120228   1.850   0.488  17.332
 2783SOL    HW220229   1.740   0.409  17.400
 2784SOL     OW20230   1.100   4.662  13.094
 2784SOL    HW120231   1.072   4.644  13.004
 2784SOL    HW220232   1.191   4.691  13.085
 2785SOL     OW20233   0.594   3.266  20.480
 2785SOL    HW120234   0.632   3.181  20.460
 2785SOL    HW220235   0.641   3.327  20.425
 2786SOL     OW20236   2.178   2.862  17.969
 2786SOL    HW120237   2.226   2.894  18.045
 2786SOL    HW220238   2.119   2.933  17.946
 2787SOL     OW20239   0.672   4.084  19.383
 2787SOL    HW120240   0.676   4.001  19.432
 2787SOL    HW220241   0.707   4.063  19.297
 2788SOL     OW20242   3.132   1.786  15.961
 2788SOL    HW120243   3.201   1.736  16.006
 2788SOL    HW220244   3.068   1.719  15.935
 2789SOL     OW20245   0.869   0.983  21.055
 2789SOL    HW120246   0.825   0.922  20.995
 2789SOL    HW220247   0.858   0.943  21.142
 2790SOL     OW20248   4.455   3.453  14.713
 2790SOL    HW120249   4.430   3.544  14.730
 2790SOL    HW220250   4.512   3.430  14.786
 2791SOL     OW20251   3.589   3.814  15.940
 2791SOL    HW120252   3.633   3.829  16.023
 2791SOL    HW220253   3.652   3.765  15.887
 2792SOL     OW20254   1.092   1.651   4.619
 2792SOL    HW120255   1.026   1.699   4.670
 2792SOL    HW220256   1.048   1.571   4.592
 2793SOL     OW20257   0.112   4.035  19.720
 2793SOL    HW120258   0.143   4.060  19.807
 2793SOL    HW220259   0.071   4.113  19.685
 2794SOL     OW20260   4.018   2.526   2.039
 2794SOL    HW120261   4.013   2.569   1.954
 2794SOL    HW220262   4.010   2.433   2.019
 2795SOL     OW20263   2.276   2.583  15.777
 2795SOL    HW120264   2.207   2.640  15.742
 2795SOL    HW220265   2.266   2.588  15.872
 2796SOL     OW20266   3.161   0.526  18.144
 2796SOL    HW120267   3.141   0.492  18.057
 2796SOL    HW220268   3.076   0.546  18.183
 2797SOL     OW20269   2.320   0.339   4.231
 2797SOL    HW120270   2.302   0.338   4.137
 2797SOL    HW220271   2.363   0.255   4.248
 2798SOL     OW20272   3.934   2.549  17.714
 2798SOL    HW120273   3.874   2.624  17.721
 2798SOL    HW220274   3.962   2.533  17.804
 2799SOL     OW20275   0.373   4.446   3.589
 2799SOL    HW120276   0.348   4.522   3.535
 2799SOL    HW220277   0.468   4.451   3.594
 2800SOL     OW20278   0.464   1.465   5.848
 2800SOL    HW120279   0.406   1.444   5.920
 2800SOL    HW220280   0.407   1.506   5.783
 2801SOL     OW20281   2.457   1.602   5.491
 2801SOL    HW120282   2.528   1.643   5.541
 2801SOL    HW220283   2.493   1.518   5.463
 2802SOL     OW20284   0.796   4.344  15.106
 2802SOL    HW120285   0.746   4.410  15.059
 2802SOL    HW220286   0.737   4.315  15.176
 2803SOL     OW20287   1.725   4.010   4.626
 2803SOL    HW120288   1.762   3.929   4.660
 2803SOL    HW220289   1.719   3.996   4.531
 2804SOL     OW20290   1.501   1.856  17.880
 2804SOL    HW120291   1.512   1.942  17.840
 2804SOL    HW220292   1.407   1.847  17.894
 2805SOL     OW20293   1.728   3.597  21.048
 2805SOL    HW120294   1.776   3.655  21.107
 2805SOL    HW220295   1.769   3.611  20.962
 2806SOL     OW20296   3.365   1.272  19.667
 2806SOL    HW120297   3.449   1.286  19.712
 2806SOL    HW220298   3.380   1.195  19.612
 2807SOL     OW20299   2.954   2.753  20.602
 2807SOL    HW120300   2.948   2.846  20.623
 2807SOL    HW220301   2.883   2.738  20.539
 2808SOL     OW20302   1.882   1.389  17.708
 2808SOL    HW120303   1.844   1.351  17.628
 2808SOL    HW220304   1.883   1.483  17.691
 2809SOL     OW20305   2.952   2.558   4.611
 2809SOL    HW120306   2.991   2.540   4.525
 2809SOL    HW220307   2.886   2.490   4.623
 2810SOL     OW20308   0.718   0.732  16.089
 2810SOL    HW120309   0.685   0.651  16.127
 2810SOL    HW220310   0.711   0.796  16.161
 2811SOL     OW20311   0.830   3.717  16.920
 2811SOL    HW120312   0.882   3.782  16.966
 2811SOL    HW220313   0.893   3.652  16.891
 2812SOL     OW20314   2.804   1.706  19.810
 2812SOL    HW120315   2.745   1.633  19.792
 2812SOL    HW220316   2.759   1.755  19.879
 2813SOL     OW20317   0.516   4.649   6.044
 2813SOL    HW120318   0.490   4.723   6.099
 2813SOL    HW220319   0.492   4.571   6.095
 2814SOL     OW20320   2.399   1.908   2.806
 2814SOL    HW120321   2.421   1.822   2.841
 2814SOL    HW220322   2.311   1.897   2.770
 2815SOL     OW20323   1.424   4.789  16.780
 2815SOL    HW120324   1.343   4.746  16.810
 2815SOL    HW220325   1.412   0.087  16.805
 2816SOL     OW20326   0.833   3.179  17.755
 2816SOL    HW120327   0.825   3.140  17.668
 2816SOL    HW220328   0.841   3.104  17.814
 2817SOL     OW20329   0.058   1.608  16.370
 2817SOL    HW120330   4.770   1.570  16.339
 2817SOL    HW220331   0.082   1.672  16.303
 2818SOL     OW20332   1.570   0.554   0.941
 2818SOL    HW120333   1.612   0.524   0.860
 2818SOL    HW220334   1.620   0.511   1.011
 2819SOL     OW20335   0.092   4.642   4.382
 2819SOL    HW120336   0.041   4.577   4.430
 2819SOL    HW220337   0.147   4.683   4.449
 2820SOL     OW20338   1.144   0.638  20.105
 2820SOL    HW120339   1.093   0.619  20.184
 2820SOL    HW220340   1.150   0.554  20.060
 2821SOL     OW20341   2.765   1.722   3.948
 2821SOL    HW120342   2.768   1.636   3.991
 2821SOL    HW220343   2.813   1.780   4.006
 2822SOL     OW20344   2.218   2.484   0.209
 2822SOL    HW120345   2.291   2.447   0.160
 2822SOL    HW220346   2.226   2.446   0.297
 2823SOL     OW20347   0.792   3.588  14.886
 2823SOL    HW120348   0.803   3.619  14.976
 2823SOL    HW220349   0.845   3.508  14.882
 2824SOL     OW20350   2.770   0.004  19.527
 2824SOL    HW120351   2.760   4.704  19.515
 2824SOL    HW220352   2.865   0.018  19.529
 2825SOL     OW20353   2.011   4.648  19.238
 2825SOL    HW120354   2.055   4.714  19.292
 2825SOL    HW220355   2.059   4.649  19.155
 2826SOL     OW20356   1.280   2.473   4.500
 2826SOL    HW120357   1.332   2.422   4.562
 2826SOL    HW220358   1.337   2.488   4.426
 2827SOL     OW20359   2.959   0.137   2.910
 2827SOL    HW120360   2.957   0.140   3.006
 2827SOL    HW220361   2.875   0.172   2.883
 2828SOL     OW20362   0.194   2.463  16.946
 2828SOL    HW120363   0.268   2.426  16.995
 2828SOL    HW220364   0.219   2.553  16.929
 2829SOL     OW20365   0.271   3.869   6.427
 2829SOL    HW120366   0.322   3.798   6.388
 2829SOL    HW220367   0.248   3.837   6.514
 2830SOL     OW20368   1.815   2.311   0.789
 2830SOL    HW120369   1.847   2.331   0.877
 2830SOL    HW220370   1.773   2.392   0.760
 2831SOL     OW20371   2.255   2.380  16.676
 2831SOL    HW120372   2.240   2.291  16.643
 2831SOL    HW220373   2.348   2.382  16.697
 2832SOL     OW20374   4.522   3.581  15.003
 2832SOL    HW120375   4.583   3.611  14.935
 2832SOL    HW220376   4.552   3.492  15.025
 2833SOL     OW20377   1.355   1.356  12.002
 2833SOL    HW120378   1.396   1.269  12.003
 2833SOL    HW220379   1.428   1.417  12.006
 2834SOL     OW20380   2.927   1.863   6.846
 2834SOL    HW120381   2.914   1.828   6.758
 2834SOL    HW220382   2.844   1.907   6.867
 2835SOL     OW20383   0.667   3.580   1.561
 2835SOL    HW120384   0.713   3.662   1.574
 2835SOL    HW220385   0.673   3.535   1.646
 2836SOL     OW20386   2.705   4.466  20.299
 2836SOL    HW120387   2.631   4.409  20.318
 2836SOL    HW220388   2.782   4.412  20.314
 2837SOL     OW20389   3.821   0.591   2.959
 2837SOL    HW120390   3.764   0.610   3.034
 2837SOL    HW220391   3.895   0.544   2.996
 2838SOL     OW20392   1.439   4.591   5.976
 2838SOL    HW120393   1.406   4.681   5.973
 2838SOL    HW220394   1.508   4.593   6.043
 2839SOL     OW20395   4.591   1.836  20.050
 2839SOL    HW120396   4.610   1.747  20.021
 2839SOL    HW220397   4.574   1.885  19.970
 2840SOL     OW20398   3.031   3.040  19.860
 2840SOL    HW120399   3.089   3.026  19.785
 2840SOL    HW220400   2.950   2.996  19.837
 2841SOL     OW20401   1.892   2.767  20.202
 2841SOL    HW120402   1.981   2.752  20.172
 2841SOL    HW220403   1.858   2.679  20.222
 2842SOL     OW20404   2.592   3.839   6.217
 2842SOL    HW120405   2.513   3.799   6.183
 2842SOL    HW220406   2.663   3.801   6.165
 2843SOL     OW20407   4.572   0.976  15.609
 2843SOL    HW120408   4.612   0.916  15.671
 2843SOL    HW220409   4.534   0.918  15.542
 2844SOL     OW20410   0.145   4.112   5.104
 2844SOL    HW120411   0.193   4.056   5.165
 2844SOL    HW220412   0.201   4.188   5.090
 2845SOL     OW20413   0.195   3.384   4.791
 2845SOL    HW120414   0.229   3.437   4.719
 2845SOL    HW220415   0.273   3.354   4.838
 2846SOL     OW20416   3.638   3.392   3.387
 2846SOL    HW120417   3.580   3.337   3.440
 2846SOL    HW220418   3.725   3.354   3.399
 2847SOL     OW20419   4.653   3.577   2.461
 2847SOL    HW120420   4.576   3.582   2.405
 2847SOL    HW220421   4.619   3.589   2.549
 2848SOL     OW20422   2.745   4.046  13.669
 2848SOL    HW120423   2.731   3.952  13.681
 2848SOL    HW220424   2.698   4.087  13.742
 2849SOL     OW20425   3.926   0.281  21.213
 2849SOL    HW120426   3.987   0.259   0.006
 2849SOL    HW220427   3.850   0.318  21.258
 2850SOL     OW20428   4.516   4.698   5.643
 2850SOL    HW120429   4.582   4.719   5.577
 2850SOL    HW220430   4.547   4.742   5.723
 2851SOL     OW20431   3.841   0.577   0.020
 2851SOL    HW120432   3.772   0.535   0.072
 2851SOL    HW220433   3.819   0.558  21.206
 2852SOL     OW20434   1.403   2.292  19.490
 2852SOL    HW120435   1.443   2.210  19.521
 2852SOL    HW220436   1.333   2.310  19.553
 2853SOL     OW20437   0.811   2.707  14.972
 2853SOL    HW120438   0.843   2.644  14.907
 2853SOL    HW220439   0.789   2.654  15.048
 2854SOL     OW20440   4.734   2.133   3.862
 2854SOL    HW120441   4.762   2.071   3.930
 2854SOL    HW220442   4.777   2.102   3.782
 2855SOL     OW20443   0.980   0.433   0.199
 2855SOL    HW120444   0.911   0.414   0.135
 2855SOL    HW220445   0.973   0.527   0.214
 2856SOL     OW20446   0.249   0.292   0.729
 2856SOL    HW120447   0.254   0.199   0.755
 2856SOL    HW220448   0.318   0.302   0.664
 2857SOL     OW20449   4.780   4.479  20.003
 2857SOL    HW120450   4.701   4.428  19.986
 2857SOL    HW220451   4.767   4.560  19.954
 2858SOL     OW20452   0.872   0.488   2.365
 2858SOL    HW120453   0.825   0.548   2.306
 2858SOL    HW220454   0.921   0.546   2.424
 2859SOL     OW20455   4.572   4.270   4.146
 2859SOL    HW120456   4.612   4.276   4.059
 2859SOL    HW220457   4.480   4.296   4.132
 2860SOL     OW20458   2.962   0.241   6.335
 2860SOL    HW120459   3.028   0.240   6.405
 2860SOL    HW220460   2.980   0.162   6.284
 2861SOL     OW20461   3.640   3.511  21.174
 2861SOL    HW120462   3.673   3.483  21.088
 2861SOL    HW220463   3.561   3.459  21.187
 2862SOL     OW20464   4.354   4.366   5.725
 2862SOL    HW120465   4.438   4.374   5.680
 2862SOL    HW220466   4.296   4.326   5.660
 2863SOL     OW20467   3.956   3.552   3.640
 2863SOL    HW120468   3.932   3.508   3.722
 2863SOL    HW220469   3.924   3.642   3.652
 2864SOL     OW20470   3.402   0.327  18.684
 2864SOL    HW120471   3.424   0.410  18.642
 2864SOL    HW220472   3.325   0.296  18.636
 2865SOL     OW20473   4.284   0.343  14.973
 2865SOL    HW120474   4.345   0.270  14.985
 2865SOL    HW220475   4.199   0.309  15.001
 2866SOL     OW20476   0.769   2.181  16.438
 2866SOL    HW120477   0.699   2.119  16.459
 2866SOL    HW220478   0.767   2.186  16.342
 2867SOL     OW20479   2.935   0.925  16.935
 2867SOL    HW120480   2.991   0.848  16.942
 2867SOL    HW220481   2.992   0.998  16.958
 2868SOL     OW20482   2.588   2.595  18.769
 2868SOL    HW120483   2.507   2.544  18.762
 2868SOL    HW220484   2.565   2.669  18.826
 2869SOL     OW20485   3.964   3.450   1.677
 2869SOL    HW120486   3.875   3.485   1.683
 2869SOL    HW220487   4.004   3.499   1.606
 2870SOL     OW20488   1.502   3.585   5.848
 2870SOL    HW120489   1.520   3.675   5.876
 2870SOL    HW220490   1.545   3.531   5.915
 2871SOL     OW20491   1.973   3.624  21.244
 2871SOL    HW120492   2.068   3.622  21.242
 2871SOL    HW220493   1.950   3.717  21.243
 2872SOL     OW20494   0.607   4.116   2.331
 2872SOL    HW120495   0.525   4.101   2.284
 2872SOL    HW220496   0.593   4.200   2.376
 2873SOL     OW20497   1.854   1.273   6.529
 2873SOL    HW120498   1.855   1.202   6.464
 2873SOL    HW220499   1.799   1.340   6.490
 2874SOL     OW20500   3.476   3.362  16.415
 2874SOL    HW120501   3.485   3.456  16.400
 2874SOL    HW220502   3.545   3.341  16.478
 2875SOL     OW20503   2.275   3.641   3.366
 2875SOL    HW120504   2.364   3.613   3.389
 2875SOL    HW220505   2.218   3.579   3.411
 2876SOL     OW20506   4.326   4.667   5.432
 2876SOL    HW120507   4.352   4.731   5.367
 2876SOL    HW220508   4.400   4.662   5.492
 2877SOL     OW20509   4.109   2.289   8.900
 2877SOL    HW120510   4.013   2.286   8.902
 2877SOL    HW220511   4.137   2.201   8.924
 2878SOL     OW20512   1.433   2.780  16.542
 2878SOL    HW120513   1.343   2.792  16.572
 2878SOL    HW220514   1.470   2.717  16.604
 2879SOL     OW20515   2.924   1.904   1.189
 2879SOL    HW120516   2.848   1.938   1.235
 2879SOL    HW220517   2.996   1.910   1.253
 2880SOL     OW20518   3.237   3.806  18.560
 2880SOL    HW120519   3.303   3.762  18.507
 2880SOL    HW220520   3.157   3.804  18.507
 2881SOL     OW20521   3.885   3.325  18.460
 2881SOL    HW120522   3.914   3.234  18.461
 2881SOL    HW220523   3.860   3.343  18.551
 2882SOL     OW20524   1.114   3.946  18.874
 2882SOL    HW120525   1.123   4.041  18.884
 2882SOL    HW220526   1.082   3.934  18.784
 2883SOL     OW20527   2.500   3.689  15.370
 2883SOL    HW120528   2.492   3.769  15.422
 2883SOL    HW220529   2.587   3.656  15.390
 2884SOL     OW20530   2.232   1.599   6.681
 2884SOL    HW120531   2.189   1.606   6.767
 2884SOL    HW220532   2.167   1.636   6.620
 2885SOL     OW20533   2.316   3.512   3.095
 2885SOL    HW120534   2.275   3.570   3.159
 2885SOL    HW220535   2.267   3.527   3.014
 2886SOL     OW20536   0.745   4.011  18.904
 2886SOL    HW120537   0.771   3.955  18.831
 2886SOL    HW220538   0.723   4.095  18.862
 2887SOL     OW20539   4.400   3.058  14.945
 2887SOL    HW120540   4.411   2.989  15.010
 2887SOL    HW220541   4.327   3.030  14.890
 2888SOL     OW20542   3.508   2.118   0.722
 2888SOL    HW120543   3.471   2.036   0.753
 2888SOL    HW220544   3.568   2.093   0.651
 2889SOL     OW20545   2.544   3.163   3.935
 2889SOL    HW120546   2.485   3.236   3.917
 2889SOL    HW220547   2.632   3.202   3.929
 2890SOL     OW20548   2.125   3.011   6.607
 2890SOL    HW120549   2.191   3.071   6.640
 2890SOL    HW220550   2.134   2.932   6.659
 2891SOL     OW20551   3.964   1.459  14.001
 2891SOL    HW120552   4.044   1.437  14.048
 2891SOL    HW220553   3.934   1.540  14.041
 2892SOL     OW20554   3.107   1.655   1.364
 2892SOL    HW120555   3.106   1.748   1.387
 2892SOL    HW220556   3.031   1.618   1.408
 2893SOL     OW20557   0.805   4.274   7.377
 2893SOL    HW120558   0.760   4.358   7.386
 2893SOL    HW220559   0.896   4.296   7.358
 2894SOL     OW20560   1.165   0.575  16.861
 2894SOL    HW120561   1.162   0.538  16.772
 2894SOL    HW220562   1.141   0.667  16.850
 2895SOL     OW20563   2.569   4.089  18.664
 2895SOL    HW120564   2.486   4.124  18.632
 2895SOL    HW220565   2.633   4.158  18.646
 2896SOL     OW20566   0.784   1.110  19.173
 2896SOL    HW120567   0.735   1.040  19.130
 2896SOL    HW220568   0.805   1.172  19.102
 2897SOL     OW20569   2.722   0.462  14.428
 2897SOL    HW120570   2.681   0.429  14.508
 2897SOL    HW220571   2.808   0.494  14.455
 2898SOL     OW20572   0.966   3.792  20.174
 2898SOL    HW120573   1.015   3.861  20.130
 2898SOL    HW220574   0.892   3.837  20.216
 2899SOL     OW20575   1.349   2.599  14.284
 2899SOL    HW120576   1.443   2.615  14.282
 2899SOL    HW220577   1.309   2.683  14.259
 2900SOL     OW20578   3.579   4.780   0.979
 2900SOL    HW120579   3.580   4.686   1.000
 2900SOL    HW220580   3.541   4.784   0.891
 2901SOL     OW20581   4.788   4.074  17.514
 2901SOL    HW120582   4.722   4.142  17.528
 2901SOL    HW220583   0.040   4.068  17.597
 2902SOL     OW20584   0.324   4.754  16.362
 2902SOL    HW120585   0.317   0.054  16.348
 2902SOL    HW220586   0.310   4.743  16.456
 2903SOL     OW20587   1.031   2.417   0.591
 2903SOL    HW120588   0.986   2.333   0.581
 2903SOL    HW220589   1.088   2.406   0.667
 2904SOL     OW20590   4.247   3.637   1.197
 2904SOL    HW120591   4.239   3.588   1.114
 2904SOL    HW220592   4.199   3.718   1.182
 2905SOL     OW20593   3.172   2.934  13.692
 2905SOL    HW120594   3.176   2.904  13.601
 2905SOL    HW220595   3.162   3.029  13.686
 2906SOL     OW20596   2.824   2.354  16.823
 2906SOL    HW120597   2.754   2.412  16.852
 2906SOL    HW220598   2.794   2.321  16.738
 2907SOL     OW20599   2.272   3.136   0.890
 2907SOL    HW120600   2.345   3.137   0.828
 2907SOL    HW220601   2.199   3.177   0.842
 2908SOL     OW20602   3.912   1.749   0.642
 2908SOL    HW120603   3.928   1.669   0.592
 2908SOL    HW220604   3.879   1.812   0.577
 2909SOL     OW20605   0.143   0.917   2.024
 2909SOL    HW120606   0.156   0.832   1.983
 2909SOL    HW220607   0.224   0.934   2.071
 2910SOL     OW20608   1.116   1.973  16.034
 2910SOL    HW120609   1.143   1.915  15.962
 2910SOL    HW220610   1.026   1.946  16.053
 2911SOL     OW20611   1.768   1.767   2.090
 2911SOL    HW120612   1.741   1.737   2.003
 2911SOL    HW220613   1.863   1.777   2.083
 2912SOL     OW20614   1.806   0.954   1.694
 2912SOL    HW120615   1.900   0.960   1.708
 2912SOL    HW220616   1.796   0.954   1.599
 2913SOL     OW20617   3.451   1.807   3.585
 2913SOL    HW120618   3.392   1.840   3.653
 2913SOL    HW220619   3.394   1.757   3.527
 2914SOL     OW20620   1.783   4.461  19.944
 2914SOL    HW120621   1.817   4.550  19.950
 2914SOL    HW220622   1.735   4.448  20.026
 2915SOL     OW20623   4.469   2.614  21.060
 2915SOL    HW120624   4.441   2.667  20.985
 2915SOL    HW220625   4.422   2.652  21.135
 2916SOL     OW20626   1.958   3.178   4.667
 2916SOL    HW120627   1.924   3.255   4.622
 2916SOL    HW220628   1.893   3.110   4.652
 2917SOL     OW20629   1.749   4.379  16.415
 2917SOL    HW120630   1.686   4.445  16.443
 2917SOL    HW220631   1.727   4.361  16.323
 2918SOL     OW20632   4.505   1.759  19.767
 2918SOL    HW120633   4.461   1.798  19.691
 2918SOL    HW220634   4.450   1.685  19.792
 2919SOL     OW20635   3.882   3.742   1.163
 2919SOL    HW120636   3.962   3.786   1.135
 2919SOL    HW220637   3.851   3.697   1.084
 2920SOL     OW20638   0.721   3.181   1.137
 2920SOL    HW120639   0.691   3.111   1.194
 2920SOL    HW220640   0.786   3.229   1.190
 2921SOL     OW20641   3.819   4.700   2.016
 2921SOL    HW120642   3.732   4.740   2.025
 2921SOL    HW220643   3.805   4.608   2.039
 2922SOL     OW20644   2.601   0.954   0.921
 2922SOL    HW120645   2.554   0.921   0.844
 2922SOL    HW220646   2.636   1.039   0.893
 2923SOL     OW20647   2.223   3.893   8.950
 2923SOL    HW120648   2.275   3.843   9.013
 2923SOL    HW220649   2.254   3.983   8.960
 2924SOL     OW20650   4.243   0.457  19.967
 2924SOL    HW120651   4.324   0.468  20.017
 2924SOL    HW220652   4.176   0.441  20.033
 2925SOL     OW20653   2.265   3.183  17.419
 2925SOL    HW120654   2.181   3.220  17.447
 2925SOL    HW220655   2.311   3.163  17.501
 2926SOL     OW20656   4.073   0.840   0.289
 2926SOL    HW120657   4.078   0.935   0.277
 2926SOL    HW220658   3.980   0.819   0.276
 2927SOL     OW20659   3.322   2.007  21.197
 2927SOL    HW120660   3.388   1.937  21.195
 2927SOL    HW220661   3.372   2.087  21.179
 2928SOL     OW20662   0.742   3.922  19.626
 2928SOL    HW120663   0.784   3.853  19.574
 2928SOL    HW220664   0.774   3.907  19.716
 2929SOL     OW20665   4.142   1.698  17.427
 2929SOL    HW120666   4.221   1.751  17.416
 2929SOL    HW220667   4.171   1.608  17.411
 2930SOL     OW20668   3.516   0.731   4.503
 2930SOL    HW120669   3.562   0.780   4.571
 2930SOL    HW220670   3.455   0.676   4.552
 2931SOL     OW20671   2.993   4.291   4.839
 2931SOL    HW120672   2.923   4.343   4.800
 2931SOL    HW220673   2.969   4.284   4.932
 2932SOL     OW20674   0.246   0.316   3.178
 2932SOL    HW120675   0.333   0.348   3.154
 2932SOL    HW220676   0.241   0.228   3.140
 2933SOL     OW20677   3.945   1.288   2.099
 2933SOL    HW120678   3.980   1.207   2.061
 2933SOL    HW220679   4.010   1.355   2.077
 2934SOL     OW20680   1.370   2.983   2.601
 2934SOL    HW120681   1.453   2.940   2.621
 2934SOL    HW220682   1.348   3.031   2.680
 2935SOL     OW20683   4.156   3.173   6.689
 2935SOL    HW120684   4.164   3.084   6.653
 2935SOL    HW220685   4.086   3.213   6.639
 2936SOL     OW20686   4.205   1.762   8.145
 2936SOL    HW120687   4.222   1.694   8.080
 2936SOL    HW220688   4.237   1.843   8.104
 2937SOL     OW20689   2.003   4.050  15.349
 2937SOL    HW120690   1.976   3.963  15.378
 2937SOL    HW220691   1.924   4.103  15.353
 2938SOL     OW20692   4.311   3.393  14.130
 2938SOL    HW120693   4.238   3.415  14.188
 2938SOL    HW220694   4.310   3.298  14.125
 2939SOL     OW20695   1.756   2.311  16.417
 2939SOL    HW120696   1.761   2.359  16.500
 2939SOL    HW220697   1.847   2.296  16.391
 2940SOL     OW20698   4.653   1.122  16.479
 2940SOL    HW120699   4.732   1.084  16.518
 2940SOL    HW220700   4.680   1.144  16.389
 2941SOL     OW20701   3.658   0.991   0.947
 2941SOL    HW120702   3.711   1.036   1.013
 2941SOL    HW220703   3.578   1.044   0.941
 2942SOL     OW20704   0.930   3.666  15.799
 2942SOL    HW120705   0.917   3.670  15.704
 2942SOL    HW220706   0.946   3.757  15.824
 2943SOL     OW20707   3.195   1.939  18.487
 2943SOL    HW120708   3.196   2.026  18.447
 2943SOL    HW220709   3.102   1.917  18.494
 2944SOL     OW20710   1.956   4.574   9.264
 2944SOL    HW120711   1.940   4.658   9.221
 2944SOL    HW220712   2.048   4.554   9.244
 2945SOL     OW20713   3.278   1.318  15.638
 2945SOL    HW120714   3.254   1.321  15.731
 2945SOL    HW220715   3.310   1.407  15.620
 2946SOL     OW20716   4.036   1.335  16.433
 2946SOL    HW120717   4.082   1.317  16.515
 2946SOL    HW220718   3.961   1.276  16.435
 2947SOL     OW20719   1.686   4.474   9.842
 2947SOL    HW120720   1.768   4.489   9.794
 2947SOL    HW220721   1.640   4.558   9.836
 2948SOL     OW20722   0.884   0.333  12.209
 2948SOL    HW120723   0.846   0.388  12.142
 2948SOL    HW220724   0.975   0.320  12.181
 2949SOL     OW20725   1.648   3.270  13.897
 2949SOL    HW120726   1.715   3.280  13.965
 2949SOL    HW220727   1.698   3.252  13.818
 2950SOL     OW20728   1.579   1.608  16.820
 2950SOL    HW120729   1.541   1.692  16.794
 2950SOL    HW220730   1.549   1.547  16.753
 2951SOL     OW20731   2.659   3.222  19.302
 2951SOL    HW120732   2.629   3.161  19.370
 2951SOL    HW220733   2.698   3.295  19.351
 2952SOL     OW20734   2.936   1.126  17.291
 2952SOL    HW120735   2.999   1.078  17.237
 2952SOL    HW220736   2.960   1.104  17.381
 2953SOL     OW20737   4.655   2.485  17.064
 2953SOL    HW120738   4.715   2.521  16.998
 2953SOL    HW220739   4.568   2.503  17.030
 2954SOL     OW20740   4.371   3.431   3.756
 2954SOL    HW120741   4.371   3.486   3.678
 2954SOL    HW220742   4.317   3.478   3.819
 2955SOL     OW20743   2.313   4.214   0.143
 2955SOL    HW120744   2.243   4.216   0.209
 2955SOL    HW220745   2.268   4.193   0.061
 2956SOL     OW20746   0.984   3.151  16.030
 2956SOL    HW120747   0.909   3.104  15.993
 2956SOL    HW220748   0.962   3.244  16.016
 2957SOL     OW20749   1.390   1.467  12.864
 2957SOL    HW120750   1.373   1.389  12.916
 2957SOL    HW220751   1.326   1.464  12.793
 2958SOL     OW20752   2.624   3.099   2.293
 2958SOL    HW120753   2.596   3.118   2.383
 2958SOL    HW220754   2.544   3.112   2.241
 2959SOL     OW20755   2.401   2.237  18.320
 2959SOL    HW120756   2.409   2.206  18.230
 2959SOL    HW220757   2.401   2.157  18.373
 2960SOL     OW20758   0.221   1.046   4.646
 2960SOL    HW120759   0.161   0.975   4.669
 2960SOL    HW220760   0.222   1.103   4.723
 2961SOL     OW20761   0.819   0.899  11.503
 2961SOL    HW120762   0.836   0.812  11.538
 2961SOL    HW220763   0.733   0.923  11.537
 2962SOL     OW20764   2.261   2.742   1.129
 2962SOL    HW120765   2.169   2.731   1.153
 2962SOL    HW220766   2.259   2.793   1.048
 2963SOL     OW20767   3.330   4.381   1.096
 2963SOL    HW120768   3.280   4.402   1.017
 2963SOL    HW220769   3.270   4.329   1.149
 2964SOL     OW20770   1.987   4.136   1.637
 2964SOL    HW120771   1.907   4.163   1.681
 2964SOL    HW220772   1.960   4.067   1.577
 2965SOL     OW20773   3.126   4.498  20.283
 2965SOL    HW120774   3.099   4.573  20.230
 2965SOL    HW220775   3.221   4.503  20.286
 2966SOL     OW20776   0.817   2.622   1.858
 2966SOL    HW120777   0.885   2.657   1.801
 2966SOL    HW220778   0.803   2.691   1.923
 2967SOL     OW20779   0.752   0.827   2.559
 2967SOL    HW120780   0.702   0.841   2.478
 2967SOL    HW220781   0.756   0.914   2.599
 2968SOL     OW20782   2.568   1.631   7.569
 2968SOL    HW120783   2.530   1.565   7.626
 2968SOL    HW220784   2.564   1.712   7.620
 2969SOL     OW20785   0.535   0.421   0.133
 2969SOL    HW120786   0.475   0.478   0.085
 2969SOL    HW220787   0.601   0.479   0.168
 2970SOL     OW20788   4.783   2.362   3.125
 2970SOL    HW120789   4.788   2.271   3.154
 2970SOL    HW220790   4.700   2.394   3.160
 2971SOL     OW20791   1.949   4.599   4.749
 2971SOL    HW120792   2.030   4.561   4.781
 2971SOL    HW220793   1.968   4.627   4.660
 2972SOL     OW20794   1.245   4.779  13.508
 2972SOL    HW120795   1.221   0.074  13.481
 2972SOL    HW220796   1.234   4.779  13.603
 2973SOL     OW20797   1.288   1.224   6.219
 2973SOL    HW120798   1.272   1.134   6.247
 2973SOL    HW220799   1.372   1.248   6.258
 2974SOL     OW20800   0.393   2.268   1.038
 2974SOL    HW120801   0.408   2.234   0.950
 2974SOL    HW220802   0.469   2.323   1.056
 2975SOL     OW20803   1.990   2.244   1.642
 2975SOL    HW120804   2.045   2.178   1.683
 2975SOL    HW220805   1.920   2.259   1.706
 2976SOL     OW20806   0.238   2.772   8.279
 2976SOL    HW120807   0.168   2.833   8.302
 2976SOL    HW220808   0.204   2.686   8.304
 2977SOL     OW20809   1.691   3.638  15.098
 2977SOL    HW120810   1.619   3.610  15.042
 2977SOL    HW220811   1.764   3.580  15.075
 2978SOL     OW20812   2.587   1.546   2.670
 2978SOL    HW120813   2.578   1.451   2.665
 2978SOL    HW220814   2.559   1.569   2.759
 2979SOL     OW20815   3.466   4.443   7.793
 2979SOL    HW120816   3.452   4.379   7.723
 2979SOL    HW220817   3.382   4.487   7.802
 2980SOL     OW20818   1.954   3.141   5.167
 2980SOL    HW120819   2.019   3.132   5.097
 2980SOL    HW220820   1.956   3.234   5.189
 2981SOL     OW20821   4.339   0.822   0.092
 2981SOL    HW120822   4.286   0.768   0.150
 2981SOL    HW220823   4.312   0.912   0.113
 2982SOL     OW20824   4.629   3.754   5.696
 2982SOL    HW120825   4.601   3.694   5.627
 2982SOL    HW220826   4.618   3.704   5.777
 2983SOL     OW20827   4.630   3.604  18.798
 2983SOL    HW120828   4.621   3.575  18.889
 2983SOL    HW220829   4.546   3.643  18.777
 2984SOL     OW20830   1.374   3.932  20.075
 2984SOL    HW120831   1.463   3.965  20.073
 2984SOL    HW220832   1.380   3.850  20.125
 2985SOL     OW20833   1.930   3.260  20.451
 2985SOL    HW120834   1.906   3.291  20.364
 2985SOL    HW220835   1.893   3.172  20.457
 2986SOL     OW20836   2.074   2.798  15.718
 2986SOL    HW120837   2.049   2.826  15.807
 2986SOL    HW220838   2.042   2.869  15.662
 2987SOL     OW20839   4.609   0.995   5.787
 2987SOL    HW120840   4.636   1.073   5.836
 2987SOL    HW220841   4.516   1.011   5.768
 2988SOL     OW20842   0.720   1.485   1.449
 2988SOL    HW120843   0.801   1.464   1.495
 2988SOL    HW220844   0.745   1.551   1.384
 2989SOL     OW20845   2.866   2.345  14.136
 2989SOL    HW120846   2.782   2.323  14.096
 2989SOL    HW220847   2.847   2.421  14.190
 2990SOL     OW20848   0.399   4.017  15.416
 2990SOL    HW120849   0.382   4.044  15.506
 2990SOL    HW220850   0.386   3.922  15.417
 2991SOL     OW20851   1.420   1.347  15.364
 2991SOL    HW120852   1.372   1.411  15.312
 2991SOL    HW220853   1.393   1.262  15.328
 2992SOL     OW20854   2.587   2.439   2.734
 2992SOL    HW120855   2.598   2.346   2.751
 2992SOL    HW220856   2.657   2.461   2.673
 2993SOL     OW20857   2.947   3.816   5.627
 2993SOL    HW120858   2.880   3.860   5.574
 2993SOL    HW220859   2.915   3.726   5.634
 2994SOL     OW20860   0.978   0.135  15.168
 2994SOL    HW120861   1.059   0.086  15.150
 2994SOL    HW220862   0.999   0.225  15.146
 2995SOL     OW20863   4.161   4.611   5.669
 2995SOL    HW120864   4.253   4.635   5.682
 2995SOL    HW220865   4.146   4.539   5.731
 2996SOL     OW20866   2.430   2.603  19.152
 2996SOL    HW120867   2.429   2.648  19.067
 2996SOL    HW220868   2.447   2.673  19.215
 2997SOL     OW20869   0.540   4.654   5.129
 2997SOL    HW120870   0.533   4.571   5.176
 2997SOL    HW220871   0.622   4.692   5.160
 2998SOL     OW20872   1.454   2.461   0.628
 2998SOL    HW120873   1.422   2.516   0.557
 2998SOL    HW220874   1.540   2.431   0.598
 2999SOL     OW20875   3.970   4.684  20.500
 2999SOL    HW120876   4.061   4.713  20.509
 2999SOL    HW220877   3.950   4.697  20.407
 3000SOL     OW20878   3.114   1.720   0.785
 3000SOL    HW120879   3.091   1.629   0.803
 3000SOL    HW220880   3.113   1.727   0.689
 3001SOL     OW20881   4.048   0.909  20.873
 3001SOL    HW120882   3.958   0.909  20.907
 3001SOL    HW220883   4.046   0.971  20.800
 3002SOL     OW20884   2.408   3.184   8.048
 3002SOL    HW120885   2.360   3.265   8.064
 3002SOL    HW220886   2.484   3.210   7.996
 3003SOL     OW20887   3.935   1.729   4.123
 3003SOL    HW120888   4.017   1.770   4.096
 3003SOL    HW220889   3.962   1.652   4.174
 3004SOL     OW20890   3.103   0.639  16.766
 3004SOL    HW120891   3.009   0.653  16.763
 3004SOL    HW220892   3.113   0.544  16.757
 3005SOL     OW20893   2.764   2.972  17.745
 3005SOL    HW120894   2.819   2.896  17.763
 3005SOL    HW220895   2.759   3.018  17.829
 3006SOL     OW20896   1.520   1.088  19.003
 3006SOL    HW120897   1.453   1.156  18.996
 3006SOL    HW220898   1.602   1.136  19.007
 3007SOL     OW20899   1.140   3.161   3.572
 3007SOL    HW120900   1.059   3.134   3.528
 3007SOL    HW220901   1.150   3.099   3.644
 3008SOL     OW20902   1.615   2.515   5.598
 3008SOL    HW120903   1.572   2.429   5.601
 3008SOL    HW220904   1.703   2.499   5.632
 3009SOL     OW20905   1.634   4.223  17.778
 3009SOL    HW120906   1.658   4.210  17.870
 3009SOL    HW220907   1.626   4.134  17.743
 3010SOL     OW20908   4.273   2.342  20.395
 3010SOL    HW120909   4.291   2.287  20.471
 3010SOL    HW220910   4.312   2.295  20.321
 3011SOL     OW20911   4.217   3.291   1.290
 3011SOL    HW120912   4.284   3.280   1.224
 3011SOL    HW220913   4.178   3.203   1.299
 3012SOL     OW20914   4.476   4.594  20.279
 3012SOL    HW120915   4.480   4.681  20.319
 3012SOL    HW220916   4.567   4.564  20.280
 3013SOL     OW20917   3.371   3.936   0.815
 3013SOL    HW120918   3.436   3.996   0.853
 3013SOL    HW220919   3.408   3.911   0.730
 3014SOL     OW20920   0.092   2.723  18.875
 3014SOL    HW120921   0.086   2.689  18.786
 3014SOL    HW220922   0.123   2.813  18.865
 3015SOL     OW20923   3.408   2.860   1.937
 3015SOL    HW120924   3.490   2.900   1.907
 3015SOL    HW220925   3.409   2.773   1.898
 3016SOL     OW20926   2.604   3.310  14.603
 3016SOL    HW120927   2.599   3.243  14.671
 3016SOL    HW220928   2.517   3.310  14.563
 3017SOL     OW20929   2.251   1.954  20.254
 3017SOL    HW120930   2.314   2.013  20.295
 3017SOL    HW220931   2.210   2.007  20.186
 3018SOL     OW20932   0.809   4.509  16.829
 3018SOL    HW120933   0.745   4.438  16.836
 3018SOL    HW220934   0.758   4.589  16.843
 3019SOL     OW20935   3.353   3.335  19.874
 3019SOL    HW120936   3.398   3.360  19.954
 3019SOL    HW220937   3.265   3.308  19.902
 3020SOL     OW20938   4.370   1.780  16.348
 3020SOL    HW120939   4.302   1.829  16.302
 3020SOL    HW220940   4.327   1.700  16.378
 3021SOL     OW20941   2.465   2.799  18.913
 3021SOL    HW120942   2.467   2.866  18.981
 3021SOL    HW220943   2.420   2.841  18.839
 3022SOL     OW20944   0.484   1.062   1.600
 3022SOL    HW120945   0.482   1.046   1.505
 3022SOL    HW220946   0.448   0.981   1.638
 3023SOL     OW20947   3.449   4.020  16.372
 3023SOL    HW120948   3.448   3.926  16.352
 3023SOL    HW220949   3.539   4.048  16.356
 3024SOL     OW20950   1.763   4.154  15.338
 3024SOL    HW120951   1.763   4.241  15.297
 3024SOL    HW220952   1.697   4.161  15.407
 3025SOL     OW20953   0.508   3.763  17.153
 3025SOL    HW120954   0.571   3.766  17.225
 3025SOL    HW220955   0.531   3.684  17.105
 3026SOL     OW20956   3.436   0.074   4.750
 3026SOL    HW120957   3.442   0.168   4.769
 3026SOL    HW220958   3.466   0.031   4.831
 3027SOL     OW20959   0.696   4.204   4.700
 3027SOL    HW120960   0.782   4.186   4.740
 3027SOL    HW220961   0.698   4.157   4.617
 3028SOL     OW20962   0.877   4.320  19.270
 3028SOL    HW120963   0.900   4.229  19.285
 3028SOL    HW220964   0.802   4.336  19.328
 3029SOL     OW20965   1.548   3.379  19.668
 3029SOL    HW120966   1.638   3.401  19.689
 3029SOL    HW220967   1.541   3.285  19.681
 3030SOL     OW20968   0.291   4.488  16.468
 3030SOL    HW120969   0.295   4.406  16.419
 3030SOL    HW220970   0.381   4.520  16.470
 3031SOL     OW20971   4.586   0.565   0.105
 3031SOL    HW120972   4.641   0.594   0.177
 3031SOL    HW220973   4.504   0.612   0.117
 3032SOL     OW20974   2.784   3.725  16.663
 3032SOL    HW120975   2.847   3.655  16.681
 3032SOL    HW220976   2.761   3.713  16.571
 3033SOL     OW20977   0.987   4.255  20.212
 3033SOL    HW120978   1.080   4.261  20.233
 3033SOL    HW220979   0.966   4.340  20.173
 3034SOL     OW20980   2.652   1.481  16.100
 3034SOL    HW120981   2.657   1.427  16.179
 3034SOL    HW220982   2.636   1.569  16.134
 3035SOL     OW20983   4.158   0.438  20.406
 3035SOL    HW120984   4.133   0.529  20.391
 3035SOL    HW220985   4.157   0.429  20.501
 3036SOL     OW20986   3.610   3.057  17.013
 3036SOL    HW120987   3.587   3.007  17.090
 3036SOL    HW220988   3.543   3.035  16.948
 3037SOL     OW20989   2.667   0.908  21.127
 3037SOL    HW120990   2.593   0.928  21.070
 3037SOL    HW220991   2.744   0.928  21.074
 3038SOL     OW20992   0.338   1.980   1.124
 3038SOL    HW120993   0.276   1.956   1.192
 3038SOL    HW220994   0.286   2.028   1.060
 3039SOL     OW20995   1.083   3.695  18.630
 3039SOL    HW120996   1.006   3.638  18.630
 3039SOL    HW220997   1.156   3.636  18.651
 3040SOL     OW20998   0.412   3.923  16.154
 3040SOL    HW120999   0.428   3.919  16.248
 3040SOL    HW221000   0.369   4.008  16.141
 3041SOL     OW21001   3.414   2.387  18.646
 3041SOL    HW121002   3.359   2.342  18.709
 3041SOL    HW221003   3.423   2.326  18.573
 3042SOL     OW21004   2.024   1.006   7.676
 3042SOL    HW121005   1.949   1.057   7.645
 3042SOL    HW221006   2.096   1.031   7.618
 3043SOL     OW21007   1.968   2.707   5.253
 3043SOL    HW121008   1.923   2.701   5.169
 3043SOL    HW221009   1.898   2.711   5.318
 3044SOL     OW21010   0.087   1.791   2.753
 3044SOL    HW121011   0.081   1.766   2.661
 3044SOL    HW221012   0.151   1.863   2.755
 3045SOL     OW21013   2.468   1.621   5.205
 3045SOL    HW121014   2.457   1.620   5.300
 3045SOL    HW221015   2.561   1.640   5.192
 3046SOL     OW21016   3.781   0.019   4.164
 3046SOL    HW121017   3.710   4.765   4.122
 3046SOL    HW221018   3.783   0.104   4.119
 3047SOL     OW21019   1.943   1.219   9.769
 3047SOL    HW121020   2.030   1.251   9.796
 3047SOL    HW221021   1.907   1.290   9.716
 3048SOL     OW21022   2.190   0.659   3.330
 3048SOL    HW121023   2.108   0.631   3.289
 3048SOL    HW221024   2.243   0.580   3.335
 3049SOL     OW21025   4.122   2.937   2.940
 3049SOL    HW121026   4.100   2.914   2.849
 3049SOL    HW221027   4.186   3.007   2.932
 3050SOL     OW21028   1.628   3.364   2.591
 3050SOL    HW121029   1.579   3.337   2.669
 3050SOL    HW221030   1.584   3.320   2.518
 3051SOL     OW21031   4.734   0.691   6.889
 3051SOL    HW121032   4.674   0.671   6.817
 3051SOL    HW221033   4.683   0.673   6.968
 3052SOL     OW21034   0.972   4.600   0.095
 3052SOL    HW121035   0.923   4.522   0.121
 3052SOL    HW221036   0.916   4.673   0.122
 3053SOL     OW21037   2.801   3.934  15.131
 3053SOL    HW121038   2.715   3.894  15.137
 3053SOL    HW221039   2.784   4.027  15.113
 3054SOL     OW21040   0.161   4.632   7.018
 3054SOL    HW121041   0.106   4.630   6.940
 3054SOL    HW221042   0.203   4.717   7.016
 3055SOL     OW21043   1.027   0.734   3.320
 3055SOL    HW121044   1.035   0.707   3.412
 3055SOL    HW221045   1.054   0.657   3.270
 3056SOL     OW21046   3.580   1.336   5.689
 3056SOL    HW121047   3.553   1.417   5.646
 3056SOL    HW221048   3.658   1.307   5.641
 3057SOL     OW21049   0.730   1.291   3.251
 3057SOL    HW121050   0.726   1.217   3.191
 3057SOL    HW221051   0.820   1.322   3.245
 3058SOL     OW21052   3.411   0.002   3.856
 3058SOL    HW121053   3.456   0.040   3.781
 3058SOL    HW221054   3.332   0.054   3.866
 3059SOL     OW21055   3.653   3.750   9.076
 3059SOL    HW121056   3.650   3.845   9.087
 3059SOL    HW221057   3.746   3.730   9.070
 3060SOL     OW21058   0.661   4.130   5.561
 3060SOL    HW121059   0.704   4.070   5.500
 3060SOL    HW221060   0.649   4.079   5.641
 3061SOL     OW21061   3.308   0.042   1.092
 3061SOL    HW121062   3.322   4.786   1.173
 3061SOL    HW221063   3.388   0.028   1.041
 3062SOL     OW21064   1.278   1.932  17.509
 3062SOL    HW121065   1.278   1.855  17.566
 3062SOL    HW221066   1.192   1.972  17.522
 3063SOL     OW21067   4.486   1.289  17.940
 3063SOL    HW121068   4.511   1.280  17.848
 3063SOL    HW221069   4.395   1.320  17.936
 3064SOL     OW21070   0.065   3.130  18.292
 3064SOL    HW121071   4.783   3.185  18.272
 3064SOL    HW221072   0.078   3.078  18.212
 3065SOL     OW21073   0.966   1.938   4.451
 3065SOL    HW121074   1.052   1.919   4.414
 3065SOL    HW221075   0.982   1.958   4.543
 3066SOL     OW21076   2.757   3.367  16.657
 3066SOL    HW121077   2.822   3.297  16.660
 3066SOL    HW221078   2.683   3.330  16.610
 3067SOL     OW21079   1.981   3.604  19.502
 3067SOL    HW121080   1.940   3.672  19.557
 3067SOL    HW221081   2.073   3.628  19.500
 3068SOL     OW21082   3.062   2.439  16.722
 3068SOL    HW121083   2.971   2.412  16.734
 3068SOL    HW221084   3.074   2.443  16.627
 3069SOL     OW21085   3.958   1.928   5.474
 3069SOL    HW121086   4.028   1.873   5.441
 3069SOL    HW221087   4.002   1.991   5.531
 3070SOL     OW21088   3.570   3.255  17.381
 3070SOL    HW121089   3.632   3.278  17.449
 3070SOL    HW221090   3.566   3.159  17.383
 3071SOL     OW21091   1.972   2.552  16.157
 3071SOL    HW121092   1.990   2.460  16.179
 3071SOL    HW221093   1.926   2.548  16.073
 3072SOL     OW21094   1.071   0.144  12.497
 3072SOL    HW121095   1.077   0.049  12.509
 3072SOL    HW221096   1.048   0.155  12.405
 3073SOL     OW21097   3.311   2.179   4.054
 3073SOL    HW121098   3.322   2.192   4.148
 3073SOL    HW221099   3.294   2.266   4.019
 3074SOL     OW21100   3.621   4.483  20.617
 3074SOL    HW121101   3.596   4.430  20.541
 3074SOL    HW221102   3.697   4.439  20.653
 3075SOL     OW21103   0.785   3.072   0.492
 3075SOL    HW121104   0.750   2.984   0.506
 3075SOL    HW221105   0.866   3.058   0.443
 3076SOL     OW21106   0.983   4.319   3.282
 3076SOL    HW121107   0.934   4.326   3.200
 3076SOL    HW221108   1.026   4.404   3.291
 3077SOL     OW21109   2.437   0.837  18.058
 3077SOL    HW121110   2.346   0.833  18.086
 3077SOL    HW221111   2.446   0.924  18.018
 3078SOL     OW21112   2.699   3.469   2.339
 3078SOL    HW121113   2.606   3.471   2.319
 3078SOL    HW221114   2.705   3.412   2.416
 3079SOL     OW21115   0.288   1.803  17.585
 3079SOL    HW121116   0.294   1.710  17.608
 3079SOL    HW221117   0.369   1.842  17.620
 3080SOL     OW21118   1.408   4.557  15.763
 3080SOL    HW121119   1.374   4.583  15.849
 3080SOL    HW221120   1.469   4.627  15.739
 3081SOL     OW21121   1.032   3.205   3.958
 3081SOL    HW121122   0.967   3.137   3.978
 3081SOL    HW221123   1.084   3.213   4.038
 3082SOL     OW21124   1.512   1.941   4.822
 3082SOL    HW121125   1.502   2.034   4.843
 3082SOL    HW221126   1.573   1.909   4.889
 3083SOL     OW21127   0.415   3.353  19.041
 3083SOL    HW121128   0.448   3.439  19.068
 3083SOL    HW221129   0.320   3.364  19.038
 3084SOL     OW21130   0.553   2.952  20.130
 3084SOL    HW121131   0.554   2.856  20.138
 3084SOL    HW221132   0.588   2.983  20.214
 3085SOL     OW21133   2.729   2.789  14.865
 3085SOL    HW121134   2.668   2.814  14.934
 3085SOL    HW221135   2.677   2.736  14.804
 3086SOL     OW21136   0.452   2.252  18.670
 3086SOL    HW121137   0.387   2.322  18.676
 3086SOL    HW221138   0.433   2.209  18.587
 3087SOL     OW21139   3.923   1.191   6.868
 3087SOL    HW121140   3.920   1.280   6.832
 3087SOL    HW221141   3.902   1.202   6.961
 3088SOL     OW21142   4.115   3.213  19.896
 3088SOL    HW121143   4.073   3.141  19.850
 3088SOL    HW221144   4.133   3.179  19.984
 3089SOL     OW21145   2.129   0.299  13.716
 3089SOL    HW121146   2.212   0.341  13.696
 3089SOL    HW221147   2.064   0.368  13.704
 3090SOL     OW21148   0.684   0.255  15.728
 3090SOL    HW121149   0.763   0.231  15.776
 3090SOL    HW221150   0.631   0.175  15.725
 3091SOL     OW21151   3.054   0.049   0.328
 3091SOL    HW121152   3.027   0.141   0.336
 3091SOL    HW221153   2.991   0.001   0.381
 3092SOL     OW21154   4.462   0.199   2.333
 3092SOL    HW121155   4.496   0.226   2.247
 3092SOL    HW221156   4.541   0.177   2.383
 3093SOL     OW21157   0.428   3.262   1.836
 3093SOL    HW121158   0.389   3.292   1.754
 3093SOL    HW221159   0.374   3.188   1.863
 3094SOL     OW21160   0.283   2.744   7.715
 3094SOL    HW121161   0.264   2.662   7.669
 3094SOL    HW221162   0.374   2.737   7.742
 3095SOL     OW21163   4.330   3.703  14.714
 3095SOL    HW121164   4.248   3.662  14.687
 3095SOL    HW221165   4.338   3.779  14.657
 3096SOL     OW21166   0.885   1.821  16.086
 3096SOL    HW121167   0.795   1.826  16.117
 3096SOL    HW221168   0.891   1.736  16.043
 3097SOL     OW21169   3.909   3.581  18.362
 3097SOL    HW121170   3.921   3.649  18.428
 3097SOL    HW221171   3.935   3.500  18.407
 3098SOL     OW21172   4.652   4.663  17.484
 3098SOL    HW121173   4.597   4.589  17.509
 3098SOL    HW221174   4.740   4.627  17.478
 3099SOL     OW21175   0.662   1.477   5.226
 3099SOL    HW121176   0.623   1.473   5.138
 3099SOL    HW221177   0.755   1.491   5.210
 3100SOL     OW21178   2.308   3.247   1.149
 3100SOL    HW121179   2.291   3.326   1.098
 3100SOL    HW221180   2.295   3.175   1.087
 3101SOL     OW21181   1.870   2.557   2.599
 3101SOL    HW121182   1.914   2.578   2.682
 3101SOL    HW221183   1.779   2.585   2.612
 3102SOL     OW21184   2.059   2.103   6.415
 3102SOL    HW121185   2.003   2.102   6.492
 3102SOL    HW221186   2.063   2.196   6.390
 3103SOL     OW21187   0.743   1.074  20.606
 3103SOL    HW121188   0.801   1.112  20.539
 3103SOL    HW221189   0.682   1.144  20.627
 3104SOL     OW21190   0.074   2.191   1.933
 3104SOL    HW121191   0.101   2.266   1.879
 3104SOL    HW221192   0.039   2.231   2.013
 3105SOL     OW21193   0.961   0.612  18.945
 3105SOL    HW121194   0.888   0.551  18.939
 3105SOL    HW221195   0.928   0.693  18.906
 3106SOL     OW21196   0.990   1.797   0.854
 3106SOL    HW121197   1.029   1.845   0.781
 3106SOL    HW221198   0.911   1.847   0.876
 3107SOL     OW21199   1.395   4.263   3.819
 3107SOL    HW121200   1.387   4.356   3.798
 3107SOL    HW221201   1.434   4.224   3.740
 3108SOL     OW21202   3.053   3.760   5.211
 3108SOL    HW121203   3.093   3.674   5.221
 3108SOL    HW221204   3.099   3.800   5.137
 3109SOL     OW21205   1.311   1.660  15.966
 3109SOL    HW121206   1.256   1.623  16.035
 3109SOL    HW221207   1.251   1.712  15.913
 3110SOL     OW21208   2.980   1.154   3.299
 3110SOL    HW121209   3.050   1.102   3.338
 3110SOL    HW221210   2.900   1.113   3.330
 3111SOL     OW21211   0.101   4.395  20.837
 3111SOL    HW121212   0.032   4.336  20.808
 3111SOL    HW221213   0.110   4.377  20.931
 3112SOL     OW21214   2.485   2.941  11.166
 3112SOL    HW121215   2.547   2.914  11.234
 3112SOL    HW221216   2.508   2.888  11.090
 3113SOL     OW21217   4.727   2.459   0.281
 3113SOL    HW121218   4.765   2.541   0.315
 3113SOL    HW221219   4.705   2.409   0.360
 3114SOL     OW21220   0.021   2.599   4.722
 3114SOL    HW121221   4.774   2.671   4.674
 3114SOL    HW221222   0.074   2.554   4.656
 3115SOL     OW21223   2.722   4.663   1.510
 3115SOL    HW121224   2.668   4.620   1.444
 3115SOL    HW221225   2.658   4.702   1.570
 3116SOL     OW21226   3.631   3.626  17.042
 3116SOL    HW121227   3.574   3.650  16.970
 3116SOL    HW221228   3.640   3.705  17.094
 3117SOL     OW21229   2.048   3.747  18.710
 3117SOL    HW121230   2.135   3.785  18.720
 3117SOL    HW221231   1.989   3.822  18.711
 3118SOL     OW21232   3.101   3.835   4.236
 3118SOL    HW121233   3.065   3.752   4.268
 3118SOL    HW221234   3.179   3.809   4.187
 3119SOL     OW21235   1.005   4.782  17.670
 3119SOL    HW121236   1.012   4.699  17.623
 3119SOL    HW221237   0.957   0.045  17.611
 3120SOL     OW21238   4.320   2.729   2.343
 3120SOL    HW121239   4.344   2.807   2.292
 3120SOL    HW221240   4.295   2.664   2.277
 3121SOL     OW21241   0.998   3.186   7.986
 3121SOL    HW121242   1.082   3.175   7.941
 3121SOL    HW221243   1.022   3.192   8.079
 3122SOL     OW21244   2.284   4.387   2.883
 3122SOL    HW121245   2.211   4.441   2.912
 3122SOL    HW221246   2.334   4.444   2.824
 3123SOL     OW21247   2.132   2.485   2.344
 3123SOL    HW121248   2.219   2.510   2.376
 3123SOL    HW221249   2.149   2.438   2.263
 3124SOL     OW21250   3.264   4.576  21.026
 3124SOL    HW121251   3.303   4.649  21.075
 3124SOL    HW221252   3.330   4.554  20.960
 3125SOL     OW21253   2.374   0.866  20.732
 3125SOL    HW121254   2.330   0.792  20.689
 3125SOL    HW221255   2.327   0.878  20.814
 3126SOL     OW21256   2.267   3.753   5.732
 3126SOL    HW121257   2.361   3.743   5.714
 3126SOL    HW221258   2.250   3.846   5.719
 3127SOL     OW21259   3.689   2.106   0.448
 3127SOL    HW121260   3.658   2.195   0.436
 3127SOL    HW221261   3.783   2.114   0.463
 3128SOL     OW21262   1.503   3.867  15.841
 3128SOL    HW121263   1.419   3.912  15.841
 3128SOL    HW221264   1.527   3.860  15.933
 3129SOL     OW21265   0.605   1.463   4.710
 3129SOL    HW121266   0.531   1.522   4.692
 3129SOL    HW221267   0.680   1.522   4.722
 3130SOL     OW21268   3.501   4.410   6.524
 3130SOL    HW121269   3.436   4.387   6.591
 3130SOL    HW221270   3.455   4.396   6.441
 3131SOL     OW21271   3.664   3.096  18.897
 3131SOL    HW121272   3.728   3.057  18.955
 3131SOL    HW221273   3.651   3.185  18.932
 3132SOL     OW21274   3.507   2.702  13.681
 3132SOL    HW121275   3.419   2.686  13.715
 3132SOL    HW221276   3.500   2.686  13.587
 3133SOL     OW21277   0.396   1.105   5.393
 3133SOL    HW121278   0.387   1.110   5.297
 3133SOL    HW221279   0.455   1.177   5.415
 3134SOL     OW21280   3.618   2.565  17.333
 3134SOL    HW121281   3.658   2.623  17.268
 3134SOL    HW221282   3.692   2.528  17.381
 3135SOL     OW21283   0.440   2.729   0.895
 3135SOL    HW121284   0.500   2.756   0.825
 3135SOL    HW221285   0.493   2.730   0.974
 3136SOL     OW21286   1.652   1.528  12.900
 3136SOL    HW121287   1.560   1.516  12.923
 3136SOL    HW221288   1.650   1.564  12.811
 3137SOL     OW21289   3.727   4.567   6.485
 3137SOL    HW121290   3.640   4.542   6.518
 3137SOL    HW221291   3.740   4.656   6.519
 3138SOL     OW21292   4.446   3.944   3.607
 3138SOL    HW121293   4.414   3.973   3.693
 3138SOL    HW221294   4.432   4.019   3.550
 3139SOL     OW21295   2.156   0.664  18.747
 3139SOL    HW121296   2.182   0.574  18.765
 3139SOL    HW221297   2.175   0.677  18.654
 3140SOL     OW21298   1.313   3.639  19.322
 3140SOL    HW121299   1.290   3.570  19.384
 3140SOL    HW221300   1.247   3.707  19.336
 3141SOL     OW21301   2.074   0.894  16.982
 3141SOL    HW121302   2.002   0.830  16.982
 3141SOL    HW221303   2.084   0.919  16.891
 3142SOL     OW21304   1.785   4.121  18.290
 3142SOL    HW121305   1.801   4.047  18.349
 3142SOL    HW221306   1.872   4.161  18.279
 3143SOL     OW21307   0.610   4.686   4.382
 3143SOL    HW121308   0.644   4.602   4.411
 3143SOL    HW221309   0.675   4.718   4.320
 3144SOL     OW21310   0.588   1.414  21.204
 3144SOL    HW121311   0.588   1.499  21.160
 3144SOL    HW221312   0.561   1.434   0.018
 3145SOL     OW21313   2.228   0.807   4.216
 3145SOL    HW121314   2.323   0.803   4.202
 3145SOL    HW221315   2.194   0.733   4.165
 3146SOL     OW21316   0.952   0.297  20.069
 3146SOL    HW121317   0.928   0.362  20.135
 3146SOL    HW221318   1.034   0.330  20.032
 3147SOL     OW21319   2.574   2.074  20.058
 3147SOL    HW121320   2.497   2.124  20.086
 3147SOL    HW221321   2.648   2.131  20.076
 3148SOL     OW21322   0.027   4.160  16.309
 3148SOL    HW121323   4.751   4.095  16.302
 3148SOL    HW221324   0.016   4.197  16.397
 3149SOL     OW21325   2.972   4.414  12.425
 3149SOL    HW121326   2.881   4.418  12.453
 3149SOL    HW221327   3.021   4.401  12.506
 3150SOL     OW21328   4.030   3.171  13.867
 3150SOL    HW121329   3.971   3.150  13.794
 3150SOL    HW221330   4.025   3.095  13.925
 3151SOL     OW21331   4.779   0.459   6.481
 3151SOL    HW121332   0.068   0.443   6.525
 3151SOL    HW221333   4.751   0.373   6.450
 3152SOL     OW21334   2.648   2.365  21.067
 3152SOL    HW121335   2.643   2.356  21.162
 3152SOL    HW221336   2.561   2.395  21.041
 3153SOL     OW21337   1.967   4.544  21.133
 3153SOL    HW121338   1.962   4.640  21.135
 3153SOL    HW221339   1.940   4.517  21.221
 3154SOL     OW21340   3.113   2.020  18.059
 3154SOL    HW121341   3.037   2.049  18.009
 3154SOL    HW221342   3.134   2.095  18.115
 3155SOL     OW21343   0.654   1.821  16.715
 3155SOL    HW121344   0.638   1.727  16.719
 3155SOL    HW221345   0.668   1.847  16.806
 3156SOL     OW21346   1.534   4.257  19.678
 3156SOL    HW121347   1.584   4.225  19.753
 3156SOL    HW221348   1.565   4.204  19.605
 3157SOL     OW21349   3.219   3.171  21.052
 3157SOL    HW121350   3.238   3.160  20.959
 3157SOL    HW221351   3.140   3.119  21.066
 3158SOL     OW21352   2.265   4.086  13.745
 3158SOL    HW121353   2.332   4.089  13.814
 3158SOL    HW221354   2.256   4.177  13.716
 3159SOL     OW21355   1.115   2.556   2.328
 3159SOL    HW121356   1.150   2.624   2.270
 3159SOL    HW221357   1.050   2.602   2.381
 3160SOL     OW21358   3.910   2.616   1.470
 3160SOL    HW121359   3.977   2.554   1.443
 3160SOL    HW221360   3.831   2.564   1.481
 3161SOL     OW21361   1.414   2.699  16.275
 3161SOL    HW121362   1.422   2.759  16.349
 3161SOL    HW221363   1.433   2.613  16.313
 3162SOL     OW21364   4.620   4.602   6.478
 3162SOL    HW121365   4.590   4.680   6.525
 3162SOL    HW221366   4.621   4.629   6.386
 3163SOL     OW21367   4.213   1.506   0.775
 3163SOL    HW121368   4.161   1.584   0.799
 3163SOL    HW221369   4.201   1.446   0.848
 3164SOL     OW21370   0.906   0.792  20.148
 3164SOL    HW121371   0.981   0.749  20.106
 3164SOL    HW221372   0.876   0.855  20.082
 3165SOL     OW21373   4.418   2.706   1.957
 3165SOL    HW121374   4.453   2.788   1.992
 3165SOL    HW221375   4.395   2.655   2.035
 3166SOL     OW21376   0.916   1.094   1.914
 3166SOL    HW121377   0.974   1.156   1.960
 3166SOL    HW221378   0.933   1.110   1.821
 3167SOL     OW21379   2.675   0.783  19.037
 3167SOL    HW121380   2.675   0.858  18.977
 3167SOL    HW221381   2.622   0.812  19.111
 3168SOL     OW21382   2.648   2.002  15.620
 3168SOL    HW121383   2.678   2.068  15.558
 3168SOL    HW221384   2.632   2.050  15.701
 3169SOL     OW21385   0.788   4.140   6.211
 3169SOL    HW121386   0.857   4.075   6.197
 3169SOL    HW221387   0.807   4.178   6.296
 3170SOL     OW21388   4.279   0.990   2.952
 3170SOL    HW121389   4.235   1.072   2.975
 3170SOL    HW221390   4.340   1.014   2.882
 3171SOL     OW21391   0.615   2.467  20.112
 3171SOL    HW121392   0.577   2.419  20.039
 3171SOL    HW221393   0.686   2.411  20.143
 3172SOL     OW21394   0.240   1.162  16.961
 3172SOL    HW121395   0.322   1.149  16.913
 3172SOL    HW221396   0.238   1.256  16.980
 3173SOL     OW21397   1.920   2.689  14.346
 3173SOL    HW121398   1.847   2.631  14.368
 3173SOL    HW221399   1.879   2.772  14.323
 3174SOL     OW21400   3.656   3.007   2.951
 3174SOL    HW121401   3.726   2.977   2.893
 3174SOL    HW221402   3.595   3.053   2.893
 3175SOL     OW21403   0.375   0.976   3.429
 3175SOL    HW121404   0.398   0.909   3.364
 3175SOL    HW221405   0.355   0.927   3.508
 3176SOL     OW21406   2.781   4.237   5.376
 3176SOL    HW121407   2.855   4.297   5.383
 3176SOL    HW221408   2.757   4.240   5.283
 3177SOL     OW21409   2.406   3.738  17.025
 3177SOL    HW121410   2.449   3.674  17.082
 3177SOL    HW221411   2.479   3.781  16.979
 3178SOL     OW21412   3.135   4.343  17.877
 3178SOL    HW121413   3.206   4.406  17.882
 3178SOL    HW221414   3.172   4.268  17.831
 3179SOL     OW21415   0.284   4.486  18.235
 3179SOL    HW121416   0.247   4.404  18.268
 3179SOL    HW221417   0.351   4.509  18.299
 3180SOL     OW21418   0.992   0.068  17.082
 3180SOL    HW121419   0.969   4.771  17.065
 3180SOL    HW221420   0.908   0.115  17.080
 3181SOL     OW21421   1.029   3.367   1.982
 3181SOL    HW121422   1.011   3.454   2.018
 3181SOL    HW221423   1.054   3.384   1.891
 3182SOL     OW21424   2.128   4.665  17.833
 3182SOL    HW121425   2.116   4.570  17.832
 3182SOL    HW221426   2.207   4.679  17.886
 3183SOL     OW21427   0.924   3.627   0.073
 3183SOL    HW121428   0.965   3.713   0.064
 3183SOL    HW221429   0.983   3.577   0.129
 3184SOL     OW21430   4.344   0.233  17.384
 3184SOL    HW121431   4.381   0.171  17.322
 3184SOL    HW221432   4.390   0.315  17.366
 3185SOL     OW21433   2.292   3.820  17.519
 3185SOL    HW121434   2.226   3.769  17.472
 3185SOL    HW221435   2.348   3.856  17.450
 3186SOL     OW21436   2.632   2.575  16.835
 3186SOL    HW121437   2.572   2.606  16.903
 3186SOL    HW221438   2.682   2.653  16.809
 3187SOL     OW21439   1.255   4.471  19.069
 3187SOL    HW121440   1.195   4.534  19.031
 3187SOL    HW221441   1.207   4.435  19.144
 3188SOL     OW21442   0.471   3.566  19.820
 3188SOL    HW121443   0.451   3.499  19.755
 3188SOL    HW221444   0.566   3.558  19.834
 3189SOL     OW21445   4.753   0.031  14.710
 3189SOL    HW121446   0.050   0.059  14.696
 3189SOL    HW221447   4.753   4.789  14.799
 3190SOL     OW21448   0.532   0.020  20.561
 3190SOL    HW121449   0.456   0.049  20.511
 3190SOL    HW221450   0.584   0.099  20.576
 3191SOL     OW21451   4.547   1.563   6.136
 3191SOL    HW121452   4.506   1.477   6.143
 3191SOL    HW221453   4.477   1.625   6.157
 3192SOL     OW21454   1.516   3.829   3.343
 3192SOL    HW121455   1.446   3.769   3.318
 3192SOL    HW221456   1.595   3.775   3.344
 3193SOL     OW21457   2.984   0.715   3.103
 3193SOL    HW121458   2.994   0.798   3.057
 3193SOL    HW221459   3.070   0.696   3.138
 3194SOL     OW21460   2.260   2.602  18.422
 3194SOL    HW121461   2.260   2.606  18.327
 3194SOL    HW221462   2.204   2.675  18.449
 3195SOL     OW21463   3.789   2.478   6.130
 3195SOL    HW121464   3.751   2.444   6.049
 3195SOL    HW221465   3.717   2.522   6.174
 3196SOL     OW21466   1.196   3.393  16.366
 3196SOL    HW121467   1.157   3.328  16.424
 3196SOL    HW221468   1.164   3.369  16.279
 3197SOL     OW21469   0.018   3.036  17.786
 3197SOL    HW121470   0.031   3.126  17.815
 3197SOL    HW221471   0.048   3.035  17.695
 3198SOL     OW21472   2.492   4.097  20.950
 3198SOL    HW121473   2.502   4.011  20.909
 3198SOL    HW221474   2.443   4.149  20.886
 3199SOL     OW21475   0.124   4.672  21.247
 3199SOL    HW121476   0.086   4.709   0.050
 3199SOL    HW221477   0.050   4.663  21.187
 3200SOL     OW21478   0.721   1.516   5.585
 3200SOL    HW121479   0.812   1.526   5.613
 3200SOL    HW221480   0.685   1.605   5.587
 3201SOL     OW21481   2.518   3.346  15.723
 3201SOL    HW121482   2.511   3.270  15.665
 3201SOL    HW221483   2.521   3.309  15.811
 3202SOL     OW21484   0.115   3.782  15.861
 3202SOL    HW121485   0.040   3.841  15.859
 3202SOL    HW221486   0.090   3.710  15.803
 3203SOL     OW21487   4.213   3.059  18.758
 3203SOL    HW121488   4.299   3.084  18.725
 3203SOL    HW221489   4.156   3.131  18.731
 3204SOL     OW21490   4.167   1.197  16.928
 3204SOL    HW121491   4.221   1.269  16.960
 3204SOL    HW221492   4.194   1.121  16.980
 3205SOL     OW21493   0.904   3.248  19.859
 3205SOL    HW121494   0.946   3.200  19.931
 3205SOL    HW221495   0.848   3.182  19.816
 3206SOL     OW21496   4.763   3.598  18.331
 3206SOL    HW121497   0.031   3.647  18.276
 3206SOL    HW221498   4.727   3.664  18.390
 3207SOL     OW21499   3.411   0.558  17.664
 3207SOL    HW121500   3.460   0.537  17.743
 3207SOL    HW221501   3.347   0.623  17.692
 3208SOL     OW21502   2.637   4.300  17.987
 3208SOL    HW121503   2.680   4.215  17.991
 3208SOL    HW221504   2.690   4.351  17.926
 3209SOL     OW21505   1.473   4.055  16.407
 3209SOL    HW121506   1.385   4.018  16.403
 3209SOL    HW221507   1.531   3.980  16.393
 3210SOL     OW21508   4.397   1.275  20.082
 3210SOL    HW121509   4.441   1.208  20.029
 3210SOL    HW221510   4.304   1.262  20.064
 3211SOL     OW21511   3.216   0.983   8.782
 3211SOL    HW121512   3.241   0.940   8.864
 3211SOL    HW221513   3.269   0.940   8.715
 3212SOL     OW21514   0.976   3.938  15.674
 3212SOL    HW121515   0.931   4.013  15.713
 3212SOL    HW221516   0.910   3.897  15.617
 3213SOL     OW21517   1.725   0.541  15.743
 3213SOL    HW121518   1.726   0.583  15.829
 3213SOL    HW221519   1.684   0.456  15.758
 3214SOL     OW21520   3.091   2.388   2.634
 3214SOL    HW121521   3.122   2.323   2.571
 3214SOL    HW221522   3.011   2.422   2.594
 3215SOL     OW21523   3.553   2.183  19.024
 3215SOL    HW121524   3.482   2.233  19.065
 3215SOL    HW221525   3.518   2.093  19.018
 3216SOL     OW21526   1.716   0.397   1.398
 3216SOL    HW121527   1.649   0.450   1.442
 3216SOL    HW221528   1.719   0.316   1.448
 3217SOL     OW21529   1.094   0.497  13.089
 3217SOL    HW121530   1.184   0.463  13.094
 3217SOL    HW221531   1.040   0.424  13.120
 3218SOL     OW21532   1.791   3.151  19.530
 3218SOL    HW121533   1.842   3.156  19.449
 3218SOL    HW221534   1.726   3.083  19.513
 3219SOL     OW21535   0.653   0.325   4.368
 3219SOL    HW121536   0.744   0.298   4.376
 3219SOL    HW221537   0.639   0.387   4.439
 3220SOL     OW21538   2.879   1.267   4.916
 3220SOL    HW121539   2.911   1.315   4.992
 3220SOL    HW221540   2.786   1.252   4.933
 3221SOL     OW21541   0.379   4.319   6.191
 3221SOL    HW121542   0.440   4.315   6.118
 3221SOL    HW221543   0.324   4.242   6.180
 3222SOL     OW21544   2.814   0.570   2.447
 3222SOL    HW121545   2.864   0.622   2.510
 3222SOL    HW221546   2.724   0.603   2.455
 3223SOL     OW21547   4.150   1.900  20.922
 3223SOL    HW121548   4.204   1.869  20.849
 3223SOL    HW221549   4.189   1.985  20.946
 3224SOL     OW21550   3.968   3.210   1.980
 3224SOL    HW121551   4.030   3.214   2.052
 3224SOL    HW221552   4.022   3.220   1.901
 3225SOL     OW21553   3.845   0.668   2.714
 3225SOL    HW121554   3.837   0.644   2.807
 3225SOL    HW221555   3.847   0.585   2.668
 3226SOL     OW21556   1.407   2.719   8.782
 3226SOL    HW121557   1.456   2.642   8.753
 3226SOL    HW221558   1.465   2.761   8.846
 3227SOL     OW21559   0.063   0.724  20.061
 3227SOL    HW121560   0.057   0.796  20.125
 3227SOL    HW221561   0.140   0.674  20.090
 3228SOL     OW21562   4.456   3.886  16.161
 3228SOL    HW121563   4.385   3.932  16.116
 3228SOL    HW221564   4.414   3.810  16.201
 3229SOL     OW21565   0.682   4.658   2.117
 3229SOL    HW121566   0.632   4.577   2.128
 3229SOL    HW221567   0.726   4.648   2.033
 3230SOL     OW21568   0.344   2.059   3.464
 3230SOL    HW121569   0.301   1.980   3.497
 3230SOL    HW221570   0.386   2.031   3.382
 3231SOL     OW21571   2.730   2.237   1.065
 3231SOL    HW121572   2.761   2.154   1.029
 3231SOL    HW221573   2.809   2.290   1.073
 3232SOL     OW21574   4.111   2.463   3.038
 3232SOL    HW121575   4.162   2.544   3.033
 3232SOL    HW221576   4.153   2.405   2.974
 3233SOL     OW21577   3.711   1.746  17.484
 3233SOL    HW121578   3.669   1.810  17.426
 3233SOL    HW221579   3.790   1.720  17.437
 3234SOL     OW21580   3.451   3.654  16.620
 3234SOL    HW121581   3.501   3.718  16.671
 3234SOL    HW221582   3.472   3.674  16.529
 3235SOL     OW21583   1.646   3.481   3.829
 3235SOL    HW121584   1.600   3.415   3.880
 3235SOL    HW221585   1.679   3.434   3.752
 3236SOL     OW21586   2.310   1.567  21.115
 3236SOL    HW121587   2.256   1.646  21.113
 3236SOL    HW221588   2.400   1.600  21.118
 3237SOL     OW21589   3.492   1.021   3.304
 3237SOL    HW121590   3.543   1.074   3.365
 3237SOL    HW221591   3.554   0.955   3.271
 3238SOL     OW21592   4.253   0.894   5.563
 3238SOL    HW121593   4.185   0.882   5.497
 3238SOL    HW221594   4.331   0.852   5.525
 3239SOL     OW21595   0.133   2.822  15.887
 3239SOL    HW121596   0.056   2.827  15.831
 3239SOL    HW221597   0.121   2.741  15.937
 3240SOL     OW21598   2.733   2.897   6.453
 3240SOL    HW121599   2.748   2.941   6.537
 3240SOL    HW221600   2.668   2.829   6.474
 3241SOL     OW21601   4.019   0.918   5.852
 3241SOL    HW121602   4.082   0.846   5.855
 3241SOL    HW221603   3.995   0.926   5.760
 3242SOL     OW21604   0.503   1.122   2.651
 3242SOL    HW121605   0.452   1.075   2.585
 3242SOL    HW221606   0.483   1.214   2.636
 3243SOL     OW21607   3.063   4.758   5.751
 3243SOL    HW121608   3.080   4.705   5.673
 3243SOL    HW221609   3.069   4.697   5.824
 3244SOL     OW21610   0.421   1.758   0.010
 3244SOL    HW121611   0.459   1.723   0.090
 3244SOL    HW221612   0.378   1.840   0.037
 3245SOL     OW21613   0.819   2.878   5.351
 3245SOL    HW121614   0.745   2.886   5.411
 3245SOL    HW221615   0.882   2.945   5.380
 3246SOL     OW21616   4.769   3.706  17.405
 3246SOL    HW121617   0.042   3.651  17.364
 3246SOL    HW221618   4.791   3.794  17.376
 3247SOL     OW21619   0.277   0.258   1.173
 3247SOL    HW121620   0.208   0.303   1.124
 3247SOL    HW221621   0.279   0.170   1.135
 3248SOL     OW21622   4.396   4.246   0.655
 3248SOL    HW121623   4.450   4.260   0.733
 3248SOL    HW221624   4.458   4.240   0.583
 3249SOL     OW21625   3.015   3.927  19.331
 3249SOL    HW121626   2.937   3.952  19.380
 3249SOL    HW221627   3.056   3.858  19.383
 3250SOL     OW21628   3.834   0.690  20.022
 3250SOL    HW121629   3.837   0.712  19.929
 3250SOL    HW221630   3.833   0.594  20.024
 3251SOL     OW21631   0.052   4.022   6.519
 3251SOL    HW121632   0.127   4.006   6.576
 3251SOL    HW221633   4.771   4.027   6.578
 3252SOL     OW21634   2.582   3.714  19.347
 3252SOL    HW121635   2.563   3.662  19.424
 3252SOL    HW221636   2.581   3.651  19.275
 3253SOL     OW21637   4.562   2.381   4.731
 3253SOL    HW121638   4.528   2.390   4.642
 3253SOL    HW221639   4.601   2.466   4.750
 3254SOL     OW21640   1.525   2.945  14.567
 3254SOL    HW121641   1.510   2.862  14.614
 3254SOL    HW221642   1.524   2.921  14.475
 3255SOL     OW21643   1.222   0.674   2.536
 3255SOL    HW121644   1.232   0.713   2.449
 3255SOL    HW221645   1.128   0.658   2.544
 3256SOL     OW21646   0.102   0.740   6.243
 3256SOL    HW121647   0.195   0.761   6.238
 3256SOL    HW221648   0.079   0.709   6.156
 3257SOL     OW21649   0.378   3.104  18.184
 3257SOL    HW121650   0.374   3.011  18.163
 3257SOL    HW221651   0.298   3.141  18.148
 3258SOL     OW21652   1.412   1.123   0.813
 3258SOL    HW121653   1.446   1.033   0.819
 3258SOL    HW221654   1.468   1.165   0.747
 3259SOL     OW21655   0.985   0.023   5.097
 3259SOL    HW121656   0.950   0.054   5.180
 3259SOL    HW221657   1.003   4.724   5.112
 3260SOL     OW21658   4.244   3.534   4.108
 3260SOL    HW121659   4.244   3.581   4.024
 3260SOL    HW221660   4.154   3.542   4.139
 3261SOL     OW21661   4.761   3.601  19.631
 3261SOL    HW121662   0.060   3.579  19.634
 3261SOL    HW221663   4.737   3.617  19.722
 3262SOL     OW21664   2.571   4.624  20.993
 3262SOL    HW121665   2.488   4.613  21.039
 3262SOL    HW221666   2.637   4.628  21.063
 3263SOL     OW21667   2.737   2.868  19.371
 3263SOL    HW121668   2.833   2.864  19.377
 3263SOL    HW221669   2.709   2.776  19.376
 3264SOL     OW21670   3.809   4.427  18.998
 3264SOL    HW121671   3.787   4.345  18.953
 3264SOL    HW221672   3.817   4.403  19.090
 3265SOL     OW21673   3.783   3.672   2.782
 3265SOL    HW121674   3.782   3.635   2.870
 3265SOL    HW221675   3.692   3.695   2.765
 3266SOL     OW21676   2.549   2.123   3.582
 3266SOL    HW121677   2.487   2.057   3.552
 3266SOL    HW221678   2.588   2.085   3.661
 3267SOL     OW21679   4.392   1.775   0.456
 3267SOL    HW121680   4.409   1.692   0.502
 3267SOL    HW221681   4.458   1.778   0.387
 3268SOL     OW21682   1.705   2.359  15.260
 3268SOL    HW121683   1.675   2.448  15.238
 3268SOL    HW221684   1.800   2.368  15.271
 3269SOL     OW21685   3.240   4.587  18.311
 3269SOL    HW121686   3.324   4.593  18.356
 3269SOL    HW221687   3.214   4.496  18.321
 3270SOL     OW21688   1.201   3.122  16.995
 3270SOL    HW121689   1.290   3.151  16.974
 3270SOL    HW221690   1.212   3.039  17.041
 3271SOL     OW21691   0.786   3.629   3.808
 3271SOL    HW121692   0.708   3.652   3.859
 3271SOL    HW221693   0.786   3.533   3.806
 3272SOL     OW21694   2.282   3.720   1.844
 3272SOL    HW121695   2.218   3.753   1.906
 3272SOL    HW221696   2.361   3.770   1.863
 3273SOL     OW21697   0.428   3.196   6.049
 3273SOL    HW121698   0.436   3.237   5.963
 3273SOL    HW221699   0.455   3.105   6.035
 3274SOL     OW21700   4.568   3.127  17.488
 3274SOL    HW121701   4.547   3.058  17.551
 3274SOL    HW221702   4.605   3.198  17.540
 3275SOL     OW21703   3.236   2.834  18.699
 3275SOL    HW121704   3.157   2.832  18.753
 3275SOL    HW221705   3.290   2.904  18.737
 3276SOL     OW21706   3.978   3.773  18.578
 3276SOL    HW121707   4.071   3.775  18.553
 3276SOL    HW221708   3.954   3.865  18.586
 3277SOL     OW21709   2.179   4.722  15.848
 3277SOL    HW121710   2.209   0.015  15.824
 3277SOL    HW221711   2.250   4.686  15.901
 3278SOL     OW21712   4.063   1.804  19.390
 3278SOL    HW121713   4.108   1.851  19.319
 3278SOL    HW221714   3.991   1.861  19.415
 3279SOL     OW21715   2.596   0.725   4.574
 3279SOL    HW121716   2.502   0.745   4.571
 3279SOL    HW221717   2.639   0.810   4.579
 3280SOL     OW21718   3.555   2.696  20.644
 3280SOL    HW121719   3.544   2.646  20.563
 3280SOL    HW221720   3.554   2.630  20.713
 3281SOL     OW21721   3.809   1.511  20.636
 3281SOL    HW121722   3.781   1.429  20.677
 3281SOL    HW221723   3.876   1.484  20.572
 3282SOL     OW21724   4.343   0.645   4.757
 3282SOL    HW121725   4.350   0.739   4.738
 3282SOL    HW221726   4.366   0.603   4.674
 3283SOL     OW21727   2.504   0.295  14.241
 3283SOL    HW121728   2.517   0.238  14.317
 3283SOL    HW221729   2.412   0.320  14.245
 3284SOL     OW21730   2.372   1.964  18.374
 3284SOL    HW121731   2.337   1.875  18.378
 3284SOL    HW221732   2.392   1.978  18.281
 3285SOL     OW21733   1.905   0.539  18.577
 3285SOL    HW121734   1.936   0.628  18.561
 3285SOL    HW221735   1.951   0.485  18.512
 3286SOL     OW21736   0.507   4.015   3.374
 3286SOL    HW121737   0.519   4.075   3.448
 3286SOL    HW221738   0.426   3.969   3.393
 3287SOL     OW21739   0.718   3.944   3.747
 3287SOL    HW121740   0.699   3.860   3.705
 3287SOL    HW221741   0.794   3.978   3.698
 3288SOL     OW21742   1.284   1.984  20.621
 3288SOL    HW121743   1.307   2.057  20.678
 3288SOL    HW221744   1.196   2.006  20.588
 3289SOL     OW21745   2.482   3.063   6.350
 3289SOL    HW121746   2.574   3.036   6.348
 3289SOL    HW221747   2.483   3.146   6.397
 3290SOL     OW21748   2.460   0.916   8.395
 3290SOL    HW121749   2.493   0.847   8.453
 3290SOL    HW221750   2.376   0.882   8.362
 3291SOL     OW21751   1.826   0.627   2.056
 3291SOL    HW121752   1.818   0.536   2.026
 3291SOL    HW221753   1.863   0.620   2.144
 3292SOL     OW21754   0.850   4.124   2.232
 3292SOL    HW121755   0.828   4.159   2.145
 3292SOL    HW221756   0.768   4.125   2.280
 3293SOL     OW21757   4.359   2.933  19.483
 3293SOL    HW121758   4.394   2.986  19.554
 3293SOL    HW221759   4.412   2.854  19.484
 3294SOL     OW21760   0.893   2.186   1.977
 3294SOL    HW121761   0.806   2.168   2.014
 3294SOL    HW221762   0.925   2.100   1.949
 3295SOL     OW21763   0.980   0.038   6.785
 3295SOL    HW121764   0.937   4.753   6.753
 3295SOL    HW221765   0.971   0.101   6.714
 3296SOL     OW21766   1.984   2.988  17.671
 3296SOL    HW121767   2.053   2.932  17.635
 3296SOL    HW221768   1.945   2.936  17.741
 3297SOL     OW21769   2.159   4.558  13.574
 3297SOL    HW121770   2.097   4.486  13.579
 3297SOL    HW221771   2.114   4.631  13.616
 3298SOL     OW21772   2.458   4.173  12.555
 3298SOL    HW121773   2.516   4.191  12.629
 3298SOL    HW221774   2.379   4.136  12.595
 3299SOL     OW21775   1.026   2.064   5.610
 3299SOL    HW121776   1.120   2.046   5.620
 3299SOL    HW221777   1.017   2.156   5.632
 3300SOL     OW21778   1.287   0.587  18.220
 3300SOL    HW121779   1.215   0.587  18.283
 3300SOL    HW221780   1.357   0.539  18.264
 3301SOL     OW21781   0.498   2.224   1.563
 3301SOL    HW121782   0.523   2.223   1.471
 3301SOL    HW221783   0.525   2.138   1.596
 3302SOL     OW21784   0.933   0.279   2.158
 3302SOL    HW121785   0.951   0.204   2.102
 3302SOL    HW221786   0.989   0.349   2.123
 3303SOL     OW21787   0.117   0.160   4.651
 3303SOL    HW121788   0.046   0.204   4.604
 3303SOL    HW221789   0.075   0.126   4.730
 3304SOL     OW21790   1.829   3.742   6.255
 3304SOL    HW121791   1.919   3.735   6.286
 3304SOL    HW221792   1.789   3.809   6.310
 3305SOL     OW21793   4.041   2.781   4.566
 3305SOL    HW121794   4.095   2.827   4.502
 3305SOL    HW221795   3.951   2.802   4.542
 3306SOL     OW21796   1.882   0.023   2.283
 3306SOL    HW121797   1.908   0.033   2.191
 3306SOL    HW221798   1.836   0.104   2.304
 3307SOL     OW21799   4.112   0.625  17.838
 3307SOL    HW121800   4.179   0.611  17.772
 3307SOL    HW221801   4.156   0.610  17.922
 3308SOL     OW21802   1.367   0.939   8.278
 3308SOL    HW121803   1.406   0.912   8.195
 3308SOL    HW221804   1.283   0.894   8.281
 3309SOL     OW21805   3.138   3.543   2.359
 3309SOL    HW121806   3.207   3.605   2.333
 3309SOL    HW221807   3.066   3.561   2.297
 3310SOL     OW21808   3.616   0.014  20.422
 3310SOL    HW121809   3.532   4.765  20.436
 3310SOL    HW221810   3.649   0.032  20.510
 3311SOL     OW21811   0.259   1.268   2.096
 3311SOL    HW121812   0.241   1.258   2.002
 3311SOL    HW221813   0.351   1.294   2.099
 3312SOL     OW21814   2.294   3.607  14.851
 3312SOL    HW121815   2.227   3.640  14.911
 3312SOL    HW221816   2.364   3.575  14.908
 3313SOL     OW21817   1.570   3.608  16.541
 3313SOL    HW121818   1.481   3.641  16.530
 3313SOL    HW221819   1.573   3.577  16.631
 3314SOL     OW21820   2.342   0.625   5.501
 3314SOL    HW121821   2.327   0.596   5.591
 3314SOL    HW221822   2.332   0.720   5.504
 3315SOL     OW21823   4.216   2.099  17.184
 3315SOL    HW121824   4.129   2.075  17.151
 3315SOL    HW221825   4.247   2.020  17.229
 3316SOL     OW21826   1.390   0.275   2.297
 3316SOL    HW121827   1.405   0.356   2.248
 3316SOL    HW221828   1.308   0.290   2.343
 3317SOL     OW21829   3.423   2.012   6.149
 3317SOL    HW121830   3.420   1.924   6.186
 3317SOL    HW221831   3.364   2.009   6.073
 3318SOL     OW21832   1.606   3.740   7.798
 3318SOL    HW121833   1.533   3.685   7.770
 3318SOL    HW221834   1.683   3.701   7.757
 3319SOL     OW21835   1.016   3.375  15.396
 3319SOL    HW121836   1.068   3.422  15.461
 3319SOL    HW221837   1.079   3.316  15.353
 3320SOL     OW21838   3.945   0.239  15.049
 3320SOL    HW121839   3.869   0.197  15.089
 3320SOL    HW221840   3.956   0.321  15.096
 3321SOL     OW21841   0.417   3.203   0.264
 3321SOL    HW121842   0.324   3.225   0.271
 3321SOL    HW221843   0.450   3.207   0.354
 3322SOL     OW21844   1.104   0.975  18.632
 3322SOL    HW121845   1.109   1.005  18.723
 3322SOL    HW221846   1.163   0.900  18.628
 3323SOL     OW21847   4.225   1.696   2.775
 3323SOL    HW121848   4.274   1.627   2.821
 3323SOL    HW221849   4.235   1.675   2.683
 3324SOL     OW21850   2.408   1.056  18.632
 3324SOL    HW121851   2.408   1.151  18.642
 3324SOL    HW221852   2.499   1.030  18.646
 3325SOL     OW21853   3.322   0.286  14.671
 3325SOL    HW121854   3.411   0.318  14.659
 3325SOL    HW221855   3.330   0.190  14.669
 3326SOL     OW21856   2.824   2.507   2.280
 3326SOL    HW121857   2.917   2.528   2.270
 3326SOL    HW221858   2.796   2.481   2.192
 3327SOL     OW21859   4.137   3.107   7.510
 3327SOL    HW121860   4.178   3.021   7.522
 3327SOL    HW221861   4.185   3.146   7.437
 3328SOL     OW21862   3.445   1.618  17.999
 3328SOL    HW121863   3.414   1.692  18.051
 3328SOL    HW221864   3.408   1.632  17.912
 3329SOL     OW21865   0.220   2.038   0.886
 3329SOL    HW121866   0.140   2.074   0.926
 3329SOL    HW221867   0.189   1.991   0.809
 3330SOL     OW21868   0.735   2.703  18.714
 3330SOL    HW121869   0.812   2.744  18.674
 3330SOL    HW221870   0.748   2.609  18.700
 3331SOL     OW21871   2.425   0.714  16.633
 3331SOL    HW121872   2.491   0.779  16.654
 3331SOL    HW221873   2.388   0.688  16.718
 3332SOL     OW21874   0.203   2.317   2.320
 3332SOL    HW121875   0.119   2.301   2.363
 3332SOL    HW221876   0.225   2.407   2.345
 3333SOL     OW21877   1.541   3.356  19.030
 3333SOL    HW121878   1.535   3.268  18.992
 3333SOL    HW221879   1.589   3.407  18.965
 3334SOL     OW21880   0.530   3.201   0.516
 3334SOL    HW121881   0.476   3.194   0.595
 3334SOL    HW221882   0.614   3.163   0.542
 3335SOL     OW21883   0.069   1.686  19.142
 3335SOL    HW121884   0.035   1.770  19.111
 3335SOL    HW221885   0.016   1.665  19.218
 3336SOL     OW21886   2.516   2.106   5.042
 3336SOL    HW121887   2.585   2.039   5.043
 3336SOL    HW221888   2.522   2.148   5.128
 3337SOL     OW21889   0.075   2.012   0.112
 3337SOL    HW121890   4.789   2.041   0.069
 3337SOL    HW221891   0.053   1.927   0.150
 3338SOL     OW21892   3.244   0.498   3.587
 3338SOL    HW121893   3.338   0.488   3.570
 3338SOL    HW221894   3.238   0.523   3.679
 3339SOL     OW21895   2.016   3.453   6.910
 3339SOL    HW121896   1.969   3.377   6.875
 3339SOL    HW221897   2.088   3.416   6.961
 3340SOL     OW21898   0.988   0.020  15.513
 3340SOL    HW121899   1.065   4.792  15.460
 3340SOL    HW221900   1.023   0.035  15.601
 3341SOL     OW21901   2.687   4.631   2.360
 3341SOL    HW121902   2.677   4.543   2.325
 3341SOL    HW221903   2.644   4.628   2.446
 3342SOL     OW21904   2.675   2.686   1.956
 3342SOL    HW121905   2.684   2.777   1.985
 3342SOL    HW221906   2.643   2.692   1.867
 3343SOL     OW21907   2.014   3.955   5.131
 3343SOL    HW121908   2.012   4.034   5.185
 3343SOL    HW221909   1.972   3.889   5.185
 3344SOL     OW21910   1.400   1.644   5.288
 3344SOL    HW121911   1.342   1.651   5.364
 3344SOL    HW221912   1.480   1.605   5.322
 3345SOL     OW21913   4.096   0.569  19.461
 3345SOL    HW121914   4.019   0.513  19.472
 3345SOL    HW221915   4.166   0.521  19.505
 3346SOL     OW21916   1.824   4.747  20.477
 3346SOL    HW121917   1.820   4.652  20.464
 3346SOL    HW221918   1.892   4.777  20.417
 3347SOL     OW21919   3.963   1.284  18.389
 3347SOL    HW121920   3.959   1.189  18.377
 3347SOL    HW221921   4.057   1.303  18.394
 3348SOL     OW21922   0.037   1.081   3.992
 3348SOL    HW121923   0.036   0.986   3.980
 3348SOL    HW221924   0.125   1.107   3.964
 3349SOL     OW21925   0.387   3.748  16.794
 3349SOL    HW121926   0.345   3.707  16.717
 3349SOL    HW221927   0.479   3.722  16.788
 3350SOL     OW21928   2.332   1.162  16.712
 3350SOL    HW121929   2.326   1.242  16.659
 3350SOL    HW221930   2.406   1.115  16.675
 3351SOL     OW21931   4.686   2.128   1.706
 3351SOL    HW121932   4.697   2.198   1.642
 3351SOL    HW221933   4.745   2.152   1.778
 3352SOL     OW21934   3.322   4.373   3.988
 3352SOL    HW121935   3.308   4.278   3.984
 3352SOL    HW221936   3.417   4.383   3.994
 3353SOL     OW21937   1.928   4.050  16.765
 3353SOL    HW121938   1.835   4.039  16.745
 3353SOL    HW221939   1.954   4.127  16.716
 3354SOL     OW21940   0.132   0.225  14.069
 3354SOL    HW121941   0.195   0.236  13.999
 3354SOL    HW221942   0.146   0.300  14.127
 3355SOL     OW21943   2.871   1.364   5.836
 3355SOL    HW121944   2.930   1.301   5.879
 3355SOL    HW221945   2.785   1.322   5.841
 3356SOL     OW21946   4.041   4.286  18.760
 3356SOL    HW121947   4.040   4.237  18.678
 3356SOL    HW221948   4.112   4.350  18.750
 3357SOL     OW21949   0.907   1.235   4.298
 3357SOL    HW121950   0.824   1.210   4.256
 3357SOL    HW221951   0.899   1.329   4.312
 3358SOL     OW21952   3.294   1.963  19.986
 3358SOL    HW121953   3.339   2.029  19.933
 3358SOL    HW221954   3.265   1.897  19.923
 3359SOL     OW21955   3.900   2.552  18.355
 3359SOL    HW121956   3.889   2.471  18.304
 3359SOL    HW221957   3.835   2.545  18.425
 3360SOL     OW21958   0.503   0.842  20.552
 3360SOL    HW121959   0.550   0.862  20.471
 3360SOL    HW221960   0.522   0.749  20.568
 3361SOL     OW21961   4.055   1.458  19.838
 3361SOL    HW121962   4.021   1.536  19.881
 3361SOL    HW221963   4.007   1.386  19.879
 3362SOL     OW21964   0.736   0.955  19.930
 3362SOL    HW121965   0.689   1.009  19.867
 3362SOL    HW221966   0.722   0.865  19.900
 3363SOL     OW21967   3.562   3.419  19.707
 3363SOL    HW121968   3.473   3.415  19.741
 3363SOL    HW221969   3.617   3.389  19.779
 3364SOL     OW21970   1.911   4.068   6.507
 3364SOL    HW121971   2.003   4.041   6.500
 3364SOL    HW221972   1.861   3.989   6.486
 3365SOL     OW21973   1.006   2.694   5.413
 3365SOL    HW121974   1.016   2.678   5.506
 3365SOL    HW221975   0.933   2.755   5.407
 3366SOL     OW21976   4.455   0.039   6.185
 3366SOL    HW121977   4.528   4.773   6.203
 3366SOL    HW221978   4.378   4.789   6.220
 3367SOL     OW21979   0.941   4.653  19.079
 3367SOL    HW121980   0.959   4.735  19.126
 3367SOL    HW221981   0.966   4.670  18.989
 3368SOL     OW21982   1.588   1.901  19.926
 3368SOL    HW121983   1.532   1.828  19.954
 3368SOL    HW221984   1.677   1.865  19.931
 3369SOL     OW21985   1.355   1.037   4.430
 3369SOL    HW121986   1.381   1.103   4.366
 3369SOL    HW221987   1.262   1.023   4.414
 3370SOL     OW21988   4.417   1.494   8.211
 3370SOL    HW121989   4.504   1.508   8.175
 3370SOL    HW221990   4.433   1.471   8.303
 3371SOL     OW21991   3.326   1.245  19.038
 3371SOL    HW121992   3.247   1.292  19.010
 3371SOL    HW221993   3.302   1.206  19.122
 3372SOL     OW21994   1.700   3.093  15.264
 3372SOL    HW121995   1.792   3.103  15.240
 3372SOL    HW221996   1.690   3.146  15.343
 3373SOL     OW21997   0.655   0.350   2.529
 3373SOL    HW121998   0.666   0.433   2.574
 3373SOL    HW221999   0.561   0.332   2.534
 3374SOL     OW22000   1.484   4.410  19.412
 3374SOL    HW122001   1.545   4.388  19.482
 3374SOL    HW222002   1.519   4.366  19.334
 3375SOL     OW22003   2.003   4.502   2.862
 3375SOL    HW122004   2.037   4.530   2.777
 3375SOL    HW222005   1.932   4.442   2.841
 3376SOL     OW22006   2.819   3.811  19.513
 3376SOL    HW122007   2.732   3.807  19.475
 3376SOL    HW222008   2.818   3.889  19.568
 3377SOL     OW22009   0.801   3.467   6.000
 3377SOL    HW122010   0.856   3.434   6.071
 3377SOL    HW222011   0.835   3.554   5.981
 3378SOL     OW22012   3.054   4.194   3.877
 3378SOL    HW122013   3.120   4.223   3.815
 3378SOL    HW222014   2.985   4.157   3.822
 3379SOL     OW22015   1.163   2.098  20.133
 3379SOL    HW122016   1.173   2.004  20.121
 3379SOL    HW222017   1.207   2.137  20.058
 3380SOL     OW22018   2.370   2.944   7.006
 3380SOL    HW122019   2.384   2.872   7.067
 3380SOL    HW222020   2.282   2.928   6.971
 3381SOL     OW22021   3.277   3.207  20.795
 3381SOL    HW122022   3.348   3.213  20.731
 3381SOL    HW222023   3.202   3.248  20.752
 3382SOL     OW22024   4.686   1.426   3.431
 3382SOL    HW122025   4.763   1.441   3.487
 3382SOL    HW222026   4.699   1.484   3.356
 3383SOL     OW22027   4.361   4.684   0.739
 3383SOL    HW122028   4.378   4.751   0.805
 3383SOL    HW222029   4.268   4.693   0.718
 3384SOL     OW22030   4.524   2.489   3.185
 3384SOL    HW122031   4.464   2.421   3.215
 3384SOL    HW222032   4.497   2.568   3.232
 3385SOL     OW22033   3.321   4.113  13.411
 3385SOL    HW122034   3.385   4.183  13.402
 3385SOL    HW222035   3.295   4.116  13.503
 3386SOL     OW22036   3.117   4.720   0.661
 3386SOL    HW122037   3.083   0.015   0.673
 3386SOL    HW222038   3.198   4.731   0.611
 3387SOL     OW22039   3.315   2.422  20.654
 3387SOL    HW122040   3.359   2.388  20.576
 3387SOL    HW222041   3.290   2.511  20.629
 3388SOL     OW22042   1.371   3.484   0.484
 3388SOL    HW122043   1.460   3.455   0.463
 3388SOL    HW222044   1.384   3.559   0.542
 3389SOL     OW22045   2.572   0.983  15.068
 3389SOL    HW122046   2.581   1.073  15.037
 3389SOL    HW222047   2.484   0.957  15.039
 3390SOL     OW22048   0.301   2.734  20.808
 3390SOL    HW122049   0.266   2.815  20.772
 3390SOL    HW222050   0.257   2.664  20.759
 3391SOL     OW22051   1.615   2.437   7.887
 3391SOL    HW122052   1.589   2.462   7.975
 3391SOL    HW222053   1.592   2.513   7.832
 3392SOL     OW22054   4.447   1.071   1.287
 3392SOL    HW122055   4.471   1.143   1.345
 3392SOL    HW222056   4.482   0.993   1.330
 3393SOL     OW22057   3.598   2.507  19.159
 3393SOL    HW122058   3.549   2.589  19.150
 3393SOL    HW222059   3.661   2.509  19.086
 3394SOL     OW22060   0.586   4.267  14.845
 3394SOL    HW122061   0.662   4.324  14.858
 3394SOL    HW222062   0.553   4.252  14.934
 3395SOL     OW22063   2.535   2.325   1.341
 3395SOL    HW122064   2.594   2.363   1.276
 3395SOL    HW222065   2.518   2.236   1.309
 3396SOL     OW22066   0.253   4.276  16.789
 3396SOL    HW122067   0.179   4.253  16.845
 3396SOL    HW222068   0.330   4.263  16.845
 3397SOL     OW22069   2.757   0.712  18.718
 3397SOL    HW122070   2.673   0.669  18.731
 3397SOL    HW222071   2.792   0.673  18.637
 3398SOL     OW22072   1.740   3.157   7.509
 3398SOL    HW122073   1.726   3.196   7.423
 3398SOL    HW222074   1.765   3.231   7.565
 3399SOL     OW22075   0.598   1.494  18.374
 3399SOL    HW122076   0.544   1.508  18.451
 3399SOL    HW222077   0.617   1.400  18.373
 3400SOL     OW22078   3.919   2.729  15.990
 3400SOL    HW122079   3.830   2.729  16.025
 3400SOL    HW222080   3.945   2.821  15.989
 3401SOL     OW22081   3.495   3.720  18.496
 3401SOL    HW122082   3.574   3.697  18.545
 3401SOL    HW222083   3.528   3.756  18.414
 3402SOL     OW22084   4.013   4.255   1.110
 3402SOL    HW122085   3.943   4.205   1.068
 3402SOL    HW222086   4.068   4.190   1.153
 3403SOL     OW22087   3.129   2.006   1.969
 3403SOL    HW122088   3.177   1.924   1.981
 3403SOL    HW222089   3.056   1.983   1.912
 3404SOL     OW22090   0.135   3.020  21.136
 3404SOL    HW122091   0.178   3.047  21.055
 3404SOL    HW222092   0.062   3.082  21.146
 3405SOL     OW22093   2.006   0.356  18.423
 3405SOL    HW122094   2.074   0.357  18.355
 3405SOL    HW222095   2.031   0.285  18.481
 3406SOL     OW22096   4.662   2.772  16.243
 3406SOL    HW122097   4.628   2.861  16.243
 3406SOL    HW222098   4.594   2.720  16.201
 3407SOL     OW22099   1.541   1.727   1.523
 3407SOL    HW122100   1.600   1.677   1.579
 3407SOL    HW222101   1.583   1.813   1.514
 3408SOL     OW22102   3.256   3.733   4.656
 3408SOL    HW122103   3.338   3.730   4.705
 3408SOL    HW222104   3.242   3.643   4.626
 3409SOL     OW22105   2.626   3.410  20.058
 3409SOL    HW122106   2.580   3.354  19.995
 3409SOL    HW222107   2.575   3.403  20.139
 3410SOL     OW22108   0.135   3.267   6.628
 3410SOL    HW122109   0.104   3.241   6.541
 3410SOL    HW222110   0.067   3.236   6.688
 3411SOL     OW22111   3.929   1.779  18.613
 3411SOL    HW122112   3.966   1.700  18.652
 3411SOL    HW222113   3.929   1.843  18.684
 3412SOL     OW22114   0.827   2.940  16.325
 3412SOL    HW122115   0.829   2.897  16.410
 3412SOL    HW222116   0.734   2.939  16.300
 3413SOL     OW22117   1.633   1.211  18.127
 3413SOL    HW122118   1.681   1.282  18.083
 3413SOL    HW222119   1.552   1.252  18.158
 3414SOL     OW22120   0.531   0.167   0.168
 3414SOL    HW122121   0.522   0.262   0.158
 3414SOL    HW222122   0.516   0.132   0.079
 3415SOL     OW22123   1.293   4.563  19.479
 3415SOL    HW122124   1.362   4.515  19.434
 3415SOL    HW222125   1.229   4.583  19.410
 3416SOL     OW22126   0.433   4.503  20.423
 3416SOL    HW122127   0.424   4.421  20.472
 3416SOL    HW222128   0.397   4.569  20.481
 3417SOL     OW22129   1.449   0.024   4.283
 3417SOL    HW122130   1.383   0.060   4.224
 3417SOL    HW222131   1.492   4.750   4.231
 3418SOL     OW22132   3.334   2.299   6.198
 3418SOL    HW122133   3.267   2.231   6.196
 3418SOL    HW222134   3.413   2.257   6.165
 3419SOL     OW22135   2.560   4.477  14.710
 3419SOL    HW122136   2.558   4.390  14.672
 3419SOL    HW222137   2.648   4.485  14.748
 3420SOL     OW22138   0.103   4.641  19.728
 3420SOL    HW122139   0.148   4.594  19.798
 3420SOL    HW222140   0.171   4.694  19.687
 3421SOL     OW22141   4.191   3.755   7.207
 3421SOL    HW122142   4.213   3.817   7.137
 3421SOL    HW222143   4.132   3.693   7.166
 3422SOL     OW22144   4.640   3.716   2.691
 3422SOL    HW122145   4.724   3.743   2.726
 3422SOL    HW222146   4.601   3.796   2.655
 3423SOL     OW22147   4.423   2.745  15.634
 3423SOL    HW122148   4.412   2.650  15.631
 3423SOL    HW222149   4.403   2.775  15.545
 3424SOL     OW22150   1.806   0.757   0.267
 3424SOL    HW122151   1.804   0.739   0.361
 3424SOL    HW222152   1.714   0.754   0.240
 3425SOL     OW22153   0.929   2.402   5.402
 3425SOL    HW122154   0.849   2.388   5.452
 3425SOL    HW222155   0.979   2.464   5.455
 3426SOL     OW22156   0.799   3.388   5.347
 3426SOL    HW122157   0.722   3.402   5.402
 3426SOL    HW222158   0.871   3.375   5.409
 3427SOL     OW22159   0.576   0.856   0.487
 3427SOL    HW122160   0.558   0.933   0.540
 3427SOL    HW222161   0.520   0.788   0.524
 3428SOL     OW22162   1.958   0.197   1.787
 3428SOL    HW122163   1.997   0.272   1.741
 3428SOL    HW222164   1.945   0.132   1.718
 3429SOL     OW22165   2.037   3.268   4.218
 3429SOL    HW122166   2.077   3.196   4.266
 3429SOL    HW222167   2.093   3.344   4.235
 3430SOL     OW22168   4.500   3.461   1.260
 3430SOL    HW122169   4.420   3.480   1.212
 3430SOL    HW222170   4.483   3.494   1.349
 3431SOL     OW22171   2.979   1.782   9.407
 3431SOL    HW122172   3.006   1.829   9.486
 3431SOL    HW222173   2.979   1.690   9.432
 3432SOL     OW22174   2.939   4.487   8.158
 3432SOL    HW122175   2.992   4.549   8.208
 3432SOL    HW222176   2.882   4.541   8.105
 3433SOL     OW22177   4.315   3.697   7.944
 3433SOL    HW122178   4.276   3.779   7.975
 3433SOL    HW222179   4.379   3.724   7.878
 3434SOL     OW22180   3.881   3.913   9.518
 3434SOL    HW122181   3.853   3.858   9.592
 3434SOL    HW222182   3.957   3.960   9.551
 3435SOL     OW22183   1.310   2.516   7.774
 3435SOL    HW122184   1.375   2.585   7.760
 3435SOL    HW222185   1.230   2.564   7.798
 3436SOL     OW22186   1.476   0.925   8.799
 3436SOL    HW122187   1.539   0.863   8.834
 3436SOL    HW222188   1.497   1.008   8.841
 3437SOL     OW22189   2.336   1.330   5.630
 3437SOL    HW122190   2.337   1.267   5.702
 3437SOL    HW222191   2.429   1.343   5.609
 3438SOL     OW22192   1.737   0.798   8.592
 3438SOL    HW122193   1.660   0.840   8.553
 3438SOL    HW222194   1.740   0.712   8.551
 3439SOL     OW22195   2.281   3.915   6.473
 3439SOL    HW122196   2.304   3.913   6.566
 3439SOL    HW222197   2.363   3.935   6.428
 3440SOL     OW22198   0.116   3.983   2.327
 3440SOL    HW122199   0.088   3.942   2.245
 3440SOL    HW222200   0.122   3.911   2.389
 3441SOL     OW22201   1.971   0.335   8.169
 3441SOL    HW122202   1.935   0.356   8.083
 3441SOL    HW222203   1.900   0.353   8.230
 3442SOL     OW22204   0.486   2.097   5.436
 3442SOL    HW122205   0.545   2.148   5.492
 3442SOL    HW222206   0.410   2.079   5.493
 3443SOL     OW22207   3.401   0.815   8.629
 3443SOL    HW122208   3.397   0.728   8.668
 3443SOL    HW222209   3.475   0.810   8.568
 3444SOL     OW22210   2.563   4.409   7.502
 3444SOL    HW122211   2.645   4.389   7.547
 3444SOL    HW222212   2.563   4.504   7.490
 3445SOL     OW22213   0.533   3.830   4.188
 3445SOL    HW122214   0.556   3.835   4.280
 3445SOL    HW222215   0.514   3.920   4.162
 3446SOL     OW22216   4.780   3.680   9.367
 3446SOL    HW122217   4.704   3.709   9.417
 3446SOL    HW222218   0.013   3.758   9.317
 3447SOL     OW22219   2.885   3.857  20.283
 3447SOL    HW122220   2.925   3.819  20.361
 3447SOL    HW222221   2.835   3.932  20.316
 3448SOL     OW22222   1.201   3.297   9.339
 3448SOL    HW122223   1.139   3.288   9.412
 3448SOL    HW222224   1.287   3.285   9.379
 3449SOL     OW22225   2.727   4.131  10.107
 3449SOL    HW122226   2.788   4.151  10.177
 3449SOL    HW222227   2.768   4.060  10.058
 3450SOL     OW22228   3.411   3.548  10.879
 3450SOL    HW122229   3.340   3.532  10.941
 3450SOL    HW222230   3.386   3.630  10.835
 3451SOL     OW22231   4.693   3.516   9.871
 3451SOL    HW122232   4.728   3.494   9.785
 3451SOL    HW222233   4.748   3.588   9.902
 3452SOL     OW22234   2.674   3.824   9.085
 3452SOL    HW122235   2.698   3.828   9.178
 3452SOL    HW222236   2.723   3.895   9.044
 3453SOL     OW22237   0.020   4.573   9.551
 3453SOL    HW122238   4.746   4.639   9.540
 3453SOL    HW222239   0.041   4.545   9.462
 3454SOL     OW22240   3.569   4.420  10.463
 3454SOL    HW122241   3.481   4.437  10.428
 3454SOL    HW222242   3.578   4.325  10.462
 3455SOL     OW22243   0.008   0.642   9.402
 3455SOL    HW122244   4.715   0.620   9.368
 3455SOL    HW222245   0.009   0.607   9.491
 3456SOL     OW22246   3.793   4.246  11.061
 3456SOL    HW122247   3.837   4.161  11.058
 3456SOL    HW222248   3.853   4.306  11.016
 3457SOL     OW22249   0.076   3.892  11.032
 3457SOL    HW122250   0.128   3.899  11.112
 3457SOL    HW222251   0.120   3.949  10.969
 3458SOL     OW22252   3.161   3.282  10.441
 3458SOL    HW122253   3.152   3.252  10.350
 3458SOL    HW222254   3.088   3.343  10.454
 3459SOL     OW22255   3.008   0.211  10.276
 3459SOL    HW122256   2.961   0.200  10.359
 3459SOL    HW222257   2.954   0.273  10.226
 3460SOL     OW22258   4.070   0.171   8.927
 3460SOL    HW122259   4.108   0.106   8.986
 3460SOL    HW222260   4.042   0.242   8.984
 3461SOL     OW22261   4.538   0.615   9.383
 3461SOL    HW122262   4.481   0.572   9.447
 3461SOL    HW222263   4.478   0.671   9.332
 3462SOL     OW22264   4.441   4.082   9.222
 3462SOL    HW122265   4.348   4.066   9.209
 3462SOL    HW222266   4.485   4.018   9.165
 3463SOL     OW22267   0.171   4.489   9.914
 3463SOL    HW122268   0.136   4.466  10.000
 3463SOL    HW222269   0.159   4.410   9.861
 3464SOL     OW22270   4.749   4.099   9.089
 3464SOL    HW122271   0.035   4.122   9.042
 3464SOL    HW222272   4.775   4.026   9.146
 3465SOL     OW22273   3.368   3.774  10.727
 3465SOL    HW122274   3.364   3.822  10.809
 3465SOL    HW222275   3.353   3.840  10.659
 3466SOL     OW22276   4.771   3.933  10.287
 3466SOL    HW122277   0.036   3.869  10.246
 3466SOL    HW222278   4.703   3.880  10.328
 3467SOL     OW22279   0.741   0.408  11.500
 3467SOL    HW122280   0.750   0.371  11.412
 3467SOL    HW222281   0.725   0.333  11.556
 3468SOL     OW22282   4.162   3.720  10.604
 3468SOL    HW122283   4.184   3.802  10.562
 3468SOL    HW222284   4.231   3.659  10.577
 3469SOL     OW22285   3.861   2.876  10.291
 3469SOL    HW122286   3.895   2.793  10.260
 3469SOL    HW222287   3.769   2.877  10.263
 3470SOL     OW22288   3.485   4.464   9.255
 3470SOL    HW122289   3.394   4.494   9.250
 3470SOL    HW222290   3.483   4.393   9.319
 3471SOL     OW22291   4.052   3.500  11.386
 3471SOL    HW122292   4.076   3.460  11.470
 3471SOL    HW222293   3.958   3.484  11.378
 3472SOL     OW22294   0.453   4.476   9.934
 3472SOL    HW122295   0.503   4.419   9.875
 3472SOL    HW222296   0.362   4.452   9.918
 3473SOL     OW22297   3.866   3.101  10.442
 3473SOL    HW122298   3.776   3.132  10.429
 3473SOL    HW222299   3.866   3.013  10.405
 3474SOL     OW22300   0.113   2.619  10.353
 3474SOL    HW122301   0.044   2.626  10.419
 3474SOL    HW222302   0.085   2.547  10.296
 3475SOL     OW22303   2.932   3.793   9.415
 3475SOL    HW122304   2.975   3.770   9.497
 3475SOL    HW222305   3.003   3.792   9.350
 3476SOL     OW22306   4.298   2.679  10.316
 3476SOL    HW122307   4.239   2.706  10.386
 3476SOL    HW222308   4.266   2.726  10.238
 3477SOL     OW22309   2.993   3.498  13.358
 3477SOL    HW122310   2.948   3.577  13.387
 3477SOL    HW222311   3.035   3.522  13.276
 3478SOL     OW22312   2.802   4.219  20.045
 3478SOL    HW122313   2.795   4.127  20.021
 3478SOL    HW222314   2.845   4.219  20.130
 3479SOL     OW22315   4.525   1.884   2.139
 3479SOL    HW122316   4.513   1.842   2.224
 3479SOL    HW222317   4.462   1.955   2.138
 3480SOL     OW22318   3.819   4.737  12.614
 3480SOL    HW122319   3.887   0.011  12.613
 3480SOL    HW222320   3.738   4.785  12.631
 3481SOL     OW22321   2.076   3.815  11.378
 3481SOL    HW122322   2.104   3.888  11.323
 3481SOL    HW222323   2.007   3.772  11.327
 3482SOL     OW22324   4.090   3.968  11.573
 3482SOL    HW122325   4.142   3.906  11.523
 3482SOL    HW222326   4.103   4.052  11.529
 3483SOL     OW22327   1.946   2.980  18.888
 3483SOL    HW122328   1.922   3.051  18.829
 3483SOL    HW222329   1.899   3.000  18.970
 3484SOL     OW22330   4.754   1.699   5.333
 3484SOL    HW122331   4.741   1.707   5.238
 3484SOL    HW222332   4.725   1.783   5.368
 3485SOL     OW22333   3.654   0.138  12.671
 3485SOL    HW122334   3.673   0.231  12.660
 3485SOL    HW222335   3.565   0.135  12.707
 3486SOL     OW22336   3.917   0.530  12.837
 3486SOL    HW122337   3.983   0.593  12.865
 3486SOL    HW222338   3.874   0.572  12.763
 3487SOL     OW22339   4.112   1.533  12.058
 3487SOL    HW122340   4.202   1.523  12.025
 3487SOL    HW222341   4.116   1.609  12.116
 3488SOL     OW22342   0.272   1.047   1.104
 3488SOL    HW122343   0.357   1.059   1.061
 3488SOL    HW222344   0.287   1.071   1.195
 3489SOL     OW22345   0.301   4.132  12.449
 3489SOL    HW122346   0.293   4.184  12.369
 3489SOL    HW222347   0.237   4.062  12.438
 3490SOL     OW22348   3.081   0.467  12.101
 3490SOL    HW122349   3.127   0.532  12.048
 3490SOL    HW222350   3.079   0.504  12.189
 3491SOL     OW22351   0.515   0.384  16.263
 3491SOL    HW122352   0.474   0.367  16.179
 3491SOL    HW222353   0.498   0.477  16.280
 3492SOL     OW22354   4.705   3.698  10.802
 3492SOL    HW122355   4.738   3.711  10.891
 3492SOL    HW222356   4.616   3.664  10.815
 3493SOL     OW22357   2.132   0.251  20.675
 3493SOL    HW122358   2.072   0.267  20.602
 3493SOL    HW222359   2.148   0.156  20.672
 3494SOL     OW22360   3.658   2.073  12.767
 3494SOL    HW122361   3.687   2.016  12.696
 3494SOL    HW222362   3.736   2.084  12.822
 3495SOL     OW22363   0.942   0.861   3.689
 3495SOL    HW122364   1.036   0.849   3.671
 3495SOL    HW222365   0.900   0.789   3.642
 3496SOL     OW22366   1.043   1.201   5.664
 3496SOL    HW122367   1.090   1.146   5.601
 3496SOL    HW222368   0.964   1.228   5.617
 3497SOL     OW22369   4.208   2.403   4.329
 3497SOL    HW122370   4.148   2.455   4.383
 3497SOL    HW222371   4.156   2.328   4.301
 3498SOL     OW22372   1.164   4.237   5.166
 3498SOL    HW122373   1.082   4.251   5.212
 3498SOL    HW222374   1.187   4.146   5.186
 3499SOL     OW22375   2.547   0.449   1.765
 3499SOL    HW122376   2.547   0.392   1.842
 3499SOL    HW222377   2.482   0.516   1.785
 3500SOL     OW22378   3.952   3.792  17.726
 3500SOL    HW122379   4.024   3.837  17.770
 3500SOL    HW222380   3.895   3.763  17.798
 3501SOL     OW22381   3.729   3.835  17.207
 3501SOL    HW122382   3.682   3.783  17.272
 3501SOL    HW222383   3.712   3.926  17.232
 3502SOL     OW22384   1.997   0.201   4.184
 3502SOL    HW122385   1.983   0.260   4.258
 3502SOL    HW222386   1.912   0.200   4.139
 3503SOL     OW22387   2.426   3.592  11.362
 3503SOL    HW122388   2.352   3.593  11.423
 3503SOL    HW222389   2.503   3.589  11.419
 3504SOL     OW22390   1.659   3.565   0.198
 3504SOL    HW122391   1.656   3.479   0.156
 3504SOL    HW222392   1.599   3.618   0.147
 3505SOL     OW22393   2.240   3.123   1.591
 3505SOL    HW122394   2.329   3.118   1.557
 3505SOL    HW222395   2.207   3.207   1.558
 3506SOL     OW22396   1.591   1.097  13.901
 3506SOL    HW122397   1.669   1.052  13.870
 3506SOL    HW222398   1.519   1.055  13.854
 3507SOL     OW22399   2.516   0.632   4.161
 3507SOL    HW122400   2.433   0.592   4.136
 3507SOL    HW222401   2.581   0.593   4.102
 3508SOL     OW22402   0.960   4.052   3.999
 3508SOL    HW122403   0.894   4.029   3.933
 3508SOL    HW222404   0.995   4.136   3.969
 3509SOL     OW22405   0.856   3.119  18.108
 3509SOL    HW122406   0.891   3.176  18.039
 3509SOL    HW222407   0.879   3.031  18.080
 3510SOL     OW22408   0.333   3.270  16.786
 3510SOL    HW122409   0.289   3.330  16.725
 3510SOL    HW222410   0.399   3.323  16.828
 3511SOL     OW22411   0.590   0.705  11.735
 3511SOL    HW122412   0.682   0.704  11.705
 3511SOL    HW222413   0.566   0.612  11.738
 3512SOL     OW22414   0.067   4.748  11.448
 3512SOL    HW122415   0.003   0.021  11.427
 3512SOL    HW222416   0.024   4.692  11.512
 3513SOL     OW22417   4.216   4.773  18.576
 3513SOL    HW122418   4.234   4.761  18.483
 3513SOL    HW222419   4.302   4.792  18.614
 3514SOL     OW22420   0.918   3.187  20.336
 3514SOL    HW122421   0.989   3.159  20.393
 3514SOL    HW222422   0.919   3.283  20.343
 3515SOL     OW22423   4.700   1.922  17.044
 3515SOL    HW122424   4.668   2.011  17.056
 3515SOL    HW222425   4.794   1.927  17.065
 3516SOL     OW22426   3.081   0.920  20.184
 3516SOL    HW122427   3.140   0.995  20.177
 3516SOL    HW222428   3.130   0.847  20.145
 3517SOL     OW22429   3.830   3.276  15.751
 3517SOL    HW122430   3.763   3.298  15.687
 3517SOL    HW222431   3.868   3.360  15.777
 3518SOL     OW22432   4.417   0.532  15.265
 3518SOL    HW122433   4.424   0.524  15.170
 3518SOL    HW222434   4.323   0.535  15.282
 3519SOL     OW22435   4.588   1.288  12.561
 3519SOL    HW122436   4.522   1.224  12.585
 3519SOL    HW222437   4.552   1.372  12.588
 3520SOL     OW22438   1.353   4.642  14.942
 3520SOL    HW122439   1.329   4.730  14.969
 3520SOL    HW222440   1.304   4.584  15.000
 3521SOL     OW22441   1.773   2.656   1.234
 3521SOL    HW122442   1.823   2.599   1.291
 3521SOL    HW222443   1.757   2.604   1.155
 3522SOL     OW22444   4.555   2.981   5.616
 3522SOL    HW122445   4.504   2.995   5.536
 3522SOL    HW222446   4.623   3.048   5.613
 3523SOL     OW22447   1.678   0.741   1.241
 3523SOL    HW122448   1.744   0.680   1.209
 3523SOL    HW222449   1.595   0.704   1.212
 3524SOL     OW22450   1.558   2.837  15.785
 3524SOL    HW122451   1.547   2.800  15.872
 3524SOL    HW222452   1.620   2.908  15.796
 3525SOL     OW22453   1.063   3.818  17.546
 3525SOL    HW122454   1.110   3.735  17.533
 3525SOL    HW222455   1.045   3.849  17.457
 3526SOL     OW22456   0.215   0.713   2.364
 3526SOL    HW122457   0.139   0.758   2.401
 3526SOL    HW222458   0.190   0.696   2.273
 3527SOL     OW22459   0.701   0.959   3.835
 3527SOL    HW122460   0.628   1.011   3.801
 3527SOL    HW222461   0.772   0.972   3.772
 3528SOL     OW22462   3.028   1.469  20.856
 3528SOL    HW122463   3.085   1.515  20.795
 3528SOL    HW222464   3.038   1.517  20.938
 3529SOL     OW22465   4.508   1.118  18.833
 3529SOL    HW122466   4.590   1.101  18.880
 3529SOL    HW222467   4.535   1.167  18.756
 3530SOL     OW22468   3.578   1.331   3.791
 3530SOL    HW122469   3.557   1.417   3.755
 3530SOL    HW222470   3.518   1.271   3.747
 3531SOL     OW22471   4.455   3.235   2.054
 3531SOL    HW122472   4.506   3.207   2.130
 3531SOL    HW222473   4.381   3.284   2.090
 3532SOL     OW22474   2.073   1.956   3.473
 3532SOL    HW122475   2.036   1.883   3.522
 3532SOL    HW222476   2.026   2.033   3.505
 3533SOL     OW22477   1.771   1.610   0.583
 3533SOL    HW122478   1.694   1.635   0.533
 3533SOL    HW222479   1.823   1.690   0.590
 3534SOL     OW22480   4.270   3.090  12.993
 3534SOL    HW122481   4.261   3.136  13.077
 3534SOL    HW222482   4.346   3.130  12.952
 3535SOL     OW22483   2.975   1.521  19.411
 3535SOL    HW122484   3.027   1.590  19.451
 3535SOL    HW222485   2.914   1.494  19.480
 3536SOL     OW22486   0.931   3.822   3.463
 3536SOL    HW122487   0.938   3.894   3.526
 3536SOL    HW222488   0.855   3.845   3.409
 3537SOL     OW22489   3.486   3.099  19.789
 3537SOL    HW122490   3.459   3.187  19.815
 3537SOL    HW222491   3.457   3.092  19.698
 3538SOL     OW22492   0.363   4.461   0.534
 3538SOL    HW122493   0.436   4.498   0.484
 3538SOL    HW222494   0.397   4.381   0.573
 3539SOL     OW22495   2.532   4.160  11.240
 3539SOL    HW122496   2.437   4.159  11.252
 3539SOL    HW222497   2.560   4.074  11.271
 3540SOL     OW22498   2.659   1.598  20.352
 3540SOL    HW122499   2.646   1.503  20.351
 3540SOL    HW222500   2.599   1.631  20.285
 3541SOL     OW22501   0.527   2.027   0.331
 3541SOL    HW122502   0.448   2.029   0.277
 3541SOL    HW222503   0.598   2.014   0.269
 3542SOL     OW22504   0.168   2.580  14.547
 3542SOL    HW122505   0.243   2.572  14.488
 3542SOL    HW222506   0.156   2.674  14.557
 3543SOL     OW22507   2.429   1.706   7.967
 3543SOL    HW122508   2.490   1.767   8.009
 3543SOL    HW222509   2.386   1.661   8.040
 3544SOL     OW22510   0.715   0.900   2.883
 3544SOL    HW122511   0.646   0.844   2.921
 3544SOL    HW222512   0.796   0.852   2.901
 3545SOL     OW22513   2.085   3.770   2.300
 3545SOL    HW122514   2.160   3.817   2.337
 3545SOL    HW222515   2.033   3.745   2.377
 3546SOL     OW22516   0.606   1.745  18.831
 3546SOL    HW122517   0.573   1.830  18.861
 3546SOL    HW222518   0.544   1.719  18.762
 3547SOL     OW22519   1.407   1.081   2.686
 3547SOL    HW122520   1.340   1.020   2.715
 3547SOL    HW222521   1.395   1.159   2.741
 3548SOL     OW22522   0.594   2.115  20.143
 3548SOL    HW122523   0.549   2.058  20.205
 3548SOL    HW222524   0.546   2.103  20.061
 3549SOL     OW22525   0.015   0.929  18.573
 3549SOL    HW122526   0.095   0.981  18.568
 3549SOL    HW222527   0.045   0.838  18.572
 3550SOL     OW22528   4.162   1.678   4.344
 3550SOL    HW122529   4.255   1.699   4.334
 3550SOL    HW222530   4.155   1.588   4.313
 3551SOL     OW22531   1.610   0.947   5.060
 3551SOL    HW122532   1.572   0.936   4.972
 3551SOL    HW222533   1.615   0.858   5.095
 3552SOL     OW22534   3.773   0.119  13.559
 3552SOL    HW122535   3.766   0.142  13.466
 3552SOL    HW222536   3.783   0.023  13.558
 3553SOL     OW22537   2.225   2.655  16.034
 3553SOL    HW122538   2.259   2.710  16.104
 3553SOL    HW222539   2.147   2.614  16.071
 3554SOL     OW22540   1.055   3.141  19.172
 3554SOL    HW122541   0.983   3.195  19.141
 3554SOL    HW222542   1.119   3.204  19.207
 3555SOL     OW22543   4.230   1.784   1.674
 3555SOL    HW122544   4.308   1.793   1.619
 3555SOL    HW222545   4.240   1.852   1.740
 3556SOL     OW22546   0.436   0.260  14.621
 3556SOL    HW122547   0.485   0.186  14.585
 3556SOL    HW222548   0.364   0.221  14.669
 3557SOL     OW22549   0.327   4.704  17.457
 3557SOL    HW122550   0.389   4.720  17.527
 3557SOL    HW222551   0.376   4.655  17.391
 3558SOL     OW22552   2.266   2.222   3.221
 3558SOL    HW122553   2.297   2.133   3.204
 3558SOL    HW222554   2.277   2.267   3.138
 3559SOL     OW22555   0.714   1.322  20.953
 3559SOL    HW122556   0.723   1.416  20.971
 3559SOL    HW222557   0.803   1.288  20.962
 3560SOL     OW22558   4.421   2.329  11.958
 3560SOL    HW122559   4.425   2.234  11.944
 3560SOL    HW222560   4.512   2.356  11.964
 3561SOL     OW22561   3.145   1.371   3.385
 3561SOL    HW122562   3.206   1.316   3.337
 3561SOL    HW222563   3.062   1.322   3.384
 3562SOL     OW22564   1.389   2.918   3.116
 3562SOL    HW122565   1.346   2.837   3.144
 3562SOL    HW222566   1.366   2.982   3.184
 3563SOL     OW22567   4.418   4.134   1.730
 3563SOL    HW122568   4.415   4.197   1.658
 3563SOL    HW222569   4.427   4.049   1.687
 3564SOL     OW22570   0.997   1.168  14.922
 3564SOL    HW122571   1.091   1.161  14.909
 3564SOL    HW222572   0.965   1.077  14.918
 3565SOL     OW22573   4.183   1.317   0.974
 3565SOL    HW122574   4.264   1.298   1.020
 3565SOL    HW222575   4.149   1.230   0.949
 3566SOL     OW22576   3.129   2.441   6.853
 3566SOL    HW122577   3.116   2.509   6.919
 3566SOL    HW222578   3.044   2.398   6.847
 3567SOL     OW22579   1.892   3.741  16.678
 3567SOL    HW122580   1.954   3.809  16.650
 3567SOL    HW222581   1.812   3.760  16.629
 3568SOL     OW22582   3.456   3.526  15.167
 3568SOL    HW122583   3.407   3.603  15.138
 3568SOL    HW222584   3.540   3.561  15.197
 3569SOL     OW22585   0.894   4.447  18.118
 3569SOL    HW122586   0.944   4.431  18.038
 3569SOL    HW222587   0.818   4.390  18.110
 3570SOL     OW22588   3.722   4.289  14.524
 3570SOL    HW122589   3.806   4.251  14.498
 3570SOL    HW222590   3.657   4.231  14.484
 3571SOL     OW22591   3.278   2.132   7.186
 3571SOL    HW122592   3.297   2.076   7.111
 3571SOL    HW222593   3.290   2.076   7.262
 3572SOL     OW22594   1.186   1.030   5.475
 3572SOL    HW122595   1.264   1.045   5.421
 3572SOL    HW222596   1.123   0.988   5.415
 3573SOL     OW22597   1.272   1.816  20.172
 3573SOL    HW122598   1.292   1.741  20.230
 3573SOL    HW222599   1.248   1.776  20.089
 3574SOL     OW22600   4.265   2.216  16.093
 3574SOL    HW122601   4.272   2.195  16.186
 3574SOL    HW222602   4.209   2.293  16.089
 3575SOL     OW22603   0.091   4.511  16.638
 3575SOL    HW122604   0.118   4.453  16.709
 3575SOL    HW222605   0.167   4.512  16.579
 3576SOL     OW22606   3.696   3.804   6.626
 3576SOL    HW122607   3.697   3.819   6.720
 3576SOL    HW222608   3.782   3.834   6.596
 3577SOL     OW22609   2.069   1.060  12.357
 3577SOL    HW122610   2.115   0.976  12.349
 3577SOL    HW222611   2.132   1.124  12.323
 3578SOL     OW22612   0.097   4.020  18.915
 3578SOL    HW122613   0.181   4.007  18.960
 3578SOL    HW222614   0.033   4.030  18.985
 3579SOL     OW22615   3.756   2.232   5.122
 3579SOL    HW122616   3.725   2.179   5.049
 3579SOL    HW222617   3.731   2.321   5.100
 3580SOL     OW22618   0.740   4.493  18.452
 3580SOL    HW122619   0.760   4.465  18.362
 3580SOL    HW222620   0.653   4.457  18.468
 3581SOL     OW22621   1.094   2.382  18.790
 3581SOL    HW122622   1.088   2.320  18.864
 3581SOL    HW222623   1.177   2.361  18.748
 3582SOL     OW22624   2.901   3.397  20.010
 3582SOL    HW122625   2.808   3.373  20.015
 3582SOL    HW222626   2.932   3.392  20.100
 3583SOL     OW22627   2.719   3.087   5.687
 3583SOL    HW122628   2.683   3.068   5.600
 3583SOL    HW222629   2.714   3.003   5.733
 3584SOL     OW22630   2.312   0.835   3.879
 3584SOL    HW122631   2.243   0.791   3.929
 3584SOL    HW222632   2.288   0.822   3.788
 3585SOL     OW22633   1.990   3.227  18.068
 3585SOL    HW122634   2.032   3.271  18.142
 3585SOL    HW222635   1.918   3.286  18.043
 3586SOL     OW22636   2.391   0.434   6.369
 3586SOL    HW122637   2.476   0.405   6.337
 3586SOL    HW222638   2.406   0.524   6.400
 3587SOL     OW22639   4.337   2.459  17.532
 3587SOL    HW122640   4.399   2.473  17.461
 3587SOL    HW222641   4.385   2.408  17.597
 3588SOL     OW22642   0.708   3.822  16.441
 3588SOL    HW122643   0.702   3.770  16.360
 3588SOL    HW222644   0.800   3.846  16.447
 3589SOL     OW22645   0.942   1.966   3.418
 3589SOL    HW122646   0.886   2.007   3.484
 3589SOL    HW222647   1.020   2.022   3.415
 3590SOL     OW22648   0.538   4.019   6.679
 3590SOL    HW122649   0.487   3.965   6.740
 3590SOL    HW222650   0.476   4.044   6.611
 3591SOL     OW22651   0.124   3.791  13.454
 3591SOL    HW122652   0.093   3.792  13.363
 3591SOL    HW222653   0.191   3.859  13.457
 3592SOL     OW22654   1.389   1.893   0.581
 3592SOL    HW122655   1.294   1.888   0.570
 3592SOL    HW222656   1.413   1.978   0.545
 3593SOL     OW22657   3.009   0.138  16.085
 3593SOL    HW122658   2.988   0.084  16.009
 3593SOL    HW222659   2.961   0.219  16.071
 3594SOL     OW22660   2.618   1.317  13.357
 3594SOL    HW122661   2.702   1.352  13.327
 3594SOL    HW222662   2.587   1.380  13.422
 3595SOL     OW22663   2.793   1.936   0.949
 3595SOL    HW122664   2.822   1.911   1.037
 3595SOL    HW222665   2.707   1.893   0.939
 3596SOL     OW22666   1.881   4.714   3.303
 3596SOL    HW122667   1.933   4.720   3.224
 3596SOL    HW222668   1.790   4.725   3.273
 3597SOL     OW22669   1.599   3.280  15.870
 3597SOL    HW122670   1.516   3.233  15.867
 3597SOL    HW222671   1.575   3.372  15.856
 3598SOL     OW22672   2.745   1.037   3.374
 3598SOL    HW122673   2.713   1.014   3.461
 3598SOL    HW222674   2.797   0.962   3.346
 3599SOL     OW22675   2.766   3.860  15.779
 3599SOL    HW122676   2.848   3.850  15.827
 3599SOL    HW222677   2.768   3.950  15.745
 3600SOL     OW22678   4.783   4.756  15.530
 3600SOL    HW122679   4.788   0.048  15.572
 3600SOL    HW222680   0.080   4.736  15.507
 3601SOL     OW22681   2.740   0.012  15.758
 3601SOL    HW122682   2.673   4.792  15.826
 3601SOL    HW222683   2.724   0.101  15.726
 3602SOL     OW22684   1.928   4.605   4.104
 3602SOL    HW122685   1.951   4.608   4.011
 3602SOL    HW222686   1.878   4.685   4.118
 3603SOL     OW22687   0.805   0.391   6.216
 3603SOL    HW122688   0.886   0.381   6.167
 3603SOL    HW222689   0.832   0.394   6.308
 3604SOL     OW22690   2.997   2.344  15.917
 3604SOL    HW122691   2.908   2.375  15.904
 3604SOL    HW222692   2.988   2.269  15.975
 3605SOL     OW22693   1.804   1.059   0.185
 3605SOL    HW122694   1.835   0.980   0.230
 3605SOL    HW222695   1.865   1.071   0.113
 3606SOL     OW22696   1.458   1.384  16.674
 3606SOL    HW122697   1.479   1.402  16.582
 3606SOL    HW222698   1.391   1.316  16.671
 3607SOL     OW22699   2.591   2.713  21.052
 3607SOL    HW122700   2.552   2.754  21.129
 3607SOL    HW222701   2.681   2.693  21.078
 3608SOL     OW22702   3.656   1.729  14.337
 3608SOL    HW122703   3.734   1.678  14.313
 3608SOL    HW222704   3.683   1.820  14.326
 3609SOL     OW22705   4.423   3.083  18.524
 3609SOL    HW122706   4.418   2.990  18.504
 3609SOL    HW222707   4.347   3.121  18.478
 3610SOL     OW22708   0.882   2.117   3.093
 3610SOL    HW122709   0.932   2.036   3.090
 3610SOL    HW222710   0.939   2.179   3.139
 3611SOL     OW22711   0.459   0.432  19.998
 3611SOL    HW122712   0.542   0.478  20.009
 3611SOL    HW222713   0.483   0.339  20.000
 3612SOL     OW22714   3.656   1.220   7.022
 3612SOL    HW122715   3.579   1.250   7.070
 3612SOL    HW222716   3.717   1.293   7.026
 3613SOL     OW22717   2.692   2.669   6.902
 3613SOL    HW122718   2.673   2.611   6.976
 3613SOL    HW222719   2.710   2.610   6.829
 3614SOL     OW22720   4.068   0.595   1.788
 3614SOL    HW122721   4.131   0.539   1.834
 3614SOL    HW222722   4.065   0.675   1.840
 3615SOL     OW22723   0.819   4.515  12.886
 3615SOL    HW122724   0.765   4.578  12.839
 3615SOL    HW222725   0.908   4.531  12.854
 3616SOL     OW22726   2.847   3.702   3.049
 3616SOL    HW122727   2.751   3.712   3.048
 3616SOL    HW222728   2.863   3.623   2.996
 3617SOL     OW22729   2.232   4.790  15.345
 3617SOL    HW122730   2.205   4.779  15.254
 3617SOL    HW222731   2.240   4.701  15.378
 3618SOL     OW22732   3.175   1.834  16.955
 3618SOL    HW122733   3.117   1.898  16.997
 3618SOL    HW222734   3.192   1.768  17.023
 3619SOL     OW22735   3.871   2.667   6.519
 3619SOL    HW122736   3.902   2.657   6.430
 3619SOL    HW222737   3.801   2.602   6.528
 3620SOL     OW22738   0.789   0.033  18.765
 3620SOL    HW122739   0.838   0.078  18.696
 3620SOL    HW222740   0.827   0.067  18.846
 3621SOL     OW22741   0.153   4.254  18.316
 3621SOL    HW122742   0.103   4.278  18.394
 3621SOL    HW222743   0.089   4.259  18.244
 3622SOL     OW22744   1.201   3.936   3.675
 3622SOL    HW122745   1.263   3.865   3.656
 3622SOL    HW222746   1.225   3.965   3.763
 3623SOL     OW22747   2.877   4.545  15.597
 3623SOL    HW122748   2.956   4.545  15.544
 3623SOL    HW222749   2.848   4.636  15.597
 3624SOL     OW22750   0.097   1.819  19.932
 3624SOL    HW122751   0.073   1.766  20.008
 3624SOL    HW222752   0.013   1.841  19.891
 3625SOL     OW22753   2.045   3.885   3.618
 3625SOL    HW122754   1.979   3.937   3.663
 3625SOL    HW222755   2.101   3.950   3.575
 3626SOL     OW22756   0.341   3.217   0.757
 3626SOL    HW122757   0.316   3.296   0.805
 3626SOL    HW222758   0.273   3.153   0.778
 3627SOL     OW22759   3.516   3.650  16.366
 3627SOL    HW122760   3.479   3.614  16.286
 3627SOL    HW222761   3.610   3.632  16.360
 3628SOL     OW22762   0.255   0.221  16.340
 3628SOL    HW122763   0.301   0.255  16.264
 3628SOL    HW222764   0.183   0.284  16.354
 3629SOL     OW22765   2.877   3.137   1.930
 3629SOL    HW122766   2.896   3.145   1.837
 3629SOL    HW222767   2.959   3.158   1.974
 3630SOL     OW22768   4.211   0.355   4.608
 3630SOL    HW122769   4.196   0.340   4.515
 3630SOL    HW222770   4.300   0.324   4.623
 3631SOL     OW22771   4.660   0.614   5.497
 3631SOL    HW122772   4.610   0.558   5.556
 3631SOL    HW222773   4.695   0.683   5.554
 3632SOL     OW22774   2.799   0.261  20.575
 3632SOL    HW122775   2.758   0.312  20.645
 3632SOL    HW222776   2.769   0.303  20.494
 3633SOL     OW22777   3.322   2.953   6.227
 3633SOL    HW122778   3.319   3.033   6.175
 3633SOL    HW222779   3.233   2.945   6.263
 3634SOL     OW22780   0.931   0.359  17.426
 3634SOL    HW122781   0.908   0.364  17.518
 3634SOL    HW222782   0.932   0.266  17.406
 3635SOL     OW22783   4.419   4.206   4.699
 3635SOL    HW122784   4.454   4.164   4.777
 3635SOL    HW222785   4.454   4.154   4.626
 3636SOL     OW22786   4.535   2.953   6.166
 3636SOL    HW122787   4.549   2.989   6.078
 3636SOL    HW222788   4.507   2.863   6.151
 3637SOL     OW22789   0.567   0.416  20.302
 3637SOL    HW122790   0.484   0.454  20.331
 3637SOL    HW222791   0.593   0.470  20.228
 3638SOL     OW22792   3.046   0.626   4.466
 3638SOL    HW122793   2.993   0.587   4.536
 3638SOL    HW222794   3.013   0.715   4.458
 3639SOL     OW22795   1.097   0.181  20.916
 3639SOL    HW122796   1.018   0.179  20.862
 3639SOL    HW222797   1.133   0.268  20.903
 3640SOL     OW22798   1.746   3.826   2.309
 3640SOL    HW122799   1.812   3.781   2.361
 3640SOL    HW222800   1.779   3.823   2.220
 3641SOL     OW22801   0.658   2.327   3.404
 3641SOL    HW122802   0.681   2.237   3.427
 3641SOL    HW222803   0.648   2.372   3.488
 3642SOL     OW22804   4.466   0.969   6.083
 3642SOL    HW122805   4.400   0.995   6.019
 3642SOL    HW222806   4.544   0.948   6.031
 3643SOL     OW22807   1.978   1.764   6.722
 3643SOL    HW122808   1.912   1.833   6.732
 3643SOL    HW222809   2.006   1.745   6.812
 3644SOL     OW22810   3.612   2.537  18.751
 3644SOL    HW122811   3.549   2.475  18.713
 3644SOL    HW222812   3.562   2.586  18.816
 3645SOL     OW22813   0.186   3.906  20.864
 3645SOL    HW122814   0.168   3.825  20.817
 3645SOL    HW222815   0.102   3.953  20.864
 3646SOL     OW22816   0.025   0.144   2.225
 3646SOL    HW122817   4.754   0.077   2.251
 3646SOL    HW222818   4.777   0.190   2.153
 3647SOL     OW22819   0.909   4.405   1.847
 3647SOL    HW122820   0.928   4.380   1.756
 3647SOL    HW222821   0.988   4.379   1.895
 3648SOL     OW22822   3.071   1.677   5.712
 3648SOL    HW122823   3.104   1.600   5.666
 3648SOL    HW222824   3.051   1.739   5.642
 3649SOL     OW22825   0.885   2.126  19.840
 3649SOL    HW122826   0.840   2.080  19.911
 3649SOL    HW222827   0.937   2.058  19.797
 3650SOL     OW22828   1.983   0.629   4.964
 3650SOL    HW122829   2.003   0.688   5.037
 3650SOL    HW222830   1.947   0.687   4.896
 3651SOL     OW22831   1.597   1.787   0.419
 3651SOL    HW122832   1.510   1.806   0.455
 3651SOL    HW222833   1.644   1.870   0.424
 3652SOL     OW22834   3.355   2.703   6.115
 3652SOL    HW122835   3.319   2.783   6.153
 3652SOL    HW222836   3.279   2.646   6.101
 3653SOL     OW22837   3.476   0.595   8.198
 3653SOL    HW122838   3.456   0.571   8.108
 3653SOL    HW222839   3.572   0.598   8.201
 3654SOL     OW22840   3.652   1.992   5.209
 3654SOL    HW122841   3.684   2.079   5.186
 3654SOL    HW222842   3.729   1.936   5.204
 3655SOL     OW22843   2.473   1.950  19.309
 3655SOL    HW122844   2.534   1.892  19.263
 3655SOL    HW222845   2.467   2.028  19.254
 3656SOL     OW22846   1.735   1.086  16.719
 3656SOL    HW122847   1.790   1.150  16.674
 3656SOL    HW222848   1.735   1.009  16.663
 3657SOL     OW22849   2.913   2.691   6.040
 3657SOL    HW122850   2.971   2.627   5.999
 3657SOL    HW222851   2.868   2.643   6.109
 3658SOL     OW22852   2.589   1.285  15.897
 3658SOL    HW122853   2.623   1.349  15.959
 3658SOL    HW222854   2.497   1.310  15.884
 3659SOL     OW22855   1.823   2.355   3.738
 3659SOL    HW122856   1.826   2.260   3.751
 3659SOL    HW222857   1.907   2.375   3.696
 3660SOL     OW22858   3.743   4.218   1.035
 3660SOL    HW122859   3.723   4.125   1.049
 3660SOL    HW222860   3.694   4.241   0.956
 3661SOL     OW22861   4.566   0.263  17.005
 3661SOL    HW122862   4.609   0.256  17.091
 3661SOL    HW222863   4.633   0.302  16.949
 3662SOL     OW22864   4.234   3.858   5.035
 3662SOL    HW122865   4.194   3.772   5.023
 3662SOL    HW222866   4.223   3.877   5.128
 3663SOL     OW22867   2.299   3.810   4.551
 3663SOL    HW122868   2.304   3.732   4.496
 3663SOL    HW222869   2.207   3.816   4.577
 3664SOL     OW22870   2.668   0.964  18.618
 3664SOL    HW122871   2.743   0.983  18.561
 3664SOL    HW222872   2.703   0.903  18.683
 3665SOL     OW22873   1.345   4.763   3.884
 3665SOL    HW122874   1.299   4.745   3.966
 3665SOL    HW222875   1.329   0.061   3.867
 3666SOL     OW22876   3.749   3.473   5.137
 3666SOL    HW122877   3.830   3.440   5.099
 3666SOL    HW222878   3.745   3.564   5.110
 3667SOL     OW22879   0.670   0.423   3.778
 3667SOL    HW122880   0.750   0.469   3.752
 3667SOL    HW222881   0.690   0.385   3.863
 3668SOL     OW22882   2.384   0.821   3.233
 3668SOL    HW122883   2.332   0.743   3.249
 3668SOL    HW222884   2.466   0.806   3.281
 3669SOL     OW22885   4.008   0.468  15.231
 3669SOL    HW122886   4.045   0.541  15.281
 3669SOL    HW222887   3.989   0.506  15.145
 3670SOL     OW22888   0.660   4.650   1.642
 3670SOL    HW122889   0.638   4.572   1.590
 3670SOL    HW222890   0.681   4.717   1.577
 3671SOL     OW22891   0.439   3.692   0.731
 3671SOL    HW122892   0.530   3.704   0.705
 3671SOL    HW222893   0.391   3.680   0.649
 3672SOL     OW22894   2.083   1.568  16.557
 3672SOL    HW122895   2.030   1.613  16.492
 3672SOL    HW222896   2.024   1.554  16.631
 3673SOL     OW22897   3.343   1.099  18.759
 3673SOL    HW122898   3.297   1.078  18.677
 3673SOL    HW222899   3.277   1.143  18.813
 3674SOL     OW22900   0.254   0.312   3.483
 3674SOL    HW122901   0.238   0.313   3.388
 3674SOL    HW222902   0.349   0.304   3.491
 3675SOL     OW22903   2.240   4.276   4.795
 3675SOL    HW122904   2.311   4.255   4.734
 3675SOL    HW222905   2.222   4.193   4.839
 3676SOL     OW22906   4.779   0.411   2.561
 3676SOL    HW122907   0.011   0.409   2.653
 3676SOL    HW222908   4.789   0.503   2.535
 3677SOL     OW22909   2.982   0.099   1.820
 3677SOL    HW122910   3.036   0.051   1.756
 3677SOL    HW222911   2.942   0.169   1.770
 3678SOL     OW22912   3.878   2.753  19.055
 3678SOL    HW122913   3.881   2.847  19.073
 3678SOL    HW222914   3.877   2.747  18.959
 3679SOL     OW22915   4.403   2.055   3.278
 3679SOL    HW122916   4.468   1.987   3.258
 3679SOL    HW222917   4.319   2.013   3.263
 3680SOL     OW22918   3.137   0.565   0.707
 3680SOL    HW122919   3.183   0.647   0.689
 3680SOL    HW222920   3.135   0.519   0.623
 3681SOL     OW22921   2.761   4.228  20.572
 3681SOL    HW122922   2.789   4.166  20.640
 3681SOL    HW222923   2.734   4.305  20.621
 3682SOL     OW22924   3.287   3.702   0.951
 3682SOL    HW122925   3.365   3.667   0.994
 3682SOL    HW222926   3.318   3.780   0.905
 3683SOL     OW22927   4.202   2.297   0.613
 3683SOL    HW122928   4.174   2.250   0.535
 3683SOL    HW222929   4.142   2.267   0.682
 3684SOL     OW22930   1.721   3.497  17.024
 3684SOL    HW122931   1.672   3.540  16.954
 3684SOL    HW222932   1.813   3.506  16.998
 3685SOL     OW22933   2.024   3.985   7.013
 3685SOL    HW122934   2.063   3.899   6.996
 3685SOL    HW222935   1.973   4.004   6.934
 3686SOL     OW22936   2.759   2.465  16.167
 3686SOL    HW122937   2.682   2.502  16.210
 3686SOL    HW222938   2.801   2.538  16.123
 3687SOL     OW22939   0.537   3.489   0.496
 3687SOL    HW122940   0.510   3.494   0.588
 3687SOL    HW222941   0.553   3.396   0.480
 3688SOL     OW22942   0.941   4.584  17.069
 3688SOL    HW122943   0.987   4.504  17.095
 3688SOL    HW222944   0.886   4.557  16.996
 3689SOL     OW22945   2.784   2.351   5.899
 3689SOL    HW122946   2.702   2.351   5.850
 3689SOL    HW222947   2.758   2.338   5.990
 3690SOL     OW22948   0.112   4.379  21.212
 3690SOL    HW122949   0.055   4.420  21.147
 3690SOL    HW222950   0.054   4.325  21.265
 3691SOL     OW22951   3.819   4.428   2.054
 3691SOL    HW122952   3.739   4.409   2.006
 3691SOL    HW222953   3.872   4.349   2.045
 3692SOL     OW22954   4.102   0.190  20.649
 3692SOL    HW122955   4.011   0.185  20.677
 3692SOL    HW222956   4.124   0.282  20.655
 3693SOL     OW22957   1.115   0.945   0.973
 3693SOL    HW122958   1.119   1.038   0.993
 3693SOL    HW222959   1.051   0.938   0.902
 3694SOL     OW22960   3.283   2.430  19.009
 3694SOL    HW122961   3.310   2.459  18.922
 3694SOL    HW222962   3.189   2.443  19.011
 3695SOL     OW22963   4.711   2.511   3.620
 3695SOL    HW122964   4.617   2.516   3.601
 3695SOL    HW222965   4.735   2.601   3.642
 3696SOL     OW22966   1.156   3.879  20.672
 3696SOL    HW122967   1.088   3.937  20.637
 3696SOL    HW222968   1.219   3.939  20.714
 3697SOL     OW22969   0.883   0.525  15.301
 3697SOL    HW122970   0.830   0.493  15.374
 3697SOL    HW222971   0.955   0.573  15.342
 3698SOL     OW22972   2.199   2.375  15.569
 3698SOL    HW122973   2.128   2.437  15.583
 3698SOL    HW222974   2.253   2.383  15.648
 3699SOL     OW22975   1.472   3.490   5.255
 3699SOL    HW122976   1.544   3.504   5.316
 3699SOL    HW222977   1.399   3.463   5.310
 3700SOL     OW22978   3.227   4.742  19.967
 3700SOL    HW122979   3.200   0.040  19.968
 3700SOL    HW222980   3.167   4.698  20.027
 3701SOL     OW22981   4.296   2.380   1.185
 3701SOL    HW122982   4.335   2.437   1.119
 3701SOL    HW222983   4.369   2.327   1.218
 3702SOL     OW22984   4.628   0.240   6.411
 3702SOL    HW122985   4.540   0.274   6.395
 3702SOL    HW222986   4.624   0.205   6.500
 3703SOL     OW22987   3.759   3.026  19.339
 3703SOL    HW122988   3.716   3.111  19.355
 3703SOL    HW222989   3.733   2.972  19.413
 3704SOL     OW22990   2.835   2.009   5.971
 3704SOL    HW122991   2.796   2.068   6.036
 3704SOL    HW222992   2.792   1.925   5.986
 3705SOL     OW22993   1.612   4.019  20.482
 3705SOL    HW122994   1.692   4.067  20.459
 3705SOL    HW222995   1.550   4.088  20.505
 3706SOL     OW22996   1.771   4.354   3.724
 3706SOL    HW122997   1.704   4.296   3.687
 3706SOL    HW222998   1.792   4.414   3.652
 3707SOL     OW22999   1.912   3.710   2.494
 3707SOL    HW123000   1.896   3.748   2.581
 3707SOL    HW223001   1.877   3.621   2.500
 3708SOL     OW23002   0.721   1.609  21.014
 3708SOL    HW123003   0.663   1.679  21.044
 3708SOL    HW223004   0.796   1.613  21.073
 3709SOL     OW23005   4.038   4.643   9.789
 3709SOL    HW123006   4.072   4.592   9.716
 3709SOL    HW223007   4.107   4.707   9.809
 3710SOL     OW23008   1.770   4.477   5.663
 3710SOL    HW123009   1.756   4.501   5.571
 3710SOL    HW223010   1.682   4.458   5.696
 3711SOL     OW23011   1.799   4.761  18.488
 3711SOL    HW123012   1.735   0.028  18.526
 3711SOL    HW223013   1.876   4.768  18.545
 3712SOL     OW23014   2.345   0.224  17.808
 3712SOL    HW123015   2.379   0.202  17.895
 3712SOL    HW223016   2.411   0.190  17.748
 3713SOL     OW23017   3.604   1.473  20.870
 3713SOL    HW123018   3.578   1.497  20.781
 3713SOL    HW223019   3.700   1.470  20.866
 3714SOL     OW23020   4.470   2.643  19.467
 3714SOL    HW123021   4.474   2.682  19.380
 3714SOL    HW223022   4.557   2.606  19.481
 3715SOL     OW23023   2.995   4.186   2.297
 3715SOL    HW123024   3.011   4.224   2.384
 3715SOL    HW223025   3.050   4.237   2.238
 3716SOL     OW23026   1.251   4.727   4.942
 3716SOL    HW123027   1.194   4.772   5.006
 3716SOL    HW223028   1.263   4.639   4.979
 3717SOL     OW23029   3.012   0.132  16.454
 3717SOL    HW123030   2.960   0.052  16.464
 3717SOL    HW223031   3.102   0.101  16.446
 3718SOL     OW23032   0.820   2.608  16.413
 3718SOL    HW123033   0.886   2.551  16.373
 3718SOL    HW223034   0.801   2.566  16.497
 3719SOL     OW23035   3.452   3.149  20.238
 3719SOL    HW123036   3.473   3.170  20.329
 3719SOL    HW223037   3.445   3.053  20.237
 3720SOL     OW23038   0.480   1.160  15.955
 3720SOL    HW123039   0.502   1.251  15.933
 3720SOL    HW223040   0.545   1.135  16.020
 3721SOL     OW23041   1.367   3.357  12.654
 3721SOL    HW123042   1.433   3.397  12.710
 3721SOL    HW223043   1.382   3.263  12.661
 3722SOL     OW23044   0.951   4.316  19.823
 3722SOL    HW123045   1.001   4.240  19.794
 3722SOL    HW223046   0.860   4.285  19.827
 3723SOL     OW23047   4.652   0.230  18.737
 3723SOL    HW123048   4.580   0.171  18.759
 3723SOL    HW223049   4.693   0.190  18.660
 3724SOL     OW23050   0.104   1.367  17.400
 3724SOL    HW123051   0.130   1.274  17.398
 3724SOL    HW223052   0.092   1.386  17.492
 3725SOL     OW23053   0.222   2.941  18.448
 3725SOL    HW123054   0.301   2.963  18.399
 3725SOL    HW223055   0.162   3.014  18.432
 3726SOL     OW23056   3.618   2.183   8.445
 3726SOL    HW123057   3.534   2.225   8.429
 3726SOL    HW223058   3.659   2.236   8.514
 3727SOL     OW23059   3.858   2.692  18.137
 3727SOL    HW123060   3.874   2.662  18.226
 3727SOL    HW223061   3.946   2.704  18.100
 3728SOL     OW23062   0.070   0.946  20.614
 3728SOL    HW123063   0.009   0.942  20.540
 3728SOL    HW223064   0.118   0.863  20.609
 3729SOL     OW23065   2.351   3.010   2.515
 3729SOL    HW123066   2.277   3.037   2.569
 3729SOL    HW223067   2.311   2.981   2.433
 3730SOL     OW23068   1.172   1.780   0.308
 3730SOL    HW123069   1.207   1.722   0.241
 3730SOL    HW223070   1.079   1.759   0.312
 3731SOL     OW23071   3.527   3.960  18.707
 3731SOL    HW123072   3.476   4.029  18.749
 3731SOL    HW223073   3.461   3.898  18.675
 3732SOL     OW23074   2.066   0.324   2.843
 3732SOL    HW123075   2.122   0.394   2.810
 3732SOL    HW223076   1.976   0.356   2.830
 3733SOL     OW23077   0.717   1.179  21.220
 3733SOL    HW123078   0.734   1.142  21.134
 3733SOL    HW223079   0.670   1.261  21.202
 3734SOL     OW23080   2.211   3.513  19.982
 3734SOL    HW123081   2.135   3.568  19.962
 3734SOL    HW223082   2.216   3.513  20.078
 3735SOL     OW23083   4.590   2.289   0.829
 3735SOL    HW123084   4.607   2.308   0.921
 3735SOL    HW223085   4.675   2.303   0.786
 3736SOL     OW23086   2.378   0.652  17.796
 3736SOL    HW123087   2.330   0.723  17.838
 3736SOL    HW223088   2.464   0.690  17.777
 3737SOL     OW23089   4.130   0.091   5.084
 3737SOL    HW123090   4.094   0.178   5.098
 3737SOL    HW223091   4.224   0.102   5.098
 3738SOL     OW23092   4.585   2.449  18.707
 3738SOL    HW123093   4.613   2.443  18.616
 3738SOL    HW223094   4.648   2.396  18.756
 3739SOL     OW23095   2.312   3.037  14.579
 3739SOL    HW123096   2.216   3.040  14.577
 3739SOL    HW223097   2.337   3.119  14.621
 3740SOL     OW23098   0.298   2.235   7.572
 3740SOL    HW123099   0.237   2.221   7.499
 3740SOL    HW223100   0.323   2.147   7.600
 3741SOL     OW23101   4.597   3.658  14.265
 3741SOL    HW123102   4.558   3.746  14.264
 3741SOL    HW223103   4.532   3.604  14.311
 3742SOL     OW23104   3.712   3.324  15.349
 3742SOL    HW123105   3.680   3.310  15.438
 3742SOL    HW223106   3.645   3.286  15.292
 3743SOL     OW23107   3.321   3.884  15.892
 3743SOL    HW123108   3.402   3.833  15.900
 3743SOL    HW223109   3.279   3.850  15.813
 3744SOL     OW23110   0.448   3.491  16.426
 3744SOL    HW123111   0.516   3.529  16.370
 3744SOL    HW223112   0.372   3.481  16.368
 3745SOL     OW23113   3.967   2.253   2.099
 3745SOL    HW123114   3.941   2.195   2.029
 3745SOL    HW223115   3.933   2.212   2.179
 3746SOL     OW23116   2.000   1.793   5.524
 3746SOL    HW123117   2.029   1.849   5.451
 3746SOL    HW223118   2.076   1.789   5.582
 3747SOL     OW23119   1.894   2.651  19.708
 3747SOL    HW123120   1.838   2.702  19.650
 3747SOL    HW223121   1.935   2.716  19.765
 3748SOL     OW23122   0.100   3.801  16.380
 3748SOL    HW123123   0.111   3.771  16.290
 3748SOL    HW223124   0.043   3.877  16.373
 3749SOL     OW23125   2.157   1.865   3.934
 3749SOL    HW123126   2.194   1.835   3.851
 3749SOL    HW223127   2.084   1.806   3.951
 3750SOL     OW23128   1.963   2.329  21.138
 3750SOL    HW123129   1.870   2.330  21.162
 3750SOL    HW223130   2.005   2.275  21.204
 3751SOL     OW23131   1.550   1.271   2.362
 3751SOL    HW123132   1.621   1.335   2.361
 3751SOL    HW223133   1.538   1.247   2.271
 3752SOL     OW23134   3.196   3.127  18.569
 3752SOL    HW123135   3.207   3.032  18.574
 3752SOL    HW223136   3.220   3.149  18.478
 3753SOL     OW23137   2.703   4.049  14.451
 3753SOL    HW123138   2.690   3.976  14.511
 3753SOL    HW223139   2.796   4.045  14.429
 3754SOL     OW23140   2.186   3.088   6.014
 3754SOL    HW123141   2.150   3.014   6.063
 3754SOL    HW223142   2.112   3.121   5.963
 3755SOL     OW23143   3.836   4.647  13.623
 3755SOL    HW123144   3.789   4.650  13.706
 3755SOL    HW223145   3.795   4.575  13.575
 3756SOL     OW23146   2.139   0.618  15.302
 3756SOL    HW123147   2.050   0.582  15.303
 3756SOL    HW223148   2.127   0.709  15.273
 3757SOL     OW23149   0.046   1.246  18.933
 3757SOL    HW123150   4.781   1.182  18.972
 3757SOL    HW223151   0.033   1.325  18.985
 3758SOL     OW23152   3.950   3.692  15.310
 3758SOL    HW123153   3.954   3.597  15.297
 3758SOL    HW223154   4.040   3.716  15.334
 3759SOL     OW23155   1.186   1.641  20.536
 3759SOL    HW123156   1.161   1.549  20.535
 3759SOL    HW223157   1.227   1.656  20.451
 3760SOL     OW23158   4.462   3.106  19.678
 3760SOL    HW123159   4.413   3.173  19.725
 3760SOL    HW223160   4.549   3.143  19.667
 3761SOL     OW23161   2.772   1.422  20.049
 3761SOL    HW123162   2.854   1.376  20.063
 3761SOL    HW223163   2.791   1.513  20.071
 3762SOL     OW23164   2.594   2.994  18.622
 3762SOL    HW123165   2.513   2.962  18.660
 3762SOL    HW223166   2.611   3.076  18.669
 3763SOL     OW23167   4.502   4.128  17.753
 3763SOL    HW123168   4.529   4.059  17.814
 3763SOL    HW223169   4.479   4.202  17.809
 3764SOL     OW23170   2.936   3.042  19.570
 3764SOL    HW123171   2.975   2.958  19.547
 3764SOL    HW223172   2.951   3.098  19.494
 3765SOL     OW23173   1.807   1.415   5.884
 3765SOL    HW123174   1.745   1.482   5.854
 3765SOL    HW223175   1.764   1.332   5.865
 3766SOL     OW23176   0.239   1.335   1.105
 3766SOL    HW123177   0.275   1.256   1.144
 3766SOL    HW223178   0.309   1.400   1.112
 3767SOL     OW23179   0.783   3.744   6.304
 3767SOL    HW123180   0.747   3.822   6.346
 3767SOL    HW223181   0.853   3.715   6.363
 3768SOL     OW23182   4.704   3.257   4.500
 3768SOL    HW123183   4.646   3.331   4.517
 3768SOL    HW223184   4.725   3.222   4.587
 3769SOL     OW23185   1.023   0.296  14.509
 3769SOL    HW123186   0.945   0.242  14.498
 3769SOL    HW223187   1.015   0.365  14.443
 3770SOL     OW23188   1.239   0.008  20.611
 3770SOL    HW123189   1.326   4.786  20.646
 3770SOL    HW223190   1.189   0.042  20.686
 3771SOL     OW23191   2.133   0.149  19.296
 3771SOL    HW123192   2.203   0.087  19.275
 3771SOL    HW223193   2.179   0.230  19.320
 3772SOL     OW23194   2.818   2.317   6.518
 3772SOL    HW123195   2.764   2.251   6.476
 3772SOL    HW223196   2.888   2.335   6.455
 3773SOL     OW23197   4.713   0.952   2.909
 3773SOL    HW123198   4.698   1.035   2.865
 3773SOL    HW223199   4.713   0.973   3.002
 3774SOL     OW23200   3.675   4.063  18.023
 3774SOL    HW123201   3.590   4.107  18.024
 3774SOL    HW223202   3.723   4.102  18.096
 3775SOL     OW23203   2.104   3.798  20.139
 3775SOL    HW123204   2.187   3.833  20.106
 3775SOL    HW223205   2.076   3.735  20.073
 3776SOL     OW23206   4.726   3.827  18.466
 3776SOL    HW123207   4.710   3.921  18.471
 3776SOL    HW223208   4.767   3.805  18.550
 3777SOL     OW23209   1.426   4.476  20.574
 3777SOL    HW123210   1.465   4.546  20.521
 3777SOL    HW223211   1.434   4.508  20.664
 3778SOL     OW23212   3.851   2.529  16.751
 3778SOL    HW123213   3.873   2.621  16.733
 3778SOL    HW223214   3.863   2.485  16.667
 3779SOL     OW23215   4.500   2.536  16.218
 3779SOL    HW123216   4.441   2.507  16.287
 3779SOL    HW223217   4.588   2.526  16.256
 3780SOL     OW23218   3.330   0.216  19.232
 3780SOL    HW123219   3.246   0.169  19.237
 3780SOL    HW223220   3.308   0.299  19.190
 3781SOL     OW23221   3.857   0.651  18.519
 3781SOL    HW123222   3.823   0.583  18.577
 3781SOL    HW223223   3.802   0.727  18.537
 3782SOL     OW23224   1.897   2.363  17.846
 3782SOL    HW123225   1.898   2.351  17.751
 3782SOL    HW223226   1.829   2.428  17.862
 3783SOL     OW23227   2.040   1.539   0.394
 3783SOL    HW123228   1.980   1.608   0.364
 3783SOL    HW223229   2.007   1.459   0.354
 3784SOL     OW23230   0.036   0.666  18.064
 3784SOL    HW123231   0.123   0.639  18.037
 3784SOL    HW223232   0.050   0.741  18.123
 3785SOL     OW23233   2.100   1.900  18.143
 3785SOL    HW123234   2.059   1.857  18.218
 3785SOL    HW223235   2.088   1.839  18.070
 3786SOL     OW23236   2.251   0.395   3.578
 3786SOL    HW123237   2.176   0.384   3.637
 3786SOL    HW223238   2.324   0.355   3.626
 3787SOL     OW23239   4.486   1.858  18.791
 3787SOL    HW123240   4.467   1.950  18.775
 3787SOL    HW223241   4.400   1.816  18.794
 3788SOL     OW23242   1.354   4.265  20.959
 3788SOL    HW123243   1.361   4.343  20.903
 3788SOL    HW223244   1.362   4.299  21.048
 3789SOL     OW23245   4.622   4.576   5.963
 3789SOL    HW123246   4.535   4.582   5.924
 3789SOL    HW223247   4.610   4.602   6.054
 3790SOL     OW23248   4.114   4.511   1.813
 3790SOL    HW123249   4.048   4.580   1.804
 3790SOL    HW223250   4.083   4.440   1.757
 3791SOL     OW23251   0.030   2.954   6.559
 3791SOL    HW123252   0.089   3.004   6.502
 3791SOL    HW223253   4.736   2.976   6.527
 3792SOL     OW23254   2.359   4.182   3.041
 3792SOL    HW123255   2.335   4.256   2.984
 3792SOL    HW223256   2.362   4.220   3.129
 3793SOL     OW23257   3.829   3.242  16.372
 3793SOL    HW123258   3.859   3.279  16.455
 3793SOL    HW223259   3.894   3.270  16.308
 3794SOL     OW23260   1.533   1.197   4.975
 3794SOL    HW123261   1.598   1.136   5.010
 3794SOL    HW223262   1.554   1.204   4.882
 3795SOL     OW23263   4.137   3.025   3.527
 3795SOL    HW123264   4.164   3.012   3.618
 3795SOL    HW223265   4.045   3.049   3.533
 3796SOL     OW23266   0.245   4.701   2.678
 3796SOL    HW123267   0.283   4.632   2.625
 3796SOL    HW223268   0.150   4.686   2.672
 3797SOL     OW23269   1.992   0.027   6.017
 3797SOL    HW123270   2.057   0.006   6.084
 3797SOL    HW223271   1.943   4.740   6.003
 3798SOL     OW23272   3.396   0.596  15.723
 3798SOL    HW123273   3.397   0.692  15.723
 3798SOL    HW223274   3.488   0.571  15.712
 3799SOL     OW23275   1.868   2.082   3.698
 3799SOL    HW123276   1.829   2.078   3.611
 3799SOL    HW223277   1.823   2.014   3.748
 3800SOL     OW23278   2.371   1.443   3.774
 3800SOL    HW123279   2.465   1.463   3.782
 3800SOL    HW223280   2.368   1.366   3.717
 3801SOL     OW23281   3.612   4.686  15.622
 3801SOL    HW123282   3.706   4.706  15.626
 3801SOL    HW223283   3.606   4.595  15.650
 3802SOL     OW23284   0.239   2.338  20.935
 3802SOL    HW123285   0.301   2.384  20.991
 3802SOL    HW223286   0.251   2.245  20.957
 3803SOL     OW23287   1.034   4.378  13.660
 3803SOL    HW123288   1.084   4.303  13.689
 3803SOL    HW223289   1.098   4.434  13.615
 3804SOL     OW23290   2.184   0.069   2.895
 3804SOL    HW123291   2.156   0.160   2.898
 3804SOL    HW223292   2.216   0.057   2.805
 3805SOL     OW23293   0.491   0.618  15.497
 3805SOL    HW123294   0.568   0.595  15.549
 3805SOL    HW223295   0.467   0.706  15.527
 3806SOL     OW23296   3.101   1.709   4.931
 3806SOL    HW123297   3.057   1.791   4.907
 3806SOL    HW223298   3.030   1.651   4.958
 3807SOL     OW23299   2.187   4.040   3.451
 3807SOL    HW123300   2.202   4.133   3.436
 3807SOL    HW223301   2.263   3.996   3.413
 3808SOL     OW23302   3.382   2.018  12.213
 3808SOL    HW123303   3.385   2.058  12.126
 3808SOL    HW223304   3.288   2.002  12.228
 3809SOL     OW23305   3.796   0.482  16.531
 3809SOL    HW123306   3.880   0.466  16.487
 3809SOL    HW223307   3.746   0.402  16.518
 3810SOL     OW23308   2.378   0.707  16.904
 3810SOL    HW123309   2.420   0.784  16.943
 3810SOL    HW223310   2.326   0.670  16.976
 3811SOL     OW23311   3.351   0.023  13.158
 3811SOL    HW123312   3.403   0.072  13.094
 3811SOL    HW223313   3.342   0.083  13.232
 3812SOL     OW23314   1.064   3.796   1.754
 3812SOL    HW123315   1.042   3.731   1.821
 3812SOL    HW223316   1.148   3.765   1.719
 3813SOL     OW23317   0.859   1.837   0.481
 3813SOL    HW123318   0.774   1.874   0.504
 3813SOL    HW223319   0.860   1.836   0.386
 3814SOL     OW23320   4.577   0.361  20.610
 3814SOL    HW123321   4.543   0.298  20.674
 3814SOL    HW223322   4.568   0.446  20.653
 3815SOL     OW23323   3.148   4.393   4.232
 3815SOL    HW123324   3.082   4.349   4.178
 3815SOL    HW223325   3.218   4.416   4.170
 3816SOL     OW23326   3.091   4.577  11.638
 3816SOL    HW123327   3.129   4.583  11.726
 3816SOL    HW223328   3.155   4.528  11.587
 3817SOL     OW23329   3.897   1.674  18.131
 3817SOL    HW123330   3.833   1.689  18.200
 3817SOL    HW223331   3.976   1.645  18.177
 3818SOL     OW23332   1.735   2.113   8.721
 3818SOL    HW123333   1.674   2.045   8.692
 3818SOL    HW223334   1.727   2.115   8.816
 3819SOL     OW23335   1.991   0.017  20.704
 3819SOL    HW123336   2.056   4.741  20.697
 3819SOL    HW223337   1.916   4.779  20.653
 3820SOL     OW23338   4.624   4.641  16.158
 3820SOL    HW123339   4.707   4.674  16.190
 3820SOL    HW223340   4.622   4.550  16.188
 3821SOL     OW23341   3.035   1.877   5.531
 3821SOL    HW123342   3.066   1.879   5.441
 3821SOL    HW223343   2.946   1.910   5.527
 3822SOL     OW23344   1.836   3.328  18.561
 3822SOL    HW123345   1.757   3.350  18.511
 3822SOL    HW223346   1.804   3.276  18.634
 3823SOL     OW23347   2.493   3.615  18.583
 3823SOL    HW123348   2.521   3.676  18.651
 3823SOL    HW223349   2.509   3.662  18.501
 3824SOL     OW23350   1.255   2.915  17.886
 3824SOL    HW123351   1.261   3.001  17.845
 3824SOL    HW223352   1.194   2.866  17.831
 3825SOL     OW23353   0.384   3.858  15.798
 3825SOL    HW123354   0.439   3.797  15.846
 3825SOL    HW223355   0.300   3.812  15.788
 3826SOL     OW23356   3.587   2.630  14.568
 3826SOL    HW123357   3.556   2.555  14.618
 3826SOL    HW223358   3.581   2.602  14.477
 3827SOL     OW23359   4.439   1.611   5.223
 3827SOL    HW123360   4.400   1.637   5.307
 3827SOL    HW223361   4.416   1.519   5.213
 3828SOL     OW23362   3.993   0.248  15.468
 3828SOL    HW123363   3.910   0.211  15.438
 3828SOL    HW223364   4.021   0.304  15.395
 3829SOL     OW23365   0.988   0.189   6.531
 3829SOL    HW123366   0.945   0.243   6.465
 3829SOL    HW223367   1.080   0.187   6.504
 3830SOL     OW23368   3.244   3.264   0.142
 3830SOL    HW123369   3.311   3.253   0.210
 3830SOL    HW223370   3.273   3.208   0.070
 3831SOL     OW23371   4.767   2.129  20.071
 3831SOL    HW123372   0.047   2.147  20.014
 3831SOL    HW223373   4.701   2.091  20.014
 3832SOL     OW23374   4.433   3.280  15.293
 3832SOL    HW123375   4.504   3.342  15.310
 3832SOL    HW223376   4.364   3.334  15.253
 3833SOL     OW23377   3.913   2.043   2.707
 3833SOL    HW123378   3.863   2.104   2.653
 3833SOL    HW223379   3.999   2.083   2.715
 3834SOL     OW23380   0.695   4.340  19.540
 3834SOL    HW123381   0.693   4.321  19.633
 3834SOL    HW223382   0.729   4.260  19.500
 3835SOL     OW23383   4.127   2.223   2.794
 3835SOL    HW123384   4.194   2.170   2.838
 3835SOL    HW223385   4.167   2.249   2.711
 3836SOL     OW23386   1.562   4.422  18.195
 3836SOL    HW123387   1.551   4.388  18.283
 3836SOL    HW223388   1.582   4.515  18.207
 3837SOL     OW23389   0.252   2.254   4.015
 3837SOL    HW123390   0.343   2.260   3.984
 3837SOL    HW223391   0.225   2.345   4.026
 3838SOL     OW23392   1.475   1.764  18.991
 3838SOL    HW123393   1.423   1.709  18.932
 3838SOL    HW223394   1.412   1.825  19.029
 3839SOL     OW23395   0.732   2.267  14.916
 3839SOL    HW123396   0.803   2.323  14.885
 3839SOL    HW223397   0.767   2.225  14.994
 3840SOL     OW23398   2.641   2.175  17.060
 3840SOL    HW123399   2.697   2.233  17.111
 3840SOL    HW223400   2.652   2.089  17.101
 3841SOL     OW23401   4.234   1.149   3.906
 3841SOL    HW123402   4.259   1.240   3.922
 3841SOL    HW223403   4.314   1.099   3.922
 3842SOL     OW23404   3.847   1.590   3.400
 3842SOL    HW123405   3.879   1.669   3.444
 3842SOL    HW223406   3.837   1.526   3.470
 3843SOL     OW23407   0.444   2.339  17.093
 3843SOL    HW123408   0.478   2.280  17.161
 3843SOL    HW223409   0.505   2.412  17.092
 3844SOL     OW23410   1.639   1.137  15.860
 3844SOL    HW123411   1.623   1.146  15.766
 3844SOL    HW223412   1.562   1.093  15.894
 3845SOL     OW23413   4.088   4.243  21.155
 3845SOL    HW123414   4.004   4.198  21.160
 3845SOL    HW223415   4.073   4.314  21.093
 3846SOL     OW23416   0.972   3.523   1.554
 3846SOL    HW123417   0.924   3.511   1.636
 3846SOL    HW223418   0.960   3.615   1.531
 3847SOL     OW23419   3.415   4.044  17.509
 3847SOL    HW123420   3.414   4.031  17.604
 3847SOL    HW223421   3.389   3.959  17.473
 3848SOL     OW23422   1.705   0.444  16.562
 3848SOL    HW123423   1.674   0.451  16.653
 3848SOL    HW223424   1.751   0.360  16.559
 3849SOL     OW23425   1.466   2.179   2.353
 3849SOL    HW123426   1.390   2.122   2.360
 3849SOL    HW223427   1.456   2.242   2.424
 3850SOL     OW23428   4.477   4.091   2.947
 3850SOL    HW123429   4.547   4.083   2.883
 3850SOL    HW223430   4.450   4.001   2.965
 3851SOL     OW23431   4.119   0.650   0.010
 3851SOL    HW123432   4.026   0.633   0.020
 3851SOL    HW223433   4.124   0.744  21.268
 3852SOL     OW23434   3.986   3.376  13.004
 3852SOL    HW123435   3.981   3.305  13.068
 3852SOL    HW223436   3.962   3.336  12.921
 3853SOL     OW23437   2.872   1.810   2.501
 3853SOL    HW123438   2.777   1.822   2.507
 3853SOL    HW223439   2.907   1.898   2.490
 3854SOL     OW23440   4.668   4.225   0.528
 3854SOL    HW123441   4.713   4.152   0.485
 3854SOL    HW223442   4.669   4.296   0.464
 3855SOL     OW23443   1.812   4.183   1.006
 3855SOL    HW123444   1.723   4.190   1.041
 3855SOL    HW223445   1.801   4.137   0.923
 3856SOL     OW23446   1.274   1.135  14.712
 3856SOL    HW123447   1.294   1.159  14.803
 3856SOL    HW223448   1.346   1.171  14.661
 3857SOL     OW23449   3.988   1.188   6.202
 3857SOL    HW123450   4.003   1.269   6.251
 3857SOL    HW223451   4.011   1.210   6.112
 3858SOL     OW23452   2.730   2.253  15.995
 3858SOL    HW123453   2.732   2.329  16.054
 3858SOL    HW223454   2.667   2.277  15.927
 3859SOL     OW23455   2.615   4.208  13.836
 3859SOL    HW123456   2.657   4.275  13.890
 3859SOL    HW223457   2.602   4.251  13.751
 3860SOL     OW23458   1.139   4.063  17.177
 3860SOL    HW123459   1.088   4.088  17.254
 3860SOL    HW223460   1.226   4.045  17.211
 3861SOL     OW23461   3.815   2.656  14.682
 3861SOL    HW123462   3.746   2.655  14.616
 3861SOL    HW223463   3.769   2.643  14.765
 3862SOL     OW23464   2.787   1.294  18.017
 3862SOL    HW123465   2.766   1.257  17.931
 3862SOL    HW223466   2.827   1.378  17.998
 3863SOL     OW23467   0.792   0.736   1.791
 3863SOL    HW123468   0.887   0.730   1.780
 3863SOL    HW223469   0.771   0.670   1.856
 3864SOL     OW23470   4.101   4.288  19.122
 3864SOL    HW123471   4.146   4.363  19.084
 3864SOL    HW223472   4.023   4.325  19.163
 3865SOL     OW23473   0.487   1.574  19.004
 3865SOL    HW123474   0.418   1.636  19.030
 3865SOL    HW223475   0.558   1.629  18.971
 3866SOL     OW23476   0.416   2.562   1.291
 3866SOL    HW123477   0.404   2.655   1.313
 3866SOL    HW223478   0.500   2.539   1.329
 3867SOL     OW23479   1.152   4.697   1.222
 3867SOL    HW123480   1.162   4.728   1.132
 3867SOL    HW223481   1.134   4.603   1.212
 3868SOL     OW23482   0.595   3.804  16.012
 3868SOL    HW123483   0.670   3.864  16.009
 3868SOL    HW223484   0.523   3.857  16.047
 3869SOL     OW23485   2.383   3.613   6.432
 3869SOL    HW123486   2.339   3.581   6.354
 3869SOL    HW223487   2.323   3.678   6.469
 3870SOL     OW23488   4.483   0.443   3.543
 3870SOL    HW123489   4.433   0.490   3.610
 3870SOL    HW223490   4.523   0.370   3.590
 3871SOL     OW23491   2.893   1.310   2.598
 3871SOL    HW123492   2.943   1.229   2.593
 3871SOL    HW223493   2.952   1.372   2.640
 3872SOL     OW23494   3.945   1.940   4.729
 3872SOL    HW123495   4.014   1.874   4.719
 3872SOL    HW223496   3.965   1.983   4.812
 3873SOL     OW23497   3.727   3.374  17.163
 3873SOL    HW123498   3.675   3.447  17.130
 3873SOL    HW223499   3.675   3.337  17.234
 3874SOL     OW23500   3.928   1.155   8.346
 3874SOL    HW123501   3.976   1.074   8.363
 3874SOL    HW223502   3.855   1.129   8.290
 3875SOL     OW23503   1.583   1.031   0.404
 3875SOL    HW123504   1.623   1.079   0.477
 3875SOL    HW223505   1.642   1.047   0.330
 3876SOL     OW23506   1.573   0.477   0.608
 3876SOL    HW123507   1.611   0.468   0.520
 3876SOL    HW223508   1.641   0.447   0.668
 3877SOL     OW23509   1.615   1.149  15.571
 3877SOL    HW123510   1.540   1.093  15.550
 3877SOL    HW223511   1.691   1.098  15.543
 3878SOL     OW23512   0.025   3.350   2.438
 3878SOL    HW123513   4.777   3.436   2.438
 3878SOL    HW223514   0.104   3.362   2.491
 3879SOL     OW23515   4.657   4.462  14.779
 3879SOL    HW123516   4.712   4.519  14.833
 3879SOL    HW223517   4.578   4.514  14.762
 3880SOL     OW23518   3.386   3.529  16.142
 3880SOL    HW123519   3.370   3.439  16.172
 3880SOL    HW223520   3.299   3.564  16.124
 3881SOL     OW23521   4.086   4.690   3.471
 3881SOL    HW123522   4.100   4.595   3.467
 3881SOL    HW223523   4.065   4.715   3.381
 3882SOL     OW23524   2.973   4.151  15.913
 3882SOL    HW123525   2.989   4.114  15.826
 3882SOL    HW223526   2.943   4.240  15.895
 3883SOL     OW23527   0.547   3.716  18.541
 3883SOL    HW123528   0.607   3.645  18.564
 3883SOL    HW223529   0.460   3.678  18.550
 3884SOL     OW23530   4.239   3.519   0.952
 3884SOL    HW123531   4.191   3.548   0.875
 3884SOL    HW223532   4.199   3.436   0.976
 3885SOL     OW23533   3.002   3.628   0.826
 3885SOL    HW123534   2.935   3.645   0.893
 3885SOL    HW223535   2.992   3.700   0.763
 3886SOL     OW23536   1.401   1.728   1.174
 3886SOL    HW123537   1.485   1.768   1.196
 3886SOL    HW223538   1.339   1.801   1.172
 3887SOL     OW23539   2.227   1.025  17.436
 3887SOL    HW123540   2.205   0.966  17.364
 3887SOL    HW223541   2.185   1.108  17.412
 3888SOL     OW23542   3.136   0.222   5.376
 3888SOL    HW123543   3.174   0.308   5.356
 3888SOL    HW223544   3.132   0.220   5.472
 3889SOL     OW23545   1.918   3.002   3.172
 3889SOL    HW123546   1.837   3.016   3.222
 3889SOL    HW223547   1.890   2.962   3.090
 3890SOL     OW23548   2.666   4.314   1.497
 3890SOL    HW123549   2.651   4.321   1.403
 3890SOL    HW223550   2.581   4.338   1.536
 3891SOL     OW23551   3.236   0.306   1.730
 3891SOL    HW123552   3.220   0.212   1.740
 3891SOL    HW223553   3.182   0.346   1.798
 3892SOL     OW23554   0.737   4.548  14.939
 3892SOL    HW123555   0.680   4.612  14.897
 3892SOL    HW223556   0.821   4.557  14.894
 3893SOL     OW23557   1.158   4.497   4.466
 3893SOL    HW123558   1.212   4.576   4.457
 3893SOL    HW223559   1.116   4.507   4.551
 3894SOL     OW23560   0.675   4.661   7.657
 3894SOL    HW123561   0.627   4.734   7.618
 3894SOL    HW223562   0.672   4.678   7.751
 3895SOL     OW23563   4.719   1.840  19.574
 3895SOL    HW123564   4.653   1.791  19.622
 3895SOL    HW223565   0.006   1.791  19.589
 3896SOL     OW23566   4.288   0.043  15.193
 3896SOL    HW123567   4.249   4.750  15.196
 3896SOL    HW223568   4.333   0.053  15.277
 3897SOL     OW23569   3.274   2.374  19.985
 3897SOL    HW123570   3.292   2.432  19.912
 3897SOL    HW223571   3.178   2.368  19.987
 3898SOL     OW23572   2.193   0.952  13.076
 3898SOL    HW123573   2.260   0.950  13.008
 3898SOL    HW223574   2.143   1.032  13.059
 3899SOL     OW23575   1.701   4.317   1.509
 3899SOL    HW123576   1.699   4.248   1.444
 3899SOL    HW223577   1.609   4.327   1.536
 3900SOL     OW23578   1.479   1.331   6.360
 3900SOL    HW123579   1.486   1.395   6.431
 3900SOL    HW223580   1.555   1.350   6.304
 3901SOL     OW23581   0.589   0.669   1.269
 3901SOL    HW123582   0.545   0.586   1.286
 3901SOL    HW223583   0.658   0.647   1.205
 3902SOL     OW23584   2.161   0.626  16.611
 3902SOL    HW123585   2.215   0.705  16.618
 3902SOL    HW223586   2.215   0.564  16.562
 3903SOL     OW23587   2.726   3.632  17.835
 3903SOL    HW123588   2.719   3.540  17.862
 3903SOL    HW223589   2.657   3.643  17.770
 3904SOL     OW23590   0.124   0.250  15.007
 3904SOL    HW123591   0.058   0.284  15.068
 3904SOL    HW223592   0.205   0.253  15.057
 3905SOL     OW23593   3.717   0.463  17.588
 3905SOL    HW123594   3.745   0.497  17.673
 3905SOL    HW223595   3.716   0.368  17.598
 3906SOL     OW23596   3.894   1.243  19.977
 3906SOL    HW123597   3.975   1.195  19.994
 3906SOL    HW223598   3.825   1.183  20.007
 3907SOL     OW23599   0.436   3.795   5.710
 3907SOL    HW123600   0.361   3.853   5.719
 3907SOL    HW223601   0.426   3.755   5.623
 3908SOL     OW23602   2.045   4.191   0.798
 3908SOL    HW123603   2.039   4.096   0.788
 3908SOL    HW223604   2.084   4.222   0.716
 3909SOL     OW23605   2.914   3.770   3.878
 3909SOL    HW123606   2.839   3.808   3.833
 3909SOL    HW223607   2.990   3.805   3.833
 3910SOL     OW23608   4.399   0.617  16.432
 3910SOL    HW123609   4.470   0.644  16.374
 3910SOL    HW223610   4.375   0.529  16.401
 3911SOL     OW23611   4.349   2.293  18.924
 3911SOL    HW123612   4.353   2.314  19.018
 3911SOL    HW223613   4.357   2.378  18.880
 3912SOL     OW23614   4.724   3.653  19.911
 3912SOL    HW123615   4.644   3.645  19.963
 3912SOL    HW223616   0.001   3.651  19.975
 3913SOL     OW23617   4.002   3.776  18.927
 3913SOL    HW123618   4.085   3.805  18.964
 3913SOL    HW223619   3.955   3.856  18.908
 3914SOL     OW23620   4.743   0.741   6.463
 3914SOL    HW123621   4.772   0.655   6.491
 3914SOL    HW223622   4.791   0.759   6.383
 3915SOL     OW23623   2.238   2.794   7.906
 3915SOL    HW123624   2.218   2.862   7.970
 3915SOL    HW223625   2.152   2.770   7.870
 3916SOL     OW23626   2.123   4.534  14.439
 3916SOL    HW123627   2.095   4.470  14.504
 3916SOL    HW223628   2.066   4.518  14.364
 3917SOL     OW23629   1.719   0.434  21.142
 3917SOL    HW123630   1.738   0.436  21.236
 3917SOL    HW223631   1.635   0.480  21.134
 3918SOL     OW23632   2.041   1.468   5.351
 3918SOL    HW123633   2.134   1.449   5.363
 3918SOL    HW223634   2.007   1.478   5.440
 3919SOL     OW23635   1.089   1.422  18.037
 3919SOL    HW123636   1.107   1.376  18.118
 3919SOL    HW223637   1.130   1.508  18.048
 3920SOL     OW23638   2.339   2.017   6.158
 3920SOL    HW123639   2.382   1.958   6.095
 3920SOL    HW223640   2.310   1.960   6.229
 3921SOL     OW23641   4.004   0.272  19.577
 3921SOL    HW123642   4.078   0.267  19.638
 3921SOL    HW223643   3.942   0.207  19.609
 3922SOL     OW23644   1.577   1.348   0.379
 3922SOL    HW123645   1.497   1.382   0.418
 3922SOL    HW223646   1.547   1.292   0.307
 3923SOL     OW23647   0.125   1.159  18.305
 3923SOL    HW123648   0.076   1.229  18.263
 3923SOL    HW223649   0.176   1.120  18.235
 3924SOL     OW23650   1.811   1.610  17.242
 3924SOL    HW123651   1.756   1.572  17.173
 3924SOL    HW223652   1.784   1.701  17.247
 3925SOL     OW23653   1.142   3.219  18.519
 3925SOL    HW123654   1.090   3.263  18.452
 3925SOL    HW223655   1.078   3.172  18.573
 3926SOL     OW23656   2.864   3.258   1.326
 3926SOL    HW123657   2.910   3.206   1.392
 3926SOL    HW223658   2.927   3.326   1.301
 3927SOL     OW23659   4.280   0.708   2.756
 3927SOL    HW123660   4.327   0.786   2.788
 3927SOL    HW223661   4.202   0.702   2.812
 3928SOL     OW23662   3.528   2.479  18.217
 3928SOL    HW123663   3.566   2.506  18.300
 3928SOL    HW223664   3.590   2.415  18.182
 3929SOL     OW23665   1.376   3.528  17.718
 3929SOL    HW123666   1.281   3.519  17.723
 3929SOL    HW223667   1.400   3.488  17.635
 3930SOL     OW23668   0.282   4.099  18.101
 3930SOL    HW123669   0.309   4.019  18.146
 3930SOL    HW223670   0.251   4.157  18.171
 3931SOL     OW23671   0.080   4.612   5.842
 3931SOL    HW123672   4.785   4.577   5.847
 3931SOL    HW223673   0.106   4.627   5.933
 3932SOL     OW23674   0.252   4.005   6.196
 3932SOL    HW123675   0.318   3.963   6.140
 3932SOL    HW223676   0.250   3.950   6.275
 3933SOL     OW23677   2.108   1.603   4.378
 3933SOL    HW123678   2.068   1.553   4.307
 3933SOL    HW223679   2.168   1.663   4.334
 3934SOL     OW23680   4.552   4.645  16.495
 3934SOL    HW123681   4.617   4.575  16.488
 3934SOL    HW223682   4.468   4.602  16.479
 3935SOL     OW23683   0.794   0.364  10.026
 3935SOL    HW123684   0.878   0.355  10.071
 3935SOL    HW223685   0.765   0.274  10.011
 3936SOL     OW23686   0.442   2.319  14.538
 3936SOL    HW123687   0.396   2.240  14.510
 3936SOL    HW223688   0.520   2.287  14.583
 3937SOL     OW23689   2.541   2.387   6.155
 3937SOL    HW123690   2.476   2.404   6.086
 3937SOL    HW223691   2.493   2.402   6.237
 3938SOL     OW23692   1.868   3.616   6.004
 3938SOL    HW123693   1.962   3.607   5.988
 3938SOL    HW223694   1.861   3.672   6.081
 3939SOL     OW23695   1.448   4.462  18.711
 3939SOL    HW123696   1.368   4.414  18.692
 3939SOL    HW223697   1.473   4.435  18.799
 3940SOL     OW23698   3.769   1.858   2.473
 3940SOL    HW123699   3.689   1.865   2.419
 3940SOL    HW223700   3.766   1.934   2.530
 3941SOL     OW23701   2.765   2.929  17.333
 3941SOL    HW123702   2.813   3.010  17.350
 3941SOL    HW223703   2.819   2.882  17.269
 3942SOL     OW23704   0.669   4.264  20.206
 3942SOL    HW123705   0.630   4.281  20.120
 3942SOL    HW223706   0.742   4.206  20.187
 3943SOL     OW23707   1.843   3.016  20.397
 3943SOL    HW123708   1.838   2.960  20.320
 3943SOL    HW223709   1.925   2.992  20.440
 3944SOL     OW23710   2.710   1.495  16.688
 3944SOL    HW123711   2.795   1.497  16.732
 3944SOL    HW223712   2.656   1.441  16.745
 3945SOL     OW23713   2.170   1.637   3.343
 3945SOL    HW123714   2.265   1.629   3.335
 3945SOL    HW223715   2.150   1.726   3.313
 3946SOL     OW23716   1.564   0.174  18.909
 3946SOL    HW123717   1.541   0.089  18.871
 3946SOL    HW223718   1.660   0.173  18.913
 3947SOL     OW23719   4.165   4.122   8.900
 3947SOL    HW123720   4.201   4.059   8.838
 3947SOL    HW223721   4.145   4.070   8.978
 3948SOL     OW23722   2.095   3.727   9.240
 3948SOL    HW123723   2.040   3.658   9.204
 3948SOL    HW223724   2.039   3.805   9.240
 3949SOL     OW23725   4.153   0.600   4.037
 3949SOL    HW123726   4.194   0.687   4.037
 3949SOL    HW223727   4.153   0.573   4.129
 3950SOL     OW23728   3.741   0.597   5.460
 3950SOL    HW123729   3.728   0.508   5.491
 3950SOL    HW223730   3.836   0.606   5.452
 3951SOL     OW23731   2.701   2.016   2.995
 3951SOL    HW123732   2.720   1.998   3.088
 3951SOL    HW223733   2.653   1.938   2.966
 3952SOL     OW23734   3.139   2.502   5.010
 3952SOL    HW123735   3.067   2.544   5.057
 3952SOL    HW223736   3.143   2.547   4.925
 3953SOL     OW23737   2.610   3.056  20.054
 3953SOL    HW123738   2.597   3.053  20.149
 3953SOL    HW223739   2.704   3.043  20.043
 3954SOL     OW23740   0.418   2.217  15.280
 3954SOL    HW123741   0.485   2.237  15.344
 3954SOL    HW223742   0.466   2.179  15.206
 3955SOL     OW23743   3.731   2.979   4.371
 3955SOL    HW123744   3.768   2.948   4.288
 3955SOL    HW223745   3.769   3.066   4.383
 3956SOL     OW23746   4.779   3.243   1.393
 3956SOL    HW123747   0.017   3.154   1.402
 3956SOL    HW223748   4.738   3.246   1.306
 3957SOL     OW23749   1.966   2.861  19.838
 3957SOL    HW123750   1.986   2.952  19.815
 3957SOL    HW223751   1.923   2.868  19.924
 3958SOL     OW23752   0.284   0.031  14.279
 3958SOL    HW123753   0.251   0.031  14.189
 3958SOL    HW223754   0.262   4.738  14.313
 3959SOL     OW23755   1.403   0.785  16.536
 3959SOL    HW123756   1.418   0.690  16.535
 3959SOL    HW223757   1.490   0.823  16.522
 3960SOL     OW23758   4.160   3.241   2.167
 3960SOL    HW123759   4.198   3.164   2.209
 3960SOL    HW223760   4.097   3.274   2.231
 3961SOL     OW23761   1.470   2.736  17.275
 3961SOL    HW123762   1.528   2.705  17.345
 3961SOL    HW223763   1.478   2.831  17.279
 3962SOL     OW23764   3.229   4.793   0.128
 3962SOL    HW123765   3.284   0.059   0.178
 3962SOL    HW223766   3.145   4.794   0.173
 3963SOL     OW23767   2.301   2.283   1.704
 3963SOL    HW123768   2.279   2.371   1.735
 3963SOL    HW223769   2.323   2.294   1.611
 3964SOL     OW23770   0.189   2.176  15.814
 3964SOL    HW123771   0.252   2.207  15.879
 3964SOL    HW223772   0.117   2.139  15.865
 3965SOL     OW23773   4.658   2.825   0.741
 3965SOL    HW123774   4.720   2.896   0.726
 3965SOL    HW223775   4.706   2.760   0.792
 3966SOL     OW23776   1.859   1.189   2.542
 3966SOL    HW123777   1.832   1.259   2.602
 3966SOL    HW223778   1.795   1.120   2.555
 3967SOL     OW23779   3.540   1.000   1.641
 3967SOL    HW123780   3.491   0.970   1.718
 3967SOL    HW223781   3.577   0.920   1.604
 3968SOL     OW23782   2.643   4.692   1.065
 3968SOL    HW123783   2.691   4.769   1.033
 3968SOL    HW223784   2.623   4.642   0.987
 3969SOL     OW23785   3.994   2.719   2.757
 3969SOL    HW123786   4.043   2.698   2.677
 3969SOL    HW223787   4.035   2.664   2.825
 3970SOL     OW23788   4.707   2.767   5.665
 3970SOL    HW123789   4.654   2.699   5.622
 3970SOL    HW223790   4.655   2.847   5.655
 3971SOL     OW23791   4.643   3.672  16.515
 3971SOL    HW123792   4.648   3.661  16.420
 3971SOL    HW223793   4.721   3.724  16.536
 3972SOL     OW23794   2.137   2.091  16.034
 3972SOL    HW123795   2.084   2.013  16.016
 3972SOL    HW223796   2.197   2.064  16.103
 3973SOL     OW23797   3.751   1.708  19.249
 3973SOL    HW123798   3.833   1.661  19.237
 3973SOL    HW223799   3.686   1.640  19.263
 3974SOL     OW23800   4.678   2.820  15.755
 3974SOL    HW123801   4.649   2.898  15.802
 3974SOL    HW223802   4.604   2.797  15.699
 3975SOL     OW23803   2.845   3.712   1.331
 3975SOL    HW123804   2.917   3.706   1.268
 3975SOL    HW223805   2.822   3.805   1.332
 3976SOL     OW23806   2.243   0.904  16.357
 3976SOL    HW123807   2.257   0.981  16.411
 3976SOL    HW223808   2.330   0.881  16.324
 3977SOL     OW23809   2.949   0.258   1.164
 3977SOL    HW123810   2.934   0.228   1.254
 3977SOL    HW223811   2.866   0.297   1.137
 3978SOL     OW23812   3.477   1.737  18.722
 3978SOL    HW123813   3.538   1.766  18.654
 3978SOL    HW223814   3.525   1.750  18.804
 3979SOL     OW23815   4.049   4.046   1.824
 3979SOL    HW123816   4.118   3.984   1.804
 3979SOL    HW223817   4.014   4.072   1.739
 3980SOL     OW23818   4.046   3.724  20.433
 3980SOL    HW123819   4.138   3.712  20.460
 3980SOL    HW223820   4.016   3.635  20.415
 3981SOL     OW23821   4.515   2.177  15.989
 3981SOL    HW123822   4.569   2.203  16.063
 3981SOL    HW223823   4.425   2.183  16.022
 3982SOL     OW23824   0.843   0.492   5.673
 3982SOL    HW123825   0.848   0.408   5.628
 3982SOL    HW223826   0.921   0.540   5.644
 3983SOL     OW23827   4.056   1.215   3.458
 3983SOL    HW123828   4.014   1.229   3.543
 3983SOL    HW223829   4.147   1.240   3.471
 3984SOL     OW23830   3.148   0.772   5.657
 3984SOL    HW123831   3.152   0.851   5.603
 3984SOL    HW223832   3.169   0.803   5.745
 3985SOL     OW23833   3.729   1.441  16.793
 3985SOL    HW123834   3.818   1.418  16.820
 3985SOL    HW223835   3.740   1.495  16.715
 3986SOL     OW23836   3.630   1.678  17.152
 3986SOL    HW123837   3.580   1.732  17.212
 3986SOL    HW223838   3.716   1.671  17.192
 3987SOL     OW23839   1.678   1.021  20.989
 3987SOL    HW123840   1.769   1.030  20.960
 3987SOL    HW223841   1.626   1.024  20.909
 3988SOL     OW23842   3.999   0.999  19.360
 3988SOL    HW123843   3.910   0.965  19.368
 3988SOL    HW223844   4.020   0.991  19.267
 3989SOL     OW23845   0.667   1.468   4.117
 3989SOL    HW123846   0.671   1.375   4.093
 3989SOL    HW223847   0.680   1.514   4.034
 3990SOL     OW23848   2.394   4.771  19.585
 3990SOL    HW123849   2.399   0.002  19.492
 3990SOL    HW223850   2.394   0.060  19.632
 3991SOL     OW23851   1.653   0.825   2.018
 3991SOL    HW123852   1.717   0.890   1.988
 3991SOL    HW223853   1.701   0.742   2.020
 3992SOL     OW23854   0.734   3.202   3.618
 3992SOL    HW123855   0.652   3.184   3.572
 3992SOL    HW223856   0.802   3.165   3.561
 3993SOL     OW23857   2.881   0.195  16.715
 3993SOL    HW123858   2.911   0.158  16.632
 3993SOL    HW223859   2.868   0.288  16.696
 3994SOL     OW23860   3.833   4.566   5.983
 3994SOL    HW123861   3.788   4.586   6.065
 3994SOL    HW223862   3.768   4.520   5.930
 3995SOL     OW23863   3.218   2.374   6.576
 3995SOL    HW123864   3.313   2.386   6.582
 3995SOL    HW223865   3.184   2.409   6.658
 3996SOL     OW23866   4.684   3.264  19.663
 3996SOL    HW123867   4.778   3.251  19.672
 3996SOL    HW223868   4.674   3.306  19.577
 3997SOL     OW23869   0.136   1.938  19.337
 3997SOL    HW123870   0.103   1.999  19.403
 3997SOL    HW223871   0.088   1.857  19.353
 3998SOL     OW23872   4.348   3.559  18.269
 3998SOL    HW123873   4.417   3.617  18.237
 3998SOL    HW223874   4.390   3.473  18.275
 3999SOL     OW23875   4.579   3.821  20.678
 3999SOL    HW123876   4.504   3.765  20.697
 3999SOL    HW223877   4.639   3.765  20.628
 4000SOL     OW23878   1.298   4.507  20.843
 4000SOL    HW123879   1.311   4.553  20.926
 4000SOL    HW223880   1.203   4.496  20.837
 4001SOL     OW23881   1.447   1.411  20.928
 4001SOL    HW123882   1.494   1.385  20.848
 4001SOL    HW223883   1.486   1.494  20.953
 4002SOL     OW23884   1.891   2.527  14.112
 4002SOL    HW123885   1.959   2.568  14.165
 4002SOL    HW223886   1.938   2.493  14.036
 4003SOL     OW23887   1.515   4.713   2.366
 4003SOL    HW123888   1.573   4.773   2.413
 4003SOL    HW223889   1.572   4.669   2.303
 4004SOL     OW23890   0.425   0.650   4.961
 4004SOL    HW123891   0.465   0.676   5.045
 4004SOL    HW223892   0.498   0.613   4.911
 4005SOL     OW23893   1.010   1.615  15.770
 4005SOL    HW123894   1.096   1.635  15.733
 4005SOL    HW223895   0.959   1.694  15.755
 4006SOL     OW23896   3.243   1.007  20.632
 4006SOL    HW123897   3.250   1.073  20.702
 4006SOL    HW223898   3.184   1.047  20.568
 4007SOL     OW23899   2.446   2.431  19.387
 4007SOL    HW123900   2.430   2.488  19.463
 4007SOL    HW223901   2.416   2.482  19.312
 4008SOL     OW23902   3.010   2.597   0.574
 4008SOL    HW123903   3.055   2.523   0.532
 4008SOL    HW223904   2.990   2.565   0.662
 4009SOL     OW23905   0.352   4.185  20.250
 4009SOL    HW123906   0.336   4.178  20.344
 4009SOL    HW223907   0.422   4.121  20.233
 4010SOL     OW23908   4.113   4.157   5.140
 4010SOL    HW123909   4.153   4.242   5.121
 4010SOL    HW223910   4.162   4.095   5.086
 4011SOL     OW23911   1.027   0.677  17.593
 4011SOL    HW123912   0.996   0.626  17.667
 4011SOL    HW223913   1.096   0.732  17.629
 4012SOL     OW23914   3.362   0.442   3.040
 4012SOL    HW123915   3.396   0.361   3.002
 4012SOL    HW223916   3.288   0.466   2.985
 4013SOL     OW23917   3.385   1.538   6.025
 4013SOL    HW123918   3.328   1.615   6.018
 4013SOL    HW223919   3.473   1.571   6.007
 4014SOL     OW23920   0.894   2.934   5.729
 4014SOL    HW123921   0.803   2.939   5.760
 4014SOL    HW223922   0.916   2.841   5.733
 4015SOL     OW23923   3.776   1.471  16.175
 4015SOL    HW123924   3.689   1.479  16.136
 4015SOL    HW223925   3.782   1.380  16.202
 4016SOL     OW23926   2.165   3.380   7.804
 4016SOL    HW123927   2.159   3.334   7.721
 4016SOL    HW223928   2.078   3.372   7.843
 4017SOL     OW23929   1.995   3.432   3.860
 4017SOL    HW123930   1.905   3.453   3.886
 4017SOL    HW223931   2.049   3.467   3.931
 4018SOL     OW23932   2.699   3.712   5.088
 4018SOL    HW123933   2.726   3.699   5.179
 4018SOL    HW223934   2.660   3.628   5.063
 4019SOL     OW23935   0.903   0.736  11.947
 4019SOL    HW123936   0.960   0.808  11.921
 4019SOL    HW223937   0.856   0.768  12.023
 4020SOL     OW23938   3.493   0.964  20.214
 4020SOL    HW123939   3.537   1.043  20.182
 4020SOL    HW223940   3.554   0.893  20.194
 4021SOL     OW23941   3.854   4.214   3.869
 4021SOL    HW123942   3.783   4.186   3.927
 4021SOL    HW223943   3.814   4.219   3.783
 4022SOL     OW23944   0.351   0.294   2.584
 4022SOL    HW123945   0.282   0.254   2.530
 4022SOL    HW223946   0.324   0.385   2.594
 4023SOL     OW23947   2.592   2.860   5.148
 4023SOL    HW123948   2.576   2.822   5.235
 4023SOL    HW223949   2.584   2.786   5.088
 4024SOL     OW23950   1.331   0.284   1.320
 4024SOL    HW123951   1.272   0.346   1.278
 4024SOL    HW223952   1.406   0.278   1.261
 4025SOL     OW23953   3.983   2.911  20.769
 4025SOL    HW123954   3.889   2.907  20.756
 4025SOL    HW223955   4.011   2.990  20.722
 4026SOL     OW23956   2.780   1.365  17.239
 4026SOL    HW123957   2.744   1.397  17.322
 4026SOL    HW223958   2.822   1.282  17.262
 4027SOL     OW23959   1.871   3.787   2.874
 4027SOL    HW123960   1.843   3.750   2.958
 4027SOL    HW223961   1.833   3.728   2.808
 4028SOL     OW23962   0.341   4.696  17.838
 4028SOL    HW123963   0.409   4.674  17.774
 4028SOL    HW223964   0.388   4.738  17.910
 4029SOL     OW23965   0.270   4.785  19.577
 4029SOL    HW123966   0.294   0.078  19.609
 4029SOL    HW223967   0.338   4.764  19.513
 4030SOL     OW23968   0.783   0.254  16.129
 4030SOL    HW123969   0.835   0.324  16.168
 4030SOL    HW223970   0.701   0.297  16.102
 4031SOL     OW23971   0.595   1.816  16.153
 4031SOL    HW123972   0.510   1.850  16.126
 4031SOL    HW223973   0.576   1.756  16.225
 4032SOL     OW23974   3.219   4.203  17.611
 4032SOL    HW123975   3.262   4.216  17.526
 4032SOL    HW223976   3.278   4.146  17.659
 4033SOL     OW23977   0.373   1.270  20.698
 4033SOL    HW123978   0.429   1.287  20.623
 4033SOL    HW223979   0.352   1.357  20.733
 4034SOL     OW23980   4.515   2.423  13.903
 4034SOL    HW123981   4.601   2.393  13.932
 4034SOL    HW223982   4.506   2.388  13.814
 4035SOL     OW23983   4.121   0.714  19.224
 4035SOL    HW123984   4.212   0.685  19.212
 4035SOL    HW223985   4.094   0.676  19.307
 4036SOL     OW23986   2.892   0.246   1.575
 4036SOL    HW123987   2.886   0.173   1.512
 4036SOL    HW223988   2.967   0.296   1.546
 4037SOL     OW23989   2.809   1.164   2.968
 4037SOL    HW123990   2.904   1.156   2.978
 4037SOL    HW223991   2.796   1.251   2.930
 4038SOL     OW23992   4.557   1.607  21.169
 4038SOL    HW123993   4.596   1.520  21.169
 4038SOL    HW223994   4.470   1.595  21.208
 4039SOL     OW23995   4.318   1.039   4.951
 4039SOL    HW123996   4.373   1.116   4.964
 4039SOL    HW223997   4.323   0.991   5.034
 4040SOL     OW23998   0.557   3.973  12.491
 4040SOL    HW123999   0.489   4.040  12.504
 4040SOL    HW224000   0.560   3.927  12.575
 4041SOL     OW24001   0.591   3.048   0.786
 4041SOL    HW124002   0.504   3.080   0.812
 4041SOL    HW224003   0.578   2.955   0.767
 4042SOL     OW24004   0.964   0.243   4.900
 4042SOL    HW124005   0.998   0.176   4.960
 4042SOL    HW224006   0.873   0.254   4.926
 4043SOL     OW24007   0.957   2.322  20.823
 4043SOL    HW124008   1.017   2.387  20.859
 4043SOL    HW224009   0.918   2.280  20.900
 4044SOL     OW24010   2.731   2.538  17.416
 4044SOL    HW124011   2.708   2.627  17.445
 4044SOL    HW224012   2.792   2.507  17.483
 4045SOL     OW24013   4.418   4.420   1.276
 4045SOL    HW124014   4.346   4.458   1.326
 4045SOL    HW224015   4.461   4.361   1.337
 4046SOL     OW24016   1.372   2.487  11.765
 4046SOL    HW124017   1.368   2.397  11.798
 4046SOL    HW224018   1.373   2.477  11.670
 4047SOL     OW24019   1.678   1.831  18.092
 4047SOL    HW124020   1.642   1.834  18.004
 4047SOL    HW224021   1.684   1.922  18.120
 4048SOL     OW24022   0.631   4.104   7.571
 4048SOL    HW124023   0.541   4.133   7.555
 4048SOL    HW224024   0.684   4.161   7.514
 4049SOL     OW24025   3.699   4.255  20.141
 4049SOL    HW124026   3.794   4.247  20.134
 4049SOL    HW224027   3.672   4.296  20.059
 4050SOL     OW24028   0.577   4.552  18.145
 4050SOL    HW124029   0.528   4.568  18.225
 4050SOL    HW224030   0.533   4.478  18.104
 4051SOL     OW24031   3.832   0.064   5.391
 4051SOL    HW124032   3.831   0.159   5.380
 4051SOL    HW224033   3.911   0.047   5.443
 4052SOL     OW24034   1.933   4.311  17.394
 4052SOL    HW124035   1.858   4.351  17.438
 4052SOL    HW224036   1.962   4.377  17.331
 4053SOL     OW24037   3.678   4.655  17.511
 4053SOL    HW124038   3.585   4.638  17.524
 4053SOL    HW224039   3.689   4.659  17.416
 4054SOL     OW24040   2.969   4.443   1.554
 4054SOL    HW124041   3.003   4.527   1.522
 4054SOL    HW224042   2.884   4.434   1.512
 4055SOL     OW24043   0.311   2.331   0.047
 4055SOL    HW124044   0.221   2.302   0.063
 4055SOL    HW224045   0.344   2.354   0.134
 4056SOL     OW24046   2.695   3.028   0.470
 4056SOL    HW124047   2.761   2.978   0.519
 4056SOL    HW224048   2.746   3.090   0.418
 4057SOL     OW24049   4.481   4.696   2.692
 4057SOL    HW124050   4.458   4.606   2.715
 4057SOL    HW224051   4.397   4.737   2.671
 4058SOL     OW24052   4.186   2.718  16.358
 4058SOL    HW124053   4.205   2.768  16.278
 4058SOL    HW224054   4.092   2.729  16.371
 4059SOL     OW24055   0.385   4.261  12.675
 4059SOL    HW124056   0.339   4.214  12.744
 4059SOL    HW224057   0.348   4.229  12.594
 4060SOL     OW24058   2.390   4.129  13.980
 4060SOL    HW124059   2.401   4.048  14.030
 4060SOL    HW224060   2.478   4.150  13.948
 4061SOL     OW24061   1.782   0.151   5.681
 4061SOL    HW124062   1.721   0.220   5.653
 4061SOL    HW224063   1.858   0.161   5.623
 4062SOL     OW24064   2.137   1.155   5.974
 4062SOL    HW124065   2.072   1.089   5.948
 4062SOL    HW224066   2.085   1.225   6.013
 4063SOL     OW24067   2.387   0.872   5.836
 4063SOL    HW124068   2.476   0.863   5.871
 4063SOL    HW224069   2.334   0.812   5.888
 4064SOL     OW24070   2.785   2.251  15.666
 4064SOL    HW124071   2.799   2.336  15.707
 4064SOL    HW224072   2.865   2.202  15.685
 4065SOL     OW24073   0.870   1.563  16.011
 4065SOL    HW124074   0.782   1.563  15.974
 4065SOL    HW224075   0.927   1.552  15.935
 4066SOL     OW24076   3.059   4.772   5.335
 4066SOL    HW124077   2.990   4.765   5.400
 4066SOL    HW224078   3.102   0.062   5.354
 4067SOL     OW24079   3.134   3.946  16.893
 4067SOL    HW124080   3.154   3.854  16.875
 4067SOL    HW224081   3.082   3.974  16.818
 4068SOL     OW24082   3.181   1.054   3.921
 4068SOL    HW124083   3.261   1.037   3.872
 4068SOL    HW224084   3.123   1.098   3.859
 4069SOL     OW24085   4.460   3.194  17.261
 4069SOL    HW124086   4.479   3.285  17.242
 4069SOL    HW224087   4.498   3.178  17.347
 4070SOL     OW24088   3.248   1.682  18.340
 4070SOL    HW124089   3.252   1.759  18.397
 4070SOL    HW224090   3.194   1.710  18.266
 4071SOL     OW24091   1.817   1.529   3.391
 4071SOL    HW124092   1.833   1.615   3.352
 4071SOL    HW224093   1.880   1.472   3.348
 4072SOL     OW24094   3.065   3.848  19.779
 4072SOL    HW124095   3.050   3.787  19.851
 4072SOL    HW224096   2.985   3.901  19.776
 4073SOL     OW24097   1.550   3.350   0.066
 4073SOL    HW124098   1.466   3.321   0.101
 4073SOL    HW224099   1.527   3.393  21.259
 4074SOL     OW24100   4.369   1.811   5.438
 4074SOL    HW124101   4.304   1.882   5.435
 4074SOL    HW224102   4.366   1.780   5.528
 4075SOL     OW24103   3.901   3.102  16.969
 4075SOL    HW124104   3.954   3.132  17.042
 4075SOL    HW224105   3.828   3.055  17.010
 4076SOL     OW24106   1.494   4.311   7.164
 4076SOL    HW124107   1.572   4.259   7.143
 4076SOL    HW224108   1.444   4.256   7.224
 4077SOL     OW24109   1.788   4.062   7.458
 4077SOL    HW124110   1.759   4.091   7.545
 4077SOL    HW224111   1.856   4.125   7.434
 4078SOL     OW24112   4.097   1.023   4.668
 4078SOL    HW124113   4.144   0.971   4.603
 4078SOL    HW224114   4.071   1.102   4.620
 4079SOL     OW24115   4.226   1.717  18.854
 4079SOL    HW124116   4.231   1.664  18.933
 4079SOL    HW224117   4.152   1.680  18.805
 4080SOL     OW24118   1.026   3.958  21.265
 4080SOL    HW124119   1.084   4.007   0.047
 4080SOL    HW224120   1.008   4.019  21.193
 4081SOL     OW24121   2.861   3.015   3.229
 4081SOL    HW124122   2.806   3.062   3.291
 4081SOL    HW224123   2.950   3.038   3.254
 4082SOL     OW24124   0.090   1.484   1.913
 4082SOL    HW124125   0.059   1.502   2.002
 4082SOL    HW224126   0.016   1.505   1.857
 4083SOL     OW24127   1.699   1.873   6.782
 4083SOL    HW124128   1.611   1.908   6.797
 4083SOL    HW224129   1.696   1.784   6.818
 4084SOL     OW24130   1.181   0.941   4.996
 4084SOL    HW124131   1.125   0.929   5.072
 4084SOL    HW224132   1.229   0.859   4.988
 4085SOL     OW24133   1.430   3.955   2.954
 4085SOL    HW124134   1.498   3.888   2.951
 4085SOL    HW224135   1.362   3.922   2.895
 4086SOL     OW24136   1.786   2.460   3.267
 4086SOL    HW124137   1.763   2.523   3.198
 4086SOL    HW224138   1.873   2.430   3.244
 4087SOL     OW24139   2.120   4.163  20.249
 4087SOL    HW124140   2.091   4.247  20.286
 4087SOL    HW224141   2.183   4.187  20.181
 4088SOL     OW24142   3.512   2.654   6.836
 4088SOL    HW124143   3.449   2.700   6.891
 4088SOL    HW224144   3.470   2.571   6.815
 4089SOL     OW24145   1.010   2.448  16.746
 4089SOL    HW124146   0.988   2.531  16.789
 4089SOL    HW224147   0.935   2.430  16.689
 4090SOL     OW24148   3.372   2.144   3.675
 4090SOL    HW124149   3.435   2.119   3.607
 4090SOL    HW224150   3.318   2.066   3.688
 4091SOL     OW24151   0.388   0.651  18.725
 4091SOL    HW124152   0.363   0.602  18.803
 4091SOL    HW224153   0.399   0.584  18.658
 4092SOL     OW24154   0.131   3.546   4.076
 4092SOL    HW124155   0.169   3.626   4.112
 4092SOL    HW224156   0.190   3.477   4.104
 4093SOL     OW24157   2.397   1.313  18.768
 4093SOL    HW124158   2.426   1.285  18.855
 4093SOL    HW224159   2.342   1.390  18.785
 4094SOL     OW24160   3.388   4.058  13.141
 4094SOL    HW124161   3.355   3.974  13.108
 4094SOL    HW224162   3.353   4.064  13.230
 4095SOL     OW24163   4.063   1.131   3.115
 4095SOL    HW124164   4.014   1.083   3.048
 4095SOL    HW224165   4.005   1.130   3.192
 4096SOL     OW24166   1.036   3.014   4.273
 4096SOL    HW124167   1.116   2.985   4.228
 4096SOL    HW224168   1.067   3.055   4.354
 4097SOL     OW24169   0.106   3.021   0.140
 4097SOL    HW124170   0.121   3.048   0.050
 4097SOL    HW224171   0.018   2.983   0.140
 4098SOL     OW24172   0.376   1.706  20.592
 4098SOL    HW124173   0.285   1.724  20.615
 4098SOL    HW224174   0.398   1.627  20.642
 4099SOL     OW24175   1.188   4.031  11.346
 4099SOL    HW124176   1.162   4.123  11.352
 4099SOL    HW224177   1.153   4.002  11.261
 4100SOL     OW24178   2.079   1.528   1.709
 4100SOL    HW124179   2.132   1.538   1.787
 4100SOL    HW224180   1.989   1.533   1.740
 4101SOL     OW24181   2.228   1.602   0.576
 4101SOL    HW124182   2.246   1.693   0.552
 4101SOL    HW224183   2.161   1.573   0.514
 4102SOL     OW24184   1.336   2.921   6.383
 4102SOL    HW124185   1.304   2.842   6.339
 4102SOL    HW224186   1.364   2.979   6.312
 4103SOL     OW24187   0.373   1.399   0.367
 4103SOL    HW124188   0.280   1.406   0.387
 4103SOL    HW224189   0.379   1.419   0.274
 4104SOL     OW24190   3.783   0.259  17.834
 4104SOL    HW124191   3.766   0.206  17.756
 4104SOL    HW224192   3.878   0.264  17.840
 4105SOL     OW24193   2.506   1.649   2.440
 4105SOL    HW124194   2.552   1.729   2.417
 4105SOL    HW224195   2.532   1.631   2.530
 4106SOL     OW24196   4.606   3.627  20.306
 4106SOL    HW124197   4.654   3.695  20.354
 4106SOL    HW224198   4.602   3.659  20.216
 4107SOL     OW24199   0.713   4.423  15.897
 4107SOL    HW124200   0.742   4.365  15.967
 4107SOL    HW224201   0.781   4.416  15.830
 4108SOL     OW24202   1.557   1.679   6.227
 4108SOL    HW124203   1.475   1.630   6.237
 4108SOL    HW224204   1.563   1.732   6.307
 4109SOL     OW24205   3.438   0.173   5.534
 4109SOL    HW124206   3.493   0.106   5.492
 4109SOL    HW224207   3.433   0.243   5.469
 4110SOL     OW24208   1.805   3.432  19.915
 4110SOL    HW124209   1.759   3.452  19.834
 4110SOL    HW224210   1.868   3.364  19.891
 4111SOL     OW24211   1.569   2.631   2.589
 4111SOL    HW124212   1.583   2.610   2.682
 4111SOL    HW224213   1.607   2.718   2.578
 4112SOL     OW24214   2.561   4.246  12.331
 4112SOL    HW124215   2.522   4.208  12.410
 4112SOL    HW224216   2.498   4.313  12.303
 4113SOL     OW24217   0.959   1.865  20.977
 4113SOL    HW124218   0.959   1.938  21.039
 4113SOL    HW224219   1.046   1.866  20.938
 4114SOL     OW24220   4.007   0.162  15.715
 4114SOL    HW124221   4.022   0.178  15.622
 4114SOL    HW224222   4.085   0.114  15.744
 4115SOL     OW24223   4.211   2.433   4.968
 4115SOL    HW124224   4.184   2.439   4.877
 4115SOL    HW224225   4.227   2.339   4.982
 4116SOL     OW24226   3.383   4.292  14.352
 4116SOL    HW124227   3.334   4.327  14.278
 4116SOL    HW224228   3.471   4.328  14.343
 4117SOL     OW24229   4.054   2.917  14.039
 4117SOL    HW124230   4.127   2.892  14.095
 4117SOL    HW224231   4.042   2.843  13.980
 4118SOL     OW24232   2.603   1.631   1.450
 4118SOL    HW124233   2.554   1.663   1.375
 4118SOL    HW224234   2.656   1.559   1.415
 4119SOL     OW24235   3.468   2.432  16.852
 4119SOL    HW124236   3.494   2.340  16.848
 4119SOL    HW224237   3.533   2.472  16.910
 4120SOL     OW24238   4.735   4.062   4.254
 4120SOL    HW124239   4.668   3.997   4.275
 4120SOL    HW224240   4.686   4.134   4.213
 4121SOL     OW24241   2.126   1.486   1.992
 4121SOL    HW124242   2.098   1.396   2.006
 4121SOL    HW224243   2.221   1.483   1.998
 4122SOL     OW24244   4.242   1.100  19.749
 4122SOL    HW124245   4.192   1.155  19.688
 4122SOL    HW224246   4.269   1.025  19.697
 4123SOL     OW24247   3.496   3.584   5.712
 4123SOL    HW124248   3.447   3.605   5.633
 4123SOL    HW224249   3.556   3.514   5.686
 4124SOL     OW24250   3.488   4.732   2.728
 4124SOL    HW124251   3.409   4.737   2.674
 4124SOL    HW224252   3.554   4.779   2.678
 4125SOL     OW24253   1.802   2.840  20.700
 4125SOL    HW124254   1.864   2.896  20.654
 4125SOL    HW224255   1.819   2.752  20.666
 4126SOL     OW24256   2.900   3.287   3.517
 4126SOL    HW124257   2.942   3.226   3.456
 4126SOL    HW224258   2.934   3.373   3.494
 4127SOL     OW24259   2.577   1.992   7.873
 4127SOL    HW124260   2.533   2.018   7.954
 4127SOL    HW224261   2.666   1.971   7.900
 4128SOL     OW24262   4.231   4.179  17.660
 4128SOL    HW124263   4.200   4.130  17.736
 4128SOL    HW224264   4.326   4.172  17.664
 4129SOL     OW24265   2.018   4.487  19.660
 4129SOL    HW124266   1.947   4.539  19.622
 4129SOL    HW224267   1.974   4.411  19.698
 4130SOL     OW24268   1.824   2.496   6.375
 4130SOL    HW124269   1.739   2.493   6.331
 4130SOL    HW224270   1.820   2.575   6.429
 4131SOL     OW24271   2.708   3.559   1.507
 4131SOL    HW124272   2.617   3.561   1.476
 4131SOL    HW224273   2.758   3.599   1.436
 4132SOL     OW24274   4.404   0.509  13.955
 4132SOL    HW124275   4.475   0.542  14.011
 4132SOL    HW224276   4.351   0.455  14.013
 4133SOL     OW24277   0.758   3.046   4.770
 4133SOL    HW124278   0.758   3.070   4.678
 4133SOL    HW224279   0.842   3.002   4.783
 4134SOL     OW24280   1.621   1.509  17.066
 4134SOL    HW124281   1.604   1.415  17.061
 4134SOL    HW224282   1.606   1.541  16.977
 4135SOL     OW24283   3.946   0.650  15.726
 4135SOL    HW124284   4.012   0.586  15.701
 4135SOL    HW224285   3.942   0.645  15.821
 4136SOL     OW24286   2.145   3.178   2.049
 4136SOL    HW124287   2.179   3.257   2.009
 4136SOL    HW224288   2.070   3.153   1.995
 4137SOL     OW24289   3.683   0.513   3.471
 4137SOL    HW124290   3.597   0.483   3.441
 4137SOL    HW224291   3.726   0.547   3.393
 4138SOL     OW24292   0.742   0.964   1.124
 4138SOL    HW124293   0.774   0.882   1.161
 4138SOL    HW224294   0.818   1.022   1.127
 4139SOL     OW24295   4.740   2.735   1.786
 4139SOL    HW124296   0.002   2.676   1.836
 4139SOL    HW224297   4.791   2.755   1.707
 4140SOL     OW24298   1.412   2.212  18.434
 4140SOL    HW124299   1.495   2.252  18.409
 4140SOL    HW224300   1.358   2.217  18.355
 4141SOL     OW24301   1.789   3.988   3.145
 4141SOL    HW124302   1.836   4.027   3.071
 4141SOL    HW224303   1.747   4.063   3.188
 4142SOL     OW24304   3.107   3.281  19.919
 4142SOL    HW124305   3.032   3.338  19.937
 4142SOL    HW224306   3.068   3.197  19.897
 4143SOL     OW24307   0.048   4.377   4.216
 4143SOL    HW124308   4.749   4.397   4.202
 4143SOL    HW224309   0.065   4.404   4.306
 4144SOL     OW24310   0.622   0.923   4.616
 4144SOL    HW124311   0.570   1.000   4.640
 4144SOL    HW224312   0.707   0.958   4.591
 4145SOL     OW24313   3.289   3.136  16.423
 4145SOL    HW124314   3.339   3.215  16.403
 4145SOL    HW224315   3.197   3.164  16.415
 4146SOL     OW24316   3.541   4.308   3.116
 4146SOL    HW124317   3.542   4.291   3.022
 4146SOL    HW224318   3.464   4.262   3.148
 4147SOL     OW24319   4.743   1.862  14.625
 4147SOL    HW124320   4.690   1.930  14.585
 4147SOL    HW224321   0.035   1.872  14.584
 4148SOL     OW24322   0.071   2.006   4.412
 4148SOL    HW124323   0.096   2.009   4.320
 4148SOL    HW224324   0.127   1.938   4.450
 4149SOL     OW24325   3.439   2.301  16.017
 4149SOL    HW124326   3.510   2.364  16.026
 4149SOL    HW224327   3.480   2.215  16.031
 4150SOL     OW24328   2.906   2.845  17.114
 4150SOL    HW124329   2.905   2.940  17.129
 4150SOL    HW224330   2.993   2.827  17.079
 4151SOL     OW24331   2.891   2.740  16.820
 4151SOL    HW124332   2.945   2.804  16.865
 4151SOL    HW224333   2.938   2.657  16.829
 4152SOL     OW24334   2.043   4.605   5.196
 4152SOL    HW124335   2.048   4.611   5.292
 4152SOL    HW224336   2.123   4.650   5.165
 4153SOL     OW24337   4.767   3.452   3.639
 4153SOL    HW124338   0.066   3.442   3.620
 4153SOL    HW224339   4.744   3.539   3.605
 4154SOL     OW24340   0.133   4.307  15.108
 4154SOL    HW124341   0.178   4.277  15.028
 4154SOL    HW224342   0.150   4.401  15.111
 4155SOL     OW24343   2.061   0.046  14.413
 4155SOL    HW124344   2.093   4.784  14.484
 4155SOL    HW224345   1.966   0.033  14.412
 4156SOL     OW24346   2.363   1.249   3.570
 4156SOL    HW124347   2.340   1.160   3.541
 4156SOL    HW224348   2.377   1.298   3.489
 4157SOL     OW24349   2.097   0.971   1.644
 4157SOL    HW124350   2.085   1.048   1.700
 4157SOL    HW224351   2.139   0.907   1.701
 4158SOL     OW24352   0.987   1.812  16.587
 4158SOL    HW124353   0.962   1.895  16.628
 4158SOL    HW224354   0.984   1.829  16.493
 4159SOL     OW24355   0.670   2.426  18.696
 4159SOL    HW124356   0.617   2.474  18.760
 4159SOL    HW224357   0.623   2.344  18.682
 4160SOL     OW24358   3.351   2.074  15.697
 4160SOL    HW124359   3.345   2.135  15.624
 4160SOL    HW224360   3.405   2.002  15.663
 4161SOL     OW24361   4.149   3.660   5.740
 4161SOL    HW124362   4.092   3.592   5.776
 4161SOL    HW224363   4.216   3.674   5.807
 4162SOL     OW24364   2.270   1.733   1.808
 4162SOL    HW124365   2.256   1.716   1.714
 4162SOL    HW224366   2.355   1.777   1.812
 4163SOL     OW24367   4.305   0.538  16.023
 4163SOL    HW124368   4.292   0.450  15.988
 4163SOL    HW224369   4.225   0.557  16.072
 4164SOL     OW24370   0.321   0.186   4.333
 4164SOL    HW124371   0.291   0.162   4.245
 4164SOL    HW224372   0.241   0.200   4.383
 4165SOL     OW24373   1.880   1.037  18.914
 4165SOL    HW124374   1.853   1.039  19.006
 4165SOL    HW224375   1.831   0.965  18.876
 4166SOL     OW24376   1.213   1.867  18.711
 4166SOL    HW124377   1.245   1.780  18.735
 4166SOL    HW224378   1.131   1.876  18.758
 4167SOL     OW24379   2.721   1.779  15.146
 4167SOL    HW124380   2.718   1.696  15.098
 4167SOL    HW224381   2.659   1.836  15.101
 4168SOL     OW24382   3.454   1.320  21.012
 4168SOL    HW124383   3.508   1.380  20.961
 4168SOL    HW224384   3.502   1.307  21.094
 4169SOL     OW24385   0.873   1.600   0.023
 4169SOL    HW124386   0.847   1.538   0.091
 4169SOL    HW224387   0.847   1.685   0.057
 4170SOL     OW24388   4.255   2.714   3.039
 4170SOL    HW124389   4.214   2.796   3.015
 4170SOL    HW224390   4.338   2.713   2.991
 4171SOL     OW24391   2.220   2.711  20.858
 4171SOL    HW124392   2.201   2.645  20.925
 4171SOL    HW224393   2.146   2.771  20.862
 4172SOL     OW24394   0.729   0.704  15.657
 4172SOL    HW124395   0.742   0.620  15.613
 4172SOL    HW224396   0.711   0.681  15.748
 4173SOL     OW24397   0.207   3.814   1.429
 4173SOL    HW124398   0.201   3.893   1.483
 4173SOL    HW224399   0.277   3.762   1.469
 4174SOL     OW24400   0.853   0.141  16.496
 4174SOL    HW124401   0.858   0.090  16.415
 4174SOL    HW224402   0.775   0.196  16.485
 4175SOL     OW24403   4.339   3.554  21.198
 4175SOL    HW124404   4.302   3.507  21.123
 4175SOL    HW224405   4.328   3.646  21.176
 4176SOL     OW24406   1.499   4.325  15.693
 4176SOL    HW124407   1.421   4.274  15.714
 4176SOL    HW224408   1.490   4.404  15.745
 4177SOL     OW24409   0.840   3.107  17.498
 4177SOL    HW124410   0.927   3.129  17.466
 4177SOL    HW224411   0.785   3.105  17.420
 4178SOL     OW24412   2.186   3.277  20.542
 4178SOL    HW124413   2.179   3.202  20.601
 4178SOL    HW224414   2.097   3.293  20.513
 4179SOL     OW24415   0.733   1.968  20.912
 4179SOL    HW124416   0.819   1.926  20.917
 4179SOL    HW224417   0.673   1.904  20.949
 4180SOL     OW24418   2.471   0.975  14.555
 4180SOL    HW124419   2.398   0.962  14.615
 4180SOL    HW224420   2.432   1.016  14.478
 4181SOL     OW24421   3.324   0.312  15.815
 4181SOL    HW124422   3.373   0.296  15.895
 4181SOL    HW224423   3.359   0.395  15.781
 4182SOL     OW24424   3.862   0.024   4.559
 4182SOL    HW124425   3.875   4.732   4.599
 4182SOL    HW224426   3.837   0.081   4.633
 4183SOL     OW24427   3.071   1.624  21.095
 4183SOL    HW124428   3.053   1.712  21.129
 4183SOL    HW224429   3.150   1.596  21.141
 4184SOL     OW24430   0.929   0.259   2.830
 4184SOL    HW124431   0.883   0.340   2.851
 4184SOL    HW224432   0.899   0.197   2.896
 4185SOL     OW24433   4.541   4.206  16.736
 4185SOL    HW124434   4.516   4.124  16.693
 4185SOL    HW224435   4.559   4.181  16.826
 4186SOL     OW24436   2.882   1.231  16.488
 4186SOL    HW124437   2.846   1.306  16.441
 4186SOL    HW224438   2.971   1.259  16.513
 4187SOL     OW24439   0.480   2.534   5.942
 4187SOL    HW124440   0.434   2.543   5.858
 4187SOL    HW224441   0.436   2.596   6.000
 4188SOL     OW24442   2.173   0.413   1.934
 4188SOL    HW124443   2.180   0.481   1.868
 4188SOL    HW224444   2.142   0.336   1.886
 4189SOL     OW24445   2.285   2.927  17.292
 4189SOL    HW124446   2.190   2.926  17.281
 4189SOL    HW224447   2.303   3.014  17.329
 4190SOL     OW24448   3.017   4.623  20.855
 4190SOL    HW124449   3.088   4.581  20.904
 4190SOL    HW224450   3.056   4.705  20.824
 4191SOL     OW24451   1.036   1.912  19.747
 4191SOL    HW124452   1.119   1.875  19.718
 4191SOL    HW224453   0.975   1.838  19.746
 4192SOL     OW24454   1.578   4.642  20.101
 4192SOL    HW124455   1.532   4.591  20.034
 4192SOL    HW224456   1.508   4.685  20.151
 4193SOL     OW24457   1.106   3.121  17.333
 4193SOL    HW124458   1.107   3.029  17.360
 4193SOL    HW224459   1.199   3.144  17.327
 4194SOL     OW24460   4.544   1.610   5.781
 4194SOL    HW124461   4.591   1.669   5.839
 4194SOL    HW224462   4.610   1.580   5.718
 4195SOL     OW24463   4.550   1.944   5.618
 4195SOL    HW124464   4.506   1.980   5.541
 4195SOL    HW224465   4.490   1.878   5.652
 4196SOL     OW24466   2.001   2.818  16.509
 4196SOL    HW124467   2.069   2.755  16.484
 4196SOL    HW224468   1.973   2.789  16.596
 4197SOL     OW24469   3.127   0.042  19.639
 4197SOL    HW124470   3.113   0.040  19.734
 4197SOL    HW224471   3.218   0.017  19.627
 4198SOL     OW24472   0.907   0.456  16.272
 4198SOL    HW124473   0.966   0.528  16.250
 4198SOL    HW224474   0.865   0.484  16.353
 4199SOL     OW24475   2.838   0.271   4.169
 4199SOL    HW124476   2.868   0.357   4.199
 4199SOL    HW224477   2.898   0.248   4.098
 4200SOL     OW24478   1.480   4.027  14.928
 4200SOL    HW124479   1.523   3.999  15.009
 4200SOL    HW224480   1.460   3.945  14.883
 4201SOL     OW24481   0.394   1.773  20.310
 4201SOL    HW124482   0.400   1.738  20.399
 4201SOL    HW224483   0.483   1.765  20.275
 4202SOL     OW24484   0.365   3.619   7.941
 4202SOL    HW124485   0.450   3.633   7.901
 4202SOL    HW224486   0.380   3.554   8.009
 4203SOL     OW24487   2.672   1.121  14.119
 4203SOL    HW124488   2.587   1.081  14.135
 4203SOL    HW224489   2.733   1.068  14.170
 4204SOL     OW24490   0.877   0.874  16.897
 4204SOL    HW124491   0.837   0.960  16.903
 4204SOL    HW224492   0.913   0.858  16.985
 4205SOL     OW24493   1.268   1.205   4.904
 4205SOL    HW124494   1.238   1.115   4.911
 4205SOL    HW224495   1.344   1.210   4.963
 4206SOL     OW24496   1.535   0.976   1.657
 4206SOL    HW124497   1.625   0.951   1.678
 4206SOL    HW224498   1.493   0.895   1.630
 4207SOL     OW24499   4.115   1.551   3.798
 4207SOL    HW124500   4.132   1.521   3.708
 4207SOL    HW224501   4.026   1.522   3.817
 4208SOL     OW24502   2.025   1.415   3.264
 4208SOL    HW124503   2.071   1.495   3.291
 4208SOL    HW224504   2.062   1.394   3.179
 4209SOL     OW24505   2.196   2.543  21.101
 4209SOL    HW124506   2.125   2.490  21.138
 4209SOL    HW224507   2.198   2.621  21.156
 4210SOL     OW24508   1.736   4.758   3.775
 4210SOL    HW124509   1.776   4.730   3.693
 4210SOL    HW224510   1.716   4.677   3.821
 4211SOL     OW24511   4.536   2.951   2.017
 4211SOL    HW124512   4.496   2.970   1.932
 4211SOL    HW224513   4.563   3.037   2.049
 4212SOL     OW24514   1.467   4.499   5.717
 4212SOL    HW124515   1.445   4.516   5.808
 4212SOL    HW224516   1.505   4.580   5.685
 4213SOL     OW24517   1.771   3.298   3.408
 4213SOL    HW124518   1.742   3.389   3.415
 4213SOL    HW224519   1.866   3.303   3.408
 4214SOL     OW24520   3.564   2.216   1.932
 4214SOL    HW124521   3.651   2.253   1.918
 4214SOL    HW224522   3.513   2.246   1.857
 4215SOL     OW24523   4.260   1.955  15.117
 4215SOL    HW124524   4.256   1.989  15.206
 4215SOL    HW224525   4.227   2.026  15.062
 4216SOL     OW24526   4.637   3.981  16.342
 4216SOL    HW124527   4.570   3.966  16.276
 4216SOL    HW224528   4.588   4.007  16.420
 4217SOL     OW24529   1.814   0.708   3.705
 4217SOL    HW124530   1.775   0.743   3.785
 4217SOL    HW224531   1.901   0.747   3.701
 4218SOL     OW24532   1.065   2.797  17.723
 4218SOL    HW124533   0.989   2.853  17.741
 4218SOL    HW224534   1.079   2.807  17.628
 4219SOL     OW24535   4.521   3.844   4.254
 4219SOL    HW124536   4.487   3.761   4.289
 4219SOL    HW224537   4.444   3.888   4.218
 4220SOL     OW24538   1.555   3.717   2.931
 4220SOL    HW124539   1.501   3.638   2.935
 4220SOL    HW224540   1.598   3.712   2.845
 4221SOL     OW24541   2.826   4.020   2.744
 4221SOL    HW124542   2.814   3.977   2.660
 4221SOL    HW224543   2.744   4.001   2.792
 4222SOL     OW24544   0.171   1.706  19.592
 4222SOL    HW124545   0.204   1.616  19.593
 4222SOL    HW224546   0.208   1.746  19.671
 4223SOL     OW24547   4.714   0.161  12.978
 4223SOL    HW124548   4.676   0.201  12.900
 4223SOL    HW224549   0.008   0.199  12.984
 4224SOL     OW24550   0.505   2.685   3.268
 4224SOL    HW124551   0.532   2.622   3.200
 4224SOL    HW224552   0.472   2.631   3.339
 4225SOL     OW24553   3.510   3.131  15.240
 4225SOL    HW124554   3.509   3.089  15.154
 4225SOL    HW224555   3.435   3.095  15.286
 4226SOL     OW24556   2.274   2.248   5.606
 4226SOL    HW124557   2.221   2.275   5.530
 4226SOL    HW224558   2.364   2.253   5.575
 4227SOL     OW24559   2.407   2.908   5.974
 4227SOL    HW124560   2.469   2.877   6.040
 4227SOL    HW224561   2.361   2.981   6.016
 4228SOL     OW24562   2.955   3.636  18.081
 4228SOL    HW124563   2.992   3.563  18.032
 4228SOL    HW224564   3.012   3.645  18.157
 4229SOL     OW24565   2.291   1.286   4.753
 4229SOL    HW124566   2.254   1.210   4.797
 4229SOL    HW224567   2.235   1.301   4.678
 4230SOL     OW24568   3.899   3.387  19.022
 4230SOL    HW124569   3.805   3.377  19.008
 4230SOL    HW224570   3.906   3.433  19.106
 4231SOL     OW24571   2.995   2.065   2.574
 4231SOL    HW124572   3.068   2.042   2.631
 4231SOL    HW224573   2.937   2.117   2.629
 4232SOL     OW24574   4.608   2.565  20.152
 4232SOL    HW124575   4.615   2.605  20.239
 4232SOL    HW224576   4.671   2.492  20.155
 4233SOL     OW24577   0.379   0.281  20.855
 4233SOL    HW124578   0.311   0.321  20.909
 4233SOL    HW224579   0.345   0.286  20.765
 4234SOL     OW24580   1.467   1.249   3.621
 4234SOL    HW124581   1.389   1.305   3.618
 4234SOL    HW224582   1.479   1.220   3.530
 4235SOL     OW24583   2.978   3.705   0.225
 4235SOL    HW124584   3.009   3.689   0.314
 4235SOL    HW224585   2.897   3.755   0.237
 4236SOL     OW24586   0.276   4.694  17.116
 4236SOL    HW124587   0.216   4.640  17.167
 4236SOL    HW224588   0.262   4.668  17.025
 4237SOL     OW24589   0.540   4.484   2.878
 4237SOL    HW124590   0.446   4.464   2.872
 4237SOL    HW224591   0.573   4.473   2.789
 4238SOL     OW24592   3.261   3.267  18.817
 4238SOL    HW124593   3.199   3.328  18.857
 4238SOL    HW224594   3.225   3.251  18.730
 4239SOL     OW24595   3.424   1.179  17.669
 4239SOL    HW124596   3.427   1.242  17.741
 4239SOL    HW224597   3.508   1.191  17.624
 4240SOL     OW24598   2.701   4.030  20.403
 4240SOL    HW124599   2.735   4.097  20.463
 4240SOL    HW224600   2.651   4.079  20.338
 4241SOL     OW24601   1.265   0.378  17.192
 4241SOL    HW124602   1.198   0.422  17.244
 4241SOL    HW224603   1.217   0.313  17.141
 4242SOL     OW24604   3.686   2.326   3.953
 4242SOL    HW124605   3.631   2.250   3.933
 4242SOL    HW224606   3.709   2.362   3.868
 4243SOL     OW24607   4.115   2.734   4.877
 4243SOL    HW124608   4.066   2.779   4.808
 4243SOL    HW224609   4.146   2.805   4.934
 4244SOL     OW24610   1.668   0.081  17.084
 4244SOL    HW124611   1.711   4.792  17.106
 4244SOL    HW224612   1.723   0.121  17.017
 4245SOL     OW24613   1.985   4.696  17.084
 4245SOL    HW124614   1.990   4.768  17.147
 4245SOL    HW224615   1.899   4.657  17.099
 4246SOL     OW24616   3.274   3.349   6.449
 4246SOL    HW124617   3.254   3.262   6.414
 4246SOL    HW224618   3.365   3.343   6.478
 4247SOL     OW24619   2.989   4.524   2.450
 4247SOL    HW124620   3.021   4.588   2.386
 4247SOL    HW224621   2.917   4.567   2.494
 4248SOL     OW24622   2.271   4.660   3.869
 4248SOL    HW124623   2.191   4.607   3.861
 4248SOL    HW224624   2.247   4.731   3.928
 4249SOL     OW24625   1.391   0.019  14.206
 4249SOL    HW124626   1.469   0.073  14.217
 4249SOL    HW224627   1.350   0.018  14.292
 4250SOL     OW24628   2.880   3.933   1.064
 4250SOL    HW124629   2.886   3.844   1.027
 4250SOL    HW224630   2.788   3.956   1.056
 4251SOL     OW24631   2.294   3.467  18.999
 4251SOL    HW124632   2.218   3.521  19.021
 4251SOL    HW224633   2.308   3.482  18.905
 4252SOL     OW24634   2.907   4.453  18.245
 4252SOL    HW124635   2.892   4.407  18.328
 4252SOL    HW224636   2.923   4.383  18.182
 4253SOL     OW24637   3.312   2.914   5.303
 4253SOL    HW124638   3.263   2.990   5.336
 4253SOL    HW224639   3.401   2.947   5.288
 4254SOL     OW24640   2.563   3.308  15.363
 4254SOL    HW124641   2.553   3.248  15.437
 4254SOL    HW224642   2.473   3.329  15.337
 4255SOL     OW24643   0.184   3.476  19.813
 4255SOL    HW124644   0.117   3.488  19.880
 4255SOL    HW224645   0.265   3.503  19.855
 4256SOL     OW24646   0.187   3.041  14.971
 4256SOL    HW124647   0.169   2.961  14.923
 4256SOL    HW224648   0.269   3.023  15.017
 4257SOL     OW24649   2.918   2.601  14.902
 4257SOL    HW124650   2.990   2.648  14.859
 4257SOL    HW224651   2.841   2.656  14.885
 4258SOL     OW24652   2.998   3.038   3.995
 4258SOL    HW124653   3.063   2.968   4.000
 4258SOL    HW224654   2.925   3.000   3.945
 4259SOL     OW24655   2.651   2.052  16.794
 4259SOL    HW124656   2.743   2.030  16.808
 4259SOL    HW224657   2.625   2.096  16.875
 4260SOL     OW24658   4.756   1.977   5.128
 4260SOL    HW124659   4.663   1.958   5.135
 4260SOL    HW224660   4.793   1.950   5.212
 4261SOL     OW24661   3.869   3.083   0.101
 4261SOL    HW124662   3.818   3.056   0.025
 4261SOL    HW224663   3.960   3.065   0.078
 4262SOL     OW24664   2.919   1.304  19.049
 4262SOL    HW124665   2.979   1.232  19.030
 4262SOL    HW224666   2.848   1.263  19.098
 4263SOL     OW24667   2.056   2.531  18.825
 4263SOL    HW124668   2.026   2.452  18.781
 4263SOL    HW224669   2.006   2.602  18.784
 4264SOL     OW24670   1.964   4.337  16.971
 4264SOL    HW124671   1.881   4.291  16.987
 4264SOL    HW224672   2.003   4.290  16.897
 4265SOL     OW24673   4.661   0.731  13.705
 4265SOL    HW124674   4.736   0.677  13.731
 4265SOL    HW224675   4.683   0.761  13.616
 4266SOL     OW24676   1.337   0.954  17.780
 4266SOL    HW124677   1.299   0.871  17.810
 4266SOL    HW224678   1.316   1.016  17.849
 4267SOL     OW24679   3.465   4.380   2.260
 4267SOL    HW124680   3.470   4.294   2.218
 4267SOL    HW224681   3.382   4.416   2.231
 4268SOL     OW24682   2.942   3.464   2.976
 4268SOL    HW124683   2.958   3.435   3.066
 4268SOL    HW224684   3.025   3.453   2.931
 4269SOL     OW24685   3.518   0.022   4.990
 4269SOL    HW124686   3.588   0.075   5.027
 4269SOL    HW224687   3.465   4.790   5.066
 4270SOL     OW24688   3.016   2.965   6.345
 4270SOL    HW124689   3.009   3.054   6.378
 4270SOL    HW224690   2.925   2.939   6.328
 4271SOL     OW24691   4.040   2.472  19.397
 4271SOL    HW124692   4.013   2.383  19.421
 4271SOL    HW224693   4.027   2.476  19.302
 4272SOL     OW24694   1.272   2.710   2.175
 4272SOL    HW124695   1.339   2.644   2.190
 4272SOL    HW224696   1.285   2.737   2.084
 4273SOL     OW24697   3.402   1.313   6.714
 4273SOL    HW124698   3.484   1.265   6.718
 4273SOL    HW224699   3.417   1.391   6.768
 4274SOL     OW24700   3.214   4.535   2.854
 4274SOL    HW124701   3.183   4.499   2.937
 4274SOL    HW224702   3.161   4.489   2.788
 4275SOL     OW24703   3.471   1.944   5.400
 4275SOL    HW124704   3.519   1.961   5.319
 4275SOL    HW224705   3.538   1.914   5.462
 4276SOL     OW24706   0.144   1.647   1.080
 4276SOL    HW124707   0.162   1.715   1.145
 4276SOL    HW224708   0.223   1.646   1.026
 4277SOL     OW24709   0.553   4.159   3.912
 4277SOL    HW124710   0.617   4.091   3.890
 4277SOL    HW224711   0.540   4.150   4.006
 4278SOL     OW24712   1.978   2.836   1.206
 4278SOL    HW124713   1.939   2.923   1.196
 4278SOL    HW224714   1.908   2.782   1.242
 4279SOL     OW24715   1.825   2.558  16.952
 4279SOL    HW124716   1.872   2.589  17.030
 4279SOL    HW224717   1.873   2.595  16.878
 4280SOL     OW24718   4.778   3.955   4.962
 4280SOL    HW124719   4.711   3.927   5.024
 4280SOL    HW224720   0.048   4.003   5.015
 4281SOL     OW24721   0.611   4.293  13.349
 4281SOL    HW124722   0.633   4.328  13.262
 4281SOL    HW224723   0.574   4.207  13.331
 4282SOL     OW24724   4.779   1.156  15.505
 4282SOL    HW124725   4.732   1.238  15.516
 4282SOL    HW224726   4.722   1.090  15.544
 4283SOL     OW24727   3.204   2.610  20.497
 4283SOL    HW124728   3.177   2.577  20.412
 4283SOL    HW224729   3.140   2.678  20.518
 4284SOL     OW24730   4.299   1.411  17.023
 4284SOL    HW124731   4.284   1.503  17.041
 4284SOL    HW224732   4.394   1.401  17.025
 4285SOL     OW24733   0.696   0.321   1.406
 4285SOL    HW124734   0.605   0.352   1.407
 4285SOL    HW224735   0.718   0.309   1.499
 4286SOL     OW24736   3.801   3.546   1.373
 4286SOL    HW124737   3.825   3.600   1.298
 4286SOL    HW224738   3.871   3.560   1.437
 4287SOL     OW24739   1.191   0.812   2.235
 4287SOL    HW124740   1.165   0.849   2.151
 4287SOL    HW224741   1.287   0.813   2.233
 4288SOL     OW24742   0.441   3.232   3.578
 4288SOL    HW124743   0.473   3.147   3.607
 4288SOL    HW224744   0.372   3.212   3.515
 4289SOL     OW24745   3.374   1.276   1.948
 4289SOL    HW124746   3.458   1.298   1.989
 4289SOL    HW224747   3.373   1.327   1.867
 4290SOL     OW24748   3.044   2.773   3.301
 4290SOL    HW124749   2.959   2.744   3.334
 4290SOL    HW224750   3.051   2.733   3.214
 4291SOL     OW24751   2.912   4.160   2.999
 4291SOL    HW124752   2.886   4.248   2.973
 4291SOL    HW224753   2.875   4.103   2.932
 4292SOL     OW24754   3.734   0.073   2.260
 4292SOL    HW124755   3.699   0.133   2.194
 4292SOL    HW224756   3.781   0.006   2.209
 4293SOL     OW24757   2.646   3.899  16.102
 4293SOL    HW124758   2.604   3.952  16.171
 4293SOL    HW224759   2.663   3.962  16.032
 4294SOL     OW24760   0.071   3.547  15.727
 4294SOL    HW124761   0.102   3.562  15.638
 4294SOL    HW224762   0.125   3.476  15.760
 4295SOL     OW24763   2.155   4.696  19.503
 4295SOL    HW124764   2.124   4.614  19.541
 4295SOL    HW224765   2.215   4.732  19.568
 4296SOL     OW24766   1.245   3.029  15.699
 4296SOL    HW124767   1.221   3.058  15.611
 4296SOL    HW224768   1.269   3.109  15.746
 4297SOL     OW24769   3.132   1.377   1.986
 4297SOL    HW124770   3.108   1.363   1.894
 4297SOL    HW224771   3.223   1.348   1.992
 4298SOL     OW24772   2.168   0.495  19.864
 4298SOL    HW124773   2.143   0.410  19.829
 4298SOL    HW224774   2.215   0.474  19.945
 4299SOL     OW24775   0.469   2.060  19.907
 4299SOL    HW124776   0.405   2.069  19.837
 4299SOL    HW224777   0.507   1.973  19.893
 4300SOL     OW24778   2.055   3.739   4.931
 4300SOL    HW124779   2.072   3.795   5.007
 4300SOL    HW224780   1.965   3.708   4.944
 4301SOL     OW24781   3.584   3.536   3.110
 4301SOL    HW124782   3.497   3.551   3.073
 4301SOL    HW224783   3.570   3.530   3.204
 4302SOL     OW24784   1.485   1.019  20.102
 4302SOL    HW124785   1.416   0.956  20.083
 4302SOL    HW224786   1.565   0.975  20.074
 4303SOL     OW24787   3.169   2.218  19.729
 4303SOL    HW124788   3.235   2.213  19.661
 4303SOL    HW224789   3.218   2.236  19.810
 4304SOL     OW24790   4.416   2.574  15.943
 4304SOL    HW124791   4.430   2.667  15.923
 4304SOL    HW224792   4.431   2.568  16.038
 4305SOL     OW24793   4.760   3.479  19.230
 4305SOL    HW124794   4.696   3.536  19.189
 4305SOL    HW224795   4.713   3.435  19.300
 4306SOL     OW24796   1.923   0.230   4.507
 4306SOL    HW124797   1.834   0.263   4.506
 4306SOL    HW224798   1.979   0.308   4.504
 4307SOL     OW24799   1.263   1.708   4.020
 4307SOL    HW124800   1.244   1.630   4.071
 4307SOL    HW224801   1.358   1.709   4.011
 4308SOL     OW24802   1.471   4.420  13.135
 4308SOL    HW124803   1.385   4.436  13.095
 4308SOL    HW224804   1.526   4.492  13.105
 4309SOL     OW24805   3.226   1.731  19.837
 4309SOL    HW124806   3.171   1.653  19.832
 4309SOL    HW224807   3.315   1.697  19.829
 4310SOL     OW24808   3.781   3.760   5.514
 4310SOL    HW124809   3.750   3.767   5.604
 4310SOL    HW224810   3.793   3.851   5.485
 4311SOL     OW24811   1.988   2.897   1.492
 4311SOL    HW124812   2.070   2.867   1.531
 4311SOL    HW224813   2.006   2.901   1.398
 4312SOL     OW24814   4.064   3.352   5.547
 4312SOL    HW124815   4.031   3.384   5.630
 4312SOL    HW224816   4.062   3.429   5.489
 4313SOL     OW24817   0.140   0.457  16.203
 4313SOL    HW124818   0.130   0.532  16.260
 4313SOL    HW224819   0.051   0.429  16.182
 4314SOL     OW24820   0.442   1.516   3.060
 4314SOL    HW124821   0.368   1.488   3.114
 4314SOL    HW224822   0.408   1.588   3.007
 4315SOL     OW24823   1.292   3.817   0.887
 4315SOL    HW124824   1.207   3.793   0.851
 4315SOL    HW224825   1.290   3.913   0.893
 4316SOL     OW24826   3.044   2.568  17.398
 4316SOL    HW124827   3.061   2.540  17.308
 4316SOL    HW224828   3.044   2.664  17.394
 4317SOL     OW24829   2.902   2.090  21.114
 4317SOL    HW124830   2.809   2.077  21.132
 4317SOL    HW224831   2.903   2.146  21.036
 4318SOL     OW24832   3.323   3.939  11.682
 4318SOL    HW124833   3.262   4.000  11.641
 4318SOL    HW224834   3.404   3.949  11.631
 4319SOL     OW24835   4.009   0.565   7.618
 4319SOL    HW124836   4.094   0.521   7.610
 4319SOL    HW224837   3.946   0.502   7.582
 4320SOL     OW24838   2.195   0.302  18.227
 4320SOL    HW124839   2.193   0.206  18.228
 4320SOL    HW224840   2.176   0.326  18.137
 4321SOL     OW24841   2.064   1.202   1.785
 4321SOL    HW124842   2.114   1.184   1.865
 4321SOL    HW224843   2.109   1.276   1.745
 4322SOL     OW24844   4.569   2.792  15.309
 4322SOL    HW124845   4.641   2.731  15.327
 4322SOL    HW224846   4.572   2.855  15.380
 4323SOL     OW24847   1.357   1.715   3.598
 4323SOL    HW124848   1.443   1.673   3.599
 4323SOL    HW224849   1.321   1.694   3.512
 4324SOL     OW24850   4.699   0.998  16.182
 4324SOL    HW124851   4.751   0.931  16.137
 4324SOL    HW224852   4.745   1.080  16.165
 4325SOL     OW24853   2.886   3.850   3.289
 4325SOL    HW124854   2.805   3.827   3.333
 4325SOL    HW224855   2.876   3.818   3.199
 4326SOL     OW24856   2.136   4.321   2.400
 4326SOL    HW124857   2.132   4.280   2.314
 4326SOL    HW224858   2.224   4.302   2.432
 4327SOL     OW24859   0.389   3.734   2.386
 4327SOL    HW124860   0.451   3.797   2.424
 4327SOL    HW224861   0.305   3.756   2.426
 4328SOL     OW24862   2.002   2.098  17.839
 4328SOL    HW124863   2.023   2.087  17.932
 4328SOL    HW224864   2.028   2.187  17.818
 4329SOL     OW24865   3.129   3.619   1.802
 4329SOL    HW124866   3.143   3.590   1.712
 4329SOL    HW224867   3.205   3.585   1.850
 4330SOL     OW24868   1.424   1.917   4.265
 4330SOL    HW124869   1.492   1.907   4.198
 4330SOL    HW224870   1.426   1.834   4.313
 4331SOL     OW24871   4.415   4.258   2.353
 4331SOL    HW124872   4.467   4.180   2.335
 4331SOL    HW224873   4.465   4.307   2.418
 4332SOL     OW24874   4.022   0.678  20.480
 4332SOL    HW124875   4.099   0.731  20.501
 4332SOL    HW224876   3.992   0.711  20.395
 4333SOL     OW24877   2.226   0.378  15.425
 4333SOL    HW124878   2.144   0.350  15.466
 4333SOL    HW224879   2.201   0.451  15.369
 4334SOL     OW24880   3.059   1.719   4.503
 4334SOL    HW124881   3.149   1.739   4.528
 4334SOL    HW224882   3.006   1.773   4.563
 4335SOL     OW24883   2.469   4.744  18.356
 4335SOL    HW124884   2.563   4.738  18.376
 4335SOL    HW224885   2.459   4.692  18.276
 4336SOL     OW24886   2.402   0.998  17.665
 4336SOL    HW124887   2.339   0.975  17.733
 4336SOL    HW224888   2.349   1.019  17.589
 4337SOL     OW24889   2.883   0.940  18.196
 4337SOL    HW124890   2.918   0.873  18.137
 4337SOL    HW224891   2.800   0.967  18.156
 4338SOL     OW24892   2.218   1.155  15.387
 4338SOL    HW124893   2.162   1.213  15.440
 4338SOL    HW224894   2.267   1.104  15.451
 4339SOL     OW24895   0.371   3.491   0.162
 4339SOL    HW124896   0.386   3.423   0.228
 4339SOL    HW224897   0.300   3.544   0.197
 4340SOL     OW24898   1.866   4.239  14.096
 4340SOL    HW124899   1.791   4.291  14.068
 4340SOL    HW224900   1.926   4.303  14.134
 4341SOL     OW24901   4.324   2.305   5.938
 4341SOL    HW124902   4.312   2.222   5.892
 4341SOL    HW224903   4.407   2.296   5.984
 4342SOL     OW24904   4.290   1.498  21.211
 4342SOL    HW124905   4.220   1.530  21.154
 4342SOL    HW224906   4.315   1.414  21.173
 4343SOL     OW24907   3.030   4.461   0.105
 4343SOL    HW124908   3.019   4.550   0.071
 4343SOL    HW224909   3.063   4.411   0.030
 4344SOL     OW24910   3.920   4.332  17.047
 4344SOL    HW124911   3.827   4.352  17.058
 4344SOL    HW224912   3.964   4.415  17.067
 4345SOL     OW24913   3.982   2.414   6.635
 4345SOL    HW124914   3.972   2.503   6.602
 4345SOL    HW224915   3.893   2.382   6.645
 4346SOL     OW24916   2.129   3.927   6.235
 4346SOL    HW124917   2.147   3.970   6.318
 4346SOL    HW224918   2.142   3.834   6.252
 4347SOL     OW24919   0.922   3.964   5.011
 4347SOL    HW124920   0.986   3.907   4.968
 4347SOL    HW224921   0.838   3.923   4.994
 4348SOL     OW24922   2.435   1.830   7.728
 4348SOL    HW124923   2.497   1.894   7.761
 4348SOL    HW224924   2.404   1.784   7.806
 4349SOL     OW24925   2.788   0.550   3.662
 4349SOL    HW124926   2.730   0.624   3.677
 4349SOL    HW224927   2.849   0.579   3.594
 4350SOL     OW24928   1.992   0.194   6.610
 4350SOL    HW124929   1.974   0.266   6.549
 4350SOL    HW224930   2.063   0.144   6.568
 4351SOL     OW24931   0.943   0.634   2.604
 4351SOL    HW124932   0.964   0.618   2.696
 4351SOL    HW224933   0.873   0.699   2.607
 4352SOL     OW24934   2.007   0.810   0.088
 4352SOL    HW124935   2.058   0.883   0.123
 4352SOL    HW224936   1.941   0.792   0.156
 4353SOL     OW24937   4.077   3.201  16.775
 4353SOL    HW124938   4.143   3.242  16.830
 4353SOL    HW224939   4.023   3.150  16.836
 4354SOL     OW24940   3.658   2.107  15.959
 4354SOL    HW124941   3.629   2.077  15.872
 4354SOL    HW224942   3.712   2.184  15.941
 4355SOL     OW24943   1.370   0.741   6.118
 4355SOL    HW124944   1.416   0.658   6.127
 4355SOL    HW224945   1.278   0.719   6.132
 4356SOL     OW24946   3.409   1.493   1.047
 4356SOL    HW124947   3.401   1.412   1.097
 4356SOL    HW224948   3.403   1.562   1.112
 4357SOL     OW24949   4.443   4.193   6.593
 4357SOL    HW124950   4.362   4.192   6.642
 4357SOL    HW224951   4.434   4.267   6.532
 4358SOL     OW24952   1.752   2.833  19.487
 4358SOL    HW124953   1.701   2.793  19.416
 4358SOL    HW224954   1.842   2.832  19.455
 4359SOL     OW24955   3.551   1.841   0.425
 4359SOL    HW124956   3.541   1.935   0.411
 4359SOL    HW224957   3.644   1.823   0.410
 4360SOL     OW24958   1.678   0.353  19.235
 4360SOL    HW124959   1.725   0.323  19.158
 4360SOL    HW224960   1.586   0.338  19.215
 4361SOL     OW24961   0.364   4.428  15.882
 4361SOL    HW124962   0.444   4.383  15.855
 4361SOL    HW224963   0.394   4.510  15.921
 4362SOL     OW24964   0.140   4.223   3.550
 4362SOL    HW124965   0.084   4.170   3.606
 4362SOL    HW224966   0.208   4.256   3.608
 4363SOL     OW24967   3.690   4.080  15.566
 4363SOL    HW124968   3.687   4.023  15.643
 4363SOL    HW224969   3.709   4.021  15.493
 4364SOL     OW24970   0.359   2.199  16.513
 4364SOL    HW124971   0.395   2.114  16.537
 4364SOL    HW224972   0.421   2.262  16.549
 4365SOL     OW24973   1.953   3.397  21.066
 4365SOL    HW124974   2.006   3.441  21.133
 4365SOL    HW224975   1.874   3.451  21.060
 4366SOL     OW24976   1.885   4.709   5.011
 4366SOL    HW124977   1.898   4.694   4.917
 4366SOL    HW224978   1.961   4.670   5.053
 4367SOL     OW24979   4.084   3.756   7.602
 4367SOL    HW124980   4.163   3.704   7.591
 4367SOL    HW224981   4.045   3.725   7.684
 4368SOL     OW24982   3.078   3.594  15.822
 4368SOL    HW124983   2.997   3.585  15.771
 4368SOL    HW224984   3.048   3.615  15.910
 4369SOL     OW24985   0.603   1.951   5.221
 4369SOL    HW124986   0.550   1.997   5.156
 4369SOL    HW224987   0.577   1.990   5.305
 4370SOL     OW24988   1.339   3.569  20.344
 4370SOL    HW124989   1.358   3.649  20.392
 4370SOL    HW224990   1.282   3.597  20.272
 4371SOL     OW24991   1.151   3.890   3.304
 4371SOL    HW124992   1.206   3.830   3.254
 4371SOL    HW224993   1.096   3.832   3.359
 4372SOL     OW24994   3.632   2.766   6.636
 4372SOL    HW124995   3.592   2.716   6.707
 4372SOL    HW224996   3.559   2.794   6.582
 4373SOL     OW24997   2.051   0.221   3.221
 4373SOL    HW124998   2.016   0.136   3.198
 4373SOL    HW224999   2.146   0.209   3.218
 4374SOL     OW25000   4.639   4.525  15.846
 4374SOL    HW125001   4.699   4.523  15.921
 4374SOL    HW225002   4.645   4.614  15.812
 4375SOL     OW25003   1.390   0.028  19.528
 4375SOL    HW125004   1.464   0.015  19.586
 4375SOL    HW225005   1.365   4.734  19.499
 4376SOL     OW25006   3.277   3.893  19.222
 4376SOL    HW125007   3.199   3.934  19.259
 4376SOL    HW225008   3.336   3.880  19.296
 4377SOL     OW25009   4.647   0.194   5.441
 4377SOL    HW125010   4.570   0.233   5.398
 4377SOL    HW225011   4.720   0.215   5.383
 4378SOL     OW25012   2.664   0.452   0.088
 4378SOL    HW125013   2.668   0.545   0.066
 4378SOL    HW225014   2.688   0.449   0.181
 4379SOL     OW25015   2.054   0.063  17.325
 4379SOL    HW125016   2.014   0.112  17.397
 4379SOL    HW225017   2.121   0.009  17.367
 4380SOL     OW25018   4.612   1.776   0.290
 4380SOL    HW125019   4.581   1.830   0.217
 4380SOL    HW225020   4.707   1.774   0.280
 4381SOL     OW25021   2.557   1.278  19.470
 4381SOL    HW125022   2.517   1.256  19.386
 4381SOL    HW225023   2.499   1.346  19.506
 4382SOL     OW25024   2.265   4.415  18.013
 4382SOL    HW125025   2.187   4.394  17.962
 4382SOL    HW225026   2.331   4.352  17.984
 4383SOL     OW25027   3.475   3.900   5.436
 4383SOL    HW125028   3.383   3.873   5.443
 4383SOL    HW225029   3.476   3.965   5.366
 4384SOL     OW25030   3.430   3.282   7.319
 4384SOL    HW125031   3.362   3.341   7.350
 4384SOL    HW225032   3.398   3.194   7.342
 4385SOL     OW25033   2.863   1.648  20.142
 4385SOL    HW125034   2.822   1.681  20.222
 4385SOL    HW225035   2.948   1.692  20.138
 4386SOL     OW25036   1.377   3.797  14.521
 4386SOL    HW125037   1.458   3.847  14.535
 4386SOL    HW225038   1.378   3.776  14.428
 4387SOL     OW25039   2.120   4.159  17.486
 4387SOL    HW125040   2.055   4.223  17.457
 4387SOL    HW225041   2.113   4.160  17.582
 4388SOL     OW25042   2.997   2.935   2.603
 4388SOL    HW125043   2.904   2.951   2.622
 4388SOL    HW225044   2.996   2.871   2.532
 4389SOL     OW25045   0.877   1.369  19.725
 4389SOL    HW125046   0.939   1.428  19.685
 4389SOL    HW225047   0.893   1.284  19.683
 4390SOL     OW25048   1.527   1.735   1.881
 4390SOL    HW125049   1.566   1.692   1.805
 4390SOL    HW225050   1.539   1.829   1.864
 4391SOL     OW25051   0.772   2.568   3.648
 4391SOL    HW125052   0.848   2.625   3.659
 4391SOL    HW225053   0.704   2.625   3.612
 4392SOL     OW25054   4.021   2.618  21.008
 4392SOL    HW125055   4.088   2.635  20.942
 4392SOL    HW225056   3.945   2.588  20.957
 4393SOL     OW25057   0.115   0.845   5.887
 4393SOL    HW125058   0.189   0.850   5.826
 4393SOL    HW225059   0.153   0.809   5.967
 4394SOL     OW25060   1.059   4.412  17.861
 4394SOL    HW125061   1.069   4.506  17.880
 4394SOL    HW225062   1.143   4.387  17.821
 4395SOL     OW25063   1.107   3.235  21.132
 4395SOL    HW125064   1.048   3.166  21.100
 4395SOL    HW225065   1.186   3.188  21.158
 4396SOL     OW25066   3.639   2.579   4.397
 4396SOL    HW125067   3.544   2.575   4.385
 4396SOL    HW225068   3.665   2.489   4.416
 4397SOL     OW25069   1.073   1.272  14.080
 4397SOL    HW125070   0.982   1.302  14.081
 4397SOL    HW225071   1.083   1.224  14.162
 4398SOL     OW25072   3.282   0.476  17.166
 4398SOL    HW125073   3.273   0.389  17.205
 4398SOL    HW225074   3.236   0.535  17.225
 4399SOL     OW25075   2.015   4.758   3.610
 4399SOL    HW125076   2.046   4.707   3.536
 4399SOL    HW225077   1.966   0.037   3.571
 4400SOL     OW25078   3.186   3.990   4.656
 4400SOL    HW125079   3.210   3.898   4.667
 4400SOL    HW225080   3.113   3.989   4.595
 4401SOL     OW25081   1.565   2.038   5.181
 4401SOL    HW125082   1.547   2.091   5.104
 4401SOL    HW225083   1.501   1.966   5.177
 4402SOL     OW25084   0.945   1.948  16.333
 4402SOL    HW125085   1.019   2.003  16.360
 4402SOL    HW225086   0.986   1.870  16.295
 4403SOL     OW25087   0.418   3.787  14.021
 4403SOL    HW125088   0.383   3.815  14.105
 4403SOL    HW225089   0.342   3.754  13.973
 4404SOL     OW25090   1.943   2.153  19.013
 4404SOL    HW125091   1.913   2.064  18.995
 4404SOL    HW225092   2.035   2.145  19.034
 4405SOL     OW25093   3.892   0.786   4.766
 4405SOL    HW125094   3.937   0.703   4.747
 4405SOL    HW225095   3.963   0.845   4.794
 4406SOL     OW25096   2.748   3.531  14.541
 4406SOL    HW125097   2.692   3.458  14.567
 4406SOL    HW225098   2.828   3.519  14.592
 4407SOL     OW25099   1.766   1.644  20.994
 4407SOL    HW125100   1.762   1.550  20.978
 4407SOL    HW225101   1.848   1.672  20.953
 4408SOL     OW25102   4.430   1.261   3.384
 4408SOL    HW125103   4.491   1.325   3.420
 4408SOL    HW225104   4.435   1.187   3.444
 4409SOL     OW25105   1.899   0.961   5.815
 4409SOL    HW125106   1.852   0.877   5.811
 4409SOL    HW225107   1.839   1.024   5.777
 4410SOL     OW25108   3.349   3.428   1.877
 4410SOL    HW125109   3.345   3.432   1.973
 4410SOL    HW225110   3.413   3.359   1.859
 4411SOL     OW25111   4.265   0.718   0.683
 4411SOL    HW125112   4.303   0.783   0.742
 4411SOL    HW225113   4.185   0.761   0.650
 4412SOL     OW25114   1.966   3.248  16.491
 4412SOL    HW125115   1.984   3.255  16.584
 4412SOL    HW225116   1.901   3.316  16.474
 4413SOL     OW25117   0.122   3.532  17.234
 4413SOL    HW125118   0.046   3.484  17.202
 4413SOL    HW225119   0.152   3.582  17.158
 4414SOL     OW25120   3.664   3.385  20.922
 4414SOL    HW125121   3.580   3.398  20.878
 4414SOL    HW225122   3.726   3.369  20.850
 4415SOL     OW25123   3.348   2.906  14.261
 4415SOL    HW125124   3.260   2.905  14.225
 4415SOL    HW225125   3.406   2.894  14.185
 4416SOL     OW25126   4.398   3.471  16.435
 4416SOL    HW125127   4.346   3.411  16.489
 4416SOL    HW225128   4.487   3.464  16.471
 4417SOL     OW25129   2.866   3.863  14.785
 4417SOL    HW125130   2.825   3.793  14.835
 4417SOL    HW225131   2.833   3.852  14.696
 4418SOL     OW25132   1.528   2.558   3.875
 4418SOL    HW125133   1.600   2.514   3.922
 4418SOL    HW225134   1.467   2.487   3.854
 4419SOL     OW25135   1.012   1.206  15.990
 4419SOL    HW125136   0.939   1.214  15.929
 4419SOL    HW225137   0.990   1.265  16.062
 4420SOL     OW25138   1.378   0.456   4.150
 4420SOL    HW125139   1.319   0.472   4.224
 4420SOL    HW225140   1.465   0.473   4.185
 4421SOL     OW25141   3.625   0.041   2.521
 4421SOL    HW125142   3.651   0.076   2.436
 4421SOL    HW225143   3.690   0.075   2.583
 4422SOL     OW25144   4.543   3.626  15.512
 4422SOL    HW125145   4.576   3.663  15.593
 4422SOL    HW225146   4.561   3.693  15.446
 4423SOL     OW25147   2.533   4.655  20.037
 4423SOL    HW125148   2.550   4.564  20.010
 4423SOL    HW225149   2.603   4.674  20.099
 4424SOL     OW25150   2.199   3.456   4.290
 4424SOL    HW125151   2.136   3.512   4.337
 4424SOL    HW225152   2.266   3.437   4.355
 4425SOL     OW25153   3.209   0.499   5.401
 4425SOL    HW125154   3.140   0.522   5.463
 4425SOL    HW225155   3.271   0.572   5.405
 4426SOL     OW25156   3.440   0.319  17.516
 4426SOL    HW125157   3.531   0.289  17.514
 4426SOL    HW225158   3.446   0.411  17.543
 4427SOL     OW25159   0.785   1.532   3.566
 4427SOL    HW125160   0.708   1.515   3.512
 4427SOL    HW225161   0.846   1.578   3.508
 4428SOL     OW25162   4.389   2.995   0.407
 4428SOL    HW125163   4.377   2.908   0.444
 4428SOL    HW225164   4.473   2.990   0.360
 4429SOL     OW25165   0.975   2.301   3.685
 4429SOL    HW125166   0.960   2.394   3.704
 4429SOL    HW225167   1.065   2.296   3.653
 4430SOL     OW25168   0.981   1.597  20.747
 4430SOL    HW125169   1.062   1.610  20.698
 4430SOL    HW225170   1.008   1.599  20.839
 4431SOL     OW25171   3.325   3.409  20.510
 4431SOL    HW125172   3.231   3.429  20.518
 4431SOL    HW225173   3.328   3.314  20.505
 4432SOL     OW25174   1.925   0.582  17.638
 4432SOL    HW125175   1.962   0.660  17.595
 4432SOL    HW225176   1.885   0.532  17.567
 4433SOL     OW25177   2.672   1.283   6.125
 4433SOL    HW125178   2.624   1.203   6.148
 4433SOL    HW225179   2.724   1.303   6.203
 4434SOL     OW25180   3.990   3.304  19.626
 4434SOL    HW125181   4.024   3.215  19.627
 4434SOL    HW225182   3.974   3.322  19.533
 4435SOL     OW25183   2.700   3.127   3.434
 4435SOL    HW125184   2.772   3.182   3.463
 4435SOL    HW225185   2.623   3.162   3.480
 4436SOL     OW25186   3.602   1.584  13.887
 4436SOL    HW125187   3.639   1.503  13.853
 4436SOL    HW225188   3.576   1.633  13.809
 4437SOL     OW25189   2.720   4.030  17.625
 4437SOL    HW125190   2.743   3.942  17.598
 4437SOL    HW225191   2.803   4.078  17.628
 4438SOL     OW25192   4.128   3.507   2.980
 4438SOL    HW125193   4.166   3.576   3.035
 4438SOL    HW225194   4.034   3.516   2.993
 4439SOL     OW25195   0.208   0.329   7.251
 4439SOL    HW125196   0.213   0.246   7.298
 4439SOL    HW225197   0.114   0.348   7.247
 4440SOL     OW25198   1.964   0.448  16.441
 4440SOL    HW125199   2.024   0.515  16.474
 4440SOL    HW225200   1.892   0.447  16.503
 4441SOL     OW25201   2.608   1.326   5.874
 4441SOL    HW125202   2.642   1.323   5.963
 4441SOL    HW225203   2.527   1.377   5.880
 4442SOL     OW25204   0.599   0.071   4.033
 4442SOL    HW125205   0.641   0.001   4.083
 4442SOL    HW225206   0.656   0.147   4.044
 4443SOL     OW25207   4.300   0.264   3.024
 4443SOL    HW125208   4.338   0.298   3.105
 4443SOL    HW225209   4.326   0.172   3.022
 4444SOL     OW25210   1.540   1.592   0.179
 4444SOL    HW125211   1.541   1.656   0.249
 4444SOL    HW225212   1.575   1.512   0.218
 4445SOL     OW25213   2.435   0.094   1.211
 4445SOL    HW125214   2.491   0.027   1.171
 4445SOL    HW225215   2.428   0.162   1.144
 4446SOL     OW25216   4.733   3.420  17.070
 4446SOL    HW125217   4.638   3.428  17.083
 4446SOL    HW225218   4.747   3.327  17.053
 4447SOL     OW25219   3.883   0.152   6.805
 4447SOL    HW125220   3.964   0.114   6.840
 4447SOL    HW225221   3.880   0.122   6.714
 4448SOL     OW25222   0.945   0.043  17.388
 4448SOL    HW125223   1.039   0.051  17.402
 4448SOL    HW225224   0.934   0.049  17.293
 4449SOL     OW25225   1.855   4.345   4.241
 4449SOL    HW125226   1.854   4.441   4.239
 4449SOL    HW225227   1.929   4.322   4.296
 4450SOL     OW25228   4.506   0.792   3.358
 4450SOL    HW125229   4.601   0.787   3.372
 4450SOL    HW225230   4.496   0.796   3.263
 4451SOL     OW25231   4.090   1.078   0.773
 4451SOL    HW125232   4.089   0.998   0.721
 4451SOL    HW225233   4.013   1.127   0.744
 4452SOL     OW25234   0.167   2.703  15.252
 4452SOL    HW125235   0.122   2.722  15.334
 4452SOL    HW225236   0.126   2.622  15.221
 4453SOL     OW25237   2.233   0.383   0.938
 4453SOL    HW125238   2.203   0.328   1.010
 4453SOL    HW225239   2.280   0.455   0.981
 4454SOL     OW25240   1.562   4.083  19.134
 4454SOL    HW125241   1.537   3.996  19.165
 4454SOL    HW225242   1.505   4.099  19.059
 4455SOL     OW25243   3.983   1.794   1.226
 4455SOL    HW125244   4.026   1.741   1.293
 4455SOL    HW225245   4.015   1.759   1.143
 4456SOL     OW25246   0.095   3.108   6.054
 4456SOL    HW125247   0.107   3.188   6.002
 4456SOL    HW225248   0.137   3.039   6.003
 4457SOL     OW25249   1.188   4.333  20.567
 4457SOL    HW125250   1.228   4.411  20.528
 4457SOL    HW225251   1.172   4.359  20.658
 4458SOL     OW25252   0.117   0.675  18.559
 4458SOL    HW125253   0.086   0.604  18.502
 4458SOL    HW225254   0.209   0.686  18.535
 4459SOL     OW25255   0.344   2.267  16.041
 4459SOL    HW125256   0.332   2.361  16.051
 4459SOL    HW225257   0.410   2.244  16.106
 4460SOL     OW25258   3.940   0.249   1.951
 4460SOL    HW125259   3.939   0.282   1.862
 4460SOL    HW225260   3.994   0.170   1.947
 4461SOL     OW25261   3.745   2.442   4.670
 4461SOL    HW125262   3.715   2.373   4.612
 4461SOL    HW225263   3.672   2.457   4.730
 4462SOL     OW25264   3.417   0.815  20.481
 4462SOL    HW125265   3.404   0.864  20.400
 4462SOL    HW225266   3.371   0.866  20.548
 4463SOL     OW25267   1.948   2.824  20.938
 4463SOL    HW125268   1.927   2.901  20.991
 4463SOL    HW225269   1.874   2.816  20.878
 4464SOL     OW25270   3.634   2.186   6.210
 4464SOL    HW125271   3.565   2.128   6.180
 4464SOL    HW225272   3.656   2.239   6.133
 4465SOL     OW25273   1.119   3.008   1.483
 4465SOL    HW125274   1.188   2.944   1.464
 4465SOL    HW225275   1.081   3.029   1.397
 4466SOL     OW25276   1.838   0.550   4.479
 4466SOL    HW125277   1.757   0.601   4.490
 4466SOL    HW225278   1.854   0.549   4.385
 4467SOL     OW25279   1.549   0.889   4.278
 4467SOL    HW125280   1.473   0.929   4.321
 4467SOL    HW225281   1.610   0.961   4.265
 4468SOL     OW25282   2.740   3.936   2.093
 4468SOL    HW125283   2.733   4.027   2.121
 4468SOL    HW225284   2.801   3.937   2.020
 4469SOL     OW25285   3.024   1.106   1.196
 4469SOL    HW125286   3.001   1.085   1.287
 4469SOL    HW225287   3.014   1.201   1.191
 4470SOL     OW25288   2.387   4.431   3.572
 4470SOL    HW125289   2.358   4.380   3.648
 4470SOL    HW225290   2.306   4.466   3.535
 4471SOL     OW25291   2.856   1.023  17.552
 4471SOL    HW125292   2.922   0.977  17.603
 4471SOL    HW225293   2.819   0.957  17.494
 4472SOL     OW25294   3.935   2.438   5.525
 4472SOL    HW125295   3.920   2.376   5.453
 4472SOL    HW225296   3.983   2.510   5.484
 4473SOL     OW25297   2.504   4.140  20.242
 4473SOL    HW125298   2.463   4.208  20.295
 4473SOL    HW225299   2.468   4.152  20.155
 4474SOL     OW25300   4.350   1.943  16.080
 4474SOL    HW125301   4.307   2.023  16.109
 4474SOL    HW225302   4.283   1.897  16.028
 4475SOL     OW25303   1.480   2.248  16.120
 4475SOL    HW125304   1.517   2.171  16.075
 4475SOL    HW225305   1.501   2.322  16.063
 4476SOL     OW25306   1.168   2.475   2.780
 4476SOL    HW125307   1.220   2.431   2.712
 4476SOL    HW225308   1.127   2.403   2.828
 4477SOL     OW25309   1.528   4.464   1.067
 4477SOL    HW125310   1.525   4.492   1.159
 4477SOL    HW225311   1.533   4.368   1.072
 4478SOL     OW25312   0.759   0.197  17.003
 4478SOL    HW125313   0.671   0.233  17.003
 4478SOL    HW225314   0.807   0.250  16.939
 4479SOL     OW25315   3.478   2.245  21.112
 4479SOL    HW125316   3.445   2.335  21.116
 4479SOL    HW225317   3.573   2.254  21.108
 4480SOL     OW25318   2.009   1.380   6.067
 4480SOL    HW125319   2.010   1.469   6.102
 4480SOL    HW225320   1.944   1.382   5.997
 4481SOL     OW25321   2.074   4.636   0.228
 4481SOL    HW125322   2.097   4.647   0.320
 4481SOL    HW225323   2.083   4.723   0.190
 4482SOL     OW25324   0.352   1.004   5.126
 4482SOL    HW125325   0.392   1.079   5.081
 4482SOL    HW225326   0.278   0.980   5.071
 4483SOL     OW25327   2.170   1.810  21.120
 4483SOL    HW125328   2.150   1.858  21.200
 4483SOL    HW225329   2.111   1.848  21.054
 4484SOL     OW25330   4.486   3.958   2.319
 4484SOL    HW125331   4.575   3.939   2.287
 4484SOL    HW225332   4.432   3.960   2.240
 4485SOL     OW25333   1.426   1.990   1.430
 4485SOL    HW125334   1.417   2.076   1.470
 4485SOL    HW225335   1.381   1.930   1.490
 4486SOL     OW25336   1.837   4.511   3.491
 4486SOL    HW125337   1.808   4.438   3.436
 4486SOL    HW225338   1.874   4.574   3.429
 4487SOL     OW25339   0.790   0.729   2.237
 4487SOL    HW125340   0.705   0.705   2.200
 4487SOL    HW225341   0.775   0.816   2.274
 4488SOL     OW25342   2.266   0.226  21.013
 4488SOL    HW125343   2.309   0.191  21.091
 4488SOL    HW225344   2.191   0.169  20.998
 4489SOL     OW25345   2.729   1.755   3.634
 4489SOL    HW125346   2.703   1.694   3.703
 4489SOL    HW225347   2.710   1.842   3.670
 4490SOL     OW25348   3.774   2.455  21.275
 4490SOL    HW125349   3.686   2.473   0.030
 4490SOL    HW225350   3.762   2.434  21.182
 4491SOL     OW25351   0.455   1.844   0.907
 4491SOL    HW125352   0.440   1.892   0.988
 4491SOL    HW225353   0.422   1.902   0.838
 4492SOL     OW25354   3.482   4.577  17.240
 4492SOL    HW125355   3.568   4.583  17.282
 4492SOL    HW225356   3.497   4.523  17.162
 4493SOL     OW25357   2.629   3.870   5.537
 4493SOL    HW125358   2.669   3.952   5.565
 4493SOL    HW225359   2.671   3.851   5.452
 4494SOL     OW25360   0.026   0.086   5.186
 4494SOL    HW125361   4.792   0.078   5.277
 4494SOL    HW225362   4.751   0.042   5.136
 4495SOL     OW25363   2.645   2.976  20.615
 4495SOL    HW125364   2.579   3.033  20.654
 4495SOL    HW225365   2.597   2.897  20.591
 4496SOL     OW25366   4.457   2.428   4.477
 4496SOL    HW125367   4.384   2.395   4.425
 4496SOL    HW225368   4.430   2.516   4.503
 4497SOL     OW25369   0.490   4.423   5.260
 4497SOL    HW125370   0.555   4.355   5.242
 4497SOL    HW225371   0.462   4.405   5.350
 4498SOL     OW25372   4.633   1.411   4.451
 4498SOL    HW125373   4.673   1.398   4.365
 4498SOL    HW225374   4.655   1.332   4.500
 4499SOL     OW25375   3.218   4.245   3.235
 4499SOL    HW125376   3.127   4.227   3.256
 4499SOL    HW225377   3.217   4.333   3.197
 4500SOL     OW25378   0.967   3.743   3.091
 4500SOL    HW125379   0.905   3.701   3.031
 4500SOL    HW225380   0.919   3.818   3.126
 4501SOL     OW25381   0.707   0.579  18.316
 4501SOL    HW125382   0.689   0.525  18.394
 4501SOL    HW225383   0.777   0.532  18.271
 4502SOL     OW25384   4.401   1.464   4.812
 4502SOL    HW125385   4.380   1.452   4.719
 4502SOL    HW225386   4.480   1.520   4.811
 4503SOL     OW25387   3.450   2.683  18.914
 4503SOL    HW125388   3.431   2.730  18.833
 4503SOL    HW225389   3.392   2.721  18.978
 4504SOL     OW25390   4.517   1.369   0.454
 4504SOL    HW125391   4.527   1.425   0.377
 4504SOL    HW225392   4.539   1.425   0.528
 4505SOL     OW25393   3.971   2.129  17.650
 4505SOL    HW125394   4.036   2.173  17.596
 4505SOL    HW225395   4.004   2.136  17.740
 4506SOL     OW25396   4.184   2.097  18.167
 4506SOL    HW125397   4.101   2.079  18.212
 4506SOL    HW225398   4.251   2.071  18.230
 4507SOL     OW25399   1.116   1.578   4.920
 4507SOL    HW125400   1.121   1.670   4.896
 4507SOL    HW225401   1.195   1.563   4.972
 4508SOL     OW25402   0.548   0.819  17.660
 4508SOL    HW125403   0.614   0.780  17.603
 4508SOL    HW225404   0.584   0.809  17.748
 4509SOL     OW25405   3.120   4.459   3.436
 4509SOL    HW125406   3.124   4.366   3.460
 4509SOL    HW225407   3.045   4.493   3.485
 4510SOL     OW25408   2.045   3.350  16.220
 4510SOL    HW125409   1.975   3.385  16.165
 4510SOL    HW225410   1.999   3.297  16.286
 4511SOL     OW25411   0.014   3.028   3.557
 4511SOL    HW125412   4.793   2.934   3.546
 4511SOL    HW225413   4.738   3.069   3.507
 4512SOL     OW25414   3.233   3.648   6.531
 4512SOL    HW125415   3.189   3.596   6.464
 4512SOL    HW225416   3.278   3.584   6.585
 4513SOL     OW25417   3.352   4.499  17.865
 4513SOL    HW125418   3.405   4.572  17.896
 4513SOL    HW225419   3.404   4.459  17.796
 4514SOL     OW25420   1.021   1.931   1.933
 4514SOL    HW125421   0.967   1.875   1.989
 4514SOL    HW225422   1.111   1.901   1.950
 4515SOL     OW25423   3.572   2.527  15.892
 4515SOL    HW125424   3.587   2.620  15.909
 4515SOL    HW225425   3.527   2.525  15.808
 4516SOL     OW25426   0.362   4.490   7.450
 4516SOL    HW125427   0.370   4.554   7.380
 4516SOL    HW225428   0.303   4.531   7.514
 4517SOL     OW25429   3.972   4.591  18.853
 4517SOL    HW125430   3.941   4.528  18.918
 4517SOL    HW225431   3.892   4.632  18.821
 4518SOL     OW25432   1.925   1.424   6.750
 4518SOL    HW125433   1.889   1.354   6.695
 4518SOL    HW225434   1.849   1.460   6.796
 4519SOL     OW25435   0.829   3.516   4.894
 4519SOL    HW125436   0.751   3.569   4.908
 4519SOL    HW225437   0.825   3.449   4.962
 4520SOL     OW25438   0.111   4.410  17.983
 4520SOL    HW125439   0.188   4.433  18.035
 4520SOL    HW225440   0.116   4.467  17.907
 4521SOL     OW25441   0.197   0.800   0.196
 4521SOL    HW125442   0.159   0.718   0.165
 4521SOL    HW225443   0.181   0.863   0.126
 4522SOL     OW25444   3.022   2.305  20.120
 4522SOL    HW125445   2.945   2.250  20.103
 4522SOL    HW225446   3.081   2.249  20.170
 4523SOL     OW25447   2.600   3.004   5.461
 4523SOL    HW125448   2.672   2.980   5.403
 4523SOL    HW225449   2.527   2.948   5.436
 4524SOL     OW25450   0.529   2.495   5.487
 4524SOL    HW125451   0.472   2.440   5.433
 4524SOL    HW225452   0.589   2.535   5.425
 4525SOL     OW25453   2.055   2.957   2.529
 4525SOL    HW125454   2.053   2.874   2.480
 4525SOL    HW225455   2.010   2.937   2.611
 4526SOL     OW25456   2.176   3.267   3.125
 4526SOL    HW125457   2.095   3.233   3.086
 4526SOL    HW225458   2.209   3.330   3.061
 4527SOL     OW25459   0.564   3.123  19.100
 4527SOL    HW125460   0.522   3.208  19.085
 4527SOL    HW225461   0.554   3.077  19.017
 4528SOL     OW25462   3.529   3.596  12.469
 4528SOL    HW125463   3.465   3.525  12.473
 4528SOL    HW225464   3.614   3.553  12.473
 4529SOL     OW25465   0.037   3.780  18.750
 4529SOL    HW125466   4.767   3.717  18.783
 4529SOL    HW225467   0.035   3.852  18.813
 4530SOL     OW25468   2.695   0.858   2.994
 4530SOL    HW125469   2.695   0.907   3.076
 4530SOL    HW225470   2.768   0.895   2.944
 4531SOL     OW25471   4.056   0.559  21.000
 4531SOL    HW125472   4.109   0.588  20.926
 4531SOL    HW225473   4.109   0.579  21.077
 4532SOL     OW25474   2.534   0.926   6.247
 4532SOL    HW125475   2.568   0.882   6.169
 4532SOL    HW225476   2.485   0.858   6.293
 4533SOL     OW25477   3.657   3.938   3.567
 4533SOL    HW125478   3.751   3.929   3.581
 4533SOL    HW225479   3.649   4.012   3.507
 4534SOL     OW25480   1.332   0.240   1.821
 4534SOL    HW125481   1.385   0.320   1.815
 4534SOL    HW225482   1.325   0.209   1.731
 4535SOL     OW25483   3.225   3.134  17.385
 4535SOL    HW125484   3.217   3.086  17.467
 4535SOL    HW225485   3.194   3.222  17.406
 4536SOL     OW25486   3.675   3.224   2.527
 4536SOL    HW125487   3.604   3.160   2.533
 4536SOL    HW225488   3.632   3.307   2.507
 4537SOL     OW25489   2.012   0.415  16.147
 4537SOL    HW125490   1.981   0.359  16.217
 4537SOL    HW225491   2.018   0.502  16.187
 4538SOL     OW25492   3.433   0.399   6.754
 4538SOL    HW125493   3.341   0.424   6.757
 4538SOL    HW225494   3.451   0.359   6.839
 4539SOL     OW25495   0.629   2.726  16.687
 4539SOL    HW125496   0.585   2.807  16.664
 4539SOL    HW225497   0.722   2.745  16.676
 4540SOL     OW25498   3.239   2.750   2.158
 4540SOL    HW125499   3.187   2.826   2.187
 4540SOL    HW225500   3.320   2.788   2.123
 4541SOL     OW25501   1.984   3.343   1.104
 4541SOL    HW125502   2.075   3.356   1.077
 4541SOL    HW225503   1.944   3.429   1.097
 4542SOL     OW25504   0.504   3.091  13.730
 4542SOL    HW125505   0.548   3.129  13.805
 4542SOL    HW225506   0.436   3.155  13.707
 4543SOL     OW25507   1.223   0.306   0.994
 4543SOL    HW125508   1.203   0.294   0.901
 4543SOL    HW225509   1.277   0.230   1.017
 4544SOL     OW25510   2.485   3.697  17.726
 4544SOL    HW125511   2.436   3.731  17.651
 4544SOL    HW225512   2.454   3.607  17.737
 4545SOL     OW25513   2.943   0.648  18.293
 4545SOL    HW125514   2.943   0.637  18.388
 4545SOL    HW225515   2.851   0.665  18.271
 4546SOL     OW25516   2.423   3.634   0.112
 4546SOL    HW125517   2.403   3.603   0.201
 4546SOL    HW225518   2.518   3.624   0.104
 4547SOL     OW25519   3.328   4.730  20.360
 4547SOL    HW125520   3.274   4.769  20.291
 4547SOL    HW225521   3.279   4.745  20.441
 4548SOL     OW25522   1.848   3.077   1.196
 4548SOL    HW125523   1.757   3.106   1.200
 4548SOL    HW225524   1.897   3.154   1.167
 4549SOL     OW25525   1.820   3.686  19.055
 4549SOL    HW125526   1.742   3.686  18.999
 4549SOL    HW225527   1.792   3.642  19.135
 4550SOL     OW25528   0.250   4.762  13.705
 4550SOL    HW125529   0.342   4.739  13.720
 4550SOL    HW225530   0.252   0.042  13.646
 4551SOL     OW25531   4.604   1.352  17.671
 4551SOL    HW125532   4.561   1.421  17.620
 4551SOL    HW225533   4.697   1.374  17.667
 4552SOL     OW25534   3.175   0.263   6.521
 4552SOL    HW125535   3.244   0.271   6.587
 4552SOL    HW225536   3.217   0.291   6.439
 4553SOL     OW25537   3.455   1.646  15.905
 4553SOL    HW125538   3.418   1.700  15.975
 4553SOL    HW225539   3.378   1.618  15.854
 4554SOL     OW25540   1.545   1.791   0.895
 4554SOL    HW125541   1.547   1.701   0.928
 4554SOL    HW225542   1.453   1.815   0.897
 4555SOL     OW25543   2.017   4.414  20.259
 4555SOL    HW125544   1.929   4.443  20.233
 4555SOL    HW225545   2.076   4.464  20.204
 4556SOL     OW25546   1.512   1.044  18.405
 4556SOL    HW125547   1.507   0.948  18.410
 4556SOL    HW225548   1.424   1.071  18.380
 4557SOL     OW25549   2.581   1.499  20.815
 4557SOL    HW125550   2.563   1.589  20.843
 4557SOL    HW225551   2.661   1.506  20.762
 4558SOL     OW25552   1.226   2.576  17.389
 4558SOL    HW125553   1.285   2.639  17.348
 4558SOL    HW225554   1.205   2.513  17.320
 4559SOL     OW25555   3.649   1.967  20.301
 4559SOL    HW125556   3.629   1.926  20.385
 4559SOL    HW225557   3.744   1.973  20.298
 4560SOL     OW25558   3.831   1.201   7.993
 4560SOL    HW125559   3.763   1.137   7.970
 4560SOL    HW225560   3.899   1.148   8.035
 4561SOL     OW25561   3.732   2.381   6.734
 4561SOL    HW125562   3.638   2.398   6.739
 4561SOL    HW225563   3.770   2.438   6.801
 4562SOL     OW25564   2.964   4.105   3.611
 4562SOL    HW125565   2.897   4.169   3.587
 4562SOL    HW225566   3.016   4.094   3.532
 4563SOL     OW25567   2.643   4.297   4.196
 4563SOL    HW125568   2.603   4.212   4.214
 4563SOL    HW225569   2.571   4.359   4.204
 4564SOL     OW25570   1.615   0.159   1.549
 4564SOL    HW125571   1.520   0.152   1.540
 4564SOL    HW225572   1.628   0.216   1.625
 4565SOL     OW25573   1.064   2.894  19.555
 4565SOL    HW125574   0.998   2.873  19.621
 4565SOL    HW225575   1.119   2.961  19.596
 4566SOL     OW25576   0.355   1.603   0.812
 4566SOL    HW125577   0.412   1.577   0.739
 4566SOL    HW225578   0.403   1.674   0.855
 4567SOL     OW25579   3.485   1.577  16.392
 4567SOL    HW125580   3.509   1.549  16.303
 4567SOL    HW225581   3.519   1.667  16.398
 4568SOL     OW25582   3.462   1.702  16.693
 4568SOL    HW125583   3.475   1.686  16.786
 4568SOL    HW225584   3.546   1.681  16.653
 4569SOL     OW25585   1.339   2.654   3.206
 4569SOL    HW125586   1.252   2.656   3.247
 4569SOL    HW225587   1.359   2.560   3.197
 4570SOL     OW25588   2.298   1.194   0.771
 4570SOL    HW125589   2.227   1.257   0.779
 4570SOL    HW225590   2.271   1.136   0.699
 4571SOL     OW25591   4.083   2.133   4.226
 4571SOL    HW125592   4.101   2.167   4.139
 4571SOL    HW225593   4.003   2.081   4.216
 4572SOL     OW25594   0.089   2.887   1.209
 4572SOL    HW125595   4.788   2.880   1.223
 4572SOL    HW225596   0.115   2.964   1.260
 4573SOL     OW25597   3.495   3.458   7.108
 4573SOL    HW125598   3.435   3.531   7.094
 4573SOL    HW225599   3.475   3.426   7.196
 4574SOL     OW25600   1.925   3.165   1.567
 4574SOL    HW125601   1.986   3.196   1.499
 4574SOL    HW225602   1.934   3.070   1.566
 4575SOL     OW25603   1.679   4.185  20.824
 4575SOL    HW125604   1.645   4.218  20.908
 4575SOL    HW225605   1.698   4.263  20.773
 4576SOL     OW25606   2.189   0.305   0.377
 4576SOL    HW125607   2.135   0.371   0.333
 4576SOL    HW225608   2.200   0.339   0.465
 4577SOL     OW25609   2.490   3.126  15.565
 4577SOL    HW125610   2.422   3.059  15.567
 4577SOL    HW225611   2.570   3.080  15.540
 4578SOL     OW25612   2.858   0.975  14.699
 4578SOL    HW125613   2.909   1.052  14.672
 4578SOL    HW225614   2.804   1.007  14.771
 4579SOL     OW25615   4.018   2.073  21.153
 4579SOL    HW125616   3.942   2.055  21.098
 4579SOL    HW225617   4.065   2.142  21.106
 4580SOL     OW25618   1.113   3.879   5.649
 4580SOL    HW125619   1.063   3.835   5.579
 4580SOL    HW225620   1.175   3.934   5.602
 4581SOL     OW25621   4.578   3.019   6.458
 4581SOL    HW125622   4.566   2.991   6.367
 4581SOL    HW225623   4.490   3.033   6.491
 4582SOL     OW25624   0.843   1.591  13.980
 4582SOL    HW125625   0.825   1.531  13.907
 4582SOL    HW225626   0.757   1.621  14.008
 4583SOL     OW25627   4.332   3.366  17.517
 4583SOL    HW125628   4.389   3.329  17.584
 4583SOL    HW225629   4.382   3.438  17.480
 4584SOL     OW25630   0.184   4.651  16.864
 4584SOL    HW125631   0.147   4.599  16.793
 4584SOL    HW225632   0.207   4.735  16.824
 4585SOL     OW25633   2.976   1.831   6.364
 4585SOL    HW125634   2.921   1.802   6.438
 4585SOL    HW225635   2.979   1.756   6.306
 4586SOL     OW25636   1.658   0.130  14.213
 4586SOL    HW125637   1.710   0.210  14.220
 4586SOL    HW225638   1.713   0.069  14.166
 4587SOL     OW25639   2.140   2.994  20.303
 4587SOL    HW125640   2.101   2.952  20.226
 4587SOL    HW225641   2.187   3.070  20.267
 4588SOL     OW25642   1.832   4.711  14.532
 4588SOL    HW125643   1.806   4.624  14.562
 4588SOL    HW225644   1.750   4.754  14.509
 4589SOL     OW25645   3.687   4.637  18.864
 4589SOL    HW125646   3.707   4.572  18.931
 4589SOL    HW225647   3.597   4.619  18.839
 4590SOL     OW25648   1.435   0.771   2.658
 4590SOL    HW125649   1.512   0.732   2.618
 4590SOL    HW225650   1.362   0.719   2.624
 4591SOL     OW25651   0.264   3.832  18.594
 4591SOL    HW125652   0.178   3.824  18.635
 4591SOL    HW225653   0.298   3.742  18.594
 4592SOL     OW25654   0.100   1.210  20.630
 4592SOL    HW125655   0.184   1.230  20.672
 4592SOL    HW225656   0.085   1.118  20.651
 4593SOL     OW25657   2.489   4.729  14.776
 4593SOL    HW125658   2.532   4.737  14.861
 4593SOL    HW225659   2.521   4.646  14.740
 4594SOL     OW25660   0.867   3.278   3.181
 4594SOL    HW125661   0.792   3.220   3.197
 4594SOL    HW225662   0.842   3.360   3.224
 4595SOL     OW25663   2.795   4.067  17.932
 4595SOL    HW125664   2.753   4.067  17.846
 4595SOL    HW225665   2.796   3.975  17.958
 4596SOL     OW25666   2.053   1.015  18.667
 4596SOL    HW125667   2.011   1.002  18.752
 4596SOL    HW225668   2.086   1.105  18.670
 4597SOL     OW25669   1.063   4.666  17.935
 4597SOL    HW125670   1.125   4.722  17.982
 4597SOL    HW225671   1.048   4.710  17.852
 4598SOL     OW25672   3.312   1.668  21.227
 4598SOL    HW125673   3.354   1.752  21.245
 4598SOL    HW225674   3.334   1.614   0.026
 4599SOL     OW25675   3.838   2.766   3.288
 4599SOL    HW125676   3.800   2.844   3.248
 4599SOL    HW225677   3.820   2.776   3.381
 4600SOL     OW25678   2.242   3.497  17.980
 4600SOL    HW125679   2.261   3.579  17.934
 4600SOL    HW225680   2.298   3.499  18.057
 4601SOL     OW25681   0.122   3.362  21.274
 4601SOL    HW125682   0.100   3.449  21.241
 4601SOL    HW225683   0.216   3.366   0.017
 4602SOL     OW25684   2.472   3.546   0.794
 4602SOL    HW125685   2.533   3.479   0.763
 4602SOL    HW225686   2.495   3.625   0.744
 4603SOL     OW25687   1.663   0.272   5.114
 4603SOL    HW125688   1.705   0.265   5.029
 4603SOL    HW225689   1.570   0.254   5.096
 4604SOL     OW25690   2.334   1.401   4.287
 4604SOL    HW125691   2.279   1.440   4.354
 4604SOL    HW225692   2.296   1.314   4.273
 4605SOL     OW25693   2.269   0.934   8.704
 4605SOL    HW125694   2.256   0.847   8.741
 4605SOL    HW225695   2.268   0.993   8.779
 4606SOL     OW25696   0.792   0.377   0.025
 4606SOL    HW125697   0.697   0.365   0.019
 4606SOL    HW225698   0.820   0.388  21.211
 4607SOL     OW25699   0.879   1.886  17.405
 4607SOL    HW125700   0.792   1.886  17.366
 4607SOL    HW225701   0.935   1.924  17.337
 4608SOL     OW25702   3.544   4.710  14.088
 4608SOL    HW125703   3.483   4.768  14.041
 4608SOL    HW225704   3.522   4.722  14.180
 4609SOL     OW25705   3.809   1.028  20.962
 4609SOL    HW125706   3.798   1.035  21.057
 4609SOL    HW225707   3.721   1.039  20.927
 4610SOL     OW25708   2.821   0.934  20.244
 4610SOL    HW125709   2.913   0.928  20.216
 4610SOL    HW225710   2.810   1.026  20.268
 4611SOL     OW25711   1.143   0.289  15.492
 4611SOL    HW125712   1.089   0.290  15.571
 4611SOL    HW225713   1.116   0.209  15.446
 4612SOL     OW25714   0.927   0.732   4.451
 4612SOL    HW125715   0.965   0.814   4.420
 4612SOL    HW225716   0.980   0.708   4.527
 4613SOL     OW25717   0.877   0.374   3.494
 4613SOL    HW125718   0.882   0.320   3.573
 4613SOL    HW225719   0.841   0.314   3.428
 4614SOL     OW25720   4.729   0.869  20.955
 4614SOL    HW125721   4.686   0.820  20.885
 4614SOL    HW225722   4.689   0.836  21.035
 4615SOL     OW25723   0.713   4.737  12.766
 4615SOL    HW125724   0.765   4.764  12.690
 4615SOL    HW225725   0.623   4.756  12.742
 4616SOL     OW25726   0.501   1.324   1.720
 4616SOL    HW125727   0.579   1.364   1.682
 4616SOL    HW225728   0.490   1.242   1.672
 4617SOL     OW25729   1.394   1.437   1.662
 4617SOL    HW125730   1.380   1.353   1.705
 4617SOL    HW225731   1.435   1.415   1.578
 4618SOL     OW25732   1.753   4.736  15.518
 4618SOL    HW125733   1.829   4.790  15.495
 4618SOL    HW225734   1.789   4.648  15.531
 4619SOL     OW25735   2.226   2.458   6.145
 4619SOL    HW125736   2.183   2.456   6.230
 4619SOL    HW225737   2.170   2.406   6.088
 4620SOL     OW25738   0.144   3.049   0.535
 4620SOL    HW125739   0.087   3.068   0.609
 4620SOL    HW225740   0.168   3.136   0.501
 4621SOL     OW25741   2.423   0.062  16.551
 4621SOL    HW125742   2.498   0.013  16.585
 4621SOL    HW225743   2.438   0.066  16.457
 4622SOL     OW25744   1.647   4.637  16.491
 4622SOL    HW125745   1.662   4.674  16.578
 4622SOL    HW225746   1.607   4.708  16.442
 4623SOL     OW25747   3.609   1.422   0.631
 4623SOL    HW125748   3.692   1.388   0.598
 4623SOL    HW225749   3.610   1.402   0.725
 4624SOL     OW25750   0.707   3.157  18.626
 4624SOL    HW125751   0.721   3.112  18.543
 4624SOL    HW225752   0.676   3.244  18.602
 4625SOL     OW25753   1.619   3.415   0.432
 4625SOL    HW125754   1.684   3.455   0.490
 4625SOL    HW225755   1.615   3.472   0.356
 4626SOL     OW25756   2.143   1.419   2.517
 4626SOL    HW125757   2.144   1.333   2.475
 4626SOL    HW225758   2.190   1.407   2.600
 4627SOL     OW25759   1.187   4.680   2.651
 4627SOL    HW125760   1.266   4.647   2.607
 4627SOL    HW225761   1.214   4.763   2.690
 4628SOL     OW25762   3.412   0.655   5.380
 4628SOL    HW125763   3.428   0.630   5.471
 4628SOL    HW225764   3.500   0.660   5.341
 4629SOL     OW25765   0.326   1.906  17.867
 4629SOL    HW125766   0.320   1.937  17.958
 4629SOL    HW225767   0.377   1.825  17.872
 4630SOL     OW25768   1.591   3.497  17.406
 4630SOL    HW125769   1.614   3.586  17.379
 4630SOL    HW225770   1.648   3.440  17.353
 4631SOL     OW25771   3.719   0.094   0.584
 4631SOL    HW125772   3.772   0.166   0.617
 4631SOL    HW225773   3.697   0.119   0.494
 4632SOL     OW25774   0.933   1.384  16.207
 4632SOL    HW125775   1.008   1.435  16.235
 4632SOL    HW225776   0.883   1.443  16.150
 4633SOL     OW25777   0.473   4.569   8.959
 4633SOL    HW125778   0.478   4.662   8.938
 4633SOL    HW225779   0.425   4.565   9.042
 4634SOL     OW25780   2.173   4.126  17.214
 4634SOL    HW125781   2.148   4.037  17.189
 4634SOL    HW225782   2.145   4.134  17.306
 4635SOL     OW25783   1.544   4.561  21.146
 4635SOL    HW125784   1.488   4.507  21.201
 4635SOL    HW225785   1.540   4.648  21.185
 4636SOL     OW25786   4.756   4.303   4.827
 4636SOL    HW125787   4.680   4.359   4.846
 4636SOL    HW225788   4.765   4.248   4.905
 4637SOL     OW25789   0.657   1.177   2.287
 4637SOL    HW125790   0.673   1.195   2.194
 4637SOL    HW225791   0.647   1.264   2.327
 4638SOL     OW25792   3.153   3.396   2.825
 4638SOL    HW125793   3.121   3.465   2.766
 4638SOL    HW225794   3.127   3.314   2.782
 4639SOL     OW25795   2.176   4.090  19.608
 4639SOL    HW125796   2.108   4.041  19.562
 4639SOL    HW225797   2.196   4.036  19.685
 4640SOL     OW25798   0.543   0.165   4.812
 4640SOL    HW125799   0.508   0.081   4.843
 4640SOL    HW225800   0.579   0.146   4.726
 4641SOL     OW25801   1.698   0.784   7.878
 4641SOL    HW125802   1.699   0.733   7.797
 4641SOL    HW225803   1.683   0.874   7.850
 4642SOL     OW25804   1.338   3.112  17.705
 4642SOL    HW125805   1.268   3.163  17.664
 4642SOL    HW225806   1.419   3.148  17.669
 4643SOL     OW25807   2.203   1.113   0.012
 4643SOL    HW125808   2.116   1.148  21.268
 4643SOL    HW225809   2.198   1.092   0.105
 4644SOL     OW25810   1.765   2.773   2.232
 4644SOL    HW125811   1.744   2.759   2.140
 4644SOL    HW225812   1.792   2.687   2.264
 4645SOL     OW25813   2.106   0.497  16.878
 4645SOL    HW125814   2.108   0.402  16.869
 4645SOL    HW225815   2.091   0.528  16.789
 4646SOL     OW25816   0.788   3.304   0.323
 4646SOL    HW125817   0.830   3.282   0.240
 4646SOL    HW225818   0.790   3.223   0.373
 4647SOL     OW25819   0.588   1.157   8.977
 4647SOL    HW125820   0.642   1.145   8.899
 4647SOL    HW225821   0.650   1.180   9.046
 4648SOL     OW25822   3.756   1.359   5.935
 4648SOL    HW125823   3.838   1.311   5.919
 4648SOL    HW225824   3.699   1.332   5.863
 4649SOL     OW25825   2.404   4.167   1.273
 4649SOL    HW125826   2.418   4.188   1.366
 4649SOL    HW225827   2.391   4.252   1.231
 4650SOL     OW25828   0.562   1.827   2.944
 4650SOL    HW125829   0.610   1.850   3.024
 4650SOL    HW225830   0.551   1.910   2.898
 4651SOL     OW25831   3.801   2.154  16.231
 4651SOL    HW125832   3.773   2.112  16.149
 4651SOL    HW225833   3.813   2.246  16.208
 4652SOL     OW25834   1.363   1.020   5.257
 4652SOL    HW125835   1.315   1.060   5.185
 4652SOL    HW225836   1.435   1.080   5.274
 4653SOL     OW25837   1.599   4.093   5.951
 4653SOL    HW125838   1.528   4.158   5.946
 4653SOL    HW225839   1.679   4.146   5.946
 4654SOL     OW25840   3.265   2.433  15.828
 4654SOL    HW125841   3.324   2.381  15.883
 4654SOL    HW225842   3.180   2.390  15.838
 4655SOL     OW25843   4.259   2.291   1.691
 4655SOL    HW125844   4.285   2.380   1.668
 4655SOL    HW225845   4.283   2.239   1.615
 4656SOL     OW25846   0.105   1.297  19.372
 4656SOL    HW125847   0.102   1.311  19.467
 4656SOL    HW225848   0.199   1.287  19.352
 4657SOL     OW25849   1.544   3.276   3.554
 4657SOL    HW125850   1.633   3.295   3.524
 4657SOL    HW225851   1.552   3.192   3.599
 4658SOL     OW25852   1.704   0.144   0.751
 4658SOL    HW125853   1.611   0.152   0.730
 4658SOL    HW225854   1.706   0.125   0.844
 4659SOL     OW25855   3.551   3.899  18.267
 4659SOL    HW125856   3.506   3.983  18.273
 4659SOL    HW225857   3.644   3.921  18.269
 4660SOL     OW25858   1.079   3.356   1.694
 4660SOL    HW125859   1.045   3.420   1.631
 4660SOL    HW225860   1.168   3.338   1.663
 4661SOL     OW25861   1.699   1.176   3.741
 4661SOL    HW125862   1.611   1.194   3.707
 4661SOL    HW225863   1.751   1.250   3.712
 4662SOL     OW25864   1.185   0.107  17.275
 4662SOL    HW125865   1.118   0.073  17.215
 4662SOL    HW225866   1.268   0.093  17.229
 4663SOL     OW25867   3.436   2.778   0.128
 4663SOL    HW125868   3.418   2.855   0.181
 4663SOL    HW225869   3.350   2.745   0.103
 4664SOL     OW25870   3.363   1.626   3.202
 4664SOL    HW125871   3.387   1.590   3.287
 4664SOL    HW225872   3.329   1.713   3.222
 4665SOL     OW25873   0.873   4.174  13.432
 4665SOL    HW125874   0.925   4.217  13.364
 4665SOL    HW225875   0.786   4.213  13.424
 4666SOL     OW25876   2.340   4.567   2.436
 4666SOL    HW125877   2.290   4.644   2.410
 4666SOL    HW225878   2.376   4.533   2.354
 4667SOL     OW25879   2.843   0.061   1.382
 4667SOL    HW125880   2.872   0.003   1.311
 4667SOL    HW225881   2.800   0.003   1.445
 4668SOL     OW25882   4.561   0.212  14.769
 4668SOL    HW125883   4.624   0.153  14.728
 4668SOL    HW225884   4.553   0.179  14.859
 4669SOL     OW25885   2.153   1.484   5.760
 4669SOL    HW125886   2.172   1.436   5.679
 4669SOL    HW225887   2.097   1.425   5.811
 4670SOL     OW25888   1.419   0.188  13.240
 4670SOL    HW125889   1.407   0.177  13.334
 4670SOL    HW225890   1.362   0.262  13.217
 4671SOL     OW25891   1.027   4.731  13.343
 4671SOL    HW125892   1.053   4.706  13.254
 4671SOL    HW225893   1.109   4.744  13.390
 4672SOL     OW25894   3.608   4.581   4.622
 4672SOL    HW125895   3.587   4.623   4.705
 4672SOL    HW225896   3.590   4.649   4.556
 4673SOL     OW25897   2.481   1.225   1.687
 4673SOL    HW125898   2.574   1.204   1.691
 4673SOL    HW225899   2.458   1.246   1.778
 4674SOL     OW25900   2.991   4.570   5.155
 4674SOL    HW125901   3.017   4.596   5.067
 4674SOL    HW225902   3.010   4.646   5.209
 4675SOL     OW25903   3.378   1.665   2.010
 4675SOL    HW125904   3.302   1.692   1.959
 4675SOL    HW225905   3.347   1.659   2.100
 4676SOL     OW25906   1.445   3.455  21.114
 4676SOL    HW125907   1.354   3.451  21.086
 4676SOL    HW225908   1.477   3.539  21.081
 4677SOL     OW25909   4.418   3.740  16.672
 4677SOL    HW125910   4.449   3.715  16.759
 4677SOL    HW225911   4.484   3.705  16.612
 4678SOL     OW25912   1.986   1.662  19.392
 4678SOL    HW125913   1.983   1.633  19.301
 4678SOL    HW225914   2.041   1.598  19.437
 4679SOL     OW25915   4.159   2.232  19.295
 4679SOL    HW125916   4.148   2.172  19.222
 4679SOL    HW225917   4.207   2.182  19.360
 4680SOL     OW25918   2.481   4.218   5.136
 4680SOL    HW125919   2.485   4.126   5.107
 4680SOL    HW225920   2.508   4.268   5.059
 4681SOL     OW25921   3.516   3.166  20.693
 4681SOL    HW125922   3.562   3.180  20.610
 4681SOL    HW225923   3.479   3.078  20.685
 4682SOL     OW25924   2.288   3.853   4.234
 4682SOL    HW125925   2.266   3.801   4.156
 4682SOL    HW225926   2.204   3.886   4.265
 4683SOL     OW25927   3.425   3.471  20.869
 4683SOL    HW125928   3.399   3.449  20.959
 4683SOL    HW225929   3.369   3.417  20.814
 4684SOL     OW25930   3.996   3.419  20.887
 4684SOL    HW125931   3.966   3.342  20.935
 4684SOL    HW225932   3.969   3.493  20.941
 4685SOL     OW25933   0.025   1.606  18.501
 4685SOL    HW125934   4.777   1.585  18.417
 4685SOL    HW225935   0.029   1.522  18.547
 4686SOL     OW25936   4.392   3.711  18.852
 4686SOL    HW125937   4.374   3.741  18.763
 4686SOL    HW225938   4.361   3.783  18.908
 4687SOL     OW25939   0.452   1.781   4.953
 4687SOL    HW125940   0.385   1.832   4.997
 4687SOL    HW225941   0.483   1.836   4.882
 4688SOL     OW25942   3.039   0.550   5.595
 4688SOL    HW125943   3.074   0.639   5.603
 4688SOL    HW225944   3.064   0.507   5.677
 4689SOL     OW25945   2.469   0.081  14.432
 4689SOL    HW125946   2.505   0.011  14.487
 4689SOL    HW225947   2.400   0.039  14.382
 4690SOL     OW25948   2.170   3.460  20.764
 4690SOL    HW125949   2.185   3.405  20.688
 4690SOL    HW225950   2.231   3.428  20.830
 4691SOL     OW25951   1.651   2.978   3.597
 4691SOL    HW125952   1.648   2.893   3.642
 4691SOL    HW225953   1.692   2.959   3.513
 4692SOL     OW25954   2.455   3.668   5.317
 4692SOL    HW125955   2.471   3.750   5.363
 4692SOL    HW225956   2.529   3.612   5.340
 4693SOL     OW25957   1.511   3.795  16.096
 4693SOL    HW125958   1.552   3.824  16.178
 4693SOL    HW225959   1.498   3.701  16.108
 4694SOL     OW25960   4.788   3.255  17.913
 4694SOL    HW125961   0.040   3.336  17.936
 4694SOL    HW225962   4.761   3.219  17.998
 4695SOL     OW25963   0.964   0.565  19.407
 4695SOL    HW125964   1.033   0.613  19.452
 4695SOL    HW225965   0.944   0.619  19.330
 4696SOL     OW25966   2.726   4.085   5.984
 4696SOL    HW125967   2.771   4.003   5.967
 4696SOL    HW225968   2.645   4.080   5.933
 4697SOL     OW25969   2.577   3.607  19.580
 4697SOL    HW125970   2.488   3.589  19.613
 4697SOL    HW225971   2.628   3.623  19.659
 4698SOL     OW25972   0.889   1.333   5.420
 4698SOL    HW125973   0.979   1.366   5.419
 4698SOL    HW225974   0.835   1.409   5.440
 4699SOL     OW25975   0.639   1.856  18.472
 4699SOL    HW125976   0.729   1.849  18.503
 4699SOL    HW225977   0.639   1.810  18.388
 4700SOL     OW25978   2.888   3.583   1.925
 4700SOL    HW125979   2.980   3.560   1.940
 4700SOL    HW225980   2.892   3.671   1.887
 4701SOL     OW25981   2.670   1.855  19.970
 4701SOL    HW125982   2.654   1.948  19.988
 4701SOL    HW225983   2.583   1.816  19.964
 4702SOL     OW25984   1.801   0.524   6.114
 4702SOL    HW125985   1.874   0.467   6.091
 4702SOL    HW225986   1.726   0.465   6.125
 4703SOL     OW25987   0.184   0.736   0.463
 4703SOL    HW125988   0.271   0.703   0.482
 4703SOL    HW225989   0.192   0.774   0.375
 4704SOL     OW25990   2.385   4.413   1.118
 4704SOL    HW125991   2.365   4.379   1.031
 4704SOL    HW225992   2.324   4.486   1.130
 4705SOL     OW25993   2.782   0.555   3.020
 4705SOL    HW125994   2.719   0.567   3.090
 4705SOL    HW225995   2.843   0.628   3.030
 4706SOL     OW25996   4.155   1.439   8.220
 4706SOL    HW125997   4.234   1.480   8.184
 4706SOL    HW225998   4.187   1.389   8.295
 4707SOL     OW25999   0.534   3.552   5.815
 4707SOL    HW126000   0.576   3.572   5.899
 4707SOL    HW226001   0.518   3.638   5.775
 4708SOL     OW26002   2.662   1.547   1.985
 4708SOL    HW126003   2.741   1.495   1.996
 4708SOL    HW226004   2.670   1.586   1.898
 4709SOL     OW26005   4.517   1.268   6.073
 4709SOL    HW126006   4.518   1.172   6.075
 4709SOL    HW226007   4.597   1.292   6.027
 4710SOL     OW26008   1.335   0.458  13.204
 4710SOL    HW126009   1.357   0.546  13.175
 4710SOL    HW226010   1.294   0.472  13.290
 4711SOL     OW26011   3.281   3.208  15.864
 4711SOL    HW126012   3.210   3.249  15.914
 4711SOL    HW226013   3.269   3.114  15.880
 4712SOL     OW26014   2.160   1.017   1.151
 4712SOL    HW126015   2.166   0.999   1.245
 4712SOL    HW226016   2.081   1.071   1.143
 4713SOL     OW26017   1.063   2.681  20.845
 4713SOL    HW126018   0.971   2.674  20.871
 4713SOL    HW226019   1.079   2.776  20.843
 4714SOL     OW26020   2.318   1.297  15.932
 4714SOL    HW126021   2.316   1.358  16.006
 4714SOL    HW226022   2.237   1.316  15.885
 4715SOL     OW26023   0.496   4.614  21.045
 4715SOL    HW126024   0.565   4.583  21.104
 4715SOL    HW226025   0.543   4.633  20.963
 4716SOL     OW26026   3.244   4.684   7.114
 4716SOL    HW126027   3.325   4.658   7.157
 4716SOL    HW226028   3.271   4.706   7.025
 4717SOL     OW26029   2.485   2.958   8.171
 4717SOL    HW126030   2.517   2.920   8.089
 4717SOL    HW226031   2.465   3.049   8.150
 4718SOL     OW26032   1.805   1.439  18.308
 4718SOL    HW126033   1.823   1.389  18.228
 4718SOL    HW226034   1.721   1.483  18.290
 4719SOL     OW26035   1.626   2.325   6.068
 4719SOL    HW126036   1.697   2.388   6.056
 4719SOL    HW226037   1.557   2.354   6.008
 4720SOL     OW26038   0.221   3.644  16.992
 4720SOL    HW126039   0.150   3.643  16.928
 4720SOL    HW226040   0.295   3.684  16.945
 4721SOL     OW26041   0.029   4.139  19.216
 4721SOL    HW126042   0.058   4.230  19.213
 4721SOL    HW226043   0.094   4.093  19.269
 4722SOL     OW26044   4.759   1.290   1.216
 4722SOL    HW126045   0.053   1.312   1.184
 4722SOL    HW226046   4.723   1.233   1.148
 4723SOL     OW26047   0.454   3.087  14.960
 4723SOL    HW126048   0.504   3.021  15.008
 4723SOL    HW226049   0.504   3.168  14.971
 4724SOL     OW26050   0.333   2.084  14.473
 4724SOL    HW126051   0.277   2.007  14.488
 4724SOL    HW226052   0.403   2.052  14.416
 4725SOL     OW26053   0.646   1.658  15.902
 4725SOL    HW126054   0.628   1.719  15.973
 4725SOL    HW226055   0.681   1.712  15.831
 4726SOL     OW26056   4.141   1.135  20.040
 4726SOL    HW126057   4.157   1.055  20.089
 4726SOL    HW226058   4.153   1.111  19.948
 4727SOL     OW26059   3.733   4.716   0.203
 4727SOL    HW126060   3.761   4.647   0.263
 4727SOL    HW226061   3.640   4.700   0.189
 4728SOL     OW26062   0.213   0.096   4.081
 4728SOL    HW126063   0.207   0.001   4.071
 4728SOL    HW226064   0.288   0.122   4.027
 4729SOL     OW26065   0.210   1.561   1.532
 4729SOL    HW126066   0.186   1.479   1.489
 4729SOL    HW226067   0.267   1.606   1.469
 4730SOL     OW26068   4.527   1.001   7.407
 4730SOL    HW126069   4.476   0.985   7.487
 4730SOL    HW226070   4.583   1.075   7.429
 4731SOL     OW26071   0.251   4.664  15.518
 4731SOL    HW126072   0.243   4.583  15.570
 4731SOL    HW226073   0.299   4.638  15.440
 4732SOL     OW26074   2.530   3.242   0.119
 4732SOL    HW126075   2.618   3.277   0.131
 4732SOL    HW226076   2.531   3.203   0.032
 4733SOL     OW26077   2.122   1.980  20.912
 4733SOL    HW126078   2.188   1.914  20.889
 4733SOL    HW226079   2.073   1.993  20.831
 4734SOL     OW26080   2.184   3.246  19.633
 4734SOL    HW126081   2.243   3.173  19.618
 4734SOL    HW226082   2.237   3.312  19.678
 4735SOL     OW26083   1.420   1.847   7.386
 4735SOL    HW126084   1.346   1.854   7.325
 4735SOL    HW226085   1.446   1.755   7.382
 4736SOL     OW26086   3.651   0.117   7.874
 4736SOL    HW126087   3.642   0.029   7.838
 4736SOL    HW226088   3.738   0.146   7.846
 4737SOL     OW26089   2.560   3.490  17.479
 4737SOL    HW126090   2.606   3.410  17.453
 4737SOL    HW226091   2.516   3.466  17.560
 4738SOL     OW26092   2.918   3.851   1.847
 4738SOL    HW126093   2.866   3.844   1.767
 4738SOL    HW226094   3.008   3.859   1.816
 4739SOL     OW26095   0.893   2.154   0.628
 4739SOL    HW126096   0.966   2.095   0.644
 4739SOL    HW226097   0.870   2.140   0.536
 4740SOL     OW26098   2.973   4.389   1.829
 4740SOL    HW126099   3.004   4.471   1.868
 4740SOL    HW226100   2.953   4.412   1.739
 4741SOL     OW26101   0.062   2.718  16.432
 4741SOL    HW126102   0.047   2.623  16.436
 4741SOL    HW226103   0.008   2.747  16.359
 4742SOL     OW26104   2.397   3.370   3.811
 4742SOL    HW126105   2.383   3.417   3.893
 4742SOL    HW226106   2.313   3.328   3.792
 4743SOL     OW26107   1.924   3.365   5.482
 4743SOL    HW126108   1.972   3.287   5.508
 4743SOL    HW226109   1.844   3.363   5.536
 4744SOL     OW26110   2.339   3.764  20.979
 4744SOL    HW126111   2.404   3.775  20.909
 4744SOL    HW226112   2.255   3.758  20.933
 4745SOL     OW26113   0.513   1.856  17.018
 4745SOL    HW126114   0.476   1.810  17.094
 4745SOL    HW226115   0.450   1.926  17.000
 4746SOL     OW26116   0.386   0.631  17.844
 4746SOL    HW126117   0.304   0.624  17.795
 4746SOL    HW226118   0.449   0.664  17.779
 4747SOL     OW26119   1.372   4.458  20.293
 4747SOL    HW126120   1.377   4.488  20.202
 4747SOL    HW226121   1.432   4.516  20.340
 4748SOL     OW26122   4.118   4.101   2.827
 4748SOL    HW126123   4.093   4.009   2.832
 4748SOL    HW226124   4.047   4.142   2.779
 4749SOL     OW26125   0.913   4.517  15.451
 4749SOL    HW126126   0.967   4.512  15.372
 4749SOL    HW226127   0.929   4.606  15.484
 4750SOL     OW26128   3.055   0.662   2.664
 4750SOL    HW126129   3.111   0.614   2.725
 4750SOL    HW226130   3.005   0.722   2.720
 4751SOL     OW26131   4.083   3.464  20.293
 4751SOL    HW126132   4.150   3.441  20.357
 4751SOL    HW226133   4.002   3.426  20.327
 4752SOL     OW26134   1.591   2.843   5.066
 4752SOL    HW126135   1.614   2.902   5.137
 4752SOL    HW226136   1.563   2.901   4.995
 4753SOL     OW26137   1.584   0.669  15.266
 4753SOL    HW126138   1.571   0.688  15.359
 4753SOL    HW226139   1.496   0.669  15.229
 4754SOL     OW26140   3.546   0.345   2.716
 4754SOL    HW126141   3.510   0.427   2.682
 4754SOL    HW226142   3.470   0.287   2.724
 4755SOL     OW26143   2.786   0.143   0.122
 4755SOL    HW126144   2.716   0.160   0.186
 4755SOL    HW226145   2.793   0.047   0.121
 4756SOL     OW26146   4.390   0.335  16.366
 4756SOL    HW126147   4.429   0.278  16.432
 4756SOL    HW226148   4.408   0.290  16.283
 4757SOL     OW26149   4.424   1.622   3.234
 4757SOL    HW126150   4.329   1.629   3.237
 4757SOL    HW226151   4.441   1.528   3.244
 4758SOL     OW26152   3.993   2.088   3.600
 4758SOL    HW126153   4.063   2.154   3.606
 4758SOL    HW226154   3.979   2.076   3.507
 4759SOL     OW26155   2.102   0.970  16.713
 4759SOL    HW126156   2.042   1.018  16.656
 4759SOL    HW226157   2.183   1.022  16.711
 4760SOL     OW26158   3.142   0.188   8.822
 4760SOL    HW126159   3.227   0.160   8.788
 4760SOL    HW226160   3.081   0.119   8.794
 4761SOL     OW26161   0.830   1.419   8.638
 4761SOL    HW126162   0.875   1.432   8.721
 4761SOL    HW226163   0.764   1.353   8.656
 4762SOL     OW26164   4.217   3.389  11.221
 4762SOL    HW126165   4.176   3.316  11.174
 4762SOL    HW226166   4.144   3.429  11.269
 4763SOL     OW26167   3.784   0.459   9.923
 4763SOL    HW126168   3.696   0.428   9.945
 4763SOL    HW226169   3.822   0.486  10.006
 4764SOL     OW26170   4.024   0.661  11.777
 4764SOL    HW126171   3.950   0.719  11.760
 4764SOL    HW226172   4.005   0.624  11.864
 4765SOL     OW26173   4.382   0.322   8.220
 4765SOL    HW126174   4.458   0.362   8.263
 4765SOL    HW226175   4.335   0.396   8.180
 4766SOL     OW26176   4.505   0.201   8.753
 4766SOL    HW126177   4.505   0.183   8.659
 4766SOL    HW226178   4.557   0.130   8.791
 4767SOL     OW26179   3.612   2.411  10.364
 4767SOL    HW126180   3.687   2.365  10.403
 4767SOL    HW226181   3.607   2.494  10.412
 4768SOL     OW26182   4.281   0.728   9.362
 4768SOL    HW126183   4.222   0.776   9.304
 4768SOL    HW226184   4.265   0.766   9.449
 4769SOL     OW26185   4.331   0.248   9.754
 4769SOL    HW126186   4.402   0.262   9.817
 4769SOL    HW226187   4.295   0.163   9.778
 4770SOL     OW26188   3.207   1.497  11.455
 4770SOL    HW126189   3.238   1.441  11.527
 4770SOL    HW226190   3.224   1.446  11.376
 4771SOL     OW26191   3.979   1.570  10.693
 4771SOL    HW126192   4.044   1.541  10.629
 4771SOL    HW226193   4.001   1.661  10.710
 4772SOL     OW26194   0.087   0.705   8.418
 4772SOL    HW126195   0.164   0.649   8.426
 4772SOL    HW226196   0.019   0.659   8.467
 4773SOL     OW26197   3.647   0.916   9.409
 4773SOL    HW126198   3.667   0.929   9.316
 4773SOL    HW226199   3.684   0.831   9.430
 4774SOL     OW26200   3.303   4.402   8.936
 4774SOL    HW126201   3.221   4.368   8.902
 4774SOL    HW226202   3.278   4.448   9.016
 4775SOL     OW26203   3.637   2.317  10.117
 4775SOL    HW126204   3.603   2.340  10.204
 4775SOL    HW226205   3.675   2.398  10.085
 4776SOL     OW26206   0.756   4.192  12.872
 4776SOL    HW126207   0.773   4.286  12.884
 4776SOL    HW226208   0.817   4.149  12.931
 4777SOL     OW26209   3.046   0.878  12.277
 4777SOL    HW126210   3.022   0.799  12.229
 4777SOL    HW226211   2.966   0.903  12.323
 4778SOL     OW26212   0.099   0.545  11.147
 4778SOL    HW126213   0.101   0.592  11.230
 4778SOL    HW226214   0.099   0.452  11.171
 4779SOL     OW26215   2.810   1.890  12.300
 4779SOL    HW126216   2.742   1.957  12.311
 4779SOL    HW226217   2.889   1.940  12.277
 4780SOL     OW26218   4.036   1.703  12.614
 4780SOL    HW126219   3.991   1.673  12.693
 4780SOL    HW226220   4.016   1.636  12.548
 4781SOL     OW26221   3.766   2.558   9.933
 4781SOL    HW126222   3.681   2.540   9.893
 4781SOL    HW226223   3.810   2.617   9.871
 4782SOL     OW26224   3.251   0.891  13.834
 4782SOL    HW126225   3.194   0.967  13.823
 4782SOL    HW226226   3.248   0.873  13.928
 4783SOL     OW26227   3.401   2.135  11.123
 4783SOL    HW126228   3.450   2.158  11.044
 4783SOL    HW226229   3.376   2.044  11.111
 4784SOL     OW26230   0.830   1.234  10.967
 4784SOL    HW126231   0.822   1.253  10.873
 4784SOL    HW226232   0.890   1.300  11.000
 4785SOL     OW26233   3.646   0.572  11.924
 4785SOL    HW126234   3.659   0.611  11.837
 4785SOL    HW226235   3.728   0.589  11.970
 4786SOL     OW26236   3.659   1.107  12.281
 4786SOL    HW126237   3.590   1.172  12.268
 4786SOL    HW226238   3.702   1.101  12.196
 4787SOL     OW26239   4.009   1.008  11.619
 4787SOL    HW126240   4.089   0.956  11.612
 4787SOL    HW226241   4.022   1.079  11.556
 4788SOL     OW26242   3.783   2.685  12.379
 4788SOL    HW126243   3.772   2.765  12.326
 4788SOL    HW226244   3.792   2.717  12.469
 4789SOL     OW26245   0.009   0.232  11.547
 4789SOL    HW126246   0.065   0.210  11.621
 4789SOL    HW226247   4.716   0.247  11.584
 4790SOL     OW26248   3.284   0.679  12.674
 4790SOL    HW126249   3.318   0.768  12.677
 4790SOL    HW226250   3.209   0.679  12.732
 4791SOL     OW26251   3.103   0.468  10.447
 4791SOL    HW126252   3.036   0.404  10.473
 4791SOL    HW226253   3.129   0.441  10.359
 4792SOL     OW26254   2.708   2.761  11.290
 4792SOL    HW126255   2.727   2.668  11.276
 4792SOL    HW226256   2.737   2.779  11.379
 4793SOL     OW26257   3.403   2.216  11.367
 4793SOL    HW126258   3.492   2.217  11.402
 4793SOL    HW226259   3.413   2.184  11.278
 4794SOL     OW26260   3.615   0.107  11.033
 4794SOL    HW126261   3.683   0.066  11.087
 4794SOL    HW226262   3.585   0.037  10.975
 4795SOL     OW26263   2.521   2.577  12.893
 4795SOL    HW126264   2.525   2.483  12.878
 4795SOL    HW226265   2.433   2.602  12.864
 4796SOL     OW26266   2.461   3.126  15.183
 4796SOL    HW126267   2.528   3.145  15.248
 4796SOL    HW226268   2.425   3.041  15.209
 4797SOL     OW26269   1.575   3.006  16.463
 4797SOL    HW126270   1.529   2.922  16.467
 4797SOL    HW226271   1.517   3.062  16.410
 4798SOL     OW26272   3.474   2.140  19.867
 4798SOL    HW126273   3.538   2.167  19.801
 4798SOL    HW226274   3.515   2.065  19.910
 4799SOL     OW26275   3.103   0.360  13.794
 4799SOL    HW126276   3.072   0.447  13.769
 4799SOL    HW226277   3.057   0.341  13.875
 4800SOL     OW26278   4.568   0.233  17.805
 4800SOL    HW126279   4.504   0.237  17.877
 4800SOL    HW226280   4.611   0.149  17.816
 4801SOL     OW26281   1.655   0.649  16.385
 4801SOL    HW126282   1.656   0.615  16.296
 4801SOL    HW226283   1.669   0.572  16.441
 4802SOL     OW26284   1.336   1.487  14.299
 4802SOL    HW126285   1.242   1.480  14.315
 4802SOL    HW226286   1.371   1.402  14.327
 4803SOL     OW26287   1.218   3.438   1.276
 4803SOL    HW126288   1.257   3.350   1.271
 4803SOL    HW226289   1.274   3.486   1.337
 4804SOL     OW26290   3.294   2.619  18.558
 4804SOL    HW126291   3.333   2.540  18.595
 4804SOL    HW226292   3.293   2.682  18.631
 4805SOL     OW26293   4.368   3.485  19.561
 4805SOL    HW126294   4.343   3.418  19.624
 4805SOL    HW226295   4.305   3.555  19.574
 4806SOL     OW26296   2.205   4.542   4.847
 4806SOL    HW126297   2.203   4.447   4.860
 4806SOL    HW226298   2.244   4.554   4.761
 4807SOL     OW26299   1.291   4.583  18.280
 4807SOL    HW126300   1.372   4.579  18.332
 4807SOL    HW226301   1.270   4.491  18.262
 4808SOL     OW26302   1.058   1.977  12.220
 4808SOL    HW126303   0.964   1.979  12.242
 4808SOL    HW226304   1.074   1.886  12.193
 4809SOL     OW26305   0.953   0.067   5.774
 4809SOL    HW126306   1.029   0.008   5.772
 4809SOL    HW226307   0.895   0.030   5.839
 4810SOL     OW26308   4.715   4.142   2.481
 4810SOL    HW126309   4.715   4.073   2.547
 4810SOL    HW226310   4.787   4.117   2.421
 4811SOL     OW26311   0.084   3.287   0.920
 4811SOL    HW126312   0.115   3.377   0.921
 4811SOL    HW226313   0.015   3.285   0.987
 4812SOL     OW26314   4.481   1.586   0.655
 4812SOL    HW126315   4.553   1.613   0.712
 4812SOL    HW226316   4.403   1.593   0.709
 4813SOL     OW26317   4.600   0.503  19.716
 4813SOL    HW126318   4.666   0.484  19.649
 4813SOL    HW226319   4.583   0.419  19.758
 4814SOL     OW26320   2.708   4.735   3.342
 4814SOL    HW126321   2.640   4.793   3.375
 4814SOL    HW226322   2.669   4.647   3.348
 4815SOL     OW26323   0.249   3.724   2.151
 4815SOL    HW126324   0.261   3.630   2.138
 4815SOL    HW226325   0.299   3.743   2.231
 4816SOL     OW26326   4.545   1.831  15.363
 4816SOL    HW126327   4.625   1.826  15.415
 4816SOL    HW226328   4.555   1.911  15.312
 4817SOL     OW26329   2.544   2.699   4.957
 4817SOL    HW126330   2.456   2.673   4.929
 4817SOL    HW226331   2.602   2.662   4.891
 4818SOL     OW26332   3.369   2.008  15.378
 4818SOL    HW126333   3.390   2.099  15.399
 4818SOL    HW226334   3.279   2.012  15.345
 4819SOL     OW26335   2.426   2.432  16.085
 4819SOL    HW126336   2.351   2.421  16.026
 4819SOL    HW226337   2.448   2.343  16.111
 4820SOL     OW26338   3.875   2.807   7.921
 4820SOL    HW126339   3.790   2.765   7.911
 4820SOL    HW226340   3.900   2.833   7.832
 4821SOL     OW26341   2.434   3.831   1.582
 4821SOL    HW126342   2.387   3.909   1.612
 4821SOL    HW226343   2.476   3.797   1.661
 4822SOL     OW26344   0.946   3.390   0.546
 4822SOL    HW126345   0.903   3.357   0.467
 4822SOL    HW226346   0.937   3.486   0.540
 4823SOL     OW26347   1.746   1.855  20.227
 4823SOL    HW126348   1.794   1.846  20.145
 4823SOL    HW226349   1.712   1.768  20.246
 4824SOL     OW26350   1.258   0.960   6.297
 4824SOL    HW126351   1.291   0.887   6.245
 4824SOL    HW226352   1.264   0.930   6.388
 4825SOL     OW26353   4.430   0.083  11.572
 4825SOL    HW126354   4.449   0.139  11.497
 4825SOL    HW226355   4.335   0.086  11.582
 4826SOL     OW26356   3.990   2.846  20.454
 4826SOL    HW126357   4.071   2.802  20.481
 4826SOL    HW226358   3.926   2.776  20.447
 4827SOL     OW26359   1.304   1.624  18.825
 4827SOL    HW126360   1.365   1.561  18.786
 4827SOL    HW226361   1.221   1.577  18.831
 4828SOL     OW26362   1.419   3.170   4.242
 4828SOL    HW126363   1.452   3.241   4.187
 4828SOL    HW226364   1.375   3.213   4.314
 4829SOL     OW26365   2.784   2.213  20.866
 4829SOL    HW126366   2.758   2.243  20.778
 4829SOL    HW226367   2.727   2.263  20.925
 4830SOL     OW26368   3.440   2.440   0.863
 4830SOL    HW126369   3.409   2.421   0.951
 4830SOL    HW226370   3.535   2.429   0.867
 4831SOL     OW26371   2.911   2.720  13.194
 4831SOL    HW126372   2.883   2.657  13.128
 4831SOL    HW226373   2.829   2.762  13.223
 4832SOL     OW26374   0.586   1.831  19.828
 4832SOL    HW126375   0.600   1.801  19.738
 4832SOL    HW226376   0.642   1.775  19.881
 4833SOL     OW26377   2.466   0.097  16.884
 4833SOL    HW126378   2.440   0.165  16.822
 4833SOL    HW226379   2.384   0.059  16.914
 4834SOL     OW26380   2.640   4.235  16.592
 4834SOL    HW126381   2.695   4.310  16.612
 4834SOL    HW226382   2.686   4.189  16.522
 4835SOL     OW26383   2.243   2.466   5.798
 4835SOL    HW126384   2.213   2.390   5.849
 4835SOL    HW226385   2.281   2.427   5.719
 4836SOL     OW26386   0.598   4.727  20.026
 4836SOL    HW126387   0.533   4.786  20.064
 4836SOL    HW226388   0.602   4.654  20.087
 4837SOL     OW26389   2.397   0.233  18.899
 4837SOL    HW126390   2.369   0.148  18.866
 4837SOL    HW226391   2.492   0.231  18.895
 4838SOL     OW26392   3.920   0.863   3.568
 4838SOL    HW126393   3.990   0.928   3.558
 4838SOL    HW226394   3.945   0.813   3.645
 4839SOL     OW26395   2.698   0.588   2.758
 4839SOL    HW126396   2.664   0.511   2.713
 4839SOL    HW226397   2.726   0.556   2.843
 4840SOL     OW26398   1.011   2.674   1.669
 4840SOL    HW126399   1.107   2.679   1.665
 4840SOL    HW226400   0.984   2.765   1.679
 4841SOL     OW26401   1.827   0.161   0.485
 4841SOL    HW126402   1.793   0.143   0.572
 4841SOL    HW226403   1.894   0.095   0.470
 4842SOL     OW26404   1.109   1.922  17.217
 4842SOL    HW126405   1.135   1.987  17.281
 4842SOL    HW226406   1.140   1.957  17.133
 4843SOL     OW26407   4.293   4.096   4.303
 4843SOL    HW126408   4.220   4.144   4.342
 4843SOL    HW226409   4.349   4.072   4.377
 4844SOL     OW26410   2.657   3.250  20.764
 4844SOL    HW126411   2.726   3.226  20.827
 4844SOL    HW226412   2.697   3.318  20.711
 4845SOL     OW26413   4.689   4.725  19.875
 4845SOL    HW126414   4.617   4.697  19.819
 4845SOL    HW226415   4.768   4.705  19.826
 4846SOL     OW26416   4.740   0.296   4.494
 4846SOL    HW126417   4.645   0.294   4.479
 4846SOL    HW226418   4.774   0.228   4.436
 4847SOL     OW26419   1.986   0.998  21.036
 4847SOL    HW126420   2.074   0.967  21.012
 4847SOL    HW226421   1.944   0.920  21.074
 4848SOL     OW26422   0.833   1.059   5.794
 4848SOL    HW126423   0.921   1.083   5.767
 4848SOL    HW226424   0.797   1.138   5.834
 4849SOL     OW26425   2.597   4.680   7.536
 4849SOL    HW126426   2.666   4.735   7.500
 4849SOL    HW226427   2.584   4.713   7.625
 4850SOL     OW26428   2.460   3.741   8.034
 4850SOL    HW126429   2.420   3.809   7.979
 4850SOL    HW226430   2.471   3.667   7.975
 4851SOL     OW26431   2.323   3.429   1.612
 4851SOL    HW126432   2.371   3.353   1.643
 4851SOL    HW226433   2.390   3.486   1.573
 4852SOL     OW26434   1.076   0.293  16.418
 4852SOL    HW126435   1.006   0.236  16.449
 4852SOL    HW226436   1.032   0.353  16.357
 4853SOL     OW26437   2.930   2.753  15.822
 4853SOL    HW126438   3.023   2.744  15.843
 4853SOL    HW226439   2.926   2.827  15.761
 4854SOL     OW26440   2.270   1.787  18.686
 4854SOL    HW126441   2.293   1.880  18.686
 4854SOL    HW226442   2.353   1.742  18.675
 4855SOL     OW26443   4.654   1.880  20.464
 4855SOL    HW126444   4.612   1.910  20.545
 4855SOL    HW226445   4.642   1.953  20.403
 4856SOL     OW26446   3.878   0.054  19.671
 4856SOL    HW126447   3.816   0.124  19.653
 4856SOL    HW226448   3.875   0.043  19.766
 4857SOL     OW26449   2.205   3.069  21.094
 4857SOL    HW126450   2.255   3.133  21.043
 4857SOL    HW226451   2.240   2.984  21.067
 4858SOL     OW26452   0.411   4.314   5.569
 4858SOL    HW126453   0.484   4.253   5.575
 4858SOL    HW226454   0.428   4.378   5.637
 4859SOL     OW26455   3.310   0.096   3.186
 4859SOL    HW126456   3.303   0.052   3.102
 4859SOL    HW226457   3.234   0.065   3.236
 4860SOL     OW26458   4.061   3.530  16.321
 4860SOL    HW126459   4.050   3.525  16.226
 4860SOL    HW226460   4.098   3.617  16.336
 4861SOL     OW26461   2.531   3.781   0.663
 4861SOL    HW126462   2.580   3.834   0.726
 4861SOL    HW226463   2.455   3.835   0.641
 4862SOL     OW26464   3.805   4.014   5.995
 4862SOL    HW126465   3.859   4.000   6.073
 4862SOL    HW226466   3.793   3.926   5.958
 4863SOL     OW26467   1.501   1.082   3.096
 4863SOL    HW126468   1.490   1.166   3.052
 4863SOL    HW226469   1.416   1.040   3.089
 4864SOL     OW26470   4.271   1.679   2.439
 4864SOL    HW126471   4.299   1.762   2.476
 4864SOL    HW226472   4.182   1.694   2.408
 4865SOL     OW26473   1.744   0.349   2.030
 4865SOL    HW126474   1.821   0.297   2.055
 4865SOL    HW226475   1.719   0.316   1.944
 4866SOL     OW26476   4.529   4.430   4.828
 4866SOL    HW126477   4.501   4.511   4.785
 4866SOL    HW226478   4.485   4.360   4.780
 4867SOL     OW26479   3.758   1.106  19.562
 4867SOL    HW126480   3.734   1.014  19.568
 4867SOL    HW226481   3.746   1.129  19.470
 4868SOL     OW26482   2.551   3.617   3.780
 4868SOL    HW126483   2.634   3.586   3.745
 4868SOL    HW226484   2.487   3.553   3.750
 4869SOL     OW26485   4.339   3.822  21.092
 4869SOL    HW126486   4.322   3.910  21.127
 4869SOL    HW226487   4.276   3.812  21.021
 4870SOL     OW26488   1.336   1.130   5.982
 4870SOL    HW126489   1.323   1.179   6.063
 4870SOL    HW226490   1.387   1.053   6.009
 4871SOL     OW26491   0.948   1.361   2.669
 4871SOL    HW126492   0.995   1.278   2.679
 4871SOL    HW226493   0.994   1.422   2.727
 4872SOL     OW26494   4.492   0.938  20.606
 4872SOL    HW126495   4.530   0.964  20.690
 4872SOL    HW226496   4.454   1.019  20.571
 4873SOL     OW26497   4.382   1.509   2.946
 4873SOL    HW126498   4.319   1.437   2.948
 4873SOL    HW226499   4.382   1.544   3.034
 4874SOL     OW26500   4.044   0.614  14.092
 4874SOL    HW126501   3.987   0.606  14.169
 4874SOL    HW226502   4.133   0.615  14.127
 4875SOL     OW26503   0.717   1.271  16.479
 4875SOL    HW126504   0.640   1.269  16.536
 4875SOL    HW226505   0.733   1.363  16.462
 4876SOL     OW26506   2.828   0.279  15.499
 4876SOL    HW126507   2.748   0.300  15.548
 4876SOL    HW226508   2.886   0.352  15.515
 4877SOL     OW26509   0.542   2.668   6.945
 4877SOL    HW126510   0.484   2.701   7.014
 4877SOL    HW226511   0.507   2.582   6.923
 4878SOL     OW26512   2.004   3.727   8.903
 4878SOL    HW126513   2.095   3.752   8.920
 4878SOL    HW226514   1.995   3.640   8.941
 4879SOL     OW26515   3.734   4.413  13.496
 4879SOL    HW126516   3.755   4.323  13.473
 4879SOL    HW226517   3.649   4.429  13.456
 4880SOL     OW26518   1.432   4.166  15.927
 4880SOL    HW126519   1.516   4.146  15.968
 4880SOL    HW226520   1.377   4.195  15.999
 4881SOL     OW26521   4.724   3.202  21.151
 4881SOL    HW126522   4.653   3.187  21.213
 4881SOL    HW226523   4.783   3.263  21.196
 4882SOL     OW26524   1.183   3.099   0.932
 4882SOL    HW126525   1.174   3.189   0.964
 4882SOL    HW226526   1.104   3.083   0.881
 4883SOL     OW26527   4.329   3.344   0.457
 4883SOL    HW126528   4.328   3.275   0.523
 4883SOL    HW226529   4.419   3.343   0.423
 4884SOL     OW26530   4.326   1.354   5.224
 4884SOL    HW126531   4.253   1.348   5.162
 4884SOL    HW226532   4.399   1.312   5.179
 4885SOL     OW26533   2.825   2.720   4.879
 4885SOL    HW126534   2.796   2.711   4.789
 4885SOL    HW226535   2.885   2.795   4.878
 4886SOL     OW26536   2.772   4.223  17.354
 4886SOL    HW126537   2.766   4.249  17.262
 4886SOL    HW226538   2.711   4.149  17.361
 4887SOL     OW26539   2.695   2.480   6.695
 4887SOL    HW126540   2.755   2.443   6.630
 4887SOL    HW226541   2.632   2.409   6.711
 4888SOL     OW26542   2.554   4.254   4.861
 4888SOL    HW126543   2.554   4.159   4.869
 4888SOL    HW226544   2.498   4.273   4.786
 4889SOL     OW26545   4.706   2.225  18.799
 4889SOL    HW126546   4.782   2.232  18.741
 4889SOL    HW226547   4.672   2.137  18.784
 4890SOL     OW26548   3.197   0.226  21.006
 4890SOL    HW126549   3.218   0.136  21.030
 4890SOL    HW226550   3.126   0.251  21.066
 4891SOL     OW26551   3.390   1.063   5.300
 4891SOL    HW126552   3.477   1.064   5.261
 4891SOL    HW226553   3.362   0.971   5.295
 4892SOL     OW26554   2.328   0.376  18.478
 4892SOL    HW126555   2.287   0.463  18.476
 4892SOL    HW226556   2.301   0.335  18.396
 4893SOL     OW26557   2.719   4.280   1.102
 4893SOL    HW126558   2.646   4.241   1.150
 4893SOL    HW226559   2.716   4.239   1.015
 4894SOL     OW26560   1.427   4.001  18.033
 4894SOL    HW126561   1.455   3.962  17.950
 4894SOL    HW226562   1.497   4.062  18.056
 4895SOL     OW26563   1.253   1.848  20.939
 4895SOL    HW126564   1.311   1.841  21.014
 4895SOL    HW226565   1.225   1.758  20.921
 4896SOL     OW26566   0.076   1.782  16.158
 4896SOL    HW126567   0.144   1.849  16.162
 4896SOL    HW226568   4.790   1.830  16.141
 4897SOL     OW26569   1.986   2.420   0.541
 4897SOL    HW126570   1.903   2.396   0.500
 4897SOL    HW226571   1.990   2.368   0.621
 4898SOL     OW26572   0.922   0.597  17.847
 4898SOL    HW126573   0.833   0.569  17.827
 4898SOL    HW226574   0.951   0.538  17.916
 4899SOL     OW26575   2.307   3.766  17.983
 4899SOL    HW126576   2.251   3.777  17.906
 4899SOL    HW226577   2.361   3.845  17.985
 4900SOL     OW26578   4.511   2.744  19.224
 4900SOL    HW126579   4.552   2.830  19.234
 4900SOL    HW226580   4.577   2.690  19.180
 4901SOL     OW26581   1.357   4.367  18.024
 4901SOL    HW126582   1.436   4.389  18.074
 4901SOL    HW226583   1.289   4.356  18.091
 4902SOL     OW26584   2.273   3.918   4.987
 4902SOL    HW126585   2.221   3.849   4.947
 4902SOL    HW226586   2.235   3.930   5.074
 4903SOL     OW26587   4.257   1.036  18.070
 4903SOL    HW126588   4.261   1.116  18.017
 4903SOL    HW226589   4.195   0.980  18.024
 4904SOL     OW26590   0.491   1.855   1.990
 4904SOL    HW126591   0.402   1.890   1.986
 4904SOL    HW226592   0.483   1.765   1.958
 4905SOL     OW26593   3.682   1.786  19.771
 4905SOL    HW126594   3.658   1.841  19.696
 4905SOL    HW226595   3.641   1.701  19.753
 4906SOL     OW26596   2.790   2.511   6.195
 4906SOL    HW126597   2.717   2.449   6.190
 4906SOL    HW226598   2.857   2.464   6.245
 4907SOL     OW26599   1.869   2.072  19.670
 4907SOL    HW126600   1.947   2.018  19.660
 4907SOL    HW226601   1.895   2.158  19.636
 4908SOL     OW26602   2.119   0.270  19.703
 4908SOL    HW126603   2.090   0.196  19.650
 4908SOL    HW226604   2.057   0.340  19.683
 4909SOL     OW26605   3.665   0.988   3.634
 4909SOL    HW126606   3.726   0.924   3.598
 4909SOL    HW226607   3.663   1.058   3.568
 4910SOL     OW26608   0.774   4.447  13.155
 4910SOL    HW126609   0.859   4.421  13.191
 4910SOL    HW226610   0.794   4.477  13.066
 4911SOL     OW26611   2.656   0.265  18.851
 4911SOL    HW126612   2.650   0.290  18.759
 4911SOL    HW226613   2.700   0.338  18.893
 4912SOL     OW26614   2.354   0.834   1.044
 4912SOL    HW126615   2.311   0.903   1.096
 4912SOL    HW226616   2.428   0.878   1.002
 4913SOL     OW26617   0.630   0.385  19.213
 4913SOL    HW126618   0.603   0.297  19.242
 4913SOL    HW226619   0.655   0.430  19.294
 4914SOL     OW26620   4.057   2.810   0.423
 4914SOL    HW126621   4.092   2.724   0.448
 4914SOL    HW226622   3.977   2.790   0.373
 4915SOL     OW26623   3.857   3.215   4.462
 4915SOL    HW126624   3.951   3.230   4.462
 4915SOL    HW226625   3.822   3.285   4.518
 4916SOL     OW26626   3.691   1.894   5.546
 4916SOL    HW126627   3.708   1.844   5.625
 4916SOL    HW226628   3.778   1.910   5.509
 4917SOL     OW26629   1.535   1.610  17.363
 4917SOL    HW126630   1.630   1.620  17.370
 4917SOL    HW226631   1.522   1.559  17.283
 4918SOL     OW26632   1.546   2.802  17.859
 4918SOL    HW126633   1.468   2.824  17.910
 4918SOL    HW226634   1.548   2.706  17.857
 4919SOL     OW26635   1.088   0.764  14.030
 4919SOL    HW126636   1.131   0.759  14.116
 4919SOL    HW226637   1.001   0.800  14.049
 4920SOL     OW26638   1.680   0.200   3.623
 4920SOL    HW126639   1.654   0.270   3.682
 4920SOL    HW226640   1.644   0.121   3.663
 4921SOL     OW26641   4.324   0.627   6.277
 4921SOL    HW126642   4.287   0.543   6.302
 4921SOL    HW226643   4.272   0.655   6.201
 4922SOL     OW26644   3.596   1.166  18.524
 4922SOL    HW126645   3.580   1.207  18.439
 4922SOL    HW226646   3.513   1.176  18.571
 4923SOL     OW26647   2.543   0.202  16.104
 4923SOL    HW126648   2.517   0.283  16.060
 4923SOL    HW226649   2.574   0.145  16.034
 4924SOL     OW26650   1.158   2.593  19.309
 4924SOL    HW126651   1.213   2.655  19.357
 4924SOL    HW226652   1.098   2.558  19.375
 4925SOL     OW26653   1.600   2.050  16.839
 4925SOL    HW126654   1.577   1.990  16.768
 4925SOL    HW226655   1.686   2.020  16.868
 4926SOL     OW26656   0.235   0.522  20.162
 4926SOL    HW126657   0.304   0.525  20.096
 4926SOL    HW226658   0.218   0.429  20.175
 4927SOL     OW26659   1.362   1.355  18.988
 4927SOL    HW126660   1.279   1.392  18.959
 4927SOL    HW226661   1.419   1.360  18.911
 4928SOL     OW26662   0.507   0.368  18.394
 4928SOL    HW126663   0.510   0.382  18.488
 4928SOL    HW226664   0.562   0.291  18.379
 4929SOL     OW26665   0.098   0.217  18.032
 4929SOL    HW126666   0.147   0.296  18.010
 4929SOL    HW226667   0.166   0.149  18.039
 4930SOL     OW26668   2.532   3.652   4.741
 4930SOL    HW126669   2.458   3.696   4.698
 4930SOL    HW226670   2.599   3.720   4.748
 4931SOL     OW26671   2.714   4.168   0.604
 4931SOL    HW126672   2.661   4.229   0.552
 4931SOL    HW226673   2.803   4.183   0.575
 4932SOL     OW26674   4.130   1.517   2.110
 4932SOL    HW126675   4.204   1.548   2.057
 4932SOL    HW226676   4.087   1.597   2.140
 4933SOL     OW26677   0.160   1.834  14.458
 4933SOL    HW126678   0.235   1.778  14.478
 4933SOL    HW226679   0.107   1.783  14.397
 4934SOL     OW26680   0.386   4.371  21.201
 4934SOL    HW126681   0.399   4.446  21.145
 4934SOL    HW226682   0.291   4.361  21.207
 4935SOL     OW26683   3.107   3.937   2.031
 4935SOL    HW126684   3.063   4.019   2.010
 4935SOL    HW226685   3.070   3.873   1.969
 4936SOL     OW26686   3.164   1.724   1.869
 4936SOL    HW126687   3.169   1.762   1.781
 4936SOL    HW226688   3.096   1.657   1.861
 4937SOL     OW26689   0.423   1.925   3.872
 4937SOL    HW126690   0.487   1.861   3.842
 4937SOL    HW226691   0.464   2.010   3.855
 4938SOL     OW26692   4.657   2.716  19.903
 4938SOL    HW126693   4.573   2.691  19.864
 4938SOL    HW226694   4.658   2.671  19.988
 4939SOL     OW26695   4.386   1.260   6.582
 4939SOL    HW126696   4.479   1.236   6.581
 4939SOL    HW226697   4.341   1.180   6.607
 4940SOL     OW26698   4.511   0.201   4.898
 4940SOL    HW126699   4.541   0.290   4.911
 4940SOL    HW226700   4.460   0.180   4.976
 4941SOL     OW26701   0.101   1.397  19.624
 4941SOL    HW126702   0.042   1.444  19.684
 4941SOL    HW226703   0.135   1.324  19.677
 4942SOL     OW26704   4.010   4.736   7.662
 4942SOL    HW126705   3.960   4.663   7.698
 4942SOL    HW226706   4.090   4.695   7.627
 4943SOL     OW26707   0.028   1.242  16.239
 4943SOL    HW126708   0.068   1.288  16.313
 4943SOL    HW226709   0.081   1.266  16.164
 4944SOL     OW26710   1.333   1.189   4.202
 4944SOL    HW126711   1.348   1.216   4.111
 4944SOL    HW226712   1.241   1.161   4.203
 4945SOL     OW26713   3.493   2.219  20.814
 4945SOL    HW126714   3.433   2.156  20.854
 4945SOL    HW226715   3.449   2.247  20.734
 4946SOL     OW26716   2.794   3.281  20.240
 4946SOL    HW126717   2.814   3.194  20.208
 4946SOL    HW226718   2.725   3.314  20.181
 4947SOL     OW26719   0.431   0.595   3.661
 4947SOL    HW126720   0.487   0.519   3.675
 4947SOL    HW226721   0.357   0.583   3.720
 4948SOL     OW26722   3.773   3.689   4.997
 4948SOL    HW126723   3.863   3.718   5.011
 4948SOL    HW226724   3.725   3.769   4.977
 4949SOL     OW26725   2.921   3.457   0.609
 4949SOL    HW126726   2.997   3.399   0.602
 4949SOL    HW226727   2.931   3.501   0.693
 4950SOL     OW26728   1.332   0.305  15.258
 4950SOL    HW126729   1.258   0.297  15.318
 4950SOL    HW226730   1.312   0.382  15.205
 4951SOL     OW26731   1.709   1.047   7.796
 4951SOL    HW126732   1.701   1.126   7.849
 4951SOL    HW226733   1.723   1.080   7.707
 4952SOL     OW26734   0.946   1.683   3.415
 4952SOL    HW126735   1.026   1.671   3.364
 4952SOL    HW226736   0.942   1.777   3.433
 4953SOL     OW26737   4.433   4.005   3.876
 4953SOL    HW126738   4.475   4.090   3.869
 4953SOL    HW226739   4.499   3.948   3.916
 4954SOL     OW26740   2.892   2.793  16.107
 4954SOL    HW126741   2.896   2.813  16.014
 4954SOL    HW226742   2.885   2.879  16.150
 4955SOL     OW26743   4.617   3.419  19.462
 4955SOL    HW126744   4.529   3.450  19.481
 4955SOL    HW226745   4.675   3.477  19.512
 4956SOL     OW26746   3.557   4.112   3.995
 4956SOL    HW126747   3.515   4.170   4.059
 4956SOL    HW226748   3.535   4.150   3.910
 4957SOL     OW26749   2.197   1.364  18.091
 4957SOL    HW126750   2.152   1.409  18.162
 4957SOL    HW226751   2.275   1.326  18.132
 4958SOL     OW26752   3.577   4.240  19.559
 4958SOL    HW126753   3.583   4.166  19.619
 4958SOL    HW226754   3.667   4.274  19.553
 4959SOL     OW26755   3.335   0.392   0.787
 4959SOL    HW126756   3.301   0.340   0.860
 4959SOL    HW226757   3.263   0.450   0.764
 4960SOL     OW26758   3.490   0.027   0.742
 4960SOL    HW126759   3.529   0.063   0.663
 4960SOL    HW226760   3.417   4.767   0.711
 4961SOL     OW26761   4.208   2.065   6.720
 4961SOL    HW126762   4.292   2.025   6.739
 4961SOL    HW226763   4.154   1.994   6.686
 4962SOL     OW26764   4.759   0.303   8.497
 4962SOL    HW126765   4.780   0.267   8.411
 4962SOL    HW226766   4.685   0.250   8.527
 4963SOL     OW26767   3.926   0.739   3.337
 4963SOL    HW126768   3.947   0.766   3.426
 4963SOL    HW226769   3.998   0.770   3.283
 4964SOL     OW26770   1.227   2.679  19.072
 4964SOL    HW126771   1.320   2.669  19.088
 4964SOL    HW226772   1.185   2.637  19.147
 4965SOL     OW26773   1.874   4.288   2.732
 4965SOL    HW126774   1.819   4.230   2.680
 4965SOL    HW226775   1.938   4.322   2.669
 4966SOL     OW26776   1.764   2.065   3.436
 4966SOL    HW126777   1.723   2.151   3.447
 4966SOL    HW226778   1.755   2.046   3.342
 4967SOL     OW26779   3.151   1.192   6.832
 4967SOL    HW126780   3.095   1.115   6.823
 4967SOL    HW226781   3.182   1.209   6.743
 4968SOL     OW26782   2.701   3.416   4.676
 4968SOL    HW126783   2.648   3.482   4.720
 4968SOL    HW226784   2.766   3.466   4.626
 4969SOL     OW26785   1.171   1.950   4.173
 4969SOL    HW126786   1.143   1.872   4.125
 4969SOL    HW226787   1.254   1.925   4.213
 4970SOL     OW26788   3.642   1.521  15.029
 4970SOL    HW126789   3.711   1.567  14.981
 4970SOL    HW226790   3.686   1.446  15.068
 4971SOL     OW26791   2.995   1.981  16.622
 4971SOL    HW126792   2.962   2.028  16.699
 4971SOL    HW226793   3.086   1.960  16.644
 4972SOL     OW26794   3.500   2.603  14.288
 4972SOL    HW126795   3.493   2.686  14.240
 4972SOL    HW226796   3.428   2.550  14.255
 4973SOL     OW26797   0.376   0.348   0.463
 4973SOL    HW126798   0.311   0.332   0.395
 4973SOL    HW226799   0.443   0.401   0.420
 4974SOL     OW26800   3.521   3.955   1.530
 4974SOL    HW126801   3.533   4.042   1.490
 4974SOL    HW226802   3.518   3.973   1.624
 4975SOL     OW26803   2.040   4.335  13.630
 4975SOL    HW126804   2.012   4.252  13.592
 4975SOL    HW226805   1.974   4.354  13.697
 4976SOL     OW26806   1.552   1.268  14.132
 4976SOL    HW126807   1.566   1.213  14.055
 4976SOL    HW226808   1.573   1.212  14.206
 4977SOL     OW26809   0.110   2.618   1.946
 4977SOL    HW126810   0.087   2.659   2.029
 4977SOL    HW226811   0.134   2.528   1.970
 4978SOL     OW26812   3.377   1.760   0.902
 4978SOL    HW126813   3.395   1.673   0.938
 4978SOL    HW226814   3.288   1.753   0.866
 4979SOL     OW26815   1.409   2.917   4.376
 4979SOL    HW126816   1.477   2.859   4.341
 4979SOL    HW226817   1.419   2.998   4.327
 4980SOL     OW26818   2.686   2.001   6.898
 4980SOL    HW126819   2.600   1.972   6.867
 4980SOL    HW226820   2.671   2.032   6.987
 4981SOL     OW26821   0.336   1.877  16.085
 4981SOL    HW126822   0.326   1.972  16.077
 4981SOL    HW226823   0.310   1.843  16.000
 4982SOL     OW26824   3.778   1.695  16.590
 4982SOL    HW126825   3.841   1.642  16.541
 4982SOL    HW226826   3.733   1.747  16.523
 4983SOL     OW26827   1.512   4.358   2.105
 4983SOL    HW126828   1.433   4.377   2.157
 4983SOL    HW226829   1.480   4.307   2.031
 4984SOL     OW26830   2.229   0.133   2.087
 4984SOL    HW126831   2.182   0.208   2.123
 4984SOL    HW226832   2.218   0.064   2.153
 4985SOL     OW26833   0.234   0.200   1.433
 4985SOL    HW126834   0.238   0.214   1.338
 4985SOL    HW226835   0.150   0.157   1.447
 4986SOL     OW26836   4.522   0.073   5.873
 4986SOL    HW126837   4.502   0.059   5.965
 4986SOL    HW226838   4.551   0.164   5.868
 4987SOL     OW26839   2.976   0.514   4.207
 4987SOL    HW126840   2.937   0.578   4.148
 4987SOL    HW226841   3.003   0.564   4.284
 4988SOL     OW26842   0.671   0.255  15.281
 4988SOL    HW126843   0.735   0.191  15.251
 4988SOL    HW226844   0.713   0.340  15.266
 4989SOL     OW26845   1.494   0.191  21.067
 4989SOL    HW126846   1.419   0.203  21.126
 4989SOL    HW226847   1.565   0.241  21.108
 4990SOL     OW26848   4.230   4.650  14.309
 4990SOL    HW126849   4.319   4.682  14.293
 4990SOL    HW226850   4.227   4.566  14.262
 4991SOL     OW26851   3.211   3.959  17.145
 4991SOL    HW126852   3.177   3.971  17.057
 4991SOL    HW226853   3.138   3.980  17.203
 4992SOL     OW26854   1.138   2.381  16.014
 4992SOL    HW126855   1.171   2.325  16.084
 4992SOL    HW226856   1.185   2.464  16.025
 4993SOL     OW26857   3.091   3.480   6.195
 4993SOL    HW126858   2.999   3.456   6.211
 4993SOL    HW226859   3.137   3.453   6.274
 4994SOL     OW26860   1.497   3.350   1.024
 4994SOL    HW126861   1.544   3.328   0.943
 4994SOL    HW226862   1.465   3.439   1.009
 4995SOL     OW26863   2.299   0.276  16.659
 4995SOL    HW126864   2.335   0.345  16.603
 4995SOL    HW226865   2.319   0.195  16.612
 4996SOL     OW26866   2.798   1.543   7.782
 4996SOL    HW126867   2.888   1.569   7.762
 4996SOL    HW226868   2.786   1.568   7.873
 4997SOL     OW26869   4.586   4.222   5.096
 4997SOL    HW126870   4.624   4.285   5.156
 4997SOL    HW226871   4.588   4.139   5.144
 4998SOL     OW26872   3.332   0.664  16.593
 4998SOL    HW126873   3.343   0.572  16.566
 4998SOL    HW226874   3.257   0.662  16.652
 4999SOL     OW26875   3.648   2.009   7.341
 4999SOL    HW126876   3.626   1.969   7.256
 4999SOL    HW226877   3.743   2.002   7.347
 5000SOL     OW26878   2.357   2.757   2.979
 5000SOL    HW126879   2.292   2.792   3.040
 5000SOL    HW226880   2.347   2.662   2.986
 5001SOL     OW26881   2.367   0.832  20.362
 5001SOL    HW126882   2.342   0.915  20.321
 5001SOL    HW226883   2.295   0.772  20.340
 5002SOL     OW26884   1.548   1.929   2.746
 5002SOL    HW126885   1.503   1.844   2.746
 5002SOL    HW226886   1.631   1.912   2.791
 5003SOL     OW26887   0.028   0.846   4.478
 5003SOL    HW126888   0.102   0.826   4.536
 5003SOL    HW226889   4.751   0.871   4.537
 5004SOL     OW26890   1.702   1.335  15.273
 5004SOL    HW126891   1.713   1.240  15.275
 5004SOL    HW226892   1.608   1.348  15.281
 5005SOL     OW26893   0.722   4.324  18.902
 5005SOL    HW126894   0.811   4.325  18.937
 5005SOL    HW226895   0.711   4.410  18.862
 5006SOL     OW26896   0.788   3.875  19.920
 5006SOL    HW126897   0.861   3.856  19.979
 5006SOL    HW226898   0.711   3.840  19.966
 5007SOL     OW26899   4.395   3.443  16.790
 5007SOL    HW126900   4.339   3.496  16.734
 5007SOL    HW226901   4.465   3.412  16.732
 5008SOL     OW26902   2.250   3.322   5.310
 5008SOL    HW126903   2.308   3.266   5.361
 5008SOL    HW226904   2.162   3.285   5.324
 5009SOL     OW26905   3.463   1.422   2.480
 5009SOL    HW126906   3.462   1.502   2.532
 5009SOL    HW226907   3.470   1.451   2.390
 5010SOL     OW26908   2.190   2.538  14.728
 5010SOL    HW126909   2.206   2.609  14.665
 5010SOL    HW226910   2.276   2.521  14.767
 5011SOL     OW26911   2.482   3.904  17.350
 5011SOL    HW126912   2.484   3.999  17.358
 5011SOL    HW226913   2.528   3.885  17.268
 5012SOL     OW26914   0.387   4.751   1.510
 5012SOL    HW126915   0.477   4.749   1.478
 5012SOL    HW226916   0.355   0.044   1.486
 5013SOL     OW26917   2.236   2.529   4.215
 5013SOL    HW126918   2.288   2.511   4.137
 5013SOL    HW226919   2.186   2.608   4.194
 5014SOL     OW26920   4.568   0.258  19.799
 5014SOL    HW126921   4.663   0.256  19.806
 5014SOL    HW226922   4.545   0.173  19.761
 5015SOL     OW26923   3.277   1.211  20.812
 5015SOL    HW126924   3.324   1.281  20.857
 5015SOL    HW226925   3.188   1.244  20.803
 5016SOL     OW26926   0.282   2.223   5.906
 5016SOL    HW126927   0.224   2.147   5.903
 5016SOL    HW226928   0.225   2.295   5.932
 5017SOL     OW26929   0.053   3.057   0.782
 5017SOL    HW126930   0.035   3.147   0.807
 5017SOL    HW226931   0.092   3.017   0.860
 5018SOL     OW26932   1.244   1.709   6.098
 5018SOL    HW126933   1.164   1.679   6.057
 5018SOL    HW226934   1.223   1.797   6.129
 5019SOL     OW26935   2.673   2.836  15.633
 5019SOL    HW126936   2.603   2.816  15.695
 5019SOL    HW226937   2.731   2.896  15.680
 5020SOL     OW26938   3.256   4.048  15.484
 5020SOL    HW126939   3.313   4.109  15.437
 5020SOL    HW226940   3.291   3.961  15.463
 5021SOL     OW26941   4.253   3.753   1.549
 5021SOL    HW126942   4.162   3.731   1.526
 5021SOL    HW226943   4.257   3.739   1.644
 5022SOL     OW26944   0.988   3.064   2.348
 5022SOL    HW126945   1.073   3.032   2.380
 5022SOL    HW226946   0.969   3.139   2.404
 5023SOL     OW26947   0.516   0.868  16.927
 5023SOL    HW126948   0.493   0.923  17.002
 5023SOL    HW226949   0.466   0.905  16.854
 5024SOL     OW26950   1.778   0.881   2.542
 5024SOL    HW126951   1.823   0.887   2.458
 5024SOL    HW226952   1.685   0.893   2.520
 5025SOL     OW26953   4.466   3.334  18.471
 5025SOL    HW126954   4.461   3.243  18.501
 5025SOL    HW226955   4.419   3.384  18.539
 5026SOL     OW26956   1.114   1.277  20.792
 5026SOL    HW126957   1.110   1.310  20.882
 5026SOL    HW226958   1.025   1.286  20.759
 5027SOL     OW26959   1.324   2.873  18.155
 5027SOL    HW126960   1.298   2.836  18.071
 5027SOL    HW226961   1.348   2.964  18.135
 5028SOL     OW26962   0.073   0.293  20.220
 5028SOL    HW126963   0.019   0.308  20.298
 5028SOL    HW226964   0.018   0.244  20.160
 5029SOL     OW26965   2.205   0.901  14.172
 5029SOL    HW126966   2.153   0.866  14.245
 5029SOL    HW226967   2.256   0.827  14.141
 5030SOL     OW26968   3.468   4.178  19.288
 5030SOL    HW126969   3.372   4.175  19.289
 5030SOL    HW226970   3.492   4.219  19.371
 5031SOL     OW26971   2.776   3.599   4.341
 5031SOL    HW126972   2.827   3.562   4.269
 5031SOL    HW226973   2.710   3.653   4.298
 5032SOL     OW26974   2.124   2.595  17.794
 5032SOL    HW126975   2.050   2.597  17.855
 5032SOL    HW226976   2.201   2.602  17.851
 5033SOL     OW26977   2.638   0.589   0.851
 5033SOL    HW126978   2.713   0.644   0.871
 5033SOL    HW226979   2.661   0.503   0.884
 5034SOL     OW26980   0.020   1.192  20.351
 5034SOL    HW126981   0.054   1.221  20.436
 5034SOL    HW226982   4.761   1.115  20.372
 5035SOL     OW26983   2.501   0.498  19.777
 5035SOL    HW126984   2.574   0.557  19.792
 5035SOL    HW226985   2.431   0.554  19.743
 5036SOL     OW26986   0.472   4.576  14.410
 5036SOL    HW126987   0.411   4.527  14.353
 5036SOL    HW226988   0.485   4.519  14.486
 5037SOL     OW26989   4.289   3.509   6.557
 5037SOL    HW126990   4.231   3.447   6.512
 5037SOL    HW226991   4.329   3.458   6.628
 5038SOL     OW26992   2.589   4.656   6.652
 5038SOL    HW126993   2.614   4.746   6.671
 5038SOL    HW226994   2.495   4.660   6.637
 5039SOL     OW26995   3.266   2.327  14.783
 5039SOL    HW126996   3.318   2.328  14.702
 5039SOL    HW226997   3.189   2.275  14.761
 5040SOL     OW26998   3.312   3.936  19.971
 5040SOL    HW126999   3.307   3.842  19.953
 5040SOL    HW227000   3.391   3.947  20.024
 5041SOL     OW27001   3.279   0.547   0.216
 5041SOL    HW127002   3.256   0.597   0.138
 5041SOL    HW227003   3.265   0.456   0.191
 5042SOL     OW27004   0.156   0.403   6.165
 5042SOL    HW127005   0.109   0.475   6.122
 5042SOL    HW227006   0.183   0.439   6.249
 5043SOL     OW27007   4.073   0.200  18.175
 5043SOL    HW127008   3.999   0.169  18.122
 5043SOL    HW227009   4.036   0.209  18.263
 5044SOL     OW27010   0.923   1.856   3.833
 5044SOL    HW127011   0.993   1.808   3.788
 5044SOL    HW227012   0.967   1.929   3.875
 5045SOL     OW27013   2.450   1.166   1.967
 5045SOL    HW127014   2.432   1.079   1.930
 5045SOL    HW227015   2.527   1.152   2.022
 5046SOL     OW27016   1.730   3.861   4.958
 5046SOL    HW127017   1.668   3.816   5.015
 5046SOL    HW227018   1.792   3.904   5.017
 5047SOL     OW27019   4.653   3.318   7.670
 5047SOL    HW127020   4.648   3.223   7.664
 5047SOL    HW227021   4.659   3.336   7.764
 5048SOL     OW27022   3.504   3.700  19.684
 5048SOL    HW127023   3.429   3.664  19.731
 5048SOL    HW227024   3.560   3.625  19.667
 5049SOL     OW27025   0.699   2.545   5.273
 5049SOL    HW127026   0.730   2.456   5.255
 5049SOL    HW227027   0.779   2.596   5.284
 5050SOL     OW27028   0.860   0.100  15.895
 5050SOL    HW127029   0.894   0.019  15.857
 5050SOL    HW227030   0.873   0.090  15.989
 5051SOL     OW27031   3.373   0.854  14.452
 5051SOL    HW127032   3.420   0.936  14.465
 5051SOL    HW227033   3.282   0.875  14.473
 5052SOL     OW27034   2.022   0.104   8.882
 5052SOL    HW127035   1.934   0.070   8.892
 5052SOL    HW227036   2.059   0.102   8.970
 5053SOL     OW27037   3.185   3.903  12.184
 5053SOL    HW127038   3.264   3.872  12.227
 5053SOL    HW227039   3.216   3.941  12.102
 5054SOL     OW27040   1.281   1.625   1.434
 5054SOL    HW127041   1.336   1.657   1.505
 5054SOL    HW227042   1.319   1.663   1.355
 5055SOL     OW27043   2.775   1.729  13.694
 5055SOL    HW127044   2.829   1.759  13.621
 5055SOL    HW227045   2.754   1.638  13.672
 5056SOL     OW27046   1.945   2.326  16.706
 5056SOL    HW127047   2.036   2.349  16.722
 5056SOL    HW227048   1.897   2.407  16.723
 5057SOL     OW27049   3.324   1.341   4.704
 5057SOL    HW127050   3.397   1.308   4.757
 5057SOL    HW227051   3.365   1.393   4.636
 5058SOL     OW27052   1.289   4.405  19.714
 5058SOL    HW127053   1.342   4.327  19.704
 5058SOL    HW227054   1.299   4.452  19.631
 5059SOL     OW27055   3.169   1.099  19.795
 5059SOL    HW127056   3.224   1.174  19.774
 5059SOL    HW227057   3.149   1.059  19.710
 5060SOL     OW27058   4.161   3.040  14.807
 5060SOL    HW127059   4.173   3.130  14.838
 5060SOL    HW227060   4.134   3.048  14.716
 5061SOL     OW27061   2.520   3.985   4.924
 5061SOL    HW127062   2.427   3.963   4.934
 5061SOL    HW227063   2.566   3.909   4.959
 5062SOL     OW27064   3.251   1.838   5.275
 5062SOL    HW127065   3.300   1.788   5.210
 5062SOL    HW227066   3.317   1.862   5.341
 5063SOL     OW27067   2.164   3.172  15.732
 5063SOL    HW127068   2.216   3.196  15.655
 5063SOL    HW227069   2.111   3.098  15.702
 5064SOL     OW27070   4.541   0.596   1.095
 5064SOL    HW127071   4.602   0.576   1.023
 5064SOL    HW227072   4.595   0.642   1.160
 5065SOL     OW27073   2.658   2.702   4.667
 5065SOL    HW127074   2.626   2.626   4.716
 5065SOL    HW227075   2.628   2.687   4.577
 5066SOL     OW27076   0.755   1.681  12.935
 5066SOL    HW127077   0.845   1.712  12.922
 5066SOL    HW227078   0.762   1.586  12.933
 5067SOL     OW27079   3.681   3.091   3.227
 5067SOL    HW127080   3.627   3.021   3.264
 5067SOL    HW227081   3.701   3.062   3.138
 5068SOL     OW27082   4.781   4.531  13.991
 5068SOL    HW127083   0.055   4.480  14.033
 5068SOL    HW227084   0.022   4.620  13.988
 5069SOL     OW27085   0.336   1.267   6.349
 5069SOL    HW127086   0.240   1.261   6.351
 5069SOL    HW227087   0.360   1.244   6.260
 5070SOL     OW27088   0.164   3.223  19.676
 5070SOL    HW127089   0.193   3.296  19.731
 5070SOL    HW227090   0.245   3.183  19.643
 5071SOL     OW27091   1.722   0.120   6.053
 5071SOL    HW127092   1.726   0.203   6.006
 5071SOL    HW227093   1.811   0.085   6.049
 5072SOL     OW27094   0.055   3.972   6.030
 5072SOL    HW127095   0.133   3.991   6.084
 5072SOL    HW227096   0.054   4.042   5.965
 5073SOL     OW27097   4.359   1.290  20.585
 5073SOL    HW127098   4.337   1.372  20.541
 5073SOL    HW227099   4.288   1.277  20.648
 5074SOL     OW27100   2.664   3.308   4.227
 5074SOL    HW127101   2.574   3.290   4.254
 5074SOL    HW227102   2.660   3.396   4.189
 5075SOL     OW27103   1.630   2.807  19.852
 5075SOL    HW127104   1.664   2.748  19.785
 5075SOL    HW227105   1.547   2.768  19.879
 5076SOL     OW27106   0.540   4.427  14.108
 5076SOL    HW127107   0.551   4.332  14.115
 5076SOL    HW227108   0.491   4.440  14.027
 5077SOL     OW27109   3.304   3.003  14.765
 5077SOL    HW127110   3.324   2.956  14.684
 5077SOL    HW227111   3.289   3.093  14.738
 5078SOL     OW27112   1.166   1.806  16.802
 5078SOL    HW127113   1.184   1.718  16.834
 5078SOL    HW227114   1.121   1.793  16.719
 5079SOL     OW27115   2.521   1.545  19.169
 5079SOL    HW127116   2.479   1.576  19.088
 5079SOL    HW227117   2.555   1.625  19.209
 5080SOL     OW27118   2.829   1.364   0.546
 5080SOL    HW127119   2.794   1.313   0.473
 5080SOL    HW227120   2.894   1.422   0.506
 5081SOL     OW27121   0.319   1.969   1.744
 5081SOL    HW127122   0.311   2.023   1.823
 5081SOL    HW227123   0.412   1.946   1.741
 5082SOL     OW27124   2.421   3.148  16.915
 5082SOL    HW127125   2.494   3.102  16.957
 5082SOL    HW227126   2.445   3.240  16.919
 5083SOL     OW27127   2.804   3.833   2.503
 5083SOL    HW127128   2.746   3.773   2.456
 5083SOL    HW227129   2.865   3.865   2.437
 5084SOL     OW27130   3.383   0.866  17.970
 5084SOL    HW127131   3.471   0.871  17.933
 5084SOL    HW227132   3.368   0.951  18.010
 5085SOL     OW27133   2.210   3.189   7.586
 5085SOL    HW127134   2.271   3.166   7.516
 5085SOL    HW227135   2.246   3.148   7.664
 5086SOL     OW27136   0.170   2.248  16.322
 5086SOL    HW127137   0.177   2.175  16.261
 5086SOL    HW227138   0.240   2.233  16.386
 5087SOL     OW27139   2.057   1.855   4.709
 5087SOL    HW127140   2.073   1.937   4.663
 5087SOL    HW227141   2.110   1.861   4.788
 5088SOL     OW27142   0.847   4.023   2.759
 5088SOL    HW127143   0.902   3.945   2.752
 5088SOL    HW227144   0.900   4.093   2.721
 5089SOL     OW27145   2.429   2.815  16.494
 5089SOL    HW127146   2.414   2.908  16.474
 5089SOL    HW227147   2.481   2.816  16.574
 5090SOL     OW27148   0.493   0.330  17.406
 5090SOL    HW127149   0.536   0.281  17.477
 5090SOL    HW227150   0.421   0.274  17.378
 5091SOL     OW27151   1.418   1.957  18.522
 5091SOL    HW127152   1.343   1.934  18.577
 5091SOL    HW227153   1.401   2.047  18.495
 5092SOL     OW27154   2.999   0.055  21.065
 5092SOL    HW127155   2.935   0.013  21.008
 5092SOL    HW227156   3.083   0.016  21.039
 5093SOL     OW27157   3.829   1.145  16.201
 5093SOL    HW127158   3.771   1.069  16.195
 5093SOL    HW227159   3.849   1.153  16.294
 5094SOL     OW27160   0.650   4.249  20.500
 5094SOL    HW127161   0.659   4.239  20.405
 5094SOL    HW227162   0.580   4.189  20.524
 5095SOL     OW27163   0.635   1.474  16.828
 5095SOL    HW127164   0.643   1.380  16.813
 5095SOL    HW227165   0.542   1.493  16.814
 5096SOL     OW27166   1.030   3.260  14.259
 5096SOL    HW127167   0.985   3.343  14.244
 5096SOL    HW227168   1.100   3.259  14.194
 5097SOL     OW27169   0.862   3.703  15.531
 5097SOL    HW127170   0.901   3.732  15.449
 5097SOL    HW227171   0.803   3.632  15.506
 5098SOL     OW27172   0.675   3.163  16.745
 5098SOL    HW127173   0.616   3.107  16.695
 5098SOL    HW227174   0.674   3.247  16.700
 5099SOL     OW27175   3.672   1.282   2.023
 5099SOL    HW127176   3.760   1.288   2.060
 5099SOL    HW227177   3.657   1.188   2.010
 5100SOL     OW27178   4.016   4.603  17.925
 5100SOL    HW127179   4.010   4.539  17.854
 5100SOL    HW227180   4.017   4.688  17.882
 5101SOL     OW27181   2.548   1.750   6.608
 5101SOL    HW127182   2.499   1.690   6.664
 5101SOL    HW227183   2.518   1.730   6.519
 5102SOL     OW27184   1.705   4.641   0.610
 5102SOL    HW127185   1.671   4.714   0.662
 5102SOL    HW227186   1.779   4.678   0.561
 5103SOL     OW27187   4.580   4.554   4.274
 5103SOL    HW127188   4.564   4.587   4.362
 5103SOL    HW227189   4.531   4.472   4.269
 5104SOL     OW27190   3.435   0.396   4.455
 5104SOL    HW127191   3.373   0.453   4.501
 5104SOL    HW227192   3.382   0.320   4.429
 5105SOL     OW27193   3.073   1.185   3.022
 5105SOL    HW127194   3.038   1.187   3.112
 5105SOL    HW227195   3.163   1.215   3.031
 5106SOL     OW27196   0.301   2.048  13.823
 5106SOL    HW127197   0.330   2.036  13.732
 5106SOL    HW227198   0.347   2.126  13.853
 5107SOL     OW27199   2.346   2.046  18.699
 5107SOL    HW127200   2.392   2.066  18.618
 5107SOL    HW227201   2.396   2.090  18.767
 5108SOL     OW27202   3.784   4.677   3.403
 5108SOL    HW127203   3.773   4.681   3.308
 5108SOL    HW227204   3.715   4.735   3.437
 5109SOL     OW27205   0.138   1.765   1.704
 5109SOL    HW127206   0.205   1.824   1.740
 5109SOL    HW227207   0.187   1.704   1.650
 5110SOL     OW27208   3.385   3.086   3.856
 5110SOL    HW127209   3.446   3.129   3.796
 5110SOL    HW227210   3.298   3.115   3.826
 5111SOL     OW27211   0.333   4.290   2.879
 5111SOL    HW127212   0.257   4.309   2.934
 5111SOL    HW227213   0.385   4.228   2.930
 5112SOL     OW27214   1.489   4.013   0.520
 5112SOL    HW127215   1.534   4.046   0.598
 5112SOL    HW227216   1.552   4.026   0.449
 5113SOL     OW27217   1.525   1.362  19.564
 5113SOL    HW127218   1.577   1.324  19.493
 5113SOL    HW227219   1.462   1.418  19.520
 5114SOL     OW27220   4.483   0.460  20.969
 5114SOL    HW127221   4.495   0.423  21.057
 5114SOL    HW227222   4.400   0.422  20.939
 5115SOL     OW27223   3.819   1.915   1.400
 5115SOL    HW127224   3.776   1.839   1.439
 5115SOL    HW227225   3.886   1.878   1.342
 5116SOL     OW27226   1.913   3.409   5.220
 5116SOL    HW127227   1.830   3.404   5.173
 5116SOL    HW227228   1.892   3.385   5.310
 5117SOL     OW27229   2.956   3.463   4.142
 5117SOL    HW127230   2.878   3.466   4.086
 5117SOL    HW227231   2.960   3.372   4.170
 5118SOL     OW27232   3.825   3.722  15.718
 5118SOL    HW127233   3.889   3.653  15.737
 5118SOL    HW227234   3.878   3.795  15.687
 5119SOL     OW27235   1.111   4.646   5.806
 5119SOL    HW127236   1.163   4.598   5.741
 5119SOL    HW227237   1.133   4.604   5.890
 5120SOL     OW27238   4.731   3.493   4.907
 5120SOL    HW127239   4.691   3.573   4.875
 5120SOL    HW227240   0.025   3.492   4.869
 5121SOL     OW27241   0.939   1.141  16.361
 5121SOL    HW127242   0.929   1.213  16.298
 5121SOL    HW227243   0.868   1.155  16.424
 5122SOL     OW27244   2.595   4.010   1.192
 5122SOL    HW127245   2.577   3.918   1.175
 5122SOL    HW227246   2.511   4.046   1.222
 5123SOL     OW27247   3.722   1.235  20.299
 5123SOL    HW127248   3.696   1.216  20.209
 5123SOL    HW227249   3.774   1.315  20.294
 5124SOL     OW27250   4.691   0.310  15.548
 5124SOL    HW127251   4.677   0.318  15.642
 5124SOL    HW227252   4.663   0.394  15.512
 5125SOL     OW27253   1.809   4.517  17.851
 5125SOL    HW127254   1.714   4.510  17.837
 5125SOL    HW227255   1.832   4.602  17.814
 5126SOL     OW27256   3.740   3.467   1.936
 5126SOL    HW127257   3.775   3.384   1.904
 5126SOL    HW227258   3.734   3.456   2.031
 5127SOL     OW27259   1.527   0.483  16.774
 5127SOL    HW127260   1.521   0.573  16.808
 5127SOL    HW227261   1.485   0.488  16.688
 5128SOL     OW27262   3.773   0.086   5.106
 5128SOL    HW127263   3.839   0.021   5.131
 5128SOL    HW227264   3.815   0.171   5.124
 5129SOL     OW27265   3.428   1.579   4.265
 5129SOL    HW127266   3.333   1.579   4.278
 5129SOL    HW227267   3.452   1.672   4.263
 5130SOL     OW27268   1.290   2.907   5.123
 5130SOL    HW127269   1.374   2.862   5.119
 5130SOL    HW227270   1.226   2.837   5.136
 5131SOL     OW27271   4.004   4.441  20.967
 5131SOL    HW127272   3.947   4.516  20.948
 5131SOL    HW227273   4.084   4.459  20.918
 5132SOL     OW27274   2.469   1.255  19.033
 5132SOL    HW127275   2.428   1.210  19.107
 5132SOL    HW227276   2.563   1.241  19.045
 5133SOL     OW27277   3.359   1.963   6.990
 5133SOL    HW127278   3.423   2.020   6.948
 5133SOL    HW227279   3.337   1.898   6.922
 5134SOL     OW27280   3.034   3.917  16.384
 5134SOL    HW127281   3.078   3.977  16.443
 5134SOL    HW227282   3.045   3.956  16.297
 5135SOL     OW27283   4.157   3.291  19.024
 5135SOL    HW127284   4.064   3.314  19.019
 5135SOL    HW227285   4.176   3.287  19.118
 5136SOL     OW27286   2.796   1.477   0.248
 5136SOL    HW127287   2.812   1.493   0.155
 5136SOL    HW227288   2.704   1.449   0.251
 5137SOL     OW27289   3.813   1.057   0.689
 5137SOL    HW127290   3.737   1.030   0.638
 5137SOL    HW227291   3.805   1.009   0.771
 5138SOL     OW27292   4.734   1.225   5.888
 5138SOL    HW127293   4.783   1.286   5.833
 5138SOL    HW227294   0.007   1.171   5.930
 5139SOL     OW27295   1.222   1.325   5.839
 5139SOL    HW127296   1.174   1.254   5.797
 5139SOL    HW227297   1.290   1.280   5.891
 5140SOL     OW27298   4.065   3.565  18.752
 5140SOL    HW127299   4.046   3.634  18.815
 5140SOL    HW227300   4.033   3.600  18.669
 5141SOL     OW27301   2.718   3.818   0.412
 5141SOL    HW127302   2.724   3.827   0.507
 5141SOL    HW227303   2.710   3.723   0.398
 5142SOL     OW27304   0.572   1.790   5.560
 5142SOL    HW127305   0.655   1.837   5.562
 5142SOL    HW227306   0.542   1.798   5.470
 5143SOL     OW27307   2.897   1.897  14.208
 5143SOL    HW127308   2.830   1.930  14.268
 5143SOL    HW227309   2.945   1.975  14.181
 5144SOL     OW27310   2.563   1.807   0.851
 5144SOL    HW127311   2.629   1.744   0.822
 5144SOL    HW227312   2.480   1.762   0.838
 5145SOL     OW27313   0.230   4.012  19.360
 5145SOL    HW127314   0.295   4.076  19.389
 5145SOL    HW227315   0.249   3.934  19.411
 5146SOL     OW27316   1.486   4.152  11.228
 5146SOL    HW127317   1.425   4.112  11.291
 5146SOL    HW227318   1.461   4.116  11.144
 5147SOL     OW27319   1.810   1.380  16.450
 5147SOL    HW127320   1.725   1.336  16.449
 5147SOL    HW227321   1.788   1.473  16.460
 5148SOL     OW27322   3.081   3.937  17.868
 5148SOL    HW127323   3.157   3.967  17.819
 5148SOL    HW227324   3.103   3.953  17.959
 5149SOL     OW27325   0.463   2.820  18.137
 5149SOL    HW127326   0.456   2.770  18.056
 5149SOL    HW227327   0.520   2.766  18.193
 5150SOL     OW27328   3.939   0.381   5.922
 5150SOL    HW127329   4.002   0.409   5.856
 5150SOL    HW227330   3.870   0.447   5.920
 5151SOL     OW27331   3.348   3.832   3.559
 5151SOL    HW127332   3.441   3.812   3.555
 5151SOL    HW227333   3.343   3.926   3.538
 5152SOL     OW27334   0.274   4.151  14.917
 5152SOL    HW127335   0.261   4.056  14.922
 5152SOL    HW227336   0.354   4.166  14.967
 5153SOL     OW27337   0.753   3.125   7.909
 5153SOL    HW127338   0.756   3.129   7.813
 5153SOL    HW227339   0.845   3.127   7.936
 5154SOL     OW27340   2.262   3.233   8.922
 5154SOL    HW127341   2.333   3.174   8.950
 5154SOL    HW227342   2.307   3.305   8.879
 5155SOL     OW27343   2.057   1.062  16.101
 5155SOL    HW127344   2.133   1.006  16.084
 5155SOL    HW227345   2.012   1.069  16.017
 5156SOL     OW27346   1.470   2.116   0.441
 5156SOL    HW127347   1.561   2.131   0.415
 5156SOL    HW227348   1.419   2.135   0.362
 5157SOL     OW27349   1.764   3.591  20.182
 5157SOL    HW127350   1.704   3.567  20.253
 5157SOL    HW227351   1.807   3.510  20.158
 5158SOL     OW27352   1.041   1.661  12.299
 5158SOL    HW127353   1.132   1.632  12.290
 5158SOL    HW227354   1.022   1.706  12.216
 5159SOL     OW27355   4.522   2.359   5.706
 5159SOL    HW127356   4.470   2.350   5.627
 5159SOL    HW227357   4.458   2.351   5.778
 5160SOL     OW27358   1.974   1.701  20.804
 5160SOL    HW127359   2.068   1.721  20.805
 5160SOL    HW227360   1.934   1.776  20.760
 5161SOL     OW27361   0.931   1.719  18.078
 5161SOL    HW127362   0.935   1.812  18.103
 5161SOL    HW227363   1.022   1.695  18.065
 5162SOL     OW27364   0.926   0.819   1.290
 5162SOL    HW127365   0.999   0.772   1.330
 5162SOL    HW227366   0.879   0.858   1.363
 5163SOL     OW27367   2.648   0.458  16.840
 5163SOL    HW127368   2.577   0.515  16.869
 5163SOL    HW227369   2.693   0.432  16.920
 5164SOL     OW27370   0.810   3.523   1.811
 5164SOL    HW127371   0.763   3.463   1.870
 5164SOL    HW227372   0.866   3.574   1.869
 5165SOL     OW27373   1.282   0.227  21.226
 5165SOL    HW127374   1.198   0.183  21.213
 5165SOL    HW227375   1.259   0.320  21.231
 5166SOL     OW27376   4.165   1.939   0.511
 5166SOL    HW127377   4.238   1.896   0.467
 5166SOL    HW227378   4.155   1.890   0.593
 5167SOL     OW27379   2.454   4.020  15.266
 5167SOL    HW127380   2.450   3.982  15.354
 5167SOL    HW227381   2.537   4.068  15.264
 5168SOL     OW27382   2.881   3.512  17.356
 5168SOL    HW127383   2.836   3.594  17.339
 5168SOL    HW227384   2.811   3.449  17.371
 5169SOL     OW27385   2.837   1.230   7.954
 5169SOL    HW127386   2.784   1.296   7.909
 5169SOL    HW227387   2.862   1.271   8.036
 5170SOL     OW27388   1.834   4.078   5.690
 5170SOL    HW127389   1.857   3.991   5.724
 5170SOL    HW227390   1.745   4.067   5.656
 5171SOL     OW27391   2.103   2.107   3.809
 5171SOL    HW127392   2.106   2.023   3.854
 5171SOL    HW227393   2.019   2.108   3.764
 5172SOL     OW27394   4.569   0.253   2.846
 5172SOL    HW127395   4.532   0.308   2.916
 5172SOL    HW227396   4.663   0.273   2.849
 5173SOL     OW27397   2.814   3.334   6.050
 5173SOL    HW127398   2.844   3.347   6.140
 5173SOL    HW227399   2.724   3.366   6.049
 5174SOL     OW27400   1.294   3.638   4.436
 5174SOL    HW127401   1.281   3.731   4.458
 5174SOL    HW227402   1.237   3.624   4.361
 5175SOL     OW27403   2.931   4.668  19.309
 5175SOL    HW127404   2.870   4.613  19.358
 5175SOL    HW227405   2.935   4.628  19.222
 5176SOL     OW27406   3.121   4.356  21.161
 5176SOL    HW127407   3.182   4.421  21.125
 5176SOL    HW227408   3.119   4.287  21.095
 5177SOL     OW27409   0.082   4.121   0.399
 5177SOL    HW127410   0.175   4.124   0.422
 5177SOL    HW227411   0.069   4.194   0.339
 5178SOL     OW27412   0.894   2.734  21.221
 5178SOL    HW127413   0.889   2.692  21.136
 5178SOL    HW227414   0.804   2.738  21.252
 5179SOL     OW27415   3.459   0.916   6.775
 5179SOL    HW127416   3.435   0.997   6.821
 5179SOL    HW227417   3.544   0.935   6.736
 5180SOL     OW27418   4.600   3.894   0.952
 5180SOL    HW127419   4.544   3.898   0.874
 5180SOL    HW227420   4.671   3.955   0.934
 5181SOL     OW27421   0.698   0.318   4.969
 5181SOL    HW127422   0.649   0.340   5.048
 5181SOL    HW227423   0.636   0.272   4.914
 5182SOL     OW27424   3.736   3.026   0.330
 5182SOL    HW127425   3.746   3.103   0.386
 5182SOL    HW227426   3.800   3.039   0.260
 5183SOL     OW27427   0.282   1.553  12.100
 5183SOL    HW127428   0.237   1.616  12.156
 5183SOL    HW227429   0.225   1.476  12.100
 5184SOL     OW27430   0.689   0.321  11.222
 5184SOL    HW127431   0.596   0.326  11.242
 5184SOL    HW227432   0.717   0.412  11.213
 5185SOL     OW27433   3.243   1.754   6.822
 5185SOL    HW127434   3.167   1.699   6.838
 5185SOL    HW227435   3.221   1.802   6.742
 5186SOL     OW27436   4.378   1.747  20.196
 5186SOL    HW127437   4.426   1.666  20.214
 5186SOL    HW227438   4.437   1.798  20.142
 5187SOL     OW27439   3.594   1.276  15.364
 5187SOL    HW127440   3.667   1.237  15.412
 5187SOL    HW227441   3.583   1.363  15.403
 5188SOL     OW27442   0.505   2.367  19.901
 5188SOL    HW127443   0.509   2.431  19.830
 5188SOL    HW227444   0.503   2.282  19.857
 5189SOL     OW27445   3.129   0.047  19.301
 5189SOL    HW127446   3.045   0.001  19.298
 5189SOL    HW227447   3.162   0.033  19.389
 5190SOL     OW27448   2.247   3.682  19.467
 5190SOL    HW127449   2.287   3.604  19.430
 5190SOL    HW227450   2.284   3.754  19.417
 5191SOL     OW27451   1.867   1.636   7.105
 5191SOL    HW127452   1.834   1.725   7.116
 5191SOL    HW227453   1.865   1.599   7.193
 5192SOL     OW27454   3.476   2.845  12.173
 5192SOL    HW127455   3.476   2.897  12.092
 5192SOL    HW227456   3.491   2.755  12.143
 5193SOL     OW27457   3.569   2.496  19.441
 5193SOL    HW127458   3.599   2.515  19.352
 5193SOL    HW227459   3.621   2.420  19.468
 5194SOL     OW27460   1.630   4.133   4.885
 5194SOL    HW127461   1.691   4.085   4.830
 5194SOL    HW227462   1.681   4.204   4.922
 5195SOL     OW27463   0.022   1.878  20.228
 5195SOL    HW127464   0.001   1.942  20.295
 5195SOL    HW227465   4.741   1.879  20.169
 5196SOL     OW27466   0.459   2.875   5.338
 5196SOL    HW127467   0.382   2.901   5.389
 5196SOL    HW227468   0.526   2.858   5.403
 5197SOL     OW27469   1.247   1.616   3.355
 5197SOL    HW127470   1.292   1.549   3.302
 5197SOL    HW227471   1.251   1.695   3.302
 5198SOL     OW27472   0.312   3.466  15.008
 5198SOL    HW127473   0.307   3.381  15.051
 5198SOL    HW227474   0.376   3.454  14.938
 5199SOL     OW27475   2.236   1.241  16.946
 5199SOL    HW127476   2.274   1.206  16.866
 5199SOL    HW227477   2.208   1.330  16.922
 5200SOL     OW27478   1.661   3.131   1.667
 5200SOL    HW127479   1.706   3.160   1.747
 5200SOL    HW227480   1.725   3.147   1.597
 5201SOL     OW27481   0.901   4.420   1.224
 5201SOL    HW127482   0.943   4.435   1.139
 5201SOL    HW227483   0.808   4.430   1.206
 5202SOL     OW27484   3.147   1.299  18.737
 5202SOL    HW127485   3.174   1.377  18.785
 5202SOL    HW227486   3.180   1.313  18.648
 5203SOL     OW27487   3.771   3.808   1.557
 5203SOL    HW127488   3.724   3.731   1.588
 5203SOL    HW227489   3.704   3.865   1.520
 5204SOL     OW27490   4.709   4.631  20.708
 5204SOL    HW127491   4.649   4.558  20.723
 5204SOL    HW227492   4.788   4.608  20.758
 5205SOL     OW27493   3.051   1.720   8.287
 5205SOL    HW127494   2.982   1.659   8.314
 5205SOL    HW227495   3.023   1.805   8.322
 5206SOL     OW27496   4.630   4.616   7.079
 5206SOL    HW127497   4.670   4.539   7.038
 5206SOL    HW227498   4.549   4.631   7.030
 5207SOL     OW27499   4.162   3.747  20.925
 5207SOL    HW127500   4.203   3.685  20.865
 5207SOL    HW227501   4.079   3.770  20.882
 5208SOL     OW27502   0.816   1.256  15.779
 5208SOL    HW127503   0.797   1.164  15.760
 5208SOL    HW227504   0.841   1.294  15.695
 5209SOL     OW27505   1.232   0.483  19.179
 5209SOL    HW127506   1.232   0.425  19.255
 5209SOL    HW227507   1.302   0.449  19.123
 5210SOL     OW27508   3.935   2.314   2.572
 5210SOL    HW127509   4.028   2.327   2.593
 5210SOL    HW227510   3.890   2.384   2.619
 5211SOL     OW27511   4.289   1.311   5.486
 5211SOL    HW127512   4.280   1.338   5.394
 5211SOL    HW227513   4.384   1.310   5.501
 5212SOL     OW27514   0.497   2.782   4.149
 5212SOL    HW127515   0.436   2.781   4.223
 5212SOL    HW227516   0.487   2.696   4.108
 5213SOL     OW27517   4.486   1.907   0.095
 5213SOL    HW127518   4.403   1.889   0.051
 5213SOL    HW227519   4.464   1.974   0.160
 5214SOL     OW27520   3.611   4.711  16.208
 5214SOL    HW127521   3.630   4.722  16.115
 5214SOL    HW227522   3.553   4.635  16.212
 5215SOL     OW27523   3.240   0.038   1.679
 5215SOL    HW127524   3.267   4.742   1.698
 5215SOL    HW227525   3.251   0.047   1.584
 5216SOL     OW27526   2.681   0.278  17.066
 5216SOL    HW127527   2.605   0.224  17.047
 5216SOL    HW227528   2.746   0.217  17.100
 5217SOL     OW27529   4.649   2.121  20.324
 5217SOL    HW127530   4.695   2.169  20.393
 5217SOL    HW227531   4.692   2.148  20.243
 5218SOL     OW27532   4.254   3.669   3.167
 5218SOL    HW127533   4.316   3.596   3.162
 5218SOL    HW227534   4.214   3.660   3.254
 5219SOL     OW27535   3.383   4.441  14.118
 5219SOL    HW127536   3.428   4.524  14.102
 5219SOL    HW227537   3.307   4.444  14.061
 5220SOL     OW27538   4.618   2.579   1.110
 5220SOL    HW127539   4.624   2.660   1.161
 5220SOL    HW227540   4.544   2.593   1.051
 5221SOL     OW27541   0.489   3.625  15.203
 5221SOL    HW127542   0.430   3.569  15.152
 5221SOL    HW227543   0.431   3.674  15.261
 5222SOL     OW27544   0.276   0.971   3.131
 5222SOL    HW127545   0.308   1.055   3.164
 5222SOL    HW227546   0.215   0.940   3.198
 5223SOL     OW27547   0.178   1.289   1.508
 5223SOL    HW127548   0.132   1.206   1.497
 5223SOL    HW227549   0.197   1.295   1.601
 5224SOL     OW27550   1.168   3.847   2.907
 5224SOL    HW127551   1.115   3.784   2.956
 5224SOL    HW227552   1.142   3.932   2.942
 5225SOL     OW27553   2.744   2.733  16.360
 5225SOL    HW127554   2.806   2.752  16.289
 5225SOL    HW227555   2.665   2.702  16.315
 5226SOL     OW27556   1.305   0.615   0.681
 5226SOL    HW127557   1.373   0.550   0.699
 5226SOL    HW227558   1.271   0.592   0.595
 5227SOL     OW27559   0.083   3.684   1.904
 5227SOL    HW127560   4.790   3.652   1.930
 5227SOL    HW227561   0.124   3.712   1.986
 5228SOL     OW27562   4.002   4.396  14.557
 5228SOL    HW127563   4.013   4.491  14.565
 5228SOL    HW227564   4.034   4.376  14.468
 5229SOL     OW27565   3.025   2.324   5.787
 5229SOL    HW127566   2.941   2.334   5.832
 5229SOL    HW227567   3.071   2.256   5.836
 5230SOL     OW27568   1.996   1.921  19.444
 5230SOL    HW127569   1.972   1.984  19.376
 5230SOL    HW227570   1.989   1.835  19.401
 5231SOL     OW27571   4.162   2.324  19.669
 5231SOL    HW127572   4.097   2.393  19.686
 5231SOL    HW227573   4.225   2.365  19.609
 5232SOL     OW27574   1.608   4.730  15.760
 5232SOL    HW127575   1.680   4.716  15.822
 5232SOL    HW227576   1.651   4.740  15.675
 5233SOL     OW27577   2.618   0.752   5.220
 5233SOL    HW127578   2.530   0.788   5.215
 5233SOL    HW227579   2.606   0.659   5.201
 5234SOL     OW27580   3.983   3.462   5.787
 5234SOL    HW127581   3.900   3.480   5.831
 5234SOL    HW227582   4.021   3.389   5.836
 5235SOL     OW27583   1.602   1.731   5.002
 5235SOL    HW127584   1.637   1.643   4.991
 5235SOL    HW227585   1.540   1.723   5.075
 5236SOL     OW27586   3.107   2.402   4.395
 5236SOL    HW127587   3.081   2.316   4.427
 5236SOL    HW227588   3.065   2.411   4.309
 5237SOL     OW27589   2.368   4.528  19.350
 5237SOL    HW127590   2.367   4.463  19.420
 5237SOL    HW227591   2.286   4.577  19.362
 5238SOL     OW27592   3.232   4.506   0.785
 5238SOL    HW127593   3.186   4.579   0.745
 5238SOL    HW227594   3.170   4.469   0.847
 5239SOL     OW27595   2.217   2.748  14.531
 5239SOL    HW127596   2.146   2.804  14.497
 5239SOL    HW227597   2.270   2.807  14.585
 5240SOL     OW27598   4.184   4.513  18.716
 5240SOL    HW127599   4.111   4.561  18.754
 5240SOL    HW227600   4.217   4.569  18.646
 5241SOL     OW27601   2.132   3.319   0.030
 5241SOL    HW127602   2.140   3.239  21.254
 5241SOL    HW227603   2.180   3.385  21.257
 5242SOL     OW27604   1.423   0.680   9.356
 5242SOL    HW127605   1.509   0.642   9.375
 5242SOL    HW227606   1.376   0.676   9.439
 5243SOL     OW27607   0.862   1.808   5.784
 5243SOL    HW127608   0.830   1.854   5.706
 5243SOL    HW227609   0.922   1.870   5.825
 5244SOL     OW27610   3.371   2.864  14.532
 5244SOL    HW127611   3.358   2.850  14.438
 5244SOL    HW227612   3.451   2.817  14.553
 5245SOL     OW27613   1.357   0.062   4.714
 5245SOL    HW127614   1.328   0.004   4.783
 5245SOL    HW227615   1.453   0.063   4.722
 5246SOL     OW27616   3.850   2.023   0.852
 5246SOL    HW127617   3.798   1.984   0.782
 5246SOL    HW227618   3.794   2.015   0.930
 5247SOL     OW27619   3.419   4.521  20.219
 5247SOL    HW127620   3.439   4.562  20.135
 5247SOL    HW227621   3.386   4.593  20.273
 5248SOL     OW27622   0.415   0.650   0.581
 5248SOL    HW127623   0.478   0.580   0.598
 5248SOL    HW227624   0.411   0.699   0.663
 5249SOL     OW27625   4.003   0.510   3.480
 5249SOL    HW127626   4.030   0.582   3.422
 5249SOL    HW227627   3.910   0.526   3.496
 5250SOL     OW27628   2.252   2.057  20.610
 5250SOL    HW127629   2.210   1.975  20.583
 5250SOL    HW227630   2.338   2.030  20.642
 5251SOL     OW27631   3.197   2.256  16.894
 5251SOL    HW127632   3.180   2.342  16.857
 5251SOL    HW227633   3.182   2.195  16.822
 5252SOL     OW27634   3.785   4.463   4.418
 5252SOL    HW127635   3.815   4.528   4.353
 5252SOL    HW227636   3.743   4.516   4.486
 5253SOL     OW27637   2.636   4.751   1.773
 5253SOL    HW127638   2.612   0.030   1.830
 5253SOL    HW227639   2.725   4.728   1.800
 5254SOL     OW27640   4.299   4.032  15.985
 5254SOL    HW127641   4.348   4.109  15.957
 5254SOL    HW227642   4.275   3.988  15.904
 5255SOL     OW27643   4.601   1.611   8.028
 5255SOL    HW127644   4.512   1.591   7.997
 5255SOL    HW227645   4.656   1.600   7.951
 5256SOL     OW27646   3.986   2.133   5.755
 5256SOL    HW127647   4.008   2.226   5.764
 5256SOL    HW227648   3.893   2.133   5.733
 5257SOL     OW27649   4.578   0.059  15.996
 5257SOL    HW127650   4.600   4.781  16.056
 5257SOL    HW227651   4.592   0.023  15.909
 5258SOL     OW27652   1.951   3.546   2.031
 5258SOL    HW127653   1.876   3.525   2.086
 5258SOL    HW227654   1.929   3.508   1.946
 5259SOL     OW27655   0.596   0.849  12.639
 5259SOL    HW127656   0.575   0.924  12.583
 5259SOL    HW227657   0.674   0.811  12.600
 5260SOL     OW27658   3.439   0.426   7.035
 5260SOL    HW127659   3.345   0.435   7.051
 5260SOL    HW227660   3.467   0.513   7.009
 5261SOL     OW27661   2.053   0.133  13.528
 5261SOL    HW127662   2.124   0.123  13.465
 5261SOL    HW227663   2.087   0.193  13.594
 5262SOL     OW27664   1.401   2.225  16.574
 5262SOL    HW127665   1.406   2.320  16.563
 5262SOL    HW227666   1.459   2.206  16.648
 5263SOL     OW27667   2.556   4.049   2.487
 5263SOL    HW127668   2.521   4.025   2.573
 5263SOL    HW227669   2.643   4.011   2.484
 5264SOL     OW27670   0.815   2.091   4.742
 5264SOL    HW127671   0.905   2.061   4.754
 5264SOL    HW227672   0.771   2.019   4.696
 5265SOL     OW27673   3.893   4.564   4.733
 5265SOL    HW127674   3.905   4.470   4.718
 5265SOL    HW227675   3.826   4.570   4.800
 5266SOL     OW27676   4.045   0.833  18.029
 5266SOL    HW127677   3.990   0.758  18.050
 5266SOL    HW227678   4.042   0.839  17.934
 5267SOL     OW27679   3.636   1.259  15.901
 5267SOL    HW127680   3.599   1.306  15.976
 5267SOL    HW227681   3.631   1.166  15.926
 5268SOL     OW27682   2.008   3.926  16.993
 5268SOL    HW127683   2.059   3.851  16.963
 5268SOL    HW227684   1.993   3.978  16.914
 5269SOL     OW27685   1.700   0.709  18.178
 5269SOL    HW127686   1.654   0.762  18.112
 5269SOL    HW227687   1.763   0.769  18.217
 5270SOL     OW27688   2.969   0.496  20.782
 5270SOL    HW127689   3.030   0.423  20.797
 5270SOL    HW227690   3.015   0.553  20.721
 5271SOL     OW27691   4.781   4.231  20.646
 5271SOL    HW127692   0.018   4.160  20.703
 5271SOL    HW227693   4.690   4.210  20.628
 5272SOL     OW27694   3.269   4.563   2.200
 5272SOL    HW127695   3.341   4.619   2.229
 5272SOL    HW227696   3.190   4.610   2.228
 5273SOL     OW27697   2.286   3.483   5.553
 5273SOL    HW127698   2.270   3.492   5.459
 5273SOL    HW227699   2.381   3.487   5.562
 5274SOL     OW27700   4.010   2.604   7.644
 5274SOL    HW127701   4.001   2.699   7.643
 5274SOL    HW227702   4.069   2.587   7.718
 5275SOL     OW27703   2.453   0.678  14.528
 5275SOL    HW127704   2.469   0.613  14.460
 5275SOL    HW227705   2.541   0.705  14.556
 5276SOL     OW27706   0.388   0.733  17.185
 5276SOL    HW127707   0.483   0.735  17.197
 5276SOL    HW227708   0.369   0.813  17.137
 5277SOL     OW27709   1.489   1.892  19.469
 5277SOL    HW127710   1.508   1.955  19.400
 5277SOL    HW227711   1.564   1.833  19.470
 5278SOL     OW27712   2.525   1.624   2.916
 5278SOL    HW127713   2.571   1.581   2.988
 5278SOL    HW227714   2.434   1.627   2.944
 5279SOL     OW27715   2.824   2.303   5.557
 5279SOL    HW127716   2.864   2.333   5.639
 5279SOL    HW227717   2.803   2.384   5.510
 5280SOL     OW27718   3.442   0.879  19.210
 5280SOL    HW127719   3.460   0.883  19.116
 5280SOL    HW227720   3.526   0.862  19.250
 5281SOL     OW27721   0.958   1.778  12.054
 5281SOL    HW127722   0.953   1.714  11.983
 5281SOL    HW227723   0.928   1.860  12.013
 5282SOL     OW27724   3.163   2.380  17.585
 5282SOL    HW127725   3.242   2.330  17.566
 5282SOL    HW227726   3.160   2.447  17.517
 5283SOL     OW27727   3.128   0.092   4.812
 5283SOL    HW127728   3.210   0.059   4.775
 5283SOL    HW227729   3.080   0.014   4.840
 5284SOL     OW27730   1.604   1.401   2.957
 5284SOL    HW127731   1.694   1.371   2.969
 5284SOL    HW227732   1.594   1.473   3.018
 5285SOL     OW27733   3.038   2.499  18.958
 5285SOL    HW127734   2.999   2.517  18.873
 5285SOL    HW227735   2.971   2.525  19.021
 5286SOL     OW27736   0.496   3.473  17.997
 5286SOL    HW127737   0.518   3.399  18.053
 5286SOL    HW227738   0.566   3.474  17.931
 5287SOL     OW27739   4.286   1.368   3.161
 5287SOL    HW127740   4.327   1.341   3.243
 5287SOL    HW227741   4.257   1.287   3.120
 5288SOL     OW27742   0.274   3.772  13.742
 5288SOL    HW127743   0.212   3.846  13.744
 5288SOL    HW227744   0.220   3.695  13.761
 5289SOL     OW27745   4.585   0.119  20.334
 5289SOL    HW127746   4.512   0.177  20.313
 5289SOL    HW227747   4.559   0.076  20.416
 5290SOL     OW27748   2.993   4.172   0.926
 5290SOL    HW127749   2.960   4.120   0.999
 5290SOL    HW227750   3.056   4.115   0.882
 5291SOL     OW27751   2.484   3.925  15.533
 5291SOL    HW127752   2.431   3.914  15.612
 5291SOL    HW227753   2.566   3.961  15.564
 5292SOL     OW27754   0.683   0.139   6.638
 5292SOL    HW127755   0.754   0.204   6.636
 5292SOL    HW227756   0.706   0.076   6.570
 5293SOL     OW27757   0.880   0.239   5.534
 5293SOL    HW127758   0.900   0.203   5.620
 5293SOL    HW227759   0.809   0.185   5.500
 5294SOL     OW27760   1.512   4.457   1.740
 5294SOL    HW127761   1.432   4.509   1.745
 5294SOL    HW227762   1.559   4.478   1.820
 5295SOL     OW27763   0.515   3.165   5.369
 5295SOL    HW127764   0.425   3.131   5.372
 5295SOL    HW227765   0.567   3.099   5.414
 5296SOL     OW27766   1.936   4.670  20.012
 5296SOL    HW127767   1.932   4.741  19.947
 5296SOL    HW227768   2.029   4.664  20.035
 5297SOL     OW27769   3.564   4.752  17.939
 5297SOL    HW127770   3.496   0.020  17.966
 5297SOL    HW227771   3.574   4.694  18.015
 5298SOL     OW27772   2.289   1.831   4.383
 5298SOL    HW127773   2.385   1.831   4.383
 5298SOL    HW227774   2.265   1.899   4.446
 5299SOL     OW27775   2.075   1.134  20.800
 5299SOL    HW127776   2.098   1.225  20.818
 5299SOL    HW227777   2.050   1.099  20.886
 5300SOL     OW27778   0.583   2.265  19.630
 5300SOL    HW127779   0.581   2.174  19.659
 5300SOL    HW227780   0.662   2.271  19.576
 5301SOL     OW27781   1.680   4.177   0.003
 5301SOL    HW127782   1.698   4.085  21.263
 5301SOL    HW227783   1.761   4.212   0.040
 5302SOL     OW27784   2.316   1.910  13.656
 5302SOL    HW127785   2.321   1.992  13.705
 5302SOL    HW227786   2.289   1.845  13.720
 5303SOL     OW27787   3.682   3.681  19.188
 5303SOL    HW127788   3.591   3.654  19.176
 5303SOL    HW227789   3.676   3.769  19.225
 5304SOL     OW27790   3.751   4.029   1.839
 5304SOL    HW127791   3.808   4.031   1.916
 5304SOL    HW227792   3.811   4.016   1.765
 5305SOL     OW27793   0.264   4.334   5.870
 5305SOL    HW127794   0.330   4.403   5.868
 5305SOL    HW227795   0.307   4.259   5.829
 5306SOL     OW27796   3.800   0.405  20.030
 5306SOL    HW127797   3.768   0.317  20.047
 5306SOL    HW227798   3.760   0.430  19.947
 5307SOL     OW27799   0.872   3.976   5.315
 5307SOL    HW127800   0.850   3.946   5.227
 5307SOL    HW227801   0.854   3.900   5.371
 5308SOL     OW27802   3.748   2.396   1.804
 5308SOL    HW127803   3.811   2.368   1.738
 5308SOL    HW227804   3.709   2.476   1.767
 5309SOL     OW27805   0.340   1.519  15.221
 5309SOL    HW127806   0.360   1.606  15.255
 5309SOL    HW227807   0.277   1.534  15.151
 5310SOL     OW27808   0.334   2.177   9.635
 5310SOL    HW127809   0.363   2.243   9.572
 5310SOL    HW227810   0.320   2.098   9.582
 5311SOL     OW27811   1.260   0.186   6.493
 5311SOL    HW127812   1.271   0.098   6.457
 5311SOL    HW227813   1.328   0.193   6.560
 5312SOL     OW27814   1.310   3.296   4.453
 5312SOL    HW127815   1.329   3.293   4.547
 5312SOL    HW227816   1.339   3.383   4.425
 5313SOL     OW27817   3.182   3.349   0.556
 5313SOL    HW127818   3.272   3.374   0.576
 5313SOL    HW227819   3.183   3.254   0.556
 5314SOL     OW27820   4.280   0.094  15.724
 5314SOL    HW127821   4.338   0.078  15.650
 5314SOL    HW227822   4.257   0.006  15.756
 5315SOL     OW27823   0.272   1.480  18.681
 5315SOL    HW127824   0.217   1.443  18.612
 5315SOL    HW227825   0.298   1.405  18.734
 5316SOL     OW27826   1.204   4.341  18.664
 5316SOL    HW127827   1.143   4.400  18.619
 5316SOL    HW227828   1.160   4.256  18.665
 5317SOL     OW27829   4.241   0.659  17.543
 5317SOL    HW127830   4.203   0.576  17.513
 5317SOL    HW227831   4.166   0.715  17.560
 5318SOL     OW27832   3.032   0.711  12.783
 5318SOL    HW127833   2.970   0.697  12.855
 5318SOL    HW227834   2.981   0.694  12.704
 5319SOL     OW27835   4.379   3.756   4.664
 5319SOL    HW127836   4.379   3.686   4.599
 5319SOL    HW227837   4.289   3.757   4.697
 5320SOL     OW27838   0.991   2.408  16.274
 5320SOL    HW127839   1.086   2.401  16.259
 5320SOL    HW227840   0.956   2.326  16.238
 5321SOL     OW27841   2.244   0.661   4.821
 5321SOL    HW127842   2.200   0.670   4.906
 5321SOL    HW227843   2.184   0.608   4.768
 5322SOL     OW27844   4.393   4.426   8.489
 5322SOL    HW127845   4.427   4.384   8.568
 5322SOL    HW227846   4.409   4.363   8.419
 5323SOL     OW27847   0.021   3.751   0.600
 5323SOL    HW127848   4.735   3.778   0.555
 5323SOL    HW227849   4.793   3.668   0.642
 5324SOL     OW27850   1.321   1.578   6.823
 5324SOL    HW127851   1.292   1.510   6.885
 5324SOL    HW227852   1.254   1.576   6.754
 5325SOL     OW27853   2.743   4.407  13.981
 5325SOL    HW127854   2.834   4.417  14.007
 5325SOL    HW227855   2.704   4.494  13.994
 5326SOL     OW27856   3.492   1.437   1.438
 5326SOL    HW127857   3.583   1.458   1.413
 5326SOL    HW227858   3.441   1.510   1.403
 5327SOL     OW27859   3.244   1.314  18.465
 5327SOL    HW127860   3.250   1.223  18.436
 5327SOL    HW227861   3.300   1.362  18.404
 5328SOL     OW27862   3.134   0.957   0.693
 5328SOL    HW127863   3.124   1.022   0.762
 5328SOL    HW227864   3.045   0.933   0.669
 5329SOL     OW27865   2.737   0.309   2.829
 5329SOL    HW127866   2.644   0.318   2.804
 5329SOL    HW227867   2.735   0.288   2.922
 5330SOL     OW27868   2.200   2.155   2.418
 5330SOL    HW127869   2.279   2.198   2.385
 5330SOL    HW227870   2.233   2.081   2.469
 5331SOL     OW27871   3.368   1.507  18.784
 5331SOL    HW127872   3.393   1.480  18.695
 5331SOL    HW227873   3.393   1.599  18.789
 5332SOL     OW27874   1.078   2.788   3.252
 5332SOL    HW127875   1.068   2.873   3.209
 5332SOL    HW227876   1.072   2.808   3.346
 5333SOL     OW27877   2.678   0.478  17.957
 5333SOL    HW127878   2.741   0.500  18.026
 5333SOL    HW227879   2.593   0.477  18.001
 5334SOL     OW27880   1.051   2.544   3.105
 5334SOL    HW127881   0.973   2.551   3.161
 5334SOL    HW227882   1.099   2.625   3.122
 5335SOL     OW27883   3.526   4.055  19.026
 5335SOL    HW127884   3.492   3.968  19.006
 5335SOL    HW227885   3.491   4.075  19.113
 5336SOL     OW27886   1.547   1.317  18.451
 5336SOL    HW127887   1.627   1.336  18.402
 5336SOL    HW227888   1.542   1.222  18.452
 5337SOL     OW27889   2.823   0.072  17.129
 5337SOL    HW127890   2.826   4.776  17.161
 5337SOL    HW227891   2.904   0.082  17.078
 5338SOL     OW27892   2.398   0.254  19.692
 5338SOL    HW127893   2.448   0.335  19.702
 5338SOL    HW227894   2.307   0.281  19.701
 5339SOL     OW27895   3.310   2.870  20.948
 5339SOL    HW127896   3.228   2.919  20.945
 5339SOL    HW227897   3.286   2.783  20.978
 5340SOL     OW27898   4.385   3.556   8.176
 5340SOL    HW127899   4.355   3.600   8.096
 5340SOL    HW227900   4.461   3.606   8.204
 5341SOL     OW27901   1.815   1.985   0.079
 5341SOL    HW127902   1.905   1.962   0.056
 5341SOL    HW227903   1.766   1.903   0.069
 5342SOL     OW27904   4.475   3.050   3.137
 5342SOL    HW127905   4.513   2.966   3.163
 5342SOL    HW227906   4.435   3.083   3.217
 5343SOL     OW27907   0.578   4.206   0.365
 5343SOL    HW127908   0.525   4.252   0.300
 5343SOL    HW227909   0.514   4.166   0.424
 5344SOL     OW27910   3.013   1.510   0.410
 5344SOL    HW127911   3.058   1.590   0.381
 5344SOL    HW227912   2.938   1.502   0.350
 5345SOL     OW27913   1.543   1.534  15.852
 5345SOL    HW127914   1.500   1.493  15.777
 5345SOL    HW227915   1.480   1.598  15.884
 5346SOL     OW27916   4.538   1.684  19.008
 5346SOL    HW127917   4.529   1.716  19.097
 5346SOL    HW227918   4.495   1.750  18.954
 5347SOL     OW27919   0.418   3.840   6.065
 5347SOL    HW127920   0.350   3.791   6.018
 5347SOL    HW227921   0.500   3.805   6.032
 5348SOL     OW27922   1.353   1.087   5.712
 5348SOL    HW127923   1.316   1.086   5.800
 5348SOL    HW227924   1.293   1.033   5.660
 5349SOL     OW27925   1.506   1.683  20.891
 5349SOL    HW127926   1.577   1.712  20.948
 5349SOL    HW227927   1.496   1.753  20.828
 5350SOL     OW27928   2.486   0.033   0.604
 5350SOL    HW127929   2.424   0.061   0.672
 5350SOL    HW227930   2.545   4.766   0.649
 5351SOL     OW27931   0.125   2.153  19.526
 5351SOL    HW127932   0.126   2.236  19.478
 5351SOL    HW227933   0.039   2.150  19.567
 5352SOL     OW27934   3.010   0.814  19.063
 5352SOL    HW127935   3.034   0.736  19.013
 5352SOL    HW227936   2.917   0.804  19.081
 5353SOL     OW27937   4.722   1.544  19.327
 5353SOL    HW127938   0.004   1.522  19.380
 5353SOL    HW227939   4.663   1.470  19.337
 5354SOL     OW27940   0.116   0.870   2.737
 5354SOL    HW127941   0.073   0.849   2.654
 5354SOL    HW227942   0.045   0.896   2.796
 5355SOL     OW27943   3.425   4.641  18.867
 5355SOL    HW127944   3.367   4.646  18.791
 5355SOL    HW227945   3.415   4.725  18.911
 5356SOL     OW27946   1.407   0.656   3.868
 5356SOL    HW127947   1.439   0.712   3.796
 5356SOL    HW227948   1.383   0.717   3.937
 5357SOL     OW27949   1.354   2.063   2.897
 5357SOL    HW127950   1.353   2.004   2.972
 5357SOL    HW227951   1.428   2.034   2.843
 5358SOL     OW27952   3.834   1.290   0.524
 5358SOL    HW127953   3.816   1.230   0.597
 5358SOL    HW227954   3.883   1.236   0.461
 5359SOL     OW27955   0.185   3.059   6.375
 5359SOL    HW127956   0.232   2.976   6.387
 5359SOL    HW227957   0.164   3.061   6.281
 5360SOL     OW27958   4.440   4.470   5.151
 5360SOL    HW127959   4.482   4.444   5.233
 5360SOL    HW227960   4.471   4.406   5.087
 5361SOL     OW27961   2.391   3.211   0.644
 5361SOL    HW127962   2.409   3.291   0.596
 5361SOL    HW227963   2.472   3.160   0.638
 5362SOL     OW27964   3.527   1.540   3.431
 5362SOL    HW127965   3.564   1.555   3.344
 5362SOL    HW227966   3.592   1.572   3.492
 5363SOL     OW27967   1.113   3.299  19.677
 5363SOL    HW127968   1.068   3.336  19.753
 5363SOL    HW227969   1.160   3.223  19.713
 5364SOL     OW27970   0.589   3.831   1.782
 5364SOL    HW127971   0.619   3.845   1.872
 5364SOL    HW227972   0.657   3.870   1.727
 5365SOL     OW27973   0.255   4.426   1.308
 5365SOL    HW127974   0.291   4.371   1.377
 5365SOL    HW227975   0.210   4.366   1.249
 5366SOL     OW27976   3.077   2.426  19.375
 5366SOL    HW127977   3.102   2.513  19.342
 5366SOL    HW227978   2.982   2.430  19.383
 5367SOL     OW27979   1.778   4.315   0.277
 5367SOL    HW127980   1.771   4.326   0.372
 5367SOL    HW227981   1.698   4.268   0.253
 5368SOL     OW27982   3.936   2.702   0.834
 5368SOL    HW127983   3.935   2.607   0.850
 5368SOL    HW227984   3.974   2.739   0.913
 5369SOL     OW27985   3.237   3.094  16.984
 5369SOL    HW127986   3.251   3.138  16.899
 5369SOL    HW227987   3.278   3.153  17.048
 5370SOL     OW27988   2.546   3.039  20.320
 5370SOL    HW127989   2.561   3.101  20.392
 5370SOL    HW227990   2.534   2.954  20.363
 5371SOL     OW27991   0.864   3.301  13.825
 5371SOL    HW127992   0.927   3.371  13.841
 5371SOL    HW227993   0.778   3.341  13.842
 5372SOL     OW27994   3.030   2.378   6.351
 5372SOL    HW127995   3.077   2.348   6.273
 5372SOL    HW227996   3.099   2.406   6.411
 5373SOL     OW27997   3.873   2.774   6.779
 5373SOL    HW127998   3.784   2.783   6.744
 5373SOL    HW227999   3.923   2.738   6.706
 5374SOL     OW28000   4.046   0.943   4.107
 5374SOL    HW128001   4.004   0.859   4.089
 5374SOL    HW228002   4.018   1.000   4.035
 5375SOL     OW28003   0.125   2.533   8.370
 5375SOL    HW128004   0.171   2.492   8.443
 5375SOL    HW228005   0.037   2.549   8.404
 5376SOL     OW28006   4.600   2.051  15.151
 5376SOL    HW128007   4.664   2.118  15.127
 5376SOL    HW228008   4.516   2.096  15.149
 5377SOL     OW28009   1.722   2.313   4.653
 5377SOL    HW128010   1.737   2.311   4.748
 5377SOL    HW228011   1.783   2.249   4.618
 5378SOL     OW28012   0.445   3.092  19.614
 5378SOL    HW128013   0.455   3.047  19.698
 5378SOL    HW228014   0.486   3.034  19.550
 5379SOL     OW28015   3.072   4.622  13.069
 5379SOL    HW128016   3.155   4.670  13.075
 5379SOL    HW228017   3.012   4.671  13.125
 5380SOL     OW28018   1.147   1.870   3.177
 5380SOL    HW128019   1.062   1.828   3.162
 5380SOL    HW228020   1.126   1.952   3.222
 5381SOL     OW28021   1.815   2.727  18.101
 5381SOL    HW128022   1.845   2.669  18.171
 5381SOL    HW228023   1.720   2.733  18.114
 5382SOL     OW28024   3.142   3.201   3.802
 5382SOL    HW128025   3.115   3.148   3.878
 5382SOL    HW228026   3.061   3.242   3.771
 5383SOL     OW28027   4.773   2.849   4.601
 5383SOL    HW128028   0.055   2.907   4.594
 5383SOL    HW228029   4.732   2.852   4.515
 5384SOL     OW28030   4.083   1.247  21.064
 5384SOL    HW128031   4.144   1.277  20.997
 5384SOL    HW228032   4.119   1.164  21.095
 5385SOL     OW28033   0.480   0.684   4.666
 5385SOL    HW128034   0.437   0.652   4.587
 5385SOL    HW228035   0.518   0.768   4.641
 5386SOL     OW28036   2.555   1.839   4.394
 5386SOL    HW128037   2.626   1.804   4.341
 5386SOL    HW228038   2.598   1.890   4.463
 5387SOL     OW28039   0.074   0.354  15.313
 5387SOL    HW128040   0.132   0.429  15.321
 5387SOL    HW228041   0.065   0.319  15.402
 5388SOL     OW28042   3.260   2.945   3.374
 5388SOL    HW128043   3.199   2.874   3.354
 5388SOL    HW228044   3.346   2.909   3.352
 5389SOL     OW28045   4.480   3.979   4.506
 5389SOL    HW128046   4.474   3.933   4.422
 5389SOL    HW228047   4.478   3.910   4.572
 5390SOL     OW28048   3.901   3.253   7.468
 5390SOL    HW128049   3.957   3.331   7.470
 5390SOL    HW228050   3.961   3.180   7.461
 5391SOL     OW28051   2.824   0.842   2.656
 5391SOL    HW128052   2.757   0.866   2.592
 5391SOL    HW228053   2.789   0.765   2.699
 5392SOL     OW28054   3.524   1.968  12.448
 5392SOL    HW128055   3.614   1.983  12.420
 5392SOL    HW228056   3.471   1.989  12.371
 5393SOL     OW28057   3.779   0.568   1.393
 5393SOL    HW128058   3.755   0.660   1.386
 5393SOL    HW228059   3.864   0.567   1.436
 5394SOL     OW28060   4.325   4.378   4.185
 5394SOL    HW128061   4.292   4.462   4.220
 5394SOL    HW228062   4.287   4.312   4.243
 5395SOL     OW28063   4.415   2.204   0.225
 5395SOL    HW128064   4.493   2.224   0.276
 5395SOL    HW228065   4.422   2.261   0.148
 5396SOL     OW28066   4.178   1.811   3.744
 5396SOL    HW128067   4.160   1.719   3.764
 5396SOL    HW228068   4.094   1.855   3.759
 5397SOL     OW28069   2.167   3.174   5.011
 5397SOL    HW128070   2.201   3.214   4.931
 5397SOL    HW228071   2.228   3.203   5.080
 5398SOL     OW28072   3.090   3.636  18.371
 5398SOL    HW128073   3.031   3.602  18.439
 5398SOL    HW228074   3.153   3.566  18.356
 5399SOL     OW28075   0.721   2.594   1.320
 5399SOL    HW128076   0.795   2.550   1.362
 5399SOL    HW228077   0.708   2.674   1.370
 5400SOL     OW28078   1.507   3.911   3.612
 5400SOL    HW128079   1.507   3.864   3.529
 5400SOL    HW228080   1.561   3.857   3.670
 5401SOL     OW28081   1.332   0.905   0.286
 5401SOL    HW128082   1.409   0.958   0.302
 5401SOL    HW228083   1.321   0.906   0.191
 5402SOL     OW28084   2.362   3.860  16.654
 5402SOL    HW128085   2.387   3.927  16.717
 5402SOL    HW228086   2.441   3.842  16.605
 5403SOL     OW28087   4.548   1.581  17.552
 5403SOL    HW128088   4.475   1.630  17.589
 5403SOL    HW228089   4.623   1.640  17.562
 5404SOL     OW28090   4.235   4.423   3.920
 5404SOL    HW128091   4.274   4.507   3.895
 5404SOL    HW228092   4.268   4.407   4.009
 5405SOL     OW28093   3.341   3.192   3.176
 5405SOL    HW128094   3.431   3.176   3.205
 5405SOL    HW228095   3.327   3.285   3.193
 5406SOL     OW28096   4.438   1.025   3.512
 5406SOL    HW128097   4.460   0.950   3.458
 5406SOL    HW228098   4.449   0.994   3.602
 5407SOL     OW28099   4.685   1.073  16.878
 5407SOL    HW128100   4.776   1.082  16.905
 5407SOL    HW228101   4.664   1.156  16.834
 5408SOL     OW28102   0.878   0.587   3.775
 5408SOL    HW128103   0.866   0.680   3.793
 5408SOL    HW228104   0.969   0.569   3.797
 5409SOL     OW28105   1.088   1.436  11.882
 5409SOL    HW128106   1.011   1.391  11.915
 5409SOL    HW228107   1.161   1.398  11.931
 5410SOL     OW28108   2.962   4.388  16.411
 5410SOL    HW128109   3.019   4.383  16.487
 5410SOL    HW228110   3.018   4.420  16.340
 5411SOL     OW28111   3.879   4.166   2.675
 5411SOL    HW128112   3.785   4.152   2.669
 5411SOL    HW228113   3.896   4.241   2.619
 5412SOL     OW28114   3.381   3.673  13.215
 5412SOL    HW128115   3.378   3.720  13.131
 5412SOL    HW228116   3.331   3.728  13.275
 5413SOL     OW28117   1.994   3.662  19.917
 5413SOL    HW128118   1.965   3.697  19.832
 5413SOL    HW228119   1.918   3.612  19.948
 5414SOL     OW28120   3.555   0.520  18.539
 5414SOL    HW128121   3.565   0.515  18.444
 5414SOL    HW228122   3.631   0.474  18.574
 5415SOL     OW28123   4.698   4.691   6.200
 5415SOL    HW128124   4.756   4.763   6.175
 5415SOL    HW228125   4.750   4.612   6.185
 5416SOL     OW28126   2.047   4.460  17.203
 5416SOL    HW128127   2.029   4.549  17.173
 5416SOL    HW228128   2.041   4.406  17.124
 5417SOL     OW28129   4.079   0.501  17.046
 5417SOL    HW128130   4.024   0.521  16.970
 5417SOL    HW228131   4.030   0.435  17.094
 5418SOL     OW28132   1.990   1.181  18.102
 5418SOL    HW128133   2.072   1.225  18.080
 5418SOL    HW228134   1.922   1.235  18.063
 5419SOL     OW28135   3.460   0.715   2.163
 5419SOL    HW128136   3.482   0.805   2.139
 5419SOL    HW228137   3.488   0.662   2.088
 5420SOL     OW28138   2.031   0.478  20.773
 5420SOL    HW128139   2.067   0.393  20.748
 5420SOL    HW228140   1.943   0.458  20.804
 5421SOL     OW28141   0.970   1.398  15.581
 5421SOL    HW128142   1.014   1.444  15.652
 5421SOL    HW228143   0.972   1.458  15.508
 5422SOL     OW28144   3.657   1.132   4.517
 5422SOL    HW128145   3.567   1.111   4.492
 5422SOL    HW228146   3.694   1.172   4.438
 5423SOL     OW28147   4.007   0.732   3.802
 5423SOL    HW128148   3.945   0.708   3.871
 5423SOL    HW228149   4.089   0.749   3.848
 5424SOL     OW28150   0.975   4.158  13.863
 5424SOL    HW128151   0.949   4.250  13.872
 5424SOL    HW228152   0.936   4.129  13.781
 5425SOL     OW28153   1.010   1.218  19.987
 5425SOL    HW128154   0.953   1.249  19.917
 5425SOL    HW228155   0.950   1.179  20.051
 5426SOL     OW28156   1.807   4.754  18.925
 5426SOL    HW128157   1.812   4.667  18.885
 5426SOL    HW228158   1.814   0.021  18.852
 5427SOL     OW28159   2.651   1.461  19.812
 5427SOL    HW128160   2.687   1.398  19.750
 5427SOL    HW228161   2.696   1.442  19.895
 5428SOL     OW28162   2.737   1.603   0.798
 5428SOL    HW128163   2.680   1.527   0.784
 5428SOL    HW228164   2.823   1.575   0.769
 5429SOL     OW28165   3.962   3.634  20.103
 5429SOL    HW128166   3.947   3.542  20.126
 5429SOL    HW228167   3.965   3.634  20.007
 5430SOL     OW28168   1.746   0.326   5.890
 5430SOL    HW128169   1.775   0.266   5.821
 5430SOL    HW228170   1.770   0.413   5.858
 5431SOL     OW28171   3.827   1.465   2.317
 5431SOL    HW128172   3.786   1.526   2.256
 5431SOL    HW228173   3.891   1.417   2.265
 5432SOL     OW28174   3.707   0.796  18.238
 5432SOL    HW128175   3.690   0.870  18.179
 5432SOL    HW228176   3.682   0.828  18.325
 5433SOL     OW28177   0.362   0.761   2.746
 5433SOL    HW128178   0.282   0.814   2.748
 5433SOL    HW228179   0.423   0.808   2.802
 5434SOL     OW28180   1.420   1.872   3.160
 5434SOL    HW128181   1.324   1.871   3.167
 5434SOL    HW228182   1.448   1.928   3.232
 5435SOL     OW28183   2.582   1.416  21.070
 5435SOL    HW128184   2.578   1.435  20.976
 5435SOL    HW228185   2.503   1.364  21.087
 5436SOL     OW28186   3.325   0.339  16.520
 5436SOL    HW128187   3.292   0.356  16.431
 5436SOL    HW228188   3.379   0.261  16.510
 5437SOL     OW28189   2.310   0.988  19.546
 5437SOL    HW128190   2.277   0.931  19.476
 5437SOL    HW228191   2.244   1.057  19.554
 5438SOL     OW28192   0.889   3.073  20.707
 5438SOL    HW128193   0.933   3.026  20.637
 5438SOL    HW228194   0.944   3.149  20.724
 5439SOL     OW28195   3.206   4.069   7.526
 5439SOL    HW128196   3.114   4.091   7.540
 5439SOL    HW228197   3.215   4.065   7.431
 5440SOL     OW28198   1.621   1.198   0.660
 5440SOL    HW128199   1.563   1.255   0.609
 5440SOL    HW228200   1.706   1.242   0.659
 5441SOL     OW28201   3.801   1.963   4.402
 5441SOL    HW128202   3.727   1.959   4.462
 5441SOL    HW228203   3.763   1.953   4.315
 5442SOL     OW28204   3.720   0.164  20.214
 5442SOL    HW128205   3.811   0.132  20.210
 5442SOL    HW228206   3.675   0.100  20.269
 5443SOL     OW28207   2.125   3.479   3.538
 5443SOL    HW128208   2.103   3.427   3.615
 5443SOL    HW228209   2.075   3.439   3.467
 5444SOL     OW28210   4.341   1.151   2.511
 5444SOL    HW128211   4.393   1.080   2.473
 5444SOL    HW228212   4.268   1.106   2.554
 5445SOL     OW28213   0.394   3.862   3.704
 5445SOL    HW128214   0.408   3.806   3.781
 5445SOL    HW228215   0.395   3.951   3.739
 5446SOL     OW28216   2.307   4.193  13.410
 5446SOL    HW128217   2.396   4.200  13.375
 5446SOL    HW228218   2.311   4.238  13.495
 5447SOL     OW28219   3.993   1.217   3.744
 5447SOL    HW128220   3.930   1.173   3.801
 5447SOL    HW228221   4.077   1.207   3.789
 5448SOL     OW28222   4.458   4.299  18.693
 5448SOL    HW128223   4.437   4.354  18.768
 5448SOL    HW228224   4.515   4.231  18.729
 5449SOL     OW28225   3.500   3.591   1.374
 5449SOL    HW128226   3.591   3.561   1.370
 5449SOL    HW228227   3.462   3.541   1.446
 5450SOL     OW28228   2.731   3.062   0.776
 5450SOL    HW128229   2.705   2.979   0.816
 5450SOL    HW228230   2.739   3.042   0.683
 5451SOL     OW28231   2.581   3.824  18.715
 5451SOL    HW128232   2.578   3.918  18.696
 5451SOL    HW228233   2.628   3.818  18.798
 5452SOL     OW28234   2.233   3.413   5.834
 5452SOL    HW128235   2.300   3.345   5.837
 5452SOL    HW228236   2.220   3.430   5.741
 5453SOL     OW28237   1.794   4.580  20.244
 5453SOL    HW128238   1.860   4.646  20.226
 5453SOL    HW228239   1.717   4.609  20.194
 5454SOL     OW28240   1.048   0.559  17.299
 5454SOL    HW128241   1.010   0.482  17.340
 5454SOL    HW228242   1.065   0.619  17.371
 5455SOL     OW28243   0.965   2.397  19.894
 5455SOL    HW128244   0.911   2.451  19.837
 5455SOL    HW228245   0.949   2.308  19.865
 5456SOL     OW28246   2.537   2.836   7.914
 5456SOL    HW128247   2.446   2.812   7.897
 5456SOL    HW228248   2.567   2.876   7.833
 5457SOL     OW28249   2.507   3.736   2.507
 5457SOL    HW128250   2.458   3.664   2.467
 5457SOL    HW228251   2.561   3.770   2.435
 5458SOL     OW28252   2.506   0.003  20.678
 5458SOL    HW128253   2.459   0.075  20.721
 5458SOL    HW228254   2.591   0.002  20.722
 5459SOL     OW28255   3.395   1.043   4.351
 5459SOL    HW128256   3.342   1.009   4.279
 5459SOL    HW228257   3.338   1.037   4.428
 5460SOL     OW28258   2.923   1.248   4.137
 5460SOL    HW128259   2.868   1.211   4.206
 5460SOL    HW228260   3.012   1.224   4.161
 5461SOL     OW28261   0.232   1.776   5.448
 5461SOL    HW128262   0.302   1.751   5.388
 5461SOL    HW228263   0.151   1.752   5.403
 5462SOL     OW28264   3.274   1.750   2.858
 5462SOL    HW128265   3.282   1.689   2.931
 5462SOL    HW228266   3.204   1.714   2.804
 5463SOL     OW28267   0.737   1.643   1.194
 5463SOL    HW128268   0.827   1.663   1.220
 5463SOL    HW228269   0.745   1.606   1.106
 5464SOL     OW28270   2.910   3.506   5.847
 5464SOL    HW128271   3.005   3.511   5.853
 5464SOL    HW228272   2.882   3.477   5.934
 5465SOL     OW28273   1.622   3.137   2.899
 5465SOL    HW128274   1.626   3.173   2.988
 5465SOL    HW228275   1.543   3.083   2.899
 5466SOL     OW28276   2.482   1.073   5.061
 5466SOL    HW128277   2.436   1.031   5.134
 5466SOL    HW228278   2.455   1.024   4.984
 5467SOL     OW28279   2.681   2.082  18.216
 5467SOL    HW128280   2.735   2.102  18.292
 5467SOL    HW228281   2.738   2.031  18.159
 5468SOL     OW28282   1.924   2.578  20.630
 5468SOL    HW128283   1.849   2.519  20.635
 5468SOL    HW228284   1.968   2.568  20.714
 5469SOL     OW28285   0.731   4.635   3.815
 5469SOL    HW128286   0.685   4.639   3.899
 5469SOL    HW228287   0.823   4.650   3.837
 5470SOL     OW28288   1.488   3.403   1.304
 5470SOL    HW128289   1.525   3.337   1.363
 5470SOL    HW228290   1.496   3.365   1.217
 5471SOL     OW28291   4.403   1.879  14.405
 5471SOL    HW128292   4.478   1.938  14.412
 5471SOL    HW228293   4.418   1.832  14.322
 5472SOL     OW28294   1.671   3.905  21.066
 5472SOL    HW128295   1.742   3.908  21.002
 5472SOL    HW228296   1.596   3.870  21.018
 5473SOL     OW28297   3.645   2.772   2.623
 5473SOL    HW128298   3.551   2.768   2.604
 5473SOL    HW228299   3.684   2.796   2.539
 5474SOL     OW28300   2.500   1.096   5.409
 5474SOL    HW128301   2.480   1.011   5.447
 5474SOL    HW228302   2.581   1.081   5.359
 5475SOL     OW28303   1.566   0.974  16.223
 5475SOL    HW128304   1.655   0.978  16.259
 5475SOL    HW228305   1.577   0.935  16.136
 5476SOL     OW28306   1.246   1.953  19.332
 5476SOL    HW128307   1.275   1.915  19.415
 5476SOL    HW228308   1.244   1.879  19.272
 5477SOL     OW28309   3.536   1.523  15.549
 5477SOL    HW128310   3.469   1.588  15.528
 5477SOL    HW228311   3.592   1.566  15.615
 5478SOL     OW28312   4.465   3.532  20.904
 5478SOL    HW128313   4.494   3.587  20.977
 5478SOL    HW228314   4.403   3.470  20.943
 5479SOL     OW28315   0.173   1.422   0.845
 5479SOL    HW128316   0.231   1.498   0.854
 5479SOL    HW228317   0.167   1.387   0.934
 5480SOL     OW28318   3.780   1.905   9.630
 5480SOL    HW128319   3.808   1.817   9.654
 5480SOL    HW228320   3.858   1.960   9.646
 5481SOL     OW28321   4.548   4.487   0.840
 5481SOL    HW128322   4.556   4.520   0.930
 5481SOL    HW228323   4.498   4.553   0.794
 5482SOL     OW28324   2.575   2.329   0.400
 5482SOL    HW128325   2.612   2.268   0.465
 5482SOL    HW228326   2.598   2.291   0.316
 5483SOL     OW28327   2.089   1.653  14.370
 5483SOL    HW128328   2.023   1.670  14.303
 5483SOL    HW228329   2.135   1.737  14.379
 5484SOL     OW28330   3.549   3.446   2.436
 5484SOL    HW128331   3.582   3.526   2.396
 5484SOL    HW228332   3.457   3.464   2.455
 5485SOL     OW28333   2.962   0.162   2.450
 5485SOL    HW128334   2.953   0.237   2.509
 5485SOL    HW228335   3.027   0.105   2.493
 5486SOL     OW28336   1.676   2.303   5.137
 5486SOL    HW128337   1.685   2.397   5.126
 5486SOL    HW228338   1.638   2.272   5.055
 5487SOL     OW28339   0.855   2.002   1.688
 5487SOL    HW128340   0.925   1.970   1.745
 5487SOL    HW228341   0.877   1.969   1.601
 5488SOL     OW28342   4.351   0.916  19.587
 5488SOL    HW128343   4.407   0.842  19.610
 5488SOL    HW228344   4.327   0.901  19.496
 5489SOL     OW28345   3.696   2.081   1.225
 5489SOL    HW128346   3.728   2.012   1.284
 5489SOL    HW228347   3.653   2.033   1.154
 5490SOL     OW28348   2.698   3.655   0.086
 5490SOL    HW128349   2.741   3.588   0.139
 5490SOL    HW228350   2.762   3.725   0.079
 5491SOL     OW28351   3.025   0.738   4.804
 5491SOL    HW128352   2.980   0.816   4.837
 5491SOL    HW228353   2.955   0.686   4.764
 5492SOL     OW28354   4.332   0.490   0.339
 5492SOL    HW128355   4.272   0.425   0.376
 5492SOL    HW228356   4.367   0.535   0.415
 5493SOL     OW28357   0.050   0.014  18.219
 5493SOL    HW128358   4.776   0.078  18.199
 5493SOL    HW228359   0.093   0.049  18.297
 5494SOL     OW28360   2.060   4.270  18.676
 5494SOL    HW128361   2.082   4.226  18.594
 5494SOL    HW228362   1.989   4.330  18.653
 5495SOL     OW28363   3.030   2.725   6.983
 5495SOL    HW128364   3.044   2.758   6.894
 5495SOL    HW228365   2.937   2.703   6.985
 5496SOL     OW28366   0.178   0.156   2.765
 5496SOL    HW128367   0.272   0.169   2.780
 5496SOL    HW228368   0.173   0.068   2.726
 5497SOL     OW28369   4.574   2.610   5.465
 5497SOL    HW128370   4.487   2.605   5.506
 5497SOL    HW228371   4.555   2.626   5.372
 5498SOL     OW28372   4.534   3.551  17.451
 5498SOL    HW128373   4.617   3.598  17.464
 5498SOL    HW228374   4.541   3.513  17.364
 5499SOL     OW28375   4.285   0.938  17.138
 5499SOL    HW128376   4.362   0.928  17.082
 5499SOL    HW228377   4.216   0.890  17.092
 5500SOL     OW28378   1.574   2.043  15.991
 5500SOL    HW128379   1.536   1.960  16.017
 5500SOL    HW228380   1.592   2.034  15.897
 5501SOL     OW28381   4.420   2.673  16.464
 5501SOL    HW128382   4.423   2.578  16.471
 5501SOL    HW228383   4.336   2.691  16.421
 5502SOL     OW28384   3.997   1.848  16.445
 5502SOL    HW128385   4.029   1.878  16.360
 5502SOL    HW228386   3.993   1.753  16.438
 5503SOL     OW28387   4.185   1.323  18.796
 5503SOL    HW128388   4.093   1.299  18.803
 5503SOL    HW228389   4.215   1.279  18.716
 5504SOL     OW28390   1.031   4.284  17.042
 5504SOL    HW128391   1.041   4.191  17.064
 5504SOL    HW228392   0.937   4.300  17.047
 5505SOL     OW28393   3.682   3.915   4.604
 5505SOL    HW128394   3.706   3.936   4.695
 5505SOL    HW228395   3.655   3.998   4.566
 5506SOL     OW28396   3.169   0.843   1.573
 5506SOL    HW128397   3.242   0.822   1.516
 5506SOL    HW228398   3.129   0.758   1.594
 5507SOL     OW28399   1.536   4.048   5.680
 5507SOL    HW128400   1.499   4.134   5.662
 5507SOL    HW228401   1.522   4.035   5.774
 5508SOL     OW28402   2.596   2.572   1.147
 5508SOL    HW128403   2.588   2.571   1.243
 5508SOL    HW228404   2.507   2.583   1.116
 5509SOL     OW28405   3.579   3.656   4.501
 5509SOL    HW128406   3.616   3.738   4.534
 5509SOL    HW228407   3.540   3.615   4.578
 5510SOL     OW28408   4.463   0.800  18.080
 5510SOL    HW128409   4.505   0.812  18.165
 5510SOL    HW228410   4.405   0.876  18.071
 5511SOL     OW28411   3.183   0.812   1.850
 5511SOL    HW128412   3.251   0.877   1.868
 5511SOL    HW228413   3.122   0.856   1.791
 5512SOL     OW28414   2.152   1.451  18.758
 5512SOL    HW128415   2.160   1.404  18.675
 5512SOL    HW228416   2.062   1.483  18.759
 5513SOL     OW28417   3.752   3.004   9.314
 5513SOL    HW128418   3.834   2.957   9.324
 5513SOL    HW228419   3.696   2.944   9.265
 5514SOL     OW28420   4.220   4.188  20.429
 5514SOL    HW128421   4.213   4.095  20.450
 5514SOL    HW228422   4.136   4.225  20.456
 5515SOL     OW28423   2.475   3.278  18.309
 5515SOL    HW128424   2.396   3.259  18.361
 5515SOL    HW228425   2.547   3.248  18.364
 5516SOL     OW28426   3.929   0.999   5.601
 5516SOL    HW128427   3.882   1.074   5.638
 5516SOL    HW228428   3.993   1.038   5.541
 5517SOL     OW28429   3.224   0.942  20.935
 5517SOL    HW128430   3.230   0.940  20.839
 5517SOL    HW228431   3.228   0.850  20.962
 5518SOL     OW28432   4.349   1.508  17.839
 5518SOL    HW128433   4.337   1.572  17.769
 5518SOL    HW228434   4.348   1.560  17.919
 5519SOL     OW28435   4.093   0.288  14.558
 5519SOL    HW128436   4.171   0.338  14.537
 5519SOL    HW228437   4.078   0.233  14.482
 5520SOL     OW28438   3.750   4.302   0.725
 5520SOL    HW128439   3.710   4.251   0.654
 5520SOL    HW228440   3.685   4.369   0.746
 5521SOL     OW28441   3.970   2.282   1.693
 5521SOL    HW128442   3.968   2.227   1.771
 5521SOL    HW228443   4.061   2.314   1.689
 5522SOL     OW28444   0.087   3.396   3.114
 5522SOL    HW128445   0.091   3.362   3.024
 5522SOL    HW228446   0.050   3.324   3.165
 5523SOL     OW28447   2.495   1.266   2.434
 5523SOL    HW128448   2.442   1.205   2.383
 5523SOL    HW228449   2.541   1.319   2.368
 5524SOL     OW28450   2.524   1.142  17.332
 5524SOL    HW128451   2.547   1.049  17.340
 5524SOL    HW228452   2.436   1.142  17.294
 5525SOL     OW28453   3.234   0.201   7.411
 5525SOL    HW128454   3.242   0.290   7.375
 5525SOL    HW228455   3.158   0.164   7.368
 5526SOL     OW28456   3.436   3.003  18.126
 5526SOL    HW128457   3.438   2.907  18.128
 5526SOL    HW228458   3.525   3.028  18.102
 5527SOL     OW28459   3.779   1.282  20.762
 5527SOL    HW128460   3.861   1.234  20.751
 5527SOL    HW228461   3.711   1.219  20.740
 5528SOL     OW28462   3.175   2.625  19.928
 5528SOL    HW128463   3.112   2.672  19.873
 5528SOL    HW228464   3.252   2.682  19.930
 5529SOL     OW28465   0.113   1.437   5.744
 5529SOL    HW128466   0.140   1.521   5.781
 5529SOL    HW228467   0.058   1.460   5.669
 5530SOL     OW28468   0.334   0.969   2.462
 5530SOL    HW128469   0.254   1.019   2.447
 5530SOL    HW228470   0.312   0.880   2.436
 5531SOL     OW28471   3.994   0.952   1.039
 5531SOL    HW128472   3.985   0.892   0.965
 5531SOL    HW228473   4.086   0.976   1.039
 5532SOL     OW28474   3.254   0.911  16.806
 5532SOL    HW128475   3.347   0.892  16.816
 5532SOL    HW228476   3.211   0.826  16.814
 5533SOL     OW28477   2.489   3.253   3.532
 5533SOL    HW128478   2.458   3.197   3.460
 5533SOL    HW228479   2.413   3.265   3.588
 5534SOL     OW28480   1.165   0.834  13.092
 5534SOL    HW128481   1.247   0.784  13.098
 5534SOL    HW228482   1.097   0.771  13.114
 5535SOL     OW28483   4.708   0.808   5.086
 5535SOL    HW128484   4.692   0.774   4.998
 5535SOL    HW228485   4.680   0.737   5.145
 5536SOL     OW28486   2.093   4.331  12.410
 5536SOL    HW128487   2.158   4.397  12.437
 5536SOL    HW228488   2.098   4.330  12.315
 5537SOL     OW28489   4.038   4.606  17.088
 5537SOL    HW128490   4.028   4.700  17.070
 5537SOL    HW228491   4.112   4.601  17.148
 5538SOL     OW28492   1.745   2.433   0.420
 5538SOL    HW128493   1.681   2.422   0.350
 5538SOL    HW228494   1.710   2.504   0.473
 5539SOL     OW28495   3.419   0.745  15.365
 5539SOL    HW128496   3.406   0.667  15.312
 5539SOL    HW228497   3.513   0.746  15.383
 5540SOL     OW28498   0.899   2.894  14.754
 5540SOL    HW128499   0.871   2.957  14.688
 5540SOL    HW228500   0.817   2.866  14.796
 5541SOL     OW28501   3.823   4.389   3.203
 5541SOL    HW128502   3.733   4.355   3.206
 5541SOL    HW228503   3.819   4.471   3.253
 5542SOL     OW28504   3.397   0.855   3.079
 5542SOL    HW128505   3.415   0.910   3.003
 5542SOL    HW228506   3.391   0.918   3.152
 5543SOL     OW28507   1.903   4.752  15.869
 5543SOL    HW128508   1.903   0.050  15.897
 5543SOL    HW228509   1.996   4.728  15.867
 5544SOL     OW28510   1.821   1.516   1.450
 5544SOL    HW128511   1.823   1.431   1.494
 5544SOL    HW228512   1.741   1.514   1.397
 5545SOL     OW28513   4.550   2.027  16.401
 5545SOL    HW128514   4.594   2.011  16.484
 5545SOL    HW228515   4.542   1.940  16.361
 5546SOL     OW28516   1.689   2.666  15.210
 5546SOL    HW128517   1.597   2.666  15.236
 5546SOL    HW228518   1.734   2.709  15.283
 5547SOL     OW28519   2.978   1.986   8.406
 5547SOL    HW128520   3.041   2.045   8.447
 5547SOL    HW228521   2.971   2.018   8.316
 5548SOL     OW28522   4.536   2.399   2.789
 5548SOL    HW128523   4.628   2.383   2.770
 5548SOL    HW228524   4.514   2.338   2.859
 5549SOL     OW28525   0.905   0.691  20.868
 5549SOL    HW128526   0.967   0.760  20.844
 5549SOL    HW228527   0.819   0.726  20.844
 5550SOL     OW28528   4.306   3.247  20.281
 5550SOL    HW128529   4.327   3.296  20.201
 5550SOL    HW228530   4.360   3.169  20.276
 5551SOL     OW28531   1.691   3.744   3.773
 5551SOL    HW128532   1.716   3.778   3.859
 5551SOL    HW228533   1.671   3.651   3.789
 5552SOL     OW28534   0.189   1.492   6.044
 5552SOL    HW128535   0.169   1.402   6.066
 5552SOL    HW228536   0.125   1.544   6.093
 5553SOL     OW28537   4.387   4.450  16.687
 5553SOL    HW128538   4.423   4.365  16.709
 5553SOL    HW228539   4.338   4.476  16.765
 5554SOL     OW28540   0.298   3.731   0.492
 5554SOL    HW128541   0.285   3.712   0.399
 5554SOL    HW228542   0.210   3.737   0.528
 5555SOL     OW28543   0.919   3.769   4.504
 5555SOL    HW128544   0.904   3.791   4.596
 5555SOL    HW228545   0.930   3.674   4.503
 5556SOL     OW28546   2.637   2.213  20.625
 5556SOL    HW128547   2.633   2.304  20.655
 5556SOL    HW228548   2.672   2.219  20.536
 5557SOL     OW28549   3.663   1.471  19.610
 5557SOL    HW128550   3.620   1.462  19.525
 5557SOL    HW228551   3.755   1.485  19.589
 5558SOL     OW28552   1.113   3.699  18.160
 5558SOL    HW128553   1.039   3.642  18.141
 5558SOL    HW228554   1.076   3.770  18.212
 5559SOL     OW28555   4.741   0.401  16.801
 5559SOL    HW128556   4.716   0.493  16.790
 5559SOL    HW228557   4.730   0.362  16.714
 5560SOL     OW28558   4.542   4.748   5.266
 5560SOL    HW128559   4.607   4.724   5.333
 5560SOL    HW228560   4.518   4.664   5.226
 5561SOL     OW28561   0.477   3.643   5.479
 5561SOL    HW128562   0.534   3.573   5.510
 5561SOL    HW228563   0.462   3.624   5.387
 5562SOL     OW28564   2.669   3.512   5.332
 5562SOL    HW128565   2.733   3.498   5.401
 5562SOL    HW228566   2.700   3.458   5.259
 5563SOL     OW28567   0.363   4.527   2.478
 5563SOL    HW128568   0.451   4.493   2.490
 5563SOL    HW228569   0.358   4.547   2.384
 5564SOL     OW28570   1.994   3.240  16.804
 5564SOL    HW128571   2.012   3.222  16.896
 5564SOL    HW228572   1.961   3.330  16.803
 5565SOL     OW28573   0.232   1.298   1.789
 5565SOL    HW128574   0.195   1.376   1.829
 5565SOL    HW228575   0.316   1.326   1.753
 5566SOL     OW28576   4.105   0.754  18.445
 5566SOL    HW128577   4.165   0.697  18.398
 5566SOL    HW228578   4.025   0.703  18.456
 5567SOL     OW28579   3.353   3.473  18.390
 5567SOL    HW128580   3.393   3.550  18.430
 5567SOL    HW228581   3.426   3.412  18.377
 5568SOL     OW28582   0.174   3.875   4.461
 5568SOL    HW128583   0.141   3.965   4.454
 5568SOL    HW228584   0.105   3.829   4.510
 5569SOL     OW28585   2.632   0.886   6.002
 5569SOL    HW128586   2.705   0.827   5.983
 5569SOL    HW228587   2.644   0.960   5.943
 5570SOL     OW28588   4.588   3.723   4.851
 5570SOL    HW128589   4.523   3.743   4.783
 5570SOL    HW228590   4.547   3.751   4.933
 5571SOL     OW28591   2.913   0.731   0.327
 5571SOL    HW128592   2.967   0.810   0.323
 5571SOL    HW228593   2.939   0.689   0.409
 5572SOL     OW28594   2.528   2.894  19.813
 5572SOL    HW128595   2.526   2.954  19.888
 5572SOL    HW228596   2.440   2.857  19.810
 5573SOL     OW28597   3.412   2.383   6.807
 5573SOL    HW128598   3.447   2.378   6.896
 5573SOL    HW228599   3.317   2.375   6.818
 5574SOL     OW28600   1.835   0.999   3.411
 5574SOL    HW128601   1.877   0.991   3.497
 5574SOL    HW228602   1.898   1.049   3.359
 5575SOL     OW28603   0.029   3.001  19.814
 5575SOL    HW128604   0.065   3.050  19.740
 5575SOL    HW228605   4.768   2.934  19.775
 5576SOL     OW28606   2.015   1.075  19.551
 5576SOL    HW128607   1.980   1.104  19.635
 5576SOL    HW228608   2.023   1.155  19.499
 5577SOL     OW28609   1.096   1.039   4.316
 5577SOL    HW128610   1.022   1.099   4.316
 5577SOL    HW228611   1.066   0.963   4.266
 5578SOL     OW28612   3.071   1.130  20.449
 5578SOL    HW128613   3.131   1.175  20.390
 5578SOL    HW228614   2.987   1.133  20.404
 5579SOL     OW28615   3.536   1.585  16.912
 5579SOL    HW128616   3.608   1.532  16.879
 5579SOL    HW228617   3.571   1.623  16.993
 5580SOL     OW28618   2.507   1.982   4.106
 5580SOL    HW128619   2.596   2.014   4.088
 5580SOL    HW228620   2.505   1.969   4.201
 5581SOL     OW28621   0.141   4.145  17.761
 5581SOL    HW128622   0.115   4.185  17.844
 5581SOL    HW228623   0.211   4.084  17.785
 5582SOL     OW28624   1.379   1.309  13.064
 5582SOL    HW128625   1.461   1.317  13.113
 5582SOL    HW228626   1.310   1.311  13.131
 5583SOL     OW28627   1.747   4.738  13.835
 5583SOL    HW128628   1.670   4.704  13.881
 5583SOL    HW228629   1.713   4.765  13.749
 5584SOL     OW28630   0.854   2.693  19.162
 5584SOL    HW128631   0.930   2.744  19.191
 5584SOL    HW228632   0.892   2.618  19.116
 5585SOL     OW28633   1.717   4.398   6.018
 5585SOL    HW128634   1.792   4.338   6.024
 5585SOL    HW228635   1.754   4.478   5.982
 5586SOL     OW28636   4.183   0.243   1.387
 5586SOL    HW128637   4.269   0.230   1.346
 5586SOL    HW228638   4.188   0.331   1.425
 5587SOL     OW28639   0.433   4.207  19.436
 5587SOL    HW128640   0.457   4.240  19.523
 5587SOL    HW228641   0.515   4.174  19.399
 5588SOL     OW28642   2.202   2.584  16.895
 5588SOL    HW128643   2.286   2.592  16.939
 5588SOL    HW228644   2.222   2.536  16.814
 5589SOL     OW28645   3.198   0.416   2.229
 5589SOL    HW128646   3.112   0.449   2.202
 5589SOL    HW228647   3.222   0.470   2.304
 5590SOL     OW28648   2.753   1.198  17.756
 5590SOL    HW128649   2.763   1.139  17.682
 5590SOL    HW228650   2.690   1.263  17.727
 5591SOL     OW28651   3.259   0.915  17.494
 5591SOL    HW128652   3.332   0.955  17.446
 5591SOL    HW228653   3.209   0.989  17.528
 5592SOL     OW28654   3.130   3.853   3.751
 5592SOL    HW128655   3.200   3.801   3.711
 5592SOL    HW228656   3.154   3.944   3.731
 5593SOL     OW28657   3.134   1.483  17.864
 5593SOL    HW128658   3.164   1.453  17.950
 5593SOL    HW228659   3.047   1.445  17.854
 5594SOL     OW28660   1.265   1.942   5.631
 5594SOL    HW128661   1.315   1.948   5.712
 5594SOL    HW228662   1.319   1.987   5.566
 5595SOL     OW28663   3.293   3.163   5.502
 5595SOL    HW128664   3.299   3.203   5.589
 5595SOL    HW228665   3.275   3.237   5.443
 5596SOL     OW28666   0.042   2.283   6.186
 5596SOL    HW128667   0.066   2.342   6.114
 5596SOL    HW228668   0.070   2.330   6.265
 5597SOL     OW28669   1.648   2.457  15.928
 5597SOL    HW128670   1.620   2.395  15.861
 5597SOL    HW228671   1.744   2.453  15.926
 5598SOL     OW28672   1.880   4.461   0.076
 5598SOL    HW128673   1.843   4.404   0.143
 5598SOL    HW228674   1.919   4.533   0.126
 5599SOL     OW28675   4.562   0.761   4.124
 5599SOL    HW128676   4.549   0.666   4.126
 5599SOL    HW228677   4.520   0.793   4.204
 5600SOL     OW28678   2.476   2.685   2.197
 5600SOL    HW128679   2.390   2.698   2.158
 5600SOL    HW228680   2.531   2.654   2.125
 5601SOL     OW28681   2.883   2.604   5.125
 5601SOL    HW128682   2.940   2.669   5.166
 5601SOL    HW228683   2.845   2.649   5.050
 5602SOL     OW28684   1.070   3.439   0.216
 5602SOL    HW128685   1.088   3.491   0.295
 5602SOL    HW228686   1.143   3.377   0.211
 5603SOL     OW28687   4.541   1.065   4.258
 5603SOL    HW128688   4.513   0.993   4.313
 5603SOL    HW228689   4.637   1.059   4.259
 5604SOL     OW28690   1.136   3.771   4.894
 5604SOL    HW128691   1.086   3.735   4.821
 5604SOL    HW228692   1.222   3.790   4.858
 5605SOL     OW28693   2.906   1.092  18.756
 5605SOL    HW128694   2.965   1.165  18.771
 5605SOL    HW228695   2.878   1.102  18.665
 5606SOL     OW28696   1.859   3.068  17.130
 5606SOL    HW128697   1.809   3.097  17.055
 5606SOL    HW228698   1.941   3.034  17.093
 5607SOL     OW28699   1.636   1.905   3.723
 5607SOL    HW128700   1.629   1.821   3.677
 5607SOL    HW228701   1.560   1.955   3.692
 5608SOL     OW28702   4.591   0.050   6.630
 5608SOL    HW128703   4.505   0.085   6.655
 5608SOL    HW228704   4.645   0.061   6.708
 5609SOL     OW28705   3.097   4.216  13.816
 5609SOL    HW128706   3.045   4.255  13.746
 5609SOL    HW228707   3.053   4.133  13.836
 5610SOL     OW28708   4.565   2.625   3.969
 5610SOL    HW128709   4.559   2.598   4.061
 5610SOL    HW228710   4.604   2.712   3.972
 5611SOL     OW28711   2.706   0.279   4.512
 5611SOL    HW128712   2.637   0.249   4.571
 5611SOL    HW228713   2.672   0.360   4.474
 5612SOL     OW28714   2.486   2.126   1.825
 5612SOL    HW128715   2.426   2.188   1.784
 5612SOL    HW228716   2.469   2.135   1.919
 5613SOL     OW28717   2.425   2.948   4.771
 5613SOL    HW128718   2.514   2.933   4.802
 5613SOL    HW228719   2.385   2.861   4.769
 5614SOL     OW28720   4.321   3.499  18.645
 5614SOL    HW128721   4.228   3.505  18.667
 5614SOL    HW228722   4.351   3.590  18.643
 5615SOL     OW28723   4.537   2.513  15.110
 5615SOL    HW128724   4.541   2.568  15.033
 5615SOL    HW228725   4.474   2.556  15.168
 5616SOL     OW28726   0.048   4.586   1.084
 5616SOL    HW128727   4.749   4.571   1.071
 5616SOL    HW228728   0.069   4.539   1.165
 5617SOL     OW28729   0.964   3.931   2.052
 5617SOL    HW128730   1.030   3.975   1.999
 5617SOL    HW228731   0.918   4.002   2.097
 5618SOL     OW28732   1.044   4.538  16.687
 5618SOL    HW128733   1.114   4.574  16.740
 5618SOL    HW228734   0.966   4.546  16.742
 5619SOL     OW28735   1.238   2.646  19.721
 5619SOL    HW128736   1.244   2.705  19.646
 5619SOL    HW228737   1.156   2.598  19.707
 5620SOL     OW28738   0.979   3.027   5.502
 5620SOL    HW128739   1.068   3.062   5.507
 5620SOL    HW228740   0.953   3.016   5.593
 5621SOL     OW28741   4.691   3.228   6.787
 5621SOL    HW128742   4.613   3.251   6.737
 5621SOL    HW228743   4.714   3.308   6.834
 5622SOL     OW28744   0.946   2.217  17.154
 5622SOL    HW128745   0.930   2.125  17.134
 5622SOL    HW228746   0.974   2.217  17.246
 5623SOL     OW28747   2.031   2.124   1.402
 5623SOL    HW128748   2.058   2.210   1.434
 5623SOL    HW228749   1.957   2.099   1.458
 5624SOL     OW28750   1.138   2.259   0.886
 5624SOL    HW128751   1.179   2.343   0.904
 5624SOL    HW228752   1.168   2.236   0.798
 5625SOL     OW28753   1.485   2.946  19.588
 5625SOL    HW128754   1.511   2.989  19.670
 5625SOL    HW228755   1.563   2.898  19.561
 5626SOL     OW28756   1.230   1.862  15.389
 5626SOL    HW128757   1.292   1.828  15.325
 5626SOL    HW228758   1.148   1.871  15.340
 5627SOL     OW28759   0.971   2.540  17.689
 5627SOL    HW128760   0.919   2.564  17.613
 5627SOL    HW228761   0.993   2.624  17.730
 5628SOL     OW28762   3.235   4.126  14.907
 5628SOL    HW128763   3.140   4.139  14.902
 5628SOL    HW228764   3.262   4.181  14.981
 5629SOL     OW28765   2.437   2.566   3.764
 5629SOL    HW128766   2.384   2.504   3.815
 5629SOL    HW228767   2.459   2.518   3.684
 5630SOL     OW28768   3.528   2.520   0.058
 5630SOL    HW128769   3.498   2.477   0.138
 5630SOL    HW228770   3.501   2.612   0.068
 5631SOL     OW28771   2.076   4.015   2.565
 5631SOL    HW128772   2.165   4.051   2.559
 5631SOL    HW228773   2.086   3.936   2.618
 5632SOL     OW28774   3.678   2.528   3.594
 5632SOL    HW128775   3.632   2.526   3.510
 5632SOL    HW228776   3.723   2.444   3.599
 5633SOL     OW28777   3.071   3.839  16.008
 5633SOL    HW128778   3.162   3.812  15.993
 5633SOL    HW228779   3.078   3.927  16.045
 5634SOL     OW28780   0.509   1.691  17.866
 5634SOL    HW128781   0.547   1.647  17.942
 5634SOL    HW228782   0.470   1.619  17.815
 5635SOL     OW28783   1.392   2.145   4.400
 5635SOL    HW128784   1.411   2.075   4.338
 5635SOL    HW228785   1.312   2.186   4.366
 5636SOL     OW28786   4.413   0.027  15.477
 5636SOL    HW128787   4.491   0.078  15.453
 5636SOL    HW228788   4.425   4.737  15.433
 5637SOL     OW28789   2.809   1.730   2.124
 5637SOL    HW128790   2.816   1.676   2.203
 5637SOL    HW228791   2.738   1.690   2.074
 5638SOL     OW28792   4.299   3.916   4.098
 5638SOL    HW128793   4.343   3.955   4.023
 5638SOL    HW228794   4.279   3.989   4.156
 5639SOL     OW28795   4.110   1.299  19.142
 5639SOL    HW128796   4.056   1.238  19.092
 5639SOL    HW228797   4.169   1.242  19.193
 5640SOL     OW28798   2.743   2.961  16.514
 5640SOL    HW128799   2.728   2.878  16.469
 5640SOL    HW228800   2.684   2.960  16.589
 5641SOL     OW28801   3.335   2.120   4.798
 5641SOL    HW128802   3.270   2.181   4.835
 5641SOL    HW228803   3.309   2.035   4.832
 5642SOL     OW28804   3.657   2.822   6.040
 5642SOL    HW128805   3.631   2.767   6.115
 5642SOL    HW228806   3.649   2.764   5.964
 5643SOL     OW28807   4.117   0.442  15.709
 5643SOL    HW128808   4.196   0.438  15.762
 5643SOL    HW228809   4.084   0.353  15.708
 5644SOL     OW28810   1.690   0.815  20.671
 5644SOL    HW128811   1.633   0.869  20.616
 5644SOL    HW228812   1.742   0.765  20.608
 5645SOL     OW28813   2.972   1.279   5.168
 5645SOL    HW128814   2.997   1.188   5.149
 5645SOL    HW228815   2.989   1.290   5.261
 5646SOL     OW28816   2.407   1.906  17.684
 5646SOL    HW128817   2.382   1.844  17.615
 5646SOL    HW228818   2.438   1.851  17.755
 5647SOL     OW28819   1.267   4.099  14.270
 5647SOL    HW128820   1.258   4.192  14.247
 5647SOL    HW228821   1.193   4.082  14.329
 5648SOL     OW28822   2.351   2.900   1.790
 5648SOL    HW128823   2.344   2.890   1.695
 5648SOL    HW228824   2.443   2.886   1.809
 5649SOL     OW28825   2.224   1.947   1.350
 5649SOL    HW128826   2.187   1.873   1.301
 5649SOL    HW228827   2.148   2.002   1.370
 5650SOL     OW28828   3.899   1.525   2.592
 5650SOL    HW128829   3.934   1.612   2.608
 5650SOL    HW228830   3.874   1.525   2.499
 5651SOL     OW28831   3.333   2.808   5.868
 5651SOL    HW128832   3.249   2.840   5.900
 5651SOL    HW228833   3.370   2.760   5.941
 5652SOL     OW28834   2.906   0.895   4.213
 5652SOL    HW128835   2.819   0.857   4.198
 5652SOL    HW228836   2.892   0.961   4.281
 5653SOL     OW28837   3.790   0.594  18.808
 5653SOL    HW128838   3.861   0.656  18.822
 5653SOL    HW228839   3.716   0.630  18.858
 5654SOL     OW28840   3.967   2.281   9.200
 5654SOL    HW128841   4.049   2.302   9.244
 5654SOL    HW228842   3.984   2.198   9.155
 5655SOL     OW28843   4.244   0.277   1.089
 5655SOL    HW128844   4.183   0.203   1.101
 5655SOL    HW228845   4.187   0.354   1.087
 5656SOL     OW28846   3.376   4.284   5.931
 5656SOL    HW128847   3.412   4.196   5.916
 5656SOL    HW228848   3.283   4.276   5.910
 5657SOL     OW28849   3.881   2.432  12.596
 5657SOL    HW128850   3.871   2.525  12.616
 5657SOL    HW228851   3.797   2.407  12.557
 5658SOL     OW28852   1.120   3.597  16.160
 5658SOL    HW128853   1.185   3.583  16.228
 5658SOL    HW228854   1.147   3.678  16.118
 5659SOL     OW28855   1.964   0.608   2.288
 5659SOL    HW128856   2.030   0.676   2.297
 5659SOL    HW228857   1.961   0.565   2.373
 5660SOL     OW28858   3.346   0.959  19.929
 5660SOL    HW128859   3.312   0.880  19.970
 5660SOL    HW228860   3.270   0.998  19.886
 5661SOL     OW28861   4.278   0.287  15.901
 5661SOL    HW128862   4.296   0.211  15.845
 5661SOL    HW228863   4.332   0.272  15.979
 5662SOL     OW28864   0.877   1.844   5.271
 5662SOL    HW128865   0.785   1.856   5.247
 5662SOL    HW228866   0.906   1.770   5.218
 5663SOL     OW28867   1.412   2.318   3.368
 5663SOL    HW128868   1.505   2.315   3.393
 5663SOL    HW228869   1.413   2.318   3.273
 5664SOL     OW28870   3.045   3.770  17.496
 5664SOL    HW128871   3.000   3.710  17.437
 5664SOL    HW228872   3.015   3.745  17.583
 5665SOL     OW28873   2.452   0.019   1.990
 5665SOL    HW128874   2.460   4.730   2.039
 5665SOL    HW228875   2.375   0.061   2.028
 5666SOL     OW28876   4.596   4.247  16.113
 5666SOL    HW128877   4.572   4.245  16.205
 5666SOL    HW228878   4.689   4.268  16.112
 5667SOL     OW28879   4.458   1.507  20.810
 5667SOL    HW128880   4.551   1.488  20.821
 5667SOL    HW228881   4.454   1.557  20.728
 5668SOL     OW28882   2.614   1.801   0.290
 5668SOL    HW128883   2.610   1.743   0.366
 5668SOL    HW228884   2.705   1.831   0.288
 5669SOL     OW28885   0.361   4.459  19.319
 5669SOL    HW128886   0.388   4.432  19.231
 5669SOL    HW228887   0.378   4.382  19.373
 5670SOL     OW28888   2.311   2.363  18.533
 5670SOL    HW128889   2.340   2.291  18.477
 5670SOL    HW228890   2.312   2.440  18.476
 5671SOL     OW28891   0.928   0.669   0.419
 5671SOL    HW128892   0.920   0.624   0.502
 5671SOL    HW228893   0.982   0.746   0.438
 5672SOL     OW28894   4.702   1.494   1.703
 5672SOL    HW128895   4.658   1.572   1.737
 5672SOL    HW228896   4.760   1.526   1.634
 5673SOL     OW28897   0.459   1.012  20.761
 5673SOL    HW128898   0.434   1.100  20.732
 5673SOL    HW228899   0.462   0.960  20.680
 5674SOL     OW28900   2.681   1.912  18.875
 5674SOL    HW128901   2.679   1.960  18.958
 5674SOL    HW228902   2.750   1.846  18.888
 5675SOL     OW28903   0.140   1.118  17.867
 5675SOL    HW128904   0.079   1.139  17.796
 5675SOL    HW228905   0.159   1.025  17.855
 5676SOL     OW28906   1.331   0.894   4.658
 5676SOL    HW128907   1.238   0.895   4.680
 5676SOL    HW228908   1.336   0.935   4.572
 5677SOL     OW28909   2.632   1.685  17.425
 5677SOL    HW128910   2.542   1.658  17.441
 5677SOL    HW228911   2.646   1.758  17.486
 5678SOL     OW28912   0.370   3.797  19.939
 5678SOL    HW128913   0.424   3.739  19.885
 5678SOL    HW228914   0.304   3.739  19.977
 5679SOL     OW28915   0.337   0.215  19.046
 5679SOL    HW128916   0.320   0.309  19.048
 5679SOL    HW228917   0.268   0.177  19.101
 5680SOL     OW28918   3.548   0.554  18.242
 5680SOL    HW128919   3.473   0.612  18.231
 5680SOL    HW228920   3.624   0.612  18.247
 5681SOL     OW28921   3.454   2.261  20.143
 5681SOL    HW128922   3.384   2.294  20.087
 5681SOL    HW228923   3.475   2.175  20.108
 5682SOL     OW28924   4.154   1.483   6.567
 5682SOL    HW128925   4.164   1.578   6.577
 5682SOL    HW228926   4.239   1.447   6.590
 5683SOL     OW28927   3.787   4.471   0.420
 5683SOL    HW128928   3.788   4.518   0.504
 5683SOL    HW228929   3.834   4.390   0.438
 5684SOL     OW28930   0.324   0.220  17.138
 5684SOL    HW128931   0.340   0.128  17.120
 5684SOL    HW228932   0.238   0.238  17.099
 5685SOL     OW28933   1.324   1.903   5.146
 5685SOL    HW128934   1.334   1.824   5.200
 5685SOL    HW228935   1.240   1.940   5.174
 5686SOL     OW28936   2.629   0.859   4.196
 5686SOL    HW128937   2.551   0.897   4.155
 5686SOL    HW228938   2.605   0.769   4.214
 5687SOL     OW28939   2.776   0.838  17.129
 5687SOL    HW128940   2.809   0.901  17.065
 5687SOL    HW228941   2.851   0.782  17.148
 5688SOL     OW28942   1.120   0.444  21.060
 5688SOL    HW128943   1.139   0.523  21.010
 5688SOL    HW228944   1.024   0.444  21.068
 5689SOL     OW28945   0.719   3.460  17.378
 5689SOL    HW128946   0.781   3.485  17.310
 5689SOL    HW228947   0.659   3.535  17.384
 5690SOL     OW28948   0.029   0.675  12.977
 5690SOL    HW128949   4.748   0.616  12.987
 5690SOL    HW228950   0.016   0.716  12.892
 5691SOL     OW28951   3.019   3.040   5.116
 5691SOL    HW128952   3.067   3.088   5.049
 5691SOL    HW228953   2.927   3.057   5.096
 5692SOL     OW28954   1.409   4.275   5.932
 5692SOL    HW128955   1.338   4.301   5.873
 5692SOL    HW228956   1.444   4.358   5.965
 5693SOL     OW28957   3.127   4.528  16.243
 5693SOL    HW128958   3.062   4.561  16.181
 5693SOL    HW228959   3.210   4.535  16.196
 5694SOL     OW28960   2.258   3.551  21.178
 5694SOL    HW128961   2.311   3.550  21.258
 5694SOL    HW228962   2.292   3.624  21.127
 5695SOL     OW28963   3.142   2.348   1.896
 5695SOL    HW128964   3.093   2.362   1.977
 5695SOL    HW228965   3.211   2.286   1.920
 5696SOL     OW28966   2.940   0.046  20.659
 5696SOL    HW128967   2.878   0.001  20.716
 5696SOL    HW228968   2.895   0.125  20.632
 5697SOL     OW28969   1.302   0.529  15.093
 5697SOL    HW128970   1.395   0.530  15.071
 5697SOL    HW228971   1.258   0.557  15.013
 5698SOL     OW28972   0.449   3.548  21.195
 5698SOL    HW128973   0.418   3.523   0.005
 5698SOL    HW228974   0.450   3.466  21.145
 5699SOL     OW28975   1.250   2.374  18.261
 5699SOL    HW128976   1.322   2.408  18.316
 5699SOL    HW228977   1.217   2.451  18.215
 5700SOL     OW28978   4.407   1.244   2.226
 5700SOL    HW128979   4.417   1.272   2.316
 5700SOL    HW228980   4.314   1.223   2.217
 5701SOL     OW28981   0.718   2.795   2.447
 5701SOL    HW128982   0.740   2.866   2.386
 5701SOL    HW228983   0.802   2.754   2.466
 5702SOL     OW28984   1.393   3.804   4.782
 5702SOL    HW128985   1.444   3.874   4.825
 5702SOL    HW228986   1.448   3.726   4.791
 5703SOL     OW28987   2.485   0.941   0.635
 5703SOL    HW128988   2.567   0.990   0.624
 5703SOL    HW228989   2.502   0.857   0.591
 5704SOL     OW28990   1.670   1.166   4.728
 5704SOL    HW128991   1.647   1.246   4.680
 5704SOL    HW228992   1.765   1.169   4.737
 5705SOL     OW28993   1.569   2.308  16.863
 5705SOL    HW128994   1.629   2.337  16.932
 5705SOL    HW228995   1.558   2.215  16.879
 5706SOL     OW28996   0.612   1.309  17.370
 5706SOL    HW128997   0.591   1.306  17.463
 5706SOL    HW228998   0.696   1.266  17.363
 5707SOL     OW28999   4.149   4.412   0.595
 5707SOL    HW129000   4.079   4.378   0.650
 5707SOL    HW229001   4.219   4.348   0.601
 5708SOL     OW29002   2.269   1.759  13.954
 5708SOL    HW129003   2.191   1.812  13.965
 5708SOL    HW229004   2.334   1.798  14.013
 5709SOL     OW29005   0.834   1.617  17.209
 5709SOL    HW129006   0.812   1.608  17.117
 5709SOL    HW229007   0.929   1.631  17.210
 5710SOL     OW29008   1.002   4.686  16.167
 5710SOL    HW129009   1.014   4.607  16.220
 5710SOL    HW229010   0.924   4.728  16.204
 5711SOL     OW29011   2.380   2.896  20.064
 5711SOL    HW129012   2.428   2.815  20.081
 5711SOL    HW229013   2.447   2.962  20.051
 5712SOL     OW29014   0.867   1.271  18.174
 5712SOL    HW129015   0.923   1.253  18.098
 5712SOL    HW229016   0.901   1.353  18.210
 5713SOL     OW29017   2.280   3.193  19.981
 5713SOL    HW129018   2.307   3.194  20.073
 5713SOL    HW229019   2.184   3.188  19.985
 5714SOL     OW29020   1.548   0.808   0.576
 5714SOL    HW129021   1.553   0.885   0.519
 5714SOL    HW229022   1.515   0.739   0.519
 5715SOL     OW29023   2.216   2.323  15.928
 5715SOL    HW129024   2.192   2.238  15.965
 5715SOL    HW229025   2.138   2.352  15.881
 5716SOL     OW29026   3.180   4.134   5.535
 5716SOL    HW129027   3.139   4.180   5.462
 5716SOL    HW229028   3.214   4.053   5.497
 5717SOL     OW29029   3.114   2.078  14.472
 5717SOL    HW129030   3.098   2.083  14.566
 5717SOL    HW229031   3.057   2.008  14.441
 5718SOL     OW29032   2.990   1.939  19.872
 5718SOL    HW129033   3.081   1.908  19.874
 5718SOL    HW229034   2.940   1.861  19.849
 5719SOL     OW29035   1.731   2.070   0.328
 5719SOL    HW129036   1.798   2.137   0.340
 5719SOL    HW229037   1.757   2.024   0.248
 5720SOL     OW29038   4.666   2.112  19.577
 5720SOL    HW129039   4.599   2.141  19.516
 5720SOL    HW229040   4.665   2.016  19.570
 5721SOL     OW29041   3.927   0.051   3.661
 5721SOL    HW129042   3.981   0.120   3.622
 5721SOL    HW229043   3.936   4.771   3.600
 5722SOL     OW29044   2.375   3.286  14.996
 5722SOL    HW129045   2.417   3.228  15.059
 5722SOL    HW229046   2.352   3.364  15.047
 5723SOL     OW29047   0.349   0.092  20.376
 5723SOL    HW129048   0.412   0.085  20.305
 5723SOL    HW229049   0.271   0.046  20.344
 5724SOL     OW29050   1.369   1.527  19.316
 5724SOL    HW129051   1.305   1.596  19.334
 5724SOL    HW229052   1.317   1.450  19.295
 5725SOL     OW29053   2.872   0.297   0.591
 5725SOL    HW129054   2.830   0.375   0.628
 5725SOL    HW229055   2.840   0.293   0.501
 5726SOL     OW29056   2.401   4.505  12.307
 5726SOL    HW129057   2.311   4.534  12.323
 5726SOL    HW229058   2.454   4.571  12.352
 5727SOL     OW29059   2.980   4.697   1.219
 5727SOL    HW129060   2.917   4.625   1.208
 5727SOL    HW229061   3.037   4.691   1.142
 5728SOL     OW29062   3.836   0.642   5.001
 5728SOL    HW129063   3.787   0.560   4.991
 5728SOL    HW229064   3.833   0.682   4.914
 5729SOL     OW29065   1.285   0.614  16.071
 5729SOL    HW129066   1.325   0.663  16.143
 5729SOL    HW229067   1.294   0.522  16.098
 5730SOL     OW29068   3.959   3.435  19.888
 5730SOL    HW129069   4.022   3.367  19.913
 5730SOL    HW229070   3.951   3.425  19.793
 5731SOL     OW29071   3.553   1.395  16.568
 5731SOL    HW129072   3.520   1.468  16.515
 5731SOL    HW229073   3.554   1.430  16.657
 5732SOL     OW29074   4.649   0.603  20.812
 5732SOL    HW129075   4.579   0.561  20.863
 5732SOL    HW229076   4.723   0.542  20.819
 5733SOL     OW29077   4.162   3.734  19.651
 5733SOL    HW129078   4.088   3.794  19.655
 5733SOL    HW229079   4.170   3.711  19.559
 5734SOL     OW29080   3.956   3.850   3.167
 5734SOL    HW129081   3.937   3.761   3.198
 5734SOL    HW229082   4.029   3.879   3.222
 5735SOL     OW29083   3.141   1.200   4.469
 5735SOL    HW129084   3.154   1.172   4.378
 5735SOL    HW229085   3.139   1.295   4.465
 5736SOL     OW29086   2.850   3.237   2.264
 5736SOL    HW129087   2.769   3.188   2.249
 5736SOL    HW229088   2.820   3.325   2.288
 5737SOL     OW29089   2.636   0.854  17.371
 5737SOL    HW129090   2.548   0.816  17.362
 5737SOL    HW229091   2.683   0.822  17.294
 5738SOL     OW29092   0.294   1.233  18.827
 5738SOL    HW129093   0.316   1.140  18.832
 5738SOL    HW229094   0.200   1.236  18.849
 5739SOL     OW29095   0.001   2.211   5.022
 5739SOL    HW129096   4.703   2.218   4.996
 5739SOL    HW229097   0.012   2.119   5.047
 5740SOL     OW29098   0.379   4.016  18.782
 5740SOL    HW129099   0.302   3.973  18.744
 5740SOL    HW229100   0.368   4.006  18.876
 5741SOL     OW29101   2.856   2.139  19.725
 5741SOL    HW129102   2.923   2.078  19.756
 5741SOL    HW229103   2.795   2.085  19.676
 5742SOL     OW29104   0.660   1.264   0.821
 5742SOL    HW129105   0.568   1.258   0.795
 5742SOL    HW229106   0.684   1.355   0.801
 5743SOL     OW29107   3.664   3.018   5.011
 5743SOL    HW129108   3.605   2.985   5.078
 5743SOL    HW229109   3.675   2.945   4.950
 5744SOL     OW29110   2.428   0.634  15.313
 5744SOL    HW129111   2.354   0.629  15.253
 5744SOL    HW229112   2.505   0.634  15.257
 5745SOL     OW29113   2.063   0.963   2.235
 5745SOL    HW129114   2.075   0.917   2.152
 5745SOL    HW229115   1.969   0.955   2.253
 5746SOL     OW29116   1.522   0.391   3.902
 5746SOL    HW129117   1.543   0.315   3.955
 5746SOL    HW229118   1.465   0.444   3.957
 5747SOL     OW29119   2.105   0.008   7.021
 5747SOL    HW129120   2.174   0.074   7.028
 5747SOL    HW229121   2.040   0.049   6.964
 5748SOL     OW29122   2.189   0.081   4.018
 5748SOL    HW129123   2.118   0.137   4.050
 5748SOL    HW229124   2.233   0.051   4.098
 5749SOL     OW29125   3.567   0.079  20.981
 5749SOL    HW129126   3.632   0.145  20.958
 5749SOL    HW229127   3.611   4.789  20.963
 5750SOL     OW29128   1.497   0.918  20.511
 5750SOL    HW129129   1.401   0.922  20.511
 5750SOL    HW229130   1.519   0.888  20.422
 5751SOL     OW29131   3.163   0.670   6.923
 5751SOL    HW129132   3.119   0.738   6.872
 5751SOL    HW229133   3.191   0.714   7.003
 5752SOL     OW29134   3.700   3.554   0.303
 5752SOL    HW129135   3.720   3.606   0.226
 5752SOL    HW229136   3.752   3.474   0.293
 5753SOL     OW29137   0.228   3.609   3.824
 5753SOL    HW129138   0.213   3.544   3.892
 5753SOL    HW229139   0.144   3.655   3.816
 5754SOL     OW29140   1.528   2.093  17.742
 5754SOL    HW129141   1.532   2.052  17.655
 5754SOL    HW229142   1.536   2.187  17.724
 5755SOL     OW29143   4.117   1.341  20.225
 5755SOL    HW129144   4.104   1.264  20.170
 5755SOL    HW229145   4.087   1.414  20.172
 5756SOL     OW29146   3.503   2.284  17.900
 5756SOL    HW129147   3.517   2.344  17.827
 5756SOL    HW229148   3.581   2.228  17.901
 5757SOL     OW29149   4.598   0.843  16.366
 5757SOL    HW129150   4.630   0.898  16.295
 5757SOL    HW229151   4.580   0.904  16.437
 5758SOL     OW29152   2.474   1.550  15.801
 5758SOL    HW129153   2.425   1.631  15.785
 5758SOL    HW229154   2.553   1.558  15.747
 5759SOL     OW29155   3.763   0.116  18.885
 5759SOL    HW129156   3.713   0.035  18.882
 5759SOL    HW229157   3.836   0.102  18.825
 5760SOL     OW29158   3.670   4.121   0.502
 5760SOL    HW129159   3.656   4.033   0.536
 5760SOL    HW229160   3.593   4.139   0.449
 5761SOL     OW29161   1.425   4.084   6.894
 5761SOL    HW129162   1.502   4.122   6.935
 5761SOL    HW229163   1.459   4.031   6.822
 5762SOL     OW29164   3.563   2.952   3.659
 5762SOL    HW129165   3.545   2.884   3.724
 5762SOL    HW229166   3.482   3.001   3.651
 5763SOL     OW29167   2.165   0.661   0.854
 5763SOL    HW129168   2.123   0.734   0.899
 5763SOL    HW229169   2.174   0.594   0.922
 5764SOL     OW29170   1.271   2.158  15.786
 5764SOL    HW129171   1.258   2.214  15.862
 5764SOL    HW229172   1.356   2.184  15.751
 5765SOL     OW29173   2.522   3.940   0.136
 5765SOL    HW129174   2.519   3.851   0.170
 5765SOL    HW229175   2.535   3.931   0.042
 5766SOL     OW29176   1.863   2.943   6.490
 5766SOL    HW129177   1.886   2.957   6.398
 5766SOL    HW229178   1.930   2.992   6.539
 5767SOL     OW29179   2.452   0.517  16.229
 5767SOL    HW129180   2.426   0.506  16.138
 5767SOL    HW229181   2.517   0.588  16.227
 5768SOL     OW29182   0.207   2.800   2.197
 5768SOL    HW129183   0.229   2.709   2.218
 5768SOL    HW229184   0.280   2.830   2.143
 5769SOL     OW29185   2.978   2.234   3.907
 5769SOL    HW129186   3.016   2.302   3.962
 5769SOL    HW229187   3.003   2.152   3.951
 5770SOL     OW29188   1.216   0.395   2.535
 5770SOL    HW129189   1.223   0.362   2.625
 5770SOL    HW229190   1.255   0.482   2.538
 5771SOL     OW29191   3.696   1.933  13.632
 5771SOL    HW129192   3.788   1.909  13.641
 5771SOL    HW229193   3.694   2.028  13.643
 5772SOL     OW29194   2.100   0.737  19.790
 5772SOL    HW129195   2.110   0.643  19.806
 5772SOL    HW229196   2.024   0.742  19.731
 5773SOL     OW29197   4.147   1.884   4.076
 5773SOL    HW129198   4.224   1.900   4.021
 5773SOL    HW229199   4.158   1.944   4.150
 5774SOL     OW29200   0.183   2.549   4.019
 5774SOL    HW129201   0.132   2.559   4.100
 5774SOL    HW229202   0.120   2.513   3.956
 5775SOL     OW29203   1.015   4.510  20.812
 5775SOL    HW129204   0.978   4.543  20.730
 5775SOL    HW229205   0.985   4.571  20.879
 5776SOL     OW29206   3.337   0.718  18.220
 5776SOL    HW129207   3.275   0.649  18.199
 5776SOL    HW229208   3.359   0.757  18.135
 5777SOL     OW29209   2.742   4.696   3.900
 5777SOL    HW129210   2.668   4.649   3.938
 5777SOL    HW229211   2.817   4.639   3.918
 5778SOL     OW29212   3.546   2.159  19.387
 5778SOL    HW129213   3.479   2.104  19.347
 5778SOL    HW229214   3.554   2.234  19.327
 5779SOL     OW29215   1.963   3.976  19.493
 5779SOL    HW129216   1.963   3.941  19.403
 5779SOL    HW229217   1.911   4.056  19.487
 5780SOL     OW29218   4.743   2.114   2.551
 5780SOL    HW129219   4.730   2.025   2.518
 5780SOL    HW229220   4.691   2.170   2.494
 5781SOL     OW29221   3.636   0.819   1.303
 5781SOL    HW129222   3.656   0.912   1.311
 5781SOL    HW229223   3.546   0.811   1.334
 5782SOL     OW29224   1.990   1.710   1.502
 5782SOL    HW129225   1.931   1.647   1.461
 5782SOL    HW229226   2.069   1.660   1.523
 5783SOL     OW29227   3.880   3.528   0.544
 5783SOL    HW129228   3.934   3.492   0.474
 5783SOL    HW229229   3.888   3.466   0.616
 5784SOL     OW29230   4.001   3.323   6.525
 5784SOL    HW129231   3.981   3.384   6.596
 5784SOL    HW229232   3.943   3.350   6.454
 5785SOL     OW29233   3.148   1.734  17.730
 5785SOL    HW129234   3.139   1.647  17.769
 5785SOL    HW229235   3.069   1.781  17.756
 5786SOL     OW29236   2.124   4.780   1.631
 5786SOL    HW129237   2.197   0.041   1.599
 5786SOL    HW229238   2.056   4.790   1.564
 5787SOL     OW29239   1.896   2.757   1.773
 5787SOL    HW129240   1.935   2.839   1.742
 5787SOL    HW229241   1.854   2.720   1.695
 5788SOL     OW29242   0.766   3.937   3.281
 5788SOL    HW129243   0.679   3.963   3.310
 5788SOL    HW229244   0.783   3.992   3.204
 5789SOL     OW29245   3.071   1.307   6.175
 5789SOL    HW129246   3.162   1.332   6.188
 5789SOL    HW229247   3.064   1.292   6.080
 5790SOL     OW29248   4.593   2.165   2.016
 5790SOL    HW129249   4.602   2.095   1.951
 5790SOL    HW229250   4.546   2.234   1.970
 5791SOL     OW29251   3.391   2.506  14.981
 5791SOL    HW129252   3.367   2.452  14.906
 5791SOL    HW229253   3.325   2.484  15.047
 5792SOL     OW29254   4.305   2.814   1.699
 5792SOL    HW129255   4.332   2.780   1.784
 5792SOL    HW229256   4.238   2.880   1.719
 5793SOL     OW29257   3.860   1.023   7.155
 5793SOL    HW129258   3.833   0.991   7.069
 5793SOL    HW229259   3.951   1.048   7.143
 5794SOL     OW29260   0.936   3.237  19.470
 5794SOL    HW129261   0.976   3.241  19.383
 5794SOL    HW229262   1.010   3.237  19.531
 5795SOL     OW29263   0.116   4.542  17.510
 5795SOL    HW129264   0.164   4.476  17.559
 5795SOL    HW229265   0.183   4.607  17.487
 5796SOL     OW29266   4.683   3.279  15.685
 5796SOL    HW129267   4.736   3.345  15.728
 5796SOL    HW229268   4.739   3.201  15.681
 5797SOL     OW29269   2.617   4.675  17.035
 5797SOL    HW129270   2.630   4.752  16.979
 5797SOL    HW229271   2.554   4.705  17.101
 5798SOL     OW29272   1.716   1.134  17.215
 5798SOL    HW129273   1.734   1.147  17.308
 5798SOL    HW229274   1.798   1.154  17.171
 5799SOL     OW29275   2.355   0.397   3.317
 5799SOL    HW129276   2.305   0.350   3.250
 5799SOL    HW229277   2.305   0.385   3.397
 5800SOL     OW29278   2.617   1.314   5.049
 5800SOL    HW129279   2.551   1.374   5.015
 5800SOL    HW229280   2.575   1.228   5.048
 5801SOL     OW29281   3.308   4.028  11.935
 5801SOL    HW129282   3.315   4.004  11.843
 5801SOL    HW229283   3.224   4.073  11.942
 5802SOL     OW29284   2.211   4.733  16.920
 5802SOL    HW129285   2.132   4.734  16.974
 5802SOL    HW229286   2.264   4.662  16.956
 5803SOL     OW29287   3.045   3.992  15.678
 5803SOL    HW129288   3.014   3.962  15.593
 5803SOL    HW229289   3.139   4.007  15.666
 5804SOL     OW29290   3.686   4.194   6.641
 5804SOL    HW129291   3.632   4.230   6.570
 5804SOL    HW229292   3.695   4.265   6.703
 5805SOL     OW29293   2.983   0.626  19.582
 5805SOL    HW129294   2.952   0.552  19.529
 5805SOL    HW229295   2.920   0.632  19.654
 5806SOL     OW29296   4.395   0.920   5.189
 5806SOL    HW129297   4.368   0.842   5.237
 5806SOL    HW229298   4.463   0.960   5.244
 5807SOL     OW29299   1.242   2.344   2.128
 5807SOL    HW129300   1.185   2.392   2.188
 5807SOL    HW229301   1.257   2.404   2.056
 5808SOL     OW29302   3.941   2.922   6.998
 5808SOL    HW129303   3.851   2.911   7.030
 5808SOL    HW229304   3.947   2.864   6.922
 5809SOL     OW29305   0.497   4.776   0.345
 5809SOL    HW129306   0.512   0.060   0.293
 5809SOL    HW229307   0.452   4.716   0.285
 5810SOL     OW29308   3.191   2.014   2.795
 5810SOL    HW129309   3.174   2.060   2.877
 5810SOL    HW229310   3.197   1.921   2.820
 5811SOL     OW29311   1.533   3.286   6.048
 5811SOL    HW129312   1.529   3.341   6.126
 5811SOL    HW229313   1.626   3.282   6.025
 5812SOL     OW29314   2.579   3.505   3.168
 5812SOL    HW129315   2.593   3.590   3.126
 5812SOL    HW229316   2.484   3.491   3.164
 5813SOL     OW29317   2.699   0.537  19.237
 5813SOL    HW129318   2.703   0.617  19.185
 5813SOL    HW229319   2.674   0.567  19.325
 5814SOL     OW29320   1.228   4.685   0.232
 5814SOL    HW129321   1.176   4.762   0.209
 5814SOL    HW229322   1.190   4.614   0.181
 5815SOL     OW29323   3.955   3.790   4.549
 5815SOL    HW129324   3.981   3.788   4.457
 5815SOL    HW229325   3.867   3.827   4.548
 5816SOL     OW29326   2.885   2.069  20.090
 5816SOL    HW129327   2.903   2.013  20.166
 5816SOL    HW229328   2.918   2.020  20.015
 5817SOL     OW29329   1.619   1.671   3.577
 5817SOL    HW129330   1.651   1.581   3.573
 5817SOL    HW229331   1.670   1.717   3.510
 5818SOL     OW29332   2.023   1.840   2.215
 5818SOL    HW129333   2.076   1.762   2.234
 5818SOL    HW229334   1.990   1.868   2.300
 5819SOL     OW29335   1.197   2.380  17.179
 5819SOL    HW129336   1.108   2.348  17.193
 5819SOL    HW229337   1.253   2.312  17.217
 5820SOL     OW29338   3.580   2.928   5.270
 5820SOL    HW129339   3.653   2.866   5.264
 5820SOL    HW229340   3.563   2.936   5.364
 5821SOL     OW29341   0.220   0.577  15.377
 5821SOL    HW129342   0.310   0.606  15.392
 5821SOL    HW229343   0.165   0.652  15.400
 5822SOL     OW29344   2.128   2.881   5.029
 5822SOL    HW129345   2.133   2.972   5.057
 5822SOL    HW229346   2.082   2.884   4.945
 5823SOL     OW29347   0.609   0.204  17.631
 5823SOL    HW129348   0.704   0.200  17.642
 5823SOL    HW229349   0.575   0.222  17.719
 5824SOL     OW29350   2.611   4.309  21.158
 5824SOL    HW129351   2.697   4.333  21.122
 5824SOL    HW229352   2.564   4.274  21.083
 5825SOL     OW29353   4.334   3.532  19.086
 5825SOL    HW129354   4.257   3.477  19.068
 5825SOL    HW229355   4.372   3.548  18.999
 5826SOL     OW29356   1.344   0.135   1.563
 5826SOL    HW129357   1.304   0.182   1.489
 5826SOL    HW229358   1.357   0.045   1.530
 5827SOL     OW29359   2.547   2.527  15.864
 5827SOL    HW129360   2.469   2.521  15.809
 5827SOL    HW229361   2.517   2.509  15.952
 5828SOL     OW29362   3.159   4.553  15.738
 5828SOL    HW129363   3.097   4.547  15.810
 5828SOL    HW229364   3.141   4.475  15.685
 5829SOL     OW29365   0.904   3.350  18.378
 5829SOL    HW129366   0.891   3.256  18.382
 5829SOL    HW229367   0.832   3.383  18.324
 5830SOL     OW29368   1.375   4.097   1.317
 5830SOL    HW129369   1.339   4.097   1.228
 5830SOL    HW229370   1.460   4.054   1.309
 5831SOL     OW29371   2.410   0.619   5.968
 5831SOL    HW129372   2.427   0.570   6.049
 5831SOL    HW229373   2.496   0.627   5.927
 5832SOL     OW29374   3.358   1.423   6.290
 5832SOL    HW129375   3.448   1.405   6.315
 5832SOL    HW229376   3.363   1.450   6.198
 5833SOL     OW29377   4.324   3.109   3.362
 5833SOL    HW129378   4.266   3.069   3.428
 5833SOL    HW229379   4.268   3.170   3.315
 5834SOL     OW29380   0.662   0.588  20.109
 5834SOL    HW129381   0.593   0.652  20.088
 5834SOL    HW229382   0.741   0.641  20.121
 5835SOL     OW29383   0.078   0.581   1.283
 5835SOL    HW129384   0.162   0.622   1.303
 5835SOL    HW229385   0.015   0.653   1.281
 5836SOL     OW29386   0.153   2.830   6.790
 5836SOL    HW129387   0.134   2.871   6.706
 5836SOL    HW229388   0.134   2.897   6.856
 5837SOL     OW29389   0.691   3.782  18.318
 5837SOL    HW129390   0.665   3.752  18.405
 5837SOL    HW229391   0.713   3.702  18.271
 5838SOL     OW29392   2.150   1.913  14.427
 5838SOL    HW129393   2.064   1.932  14.388
 5838SOL    HW229394   2.207   1.983  14.394
 5839SOL     OW29395   3.736   1.245  17.929
 5839SOL    HW129396   3.778   1.285  17.853
 5839SOL    HW229397   3.783   1.281  18.004
 5840SOL     OW29398   1.886   4.275  19.773
 5840SOL    HW129399   1.853   4.346  19.827
 5840SOL    HW229400   1.830   4.200  19.794
 5841SOL     OW29401   3.775   0.165   0.278
 5841SOL    HW129402   3.864   0.190   0.253
 5841SOL    HW229403   3.766   0.075   0.247
 5842SOL     OW29404   1.250   1.840   4.877
 5842SOL    HW129405   1.232   1.864   4.968
 5842SOL    HW229406   1.342   1.862   4.864
 5843SOL     OW29407   1.477   1.097  21.154
 5843SOL    HW129408   1.553   1.078  21.100
 5843SOL    HW229409   1.426   1.160  21.102
 5844SOL     OW29410   2.796   2.196   4.865
 5844SOL    HW129411   2.722   2.135   4.860
 5844SOL    HW229412   2.781   2.246   4.945
 5845SOL     OW29413   3.377   4.563  16.120
 5845SOL    HW129414   3.375   4.631  16.052
 5845SOL    HW229415   3.343   4.485  16.077
 5846SOL     OW29416   1.138   1.890  18.359
 5846SOL    HW129417   1.056   1.880  18.311
 5846SOL    HW229418   1.117   1.861  18.448
 5847SOL     OW29419   2.142   3.513   6.623
 5847SOL    HW129420   2.215   3.476   6.672
 5847SOL    HW229421   2.069   3.454   6.643
 5848SOL     OW29422   3.683   0.831   3.295
 5848SOL    HW129423   3.776   0.828   3.318
 5848SOL    HW229424   3.669   0.752   3.243
 5849SOL     OW29425   0.507   0.051  14.464
 5849SOL    HW129426   0.455   0.087  14.392
 5849SOL    HW229427   0.522   4.754  14.440
 5850SOL     OW29428   4.332   1.561  19.396
 5850SOL    HW129429   4.411   1.507  19.390
 5850SOL    HW229430   4.283   1.524  19.469
 5851SOL     OW29431   2.849   4.598   6.274
 5851SOL    HW129432   2.824   4.506   6.274
 5851SOL    HW229433   2.813   4.633   6.356
 5852SOL     OW29434   0.636   2.780  17.440
 5852SOL    HW129435   0.620   2.734  17.523
 5852SOL    HW229436   0.627   2.873  17.462
 5853SOL     OW29437   4.650   4.729   2.290
 5853SOL    HW129438   4.565   4.709   2.328
 5853SOL    HW229439   4.693   4.644   2.280
 5854SOL     OW29440   3.541   0.383  17.930
 5854SOL    HW129441   3.559   0.439  18.007
 5854SOL    HW229442   3.625   0.339  17.913
 5855SOL     OW29443   2.988   1.466  14.813
 5855SOL    HW129444   3.082   1.450  14.810
 5855SOL    HW229445   2.956   1.405  14.879
 5856SOL     OW29446   2.015   3.035  15.512
 5856SOL    HW129447   2.042   3.113  15.464
 5856SOL    HW229448   1.923   3.052  15.534
 5857SOL     OW29449   2.014   4.591   3.829
 5857SOL    HW129450   2.013   4.667   3.770
 5857SOL    HW229451   1.971   4.522   3.779
 5858SOL     OW29452   4.719   3.346   1.662
 5858SOL    HW129453   4.719   3.296   1.580
 5858SOL    HW229454   0.016   3.373   1.674
 5859SOL     OW29455   0.058   1.161  15.813
 5859SOL    HW129456   0.065   1.200  15.900
 5859SOL    HW229457   4.758   1.148  15.801
 5860SOL     OW29458   4.196   0.707   5.769
 5860SOL    HW129459   4.215   0.779   5.708
 5860SOL    HW229460   4.282   0.670   5.789
 5861SOL     OW29461   0.322   3.058   1.249
 5861SOL    HW129462   0.337   3.121   1.320
 5861SOL    HW229463   0.396   3.070   1.191
 5862SOL     OW29464   1.264   2.601   5.062
 5862SOL    HW129465   1.301   2.567   5.144
 5862SOL    HW229466   1.172   2.617   5.081
 5863SOL     OW29467   4.241   2.921   4.432
 5863SOL    HW129468   4.212   3.007   4.462
 5863SOL    HW229469   4.327   2.937   4.393
 5864SOL     OW29470   4.116   1.017   2.049
 5864SOL    HW129471   4.120   0.998   2.143
 5864SOL    HW229472   4.067   0.944   2.012
 5865SOL     OW29473   3.455   2.459   2.478
 5865SOL    HW129474   3.408   2.416   2.406
 5865SOL    HW229475   3.422   2.418   2.557
 5866SOL     OW29476   3.470   1.642   5.189
 5866SOL    HW129477   3.564   1.657   5.191
 5866SOL    HW229478   3.460   1.554   5.153
 5867SOL     OW29479   3.350   0.819  18.873
 5867SOL    HW129480   3.319   0.906  18.897
 5867SOL    HW229481   3.375   0.827  18.781
 5868SOL     OW29482   2.161   1.486   4.034
 5868SOL    HW129483   2.249   1.517   4.012
 5868SOL    HW229484   2.167   1.391   4.028
 5869SOL     OW29485   4.520   2.636   0.212
 5869SOL    HW129486   4.505   2.664   0.303
 5869SOL    HW229487   4.554   2.547   0.220
 5870SOL     OW29488   1.591   0.706  17.802
 5870SOL    HW129489   1.649   0.776  17.830
 5870SOL    HW229490   1.649   0.639  17.766
 5871SOL     OW29491   4.678   2.851  17.466
 5871SOL    HW129492   4.653   2.825  17.378
 5871SOL    HW229493   4.710   2.941  17.457
 5872SOL     OW29494   4.337   3.635  20.381
 5872SOL    HW129495   4.354   3.674  20.467
 5872SOL    HW229496   4.412   3.578  20.366
 5873SOL     OW29497   3.333   4.233  14.678
 5873SOL    HW129498   3.313   4.183  14.757
 5873SOL    HW229499   3.428   4.238  14.675
 5874SOL     OW29500   4.133   2.431   1.401
 5874SOL    HW129501   4.114   2.347   1.442
 5874SOL    HW229502   4.185   2.409   1.324
 5875SOL     OW29503   3.314   3.655  19.917
 5875SOL    HW129504   3.225   3.654  19.953
 5875SOL    HW229505   3.369   3.623  19.988
 5876SOL     OW29506   2.222   1.010  18.414
 5876SOL    HW129507   2.290   1.003  18.482
 5876SOL    HW229508   2.152   1.060  18.455
 5877SOL     OW29509   2.248   0.787  20.011
 5877SOL    HW129510   2.282   0.871  19.980
 5877SOL    HW229511   2.206   0.749  19.934
 5878SOL     OW29512   4.347   1.623  15.512
 5878SOL    HW129513   4.425   1.671  15.538
 5878SOL    HW229514   4.324   1.570  15.589
 5879SOL     OW29515   2.467   1.867  20.581
 5879SOL    HW129516   2.548   1.845  20.627
 5879SOL    HW229517   2.495   1.895  20.494
 5880SOL     OW29518   0.571   2.769   1.151
 5880SOL    HW129519   0.529   2.721   1.222
 5880SOL    HW229520   0.564   2.861   1.177
 5881SOL     OW29521   3.765   2.958  18.198
 5881SOL    HW129522   3.780   3.008  18.118
 5881SOL    HW229523   3.775   2.867  18.173
 5882SOL     OW29524   2.738   4.439   2.998
 5882SOL    HW129525   2.715   4.431   3.091
 5882SOL    HW229526   2.763   4.531   2.987
 5883SOL     OW29527   0.323   2.784   5.116
 5883SOL    HW129528   0.357   2.698   5.140
 5883SOL    HW229529   0.365   2.844   5.177
 5884SOL     OW29530   2.699   3.752  17.480
 5884SOL    HW129531   2.617   3.795  17.454
 5884SOL    HW229532   2.672   3.667  17.514
 5885SOL     OW29533   1.122   2.645  17.035
 5885SOL    HW129534   1.174   2.639  16.955
 5885SOL    HW229535   1.160   2.580  17.093
 5886SOL     OW29536   0.703   1.753   4.201
 5886SOL    HW129537   0.764   1.816   4.161
 5886SOL    HW229538   0.629   1.807   4.229
 5887SOL     OW29539   1.167   1.461   4.176
 5887SOL    HW129540   1.084   1.473   4.221
 5887SOL    HW229541   1.231   1.448   4.246
 5888SOL     OW29542   1.508   3.697  18.577
 5888SOL    HW129543   1.566   3.763  18.616
 5888SOL    HW229544   1.562   3.618  18.570
 5889SOL     OW29545   1.772   4.311  15.749
 5889SOL    HW129546   1.679   4.327  15.734
 5889SOL    HW229547   1.793   4.361  15.827
 5890SOL     OW29548   2.584   4.357  13.610
 5890SOL    HW129549   2.593   4.313  13.525
 5890SOL    HW229550   2.669   4.401  13.623
 5891SOL     OW29551   0.427   3.014  16.659
 5891SOL    HW129552   0.406   3.066  16.582
 5891SOL    HW229553   0.364   3.043  16.726
 5892SOL     OW29554   3.028   2.103   3.028
 5892SOL    HW129555   2.936   2.102   3.003
 5892SOL    HW229556   3.027   2.097   3.123
 5893SOL     OW29557   3.944   1.154  17.534
 5893SOL    HW129558   4.019   1.133  17.479
 5893SOL    HW229559   3.954   1.247  17.555
 5894SOL     OW29560   2.408   0.276   5.960
 5894SOL    HW129561   2.494   0.237   5.974
 5894SOL    HW229562   2.383   0.247   5.872
 5895SOL     OW29563   0.525   3.691  19.524
 5895SOL    HW129564   0.528   3.743  19.444
 5895SOL    HW229565   0.438   3.708  19.560
 5896SOL     OW29566   2.500   1.752   3.879
 5896SOL    HW129567   2.449   1.765   3.959
 5896SOL    HW229568   2.588   1.731   3.909
 5897SOL     OW29569   1.449   0.514   1.454
 5897SOL    HW129570   1.442   0.575   1.381
 5897SOL    HW229571   1.422   0.429   1.417
 5898SOL     OW29572   0.152   1.651  20.196
 5898SOL    HW129573   0.245   1.670  20.208
 5898SOL    HW229574   0.107   1.731  20.224
 5899SOL     OW29575   1.356   0.352  15.884
 5899SOL    HW129576   1.335   0.430  15.832
 5899SOL    HW229577   1.452   0.351  15.888
 5900SOL     OW29578   2.670   4.177  18.281
 5900SOL    HW129579   2.712   4.099  18.317
 5900SOL    HW229580   2.615   4.145  18.210
 5901SOL     OW29581   3.995   2.192   1.413
 5901SOL    HW129582   3.988   2.186   1.508
 5901SOL    HW229583   3.917   2.146   1.380
 5902SOL     OW29584   2.823   0.769  17.947
 5902SOL    HW129585   2.877   0.733  17.877
 5902SOL    HW229586   2.735   0.775  17.909
 5903SOL     OW29587   1.673   0.695  15.514
 5903SOL    HW129588   1.710   0.634  15.578
 5903SOL    HW229589   1.724   0.775  15.524
 5904SOL     OW29590   2.440   1.703  19.909
 5904SOL    HW129591   2.387   1.712  19.829
 5904SOL    HW229592   2.452   1.609  19.918
 5905SOL     OW29593   2.239   3.213  17.893
 5905SOL    HW129594   2.306   3.190  17.957
 5905SOL    HW229595   2.179   3.269  17.941
 5906SOL     OW29596   2.164   2.231   0.043
 5906SOL    HW129597   2.249   2.272   0.028
 5906SOL    HW229598   2.127   2.279   0.117
 5907SOL     OW29599   1.840   3.372   7.661
 5907SOL    HW129600   1.778   3.442   7.679
 5907SOL    HW229601   1.875   3.349   7.747
 5908SOL     OW29602   1.640   4.333  19.189
 5908SOL    HW129603   1.720   4.316  19.140
 5908SOL    HW229604   1.603   4.247  19.207
 5909SOL     OW29605   3.826   1.967   4.089
 5909SOL    HW129606   3.869   1.977   4.004
 5909SOL    HW229607   3.835   1.874   4.110
 5910SOL     OW29608   0.000   0.460   1.776
 5910SOL    HW129609   4.793   0.555   1.771
 5910SOL    HW229610   0.077   0.434   1.725
 5911SOL     OW29611   1.046   1.811   8.918
 5911SOL    HW129612   0.997   1.855   8.988
 5911SOL    HW229613   1.120   1.869   8.900
 5912SOL     OW29614   2.826   1.532  17.535
 5912SOL    HW129615   2.792   1.445  17.516
 5912SOL    HW229616   2.778   1.590  17.476
 5913SOL     OW29617   3.744   0.774   0.849
 5913SOL    HW129618   3.714   0.856   0.886
 5913SOL    HW229619   3.664   0.722   0.838
 5914SOL     OW29620   2.262   4.230  20.813
 5914SOL    HW129621   2.268   4.292  20.885
 5914SOL    HW229622   2.191   4.171  20.837
 5915SOL     OW29623   1.238   4.187   0.163
 5915SOL    HW129624   1.146   4.201   0.139
 5915SOL    HW229625   1.235   4.116   0.228
 5916SOL     OW29626   1.944   3.989  18.742
 5916SOL    HW129627   1.946   4.003  18.837
 5916SOL    HW229628   1.981   4.070  18.705
 5917SOL     OW29629   2.570   3.464   5.623
 5917SOL    HW129630   2.554   3.418   5.541
 5917SOL    HW229631   2.649   3.516   5.606
 5918SOL     OW29632   2.496   4.242  19.698
 5918SOL    HW129633   2.531   4.332  19.695
 5918SOL    HW229634   2.433   4.238  19.627
 5919SOL     OW29635   1.527   1.847  20.567
 5919SOL    HW129636   1.442   1.876  20.600
 5919SOL    HW229637   1.528   1.875  20.475
 5920SOL     OW29638   0.402   1.930  18.626
 5920SOL    HW129639   0.347   1.940  18.548
 5920SOL    HW229640   0.491   1.949  18.596
 5921SOL     OW29641   4.085   0.978   6.834
 5921SOL    HW129642   4.003   0.954   6.876
 5921SOL    HW229643   4.083   1.073   6.826
 5922SOL     OW29644   0.005   3.632  14.113
 5922SOL    HW129645   4.724   3.616  14.169
 5922SOL    HW229646   4.776   3.711  14.064
 5923SOL     OW29647   3.120   2.014   3.998
 5923SOL    HW129648   3.185   2.079   4.023
 5923SOL    HW229649   3.074   1.993   4.079
 5924SOL     OW29650   1.418   3.556  20.715
 5924SOL    HW129651   1.467   3.638  20.706
 5924SOL    HW229652   1.351   3.575  20.780
 5925SOL     OW29653   2.480   3.268   6.552
 5925SOL    HW129654   2.387   3.280   6.573
 5925SOL    HW229655   2.525   3.270   6.636
 5926SOL     OW29656   0.334   4.361   2.063
 5926SOL    HW129657   0.272   4.403   2.003
 5926SOL    HW229658   0.307   4.269   2.065
 5927SOL     OW29659   0.584   0.475  19.718
 5927SOL    HW129660   0.515   0.419  19.683
 5927SOL    HW229661   0.618   0.428  19.794
 5928SOL     OW29662   2.516   1.774  16.811
 5928SOL    HW129663   2.452   1.714  16.773
 5928SOL    HW229664   2.512   1.852  16.756
 5929SOL     OW29665   0.922   2.123  15.884
 5929SOL    HW129666   0.956   2.193  15.827
 5929SOL    HW229667   0.999   2.070  15.905
 5930SOL     OW29668   4.251   4.625  18.080
 5930SOL    HW129669   4.274   4.538  18.114
 5930SOL    HW229670   4.181   4.608  18.017
 5931SOL     OW29671   3.006   1.539  19.909
 5931SOL    HW129672   2.961   1.585  19.839
 5931SOL    HW229673   2.945   1.540  19.982
 5932SOL     OW29674   0.087   1.531   6.705
 5932SOL    HW129675   0.138   1.587   6.647
 5932SOL    HW229676   0.110   1.560   6.793
 5933SOL     OW29677   3.731   2.299   3.280
 5933SOL    HW129678   3.724   2.306   3.185
 5933SOL    HW229679   3.814   2.342   3.301
 5934SOL     OW29680   2.720   1.734   5.214
 5934SOL    HW129681   2.801   1.772   5.248
 5934SOL    HW229682   2.747   1.653   5.172
 5935SOL     OW29683   2.694   3.134  18.389
 5935SOL    HW129684   2.674   3.065  18.453
 5935SOL    HW229685   2.701   3.088  18.306
 5936SOL     OW29686   3.199   3.879   5.478
 5936SOL    HW129687   3.137   3.858   5.548
 5936SOL    HW229688   3.167   3.830   5.402
 5937SOL     OW29689   2.594   1.193  17.071
 5937SOL    HW129690   2.665   1.258  17.078
 5937SOL    HW229691   2.553   1.194  17.158
 5938SOL     OW29692   3.948   2.539   2.315
 5938SOL    HW129693   3.853   2.530   2.319
 5938SOL    HW229694   3.968   2.537   2.222
 5939SOL     OW29695   0.226   3.410   1.603
 5939SOL    HW129696   0.284   3.479   1.634
 5939SOL    HW229697   0.197   3.441   1.517
 5940SOL     OW29698   2.782   2.831   5.814
 5940SOL    HW129699   2.815   2.829   5.904
 5940SOL    HW229700   2.860   2.826   5.759
 5941SOL     OW29701   3.996   4.560  15.853
 5941SOL    HW129702   4.065   4.509  15.812
 5941SOL    HW229703   4.041   4.609  15.922
 5942SOL     OW29704   1.670   1.219   4.029
 5942SOL    HW129705   1.690   1.178   3.945
 5942SOL    HW229706   1.583   1.257   4.016
 5943SOL     OW29707   0.099   0.685  18.816
 5943SOL    HW129708   0.127   0.674  18.725
 5943SOL    HW229709   0.036   0.757  18.813
 5944SOL     OW29710   3.663   1.586   3.211
 5944SOL    HW129711   3.737   1.603   3.269
 5944SOL    HW229712   3.657   1.664   3.156
 5945SOL     OW29713   3.700   4.397   1.223
 5945SOL    HW129714   3.725   4.326   1.164
 5945SOL    HW229715   3.637   4.449   1.174
 5946SOL     OW29716   2.784   0.455   5.643
 5946SOL    HW129717   2.863   0.499   5.611
 5946SOL    HW229718   2.747   0.415   5.564
 5947SOL     OW29719   2.671   4.136  19.441
 5947SOL    HW129720   2.676   4.130  19.345
 5947SOL    HW229721   2.720   4.215  19.463
 5948SOL     OW29722   2.293   3.654   7.696
 5948SOL    HW129723   2.239   3.576   7.684
 5948SOL    HW229724   2.277   3.681   7.786
 5949SOL     OW29725   0.266   2.525  15.700
 5949SOL    HW129726   0.271   2.462  15.628
 5949SOL    HW229727   0.314   2.602  15.668
 5950SOL     OW29728   3.249   3.189   7.597
 5950SOL    HW129729   3.241   3.260   7.533
 5950SOL    HW229730   3.309   3.223   7.663
 5951SOL     OW29731   0.660   0.807   4.052
 5951SOL    HW129732   0.671   0.855   3.970
 5951SOL    HW229733   0.583   0.753   4.037
 5952SOL     OW29734   2.719   0.289   2.268
 5952SOL    HW129735   2.733   0.237   2.189
 5952SOL    HW229736   2.807   0.313   2.297
 5953SOL     OW29737   4.100   4.727   9.094
 5953SOL    HW129738   4.133   4.654   9.146
 5953SOL    HW229739   4.019   4.754   9.138
 5954SOL     OW29740   4.037   3.049  17.236
 5954SOL    HW129741   4.090   3.057  17.316
 5954SOL    HW229742   4.004   2.959  17.238
 5955SOL     OW29743   2.030   2.927  20.554
 5955SOL    HW129744   2.106   2.922  20.496
 5955SOL    HW229745   2.061   2.977  20.630
 5956SOL     OW29746   1.796   1.201   7.596
 5956SOL    HW129747   1.781   1.256   7.673
 5956SOL    HW229748   1.806   1.264   7.524
 5957SOL     OW29749   3.932   1.946   3.830
 5957SOL    HW129750   3.883   1.870   3.800
 5957SOL    HW229751   3.927   2.008   3.757
 5958SOL     OW29752   0.423   0.874  15.912
 5958SOL    HW129753   0.385   0.882  15.824
 5958SOL    HW229754   0.439   0.964  15.940
 5959SOL     OW29755   0.731   0.592   4.918
 5959SOL    HW129756   0.728   0.625   5.008
 5959SOL    HW229757   0.696   0.503   4.924
 5960SOL     OW29758   3.296   3.043   7.911
 5960SOL    HW129759   3.259   3.125   7.944
 5960SOL    HW229760   3.339   3.067   7.829
 5961SOL     OW29761   4.331   2.130  19.945
 5961SOL    HW129762   4.261   2.192  19.924
 5961SOL    HW229763   4.358   2.154  20.033
 5962SOL     OW29764   0.818   0.651   3.523
 5962SOL    HW129765   0.794   0.630   3.613
 5962SOL    HW229766   0.843   0.567   3.485
 5963SOL     OW29767   4.077   4.648   0.152
 5963SOL    HW129768   4.023   4.569   0.149
 5963SOL    HW229769   4.150   4.625   0.210
 5964SOL     OW29770   1.240   2.314   3.620
 5964SOL    HW129771   1.308   2.328   3.553
 5964SOL    HW229772   1.281   2.342   3.702
 5965SOL     OW29773   3.345   3.845   2.723
 5965SOL    HW129774   3.269   3.898   2.697
 5965SOL    HW229775   3.334   3.763   2.676
 5966SOL     OW29776   4.660   1.868   2.490
 5966SOL    HW129777   4.566   1.882   2.481
 5966SOL    HW229778   4.675   1.779   2.457
 5967SOL     OW29779   4.133   2.660   4.162
 5967SOL    HW129780   4.074   2.633   4.092
 5967SOL    HW229781   4.159   2.579   4.205
 5968SOL     OW29782   2.368   1.320   1.463
 5968SOL    HW129783   2.408   1.287   1.543
 5968SOL    HW229784   2.275   1.330   1.484
 5969SOL     OW29785   4.145   1.160  15.587
 5969SOL    HW129786   4.203   1.221  15.542
 5969SOL    HW229787   4.201   1.086  15.611
 5970SOL     OW29788   2.699   3.345   1.138
 5970SOL    HW129789   2.760   3.302   1.197
 5970SOL    HW229790   2.624   3.367   1.192
 5971SOL     OW29791   0.678   2.869   7.758
 5971SOL    HW129792   0.695   2.895   7.848
 5971SOL    HW229793   0.664   2.774   7.763
 5972SOL     OW29794   3.697   2.974  21.189
 5972SOL    HW129795   3.737   2.887  21.188
 5972SOL    HW229796   3.632   2.971  21.119
 5973SOL     OW29797   3.890   0.741   8.392
 5973SOL    HW129798   3.811   0.720   8.441
 5973SOL    HW229799   3.866   0.727   8.301
 5974SOL     OW29800   4.324   3.408   6.982
 5974SOL    HW129801   4.348   3.372   7.067
 5974SOL    HW229802   4.230   3.392   6.974
 5975SOL     OW29803   1.240   1.204  18.560
 5975SOL    HW129804   1.188   1.124  18.567
 5975SOL    HW229805   1.261   1.227  18.651
 5976SOL     OW29806   2.356   2.627   4.518
 5976SOL    HW129807   2.385   2.706   4.472
 5976SOL    HW229808   2.260   2.632   4.515
 5977SOL     OW29809   1.161   2.455  20.955
 5977SOL    HW129810   1.102   2.450  21.031
 5977SOL    HW229811   1.139   2.538  20.913
 5978SOL     OW29812   4.478   3.284   8.202
 5978SOL    HW129813   4.481   3.255   8.111
 5978SOL    HW229814   4.458   3.378   8.196
 5979SOL     OW29815   0.107   2.745   3.728
 5979SOL    HW129816   0.055   2.783   3.799
 5979SOL    HW229817   0.183   2.707   3.772
 5980SOL     OW29818   3.204   3.431   0.916
 5980SOL    HW129819   3.136   3.402   0.855
 5980SOL    HW229820   3.182   3.522   0.935
 5981SOL     OW29821   2.673   1.918   6.295
 5981SOL    HW129822   2.605   1.860   6.328
 5981SOL    HW229823   2.733   1.861   6.247
 5982SOL     OW29824   1.749   1.388   7.408
 5982SOL    HW129825   1.687   1.338   7.354
 5982SOL    HW229826   1.731   1.480   7.386
 5983SOL     OW29827   3.790   2.929   1.758
 5983SOL    HW129828   3.802   2.999   1.694
 5983SOL    HW229829   3.740   2.862   1.711
 5984SOL     OW29830   3.828   0.906   1.732
 5984SOL    HW129831   3.804   0.985   1.682
 5984SOL    HW229832   3.755   0.845   1.717
 5985SOL     OW29833   3.094   4.151   0.094
 5985SOL    HW129834   3.085   4.156  21.275
 5985SOL    HW229835   3.009   4.181   0.127
 5986SOL     OW29836   2.162   2.921  19.077
 5986SOL    HW129837   2.128   2.956  18.995
 5986SOL    HW229838   2.210   2.994  19.117
 5987SOL     OW29839   1.661   0.317   4.180
 5987SOL    HW129840   1.609   0.309   4.260
 5987SOL    HW229841   1.673   0.227   4.150
 5988SOL     OW29842   3.770   3.489   5.445
 5988SOL    HW129843   3.739   3.473   5.356
 5988SOL    HW229844   3.762   3.583   5.457
 5989SOL     OW29845   2.908   0.442  16.464
 5989SOL    HW129846   2.848   0.439  16.538
 5989SOL    HW229847   2.932   0.351  16.448
 5990SOL     OW29848   0.835   2.890  16.610
 5990SOL    HW129849   0.822   2.951  16.682
 5990SOL    HW229850   0.910   2.837  16.637
 5991SOL     OW29851   4.182   2.869  14.513
 5991SOL    HW129852   4.122   2.930  14.556
 5991SOL    HW229853   4.269   2.909  14.523
 5992SOL     OW29854   0.679   2.358  19.235
 5992SOL    HW129855   0.641   2.354  19.147
 5992SOL    HW229856   0.649   2.442  19.269
 5993SOL     OW29857   3.619   2.096   2.815
 5993SOL    HW129858   3.625   2.108   2.721
 5993SOL    HW229859   3.709   2.077   2.843
 5994SOL     OW29860   1.017   4.159  18.615
 5994SOL    HW129861   1.040   4.172  18.523
 5994SOL    HW229862   0.922   4.169  18.618
 5995SOL     OW29863   3.927   4.787  19.214
 5995SOL    HW129864   3.865   0.066  19.222
 5995SOL    HW229865   3.969   0.007  19.129
 5996SOL     OW29866   0.269   2.966   8.520
 5996SOL    HW129867   0.324   2.918   8.458
 5996SOL    HW229868   0.188   2.984   8.471
 5997SOL     OW29869   1.152   4.710  20.114
 5997SOL    HW129870   1.236   4.755  20.129
 5997SOL    HW229871   1.115   4.699  20.201
 5998SOL     OW29872   3.398   3.784  12.294
 5998SOL    HW129873   3.464   3.746  12.354
 5998SOL    HW229874   3.402   3.728  12.216
 5999SOL     OW29875   3.837   0.205   6.087
 5999SOL    HW129876   3.765   0.265   6.107
 5999SOL    HW229877   3.899   0.259   6.036
 6000SOL     OW29878   4.058   3.464   7.337
 6000SOL    HW129879   3.978   3.499   7.377
 6000SOL    HW229880   4.129   3.517   7.375
 6001SOL     OW29881   0.856   3.773  19.039
 6001SOL    HW129882   0.942   3.736  19.019
 6001SOL    HW229883   0.850   3.851  18.984
 6002SOL     OW29884   3.768   4.272   3.618
 6002SOL    HW129885   3.790   4.363   3.639
 6002SOL    HW229886   3.821   4.253   3.540
 6003SOL     OW29887   2.599   2.545   4.440
 6003SOL    HW129888   2.504   2.550   4.437
 6003SOL    HW229889   2.617   2.469   4.497
 6004SOL     OW29890   3.193   4.785   4.046
 6004SOL    HW129891   3.117   4.758   4.098
 6004SOL    HW229892   3.269   4.756   4.097
 6005SOL     OW29893   0.556   1.181   4.375
 6005SOL    HW129894   0.601   1.101   4.403
 6005SOL    HW229895   0.468   1.174   4.413
 6006SOL     OW29896   3.567   0.553   1.940
 6006SOL    HW129897   3.653   0.583   1.913
 6006SOL    HW229898   3.540   0.490   1.872
 6007SOL     OW29899   3.135   1.877   1.665
 6007SOL    HW129900   3.068   1.890   1.598
 6007SOL    HW229901   3.204   1.940   1.644
 6008SOL     OW29902   4.156   4.374   2.141
 6008SOL    HW129903   4.224   4.326   2.187
 6008SOL    HW229904   4.143   4.453   2.193
 6009SOL     OW29905   0.762   3.048  15.897
 6009SOL    HW129906   0.694   2.991  15.933
 6009SOL    HW229907   0.787   3.007  15.815
 6010SOL     OW29908   3.250   3.929   0.210
 6010SOL    HW129909   3.179   3.869   0.188
 6010SOL    HW229910   3.224   4.012   0.171
 6011SOL     OW29911   2.154   0.268   1.169
 6011SOL    HW129912   2.059   0.269   1.157
 6011SOL    HW229913   2.167   0.292   1.261
 6012SOL     OW29914   0.194   2.866  19.985
 6012SOL    HW129915   0.126   2.895  19.924
 6012SOL    HW229916   0.172   2.774  20.002
 6013SOL     OW29917   3.806   0.239   9.278
 6013SOL    HW129918   3.895   0.272   9.284
 6013SOL    HW229919   3.811   0.162   9.223
 6014SOL     OW29920   1.194   2.289   7.893
 6014SOL    HW129921   1.230   2.355   7.834
 6014SOL    HW229922   1.186   2.335   7.977
 6015SOL     OW29923   2.134   4.182   5.247
 6015SOL    HW129924   2.182   4.265   5.237
 6015SOL    HW229925   2.201   4.115   5.244
 6016SOL     OW29926   1.025   1.937   9.830
 6016SOL    HW129927   0.956   2.003   9.833
 6016SOL    HW229928   0.981   1.858   9.799
 6017SOL     OW29929   0.238   1.803  10.039
 6017SOL    HW129930   0.147   1.772  10.036
 6017SOL    HW229931   0.231   1.898  10.027
 6018SOL     OW29932   1.112   2.066   8.465
 6018SOL    HW129933   1.115   2.019   8.381
 6018SOL    HW229934   1.150   2.152   8.445
 6019SOL     OW29935   0.629   2.231   8.175
 6019SOL    HW129936   0.650   2.151   8.127
 6019SOL    HW229937   0.559   2.205   8.235
 6020SOL     OW29938   1.648   2.272   8.519
 6020SOL    HW129939   1.677   2.229   8.599
 6020SOL    HW229940   1.619   2.201   8.462
 6021SOL     OW29941   0.831   1.129   9.090
 6021SOL    HW129942   0.862   1.056   9.036
 6021SOL    HW229943   0.894   1.135   9.161
 6022SOL     OW29944   0.954   2.798   9.803
 6022SOL    HW129945   0.969   2.746   9.724
 6022SOL    HW229946   0.977   2.739   9.875
 6023SOL     OW29947   0.815   1.011   7.730
 6023SOL    HW129948   0.756   1.018   7.654
 6023SOL    HW229949   0.799   0.924   7.765
 6024SOL     OW29950   0.375   4.367   0.972
 6024SOL    HW129951   0.286   4.334   0.986
 6024SOL    HW229952   0.432   4.298   1.007
 6025SOL     OW29953   1.422   0.472   7.532
 6025SOL    HW129954   1.331   0.453   7.509
 6025SOL    HW229955   1.416   0.524   7.613
 6026SOL     OW29956   1.877   2.176   8.004
 6026SOL    HW129957   1.920   2.254   8.037
 6026SOL    HW229958   1.941   2.135   7.946
 6027SOL     OW29959   0.148   2.098   9.855
 6027SOL    HW129960   0.211   2.120   9.924
 6027SOL    HW229961   0.198   2.106   9.773
 6028SOL     OW29962   1.638   3.441   9.574
 6028SOL    HW129963   1.705   3.508   9.592
 6028SOL    HW229964   1.677   3.359   9.605
 6029SOL     OW29965   4.696   1.532   8.455
 6029SOL    HW129966   4.669   1.595   8.388
 6029SOL    HW229967   4.617   1.482   8.475
 6030SOL     OW29968   3.789   3.801  16.214
 6030SOL    HW129969   3.778   3.870  16.279
 6030SOL    HW229970   3.792   3.720  16.265
 6031SOL     OW29971   0.970   2.288   8.310
 6031SOL    HW129972   0.915   2.256   8.382
 6031SOL    HW229973   1.058   2.292   8.348
 6032SOL     OW29974   0.978   3.123   8.684
 6032SOL    HW129975   1.068   3.090   8.675
 6032SOL    HW229976   0.988   3.218   8.693
 6033SOL     OW29977   0.539   3.144   8.406
 6033SOL    HW129978   0.627   3.108   8.414
 6033SOL    HW229979   0.532   3.206   8.478
 6034SOL     OW29980   4.771   4.309  15.421
 6034SOL    HW129981   4.792   4.347  15.336
 6034SOL    HW229982   0.015   4.370  15.485
 6035SOL     OW29983   2.270   0.664   8.763
 6035SOL    HW129984   2.270   0.599   8.833
 6035SOL    HW229985   2.357   0.656   8.723
 6036SOL     OW29986   0.348   1.377   7.913
 6036SOL    HW129987   0.437   1.342   7.908
 6036SOL    HW229988   0.341   1.413   8.002
 6037SOL     OW29989   0.551   2.695  11.010
 6037SOL    HW129990   0.505   2.664  10.933
 6037SOL    HW229991   0.621   2.751  10.976
 6038SOL     OW29992   0.304   2.235  10.503
 6038SOL    HW129993   0.388   2.277  10.523
 6038SOL    HW229994   0.262   2.224  10.588
 6039SOL     OW29995   0.133   3.246  10.111
 6039SOL    HW129996   0.213   3.198  10.133
 6039SOL    HW229997   0.074   3.178  10.078
 6040SOL     OW29998   0.756   1.659  11.156
 6040SOL    HW129999   0.848   1.634  11.150
 6040SOL    HW230000   0.753   1.750  11.128
 6041SOL     OW30001   0.607   2.701  10.226
 6041SOL    HW130002   0.589   2.681  10.318
 6041SOL    HW230003   0.701   2.684  10.216
 6042SOL     OW30004   4.662   1.567  10.541
 6042SOL    HW130005   4.723   1.636  10.568
 6042SOL    HW230006   4.681   1.552  10.449
 6043SOL     OW30007   0.847   1.982  11.902
 6043SOL    HW130008   0.919   2.034  11.865
 6043SOL    HW230009   0.793   1.959  11.827
 6044SOL     OW30010   1.277   1.497  12.238
 6044SOL    HW130011   1.308   1.560  12.173
 6044SOL    HW230012   1.258   1.418  12.189
 6045SOL     OW30013   4.420   0.721   9.700
 6045SOL    HW130014   4.336   0.748   9.664
 6045SOL    HW230015   4.415   0.744   9.793
 6046SOL     OW30016   0.816   2.148   9.786
 6046SOL    HW130017   0.775   2.233   9.772
 6046SOL    HW230018   0.743   2.090   9.810
 6047SOL     OW30019   1.517   2.402   9.569
 6047SOL    HW130020   1.450   2.333   9.573
 6047SOL    HW230021   1.573   2.385   9.645
 6048SOL     OW30022   1.706   2.363  11.626
 6048SOL    HW130023   1.759   2.326  11.555
 6048SOL    HW230024   1.720   2.457  11.619
 6049SOL     OW30025   3.734   0.947   6.646
 6049SOL    HW130026   3.710   0.870   6.594
 6049SOL    HW230027   3.772   1.008   6.583
 6050SOL     OW30028   3.737   1.380  10.716
 6050SOL    HW130029   3.687   1.454  10.750
 6050SOL    HW230030   3.829   1.408  10.723
 6051SOL     OW30031   3.797   1.484  13.587
 6051SOL    HW130032   3.763   1.411  13.638
 6051SOL    HW230033   3.727   1.548  13.587
 6052SOL     OW30034   0.598   3.358  10.472
 6052SOL    HW130035   0.670   3.299  10.453
 6052SOL    HW230036   0.521   3.302  10.475
 6053SOL     OW30037   1.551   2.140   9.305
 6053SOL    HW130038   1.469   2.181   9.332
 6053SOL    HW230039   1.532   2.102   9.219
 6054SOL     OW30040   1.313   1.669  10.548
 6054SOL    HW130041   1.218   1.681  10.550
 6054SOL    HW230042   1.348   1.756  10.569
 6055SOL     OW30043   0.008   2.125  10.498
 6055SOL    HW130044   4.766   2.053  10.550
 6055SOL    HW230045   0.090   2.147  10.541
 6056SOL     OW30046   1.554   1.618  13.915
 6056SOL    HW130047   1.594   1.590  13.832
 6056SOL    HW230048   1.515   1.703  13.895
 6057SOL     OW30049   1.068   3.181  11.628
 6057SOL    HW130050   1.064   3.146  11.716
 6057SOL    HW230051   1.134   3.250  11.632
 6058SOL     OW30052   3.878   1.800  10.292
 6058SOL    HW130053   3.852   1.749  10.215
 6058SOL    HW230054   3.799   1.803  10.346
 6059SOL     OW30055   2.743   1.328  11.628
 6059SOL    HW130056   2.736   1.327  11.723
 6059SOL    HW230057   2.682   1.260  11.598
 6060SOL     OW30058   2.225   1.233  12.232
 6060SOL    HW130059   2.306   1.276  12.261
 6060SOL    HW230060   2.254   1.169  12.167
 6061SOL     OW30061   1.232   2.480  11.285
 6061SOL    HW130062   1.167   2.530  11.235
 6061SOL    HW230063   1.257   2.538  11.357
 6062SOL     OW30064   0.641   2.927  10.869
 6062SOL    HW130065   0.641   3.002  10.928
 6062SOL    HW230066   0.604   2.960  10.788
 6063SOL     OW30067   0.335   3.541  12.133
 6063SOL    HW130068   0.421   3.538  12.089
 6063SOL    HW230069   0.344   3.611  12.198
 6064SOL     OW30070   4.583   1.338  12.274
 6064SOL    HW130071   4.578   1.346  12.370
 6064SOL    HW230072   4.521   1.269  12.253
 6065SOL     OW30073   2.737   2.155  12.312
 6065SOL    HW130074   2.704   2.206  12.238
 6065SOL    HW230075   2.688   2.189  12.387
 6066SOL     OW30076   1.011   2.524  12.665
 6066SOL    HW130077   0.946   2.454  12.669
 6066SOL    HW230078   1.025   2.548  12.756
 6067SOL     OW30079   2.942   2.154   5.325
 6067SOL    HW130080   2.878   2.179   5.392
 6067SOL    HW230081   3.004   2.226   5.322
 6068SOL     OW30082   0.824   4.488  12.121
 6068SOL    HW130083   0.753   4.424  12.125
 6068SOL    HW230084   0.895   4.443  12.076
 6069SOL     OW30085   1.542   3.810  12.587
 6069SOL    HW130086   1.461   3.798  12.637
 6069SOL    HW230087   1.580   3.890  12.621
 6070SOL     OW30088   1.783   1.972  11.702
 6070SOL    HW130089   1.791   1.983  11.607
 6070SOL    HW230090   1.729   2.046  11.730
 6071SOL     OW30091   4.207   0.782  11.644
 6071SOL    HW130092   4.142   0.746  11.704
 6071SOL    HW230093   4.247   0.706  11.603
 6072SOL     OW30094   3.912   3.064  12.442
 6072SOL    HW130095   3.844   3.036  12.381
 6072SOL    HW230096   3.927   3.156  12.421
 6073SOL     OW30097   0.194   2.634  10.816
 6073SOL    HW130098   0.121   2.630  10.755
 6073SOL    HW230099   0.154   2.624  10.902
 6074SOL     OW30100   4.697   2.487  12.455
 6074SOL    HW130101   4.662   2.426  12.521
 6074SOL    HW230102   4.689   2.573  12.496
 6075SOL     OW30103   0.482   2.174  11.700
 6075SOL    HW130104   0.470   2.090  11.743
 6075SOL    HW230105   0.395   2.213  11.699
 6076SOL     OW30106   1.885   1.883  10.879
 6076SOL    HW130107   1.916   1.805  10.925
 6076SOL    HW230108   1.952   1.901  10.813
 6077SOL     OW30109   1.466   1.107  12.011
 6077SOL    HW130110   1.552   1.138  12.038
 6077SOL    HW230111   1.474   1.012  12.010
 6078SOL     OW30112   1.004   2.708  11.194
 6078SOL    HW130113   0.912   2.686  11.178
 6078SOL    HW230114   1.009   2.727  11.287
 6079SOL     OW30115   3.019   1.886  12.849
 6079SOL    HW130116   2.990   1.965  12.894
 6079SOL    HW230117   2.941   1.853  12.805
 6080SOL     OW30118   0.316   3.338  13.711
 6080SOL    HW130119   0.271   3.372  13.788
 6080SOL    HW230120   0.248   3.291  13.663
 6081SOL     OW30121   4.135   2.395  12.657
 6081SOL    HW130122   4.045   2.416  12.633
 6081SOL    HW230123   4.170   2.349  12.581
 6082SOL     OW30124   1.423   1.901  10.605
 6082SOL    HW130125   1.378   1.985  10.594
 6082SOL    HW230126   1.498   1.907  10.546
 6083SOL     OW30127   2.332   1.533  16.080
 6083SOL    HW130128   2.407   1.571  16.033
 6083SOL    HW230129   2.341   1.568  16.169
 6084SOL     OW30130   2.473   3.418   0.483
 6084SOL    HW130131   2.455   3.512   0.489
 6084SOL    HW230132   2.424   3.389   0.406
 6085SOL     OW30133   1.258   4.020   0.359
 6085SOL    HW130134   1.342   4.033   0.403
 6085SOL    HW230135   1.205   3.971   0.422
 6086SOL     OW30136   4.276   0.358   1.755
 6086SOL    HW130137   4.365   0.350   1.719
 6086SOL    HW230138   4.242   0.268   1.756
 6087SOL     OW30139   0.943   4.577  20.251
 6087SOL    HW130140   0.965   4.630  20.327
 6087SOL    HW230141   0.850   4.558  20.261
 6088SOL     OW30142   3.550   1.258  18.271
 6088SOL    HW130143   3.626   1.278  18.215
 6088SOL    HW230144   3.491   1.331  18.257
 6089SOL     OW30145   3.535   2.389   7.054
 6089SOL    HW130146   3.553   2.296   7.065
 6089SOL    HW230147   3.607   2.433   7.100
 6090SOL     OW30148   3.364   1.104  18.108
 6090SOL    HW130149   3.419   1.128  18.182
 6090SOL    HW230150   3.377   1.174  18.044
 6091SOL     OW30151   3.537   0.476   1.504
 6091SOL    HW130152   3.493   0.431   1.432
 6091SOL    HW230153   3.622   0.503   1.467
 6092SOL     OW30154   0.704   4.328  16.458
 6092SOL    HW130155   0.657   4.409  16.477
 6092SOL    HW230156   0.664   4.295  16.378
 6093SOL     OW30157   1.001   0.390   0.486
 6093SOL    HW130158   1.097   0.396   0.486
 6093SOL    HW230159   0.976   0.398   0.394
 6094SOL     OW30160   3.028   1.695   3.698
 6094SOL    HW130161   3.023   1.603   3.724
 6094SOL    HW230162   2.939   1.728   3.708
 6095SOL     OW30163   4.641   2.716  12.567
 6095SOL    HW130164   4.703   2.744  12.635
 6095SOL    HW230165   4.556   2.748  12.597
 6096SOL     OW30166   2.396   1.462   1.979
 6096SOL    HW130167   2.400   1.367   1.989
 6096SOL    HW230168   2.487   1.488   1.961
 6097SOL     OW30169   0.504   2.217  13.896
 6097SOL    HW130170   0.550   2.195  13.815
 6097SOL    HW230171   0.566   2.269  13.946
 6098SOL     OW30172   0.847   4.672  12.321
 6098SOL    HW130173   0.816   4.629  12.241
 6098SOL    HW230174   0.847   4.602  12.386
 6099SOL     OW30175   2.720   4.534  19.455
 6099SOL    HW130176   2.766   4.465  19.502
 6099SOL    HW230177   2.634   4.538  19.497
 6100SOL     OW30178   3.066   4.062  16.159
 6100SOL    HW130179   3.131   4.131  16.170
 6100SOL    HW230180   3.013   4.090  16.084
 6101SOL     OW30181   4.135   3.826  16.541
 6101SOL    HW130182   4.102   3.850  16.454
 6101SOL    HW230183   4.144   3.910  16.587
 6102SOL     OW30184   3.414   0.853   4.835
 6102SOL    HW130185   3.350   0.897   4.780
 6102SOL    HW230186   3.496   0.859   4.786
 6103SOL     OW30187   1.661   0.508   2.268
 6103SOL    HW130188   1.703   0.579   2.219
 6103SOL    HW230189   1.615   0.457   2.202
 6104SOL     OW30190   3.029   1.773   7.946
 6104SOL    HW130191   3.058   1.693   7.901
 6104SOL    HW230192   3.109   1.809   7.984
 6105SOL     OW30193   4.744   2.057  17.909
 6105SOL    HW130194   4.649   2.071  17.916
 6105SOL    HW230195   4.782   2.128  17.961
 6106SOL     OW30196   4.793   2.388  12.216
 6106SOL    HW130197   0.078   2.347  12.252
 6106SOL    HW230198   4.753   2.433  12.291
 6107SOL     OW30199   2.914   4.227  13.580
 6107SOL    HW130200   2.960   4.187  13.507
 6107SOL    HW230201   2.852   4.161  13.609
 6108SOL     OW30202   0.773   2.093  12.166
 6108SOL    HW130203   0.789   2.049  12.083
 6108SOL    HW230204   0.689   2.058  12.196
 6109SOL     OW30205   1.317   2.257   1.528
 6109SOL    HW130206   1.320   2.247   1.623
 6109SOL    HW230207   1.226   2.241   1.505
 6110SOL     OW30208   1.336   2.603  13.302
 6110SOL    HW130209   1.253   2.556  13.301
 6110SOL    HW230210   1.400   2.537  13.329
 6111SOL     OW30211   1.444   4.761  15.433
 6111SOL    HW130212   1.442   0.061  15.453
 6111SOL    HW230213   1.537   4.740  15.425
 6112SOL     OW30214   0.070   2.330  14.520
 6112SOL    HW130215   0.020   2.291  14.591
 6112SOL    HW230216   0.094   2.417  14.552
 6113SOL     OW30217   0.555   0.141  19.357
 6113SOL    HW130218   0.611   0.141  19.435
 6113SOL    HW230219   0.539   0.048  19.339
 6114SOL     OW30220   1.165   1.495  13.799
 6114SOL    HW130221   1.214   1.420  13.832
 6114SOL    HW230222   1.073   1.472  13.811
 6115SOL     OW30223   3.009   1.192  14.658
 6115SOL    HW130224   3.064   1.184  14.580
 6115SOL    HW230225   3.068   1.225  14.725
 6116SOL     OW30226   1.745   1.666   4.472
 6116SOL    HW130227   1.823   1.655   4.527
 6116SOL    HW230228   1.706   1.748   4.502
 6117SOL     OW30229   0.424   1.687  18.279
 6117SOL    HW130230   0.501   1.742  18.266
 6117SOL    HW230231   0.459   1.602  18.306
 6118SOL     OW30232   1.249   4.758   2.272
 6118SOL    HW130233   1.268   4.760   2.179
 6118SOL    HW230234   1.333   4.771   2.315
 6119SOL     OW30235   0.073   2.190  12.726
 6119SOL    HW130236   4.773   2.176  12.719
 6119SOL    HW230237   0.087   2.217  12.817
 6120SOL     OW30238   1.600   2.999  17.318
 6120SOL    HW130239   1.638   3.005  17.406
 6120SOL    HW230240   1.668   3.032  17.260
 6121SOL     OW30241   3.853   3.408   8.396
 6121SOL    HW130242   3.795   3.475   8.432
 6121SOL    HW230243   3.941   3.435   8.423
 6122SOL     OW30244   2.934   1.888   3.468
 6122SOL    HW130245   2.968   1.963   3.516
 6122SOL    HW230246   2.907   1.827   3.536
 6123SOL     OW30247   0.464   0.334  14.131
 6123SOL    HW130248   0.542   0.283  14.150
 6123SOL    HW230249   0.419   0.286  14.062
 6124SOL     OW30250   3.778   3.578  17.433
 6124SOL    HW130251   3.769   3.580  17.338
 6124SOL    HW230252   3.703   3.628  17.466
 6125SOL     OW30253   0.633   0.488   0.575
 6125SOL    HW130254   0.648   0.393   0.577
 6125SOL    HW230255   0.708   0.525   0.620
 6126SOL     OW30256   3.951   2.071  20.354
 6126SOL    HW130257   4.019   2.135  20.334
 6126SOL    HW230258   3.873   2.124  20.374
 6127SOL     OW30259   1.758   0.782   6.080
 6127SOL    HW130260   1.774   0.687   6.079
 6127SOL    HW230261   1.827   0.818   6.136
 6128SOL     OW30262   0.304   2.167  19.729
 6128SOL    HW130263   0.283   2.180  19.636
 6128SOL    HW230264   0.227   2.199  19.776
 6129SOL     OW30265   0.700   0.863   5.918
 6129SOL    HW130266   0.723   0.940   5.866
 6129SOL    HW230267   0.679   0.796   5.852
 6130SOL     OW30268   3.109   4.777   3.334
 6130SOL    HW130269   3.077   4.766   3.423
 6130SOL    HW230270   3.073   4.703   3.286
 6131SOL     OW30271   4.499   1.688   6.760
 6131SOL    HW130272   4.569   1.718   6.819
 6131SOL    HW230273   4.537   1.613   6.714
 6132SOL     OW30274   3.810   0.839  11.735
 6132SOL    HW130275   3.790   0.889  11.815
 6132SOL    HW230276   3.869   0.895  11.685
 6133SOL     OW30277   4.086   1.253  18.063
 6133SOL    HW130278   4.020   1.319  18.085
 6133SOL    HW230279   4.095   1.200  18.142
 6134SOL     OW30280   1.819   3.891  18.431
 6134SOL    HW130281   1.910   3.906  18.405
 6134SOL    HW230282   1.822   3.883  18.527
 6135SOL     OW30283   4.164   2.321   4.675
 6135SOL    HW130284   4.106   2.382   4.629
 6135SOL    HW230285   4.173   2.247   4.615
 6136SOL     OW30286   1.019   4.562  17.509
 6136SOL    HW130287   0.967   4.527  17.436
 6136SOL    HW230288   1.105   4.522  17.498
 6137SOL     OW30289   0.820   0.284  18.444
 6137SOL    HW130290   0.835   0.350  18.512
 6137SOL    HW230291   0.908   0.257  18.418
 6138SOL     OW30292   1.647   2.096  14.238
 6138SOL    HW130293   1.644   2.171  14.298
 6138SOL    HW230294   1.559   2.060  14.239
 6139SOL     OW30295   4.464   4.066  18.484
 6139SOL    HW130296   4.555   4.082  18.510
 6139SOL    HW230297   4.432   4.150  18.453
 6140SOL     OW30298   2.183   3.330   7.087
 6140SOL    HW130299   2.235   3.353   7.164
 6140SOL    HW230300   2.134   3.252   7.113
 6141SOL     OW30301   3.716   0.222  16.421
 6141SOL    HW130302   3.804   0.184  16.417
 6141SOL    HW230303   3.695   0.223  16.515
 6142SOL     OW30304   0.136   4.078   2.811
 6142SOL    HW130305   0.204   4.143   2.829
 6142SOL    HW230306   0.064   4.129   2.774
 6143SOL     OW30307   4.173   3.164   0.336
 6143SOL    HW130308   4.236   3.229   0.368
 6143SOL    HW230309   4.215   3.079   0.355
 6144SOL     OW30310   4.605   0.628  17.910
 6144SOL    HW130311   4.697   0.613  17.931
 6144SOL    HW230312   4.575   0.689  17.977
 6145SOL     OW30313   1.918   0.131  19.520
 6145SOL    HW130314   1.930   0.047  19.564
 6145SOL    HW230315   1.981   0.130  19.447
 6146SOL     OW30316   2.040   4.624   5.486
 6146SOL    HW130317   2.131   4.600   5.465
 6146SOL    HW230318   2.048   4.687   5.558
 6147SOL     OW30319   0.991   0.841  17.134
 6147SOL    HW130320   0.984   0.751  17.165
 6147SOL    HW230321   1.077   0.871  17.164
 6148SOL     OW30322   1.470   1.687   7.051
 6148SOL    HW130323   1.510   1.622   6.993
 6148SOL    HW230324   1.382   1.700   7.015
 6149SOL     OW30325   3.473   4.210  18.276
 6149SOL    HW130326   3.490   4.299  18.307
 6149SOL    HW230327   3.397   4.181  18.328
 6150SOL     OW30328   3.094   0.487  20.243
 6150SOL    HW130329   3.025   0.494  20.308
 6150SOL    HW230330   3.174   0.511  20.290
 6151SOL     OW30331   1.537   0.292  16.255
 6151SOL    HW130332   1.591   0.352  16.203
 6151SOL    HW230333   1.590   0.213  16.263
 6152SOL     OW30334   0.880   3.184   1.802
 6152SOL    HW130335   0.901   3.201   1.894
 6152SOL    HW230336   0.934   3.246   1.753
 6153SOL     OW30337   0.397   2.587  18.924
 6153SOL    HW130338   0.349   2.658  18.967
 6153SOL    HW230339   0.488   2.601  18.950
 6154SOL     OW30340   2.280   2.863   0.874
 6154SOL    HW130341   2.275   2.856   0.779
 6154SOL    HW230342   2.291   2.957   0.890
 6155SOL     OW30343   3.412   2.749   4.801
 6155SOL    HW130344   3.333   2.703   4.773
 6155SOL    HW230345   3.380   2.824   4.851
 6156SOL     OW30346   1.479   0.041   0.074
 6156SOL    HW130347   1.437   0.001   0.150
 6156SOL    HW230348   1.407   0.086   0.029
 6157SOL     OW30349   4.347   0.113  19.470
 6157SOL    HW130350   4.274   0.164  19.436
 6157SOL    HW230351   4.326   0.022  19.446
 6158SOL     OW30352   2.176   3.907  15.189
 6158SOL    HW130353   2.255   3.962  15.197
 6158SOL    HW230354   2.111   3.950  15.244
 6159SOL     OW30355   4.457   3.755  20.061
 6159SOL    HW130356   4.442   3.721  19.973
 6159SOL    HW230357   4.370   3.778  20.093
 6160SOL     OW30358   2.596   2.968   1.600
 6160SOL    HW130359   2.634   3.031   1.538
 6160SOL    HW230360   2.576   3.020   1.678
 6161SOL     OW30361   1.187   1.925   1.187
 6161SOL    HW130362   1.165   2.016   1.166
 6161SOL    HW230363   1.198   1.925   1.282
 6162SOL     OW30364   1.556   2.742   3.677
 6162SOL    HW130365   1.492   2.693   3.626
 6162SOL    HW230366   1.563   2.695   3.760
 6163SOL     OW30367   2.075   1.834  17.174
 6163SOL    HW130368   2.113   1.808  17.090
 6163SOL    HW230369   2.136   1.898  17.210
 6164SOL     OW30370   2.655   0.714   1.167
 6164SOL    HW130371   2.605   0.691   1.089
 6164SOL    HW230372   2.636   0.644   1.229
 6165SOL     OW30373   1.938   0.666   2.718
 6165SOL    HW130374   1.847   0.692   2.728
 6165SOL    HW230375   1.979   0.686   2.802
 6166SOL     OW30376   2.643   0.671  18.179
 6166SOL    HW130377   2.675   0.754  18.143
 6166SOL    HW230378   2.559   0.658  18.137
 6167SOL     OW30379   2.428   2.847   4.358
 6167SOL    HW130380   2.419   2.940   4.375
 6167SOL    HW230381   2.435   2.841   4.262
 6168SOL     OW30382   3.771   2.996   2.070
 6168SOL    HW130383   3.813   2.916   2.037
 6168SOL    HW230384   3.821   3.067   2.030
 6169SOL     OW30385   0.135   3.601   5.234
 6169SOL    HW130386   0.129   3.511   5.265
 6169SOL    HW230387   0.081   3.602   5.154
 6170SOL     OW30388   3.744   3.288   1.395
 6170SOL    HW130389   3.723   3.252   1.308
 6170SOL    HW230390   3.774   3.377   1.377
 6171SOL     OW30391   3.949   3.944  17.136
 6171SOL    HW130392   3.869   3.892  17.145
 6171SOL    HW230393   4.004   3.894  17.076
 6172SOL     OW30394   2.820   1.947   7.993
 6172SOL    HW130395   2.853   1.993   8.070
 6172SOL    HW230396   2.875   1.869   7.986
 6173SOL     OW30397   3.208   4.589   3.863
 6173SOL    HW130398   3.255   4.660   3.906
 6173SOL    HW230399   3.254   4.509   3.890
 6174SOL     OW30400   4.653   1.051   0.693
 6174SOL    HW130401   4.663   1.146   0.685
 6174SOL    HW230402   4.739   1.016   0.667
 6175SOL     OW30403   1.180   1.177   0.225
 6175SOL    HW130404   1.132   1.188   0.143
 6175SOL    HW230405   1.186   1.082   0.237
 6176SOL     OW30406   2.862   3.004  15.763
 6176SOL    HW130407   2.848   3.010  15.857
 6176SOL    HW230408   2.860   3.095  15.732
 6177SOL     OW30409   4.610   3.411  16.617
 6177SOL    HW130410   4.675   3.353  16.578
 6177SOL    HW230411   4.642   3.499  16.600
 6178SOL     OW30412   4.792   1.634   6.204
 6178SOL    HW130413   4.781   1.580   6.282
 6178SOL    HW230414   4.712   1.620   6.153
 6179SOL     OW30415   1.358   1.790   6.470
 6179SOL    HW130416   1.356   1.805   6.565
 6179SOL    HW230417   1.347   1.876   6.431
 6180SOL     OW30418   2.873   2.206   2.181
 6180SOL    HW130419   2.854   2.125   2.134
 6180SOL    HW230420   2.830   2.274   2.129
 6181SOL     OW30421   4.296   2.334   7.487
 6181SOL    HW130422   4.313   2.382   7.568
 6181SOL    HW230423   4.211   2.366   7.458
 6182SOL     OW30424   0.561   0.421   1.005
 6182SOL    HW130425   0.481   0.470   0.984
 6182SOL    HW230426   0.543   0.332   0.975
 6183SOL     OW30427   1.647   2.472  20.461
 6183SOL    HW130428   1.576   2.481  20.524
 6183SOL    HW230429   1.621   2.529  20.388
 6184SOL     OW30430   0.121   2.135   0.368
 6184SOL    HW130431   0.171   2.214   0.349
 6184SOL    HW230432   0.112   2.092   0.283
 6185SOL     OW30433   0.964   1.928  15.247
 6185SOL    HW130434   0.921   1.848  15.277
 6185SOL    HW230435   0.894   1.993  15.244
 6186SOL     OW30436   3.252   1.909   3.783
 6186SOL    HW130437   3.189   1.838   3.767
 6186SOL    HW230438   3.217   1.956   3.858
 6187SOL     OW30439   1.170   4.377   2.533
 6187SOL    HW130440   1.234   4.427   2.583
 6187SOL    HW230441   1.131   4.318   2.598
 6188SOL     OW30442   3.497   2.209   1.348
 6188SOL    HW130443   3.467   2.287   1.302
 6188SOL    HW230444   3.582   2.189   1.309
 6189SOL     OW30445   4.501   0.419   4.312
 6189SOL    HW130446   4.562   0.451   4.246
 6189SOL    HW230447   4.431   0.376   4.262
 6190SOL     OW30448   3.191   3.335  19.373
 6190SOL    HW130449   3.173   3.411  19.318
 6190SOL    HW230450   3.171   3.364  19.462
 6191SOL     OW30451   4.348   2.002   3.886
 6191SOL    HW130452   4.360   2.081   3.832
 6191SOL    HW230453   4.307   1.939   3.827
 6192SOL     OW30454   1.988   0.068  15.439
 6192SOL    HW130455   2.060   0.024  15.395
 6192SOL    HW230456   1.955   0.131  15.374
 6193SOL     OW30457   4.085   4.378   3.690
 6193SOL    HW130458   4.141   4.413   3.759
 6193SOL    HW230459   4.012   4.440   3.685
 6194SOL     OW30460   4.107   0.855   3.165
 6194SOL    HW130461   4.127   0.812   3.082
 6194SOL    HW230462   4.129   0.947   3.150
 6195SOL     OW30463   2.114   2.027   2.873
 6195SOL    HW130464   2.127   2.121   2.863
 6195SOL    HW230465   2.180   2.000   2.937
 6196SOL     OW30466   3.122   4.762  15.530
 6196SOL    HW130467   3.148   4.735  15.618
 6196SOL    HW230468   3.203   4.788  15.487
 6197SOL     OW30469   2.977   3.743  20.521
 6197SOL    HW130470   3.058   3.711  20.482
 6197SOL    HW230471   2.998   3.755  20.614
 6198SOL     OW30472   0.233   2.974  18.819
 6198SOL    HW130473   0.212   3.056  18.776
 6198SOL    HW230474   0.236   2.995  18.912
 6199SOL     OW30475   1.152   0.171  15.965
 6199SOL    HW130476   1.221   0.236  15.958
 6199SOL    HW230477   1.081   0.216  16.011
 6200SOL     OW30478   1.660   4.334  21.037
 6200SOL    HW130479   1.617   4.414  21.067
 6200SOL    HW230480   1.644   4.271  21.107
 6201SOL     OW30481   2.327   1.799  17.434
 6201SOL    HW130482   2.257   1.734  17.430
 6201SOL    HW230483   2.379   1.784  17.355
 6202SOL     OW30484   4.467   0.453   5.611
 6202SOL    HW130485   4.406   0.389   5.575
 6202SOL    HW230486   4.445   0.457   5.704
 6203SOL     OW30487   3.225   1.300   0.864
 6203SOL    HW130488   3.223   1.338   0.952
 6203SOL    HW230489   3.254   1.210   0.878
 6204SOL     OW30490   3.223   2.102  11.558
 6204SOL    HW130491   3.202   2.168  11.624
 6204SOL    HW230492   3.273   2.149  11.492
 6205SOL     OW30493   2.204   1.979  16.277
 6205SOL    HW130494   2.122   1.929  16.282
 6205SOL    HW230495   2.271   1.913  16.259
 6206SOL     OW30496   1.131   3.881  17.953
 6206SOL    HW130497   1.142   3.807  18.012
 6206SOL    HW230498   1.206   3.938  17.972
 6207SOL     OW30499   0.856   3.725  16.221
 6207SOL    HW130500   0.941   3.679  16.225
 6207SOL    HW230501   0.874   3.802  16.167
 6208SOL     OW30502   1.843   2.177  14.066
 6208SOL    HW130503   1.768   2.141  14.114
 6208SOL    HW230504   1.905   2.203  14.134
 6209SOL     OW30505   0.820   4.163   4.228
 6209SOL    HW130506   0.901   4.200   4.262
 6209SOL    HW230507   0.846   4.115   4.150
 6210SOL     OW30508   1.212   3.586   7.051
 6210SOL    HW130509   1.137   3.644   7.064
 6210SOL    HW230510   1.274   3.611   7.120
 6211SOL     OW30511   0.418   0.157   5.671
 6211SOL    HW130512   0.469   0.097   5.726
 6211SOL    HW230513   0.382   0.220   5.734
 6212SOL     OW30514   3.585   3.560   4.039
 6212SOL    HW130515   3.544   3.616   4.105
 6212SOL    HW230516   3.513   3.535   3.980
 6213SOL     OW30517   4.119   4.650   6.026
 6213SOL    HW130518   4.099   4.742   6.008
 6213SOL    HW230519   4.038   4.604   6.005
 6214SOL     OW30520   3.157   0.675  17.355
 6214SOL    HW130521   3.066   0.682  17.384
 6214SOL    HW230522   3.197   0.758  17.382
 6215SOL     OW30523   2.607   0.357   2.008
 6215SOL    HW130524   2.678   0.294   1.994
 6215SOL    HW230525   2.600   0.364   2.103
 6216SOL     OW30526   3.749   3.378   4.737
 6216SOL    HW130527   3.681   3.437   4.707
 6216SOL    HW230528   3.702   3.301   4.770
 6217SOL     OW30529   4.430   3.853   3.017
 6217SOL    HW130530   4.351   3.805   3.041
 6217SOL    HW230531   4.493   3.832   3.087
 6218SOL     OW30532   4.296   0.551  18.038
 6218SOL    HW130533   4.352   0.487  17.994
 6218SOL    HW230534   4.345   0.633  18.033
 6219SOL     OW30535   1.264   4.308   0.525
 6219SOL    HW130536   1.169   4.300   0.522
 6219SOL    HW230537   1.296   4.237   0.470
 6220SOL     OW30538   1.986   1.855   1.057
 6220SOL    HW130539   1.938   1.788   1.106
 6220SOL    HW230540   1.924   1.928   1.051
 6221SOL     OW30541   2.487   2.071   0.792
 6221SOL    HW130542   2.500   2.050   0.699
 6221SOL    HW230543   2.539   2.005   0.838
 6222SOL     OW30544   0.335   0.233  13.892
 6222SOL    HW130545   0.393   0.166  13.856
 6222SOL    HW230546   0.304   0.282  13.816
 6223SOL     OW30547   3.647   0.519  17.153
 6223SOL    HW130548   3.687   0.597  17.190
 6223SOL    HW230549   3.587   0.488  17.221
 6224SOL     OW30550   0.657   0.770   9.628
 6224SOL    HW130551   0.627   0.708   9.695
 6224SOL    HW230552   0.587   0.835   9.623
 6225SOL     OW30553   4.422   2.730   3.271
 6225SOL    HW130554   4.379   2.750   3.354
 6225SOL    HW230555   4.350   2.720   3.209
 6226SOL     OW30556   1.326   1.306  16.143
 6226SOL    HW130557   1.410   1.341  16.173
 6226SOL    HW230558   1.329   1.213  16.166
 6227SOL     OW30559   2.918   1.757  19.570
 6227SOL    HW130560   2.849   1.746  19.635
 6227SOL    HW230561   2.893   1.833  19.519
 6228SOL     OW30562   4.472   2.372   3.824
 6228SOL    HW130563   4.439   2.378   3.914
 6228SOL    HW230564   4.436   2.449   3.780
 6229SOL     OW30565   4.472   2.898  18.838
 6229SOL    HW130566   4.515   2.815  18.861
 6229SOL    HW230567   4.405   2.909  18.905
 6230SOL     OW30568   2.649   3.093  16.298
 6230SOL    HW130569   2.566   3.045  16.303
 6230SOL    HW230570   2.693   3.073  16.381
 6231SOL     OW30571   4.693   2.335   1.085
 6231SOL    HW130572   4.646   2.419   1.087
 6231SOL    HW230573   4.783   2.360   1.064
 6232SOL     OW30574   0.608   3.246   2.514
 6232SOL    HW130575   0.527   3.247   2.566
 6232SOL    HW230576   0.591   3.307   2.442
 6233SOL     OW30577   3.056   1.611  18.937
 6233SOL    HW130578   3.054   1.644  18.848
 6233SOL    HW230579   3.065   1.516  18.928
 6234SOL     OW30580   0.434   4.324  15.078
 6234SOL    HW130581   0.453   4.329  15.171
 6234SOL    HW230582   0.413   4.414  15.052
 6235SOL     OW30583   2.833   4.544  19.058
 6235SOL    HW130584   2.747   4.519  19.093
 6235SOL    HW230585   2.818   4.628  19.015
 6236SOL     OW30586   1.087   0.326   4.468
 6236SOL    HW130587   1.022   0.350   4.533
 6236SOL    HW230588   1.170   0.327   4.515
 6237SOL     OW30589   2.373   1.981   2.256
 6237SOL    HW130590   2.380   1.896   2.212
 6237SOL    HW230591   2.281   1.986   2.284
 6238SOL     OW30592   2.231   0.685   2.388
 6238SOL    HW130593   2.270   0.645   2.311
 6238SOL    HW230594   2.286   0.762   2.406
 6239SOL     OW30595   2.812   4.150  20.961
 6239SOL    HW130596   2.825   4.121  20.871
 6239SOL    HW230597   2.826   4.245  20.957
 6240SOL     OW30598   4.736   1.971   5.410
 6240SOL    HW130599   4.743   2.061   5.378
 6240SOL    HW230600   4.703   1.981   5.500
 6241SOL     OW30601   1.883   3.593  18.025
 6241SOL    HW130602   1.881   3.623  17.934
 6241SOL    HW230603   1.836   3.509  18.023
 6242SOL     OW30604   3.372   1.644   1.310
 6242SOL    HW130605   3.397   1.736   1.316
 6242SOL    HW230606   3.276   1.645   1.309
 6243SOL     OW30607   3.775   0.135   2.711
 6243SOL    HW130608   3.719   0.212   2.709
 6243SOL    HW230609   3.799   0.127   2.804
 6244SOL     OW30610   2.898   4.475  20.051
 6244SOL    HW130611   2.863   4.387  20.041
 6244SOL    HW230612   2.857   4.508  20.132
 6245SOL     OW30613   3.176   2.162  18.289
 6245SOL    HW130614   3.170   2.247  18.333
 6245SOL    HW230615   3.269   2.152  18.269
 6246SOL     OW30616   2.130   3.924  20.399
 6246SOL    HW130617   2.122   4.012  20.362
 6246SOL    HW230618   2.144   3.867  20.324
 6247SOL     OW30619   4.235   2.144  15.297
 6247SOL    HW130620   4.246   2.148  15.392
 6247SOL    HW230621   4.310   2.193  15.262
 6248SOL     OW30622   1.414   3.538   3.571
 6248SOL    HW130623   1.429   3.453   3.613
 6248SOL    HW230624   1.373   3.590   3.639
 6249SOL     OW30625   4.669   4.525   2.906
 6249SOL    HW130626   4.725   4.602   2.897
 6249SOL    HW230627   4.718   4.455   2.863
 6250SOL     OW30628   3.060   0.754   5.320
 6250SOL    HW130629   3.073   0.666   5.356
 6250SOL    HW230630   2.973   0.779   5.350
 6251SOL     OW30631   3.411   2.730  19.252
 6251SOL    HW130632   3.463   2.699  19.327
 6251SOL    HW230633   3.432   2.823  19.245
 6252SOL     OW30634   0.254   0.140  18.792
 6252SOL    HW130635   0.306   0.194  18.851
 6252SOL    HW230636   0.200   0.204  18.743
 6253SOL     OW30637   1.035   2.636   3.738
 6253SOL    HW130638   1.044   2.632   3.834
 6253SOL    HW230639   1.119   2.604   3.705
 6254SOL     OW30640   2.411   2.473   6.414
 6254SOL    HW130641   2.326   2.502   6.447
 6254SOL    HW230642   2.402   2.378   6.404
 6255SOL     OW30643   2.344   0.908   2.616
 6255SOL    HW130644   2.374   0.905   2.707
 6255SOL    HW230645   2.258   0.866   2.618
 6256SOL     OW30646   2.914   0.124   3.170
 6256SOL    HW130647   2.904   0.075   3.252
 6256SOL    HW230648   2.857   0.200   3.180
 6257SOL     OW30649   1.577   0.577   8.983
 6257SOL    HW130650   1.670   0.565   9.003
 6257SOL    HW230651   1.547   0.490   8.958
 6258SOL     OW30652   2.074   4.285   6.858
 6258SOL    HW130653   2.144   4.272   6.795
 6258SOL    HW230654   2.085   4.375   6.888
 6259SOL     OW30655   0.499   2.478   4.168
 6259SOL    HW130656   0.590   2.448   4.176
 6259SOL    HW230657   0.467   2.434   4.090
 6260SOL     OW30658   4.197   1.421  20.828
 6260SOL    HW130659   4.290   1.442  20.828
 6260SOL    HW230660   4.160   1.474  20.899
 6261SOL     OW30661   3.232   1.425   6.531
 6261SOL    HW130662   3.302   1.394   6.589
 6261SOL    HW230663   3.277   1.449   6.450
 6262SOL     OW30664   0.249   1.135   2.887
 6262SOL    HW130665   0.216   1.080   2.816
 6262SOL    HW230666   0.241   1.080   2.965
 6263SOL     OW30667   0.622   2.771  16.267
 6263SOL    HW130668   0.703   2.724  16.284
 6263SOL    HW230669   0.556   2.725  16.319
 6264SOL     OW30670   2.643   1.895   1.517
 6264SOL    HW130671   2.650   1.968   1.455
 6264SOL    HW230672   2.624   1.819   1.462
 6265SOL     OW30673   3.863   2.790  15.487
 6265SOL    HW130674   3.848   2.884  15.494
 6265SOL    HW230675   3.957   2.782  15.474
 6266SOL     OW30676   1.911   3.842   5.390
 6266SOL    HW130677   1.976   3.862   5.457
 6266SOL    HW230678   1.948   3.767   5.343
 6267SOL     OW30679   0.418   0.657  10.224
 6267SOL    HW130680   0.512   0.637  10.229
 6267SOL    HW230681   0.408   0.741  10.268
 6268SOL     OW30682   1.548   3.931   2.484
 6268SOL    HW130683   1.627   3.923   2.431
 6268SOL    HW230684   1.532   3.843   2.517
 6269SOL     OW30685   3.775   3.801   3.991
 6269SOL    HW130686   3.726   3.822   4.071
 6269SOL    HW230687   3.713   3.754   3.936
 6270SOL     OW30688   3.607   1.903  20.576
 6270SOL    HW130689   3.672   1.891  20.645
 6270SOL    HW230690   3.523   1.889  20.619
 6271SOL     OW30691   4.708   1.632   4.610
 6271SOL    HW130692   4.715   1.683   4.529
 6271SOL    HW230693   4.696   1.542   4.581
 6272SOL     OW30694   1.687   3.471   8.628
 6272SOL    HW130695   1.683   3.389   8.579
 6272SOL    HW230696   1.649   3.451   8.713
 6273SOL     OW30697   1.530   3.377  12.906
 6273SOL    HW130698   1.465   3.364  12.975
 6273SOL    HW230699   1.596   3.310  12.922
 6274SOL     OW30700   0.710   1.581   3.111
 6274SOL    HW130701   0.633   1.533   3.082
 6274SOL    HW230702   0.675   1.663   3.146
 6275SOL     OW30703   0.169   0.693  15.101
 6275SOL    HW130704   0.113   0.660  15.030
 6275SOL    HW230705   0.108   0.714  15.172
 6276SOL     OW30706   0.184   3.562   1.118
 6276SOL    HW130707   0.095   3.595   1.103
 6276SOL    HW230708   0.185   3.535   1.209
 6277SOL     OW30709   1.164   1.263   3.976
 6277SOL    HW130710   1.081   1.237   3.935
 6277SOL    HW230711   1.143   1.343   4.024
 6278SOL     OW30712   3.522   1.233  19.341
 6278SOL    HW130713   3.489   1.180  19.414
 6278SOL    HW230714   3.586   1.176  19.297
 6279SOL     OW30715   1.522   2.995   4.846
 6279SOL    HW130716   1.559   2.954   4.768
 6279SOL    HW230717   1.429   3.008   4.826
 6280SOL     OW30718   4.012   1.854   6.383
 6280SOL    HW130719   4.075   1.841   6.312
 6280SOL    HW230720   3.950   1.918   6.348
 6281SOL     OW30721   1.260   0.947  19.614
 6281SOL    HW130722   1.355   0.952  19.618
 6281SOL    HW230723   1.230   1.033  19.643
 6282SOL     OW30724   0.223   4.382  19.834
 6282SOL    HW130725   0.163   4.350  19.766
 6282SOL    HW230726   0.168   4.392  19.912
 6283SOL     OW30727   2.049   4.381  14.640
 6283SOL    HW130728   1.976   4.372  14.701
 6283SOL    HW230729   2.126   4.390  14.696
 6284SOL     OW30730   0.407   2.828   1.376
 6284SOL    HW130731   0.408   2.878   1.457
 6284SOL    HW230732   0.342   2.872   1.321
 6285SOL     OW30733   2.022   2.628   0.376
 6285SOL    HW130734   1.998   2.565   0.444
 6285SOL    HW230735   2.033   2.575   0.297
 6286SOL     OW30736   1.025   4.516   4.999
 6286SOL    HW130737   1.098   4.529   4.938
 6286SOL    HW230738   1.041   4.429   5.037
 6287SOL     OW30739   1.623   2.281   4.314
 6287SOL    HW130740   1.690   2.224   4.353
 6287SOL    HW230741   1.540   2.245   4.345
 6288SOL     OW30742   2.565   4.180   0.226
 6288SOL    HW130743   2.483   4.200   0.182
 6288SOL    HW230744   2.567   4.085   0.231
 6289SOL     OW30745   1.767   1.636  17.682
 6289SOL    HW130746   1.673   1.648  17.667
 6289SOL    HW230747   1.796   1.720  17.717
 6290SOL     OW30748   2.341   1.765   8.345
 6290SOL    HW130749   2.313   1.686   8.299
 6290SOL    HW230750   2.427   1.743   8.381
 6291SOL     OW30751   3.448   1.652  19.481
 6291SOL    HW130752   3.354   1.665  19.496
 6291SOL    HW230753   3.487   1.738  19.499
 6292SOL     OW30754   1.713   3.873   1.916
 6292SOL    HW130755   1.733   3.960   1.950
 6292SOL    HW230756   1.779   3.857   1.848
 6293SOL     OW30757   0.474   4.354  19.940
 6293SOL    HW130758   0.401   4.364  19.878
 6293SOL    HW230759   0.433   4.362  20.026
 6294SOL     OW30760   2.548   4.038   4.571
 6294SOL    HW130761   2.535   3.944   4.561
 6294SOL    HW230762   2.565   4.050   4.665
 6295SOL     OW30763   1.913   1.738  14.169
 6295SOL    HW130764   1.835   1.687  14.145
 6295SOL    HW230765   1.947   1.769  14.085
 6296SOL     OW30766   3.256   1.994  13.258
 6296SOL    HW130767   3.181   1.939  13.235
 6296SOL    HW230768   3.289   2.025  13.173
 6297SOL     OW30769   3.577   4.341   1.948
 6297SOL    HW130770   3.579   4.295   2.032
 6297SOL    HW230771   3.490   4.321   1.913
 6298SOL     OW30772   0.688   3.368  16.099
 6298SOL    HW130773   0.669   3.414  16.017
 6298SOL    HW230774   0.692   3.438  16.165
 6299SOL     OW30775   0.015   2.364  20.188
 6299SOL    HW130776   0.005   2.284  20.138
 6299SOL    HW230777   0.106   2.390  20.175
 6300SOL     OW30778   4.059   1.612   1.024
 6300SOL    HW130779   3.991   1.545   1.016
 6300SOL    HW230780   4.119   1.578   1.090
 6301SOL     OW30781   3.696   3.612  15.205
 6301SOL    HW130782   3.716   3.547  15.273
 6301SOL    HW230783   3.771   3.671  15.205
 6302SOL     OW30784   2.018   1.314  12.649
 6302SOL    HW130785   2.038   1.339  12.559
 6302SOL    HW230786   1.931   1.276  12.644
 6303SOL     OW30787   0.466   3.937  20.163
 6303SOL    HW130788   0.419   3.897  20.236
 6303SOL    HW230789   0.421   3.903  20.085
 6304SOL     OW30790   2.531   0.697  20.147
 6304SOL    HW130791   2.487   0.698  20.232
 6304SOL    HW230792   2.624   0.685  20.169
 6305SOL     OW30793   1.994   0.064   0.787
 6305SOL    HW130794   2.014   0.005   0.860
 6305SOL    HW230795   1.930   0.126   0.822
 6306SOL     OW30796   3.660   0.857  19.578
 6306SOL    HW130797   3.637   0.818  19.493
 6306SOL    HW230798   3.702   0.785  19.626
 6307SOL     OW30799   4.135   1.903  16.674
 6307SOL    HW130800   4.139   1.998  16.686
 6307SOL    HW230801   4.082   1.890  16.596
 6308SOL     OW30802   2.132   2.384  17.100
 6308SOL    HW130803   2.211   2.359  17.149
 6308SOL    HW230804   2.164   2.436  17.027
 6309SOL     OW30805   2.202   0.836   3.607
 6309SOL    HW130806   2.117   0.875   3.626
 6309SOL    HW230807   2.182   0.758   3.555
 6310SOL     OW30808   1.578   4.441  11.888
 6310SOL    HW130809   1.583   4.537  11.897
 6310SOL    HW230810   1.591   4.408  11.977
 6311SOL     OW30811   4.222   1.854   1.976
 6311SOL    HW130812   4.136   1.811   1.971
 6311SOL    HW230813   4.285   1.782   1.980
 6312SOL     OW30814   2.336   0.343   4.968
 6312SOL    HW130815   2.253   0.329   4.921
 6312SOL    HW230816   2.314   0.329   5.060
 6313SOL     OW30817   1.140   2.937  20.871
 6313SOL    HW130818   1.111   3.003  20.808
 6313SOL    HW230819   1.125   2.978  20.956
 6314SOL     OW30820   1.805   0.171  18.708
 6314SOL    HW130821   1.795   0.240  18.773
 6314SOL    HW230822   1.893   0.184  18.672
 6315SOL     OW30823   0.401   0.122   6.137
 6315SOL    HW130824   0.329   0.137   6.076
 6315SOL    HW230825   0.460   0.195   6.123
 6316SOL     OW30826   3.176   3.749   0.005
 6316SOL    HW130827   3.138   3.814  21.223
 6316SOL    HW230828   3.108   3.732   0.070
 6317SOL     OW30829   2.033   2.504   5.542
 6317SOL    HW130830   2.117   2.549   5.551
 6317SOL    HW230831   2.035   2.469   5.453
 6318SOL     OW30832   4.367   4.059  19.555
 6318SOL    HW130833   4.292   4.079  19.498
 6318SOL    HW230834   4.441   4.101  19.511
 6319SOL     OW30835   1.637   3.775  17.337
 6319SOL    HW130836   1.653   3.864  17.369
 6319SOL    HW230837   1.693   3.767  17.260
 6320SOL     OW30838   4.368   0.264   5.345
 6320SOL    HW130839   4.332   0.348   5.317
 6320SOL    HW230840   4.326   0.248   5.430
 6321SOL     OW30841   3.687   1.655  18.284
 6321SOL    HW130842   3.691   1.694  18.371
 6321SOL    HW230843   3.601   1.614  18.279
 6322SOL     OW30844   0.204   2.383   7.167
 6322SOL    HW130845   0.253   2.313   7.210
 6322SOL    HW230846   0.194   2.450   7.235
 6323SOL     OW30847   0.597   3.282  18.156
 6323SOL    HW130848   0.667   3.218  18.147
 6323SOL    HW230849   0.520   3.230  18.182
 6324SOL     OW30850   0.183   2.748   1.597
 6324SOL    HW130851   0.122   2.711   1.533
 6324SOL    HW230852   0.253   2.683   1.603
 6325SOL     OW30853   0.058   1.215  14.190
 6325SOL    HW130854   0.026   1.163  14.263
 6325SOL    HW230855   0.094   1.151  14.128
 6326SOL     OW30856   1.320   4.475  11.107
 6326SOL    HW130857   1.384   4.425  11.056
 6326SOL    HW230858   1.345   4.567  11.093
 6327SOL     OW30859   0.351   0.212  13.478
 6327SOL    HW130860   0.330   0.278  13.411
 6327SOL    HW230861   0.384   0.263  13.552
 6328SOL     OW30862   4.091   4.219  20.780
 6328SOL    HW130863   4.027   4.194  20.846
 6328SOL    HW230864   4.056   4.299  20.741
 6329SOL     OW30865   1.510   0.641  13.920
 6329SOL    HW130866   1.537   0.700  13.850
 6329SOL    HW230867   1.417   0.624  13.902
 6330SOL     OW30868   0.429   2.418   2.865
 6330SOL    HW130869   0.337   2.424   2.890
 6330SOL    HW230870   0.428   2.372   2.781
 6331SOL     OW30871   0.649   3.509   0.846
 6331SOL    HW130872   0.558   3.484   0.857
 6331SOL    HW230873   0.698   3.429   0.865
 6332SOL     OW30874   0.948   2.981  15.661
 6332SOL    HW130875   1.032   3.027  15.660
 6332SOL    HW230876   0.956   2.913  15.595
 6333SOL     OW30877   3.614   2.309   7.628
 6333SOL    HW130878   3.703   2.342   7.614
 6333SOL    HW230879   3.577   2.303   7.540
 6334SOL     OW30880   1.020   3.016  11.848
 6334SOL    HW130881   0.964   2.952  11.892
 6334SOL    HW230882   1.055   3.070  11.919
 6335SOL     OW30883   2.762   1.179  19.246
 6335SOL    HW130884   2.680   1.150  19.205
 6335SOL    HW230885   2.736   1.206  19.334
 6336SOL     OW30886   2.922   2.844  14.050
 6336SOL    HW130887   2.948   2.930  14.015
 6336SOL    HW230888   2.986   2.783  14.013
 6337SOL     OW30889   3.658   3.375  16.634
 6337SOL    HW130890   3.626   3.465  16.626
 6337SOL    HW230891   3.753   3.384  16.642
 6338SOL     OW30892   3.377   4.639  19.525
 6338SOL    HW130893   3.407   4.685  19.604
 6338SOL    HW230894   3.370   4.548  19.552
 6339SOL     OW30895   0.377   1.555  17.678
 6339SOL    HW130896   0.461   1.586  17.644
 6339SOL    HW230897   0.382   1.459  17.671
 6340SOL     OW30898   0.967   3.043   0.299
 6340SOL    HW130899   1.022   2.974   0.263
 6340SOL    HW230900   0.955   3.105   0.227
 6341SOL     OW30901   1.433   3.039  16.080
 6341SOL    HW130902   1.368   2.970  16.069
 6341SOL    HW230903   1.508   2.996  16.119
 6342SOL     OW30904   2.076   4.766   4.402
 6342SOL    HW130905   2.023   0.051   4.407
 6342SOL    HW230906   2.091   4.753   4.309
 6343SOL     OW30907   3.211   4.483   4.740
 6343SOL    HW130908   3.199   4.391   4.719
 6343SOL    HW230909   3.198   4.528   4.656
 6344SOL     OW30910   1.493   1.252   5.351
 6344SOL    HW130911   1.460   1.275   5.438
 6344SOL    HW230912   1.521   1.336   5.313
 6345SOL     OW30913   1.783   4.668  19.609
 6345SOL    HW130914   1.705   4.630  19.651
 6345SOL    HW230915   1.806   4.742  19.665
 6346SOL     OW30916   1.256   1.429  11.164
 6346SOL    HW130917   1.351   1.423  11.174
 6346SOL    HW230918   1.222   1.350  11.205
 6347SOL     OW30919   2.562   3.860   5.792
 6347SOL    HW130920   2.571   3.847   5.697
 6347SOL    HW230921   2.648   3.836   5.827
 6348SOL     OW30922   2.834   0.001   5.474
 6348SOL    HW130923   2.831   0.051   5.556
 6348SOL    HW230924   2.811   4.706   5.501
 6349SOL     OW30925   3.170   3.242  20.195
 6349SOL    HW130926   3.178   3.251  20.100
 6349SOL    HW230927   3.257   3.212  20.224
 6350SOL     OW30928   1.200   1.882   3.809
 6350SOL    HW130929   1.218   1.850   3.897
 6350SOL    HW230930   1.239   1.816   3.751
 6351SOL     OW30931   3.838   1.759  20.722
 6351SOL    HW130932   3.797   1.786  20.804
 6351SOL    HW230933   3.838   1.664  20.726
 6352SOL     OW30934   0.895   0.179  19.824
 6352SOL    HW130935   0.920   0.087  19.836
 6352SOL    HW230936   0.922   0.222  19.905
 6353SOL     OW30937   3.260   0.734  20.060
 6353SOL    HW130938   3.299   0.660  20.107
 6353SOL    HW230939   3.180   0.698  20.022
 6354SOL     OW30940   2.898   2.855   0.578
 6354SOL    HW130941   2.908   2.838   0.671
 6354SOL    HW230942   2.953   2.789   0.535
 6355SOL     OW30943   2.656   2.781  17.559
 6355SOL    HW130944   2.658   2.838  17.635
 6355SOL    HW230945   2.706   2.828  17.492
 6356SOL     OW30946   1.518   0.924   6.037
 6356SOL    HW130947   1.461   0.852   6.063
 6356SOL    HW230948   1.606   0.895   6.061
 6357SOL     OW30949   0.641   3.804  18.042
 6357SOL    HW130950   0.662   3.793  18.135
 6357SOL    HW230951   0.677   3.890  18.020
 6358SOL     OW30952   2.844   4.308   3.440
 6358SOL    HW130953   2.754   4.281   3.460
 6358SOL    HW230954   2.869   4.256   3.364
 6359SOL     OW30955   4.072   1.944  15.939
 6359SOL    HW130956   3.989   1.896  15.937
 6359SOL    HW230957   4.088   1.967  15.847
 6360SOL     OW30958   0.147   0.081  20.873
 6360SOL    HW130959   0.188   0.133  20.804
 6360SOL    HW230960   0.220   0.051  20.927
 6361SOL     OW30961   1.573   3.127  18.815
 6361SOL    HW130962   1.562   3.041  18.855
 6361SOL    HW230963   1.595   3.109  18.724
 6362SOL     OW30964   4.013   0.592   1.531
 6362SOL    HW130965   4.092   0.563   1.486
 6362SOL    HW230966   4.033   0.583   1.624
 6363SOL     OW30967   2.452   0.212  18.054
 6363SOL    HW130968   2.455   0.192  18.147
 6363SOL    HW230969   2.417   0.301  18.050
 6364SOL     OW30970   3.038   2.626   3.870
 6364SOL    HW130971   3.037   2.697   3.934
 6364SOL    HW230972   3.089   2.659   3.797
 6365SOL     OW30973   4.085   4.361   3.162
 6365SOL    HW130974   4.103   4.270   3.140
 6365SOL    HW230975   3.990   4.368   3.159
 6366SOL     OW30976   2.918   0.712   1.177
 6366SOL    HW130977   2.940   0.792   1.225
 6366SOL    HW230978   2.822   0.711   1.174
 6367SOL     OW30979   2.098   3.810   2.743
 6367SOL    HW130980   2.009   3.815   2.778
 6367SOL    HW230981   2.140   3.740   2.793
 6368SOL     OW30982   0.660   4.129  16.635
 6368SOL    HW130983   0.685   4.210  16.590
 6368SOL    HW230984   0.564   4.130  16.636
 6369SOL     OW30985   1.152   1.276   2.002
 6369SOL    HW130986   1.239   1.316   1.992
 6369SOL    HW230987   1.165   1.207   2.067
 6370SOL     OW30988   3.913   2.074   8.836
 6370SOL    HW130989   3.970   2.049   8.763
 6370SOL    HW230990   3.831   2.027   8.820
 6371SOL     OW30991   1.899   2.874   5.586
 6371SOL    HW130992   1.853   2.812   5.530
 6371SOL    HW230993   1.988   2.876   5.552
 6372SOL     OW30994   0.747   1.013  13.483
 6372SOL    HW130995   0.699   0.940  13.522
 6372SOL    HW230996   0.685   1.054  13.423
 6373SOL     OW30997   0.223   2.362  15.463
 6373SOL    HW130998   0.142   2.404  15.432
 6373SOL    HW230999   0.274   2.348  15.383
 6374SOL     OW31000   2.178   1.218   2.031
 6374SOL    HW131001   2.272   1.235   2.028
 6374SOL    HW231002   2.171   1.136   2.080
 6375SOL     OW31003   3.656   4.485   5.178
 6375SOL    HW131004   3.727   4.486   5.242
 6375SOL    HW231005   3.583   4.445   5.224
 6376SOL     OW31006   0.619   2.107  17.200
 6376SOL    HW131007   0.683   2.088  17.131
 6376SOL    HW231008   0.599   2.022  17.238
 6377SOL     OW31009   0.329   1.674  19.290
 6377SOL    HW131010   0.245   1.661  19.246
 6377SOL    HW231011   0.344   1.768  19.285
 6378SOL     OW31012   4.612   4.659   4.947
 6378SOL    HW131013   4.593   4.568   4.927
 6378SOL    HW231014   4.527   4.699   4.963
 6379SOL     OW31015   3.333   0.027  20.687
 6379SOL    HW131016   3.295   0.110  20.659
 6379SOL    HW231017   3.289   4.755  20.633
 6380SOL     OW31018   3.735   0.208  15.590
 6380SOL    HW131019   3.806   0.176  15.646
 6380SOL    HW231020   3.665   0.144  15.601
 6381SOL     OW31021   1.934   0.493  17.146
 6381SOL    HW131022   1.885   0.472  17.066
 6381SOL    HW231023   2.006   0.429  17.147
 6382SOL     OW31024   2.596   4.215   3.471
 6382SOL    HW131025   2.565   4.126   3.486
 6382SOL    HW231026   2.519   4.270   3.481
 6383SOL     OW31027   1.312   2.741   0.274
 6383SOL    HW131028   1.367   2.818   0.260
 6383SOL    HW231029   1.225   2.776   0.290
 6384SOL     OW31030   0.004   1.512   3.756
 6384SOL    HW131031   0.038   1.595   3.790
 6384SOL    HW231032   0.079   1.471   3.713
 6385SOL     OW31033   1.064   2.163  18.327
 6385SOL    HW131034   1.130   2.233  18.317
 6385SOL    HW231035   1.115   2.083  18.334
 6386SOL     OW31036   0.332   4.149  17.325
 6386SOL    HW131037   0.285   4.066  17.334
 6386SOL    HW231038   0.272   4.205  17.276
 6387SOL     OW31039   3.987   4.237   1.977
 6387SOL    HW131040   4.054   4.291   2.019
 6387SOL    HW231041   4.036   4.176   1.922
 6388SOL     OW31042   2.855   4.315  19.552
 6388SOL    HW131043   2.887   4.394  19.595
 6388SOL    HW231044   2.919   4.248  19.576
 6389SOL     OW31045   4.360   4.112   5.384
 6389SOL    HW131046   4.305   4.036   5.367
 6389SOL    HW231047   4.446   4.087   5.351
 6390SOL     OW31048   0.100   3.015   1.483
 6390SOL    HW131049   0.093   2.923   1.506
 6390SOL    HW231050   0.084   3.062   1.565
 6391SOL     OW31051   2.859   2.509  20.975
 6391SOL    HW131052   2.852   2.474  20.886
 6391SOL    HW231053   2.790   2.465  21.024
 6392SOL     OW31054   1.004   2.890  19.292
 6392SOL    HW131055   1.019   2.894  19.386
 6392SOL    HW231056   1.016   2.980  19.262
 6393SOL     OW31057   3.234   3.056   2.290
 6393SOL    HW131058   3.213   3.099   2.207
 6393SOL    HW231059   3.201   3.116   2.357
 6394SOL     OW31060   4.726   4.557   7.607
 6394SOL    HW131061   4.790   4.503   7.653
 6394SOL    HW231062   4.762   4.567   7.519
 6395SOL     OW31063   4.507   1.350  19.674
 6395SOL    HW131064   4.492   1.271  19.622
 6395SOL    HW231065   4.420   1.387  19.688
 6396SOL     OW31066   2.379   2.282   4.890
 6396SOL    HW131067   2.428   2.216   4.938
 6396SOL    HW231068   2.355   2.348   4.956
 6397SOL     OW31069   0.142   2.369  19.337
 6397SOL    HW131070   0.231   2.386  19.367
 6397SOL    HW231071   0.146   2.380  19.242
 6398SOL     OW31072   4.343   1.076   5.764
 6398SOL    HW131073   4.284   1.151   5.770
 6398SOL    HW231074   4.304   1.020   5.696
 6399SOL     OW31075   4.322   3.021  17.106
 6399SOL    HW131076   4.385   3.077  17.152
 6399SOL    HW231077   4.257   2.999  17.173
 6400SOL     OW31078   4.442   3.059   4.267
 6400SOL    HW131079   4.470   3.054   4.175
 6400SOL    HW231080   4.417   3.150   4.279
 6401SOL     OW31081   3.229   2.984  17.731
 6401SOL    HW131082   3.159   3.050  17.730
 6401SOL    HW231083   3.220   2.941  17.816
 6402SOL     OW31084   0.886   0.833  18.789
 6402SOL    HW131085   0.903   0.927  18.786
 6402SOL    HW231086   0.925   0.799  18.708
 6403SOL     OW31087   0.642   1.767   3.811
 6403SOL    HW131088   0.734   1.791   3.807
 6403SOL    HW231089   0.639   1.675   3.785
 6404SOL     OW31090   2.814   1.091   0.250
 6404SOL    HW131091   2.729   1.049   0.246
 6404SOL    HW231092   2.844   1.096   0.159
 6405SOL     OW31093   0.825   0.614   1.142
 6405SOL    HW131094   0.844   0.524   1.117
 6405SOL    HW231095   0.900   0.640   1.195
 6406SOL     OW31096   2.971   0.316   4.505
 6406SOL    HW131097   2.877   0.298   4.510
 6406SOL    HW231098   3.005   0.249   4.445
 6407SOL     OW31099   0.937   3.024  21.069
 6407SOL    HW131100   0.848   3.012  21.037
 6407SOL    HW231101   0.936   2.988  21.158
 6408SOL     OW31102   2.716   0.707   0.041
 6408SOL    HW131103   2.705   0.771  21.248
 6408SOL    HW231104   2.809   0.687   0.042
 6409SOL     OW31105   1.565   0.739   5.198
 6409SOL    HW131106   1.554   0.645   5.191
 6409SOL    HW231107   1.476   0.774   5.202
 6410SOL     OW31108   1.002   1.629  18.525
 6410SOL    HW131109   1.059   1.609  18.451
 6410SOL    HW231110   0.985   1.544  18.567
 6411SOL     OW31111   0.212   4.158   7.292
 6411SOL    HW131112   0.172   4.238   7.257
 6411SOL    HW231113   0.282   4.138   7.230
 6412SOL     OW31114   3.817   1.445   7.016
 6412SOL    HW131115   3.883   1.481   7.075
 6412SOL    HW231116   3.796   1.517   6.957
 6413SOL     OW31117   1.859   3.186   0.086
 6413SOL    HW131118   1.951   3.184   0.113
 6413SOL    HW231119   1.844   3.277   0.058
 6414SOL     OW31120   2.712   0.253   4.968
 6414SOL    HW131121   2.658   0.292   5.037
 6414SOL    HW231122   2.796   0.235   5.010
 6415SOL     OW31123   1.239   2.941   2.377
 6415SOL    HW131124   1.279   2.934   2.463
 6415SOL    HW231125   1.272   2.865   2.329
 6416SOL     OW31126   2.153   4.258  15.455
 6416SOL    HW131127   2.137   4.279  15.547
 6416SOL    HW231128   2.109   4.174  15.443
 6417SOL     OW31129   3.279   1.791  12.930
 6417SOL    HW131130   3.319   1.823  12.849
 6417SOL    HW231131   3.185   1.790  12.912
 6418SOL     OW31132   0.735   3.474  20.327
 6418SOL    HW131133   0.754   3.448  20.237
 6418SOL    HW231134   0.816   3.512  20.359
 6419SOL     OW31135   3.788   2.329  18.182
 6419SOL    HW131136   3.813   2.341  18.090
 6419SOL    HW231137   3.831   2.247  18.208
 6420SOL     OW31138   2.065   4.062   1.917
 6420SOL    HW131139   1.986   4.099   1.956
 6420SOL    HW231140   2.074   3.976   1.959
 6421SOL     OW31141   3.218   0.002   2.921
 6421SOL    HW131142   3.232   4.715   2.872
 6421SOL    HW231143   3.125   0.021   2.910
 6422SOL     OW31144   1.373   0.600  17.041
 6422SOL    HW131145   1.297   0.605  16.983
 6422SOL    HW231146   1.353   0.528  17.101
 6423SOL     OW31147   3.552   1.075   0.164
 6423SOL    HW131148   3.582   1.154   0.208
 6423SOL    HW231149   3.460   1.092   0.145
 6424SOL     OW31150   0.312   1.040   4.091
 6424SOL    HW131151   0.312   0.953   4.052
 6424SOL    HW231152   0.290   1.026   4.183
 6425SOL     OW31153   1.338   1.360  20.269
 6425SOL    HW131154   1.411   1.344  20.329
 6425SOL    HW231155   1.367   1.322  20.186
 6426SOL     OW31156   3.474   2.842   6.424
 6426SOL    HW131157   3.414   2.860   6.352
 6426SOL    HW231158   3.561   2.859   6.388
 6427SOL     OW31159   1.206   0.112   2.795
 6427SOL    HW131160   1.123   0.137   2.836
 6427SOL    HW231161   1.257   0.193   2.791
 6428SOL     OW31162   1.741   1.820  19.185
 6428SOL    HW131163   1.684   1.873  19.241
 6428SOL    HW231164   1.764   1.878  19.112
 6429SOL     OW31165   2.504   0.253   0.975
 6429SOL    HW131166   2.418   0.284   0.946
 6429SOL    HW231167   2.553   0.238   0.894
 6430SOL     OW31168   1.854   4.501  19.414
 6430SOL    HW131169   1.888   4.561  19.348
 6430SOL    HW231170   1.789   4.552  19.462
 6431SOL     OW31171   2.089   0.655  15.986
 6431SOL    HW131172   2.149   0.583  15.968
 6431SOL    HW231173   2.144   0.724  16.022
 6432SOL     OW31174   4.567   0.790  19.068
 6432SOL    HW131175   4.615   0.789  19.150
 6432SOL    HW231176   4.524   0.705  19.063
 6433SOL     OW31177   0.535   0.816  19.614
 6433SOL    HW131178   0.597   0.806  19.685
 6433SOL    HW231179   0.590   0.830  19.536
 6434SOL     OW31180   1.165   3.538  15.660
 6434SOL    HW131181   1.120   3.621  15.676
 6434SOL    HW231182   1.112   3.472  15.706
 6435SOL     OW31183   3.918   3.600   3.299
 6435SOL    HW131184   3.933   3.602   3.394
 6435SOL    HW231185   3.890   3.511   3.281
 6436SOL     OW31186   0.371   1.232   0.793
 6436SOL    HW131187   0.347   1.187   0.874
 6436SOL    HW231188   0.305   1.300   0.783
 6437SOL     OW31189   3.561   0.003  16.656
 6437SOL    HW131190   3.524   0.056  16.586
 6437SOL    HW231191   3.618   0.062  16.704
 6438SOL     OW31192   3.123   0.301   7.951
 6438SOL    HW131193   3.185   0.245   7.903
 6438SOL    HW231194   3.150   0.390   7.929
 6439SOL     OW31195   4.656   3.443  15.345
 6439SOL    HW131196   4.615   3.501  15.409
 6439SOL    HW231197   4.737   3.487  15.321
 6440SOL     OW31198   1.061   0.694   5.880
 6440SOL    HW131199   1.081   0.787   5.896
 6440SOL    HW231200   1.008   0.668   5.956
 6441SOL     OW31201   3.399   3.473   1.602
 6441SOL    HW131202   3.375   3.390   1.560
 6441SOL    HW231203   3.352   3.472   1.685
 6442SOL     OW31204   1.688   4.355  17.518
 6442SOL    HW131205   1.676   4.267  17.483
 6442SOL    HW231206   1.685   4.344  17.613
 6443SOL     OW31207   1.751   3.721   3.119
 6443SOL    HW131208   1.765   3.814   3.135
 6443SOL    HW231209   1.689   3.718   3.046
 6444SOL     OW31210   1.533   3.862  19.302
 6444SOL    HW131211   1.529   3.770  19.275
 6444SOL    HW231212   1.467   3.870  19.371
 6445SOL     OW31213   1.730   0.577   3.990
 6445SOL    HW131214   1.687   0.596   4.074
 6445SOL    HW231215   1.672   0.513   3.948
 6446SOL     OW31216   0.269   0.367   2.187
 6446SOL    HW131217   0.244   0.325   2.269
 6446SOL    HW231218   0.325   0.302   2.143
 6447SOL     OW31219   4.114   1.590  21.033
 6447SOL    HW131220   4.146   1.669  20.989
 6447SOL    HW231221   4.019   1.598  21.030
 6448SOL     OW31222   4.532   1.205   8.202
 6448SOL    HW131223   4.618   1.170   8.178
 6448SOL    HW231224   4.516   1.275   8.138
 6449SOL     OW31225   0.769   0.481  11.998
 6449SOL    HW131226   0.815   0.559  11.968
 6449SOL    HW231227   0.698   0.469  11.934
 6450SOL     OW31228   4.750   3.985  14.180
 6450SOL    HW131229   4.687   3.975  14.251
 6450SOL    HW231230   4.707   3.946  14.104
 6451SOL     OW31231   0.556   2.321   4.586
 6451SOL    HW131232   0.500   2.269   4.644
 6451SOL    HW231233   0.497   2.356   4.520
 6452SOL     OW31234   1.282   3.241  20.271
 6452SOL    HW131235   1.274   3.289  20.354
 6452SOL    HW231236   1.257   3.151  20.294
 6453SOL     OW31237   3.707   1.815  17.745
 6453SOL    HW131238   3.717   1.801  17.651
 6453SOL    HW231239   3.624   1.772  17.767
 6454SOL     OW31240   1.762   3.054  15.867
 6454SOL    HW131241   1.743   3.147  15.853
 6454SOL    HW231242   1.750   3.041  15.961
 6455SOL     OW31243   2.969   2.011  13.511
 6455SOL    HW131244   2.940   2.040  13.425
 6455SOL    HW231245   2.978   1.916  13.503
 6456SOL     OW31246   3.032   4.745   8.282
 6456SOL    HW131247   2.953   4.776   8.326
 6456SOL    HW231248   3.101   0.009   8.314
 6457SOL     OW31249   1.810   3.602   8.374
 6457SOL    HW131250   1.788   3.548   8.450
 6457SOL    HW231251   1.886   3.653   8.402
 6458SOL     OW31252   3.364   4.031  17.789
 6458SOL    HW131253   3.364   4.061  17.880
 6458SOL    HW231254   3.411   3.948  17.790
 6459SOL     OW31255   1.637   2.460   2.392
 6459SOL    HW131256   1.597   2.525   2.450
 6459SOL    HW231257   1.628   2.498   2.304
 6460SOL     OW31258   1.856   3.830   5.780
 6460SOL    HW131259   1.894   3.786   5.704
 6460SOL    HW231260   1.843   3.760   5.844
 6461SOL     OW31261   1.081   1.086  18.873
 6461SOL    HW131262   1.004   1.131  18.906
 6461SOL    HW231263   1.128   1.058  18.952
 6462SOL     OW31264   3.536   2.987  16.295
 6462SOL    HW131265   3.466   2.926  16.269
 6462SOL    HW231266   3.526   2.995  16.390
 6463SOL     OW31267   2.754   4.747  18.309
 6463SOL    HW131268   2.802   4.689  18.368
 6463SOL    HW231269   2.791   4.730  18.222
 6464SOL     OW31270   4.083   4.381   5.797
 6464SOL    HW131271   3.998   4.341   5.814
 6464SOL    HW231272   4.146   4.311   5.811
 6465SOL     OW31273   2.537   1.320   4.614
 6465SOL    HW131274   2.467   1.298   4.675
 6465SOL    HW231275   2.520   1.412   4.591
 6466SOL     OW31276   3.376   4.659  15.466
 6466SOL    HW131277   3.451   4.685  15.519
 6466SOL    HW231278   3.360   4.568  15.492
 6467SOL     OW31279   2.869   2.081   0.323
 6467SOL    HW131280   2.875   1.987   0.335
 6467SOL    HW231281   2.959   2.113   0.337
 6468SOL     OW31282   2.156   1.011  20.587
 6468SOL    HW131283   2.124   1.059  20.663
 6468SOL    HW231284   2.230   0.961  20.620
 6469SOL     OW31285   0.799   1.363  17.611
 6469SOL    HW131286   0.857   1.396  17.679
 6469SOL    HW231287   0.842   1.285  17.578
 6470SOL     OW31288   0.773   4.624   5.298
 6470SOL    HW131289   0.763   4.528   5.297
 6470SOL    HW231290   0.842   4.639   5.363
 6471SOL     OW31291   3.923   0.597   0.543
 6471SOL    HW131292   3.929   0.590   0.448
 6471SOL    HW231293   3.879   0.516   0.570
 6472SOL     OW31294   0.709   3.691   0.654
 6472SOL    HW131295   0.705   3.635   0.577
 6472SOL    HW231296   0.703   3.631   0.729
 6473SOL     OW31297   0.548   4.324   2.554
 6473SOL    HW131298   0.549   4.233   2.584
 6473SOL    HW231299   0.631   4.361   2.586
 6474SOL     OW31300   2.349   3.531  15.136
 6474SOL    HW131301   2.254   3.522  15.146
 6474SOL    HW231302   2.375   3.593  15.205
 6475SOL     OW31303   2.628   0.093  16.358
 6475SOL    HW131304   2.618   0.170  16.414
 6475SOL    HW231305   2.594   0.120  16.273
 6476SOL     OW31306   2.477   3.202  15.962
 6476SOL    HW131307   2.441   3.116  15.944
 6476SOL    HW231308   2.434   3.229  16.044
 6477SOL     OW31309   3.341   4.227  17.092
 6477SOL    HW131310   3.308   4.141  17.118
 6477SOL    HW231311   3.267   4.286  17.108
 6478SOL     OW31312   3.314   4.566   1.721
 6478SOL    HW131313   3.264   4.497   1.766
 6478SOL    HW231314   3.345   4.525   1.641
 6479SOL     OW31315   2.468   3.467  20.863
 6479SOL    HW131316   2.524   3.487  20.938
 6479SOL    HW231317   2.519   3.496  20.787
 6480SOL     OW31318   0.654   2.314  16.050
 6480SOL    HW131319   0.628   2.233  16.005
 6480SOL    HW231320   0.710   2.284  16.122
 6481SOL     OW31321   3.481   2.516  16.586
 6481SOL    HW131322   3.449   2.472  16.665
 6481SOL    HW231323   3.572   2.538  16.606
 6482SOL     OW31324   2.401   1.242   3.267
 6482SOL    HW131325   2.361   1.159   3.293
 6482SOL    HW231326   2.485   1.218   3.230
 6483SOL     OW31327   3.698   0.353   4.453
 6483SOL    HW131328   3.725   0.311   4.534
 6483SOL    HW231329   3.606   0.375   4.466
 6484SOL     OW31330   1.870   1.922  18.948
 6484SOL    HW131331   1.850   1.952  18.860
 6484SOL    HW231332   1.906   1.834  18.936
 6485SOL     OW31333   3.636   1.940  17.327
 6485SOL    HW131334   3.562   1.997  17.303
 6485SOL    HW231335   3.700   2.000  17.365
 6486SOL     OW31336   0.441   4.623   1.184
 6486SOL    HW131337   0.386   4.558   1.228
 6486SOL    HW231338   0.387   4.656   1.113
 6487SOL     OW31339   3.008   0.285  18.342
 6487SOL    HW131340   3.034   0.199  18.310
 6487SOL    HW231341   2.913   0.285  18.334
 6488SOL     OW31342   1.726   2.625   0.662
 6488SOL    HW131343   1.644   2.675   0.662
 6488SOL    HW231344   1.775   2.659   0.737
 6489SOL     OW31345   2.469   1.237   2.898
 6489SOL    HW131346   2.511   1.228   2.812
 6489SOL    HW231347   2.499   1.161   2.948
 6490SOL     OW31348   4.306   4.488   6.720
 6490SOL    HW131349   4.255   4.408   6.718
 6490SOL    HW231350   4.249   4.554   6.680
 6491SOL     OW31351   1.528   0.480  18.260
 6491SOL    HW131352   1.607   0.430  18.281
 6491SOL    HW231353   1.555   0.572  18.268
 6492SOL     OW31354   2.261   4.495   5.405
 6492SOL    HW131355   2.255   4.466   5.313
 6492SOL    HW231356   2.355   4.503   5.421
 6493SOL     OW31357   3.923   3.377  16.624
 6493SOL    HW131358   3.966   3.458  16.653
 6493SOL    HW231359   3.954   3.311  16.685
 6494SOL     OW31360   1.656   4.454  14.380
 6494SOL    HW131361   1.750   4.469  14.367
 6494SOL    HW231362   1.634   4.385  14.317
 6495SOL     OW31363   4.389   1.228  16.527
 6495SOL    HW131364   4.387   1.323  16.518
 6495SOL    HW231365   4.483   1.206  16.528
 6496SOL     OW31366   3.967   2.078   0.411
 6496SOL    HW131367   4.030   2.129   0.359
 6496SOL    HW231368   4.021   2.011   0.453
 6497SOL     OW31369   4.003   0.819   1.275
 6497SOL    HW131370   4.011   0.726   1.252
 6497SOL    HW231371   3.995   0.864   1.191
 6498SOL     OW31372   1.130   2.053   0.337
 6498SOL    HW131373   1.123   1.957   0.337
 6498SOL    HW231374   1.040   2.083   0.335
 6499SOL     OW31375   2.448   4.440  16.569
 6499SOL    HW131376   2.499   4.477  16.497
 6499SOL    HW231377   2.502   4.368  16.602
 6500SOL     OW31378   4.116   3.415  13.949
 6500SOL    HW131379   4.206   3.418  13.982
 6500SOL    HW231380   4.099   3.322  13.936
 6501SOL     OW31381   2.016   2.392  18.085
 6501SOL    HW131382   2.083   2.325  18.099
 6501SOL    HW231383   1.972   2.365  18.004
 6502SOL     OW31384   0.137   3.392   5.985
 6502SOL    HW131385   0.143   3.449   5.908
 6502SOL    HW231386   0.160   3.449   6.059
 6503SOL     OW31387   4.222   4.605  13.348
 6503SOL    HW131388   4.273   4.532  13.383
 6503SOL    HW231389   4.161   4.628  13.418
 6504SOL     OW31390   4.045   0.156  20.979
 6504SOL    HW131391   4.001   0.210  21.044
 6504SOL    HW231392   3.979   0.139  20.913
 6505SOL     OW31393   3.148   0.987  17.182
 6505SOL    HW131394   3.123   0.906  17.136
 6505SOL    HW231395   3.238   0.972  17.209
 6506SOL     OW31396   2.008   0.856  20.426
 6506SOL    HW131397   2.035   0.908  20.502
 6506SOL    HW231398   1.969   0.777  20.463
 6507SOL     OW31399   3.273   3.671  16.883
 6507SOL    HW131400   3.339   3.735  16.857
 6507SOL    HW231401   3.313   3.586  16.865
 6508SOL     OW31402   2.438   0.967   4.071
 6508SOL    HW131403   2.398   0.926   3.995
 6508SOL    HW231404   2.440   1.061   4.049
 6509SOL     OW31405   4.770   1.009  14.359
 6509SOL    HW131406   4.767   0.913  14.358
 6509SOL    HW231407   4.680   1.035  14.340
 6510SOL     OW31408   2.175   4.779   6.713
 6510SOL    HW131409   2.259   4.790   6.755
 6510SOL    HW231410   2.128   0.067   6.730
 6511SOL     OW31411   4.212   4.176  16.468
 6511SOL    HW131412   4.149   4.230  16.516
 6511SOL    HW231413   4.189   4.188  16.376
 6512SOL     OW31414   1.934   3.287  18.847
 6512SOL    HW131415   1.927   3.279  18.942
 6512SOL    HW231416   2.026   3.270  18.828
 6513SOL     OW31417   2.793   3.418  15.238
 6513SOL    HW131418   2.781   3.501  15.285
 6513SOL    HW231419   2.728   3.360  15.276
 6514SOL     OW31420   3.465   3.254   0.308
 6514SOL    HW131421   3.500   3.332   0.352
 6514SOL    HW231422   3.534   3.229   0.246
 6515SOL     OW31423   4.481   2.891   4.679
 6515SOL    HW131424   4.456   2.799   4.685
 6515SOL    HW231425   4.576   2.892   4.689
 6516SOL     OW31426   4.503   1.295  19.052
 6516SOL    HW131427   4.509   1.237  18.976
 6516SOL    HW231428   4.443   1.365  19.024
 6517SOL     OW31429   2.047   1.689  18.818
 6517SOL    HW131430   2.135   1.721  18.800
 6517SOL    HW231431   2.058   1.630  18.893
 6518SOL     OW31432   3.081   4.540  17.595
 6518SOL    HW131433   3.141   4.503  17.660
 6518SOL    HW231434   3.030   4.605  17.644
 6519SOL     OW31435   1.465   2.389  21.241
 6519SOL    HW131436   1.515   2.335  21.180
 6519SOL    HW231437   1.421   2.453  21.185
 6520SOL     OW31438   3.632   1.347  21.229
 6520SOL    HW131439   3.709   1.313  21.183
 6520SOL    HW231440   3.665   1.372   0.039
 6521SOL     OW31441   4.640   1.273   5.425
 6521SOL    HW131442   4.709   1.294   5.361
 6521SOL    HW231443   4.675   1.200   5.475
 6522SOL     OW31444   4.357   1.244   0.707
 6522SOL    HW131445   4.422   1.313   0.695
 6522SOL    HW231446   4.290   1.284   0.762
 6523SOL     OW31447   2.175   0.215  14.206
 6523SOL    HW131448   2.237   0.148  14.176
 6523SOL    HW231449   2.118   0.168  14.268
 6524SOL     OW31450   2.116   3.708  15.031
 6524SOL    HW131451   2.153   3.780  15.081
 6524SOL    HW231452   2.024   3.704  15.057
 6525SOL     OW31453   0.212   1.495  21.174
 6525SOL    HW131454   0.139   1.506  21.114
 6525SOL    HW231455   0.266   1.574  21.162
 6526SOL     OW31456   1.963   2.628   0.098
 6526SOL    HW131457   1.902   2.701   0.114
 6526SOL    HW231458   2.049   2.669   0.095
 6527SOL     OW31459   2.595   3.964  16.515
 6527SOL    HW131460   2.672   3.915  16.485
 6527SOL    HW231461   2.629   4.023  16.582
 6528SOL     OW31462   2.540   1.808  19.549
 6528SOL    HW131463   2.490   1.861  19.487
 6528SOL    HW231464   2.610   1.866  19.579
 6529SOL     OW31465   1.431   3.747  13.088
 6529SOL    HW131466   1.480   3.733  13.169
 6529SOL    HW231467   1.374   3.670  13.080
 6530SOL     OW31468   4.752   1.161   3.427
 6530SOL    HW131469   4.720   1.127   3.511
 6530SOL    HW231470   4.747   1.256   3.437
 6531SOL     OW31471   1.920   4.548   1.795
 6531SOL    HW131472   1.957   4.600   1.866
 6531SOL    HW231473   1.884   4.612   1.735
 6532SOL     OW31474   3.277   2.296   0.725
 6532SOL    HW131475   3.327   2.214   0.727
 6532SOL    HW231476   3.334   2.360   0.766
 6533SOL     OW31477   0.336   2.665  21.100
 6533SOL    HW131478   0.309   2.668  21.008
 6533SOL    HW231479   0.415   2.611  21.099
 6534SOL     OW31480   4.215   0.695  20.834
 6534SOL    HW131481   4.310   0.700  20.824
 6534SOL    HW231482   4.186   0.786  20.839
 6535SOL     OW31483   4.099   2.184   1.129
 6535SOL    HW131484   4.115   2.114   1.193
 6535SOL    HW231485   4.154   2.256   1.160
 6536SOL     OW31486   2.115   1.329  15.765
 6536SOL    HW131487   2.060   1.262  15.806
 6536SOL    HW231488   2.090   1.326  15.672
 6537SOL     OW31489   2.050   4.400  17.841
 6537SOL    HW131490   2.031   4.356  17.758
 6537SOL    HW231491   1.966   4.438  17.867
 6538SOL     OW31492   1.253   3.040  19.690
 6538SOL    HW131493   1.291   3.055  19.777
 6538SOL    HW231494   1.327   3.009  19.637
 6539SOL     OW31495   1.679   0.779   5.806
 6539SOL    HW131496   1.699   0.791   5.899
 6539SOL    HW231497   1.616   0.847   5.786
 6540SOL     OW31498   1.925   1.321  19.186
 6540SOL    HW131499   2.019   1.305  19.173
 6540SOL    HW231500   1.916   1.416  19.181
 6541SOL     OW31501   4.326   2.874  20.511
 6541SOL    HW131502   4.325   2.783  20.482
 6541SOL    HW231503   4.336   2.925  20.431
 6542SOL     OW31504   3.029   4.750   2.662
 6542SOL    HW131505   2.941   4.713   2.665
 6542SOL    HW231506   3.031   0.019   2.734
 6543SOL     OW31507   2.201   1.209   4.037
 6543SOL    HW131508   2.149   1.143   4.083
 6543SOL    HW231509   2.279   1.220   4.091
 6544SOL     OW31510   1.427   4.145  16.844
 6544SOL    HW131511   1.416   4.187  16.758
 6544SOL    HW231512   1.440   4.052  16.824
 6545SOL     OW31513   1.120   2.133  13.360
 6545SOL    HW131514   1.137   2.148  13.453
 6545SOL    HW231515   1.036   2.089  13.357
 6546SOL     OW31516   4.355   0.882   6.331
 6546SOL    HW131517   4.344   0.787   6.329
 6546SOL    HW231518   4.412   0.901   6.257
 6547SOL     OW31519   0.342   2.509  17.958
 6547SOL    HW131520   0.309   2.474  17.875
 6547SOL    HW231521   0.349   2.603  17.944
 6548SOL     OW31522   4.388   3.104  15.656
 6548SOL    HW131523   4.302   3.100  15.614
 6548SOL    HW231524   4.375   3.058  15.739
 6549SOL     OW31525   3.765   0.577   3.711
 6549SOL    HW131526   3.740   0.562   3.620
 6549SOL    HW231527   3.782   0.489   3.746
 6550SOL     OW31528   0.915   2.723   6.284
 6550SOL    HW131529   0.863   2.734   6.363
 6550SOL    HW231530   0.876   2.649   6.238
 6551SOL     OW31531   1.109   0.246  16.904
 6551SOL    HW131532   1.085   0.178  16.967
 6551SOL    HW231533   1.046   0.316  16.919
 6552SOL     OW31534   2.585   0.443  17.538
 6552SOL    HW131535   2.520   0.508  17.565
 6552SOL    HW231536   2.642   0.433  17.614
 6553SOL     OW31537   0.331   4.215  13.725
 6553SOL    HW131538   0.419   4.181  13.746
 6553SOL    HW231539   0.273   4.168  13.785
 6554SOL     OW31540   4.332   4.620   4.860
 6554SOL    HW131541   4.270   4.619   4.787
 6554SOL    HW231542   4.286   4.666   4.930
 6555SOL     OW31543   1.067   4.571  15.835
 6555SOL    HW131544   1.121   4.548  15.911
 6555SOL    HW231545   1.088   4.663  15.819
 6556SOL     OW31546   3.921   0.070   6.524
 6556SOL    HW131547   3.903   0.032   6.438
 6556SOL    HW231548   3.989   0.015   6.561
 6557SOL     OW31549   3.807   1.837   0.371
 6557SOL    HW131550   3.869   1.790   0.315
 6557SOL    HW231551   3.840   1.927   0.373
 6558SOL     OW31552   4.749   1.730   4.374
 6558SOL    HW131553   0.031   1.788   4.362
 6558SOL    HW231554   4.780   1.644   4.344
 6559SOL     OW31555   0.311   1.743  16.524
 6559SOL    HW131556   0.225   1.706  16.506
 6559SOL    HW231557   0.293   1.821  16.577
 6560SOL     OW31558   3.170   0.523   1.249
 6560SOL    HW131559   3.080   0.554   1.253
 6560SOL    HW231560   3.168   0.437   1.292
 6561SOL     OW31561   1.998   1.661   6.035
 6561SOL    HW131562   1.978   1.744   6.079
 6561SOL    HW231563   1.962   1.672   5.947
 6562SOL     OW31564   1.803   3.860   0.569
 6562SOL    HW131565   1.759   3.924   0.512
 6562SOL    HW231566   1.813   3.782   0.514
 6563SOL     OW31567   3.249   0.896   6.444
 6563SOL    HW131568   3.261   0.822   6.505
 6563SOL    HW231569   3.235   0.971   6.501
 6564SOL     OW31570   4.720   1.935  14.188
 6564SOL    HW131571   4.759   1.849  14.203
 6564SOL    HW231572   4.759   1.965  14.106
 6565SOL     OW31573   2.923   4.299  20.274
 6565SOL    HW131574   2.997   4.358  20.254
 6565SOL    HW231575   2.963   4.228  20.324
 6566SOL     OW31576   2.402   2.722   7.175
 6566SOL    HW131577   2.493   2.747   7.184
 6566SOL    HW231578   2.398   2.631   7.206
 6567SOL     OW31579   3.515   0.627   0.824
 6567SOL    HW131580   3.484   0.619   0.914
 6567SOL    HW231581   3.436   0.638   0.772
 6568SOL     OW31582   1.390   3.936   2.173
 6568SOL    HW131583   1.447   3.917   2.247
 6568SOL    HW231584   1.334   4.007   2.203
 6569SOL     OW31585   1.410   4.743   8.603
 6569SOL    HW131586   1.449   4.656   8.612
 6569SOL    HW231587   1.368   4.759   8.688
 6570SOL     OW31588   2.007   3.235   5.859
 6570SOL    HW131589   2.074   3.303   5.872
 6570SOL    HW231590   2.020   3.206   5.769
 6571SOL     OW31591   1.120   3.519  21.142
 6571SOL    HW131592   1.125   3.427  21.167
 6571SOL    HW231593   1.035   3.548  21.176
 6572SOL     OW31594   2.314   4.539   5.714
 6572SOL    HW131595   2.234   4.493   5.687
 6572SOL    HW231596   2.292   4.632   5.705
 6573SOL     OW31597   0.952   1.813   2.584
 6573SOL    HW131598   0.870   1.799   2.536
 6573SOL    HW231599   1.020   1.810   2.517
 6574SOL     OW31600   1.123   2.858   0.525
 6574SOL    HW131601   1.189   2.928   0.530
 6574SOL    HW231602   1.109   2.832   0.616
 6575SOL     OW31603   3.930   4.052  18.543
 6575SOL    HW131604   4.020   4.085  18.541
 6575SOL    HW231605   3.875   4.128  18.524
 6576SOL     OW31606   2.761   3.463  16.943
 6576SOL    HW131607   2.685   3.505  16.982
 6576SOL    HW231608   2.753   3.481  16.849
 6577SOL     OW31609   4.654   0.123  21.208
 6577SOL    HW131610   4.587   0.191  21.203
 6577SOL    HW231611   4.654   0.084  21.121
 6578SOL     OW31612   2.652   1.389   6.435
 6578SOL    HW131613   2.626   1.298   6.421
 6578SOL    HW231614   2.580   1.428   6.485
 6579SOL     OW31615   2.045   4.012   4.195
 6579SOL    HW131616   2.040   3.983   4.105
 6579SOL    HW231617   2.087   4.098   4.190
 6580SOL     OW31618   0.099   4.600  17.799
 6580SOL    HW131619   0.072   4.619  17.709
 6580SOL    HW231620   0.189   4.631  17.804
 6581SOL     OW31621   1.469   0.168  19.307
 6581SOL    HW131622   1.431   0.116  19.378
 6581SOL    HW231623   1.491   0.105  19.239
 6582SOL     OW31624   3.683   1.629   2.168
 6582SOL    HW131625   3.608   1.621   2.109
 6582SOL    HW231626   3.659   1.699   2.228
 6583SOL     OW31627   1.383   2.943   3.468
 6583SOL    HW131628   1.418   2.951   3.557
 6583SOL    HW231629   1.361   3.032   3.442
 6584SOL     OW31630   3.092   1.311   5.442
 6584SOL    HW131631   3.186   1.296   5.437
 6584SOL    HW231632   3.077   1.343   5.532
 6585SOL     OW31633   4.595   0.614   4.556
 6585SOL    HW131634   4.684   0.611   4.521
 6585SOL    HW231635   4.561   0.525   4.542
 6586SOL     OW31636   1.693   1.686   2.856
 6586SOL    HW131637   1.741   1.648   2.929
 6586SOL    HW231638   1.644   1.613   2.818
 6587SOL     OW31639   4.262   0.446   4.942
 6587SOL    HW131640   4.226   0.378   4.885
 6587SOL    HW231641   4.278   0.520   4.884
 6588SOL     OW31642   4.199   1.011  15.129
 6588SOL    HW131643   4.284   0.967  15.119
 6588SOL    HW231644   4.222   1.102  15.148
 6589SOL     OW31645   3.631   0.098  15.883
 6589SOL    HW131646   3.679   0.178  15.905
 6589SOL    HW231647   3.694   0.046  15.833
 6590SOL     OW31648   2.028   1.043   2.701
 6590SOL    HW131649   1.982   1.107   2.647
 6590SOL    HW231650   2.041   0.968   2.644
 6591SOL     OW31651   0.768   3.778  14.688
 6591SOL    HW131652   0.773   3.715  14.759
 6591SOL    HW231653   0.697   3.838  14.712
 6592SOL     OW31654   2.374   0.501  16.476
 6592SOL    HW131655   2.413   0.573  16.525
 6592SOL    HW231656   2.385   0.525  16.384
 6593SOL     OW31657   3.689   2.392  14.325
 6593SOL    HW131658   3.712   2.484  14.313
 6593SOL    HW231659   3.628   2.373  14.254
 6594SOL     OW31660   0.628   2.285   0.612
 6594SOL    HW131661   0.708   2.235   0.627
 6594SOL    HW231662   0.591   2.298   0.699
 6595SOL     OW31663   3.154   1.452  18.132
 6595SOL    HW131664   3.224   1.434  18.194
 6595SOL    HW231665   3.075   1.458  18.185
 6596SOL     OW31666   1.282   1.637   0.093
 6596SOL    HW131667   1.361   1.601   0.133
 6596SOL    HW231668   1.313   1.705   0.034
 6597SOL     OW31669   0.996   3.306   1.077
 6597SOL    HW131670   0.971   3.387   1.032
 6597SOL    HW231671   0.964   3.317   1.166
 6598SOL     OW31672   2.648   1.972   3.788
 6598SOL    HW131673   2.688   2.034   3.848
 6598SOL    HW231674   2.598   1.912   3.845
 6599SOL     OW31675   1.496   2.936   0.228
 6599SOL    HW131676   1.519   2.994   0.300
 6599SOL    HW231677   1.542   2.972   0.152
 6600SOL     OW31678   3.255   0.758   1.132
 6600SOL    HW131679   3.346   0.731   1.127
 6600SOL    HW231680   3.205   0.678   1.119
 6601SOL     OW31681   1.433   0.218  18.222
 6601SOL    HW131682   1.441   0.313  18.224
 6601SOL    HW231683   1.445   0.195  18.130
 6602SOL     OW31684   3.562   3.300   2.820
 6602SOL    HW131685   3.649   3.338   2.814
 6602SOL    HW231686   3.502   3.375   2.820
 6603SOL     OW31687   1.932   0.788  20.130
 6603SOL    HW131688   2.005   0.780  20.069
 6603SOL    HW231689   1.966   0.755  20.213
 6604SOL     OW31690   3.472   1.745   6.261
 6604SOL    HW131691   3.440   1.666   6.217
 6604SOL    HW231692   3.475   1.720   6.354
 6605SOL     OW31693   0.317   4.247  16.337
 6605SOL    HW131694   0.381   4.238  16.267
 6605SOL    HW231695   0.243   4.193  16.310
 6606SOL     OW31696   0.380   0.976  18.689
 6606SOL    HW131697   0.316   1.034  18.647
 6606SOL    HW231698   0.335   0.893  18.699
 6607SOL     OW31699   2.681   1.763  16.547
 6607SOL    HW131700   2.670   1.719  16.631
 6607SOL    HW231701   2.776   1.761  16.531
 6608SOL     OW31702   3.083   3.957   2.723
 6608SOL    HW131703   2.990   3.980   2.729
 6608SOL    HW231704   3.129   4.041   2.729
 6609SOL     OW31705   0.714   2.231   4.958
 6609SOL    HW131706   0.729   2.172   4.885
 6609SOL    HW231707   0.725   2.319   4.920
 6610SOL     OW31708   1.538   4.202   0.224
 6610SOL    HW131709   1.562   4.211   0.132
 6610SOL    HW231710   1.447   4.171   0.221
 6611SOL     OW31711   4.564   3.856   0.551
 6611SOL    HW131712   4.503   3.861   0.624
 6611SOL    HW231713   4.534   3.923   0.490
 6612SOL     OW31714   0.411   4.464  13.878
 6612SOL    HW131715   0.483   4.526  13.870
 6612SOL    HW231716   0.405   4.421  13.793
 6613SOL     OW31717   1.612   0.269  15.828
 6613SOL    HW131718   1.600   0.205  15.757
 6613SOL    HW231719   1.695   0.245  15.867
 6614SOL     OW31720   0.777   1.783   2.059
 6614SOL    HW131721   0.697   1.832   2.041
 6614SOL    HW231722   0.776   1.769   2.154
 6615SOL     OW31723   2.062   3.416  18.246
 6615SOL    HW131724   2.045   3.474  18.320
 6615SOL    HW231725   2.100   3.473  18.179
 6616SOL     OW31726   3.342   2.460   1.360
 6616SOL    HW131727   3.296   2.507   1.429
 6616SOL    HW231728   3.362   2.527   1.295
 6617SOL     OW31729   3.811   0.989  20.039
 6617SOL    HW131730   3.838   0.911  20.088
 6617SOL    HW231731   3.741   0.959  19.982
 6618SOL     OW31732   3.171   3.821  13.320
 6618SOL    HW131733   3.086   3.780  13.336
 6618SOL    HW231734   3.175   3.892  13.384
 6619SOL     OW31735   1.239   2.486   0.216
 6619SOL    HW131736   1.296   2.547   0.169
 6619SOL    HW231737   1.198   2.539   0.285
 6620SOL     OW31738   3.562   2.712  20.328
 6620SOL    HW131739   3.560   2.634  20.384
 6620SOL    HW231740   3.581   2.678  20.240
 6621SOL     OW31741   3.757   0.261   4.056
 6621SOL    HW131742   3.757   0.267   3.960
 6621SOL    HW231743   3.832   0.314   4.083
 6622SOL     OW31744   1.282   3.131   2.868
 6622SOL    HW131745   1.275   3.192   2.941
 6622SOL    HW231746   1.212   3.068   2.883
 6623SOL     OW31747   1.053   1.470   7.867
 6623SOL    HW131748   1.136   1.495   7.826
 6623SOL    HW231749   1.001   1.550   7.866
 6624SOL     OW31750   3.000   2.073  13.867
 6624SOL    HW131751   2.951   2.145  13.827
 6624SOL    HW231752   3.037   2.025  13.792
 6625SOL     OW31753   0.158   0.231   2.424
 6625SOL    HW131754   0.096   0.289   2.468
 6625SOL    HW231755   0.104   0.181   2.363
 6626SOL     OW31756   4.055   3.067   1.210
 6626SOL    HW131757   3.989   3.133   1.192
 6626SOL    HW231758   4.015   3.010   1.276
 6627SOL     OW31759   2.553   4.083   1.845
 6627SOL    HW131760   2.521   4.173   1.855
 6627SOL    HW231761   2.610   4.086   1.768
 6628SOL     OW31762   1.496   2.962   5.889
 6628SOL    HW131763   1.585   2.942   5.859
 6628SOL    HW231764   1.486   3.056   5.874
 6629SOL     OW31765   2.710   0.933  12.709
 6629SOL    HW131766   2.740   0.970  12.626
 6629SOL    HW231767   2.715   0.838  12.697
 6630SOL     OW31768   4.259   3.677   3.879
 6630SOL    HW131769   4.267   3.713   3.791
 6630SOL    HW231770   4.206   3.741   3.926
 6631SOL     OW31771   0.908   4.318   6.000
 6631SOL    HW131772   0.853   4.253   6.042
 6631SOL    HW231773   0.848   4.370   5.946
 6632SOL     OW31774   2.666   2.212  14.419
 6632SOL    HW131775   2.745   2.263  14.435
 6632SOL    HW231776   2.695   2.138  14.366
 6633SOL     OW31777   2.094   3.804   2.022
 6633SOL    HW131778   2.107   3.793   2.116
 6633SOL    HW231779   2.031   3.736   1.998
 6634SOL     OW31780   2.109   2.362   3.707
 6634SOL    HW131781   2.171   2.357   3.634
 6634SOL    HW231782   2.131   2.287   3.762
 6635SOL     OW31783   1.116   1.396  16.759
 6635SOL    HW131784   1.054   1.453  16.714
 6635SOL    HW231785   1.150   1.338  16.691
 6636SOL     OW31786   3.063   1.971  18.822
 6636SOL    HW131787   3.035   1.972  18.914
 6636SOL    HW231788   3.159   1.967  18.827
 6637SOL     OW31789   0.083   3.587  14.956
 6637SOL    HW131790   0.164   3.541  14.975
 6637SOL    HW231791   0.023   3.519  14.926
 6638SOL     OW31792   2.727   4.341  15.484
 6638SOL    HW131793   2.646   4.391  15.475
 6638SOL    HW231794   2.794   4.407  15.500
 6639SOL     OW31795   3.214   0.313  16.256
 6639SOL    HW131796   3.204   0.399  16.215
 6639SOL    HW231797   3.133   0.266  16.233
 6640SOL     OW31798   0.590   3.227  17.021
 6640SOL    HW131799   0.570   3.140  17.056
 6640SOL    HW231800   0.613   3.212  16.930
 6641SOL     OW31801   0.024   2.604   0.784
 6641SOL    HW131802   0.089   2.609   0.853
 6641SOL    HW231803   0.020   2.511   0.761
 6642SOL     OW31804   3.807   0.571   1.798
 6642SOL    HW131805   3.897   0.591   1.826
 6642SOL    HW231806   3.815   0.488   1.750
 6643SOL     OW31807   2.426   2.760   3.980
 6643SOL    HW131808   2.419   2.695   3.910
 6643SOL    HW231809   2.514   2.796   3.970
 6644SOL     OW31810   4.005   4.064  16.713
 6644SOL    HW131811   4.005   4.160  16.704
 6644SOL    HW231812   4.088   4.045  16.757
 6645SOL     OW31813   3.576   3.571   4.809
 6645SOL    HW131814   3.517   3.644   4.827
 6645SOL    HW231815   3.657   3.592   4.855
 6646SOL     OW31816   4.050   3.963   6.347
 6646SOL    HW131817   4.048   4.059   6.350
 6646SOL    HW231818   4.109   3.944   6.274
 6647SOL     OW31819   3.116   3.194   2.658
 6647SOL    HW131820   3.141   3.234   2.575
 6647SOL    HW231821   3.075   3.111   2.633
 6648SOL     OW31822   2.200   2.622   6.536
 6648SOL    HW131823   2.263   2.682   6.576
 6648SOL    HW231824   2.117   2.644   6.579
 6649SOL     OW31825   1.322   2.521   1.950
 6649SOL    HW131826   1.261   2.492   1.882
 6649SOL    HW231827   1.337   2.614   1.931
 6650SOL     OW31828   2.112   0.841  17.264
 6650SOL    HW131829   2.026   0.803  17.281
 6650SOL    HW231830   2.121   0.839  17.169
 6651SOL     OW31831   0.111   3.473  17.982
 6651SOL    HW131832   0.148   3.497  18.067
 6651SOL    HW231833   0.116   3.553  17.930
 6652SOL     OW31834   1.544   3.539   4.544
 6652SOL    HW131835   1.468   3.589   4.516
 6652SOL    HW231836   1.531   3.526   4.638
 6653SOL     OW31837   0.378   3.742   1.006
 6653SOL    HW131838   0.380   3.705   0.918
 6653SOL    HW231839   0.326   3.681   1.057
 6654SOL     OW31840   4.634   3.285   1.072
 6654SOL    HW131841   4.602   3.338   1.145
 6654SOL    HW231842   4.603   3.331   0.994
 6655SOL     OW31843   0.098   3.748   2.471
 6655SOL    HW131844   0.025   3.695   2.438
 6655SOL    HW231845   0.089   3.743   2.567
 6656SOL     OW31846   0.761   4.729   3.453
 6656SOL    HW131847   0.716   4.783   3.518
 6656SOL    HW231848   0.714   4.745   3.371
 6657SOL     OW31849   2.104   0.679   8.079
 6657SOL    HW131850   2.049   0.731   8.020
 6657SOL    HW231851   2.093   0.589   8.050
 6658SOL     OW31852   0.751   2.376   5.611
 6658SOL    HW131853   0.691   2.444   5.580
 6658SOL    HW231854   0.708   2.341   5.689
 6659SOL     OW31855   3.688   0.787  19.292
 6659SOL    HW131856   3.722   0.826  19.212
 6659SOL    HW231857   3.722   0.697  19.291
 6660SOL     OW31858   2.149   2.772  17.598
 6660SOL    HW131859   2.155   2.703  17.664
 6660SOL    HW231860   2.217   2.750  17.534
 6661SOL     OW31861   4.773   3.196  15.344
 6661SOL    HW131862   4.704   3.137  15.375
 6661SOL    HW231863   4.732   3.282  15.345
 6662SOL     OW31864   3.516   2.699   3.814
 6662SOL    HW131865   3.518   2.671   3.905
 6662SOL    HW231866   3.544   2.622   3.764
 6663SOL     OW31867   4.772   4.604   6.824
 6663SOL    HW131868   4.722   4.554   6.759
 6663SOL    HW231869   4.726   4.687   6.831
 6664SOL     OW31870   3.519   4.238   3.744
 6664SOL    HW131871   3.580   4.217   3.674
 6664SOL    HW231872   3.542   4.328   3.770
 6665SOL     OW31873   2.951   4.148   4.132
 6665SOL    HW131874   2.992   4.165   4.047
 6665SOL    HW231875   2.873   4.097   4.111
 6666SOL     OW31876   1.553   0.818   0.853
 6666SOL    HW131877   1.531   0.820   0.760
 6666SOL    HW231878   1.530   0.729   0.881
 6667SOL     OW31879   4.737   0.551   3.717
 6667SOL    HW131880   4.652   0.563   3.759
 6667SOL    HW231881   4.747   0.457   3.710
 6668SOL     OW31882   1.912   3.015   2.261
 6668SOL    HW131883   1.865   2.932   2.253
 6668SOL    HW231884   1.983   2.995   2.323
 6669SOL     OW31885   1.564   4.374   6.247
 6669SOL    HW131886   1.595   4.449   6.300
 6669SOL    HW231887   1.592   4.395   6.158
 6670SOL     OW31888   1.230   1.339  18.276
 6670SOL    HW131889   1.247   1.258  18.325
 6670SOL    HW231890   1.302   1.344  18.213
 6671SOL     OW31891   1.338   0.481  18.657
 6671SOL    HW131892   1.396   0.407  18.675
 6671SOL    HW231893   1.268   0.444  18.603
 6672SOL     OW31894   3.691   2.916  13.500
 6672SOL    HW131895   3.597   2.901  13.513
 6672SOL    HW231896   3.725   2.831  13.471
 6673SOL     OW31897   2.996   2.244   0.970
 6673SOL    HW131898   3.020   2.308   0.903
 6673SOL    HW231899   2.996   2.160   0.925
 6674SOL     OW31900   0.037   4.063   3.739
 6674SOL    HW131901   4.790   3.988   3.782
 6674SOL    HW231902   0.130   4.056   3.762
 6675SOL     OW31903   2.496   3.270   5.444
 6675SOL    HW131904   2.559   3.294   5.376
 6675SOL    HW231905   2.508   3.176   5.457
 6676SOL     OW31906   2.032   3.737   6.839
 6676SOL    HW131907   2.126   3.752   6.837
 6676SOL    HW231908   2.022   3.642   6.848
 6677SOL     OW31909   2.003   4.420   3.243
 6677SOL    HW131910   2.046   4.369   3.174
 6677SOL    HW231911   1.928   4.366   3.269
 6678SOL     OW31912   2.301   3.335   4.617
 6678SOL    HW131913   2.213   3.363   4.643
 6678SOL    HW231914   2.356   3.413   4.632
 6679SOL     OW31915   2.089   3.706  15.963
 6679SOL    HW131916   2.163   3.646  15.956
 6679SOL    HW231917   2.062   3.721  15.872
 6680SOL     OW31918   2.784   2.572   0.801
 6680SOL    HW131919   2.839   2.505   0.762
 6680SOL    HW231920   2.710   2.524   0.839
 6681SOL     OW31921   4.759   1.731  17.568
 6681SOL    HW131922   0.007   1.806  17.527
 6681SOL    HW231923   0.015   1.717  17.649
 6682SOL     OW31924   1.145   3.010  20.336
 6682SOL    HW131925   1.096   2.945  20.286
 6682SOL    HW231926   1.216   2.961  20.378
 6683SOL     OW31927   3.121   0.450   2.887
 6683SOL    HW131928   3.064   0.449   2.963
 6683SOL    HW231929   3.094   0.375   2.835
 6684SOL     OW31930   3.541   1.622   3.772
 6684SOL    HW131931   3.527   1.700   3.718
 6684SOL    HW231932   3.594   1.652   3.845
 6685SOL     OW31933   4.446   1.330  18.215
 6685SOL    HW131934   4.471   1.320  18.123
 6685SOL    HW231935   4.484   1.254  18.259
 6686SOL     OW31936   4.768   4.258  16.577
 6686SOL    HW131937   4.702   4.248  16.645
 6686SOL    HW231938   4.791   4.351  16.580
 6687SOL     OW31939   4.412   4.577  21.043
 6687SOL    HW131940   4.386   4.532  20.962
 6687SOL    HW231941   4.369   4.663  21.036
 6688SOL     OW31942   2.784   3.428  16.004
 6688SOL    HW131943   2.818   3.358  16.060
 6688SOL    HW231944   2.789   3.506  16.058
 6689SOL     OW31945   2.106   3.358  15.152
 6689SOL    HW131946   2.030   3.300  15.157
 6689SOL    HW231947   2.159   3.334  15.228
 6690SOL     OW31948   0.127   2.387  17.291
 6690SOL    HW131949   0.110   2.409  17.199
 6690SOL    HW231950   0.163   2.468  17.328
 6691SOL     OW31951   2.400   1.036  14.310
 6691SOL    HW131952   2.327   0.996  14.264
 6691SOL    HW231953   2.401   1.127  14.279
 6692SOL     OW31954   0.747   1.141  20.134
 6692SOL    HW131955   0.726   1.084  20.060
 6692SOL    HW231956   0.692   1.218  20.122
 6693SOL     OW31957   2.876   3.381   6.323
 6693SOL    HW131958   2.792   3.427   6.328
 6693SOL    HW231959   2.870   3.314   6.391
 6694SOL     OW31960   1.197   1.893  15.809
 6694SOL    HW131961   1.202   1.984  15.781
 6694SOL    HW231962   1.234   1.843  15.736
 6695SOL     OW31963   2.314   0.234   5.683
 6695SOL    HW131964   2.294   0.232   5.589
 6695SOL    HW231965   2.320   0.141   5.708
 6696SOL     OW31966   4.414   4.488   2.917
 6696SOL    HW131967   4.508   4.505   2.926
 6696SOL    HW231968   4.409   4.394   2.898
 6697SOL     OW31969   1.144   0.662   4.159
 6697SOL    HW131970   1.214   0.712   4.118
 6697SOL    HW231971   1.185   0.622   4.236
 6698SOL     OW31972   3.584   0.199  14.547
 6698SOL    HW131973   3.548   0.243  14.470
 6698SOL    HW231974   3.640   0.266  14.588
 6699SOL     OW31975   1.737   1.361  20.963
 6699SOL    HW131976   1.765   1.339  20.874
 6699SOL    HW231977   1.680   1.288  20.988
 6700SOL     OW31978   0.105   2.714   2.808
 6700SOL    HW131979   0.124   2.625   2.837
 6700SOL    HW231980   0.010   2.716   2.796
 6701SOL     OW31981   2.092   1.092   5.650
 6701SOL    HW131982   2.028   1.031   5.688
 6701SOL    HW231983   2.039   1.167   5.621
 6702SOL     OW31984   2.457   2.338   8.714
 6702SOL    HW131985   2.406   2.360   8.792
 6702SOL    HW231986   2.402   2.276   8.666
 6703SOL     OW31987   2.673   0.865  14.341
 6703SOL    HW131988   2.686   0.824  14.427
 6703SOL    HW231989   2.589   0.910  14.348
 6704SOL     OW31990   4.767   0.700  16.719
 6704SOL    HW131991   0.059   0.669  16.750
 6704SOL    HW231992   4.709   0.689  16.794
 6705SOL     OW31993   0.037   2.748  18.221
 6705SOL    HW131994   0.032   2.655  18.241
 6705SOL    HW231995   0.066   2.788  18.303
 6706SOL     OW31996   0.408   0.807   0.780
 6706SOL    HW131997   0.411   0.818   0.875
 6706SOL    HW231998   0.413   0.896   0.745
 6707SOL     OW31999   1.362   0.796  20.255
 6707SOL    HW132000   1.286   0.851  20.274
 6707SOL    HW232001   1.324   0.713  20.225
 6708SOL     OW32002   4.511   3.213   0.052
 6708SOL    HW132003   4.456   3.281   0.091
 6708SOL    HW232004   4.449   3.150   0.014
 6709SOL     OW32005   1.961   2.900   5.971
 6709SOL    HW132006   1.998   2.813   5.951
 6709SOL    HW232007   1.892   2.882   6.034
 6710SOL     OW32008   1.918   2.608   7.207
 6710SOL    HW132009   1.843   2.664   7.227
 6710SOL    HW232010   1.884   2.519   7.213
 6711SOL     OW32011   1.738   1.407  15.984
 6711SOL    HW132012   1.734   1.331  15.926
 6711SOL    HW232013   1.666   1.463  15.954
 6712SOL     OW32014   3.007   1.535   2.963
 6712SOL    HW132015   3.091   1.513   3.003
 6712SOL    HW232016   3.025   1.616   2.914
 6713SOL     OW32017   0.201   3.630   3.372
 6713SOL    HW132018   0.200   3.598   3.282
 6713SOL    HW232019   0.249   3.563   3.420
 6714SOL     OW32020   2.918   2.135   1.738
 6714SOL    HW132021   2.923   2.117   1.832
 6714SOL    HW232022   2.826   2.153   1.722
 6715SOL     OW32023   0.621   2.760   3.529
 6715SOL    HW132024   0.531   2.729   3.518
 6715SOL    HW232025   0.641   2.803   3.447
 6716SOL     OW32026   3.831   0.457   2.558
 6716SOL    HW132027   3.785   0.487   2.480
 6716SOL    HW232028   3.784   0.378   2.585
 6717SOL     OW32029   1.685   4.126   4.207
 6717SOL    HW132030   1.718   4.053   4.260
 6717SOL    HW232031   1.752   4.194   4.214
 6718SOL     OW32032   0.243   4.128  12.878
 6718SOL    HW132033   0.266   4.185  12.952
 6718SOL    HW232034   0.177   4.068  12.913
 6719SOL     OW32035   0.682   4.494   7.438
 6719SOL    HW132036   0.697   4.543   7.518
 6719SOL    HW232037   0.588   4.475   7.438
 6720SOL     OW32038   1.173   0.936   2.002
 6720SOL    HW132039   1.201   0.863   1.946
 6720SOL    HW232040   1.128   0.996   1.943
 6721SOL     OW32041   3.054   1.685   2.686
 6721SOL    HW132042   3.091   1.620   2.627
 6721SOL    HW232043   2.985   1.728   2.636
 6722SOL     OW32044   4.464   1.405   8.485
 6722SOL    HW132045   4.408   1.455   8.544
 6722SOL    HW232046   4.414   1.326   8.465
 6723SOL     OW32047   4.668   1.521  18.262
 6723SOL    HW132048   4.707   1.477  18.186
 6723SOL    HW232049   4.578   1.488  18.265
 6724SOL     OW32050   1.904   1.092   0.779
 6724SOL    HW132051   1.955   1.151   0.835
 6724SOL    HW232052   1.814   1.122   0.787
 6725SOL     OW32053   0.901   0.729   0.148
 6725SOL    HW132054   0.865   0.717   0.060
 6725SOL    HW232055   0.843   0.794   0.189
 6726SOL     OW32056   4.186   3.013  18.138
 6726SOL    HW132057   4.161   2.954  18.210
 6726SOL    HW232058   4.279   3.029  18.152
 6727SOL     OW32059   2.269   0.837  16.041
 6727SOL    HW132060   2.331   0.840  15.968
 6727SOL    HW232061   2.320   0.805  16.115
 6728SOL     OW32062   1.896   1.106   1.226
 6728SOL    HW132063   1.879   1.200   1.237
 6728SOL    HW232064   1.839   1.080   1.153
 6729SOL     OW32065   2.231   2.644  13.625
 6729SOL    HW132066   2.175   2.707  13.671
 6729SOL    HW232067   2.241   2.572  13.687
 6730SOL     OW32068   1.009   0.895   5.245
 6730SOL    HW132069   0.936   0.894   5.183
 6730SOL    HW232070   0.971   0.863   5.327
 6731SOL     OW32071   3.146   1.467   1.665
 6731SOL    HW132072   3.114   1.377   1.678
 6731SOL    HW232073   3.075   1.511   1.618
 6732SOL     OW32074   0.442   3.366  19.575
 6732SOL    HW132075   0.443   3.271  19.588
 6732SOL    HW232076   0.527   3.386  19.536
 6733SOL     OW32077   2.054   1.556   2.845
 6733SOL    HW132078   1.971   1.525   2.809
 6733SOL    HW232079   2.116   1.484   2.828
 6734SOL     OW32080   4.063   0.113  14.339
 6734SOL    HW132081   3.993   0.095  14.277
 6734SOL    HW232082   4.116   0.033  14.340
 6735SOL     OW32083   2.758   4.763   5.225
 6735SOL    HW132084   2.825   4.791   5.162
 6735SOL    HW232085   2.787   0.004   5.309
 6736SOL     OW32086   4.693   0.738   5.749
 6736SOL    HW132087   4.647   0.822   5.760
 6736SOL    HW232088   4.772   0.747   5.802
 6737SOL     OW32089   1.704   3.212  16.644
 6737SOL    HW132090   1.689   3.143  16.579
 6737SOL    HW232091   1.751   3.280  16.596
 6738SOL     OW32092   4.216   0.556   3.701
 6738SOL    HW132093   4.125   0.561   3.728
 6738SOL    HW232094   4.222   0.617   3.627
 6739SOL     OW32095   3.415   3.452   3.622
 6739SOL    HW132096   3.379   3.366   3.598
 6739SOL    HW232097   3.420   3.450   3.717
 6740SOL     OW32098   2.396   4.587   1.707
 6740SOL    HW132099   2.453   4.648   1.754
 6740SOL    HW232100   2.308   4.603   1.741
 6741SOL     OW32101   4.293   2.426  19.455
 6741SOL    HW132102   4.357   2.497  19.452
 6741SOL    HW232103   4.209   2.467  19.435
 6742SOL     OW32104   0.190   2.128  15.562
 6742SOL    HW132105   0.227   2.207  15.522
 6742SOL    HW232106   0.161   2.156  15.649
 6743SOL     OW32107   2.995   1.979   4.941
 6743SOL    HW132108   3.040   2.062   4.957
 6743SOL    HW232109   2.923   1.978   5.004
 6744SOL     OW32110   2.974   3.761   3.541
 6744SOL    HW132111   3.010   3.807   3.616
 6744SOL    HW232112   2.942   3.830   3.483
 6745SOL     OW32113   0.874   1.105  18.375
 6745SOL    HW132114   0.938   1.047  18.334
 6745SOL    HW232115   0.865   1.177  18.313
 6746SOL     OW32116   3.640   1.305   0.288
 6746SOL    HW132117   3.714   1.321   0.347
 6746SOL    HW232118   3.566   1.350   0.330
 6747SOL     OW32119   0.744   0.465   3.174
 6747SOL    HW132120   0.730   0.557   3.198
 6747SOL    HW232121   0.711   0.458   3.085
 6748SOL     OW32122   1.853   2.433  19.305
 6748SOL    HW132123   1.782   2.498  19.311
 6748SOL    HW232124   1.903   2.460  19.228
 6749SOL     OW32125   3.853   2.429  16.208
 6749SOL    HW132126   3.902   2.454  16.129
 6749SOL    HW232127   3.782   2.493  16.214
 6750SOL     OW32128   1.474   1.967  20.266
 6750SOL    HW132129   1.537   1.923  20.208
 6750SOL    HW232130   1.391   1.924  20.248
 6751SOL     OW32131   3.963   4.465  16.370
 6751SOL    HW132132   3.928   4.543  16.328
 6751SOL    HW232133   3.969   4.401  16.299
 6752SOL     OW32134   1.742   4.508  16.824
 6752SOL    HW132135   1.685   4.437  16.854
 6752SOL    HW232136   1.829   4.467  16.816
 6753SOL     OW32137   2.868   3.317  18.347
 6753SOL    HW132138   2.823   3.397  18.375
 6753SOL    HW232139   2.807   3.247  18.367
 6754SOL     OW32140   3.055   0.178   0.738
 6754SOL    HW132141   2.989   0.221   0.684
 6754SOL    HW232142   3.064   0.234   0.814
 6755SOL     OW32143   2.168   3.418   8.578
 6755SOL    HW132144   2.146   3.508   8.598
 6755SOL    HW232145   2.258   3.408   8.608
 6756SOL     OW32146   3.999   4.542  16.817
 6756SOL    HW132147   4.025   4.542  16.909
 6756SOL    HW232148   3.904   4.535  16.818
 6757SOL     OW32149   4.315   1.160  19.280
 6757SOL    HW132150   4.319   1.074  19.320
 6757SOL    HW232151   4.390   1.163  19.221
 6758SOL     OW32152   1.895   4.430   2.259
 6758SOL    HW132153   1.927   4.388   2.338
 6758SOL    HW232154   1.974   4.449   2.208
 6759SOL     OW32155   2.694   1.625   1.705
 6759SOL    HW132156   2.658   1.571   1.635
 6759SOL    HW232157   2.640   1.704   1.704
 6760SOL     OW32158   2.866   3.930  20.026
 6760SOL    HW132159   2.814   3.863  19.981
 6760SOL    HW232160   2.878   3.896  20.115
 6761SOL     OW32161   1.866   1.566  15.779
 6761SOL    HW132162   1.948   1.533  15.816
 6761SOL    HW232163   1.813   1.488  15.765
 6762SOL     OW32164   0.765   4.314  17.098
 6762SOL    HW132165   0.694   4.283  17.154
 6762SOL    HW232166   0.763   4.256  17.022
 6763SOL     OW32167   1.857   3.859  20.225
 6763SOL    HW132168   1.822   3.770  20.229
 6763SOL    HW232169   1.946   3.848  20.192
 6764SOL     OW32170   1.819   3.776  17.121
 6764SOL    HW132171   1.866   3.858  17.104
 6764SOL    HW232172   1.887   3.712  17.139
 6765SOL     OW32173   2.086   2.208  19.809
 6765SOL    HW132174   2.048   2.271  19.748
 6765SOL    HW232175   2.104   2.131  19.755
 6766SOL     OW32176   0.541   2.560  15.951
 6766SOL    HW132177   0.596   2.490  15.986
 6766SOL    HW232178   0.454   2.544  15.989
 6767SOL     OW32179   1.798   1.436   2.719
 6767SOL    HW132180   1.849   1.482   2.652
 6767SOL    HW232181   1.707   1.443   2.689
 6768SOL     OW32182   3.326   2.254  19.520
 6768SOL    HW132183   3.405   2.247  19.466
 6768SOL    HW232184   3.260   2.290  19.461
 6769SOL     OW32185   4.571   1.553  20.185
 6769SOL    HW132186   4.583   1.491  20.114
 6769SOL    HW232187   4.637   1.530  20.250
 6770SOL     OW32188   0.828   0.632  11.605
 6770SOL    HW132189   0.811   0.553  11.555
 6770SOL    HW232190   0.907   0.613  11.655
 6771SOL     OW32191   3.495   1.116  14.522
 6771SOL    HW132192   3.583   1.103  14.487
 6771SOL    HW232193   3.508   1.147  14.611
 6772SOL     OW32194   0.538   4.102   6.107
 6772SOL    HW132195   0.563   4.010   6.115
 6772SOL    HW232196   0.602   4.149   6.161
 6773SOL     OW32197   2.808   4.540  17.269
 6773SOL    HW132198   2.881   4.574  17.320
 6773SOL    HW232199   2.751   4.499  17.333
 6774SOL     OW32200   4.585   3.514  17.815
 6774SOL    HW132201   4.625   3.512  17.902
 6774SOL    HW232202   4.626   3.588  17.772
 6775SOL     OW32203   3.454   2.247  18.410
 6775SOL    HW132204   3.441   2.259  18.316
 6775SOL    HW232205   3.531   2.190  18.416
 6776SOL     OW32206   0.593   1.995  18.036
 6776SOL    HW132207   0.645   2.018  17.959
 6776SOL    HW232208   0.605   2.068  18.096
 6777SOL     OW32209   3.985   1.683   8.552
 6777SOL    HW132210   4.073   1.690   8.516
 6777SOL    HW232211   3.940   1.620   8.495
 6778SOL     OW32212   0.488   1.123   3.756
 6778SOL    HW132213   0.432   1.182   3.808
 6778SOL    HW232214   0.436   1.104   3.678
 6779SOL     OW32215   0.085   3.494   1.376
 6779SOL    HW132216   0.030   3.564   1.410
 6779SOL    HW232217   0.035   3.414   1.390
 6780SOL     OW32218   0.075   4.475   5.066
 6780SOL    HW132219   0.161   4.433   5.074
 6780SOL    HW232220   0.074   4.510   4.977
 6781SOL     OW32221   2.389   4.187  18.510
 6781SOL    HW132222   2.305   4.206  18.468
 6781SOL    HW232223   2.445   4.259  18.484
 6782SOL     OW32224   1.226   1.135   1.293
 6782SOL    HW132225   1.215   1.128   1.198
 6782SOL    HW232226   1.137   1.141   1.327
 6783SOL     OW32227   1.276   1.244  14.972
 6783SOL    HW132228   1.332   1.321  14.982
 6783SOL    HW232229   1.206   1.258  15.036
 6784SOL     OW32230   1.697   1.598  18.942
 6784SOL    HW132231   1.627   1.654  18.976
 6784SOL    HW232232   1.690   1.517  18.993
 6785SOL     OW32233   2.845   1.338   1.912
 6785SOL    HW132234   2.866   1.312   1.822
 6785SOL    HW232235   2.913   1.296   1.966
 6786SOL     OW32236   4.237   3.109  17.713
 6786SOL    HW132237   4.143   3.090  17.709
 6786SOL    HW232238   4.246   3.167  17.788
 6787SOL     OW32239   0.676   4.590  19.043
 6787SOL    HW132240   0.639   4.679  19.037
 6787SOL    HW232241   0.766   4.604  19.072
 6788SOL     OW32242   3.730   0.498   8.098
 6788SOL    HW132243   3.688   0.419   8.063
 6788SOL    HW232244   3.802   0.465   8.151
 6789SOL     OW32245   3.323   3.225   1.577
 6789SOL    HW132246   3.384   3.151   1.588
 6789SOL    HW232247   3.269   3.223   1.656
 6790SOL     OW32248   2.503   3.748  18.346
 6790SOL    HW132249   2.421   3.792  18.322
 6790SOL    HW232250   2.505   3.670  18.290
 6791SOL     OW32251   2.072   3.695   6.385
 6791SOL    HW132252   2.085   3.601   6.395
 6791SOL    HW232253   2.114   3.733   6.462
 6792SOL     OW32254   4.225   2.328   6.802
 6792SOL    HW132255   4.153   2.349   6.742
 6792SOL    HW232256   4.234   2.233   6.796
 6793SOL     OW32257   2.149   3.021   4.322
 6793SOL    HW132258   2.094   2.946   4.298
 6793SOL    HW232259   2.178   3.001   4.411
 6794SOL     OW32260   1.459   3.195  16.910
 6794SOL    HW132261   1.431   3.144  16.834
 6794SOL    HW232262   1.551   3.173  16.922
 6795SOL     OW32263   2.720   4.393  12.503
 6795SOL    HW132264   2.694   4.482  12.477
 6795SOL    HW232265   2.647   4.338  12.477
 6796SOL     OW32266   3.978   0.093   4.332
 6796SOL    HW132267   3.941   0.093   4.420
 6796SOL    HW232268   3.904   0.075   4.275
 6797SOL     OW32269   0.978   0.257  18.733
 6797SOL    HW132270   1.017   0.300  18.809
 6797SOL    HW232271   0.963   0.328  18.670
 6798SOL     OW32272   0.880   0.059   0.438
 6798SOL    HW132273   0.957   0.115   0.428
 6798SOL    HW232274   0.809   0.119   0.461
 6799SOL     OW32275   0.469   1.958   0.592
 6799SOL    HW132276   0.374   1.947   0.582
 6799SOL    HW232277   0.498   1.994   0.508
 6800SOL     OW32278   1.483   4.761  19.109
 6800SOL    HW132279   1.484   4.672  19.073
 6800SOL    HW232280   1.538   0.017  19.049
 6801SOL     OW32281   4.673   3.576  20.697
 6801SOL    HW132282   4.680   3.527  20.616
 6801SOL    HW232283   4.610   3.527  20.750
 6802SOL     OW32284   4.632   1.781  20.927
 6802SOL    HW132285   4.651   1.823  21.011
 6802SOL    HW232286   4.565   1.716  20.948
 6803SOL     OW32287   4.521   2.163  15.500
 6803SOL    HW132288   4.556   2.119  15.578
 6803SOL    HW232289   4.540   2.256  15.514
 6804SOL     OW32290   1.614   4.613  13.061
 6804SOL    HW132291   1.667   4.686  13.094
 6804SOL    HW232292   1.650   4.595  12.974
 6805SOL     OW32293   2.528   0.822  16.254
 6805SOL    HW132294   2.581   0.825  16.334
 6805SOL    HW232295   2.588   0.846  16.184
 6806SOL     OW32296   1.288   0.926   0.005
 6806SOL    HW132297   1.217   0.905  21.220
 6806SOL    HW232298   1.349   0.979  21.229
 6807SOL     OW32299   3.091   1.399  17.201
 6807SOL    HW132300   3.099   1.439  17.287
 6807SOL    HW232301   3.078   1.306  17.219
 6808SOL     OW32302   2.523   2.057   0.090
 6808SOL    HW132303   2.469   1.980   0.106
 6808SOL    HW232304   2.606   2.037   0.133
 6809SOL     OW32305   0.085   0.830   3.292
 6809SOL    HW132306   0.101   0.746   3.248
 6809SOL    HW232307   0.085   0.808   3.386
 6810SOL     OW32308   0.975   3.293   2.934
 6810SOL    HW132309   0.932   3.284   3.019
 6810SOL    HW232310   0.904   3.310   2.873
 6811SOL     OW32311   3.822   3.048   6.123
 6811SOL    HW132312   3.811   2.962   6.165
 6811SOL    HW232313   3.769   3.043   6.044
 6812SOL     OW32314   3.386   3.550   2.797
 6812SOL    HW132315   3.307   3.498   2.782
 6812SOL    HW232316   3.372   3.591   2.883
 6813SOL     OW32317   2.503   0.533   5.070
 6813SOL    HW132318   2.452   0.482   5.006
 6813SOL    HW232319   2.564   0.584   5.018
 6814SOL     OW32320   1.913   0.398   5.131
 6814SOL    HW132321   1.924   0.483   5.088
 6814SOL    HW232322   1.820   0.378   5.120
 6815SOL     OW32323   4.367   2.316  17.144
 6815SOL    HW132324   4.320   2.233  17.156
 6815SOL    HW232325   4.303   2.374  17.104
 6816SOL     OW32326   4.719   2.836   0.112
 6816SOL    HW132327   0.001   2.801   0.065
 6816SOL    HW232328   4.656   2.764   0.114
 6817SOL     OW32329   3.916   0.987   0.099
 6817SOL    HW132330   3.971   0.944   0.034
 6817SOL    HW232331   3.835   1.008   0.053
 6818SOL     OW32332   1.884   4.144   5.311
 6818SOL    HW132333   1.878   4.103   5.397
 6818SOL    HW232334   1.974   4.173   5.304
 6819SOL     OW32335   1.434   0.815   8.040
 6819SOL    HW132336   1.486   0.736   8.025
 6819SOL    HW232337   1.403   0.840   7.953
 6820SOL     OW32338   3.696   2.134  18.412
 6820SOL    HW132339   3.750   2.119  18.335
 6820SOL    HW232340   3.757   2.131  18.486
 6821SOL     OW32341   2.039   3.102  20.768
 6821SOL    HW132342   2.046   3.095  20.863
 6821SOL    HW232343   1.962   3.157  20.754
 6822SOL     OW32344   0.876   1.090  12.618
 6822SOL    HW132345   0.948   1.082  12.681
 6822SOL    HW232346   0.806   1.036  12.655
 6823SOL     OW32347   2.196   4.304  14.094
 6823SOL    HW132348   2.205   4.380  14.037
 6823SOL    HW232349   2.260   4.241  14.062
 6824SOL     OW32350   1.000   3.743   4.015
 6824SOL    HW132351   1.002   3.838   4.027
 6824SOL    HW232352   0.943   3.730   3.940
 6825SOL     OW32353   2.099   0.431  20.398
 6825SOL    HW132354   2.128   0.433  20.307
 6825SOL    HW232355   2.156   0.494  20.443
 6826SOL     OW32356   2.347   4.457   0.583
 6826SOL    HW132357   2.430   4.413   0.571
 6826SOL    HW232358   2.363   4.523   0.650
 6827SOL     OW32359   0.582   1.572   3.371
 6827SOL    HW132360   0.631   1.527   3.302
 6827SOL    HW232361   0.557   1.655   3.332
 6828SOL     OW32362   0.400   4.145   4.444
 6828SOL    HW132363   0.393   4.091   4.523
 6828SOL    HW232364   0.372   4.232   4.472
 6829SOL     OW32365   2.550   4.538   5.833
 6829SOL    HW132366   2.575   4.628   5.813
 6829SOL    HW232367   2.466   4.525   5.788
 6830SOL     OW32368   3.112   3.210   3.335
 6830SOL    HW132369   3.149   3.266   3.267
 6830SOL    HW232370   3.158   3.127   3.325
 6831SOL     OW32371   0.328   4.280  15.354
 6831SOL    HW132372   0.257   4.246  15.299
 6831SOL    HW232373   0.356   4.204  15.406
 6832SOL     OW32374   0.451   1.740  20.984
 6832SOL    HW132375   0.466   1.769  21.074
 6832SOL    HW232376   0.389   1.804  20.948
 6833SOL     OW32377   1.647   2.528  17.897
 6833SOL    HW132378   1.580   2.483  17.846
 6833SOL    HW232379   1.608   2.538  17.984
 6834SOL     OW32380   1.989   4.342   1.408
 6834SOL    HW132381   1.920   4.290   1.448
 6834SOL    HW232382   2.015   4.293   1.330
 6835SOL     OW32383   3.586   1.906  19.510
 6835SOL    HW132384   3.675   1.901  19.474
 6835SOL    HW232385   3.567   2.000  19.514
 6836SOL     OW32386   1.062   1.554  19.608
 6836SOL    HW132387   1.064   1.517  19.520
 6836SOL    HW232388   1.154   1.561  19.633
 6837SOL     OW32389   0.946   1.328   5.925
 6837SOL    HW132390   0.854   1.343   5.902
 6837SOL    HW232391   0.992   1.337   5.841
 6838SOL     OW32392   0.533   3.382   2.287
 6838SOL    HW132393   0.455   3.370   2.231
 6838SOL    HW232394   0.577   3.459   2.251
 6839SOL     OW32395   2.841   4.516   5.521
 6839SOL    HW132396   2.811   4.486   5.607
 6839SOL    HW232397   2.910   4.453   5.497
 6840SOL     OW32398   2.962   0.600   0.087
 6840SOL    HW132399   3.050   0.610   0.051
 6840SOL    HW232400   2.966   0.640   0.174
 6841SOL     OW32401   3.441   1.604  20.642
 6841SOL    HW132402   3.423   1.511  20.629
 6841SOL    HW232403   3.398   1.647  20.568
 6842SOL     OW32404   3.941   0.914   6.182
 6842SOL    HW132405   3.986   0.980   6.129
 6842SOL    HW232406   3.937   0.953   6.270
 6843SOL     OW32407   4.687   4.279   3.421
 6843SOL    HW132408   4.778   4.252   3.431
 6843SOL    HW232409   4.659   4.240   3.338
 6844SOL     OW32410   3.566   3.828   4.185
 6844SOL    HW132411   3.500   3.790   4.243
 6844SOL    HW232412   3.518   3.854   4.107
 6845SOL     OW32413   0.995   4.496  18.609
 6845SOL    HW132414   0.982   4.500  18.704
 6845SOL    HW232415   0.907   4.496  18.572
 6846SOL     OW32416   2.559   1.009  20.613
 6846SOL    HW132417   2.486   0.975  20.665
 6846SOL    HW232418   2.524   1.017  20.525
 6847SOL     OW32419   0.488   4.656  18.404
 6847SOL    HW132420   0.557   4.719  18.381
 6847SOL    HW232421   0.433   4.702  18.467
 6848SOL     OW32422   4.084   0.865   1.520
 6848SOL    HW132423   4.058   0.789   1.572
 6848SOL    HW232424   4.040   0.853   1.436
 6849SOL     OW32425   1.170   4.456   4.776
 6849SOL    HW132426   1.229   4.382   4.764
 6849SOL    HW232427   1.228   4.532   4.786
 6850SOL     OW32428   2.306   1.856   5.172
 6850SOL    HW132429   2.363   1.780   5.182
 6850SOL    HW232430   2.322   1.910   5.249
 6851SOL     OW32431   0.333   2.764  17.907
 6851SOL    HW132432   0.280   2.762  17.828
 6851SOL    HW232433   0.348   2.856  17.925
 6852SOL     OW32434   1.507   3.184   5.104
 6852SOL    HW132435   1.434   3.231   5.143
 6852SOL    HW232436   1.473   3.150   5.022
 6853SOL     OW32437   3.894   0.319   3.273
 6853SOL    HW132438   3.913   0.368   3.353
 6853SOL    HW232439   3.950   0.241   3.279
 6854SOL     OW32440   2.876   1.671  16.071
 6854SOL    HW132441   2.874   1.732  15.997
 6854SOL    HW232442   2.788   1.633  16.072
 6855SOL     OW32443   4.474   1.934   6.364
 6855SOL    HW132444   4.402   1.997   6.360
 6855SOL    HW232445   4.504   1.937   6.455
 6856SOL     OW32446   3.586   2.498  20.826
 6856SOL    HW132447   3.565   2.519  20.917
 6856SOL    HW232448   3.554   2.408  20.815
 6857SOL     OW32449   0.805   2.320   2.797
 6857SOL    HW132450   0.800   2.326   2.701
 6857SOL    HW232451   0.743   2.251   2.820
 6858SOL     OW32452   0.549   2.991  17.597
 6858SOL    HW132453   0.496   2.994  17.677
 6858SOL    HW232454   0.517   3.064  17.544
 6859SOL     OW32455   0.566   1.224  19.357
 6859SOL    HW132456   0.488   1.232  19.302
 6859SOL    HW232457   0.619   1.156  19.315
 6860SOL     OW32458   2.139   0.800  13.550
 6860SOL    HW132459   2.198   0.853  13.605
 6860SOL    HW232460   2.157   0.831  13.461
 6861SOL     OW32461   0.249   3.655  21.068
 6861SOL    HW132462   0.272   3.636  20.977
 6861SOL    HW232463   0.319   3.616  21.119
 6862SOL     OW32464   4.251   2.025   5.802
 6862SOL    HW132465   4.158   2.040   5.818
 6862SOL    HW232466   4.255   1.932   5.776
 6863SOL     OW32467   2.807   2.923  18.780
 6863SOL    HW132468   2.742   2.942  18.712
 6863SOL    HW232469   2.768   2.955  18.861
 6864SOL     OW32470   3.041   2.462   4.088
 6864SOL    HW132471   3.082   2.495   4.008
 6864SOL    HW232472   3.006   2.541   4.130
 6865SOL     OW32473   3.969   3.254   8.612
 6865SOL    HW132474   4.029   3.237   8.539
 6865SOL    HW232475   3.895   3.195   8.598
 6866SOL     OW32476   2.662   3.625  20.382
 6866SOL    HW132477   2.572   3.639  20.353
 6866SOL    HW232478   2.716   3.657  20.309
 6867SOL     OW32479   3.912   4.556   6.715
 6867SOL    HW132480   3.945   4.638   6.679
 6867SOL    HW232481   3.848   4.526   6.651
 6868SOL     OW32482   1.223   2.982   5.703
 6868SOL    HW132483   1.251   3.046   5.768
 6868SOL    HW232484   1.187   2.909   5.755
 6869SOL     OW32485   2.940   4.727  12.622
 6869SOL    HW132486   2.973   4.669  12.690
 6869SOL    HW232487   2.855   4.756  12.654
 6870SOL     OW32488   2.825   4.746  16.495
 6870SOL    HW132489   2.767   4.793  16.435
 6870SOL    HW232490   2.774   4.735  16.575
 6871SOL     OW32491   4.588   3.381  18.976
 6871SOL    HW132492   4.505   3.339  18.954
 6871SOL    HW232493   4.655   3.322  18.941
 6872SOL     OW32494   0.746   2.504  20.413
 6872SOL    HW132495   0.681   2.437  20.434
 6872SOL    HW232496   0.770   2.485  20.322
 6873SOL     OW32497   2.803   0.140  20.010
 6873SOL    HW132498   2.803   0.054  19.967
 6873SOL    HW232499   2.769   0.124  20.097
 6874SOL     OW32500   4.512   0.858   1.454
 6874SOL    HW132501   4.538   0.875   1.544
 6874SOL    HW232502   4.474   0.770   1.456
 6875SOL     OW32503   2.378   3.211   4.254
 6875SOL    HW132504   2.359   3.162   4.335
 6875SOL    HW232505   2.342   3.156   4.184
 6876SOL     OW32506   3.240   1.148  19.270
 6876SOL    HW132507   3.314   1.087  19.280
 6876SOL    HW232508   3.167   1.104  19.314
 6877SOL     OW32509   4.295   0.225   5.835
 6877SOL    HW132510   4.338   0.140   5.835
 6877SOL    HW232511   4.203   0.206   5.856
 6878SOL     OW32512   3.724   2.419   7.248
 6878SOL    HW132513   3.724   2.413   7.343
 6878SOL    HW232514   3.750   2.510   7.230
 6879SOL     OW32515   2.357   3.865  19.302
 6879SOL    HW132516   2.308   3.864  19.220
 6879SOL    HW232517   2.440   3.821  19.281
 6880SOL     OW32518   0.230   4.603  14.601
 6880SOL    HW132519   0.240   4.698  14.596
 6880SOL    HW232520   0.311   4.567  14.564
 6881SOL     OW32521   0.377   3.974   4.669
 6881SOL    HW132522   0.388   3.900   4.729
 6881SOL    HW232523   0.303   3.948   4.613
 6882SOL     OW32524   0.286   2.466  18.694
 6882SOL    HW132525   0.301   2.540  18.636
 6882SOL    HW232526   0.307   2.499  18.782
 6883SOL     OW32527   4.055   3.260  18.684
 6883SOL    HW132528   4.036   3.346  18.721
 6883SOL    HW232529   3.975   3.210  18.696
 6884SOL     OW32530   1.625   4.073  15.629
 6884SOL    HW132531   1.666   4.039  15.709
 6884SOL    HW232532   1.558   4.133  15.660
 6885SOL     OW32533   4.636   0.469  14.790
 6885SOL    HW132534   4.731   0.476  14.800
 6885SOL    HW232535   4.613   0.389  14.836
 6886SOL     OW32536   0.706   2.154  20.691
 6886SOL    HW132537   0.736   2.132  20.779
 6886SOL    HW232538   0.783   2.192  20.648
 6887SOL     OW32539   3.567   3.399   6.734
 6887SOL    HW132540   3.550   3.341   6.660
 6887SOL    HW232541   3.602   3.342   6.802
 6888SOL     OW32542   3.996   2.239   5.271
 6888SOL    HW132543   4.055   2.235   5.196
 6888SOL    HW232544   3.911   2.212   5.236
 6889SOL     OW32545   0.074   0.533   4.725
 6889SOL    HW132546   0.019   0.457   4.709
 6889SOL    HW232547   0.156   0.514   4.678
 6890SOL     OW32548   4.218   0.471   5.221
 6890SOL    HW132549   4.246   0.497   5.134
 6890SOL    HW232550   4.133   0.429   5.208
 6891SOL     OW32551   0.634   3.176   4.351
 6891SOL    HW132552   0.556   3.231   4.344
 6891SOL    HW232553   0.604   3.097   4.396
 6892SOL     OW32554   0.255   2.297  18.153
 6892SOL    HW132555   0.295   2.316  18.238
 6892SOL    HW232556   0.302   2.353  18.091
 6893SOL     OW32557   4.773   3.613  16.869
 6893SOL    HW132558   4.735   3.542  16.921
 6893SOL    HW232559   4.710   3.684  16.873
 6894SOL     OW32560   3.406   3.999  20.337
 6894SOL    HW132561   3.478   3.969  20.281
 6894SOL    HW232562   3.363   4.067  20.286
 6895SOL     OW32563   3.753   1.147  19.222
 6895SOL    HW132564   3.776   1.226  19.270
 6895SOL    HW232565   3.812   1.148  19.146
 6896SOL     OW32566   2.860   1.860  15.861
 6896SOL    HW132567   2.790   1.907  15.906
 6896SOL    HW232568   2.940   1.909  15.882
 6897SOL     OW32569   1.629   1.455   4.711
 6897SOL    HW132570   1.538   1.483   4.718
 6897SOL    HW232571   1.674   1.530   4.672
 6898SOL     OW32572   0.555   4.082  13.801
 6898SOL    HW132573   0.518   4.004  13.760
 6898SOL    HW232574   0.629   4.105  13.745
 6899SOL     OW32575   1.433   1.419  18.083
 6899SOL    HW132576   1.406   1.478  18.013
 6899SOL    HW232577   1.491   1.471  18.138
 6900SOL     OW32578   0.779   1.371   4.938
 6900SOL    HW132579   0.762   1.464   4.951
 6900SOL    HW232580   0.828   1.368   4.855
 6901SOL     OW32581   1.866   2.111  17.477
 6901SOL    HW132582   1.945   2.067  17.508
 6901SOL    HW232583   1.864   2.194  17.525
 6902SOL     OW32584   2.314   4.500  17.049
 6902SOL    HW132585   2.403   4.483  17.021
 6902SOL    HW232586   2.281   4.415  17.079
 6903SOL     OW32587   1.823   1.900  17.740
 6903SOL    HW132588   1.890   1.966  17.758
 6903SOL    HW232589   1.740   1.945  17.757
 6904SOL     OW32590   3.294   4.085  18.472
 6904SOL    HW132591   3.284   3.992  18.494
 6904SOL    HW232592   3.302   4.129  18.556
 6905SOL     OW32593   2.367   3.901   2.710
 6905SOL    HW132594   2.280   3.865   2.728
 6905SOL    HW232595   2.410   3.834   2.657
 6906SOL     OW32596   1.324   0.329   6.140
 6906SOL    HW132597   1.362   0.265   6.080
 6906SOL    HW232598   1.236   0.296   6.157
 6907SOL     OW32599   3.780   1.697   5.341
 6907SOL    HW132600   3.756   1.719   5.251
 6907SOL    HW232601   3.699   1.703   5.390
 6908SOL     OW32602   0.148   3.311   5.647
 6908SOL    HW132603   0.119   3.392   5.690
 6908SOL    HW232604   0.155   3.335   5.555
 6909SOL     OW32605   2.692   3.253   8.813
 6909SOL    HW132606   2.675   3.165   8.849
 6909SOL    HW232607   2.704   3.308   8.890
 6910SOL     OW32608   3.390   1.575   5.451
 6910SOL    HW132609   3.358   1.486   5.440
 6910SOL    HW232610   3.421   1.600   5.363
 6911SOL     OW32611   1.087   0.512   2.115
 6911SOL    HW132612   1.018   0.576   2.130
 6911SOL    HW232613   1.131   0.542   2.036
 6912SOL     OW32614   1.254   2.508   0.818
 6912SOL    HW132615   1.247   2.603   0.826
 6912SOL    HW232616   1.332   2.493   0.765
 6913SOL     OW32617   1.630   3.199  21.010
 6913SOL    HW132618   1.655   3.224  20.921
 6913SOL    HW232619   1.576   3.272  21.041
 6914SOL     OW32620   3.016   2.113  14.135
 6914SOL    HW132621   2.962   2.191  14.149
 6914SOL    HW232622   3.002   2.089  14.044
 6915SOL     OW32623   3.162   3.200   1.816
 6915SOL    HW132624   3.181   3.279   1.867
 6915SOL    HW232625   3.171   3.128   1.879
 6916SOL     OW32626   0.078   0.322  11.297
 6916SOL    HW132627   0.061   0.289  11.385
 6916SOL    HW232628   0.013   0.279  11.242
 6917SOL     OW32629   3.596   3.684   3.391
 6917SOL    HW132630   3.687   3.710   3.380
 6917SOL    HW232631   3.600   3.591   3.413
 6918SOL     OW32632   4.711   0.468  15.115
 6918SOL    HW132633   4.767   0.470  15.193
 6918SOL    HW232634   4.657   0.547  15.122
 6919SOL     OW32635   0.058   2.201   2.776
 6919SOL    HW132636   0.114   2.124   2.783
 6919SOL    HW232637   0.013   2.190   2.693
 6920SOL     OW32638   3.656   3.135   4.032
 6920SOL    HW132639   3.619   3.167   3.950
 6920SOL    HW232640   3.686   3.214   4.077
 6921SOL     OW32641   0.512   2.243  19.004
 6921SOL    HW132642   0.501   2.267  18.912
 6921SOL    HW232643   0.531   2.149  19.002
 6922SOL     OW32644   1.387   3.492  20.061
 6922SOL    HW132645   1.304   3.529  20.091
 6922SOL    HW232646   1.399   3.413  20.113
 6923SOL     OW32647   3.108   0.982   0.282
 6923SOL    HW132648   3.195   0.982   0.242
 6923SOL    HW232649   3.050   1.017   0.214
 6924SOL     OW32650   0.225   3.341  18.392
 6924SOL    HW132651   0.189   3.261  18.354
 6924SOL    HW232652   0.160   3.408  18.371
 6925SOL     OW32653   3.675   2.719   4.801
 6925SOL    HW132654   3.581   2.732   4.796
 6925SOL    HW232655   3.709   2.757   4.720
 6926SOL     OW32656   4.417   3.904  17.395
 6926SOL    HW132657   4.330   3.922  17.361
 6926SOL    HW232658   4.406   3.828  17.452
 6927SOL     OW32659   0.518   0.209  21.157
 6927SOL    HW132660   0.485   0.293  21.188
 6927SOL    HW232661   0.450   0.177  21.098
 6928SOL     OW32662   4.436   0.103   0.113
 6928SOL    HW132663   4.506   0.039   0.129
 6928SOL    HW232664   4.473   0.187   0.140
 6929SOL     OW32665   0.235   0.922  20.891
 6929SOL    HW132666   0.165   0.912  20.828
 6929SOL    HW232667   0.309   0.956  20.840
 6930SOL     OW32668   2.031   3.856   4.612
 6930SOL    HW132669   1.985   3.829   4.692
 6930SOL    HW232670   2.016   3.950   4.606
 6931SOL     OW32671   0.051   3.013   6.959
 6931SOL    HW132672   0.085   3.039   7.045
 6931SOL    HW232673   4.764   3.061   6.949
 6932SOL     OW32674   2.347   0.671   0.188
 6932SOL    HW132675   2.411   0.741   0.177
 6932SOL    HW232676   2.393   0.606   0.241
 6933SOL     OW32677   1.415   4.533   2.564
 6933SOL    HW132678   1.480   4.544   2.633
 6933SOL    HW232679   1.447   4.587   2.492
 6934SOL     OW32680   1.013   1.098   1.463
 6934SOL    HW132681   0.938   1.038   1.459
 6934SOL    HW232682   1.027   1.111   1.557
 6935SOL     OW32683   2.122   4.516  18.492
 6935SOL    HW132684   2.041   4.469  18.514
 6935SOL    HW232685   2.118   4.528  18.397
 6936SOL     OW32686   4.239   0.534   1.403
 6936SOL    HW132687   4.264   0.577   1.321
 6936SOL    HW232688   4.318   0.535   1.456
 6937SOL     OW32689   3.558   3.458   6.421
 6937SOL    HW132690   3.593   3.491   6.504
 6937SOL    HW232691   3.613   3.382   6.401
 6938SOL     OW32692   3.627   1.720  18.957
 6938SOL    HW132693   3.656   1.633  18.981
 6938SOL    HW232694   3.705   1.775  18.967
 6939SOL     OW32695   3.555   4.523   1.019
 6939SOL    HW132696   3.478   4.476   1.049
 6939SOL    HW232697   3.552   4.515   0.923
 6940SOL     OW32698   2.192   0.397  15.736
 6940SOL    HW132699   2.131   0.336  15.695
 6940SOL    HW232700   2.161   0.484  15.709
 6941SOL     OW32701   0.113   2.280  19.888
 6941SOL    HW132702   0.053   2.347  19.853
 6941SOL    HW232703   0.181   2.330  19.932
 6942SOL     OW32704   4.468   3.116   1.777
 6942SOL    HW132705   4.397   3.134   1.716
 6942SOL    HW232706   4.439   3.156   1.859
 6943SOL     OW32707   3.018   2.081   3.628
 6943SOL    HW132708   2.991   2.069   3.719
 6943SOL    HW232709   3.072   2.160   3.629
 6944SOL     OW32710   3.582   4.104  14.382
 6944SOL    HW132711   3.503   4.158  14.379
 6944SOL    HW232712   3.549   4.014  14.371
 6945SOL     OW32713   0.131   4.759  18.977
 6945SOL    HW132714   0.160   0.023  18.907
 6945SOL    HW232715   0.207   4.703  18.995
 6946SOL     OW32716   1.941   0.077   2.678
 6946SOL    HW132717   1.892   0.036   2.750
 6946SOL    HW232718   1.928   0.171   2.690
 6947SOL     OW32719   1.537   4.739  18.770
 6947SOL    HW132720   1.559   4.750  18.677
 6947SOL    HW232721   1.478   4.664  18.771
 6948SOL     OW32722   2.944   2.464   3.407
 6948SOL    HW132723   2.889   2.402   3.360
 6948SOL    HW232724   2.889   2.542   3.417
 6949SOL     OW32725   1.816   0.088   5.273
 6949SOL    HW132726   1.760   0.152   5.229
 6949SOL    HW232727   1.850   0.033   5.203
 6950SOL     OW32728   0.205   0.977  18.984
 6950SOL    HW132729   0.137   1.031  18.944
 6950SOL    HW232730   0.159   0.923  19.048
 6951SOL     OW32731   2.835   3.176  20.960
 6951SOL    HW132732   2.881   3.177  21.044
 6951SOL    HW232733   2.877   3.107  20.909
 6952SOL     OW32734   0.269   2.638  19.452
 6952SOL    HW132735   0.270   2.570  19.519
 6952SOL    HW232736   0.179   2.640  19.421
 6953SOL     OW32737   0.715   1.698  19.383
 6953SOL    HW132738   0.664   1.670  19.459
 6953SOL    HW232739   0.730   1.791  19.397
 6954SOL     OW32740   3.555   2.406  19.900
 6954SOL    HW132741   3.579   2.326  19.946
 6954SOL    HW232742   3.638   2.451  19.884
 6955SOL     OW32743   2.781   1.622   5.786
 6955SOL    HW132744   2.793   1.527   5.790
 6955SOL    HW232745   2.862   1.655   5.745
 6956SOL     OW32746   4.548   3.585   0.124
 6956SOL    HW132747   4.634   3.618   0.100
 6956SOL    HW232748   4.495   3.598   0.045
 6957SOL     OW32749   0.276   2.287  20.473
 6957SOL    HW132750   0.274   2.192  20.484
 6957SOL    HW232751   0.369   2.309  20.471
 6958SOL     OW32752   1.779   3.488   0.664
 6958SOL    HW132753   1.844   3.430   0.624
 6958SOL    HW232754   1.824   3.526   0.739
 6959SOL     OW32755   0.663   0.091   5.480
 6959SOL    HW132756   0.575   0.096   5.518
 6959SOL    HW232757   0.674   4.793   5.456
 6960SOL     OW32758   1.809   4.014  17.390
 6960SOL    HW132759   1.823   3.945  17.454
 6960SOL    HW232760   1.885   4.071  17.398
 6961SOL     OW32761   3.149   4.754  18.863
 6961SOL    HW132762   3.072   0.016  18.872
 6961SOL    HW232763   3.133   4.706  18.781
 6962SOL     OW32764   3.032   4.627   4.846
 6962SOL    HW132765   3.113   4.589   4.811
 6962SOL    HW232766   2.964   4.565   4.820
 6963SOL     OW32767   2.609   4.205   0.856
 6963SOL    HW132768   2.639   4.190   0.766
 6963SOL    HW232769   2.529   4.153   0.863
 6964SOL     OW32770   4.399   0.075  18.769
 6964SOL    HW132771   4.422   0.057  18.860
 6964SOL    HW232772   4.330   0.141  18.774
 6965SOL     OW32773   4.123   2.618  18.090
 6965SOL    HW132774   4.146   2.527  18.110
 6965SOL    HW232775   4.200   2.654  18.046
 6966SOL     OW32776   3.973   0.814  16.371
 6966SOL    HW132777   4.036   0.781  16.435
 6966SOL    HW232778   4.025   0.829  16.292
 6967SOL     OW32779   1.469   2.492   5.320
 6967SOL    HW132780   1.538   2.444   5.366
 6967SOL    HW232781   1.391   2.437   5.329
 6968SOL     OW32782   3.989   1.582  18.797
 6968SOL    HW132783   3.985   1.495  18.757
 6968SOL    HW232784   3.928   1.577  18.871
 6969SOL     OW32785   3.079   1.653  18.614
 6969SOL    HW132786   3.165   1.669  18.576
 6969SOL    HW232787   3.018   1.695  18.555
 6970SOL     OW32788   2.876   2.464  20.676
 6970SOL    HW132789   2.912   2.551  20.660
 6970SOL    HW232790   2.896   2.415  20.596
 6971SOL     OW32791   3.555   4.352   4.204
 6971SOL    HW132792   3.508   4.355   4.287
 6971SOL    HW232793   3.642   4.387   4.225
 6972SOL     OW32794   1.983   3.564   0.821
 6972SOL    HW132795   1.987   3.605   0.907
 6972SOL    HW232796   2.056   3.603   0.772
 6973SOL     OW32797   3.837   0.811  20.650
 6973SOL    HW132798   3.841   0.761  20.568
 6973SOL    HW232799   3.918   0.862  20.651
 6974SOL     OW32800   3.218   1.261   4.185
 6974SOL    HW132801   3.295   1.229   4.139
 6974SOL    HW232802   3.230   1.356   4.188
 6975SOL     OW32803   3.205   1.355  15.900
 6975SOL    HW132804   3.154   1.275  15.884
 6975SOL    HW232805   3.140   1.423  15.912
 6976SOL     OW32806   1.554   2.684   0.064
 6976SOL    HW132807   1.605   2.754   0.104
 6976SOL    HW232808   1.617   2.634   0.012
 6977SOL     OW32809   4.530   2.664   0.499
 6977SOL    HW132810   4.617   2.701   0.514
 6977SOL    HW232811   4.508   2.618   0.580
 6978SOL     OW32812   4.347   3.535   5.610
 6978SOL    HW132813   4.283   3.599   5.641
 6978SOL    HW232814   4.321   3.453   5.652
 6979SOL     OW32815   3.261   0.138   2.489
 6979SOL    HW132816   3.279   0.045   2.484
 6979SOL    HW232817   3.327   0.179   2.432
 6980SOL     OW32818   3.067   2.268  13.590
 6980SOL    HW132819   3.043   2.176  13.597
 6980SOL    HW232820   3.055   2.290  13.498
 6981SOL     OW32821   2.033   2.000   5.311
 6981SOL    HW132822   2.038   1.967   5.222
 6981SOL    HW232823   1.940   2.009   5.329
 6982SOL     OW32824   3.854   2.177   2.334
 6982SOL    HW132825   3.884   2.235   2.403
 6982SOL    HW232826   3.765   2.207   2.314
 6983SOL     OW32827   0.043   2.333   0.681
 6983SOL    HW132828   0.001   2.279   0.614
 6983SOL    HW232829   0.135   2.335   0.657
 6984SOL     OW32830   4.513   1.139  19.506
 6984SOL    HW132831   4.593   1.099  19.472
 6984SOL    HW232832   4.464   1.066  19.543
 6985SOL     OW32833   0.197   1.837   2.375
 6985SOL    HW132834   0.199   1.838   2.280
 6985SOL    HW232835   0.168   1.749   2.398
 6986SOL     OW32836   4.279   3.365   0.112
 6986SOL    HW132837   4.296   3.433   0.046
 6986SOL    HW232838   4.346   3.378   0.178
 6987SOL     OW32839   3.181   4.310   2.124
 6987SOL    HW132840   3.223   4.276   2.045
 6987SOL    HW232841   3.201   4.404   2.122
 6988SOL     OW32842   2.588   0.846   1.673
 6988SOL    HW132843   2.536   0.849   1.593
 6988SOL    HW232844   2.655   0.779   1.656
 6989SOL     OW32845   4.557   2.295   7.485
 6989SOL    HW132846   4.590   2.376   7.445
 6989SOL    HW232847   4.462   2.302   7.476
 6990SOL     OW32848   1.679   2.896  16.723
 6990SOL    HW132849   1.656   2.904  16.631
 6990SOL    HW232850   1.595   2.898  16.769
 6991SOL     OW32851   1.753   0.905   3.044
 6991SOL    HW132852   1.696   0.981   3.056
 6991SOL    HW232853   1.830   0.939   3.000
 6992SOL     OW32854   4.741   1.841   5.826
 6992SOL    HW132855   4.685   1.918   5.816
 6992SOL    HW232856   0.029   1.874   5.862
 6993SOL     OW32857   0.008   0.594   8.173
 6993SOL    HW132858   0.050   0.643   8.244
 6993SOL    HW232859   0.017   0.651   8.096
 6994SOL     OW32860   4.761   0.572   0.353
 6994SOL    HW132861   0.042   0.617   0.392
 6994SOL    HW232862   4.728   0.515   0.423
 6995SOL     OW32863   1.873   1.619   3.077
 6995SOL    HW132864   1.936   1.662   3.019
 6995SOL    HW232865   1.877   1.526   3.053
 6996SOL     OW32866   1.632   3.816  16.336
 6996SOL    HW132867   1.610   3.733  16.378
 6996SOL    HW232868   1.716   3.841  16.375
 6997SOL     OW32869   0.447   4.356  18.512
 6997SOL    HW132870   0.459   4.335  18.605
 6997SOL    HW232871   0.361   4.397  18.508
 6998SOL     OW32872   1.711   0.454  20.427
 6998SOL    HW132873   1.644   0.409  20.478
 6998SOL    HW232874   1.670   0.537  20.402
 6999SOL     OW32875   2.252   0.774  19.316
 6999SOL    HW132876   2.210   0.702  19.362
 6999SOL    HW232877   2.228   0.763  19.225
 7000SOL     OW32878   3.807   3.458   3.904
 7000SOL    HW132879   3.749   3.494   3.971
 7000SOL    HW232880   3.858   3.392   3.950
 7001SOL     OW32881   0.002   1.450  20.347
 7001SOL    HW132882   0.012   1.355  20.341
 7001SOL    HW232883   0.066   1.484  20.285
 7002SOL     OW32884   4.200   1.802  17.935
 7002SOL    HW132885   4.141   1.740  17.979
 7002SOL    HW232886   4.140   1.865  17.893
 7003SOL     OW32887   2.666   1.082   8.250
 7003SOL    HW132888   2.608   1.039   8.312
 7003SOL    HW232889   2.660   1.029   8.170
 7004SOL     OW32890   2.845   4.176  16.855
 7004SOL    HW132891   2.765   4.229  16.856
 7004SOL    HW232892   2.905   4.222  16.912
 7005SOL     OW32893   3.373   3.832   3.966
 7005SOL    HW132894   3.446   3.784   3.927
 7005SOL    HW232895   3.297   3.774   3.953
 7006SOL     OW32896   3.512   2.540  16.331
 7006SOL    HW132897   3.460   2.465  16.301
 7006SOL    HW232898   3.522   2.526  16.425
 7007SOL     OW32899   1.803   3.452  16.481
 7007SOL    HW132900   1.869   3.521  16.491
 7007SOL    HW232901   1.720   3.499  16.485
 7008SOL     OW32902   2.925   1.444   6.549
 7008SOL    HW132903   2.852   1.402   6.503
 7008SOL    HW232904   3.002   1.425   6.495
 7009SOL     OW32905   4.495   0.822  17.290
 7009SOL    HW132906   4.505   0.735  17.251
 7009SOL    HW232907   4.416   0.857  17.249
 7010SOL     OW32908   2.962   1.890   5.221
 7010SOL    HW132909   2.948   1.981   5.247
 7010SOL    HW232910   3.057   1.879   5.222
 7011SOL     OW32911   3.499   4.527   0.762
 7011SOL    HW132912   3.404   4.519   0.770
 7011SOL    HW232913   3.514   4.537   0.668
 7012SOL     OW32914   1.593   2.394  17.514
 7012SOL    HW132915   1.625   2.422  17.429
 7012SOL    HW232916   1.522   2.333  17.495
 7013SOL     OW32917   1.090   3.542  20.131
 7013SOL    HW132918   1.047   3.509  20.052
 7013SOL    HW232919   1.050   3.627  20.147
 7014SOL     OW32920   2.843   2.071  17.899
 7014SOL    HW132921   2.887   2.151  17.872
 7014SOL    HW232922   2.751   2.086  17.880
 7015SOL     OW32923   0.859   2.303  17.773
 7015SOL    HW132924   0.890   2.384  17.732
 7015SOL    HW232925   0.840   2.244  17.700
 7016SOL     OW32926   1.943   1.332   0.253
 7016SOL    HW132927   1.851   1.327   0.226
 7016SOL    HW232928   1.952   1.264   0.320
 7017SOL     OW32929   4.271   3.271  16.939
 7017SOL    HW132930   4.313   3.248  17.022
 7017SOL    HW232931   4.316   3.351  16.910
 7018SOL     OW32932   3.263   2.312   2.338
 7018SOL    HW132933   3.272   2.231   2.387
 7018SOL    HW232934   3.241   2.285   2.249
 7019SOL     OW32935   3.980   0.077  20.238
 7019SOL    HW132936   3.973   4.777  20.221
 7019SOL    HW232937   4.055   0.086  20.296
 7020SOL     OW32938   4.658   3.316  17.657
 7020SOL    HW132939   4.612   3.389  17.698
 7020SOL    HW232940   4.716   3.283  17.726
 7021SOL     OW32941   4.160   2.167  18.609
 7021SOL    HW132942   4.226   2.132  18.670
 7021SOL    HW232943   4.209   2.228  18.554
 7022SOL     OW32944   1.428   2.462  17.724
 7022SOL    HW132945   1.349   2.420  17.691
 7022SOL    HW232946   1.485   2.472  17.648
 7023SOL     OW32947   1.588   0.927   4.797
 7023SOL    HW132948   1.606   1.019   4.781
 7023SOL    HW232949   1.500   0.913   4.763
 7024SOL     OW32950   1.712   2.710   1.985
 7024SOL    HW132951   1.770   2.723   1.909
 7024SOL    HW232952   1.671   2.795   1.998
 7025SOL     OW32953   0.569   4.742  16.671
 7025SOL    HW132954   0.601   4.722  16.760
 7025SOL    HW232955   0.543   0.040  16.675
 7026SOL     OW32956   4.048   0.235   0.168
 7026SOL    HW132957   4.110   0.307   0.186
 7026SOL    HW232958   4.104   0.158   0.156
 7027SOL     OW32959   1.851   3.398   1.796
 7027SOL    HW132960   1.900   3.356   1.725
 7027SOL    HW232961   1.847   3.332   1.865
 7028SOL     OW32962   1.932   1.442  16.217
 7028SOL    HW132963   1.884   1.424  16.298
 7028SOL    HW232964   1.864   1.443  16.150
 7029SOL     OW32965   4.023   0.223  18.456
 7029SOL    HW132966   3.992   0.309  18.427
 7029SOL    HW232967   4.103   0.241  18.504
 7030SOL     OW32968   3.897   1.710   4.427
 7030SOL    HW132969   3.983   1.706   4.385
 7030SOL    HW232970   3.873   1.803   4.424
 7031SOL     OW32971   3.027   0.857  18.692
 7031SOL    HW132972   3.004   0.797  18.763
 7031SOL    HW232973   3.010   0.944  18.729
 7032SOL     OW32974   2.580   4.477   0.097
 7032SOL    HW132975   2.579   4.397   0.045
 7032SOL    HW232976   2.488   4.494   0.117
 7033SOL     OW32977   2.659   0.548  18.432
 7033SOL    HW132978   2.640   0.595  18.351
 7033SOL    HW232979   2.633   0.609  18.501
 7034SOL     OW32980   0.569   2.702  19.666
 7034SOL    HW132981   0.534   2.720  19.578
 7034SOL    HW232982   0.539   2.776  19.719
 7035SOL     OW32983   1.786   1.933   1.764
 7035SOL    HW132984   1.858   1.888   1.808
 7035SOL    HW232985   1.725   1.955   1.835
 7036SOL     OW32986   0.458   3.313   4.825
 7036SOL    HW132987   0.519   3.262   4.878
 7036SOL    HW232988   0.445   3.261   4.746
 7037SOL     OW32989   1.490   4.000   7.768
 7037SOL    HW132990   1.539   3.920   7.748
 7037SOL    HW232991   1.412   3.970   7.815
 7038SOL     OW32992   0.728   2.928  15.315
 7038SOL    HW132993   0.740   2.890  15.401
 7038SOL    HW232994   0.813   2.963  15.291
 7039SOL     OW32995   3.855   2.410   7.523
 7039SOL    HW132996   3.867   2.488   7.577
 7039SOL    HW232997   3.931   2.409   7.465
 7040SOL     OW32998   4.210   2.597   0.483
 7040SOL    HW132999   4.186   2.505   0.472
 7040SOL    HW233000   4.294   2.595   0.528
 7041SOL     OW33001   2.646   4.522  16.392
 7041SOL    HW133002   2.727   4.474  16.377
 7041SOL    HW233003   2.674   4.605  16.430
 7042SOL     OW33004   3.650   0.356   0.051
 7042SOL    HW133005   3.633   0.371   0.143
 7042SOL    HW233006   3.569   0.382   0.007
 7043SOL     OW33007   1.007   1.329  17.177
 7043SOL    HW133008   0.989   1.413  17.135
 7043SOL    HW233009   1.093   1.339  17.216
 7044SOL     OW33010   3.707   1.016  21.206
 7044SOL    HW133011   3.683   0.926  21.183
 7044SOL    HW233012   3.656   1.036   0.008
 7045SOL     OW33013   1.527   3.839   6.055
 7045SOL    HW133014   1.543   3.926   6.019
 7045SOL    HW233015   1.610   3.813   6.094
 7046SOL     OW33016   1.728   1.362  19.741
 7046SOL    HW133017   1.764   1.449  19.758
 7046SOL    HW233018   1.651   1.378  19.686
 7047SOL     OW33019   4.633   2.047  14.421
 7047SOL    HW133020   4.602   2.138  14.415
 7047SOL    HW233021   4.663   2.026  14.332
 7048SOL     OW33022   3.960   1.369  16.941
 7048SOL    HW133023   3.913   1.347  17.022
 7048SOL    HW233024   4.005   1.288  16.917
 7049SOL     OW33025   3.644   1.817   6.680
 7049SOL    HW133026   3.574   1.880   6.665
 7049SOL    HW233027   3.632   1.751   6.611
 7050SOL     OW33028   1.569   3.784  18.954
 7050SOL    HW133029   1.535   3.720  19.017
 7050SOL    HW233030   1.512   3.860  18.963
 7051SOL     OW33031   4.644   3.807  17.652
 7051SOL    HW133032   4.554   3.832  17.627
 7051SOL    HW233033   4.681   3.769  17.573
 7052SOL     OW33034   3.177   1.028   0.978
 7052SOL    HW133035   3.121   1.050   1.053
 7052SOL    HW233036   3.193   0.934   0.986
 7053SOL     OW33037   0.683   2.304   1.323
 7053SOL    HW133038   0.707   2.383   1.372
 7053SOL    HW233039   0.653   2.337   1.238
 7054SOL     OW33040   1.837   1.240  20.392
 7054SOL    HW133041   1.889   1.302  20.340
 7054SOL    HW233042   1.829   1.162  20.336
 7055SOL     OW33043   3.352   4.383   5.205
 7055SOL    HW133044   3.318   4.432   5.130
 7055SOL    HW233045   3.315   4.428   5.281
 7056SOL     OW33046   1.688   1.402   6.195
 7056SOL    HW133047   1.730   1.397   6.109
 7056SOL    HW233048   1.700   1.492   6.223
 7057SOL     OW33049   4.698   1.509   1.067
 7057SOL    HW133050   4.788   1.541   1.074
 7057SOL    HW233051   4.694   1.435   1.127
 7058SOL     OW33052   3.462   1.908  19.072
 7058SOL    HW133053   3.384   1.852  19.070
 7058SOL    HW233054   3.535   1.848  19.057
 7059SOL     OW33055   4.625   1.449  15.951
 7059SOL    HW133056   4.719   1.469  15.950
 7059SOL    HW233057   4.584   1.526  15.991
 7060SOL     OW33058   1.609   2.266  20.241
 7060SOL    HW133059   1.570   2.199  20.297
 7060SOL    HW233060   1.634   2.336  20.302
 7061SOL     OW33061   3.077   3.406   1.252
 7061SOL    HW133062   3.090   3.480   1.193
 7061SOL    HW233063   3.165   3.372   1.268
 7062SOL     OW33064   0.723   3.547  19.684
 7062SOL    HW133065   0.779   3.507  19.617
 7062SOL    HW233066   0.680   3.620  19.639
 7063SOL     OW33067   1.471   3.192  15.564
 7063SOL    HW133068   1.472   3.286  15.548
 7063SOL    HW233069   1.409   3.157  15.501
 7064SOL     OW33070   3.810   3.967  18.767
 7064SOL    HW133071   3.720   3.940  18.751
 7064SOL    HW233072   3.837   4.008  18.685
 7065SOL     OW33073   2.452   0.214   1.658
 7065SOL    HW133074   2.485   0.300   1.683
 7065SOL    HW233075   2.479   0.156   1.729
 7066SOL     OW33076   3.915   0.892   2.557
 7066SOL    HW133077   3.875   0.833   2.621
 7066SOL    HW233078   3.902   0.849   2.473
 7067SOL     OW33079   3.800   4.233  20.567
 7067SOL    HW133080   3.822   4.164  20.504
 7067SOL    HW233081   3.767   4.187  20.643
 7068SOL     OW33082   1.240   3.912  16.352
 7068SOL    HW133083   1.234   3.873  16.265
 7068SOL    HW233084   1.151   3.939  16.373
 7069SOL     OW33085   2.980   1.053  19.341
 7069SOL    HW133086   2.922   1.109  19.290
 7069SOL    HW233087   2.928   0.976  19.361
 7070SOL     OW33088   3.980   1.151   0.337
 7070SOL    HW133089   4.070   1.180   0.344
 7070SOL    HW233090   3.969   1.127   0.245
 7071SOL     OW33091   2.282   2.980  15.924
 7071SOL    HW133092   2.208   2.942  15.972
 7071SOL    HW233093   2.243   3.045  15.866
 7072SOL     OW33094   1.470   1.433  16.403
 7072SOL    HW133095   1.533   1.390  16.345
 7072SOL    HW233096   1.481   1.526  16.384
 7073SOL     OW33097   1.328   4.673   1.438
 7073SOL    HW133098   1.276   4.604   1.480
 7073SOL    HW233099   1.279   4.696   1.359
 7074SOL     OW33100   4.613   1.727   1.904
 7074SOL    HW133101   4.566   1.778   1.838
 7074SOL    HW233102   4.617   1.785   1.980
 7075SOL     OW33103   3.617   0.317   3.174
 7075SOL    HW133104   3.587   0.229   3.192
 7075SOL    HW233105   3.700   0.324   3.221
 7076SOL     OW33106   0.587   0.538   5.408
 7076SOL    HW133107   0.498   0.508   5.389
 7076SOL    HW233108   0.642   0.461   5.392
 7077SOL     OW33109   2.748   1.437   1.329
 7077SOL    HW133110   2.696   1.367   1.291
 7077SOL    HW233111   2.759   1.500   1.257
 7078SOL     OW33112   3.682   0.147  20.660
 7078SOL    HW133113   3.731   0.229  20.666
 7078SOL    HW233114   3.613   0.156  20.725
 7079SOL     OW33115   3.221   4.260   4.561
 7079SOL    HW133116   3.153   4.268   4.493
 7079SOL    HW233117   3.223   4.166   4.582
 7080SOL     OW33118   4.704   2.076   4.687
 7080SOL    HW133119   4.658   2.152   4.652
 7080SOL    HW233120   4.728   2.025   4.610
 7081SOL     OW33121   3.143   0.890  16.140
 7081SOL    HW133122   3.220   0.865  16.192
 7081SOL    HW233123   3.090   0.942  16.200
 7082SOL     OW33124   1.341   1.317  17.192
 7082SOL    HW133125   1.404   1.246  17.205
 7082SOL    HW233126   1.334   1.326  17.097
 7083SOL     OW33127   3.143   1.031  18.262
 7083SOL    HW133128   3.068   1.006  18.208
 7083SOL    HW233129   3.211   1.057  18.199
 7084SOL     OW33130   1.853   3.206   1.998
 7084SOL    HW133131   1.866   3.117   2.032
 7084SOL    HW233132   1.869   3.263   2.073
 7085SOL     OW33133   4.631   0.895   0.252
 7085SOL    HW133134   4.612   0.829   0.318
 7085SOL    HW233135   4.561   0.886   0.188
 7086SOL     OW33136   4.701   1.370  21.220
 7086SOL    HW133137   4.766   1.305  21.191
 7086SOL    HW233138   4.731   1.395   0.031
 7087SOL     OW33139   0.813   2.739   0.984
 7087SOL    HW133140   0.735   2.748   1.039
 7087SOL    HW233141   0.843   2.649   1.000
 7088SOL     OW33142   0.906   3.762   1.420
 7088SOL    HW133143   0.999   3.779   1.407
 7088SOL    HW233144   0.869   3.759   1.332
 7089SOL     OW33145   1.478   1.897  17.267
 7089SOL    HW133146   1.415   1.894  17.339
 7089SOL    HW233147   1.490   1.805  17.243
 7090SOL     OW33148   2.429   3.949   6.721
 7090SOL    HW133149   2.479   3.894   6.661
 7090SOL    HW233150   2.490   4.019   6.746
 7091SOL     OW33151   4.790   3.237  16.550
 7091SOL    HW133152   0.065   3.298  16.575
 7091SOL    HW233153   0.023   3.206  16.463
 7092SOL     OW33154   3.858   1.640   6.402
 7092SOL    HW133155   3.881   1.730   6.377
 7092SOL    HW233156   3.793   1.650   6.471
 7093SOL     OW33157   0.485   1.387   3.544
 7093SOL    HW133158   0.526   1.434   3.471
 7093SOL    HW233159   0.516   1.297   3.534
 7094SOL     OW33160   4.744   0.074  19.148
 7094SOL    HW133161   0.005   0.033  19.081
 7094SOL    HW233162   4.722   0.003  19.207
 7095SOL     OW33163   2.432   2.648  17.021
 7095SOL    HW133164   2.466   2.736  17.033
 7095SOL    HW233165   2.450   2.603  17.103
 7096SOL     OW33166   3.954   0.912  15.155
 7096SOL    HW133167   4.041   0.932  15.122
 7096SOL    HW233168   3.932   0.985  15.212
 7097SOL     OW33169   0.539   3.301  17.278
 7097SOL    HW133170   0.599   3.358  17.325
 7097SOL    HW233171   0.562   3.312  17.186
 7098SOL     OW33172   3.212   0.724  19.228
 7098SOL    HW133173   3.160   0.776  19.166
 7098SOL    HW233174   3.303   0.750  19.211
 7099SOL     OW33175   3.012   3.144   0.829
 7099SOL    HW133176   2.919   3.124   0.832
 7099SOL    HW233177   3.046   3.093   0.755
 7100SOL     OW33178   0.515   0.158   0.922
 7100SOL    HW133179   0.434   0.108   0.910
 7100SOL    HW233180   0.584   0.102   0.886
 7101SOL     OW33181   2.791   2.298  12.913
 7101SOL    HW133182   2.788   2.274  12.820
 7101SOL    HW233183   2.850   2.234  12.953
 7102SOL     OW33184   3.575   3.685   6.227
 7102SOL    HW133185   3.593   3.613   6.287
 7102SOL    HW233186   3.654   3.739   6.230
 7103SOL     OW33187   1.022   0.898  20.716
 7103SOL    HW133188   1.075   0.936  20.647
 7103SOL    HW233189   0.934   0.935  20.703
 7104SOL     OW33190   0.271   0.173  17.418
 7104SOL    HW133191   0.264   0.196  17.326
 7104SOL    HW233192   0.295   0.080  17.418
 7105SOL     OW33193   0.334   2.351   5.035
 7105SOL    HW133194   0.257   2.335   4.981
 7105SOL    HW233195   0.324   2.293   5.110
 7106SOL     OW33196   1.625   3.621  12.940
 7106SOL    HW133197   1.617   3.531  12.909
 7106SOL    HW233198   1.562   3.628  13.011
 7107SOL     OW33199   2.323   1.101   4.289
 7107SOL    HW133200   2.265   1.061   4.354
 7107SOL    HW233201   2.327   1.038   4.218
 7108SOL     OW33202   4.780   2.064   1.014
 7108SOL    HW133203   4.768   2.158   1.027
 7108SOL    HW233204   4.711   2.024   1.067
 7109SOL     OW33205   1.249   0.074   0.556
 7109SOL    HW133206   1.206   4.785   0.575
 7109SOL    HW233207   1.305   0.055   0.480
 7110SOL     OW33208   4.199   4.129  12.799
 7110SOL    HW133209   4.137   4.190  12.840
 7110SOL    HW233210   4.144   4.063  12.758
 7111SOL     OW33211   4.027   0.043  17.574
 7111SOL    HW133212   3.950   4.787  17.601
 7111SOL    HW233213   4.102   4.785  17.603
 7112SOL     OW33214   3.081   0.436  17.905
 7112SOL    HW133215   3.140   0.393  17.843
 7112SOL    HW233216   3.048   0.512  17.858
 7113SOL     OW33217   0.756   4.397  20.911
 7113SOL    HW133218   0.782   4.387  20.820
 7113SOL    HW233219   0.708   4.480  20.913
 7114SOL     OW33220   1.569   4.106   3.331
 7114SOL    HW133221   1.533   4.022   3.357
 7114SOL    HW233222   1.509   4.139   3.264
 7115SOL     OW33223   2.410   1.337   8.927
 7115SOL    HW133224   2.354   1.414   8.928
 7115SOL    HW233225   2.498   1.371   8.916
 7116SOL     OW33226   3.300   0.621   2.361
 7116SOL    HW133227   3.272   0.703   2.401
 7116SOL    HW233228   3.356   0.647   2.288
 7117SOL     OW33229   0.329   3.199   3.862
 7117SOL    HW133230   0.370   3.168   3.782
 7117SOL    HW233231   0.235   3.195   3.845
 7118SOL     OW33232   2.697   3.280  17.406
 7118SOL    HW133233   2.780   3.241  17.379
 7118SOL    HW233234   2.662   3.219  17.471
 7119SOL     OW33235   3.005   2.625   5.478
 7119SOL    HW133236   3.026   2.696   5.538
 7119SOL    HW233237   3.090   2.591   5.451
 7120SOL     OW33238   3.354   3.115  19.547
 7120SOL    HW133239   3.383   3.091  19.459
 7120SOL    HW233240   3.297   3.190  19.533
 7121SOL     OW33241   1.159   0.732  20.494
 7121SOL    HW133242   1.190   0.822  20.505
 7121SOL    HW233243   1.066   0.741  20.475
 7122SOL     OW33244   2.666   1.924   4.651
 7122SOL    HW133245   2.587   1.960   4.690
 7122SOL    HW233246   2.673   1.836   4.687
 7123SOL     OW33247   3.121   0.952  19.556
 7123SOL    HW133248   3.119   0.863  19.521
 7123SOL    HW233249   3.072   1.004  19.492
 7124SOL     OW33250   3.031   3.264   0.310
 7124SOL    HW133251   3.069   3.281   0.396
 7124SOL    HW233252   3.107   3.261   0.251
 7125SOL     OW33253   2.641   2.013  21.105
 7125SOL    HW133254   2.553   2.044  21.083
 7125SOL    HW233255   2.628   1.957  21.181
 7126SOL     OW33256   3.427   4.511   3.482
 7126SOL    HW133257   3.349   4.511   3.426
 7126SOL    HW233258   3.436   4.602   3.510
 7127SOL     OW33259   3.670   4.249   4.930
 7127SOL    HW133260   3.630   4.294   4.855
 7127SOL    HW233261   3.713   4.318   4.980
 7128SOL     OW33262   4.445   4.320  15.908
 7128SOL    HW133263   4.495   4.399  15.885
 7128SOL    HW233264   4.498   4.278  15.976
 7129SOL     OW33265   1.519   0.479   3.628
 7129SOL    HW133266   1.459   0.552   3.642
 7129SOL    HW233267   1.533   0.443   3.715
 7130SOL     OW33268   4.474   0.485   2.384
 7130SOL    HW133269   4.474   0.392   2.408
 7130SOL    HW233270   4.382   0.511   2.388
 7131SOL     OW33271   0.932   0.873   4.171
 7131SOL    HW133272   0.852   0.864   4.120
 7131SOL    HW233273   0.971   0.785   4.170
 7132SOL     OW33274   1.414   4.015  18.878
 7132SOL    HW133275   1.446   4.020  18.788
 7132SOL    HW233276   1.324   3.984  18.869
 7133SOL     OW33277   2.705   1.024   5.222
 7133SOL    HW133278   2.664   1.055   5.141
 7133SOL    HW233279   2.674   0.934   5.231
 7134SOL     OW33280   2.347   2.870  20.465
 7134SOL    HW133281   2.330   2.785  20.507
 7134SOL    HW233282   2.289   2.871  20.389
 7135SOL     OW33283   3.138   2.161   4.545
 7135SOL    HW133284   3.210   2.201   4.595
 7135SOL    HW233285   3.072   2.141   4.612
 7136SOL     OW33286   2.736   4.603  16.026
 7136SOL    HW133287   2.731   4.685  16.075
 7136SOL    HW233288   2.670   4.612  15.957
 7137SOL     OW33289   3.073   2.447   0.210
 7137SOL    HW133290   2.993   2.396   0.202
 7137SOL    HW233291   3.094   2.445   0.304
 7138SOL     OW33292   2.462   4.346  20.439
 7138SOL    HW133293   2.499   4.415  20.494
 7138SOL    HW233294   2.410   4.293  20.499
 7139SOL     OW33295   0.330   2.797   4.799
 7139SOL    HW133296   0.308   2.787   4.891
 7139SOL    HW233297   0.304   2.714   4.759
 7140SOL     OW33298   3.918   2.740  16.401
 7140SOL    HW133299   3.885   2.814  16.350
 7140SOL    HW233300   3.842   2.709  16.451
 7141SOL     OW33301   2.957   2.137   4.337
 7141SOL    HW133302   2.998   2.140   4.424
 7141SOL    HW233303   2.897   2.211   4.336
 7142SOL     OW33304   1.453   0.216   0.664
 7142SOL    HW133305   1.472   0.284   0.599
 7142SOL    HW233306   1.361   0.192   0.647
 7143SOL     OW33307   1.777   0.299   4.883
 7143SOL    HW133308   1.854   0.270   4.834
 7143SOL    HW233309   1.750   0.380   4.838
 7144SOL     OW33310   0.652   2.406   1.063
 7144SOL    HW133311   0.735   2.377   1.026
 7144SOL    HW233312   0.671   2.493   1.098
 7145SOL     OW33313   2.488   3.522   4.460
 7145SOL    HW133314   2.564   3.491   4.508
 7145SOL    HW233315   2.524   3.570   4.385
 7146SOL     OW33316   1.444   3.774  14.796
 7146SOL    HW133317   1.414   3.707  14.858
 7146SOL    HW233318   1.425   3.736  14.710
 7147SOL     OW33319   2.186   0.019  21.230
 7147SOL    HW133320   2.189   0.105  21.273
 7147SOL    HW233321   2.100   0.017  21.188
 7148SOL     OW33322   1.238   4.114   5.482
 7148SOL    HW133323   1.304   4.045   5.481
 7148SOL    HW233324   1.288   4.194   5.500
 7149SOL     OW33325   0.479   0.787  20.071
 7149SOL    HW133326   0.444   0.796  20.159
 7149SOL    HW233327   0.461   0.871  20.028
 7150SOL     OW33328   1.791   4.396  13.735
 7150SOL    HW133329   1.777   4.301  13.737
 7150SOL    HW233330   1.768   4.425  13.823
 7151SOL     OW33331   3.755   3.867  15.407
 7151SOL    HW133332   3.814   3.836  15.339
 7151SOL    HW233333   3.707   3.789  15.435
 7152SOL     OW33334   1.594   2.725  16.069
 7152SOL    HW133335   1.515   2.708  16.121
 7152SOL    HW233336   1.632   2.639  16.054
 7153SOL     OW33337   2.253   0.948   3.030
 7153SOL    HW133338   2.289   0.901   2.954
 7153SOL    HW233339   2.295   0.907   3.106
 7154SOL     OW33340   4.364   1.551  15.239
 7154SOL    HW133341   4.332   1.592  15.320
 7154SOL    HW233342   4.392   1.625  15.185
 7155SOL     OW33343   4.673   2.379  19.054
 7155SOL    HW133344   4.699   2.324  18.980
 7155SOL    HW233345   4.653   2.318  19.124
 7156SOL     OW33346   0.790   4.433   0.188
 7156SOL    HW133347   0.771   4.342   0.213
 7156SOL    HW233348   0.767   4.484   0.266
 7157SOL     OW33349   2.681   1.128   6.383
 7157SOL    HW133350   2.764   1.084   6.398
 7157SOL    HW233351   2.626   1.063   6.340
 7158SOL     OW33352   1.786   3.676  17.705
 7158SOL    HW133353   1.834   3.602  17.667
 7158SOL    HW233354   1.841   3.752  17.686
 7159SOL     OW33355   4.639   1.999  17.333
 7159SOL    HW133356   4.719   1.951  17.352
 7159SOL    HW233357   4.666   2.091  17.331
 7160SOL     OW33358   3.462   3.645  20.579
 7160SOL    HW133359   3.484   3.648  20.672
 7160SOL    HW233360   3.412   3.564  20.569
 7161SOL     OW33361   1.675   0.414  17.001
 7161SOL    HW133362   1.705   0.324  17.011
 7161SOL    HW233363   1.616   0.412  16.926
 7162SOL     OW33364   3.966   0.828   1.945
 7162SOL    HW133365   3.922   0.862   1.867
 7162SOL    HW233366   3.895   0.796   2.000
 7163SOL     OW33367   3.830   4.129  17.777
 7163SOL    HW133368   3.844   4.052  17.722
 7163SOL    HW233369   3.778   4.096  17.851
 7164SOL     OW33370   1.849   2.768   3.692
 7164SOL    HW133371   1.937   2.729   3.690
 7164SOL    HW233372   1.792   2.699   3.659
 7165SOL     OW33373   1.495   1.981   6.939
 7165SOL    HW133374   1.460   1.977   7.027
 7165SOL    HW233375   1.498   2.075   6.919
 7166SOL     OW33376   3.391   1.340   3.531
 7166SOL    HW133377   3.314   1.328   3.474
 7166SOL    HW233378   3.428   1.424   3.503
 7167SOL     OW33379   3.329   3.421   3.885
 7167SOL    HW133380   3.270   3.351   3.857
 7167SOL    HW233381   3.271   3.487   3.923
 7168SOL     OW33382   2.196   4.374  16.403
 7168SOL    HW133383   2.184   4.331  16.319
 7168SOL    HW233384   2.286   4.352  16.428
 7169SOL     OW33385   4.165   3.401  15.633
 7169SOL    HW133386   4.136   3.329  15.576
 7169SOL    HW233387   4.254   3.376  15.658
 7170SOL     OW33388   4.452   4.192   0.157
 7170SOL    HW133389   4.517   4.254   0.191
 7170SOL    HW233390   4.373   4.246   0.144
 7171SOL     OW33391   4.259   2.677  19.090
 7171SOL    HW133392   4.288   2.767  19.099
 7171SOL    HW233393   4.333   2.631  19.050
 7172SOL     OW33394   1.803   2.574   3.003
 7172SOL    HW133395   1.895   2.568   3.031
 7172SOL    HW233396   1.788   2.667   2.988
 7173SOL     OW33397   0.492   1.398   2.048
 7173SOL    HW133398   0.556   1.336   2.014
 7173SOL    HW233399   0.523   1.419   2.136
 7174SOL     OW33400   1.474   2.781   5.381
 7174SOL    HW133401   1.392   2.786   5.431
 7174SOL    HW233402   1.487   2.687   5.366
 7175SOL     OW33403   1.181   0.224   3.799
 7175SOL    HW133404   1.199   0.220   3.705
 7175SOL    HW233405   1.086   0.216   3.805
 7176SOL     OW33406   0.090   0.423   1.075
 7176SOL    HW133407   0.049   0.461   0.997
 7176SOL    HW233408   0.048   0.468   1.149
 7177SOL     OW33409   2.693   1.155   2.089
 7177SOL    HW133410   2.766   1.093   2.087
 7177SOL    HW233411   2.730   1.238   2.059
 7178SOL     OW33412   2.072   1.514  18.289
 7178SOL    HW133413   2.042   1.589  18.239
 7178SOL    HW233414   1.991   1.474  18.323
 7179SOL     OW33415   2.606   0.244  20.952
 7179SOL    HW133416   2.646   0.300  21.019
 7179SOL    HW233417   2.611   0.296  20.872
 7180SOL     OW33418   3.352   2.934   4.975
 7180SOL    HW133419   3.375   3.019   5.012
 7180SOL    HW233420   3.299   2.892   5.043
 7181SOL     OW33421   1.307   3.766  19.850
 7181SOL    HW133422   1.349   3.689  19.888
 7181SOL    HW233423   1.338   3.839  19.904
 7182SOL     OW33424   0.623   0.020  13.124
 7182SOL    HW133425   0.700   0.030  13.067
 7182SOL    HW233426   0.640   4.734  13.173
 7183SOL     OW33427   2.594   3.697  15.890
 7183SOL    HW133428   2.671   3.726  15.842
 7183SOL    HW233429   2.606   3.730  15.979
 7184SOL     OW33430   2.147   3.963  16.483
 7184SOL    HW133431   2.197   4.019  16.424
 7184SOL    HW233432   2.212   3.900  16.515
 7185SOL     OW33433   1.496   4.042  18.564
 7185SOL    HW133434   1.502   4.008  18.475
 7185SOL    HW233435   1.575   4.009  18.607
 7186SOL     OW33436   4.416   2.628  19.807
 7186SOL    HW133437   4.353   2.632  19.736
 7186SOL    HW233438   4.424   2.535  19.827
 7187SOL     OW33439   1.636   3.824  19.734
 7187SOL    HW133440   1.563   3.836  19.673
 7187SOL    HW233441   1.608   3.752  19.790
 7188SOL     OW33442   3.742   1.433   8.133
 7188SOL    HW133443   3.649   1.417   8.150
 7188SOL    HW233444   3.779   1.346   8.119
 7189SOL     OW33445   2.271   3.192  16.709
 7189SOL    HW133446   2.180   3.175  16.735
 7189SOL    HW233447   2.323   3.163  16.784
 7190SOL     OW33448   0.318   0.539   3.973
 7190SOL    HW133449   0.369   0.490   4.038
 7190SOL    HW233450   0.287   0.472   3.912
 7191SOL     OW33451   3.634   3.042  15.978
 7191SOL    HW133452   3.569   3.100  16.018
 7191SOL    HW233453   3.608   3.036  15.886
 7192SOL     OW33454   1.784   2.117   5.290
 7192SOL    HW133455   1.701   2.080   5.261
 7192SOL    HW233456   1.777   2.210   5.269
 7193SOL     OW33457   2.312   1.727   1.524
 7193SOL    HW133458   2.399   1.696   1.497
 7193SOL    HW233459   2.303   1.812   1.481
 7194SOL     OW33460   0.302   2.197   5.256
 7194SOL    HW133461   0.374   2.160   5.307
 7194SOL    HW233462   0.246   2.240   5.321
 7195SOL     OW33463   0.670   3.840   4.962
 7195SOL    HW133464   0.652   3.765   5.018
 7195SOL    HW233465   0.588   3.891   4.965
 7196SOL     OW33466   1.560   2.808   9.004
 7196SOL    HW133467   1.650   2.779   9.016
 7196SOL    HW233468   1.531   2.834   9.092
 7197SOL     OW33469   1.179   3.702   5.864
 7197SOL    HW133470   1.269   3.677   5.842
 7197SOL    HW233471   1.152   3.759   5.792
 7198SOL     OW33472   2.239   1.647   2.393
 7198SOL    HW133473   2.331   1.639   2.418
 7198SOL    HW233474   2.201   1.562   2.416
 7199SOL     OW33475   0.159   4.571   5.556
 7199SOL    HW133476   0.254   4.581   5.562
 7199SOL    HW233477   0.128   4.579   5.646
 7200SOL     OW33478   4.092   2.689  15.793
 7200SOL    HW133479   4.157   2.732  15.847
 7200SOL    HW233480   4.020   2.669  15.852
 7201SOL     OW33481   2.312   1.372  16.541
 7201SOL    HW133482   2.239   1.425  16.509
 7201SOL    HW233483   2.360   1.346  16.462
 7202SOL     OW33484   4.558   2.383   1.500
 7202SOL    HW133485   4.520   2.298   1.477
 7202SOL    HW233486   4.482   2.439   1.517
 7203SOL     OW33487   2.601   2.861   3.356
 7203SOL    HW133488   2.666   2.807   3.402
 7203SOL    HW233489   2.623   2.951   3.381
 7204SOL     OW33490   3.154   0.326  20.750
 7204SOL    HW133491   3.243   0.353  20.728
 7204SOL    HW233492   3.160   0.292  20.839
 7205SOL     OW33493   3.301   0.031  17.954
 7205SOL    HW133494   3.240   0.045  17.882
 7205SOL    HW233495   3.252   0.056  18.032
 7206SOL     OW33496   1.898   3.653   0.229
 7206SOL    HW133497   1.806   3.625   0.231
 7206SOL    HW233498   1.926   3.637   0.139
 7207SOL     OW33499   2.104   1.393   0.742
 7207SOL    HW133500   2.127   1.472   0.693
 7207SOL    HW233501   2.106   1.419   0.834
 7208SOL     OW33502   2.263   1.539   1.313
 7208SOL    HW133503   2.243   1.616   1.365
 7208SOL    HW233504   2.305   1.478   1.375
 7209SOL     OW33505   2.257   3.384  11.021
 7209SOL    HW133506   2.274   3.479  11.021
 7209SOL    HW233507   2.319   3.349  10.958
 7210SOL     OW33508   4.537   3.840  12.883
 7210SOL    HW133509   4.456   3.791  12.874
 7210SOL    HW233510   4.512   3.931  12.873
 7211SOL     OW33511   2.365   0.719  17.328
 7211SOL    HW133512   2.294   0.776  17.299
 7211SOL    HW233513   2.322   0.645  17.369
 7212SOL     OW33514   1.450   3.492   3.115
 7212SOL    HW133515   1.436   3.545   3.193
 7212SOL    HW233516   1.364   3.452   3.099
 7213SOL     OW33517   4.720   3.141  17.016
 7213SOL    HW133518   4.720   3.070  17.080
 7213SOL    HW233519   4.756   3.102  16.936
 7214SOL     OW33520   0.155   1.946  17.193
 7214SOL    HW133521   0.223   1.879  17.190
 7214SOL    HW233522   0.125   1.946  17.284
 7215SOL     OW33523   0.225   1.985   2.014
 7215SOL    HW133524   0.170   2.059   1.991
 7215SOL    HW233525   0.166   1.910   2.016
 7216SOL     OW33526   1.609   1.383  13.228
 7216SOL    HW133527   1.627   1.471  13.261
 7216SOL    HW233528   1.571   1.337  13.303
 7217SOL     OW33529   4.625   4.026   1.379
 7217SOL    HW133530   4.707   4.056   1.419
 7217SOL    HW233531   4.650   3.947   1.331
 7218SOL     OW33532   0.283   3.970   0.194
 7218SOL    HW133533   0.310   3.957   0.103
 7218SOL    HW233534   0.365   3.990   0.240
 7219SOL     OW33535   1.609   3.033   0.809
 7219SOL    HW133536   1.699   3.039   0.841
 7219SOL    HW233537   1.586   3.123   0.786
 7220SOL     OW33538   0.138   2.971   5.807
 7220SOL    HW133539   0.116   2.881   5.784
 7220SOL    HW233540   0.136   3.018   5.723
 7221SOL     OW33541   4.698   4.181   1.052
 7221SOL    HW133542   4.717   4.237   0.977
 7221SOL    HW233543   4.603   4.182   1.059
 7222SOL     OW33544   1.747   3.115  15.541
 7222SOL    HW133545   1.758   3.209  15.555
 7222SOL    HW233546   1.653   3.101  15.543
 7223SOL     OW33547   3.535   3.890   0.111
 7223SOL    HW133548   3.451   3.853   0.137
 7223SOL    HW233549   3.536   3.977   0.150
 7224SOL     OW33550   3.510   3.863   3.220
 7224SOL    HW133551   3.581   3.925   3.234
 7224SOL    HW233552   3.525   3.795   3.285
 7225SOL     OW33553   2.084   1.452  12.429
 7225SOL    HW133554   2.160   1.447  12.372
 7225SOL    HW233555   2.015   1.404  12.383
 7226SOL     OW33556   0.852   1.056   4.571
 7226SOL    HW133557   0.920   1.093   4.515
 7226SOL    HW233558   0.882   1.072   4.661
 7227SOL     OW33559   1.566   1.762  16.076
 7227SOL    HW133560   1.485   1.711  16.063
 7227SOL    HW233561   1.616   1.748  15.996
 7228SOL     OW33562   3.978   4.285  14.290
 7228SOL    HW133563   3.912   4.261  14.225
 7228SOL    HW233564   4.043   4.215  14.285
 7229SOL     OW33565   0.970   3.505  11.451
 7229SOL    HW133566   0.985   3.599  11.462
 7229SOL    HW233567   1.050   3.464  11.483
 7230SOL     OW33568   1.702   0.845   5.401
 7230SOL    HW133569   1.641   0.834   5.328
 7230SOL    HW233570   1.778   0.793   5.377
 7231SOL     OW33571   3.969   2.103   3.304
 7231SOL    HW133572   3.921   2.055   3.237
 7231SOL    HW233573   3.980   2.191   3.268
 7232SOL     OW33574   3.858   3.545   3.015
 7232SOL    HW133575   3.836   3.452   3.012
 7232SOL    HW233576   3.785   3.586   3.061
 7233SOL     OW33577   1.150   0.294  17.616
 7233SOL    HW133578   1.213   0.228  17.588
 7233SOL    HW233579   1.191   0.378  17.595
 7234SOL     OW33580   3.474   2.940   2.331
 7234SOL    HW133581   3.462   2.864   2.388
 7234SOL    HW233582   3.389   2.984   2.330
 7235SOL     OW33583   0.642   1.525  15.186
 7235SOL    HW133584   0.668   1.437  15.158
 7235SOL    HW233585   0.548   1.528  15.169
 7236SOL     OW33586   4.291   2.126  20.552
 7236SOL    HW133587   4.265   2.055  20.493
 7236SOL    HW233588   4.374   2.098  20.589
 7237SOL     OW33589   0.398   4.182  16.590
 7237SOL    HW133590   0.356   4.236  16.656
 7237SOL    HW233591   0.355   4.205  16.508
 7238SOL     OW33592   4.636   0.138  17.488
 7238SOL    HW133593   4.657   0.045  17.488
 7238SOL    HW233594   4.577   0.150  17.563
 7239SOL     OW33595   2.117   3.031  16.351
 7239SOL    HW133596   2.088   2.952  16.396
 7239SOL    HW233597   2.047   3.094  16.365
 7240SOL     OW33598   4.674   2.686   6.461
 7240SOL    HW133599   4.585   2.663   6.435
 7240SOL    HW233600   4.664   2.765   6.514
 7241SOL     OW33601   2.148   1.575  15.851
 7241SOL    HW133602   2.193   1.553  15.932
 7241SOL    HW233603   2.149   1.494  15.800
 7242SOL     OW33604   3.782   1.420   3.588
 7242SOL    HW133605   3.726   1.349   3.620
 7242SOL    HW233606   3.818   1.459   3.668
 7243SOL     OW33607   1.674   0.067   4.076
 7243SOL    HW133608   1.664   4.775   4.118
 7243SOL    HW233609   1.692   0.047   3.984
 7244SOL     OW33610   0.537   4.685  17.641
 7244SOL    HW133611   0.600   4.674  17.569
 7244SOL    HW233612   0.587   4.731  17.709
 7245SOL     OW33613   2.942   0.407   0.281
 7245SOL    HW133614   2.847   0.397   0.287
 7245SOL    HW233615   2.957   0.430   0.190
 7246SOL     OW33616   2.152   2.295   1.214
 7246SOL    HW133617   2.210   2.283   1.139
 7246SOL    HW233618   2.171   2.220   1.271
 7247SOL     OW33619   4.047   2.048  19.710
 7247SOL    HW133620   4.088   1.977  19.759
 7247SOL    HW233621   4.103   2.124  19.725
 7248SOL     OW33622   4.012   3.530  15.809
 7248SOL    HW133623   4.070   3.524  15.885
 7248SOL    HW233624   4.063   3.494  15.737
 7249SOL     OW33625   3.233   1.584  16.548
 7249SOL    HW133626   3.245   1.600  16.454
 7249SOL    HW233627   3.312   1.621  16.588
 7250SOL     OW33628   1.615   4.132  17.235
 7250SOL    HW133629   1.691   4.093  17.278
 7250SOL    HW233630   1.554   4.152  17.306
 7251SOL     OW33631   1.368   2.780   1.906
 7251SOL    HW133632   1.446   2.759   1.854
 7251SOL    HW233633   1.352   2.873   1.888
 7252SOL     OW33634   2.549   1.426   7.787
 7252SOL    HW133635   2.632   1.469   7.767
 7252SOL    HW233636   2.559   1.395   7.877
 7253SOL     OW33637   3.095   0.850  16.542
 7253SOL    HW133638   3.072   0.888  16.627
 7253SOL    HW233639   3.188   0.828  16.550
 7254SOL     OW33640   3.766   3.164   7.223
 7254SOL    HW133641   3.758   3.255   7.195
 7254SOL    HW233642   3.860   3.150   7.231
 7255SOL     OW33643   0.169   0.452   1.518
 7255SOL    HW133644   0.135   0.501   1.443
 7255SOL    HW233645   0.177   0.362   1.486
 7256SOL     OW33646   4.443   4.785  17.983
 7256SOL    HW133647   4.536   4.771  18.003
 7256SOL    HW233648   4.397   4.724  18.041
 7257SOL     OW33649   4.544   0.317   0.282
 7257SOL    HW133650   4.466   0.364   0.312
 7257SOL    HW233651   4.602   0.317   0.358
 7258SOL     OW33652   4.789   3.431  20.093
 7258SOL    HW133653   4.709   3.414  20.045
 7258SOL    HW233654   0.016   3.348  20.136
 7259SOL     OW33655   0.149   3.435  16.659
 7259SOL    HW133656   0.197   3.506  16.616
 7259SOL    HW233657   0.105   3.477  16.732
 7260SOL     OW33658   0.186   3.898   5.697
 7260SOL    HW133659   0.119   3.961   5.673
 7260SOL    HW233660   0.156   3.815   5.658
 7261SOL     OW33661   3.427   3.518  17.709
 7261SOL    HW133662   3.472   3.458  17.768
 7261SOL    HW233663   3.383   3.461  17.646
 7262SOL     OW33664   1.508   4.303  14.174
 7262SOL    HW133665   1.415   4.322  14.161
 7262SOL    HW233666   1.513   4.207  14.175
 7263SOL     OW33667   4.115   3.923   5.849
 7263SOL    HW133668   4.112   3.835   5.810
 7263SOL    HW233669   4.047   3.972   5.802
 7264SOL     OW33670   3.459   0.399   3.386
 7264SOL    HW133671   3.488   0.385   3.296
 7264SOL    HW233672   3.370   0.364   3.389
 7265SOL     OW33673   2.733   2.182   2.413
 7265SOL    HW133674   2.785   2.216   2.341
 7265SOL    HW233675   2.745   2.245   2.484
 7266SOL     OW33676   1.537   1.163   9.271
 7266SOL    HW133677   1.631   1.162   9.288
 7266SOL    HW233678   1.501   1.224   9.336
 7267SOL     OW33679   4.698   4.454  17.142
 7267SOL    HW133680   4.729   4.545  17.141
 7267SOL    HW233681   4.753   4.410  17.207
 7268SOL     OW33682   4.166   0.976   3.485
 7268SOL    HW133683   4.120   1.054   3.456
 7268SOL    HW233684   4.258   1.002   3.489
 7269SOL     OW33685   3.762   0.891  19.069
 7269SOL    HW133686   3.831   0.921  19.010
 7269SOL    HW233687   3.705   0.966  19.081
 7270SOL     OW33688   2.251   2.442  14.029
 7270SOL    HW133689   2.219   2.479  14.112
 7270SOL    HW233690   2.177   2.391  13.996
 7271SOL     OW33691   3.009   3.204   4.882
 7271SOL    HW133692   2.937   3.267   4.886
 7271SOL    HW233693   3.061   3.231   4.807
 7272SOL     OW33694   2.068   3.913  18.356
 7272SOL    HW133695   2.163   3.914  18.360
 7272SOL    HW233696   2.048   3.859  18.279
 7273SOL     OW33697   1.474   1.993   3.429
 7273SOL    HW133698   1.419   1.960   3.500
 7273SOL    HW233699   1.520   2.068   3.468
 7274SOL     OW33700   1.252   0.151  18.841
 7274SOL    HW133701   1.344   0.175  18.844
 7274SOL    HW233702   1.205   0.230  18.868
 7275SOL     OW33703   4.427   3.797  15.135
 7275SOL    HW133704   4.467   3.737  15.072
 7275SOL    HW233705   4.449   3.884  15.102
 7276SOL     OW33706   2.981   3.338  17.074
 7276SOL    HW133707   2.904   3.379  17.033
 7276SOL    HW233708   3.032   3.411  17.107
 7277SOL     OW33709   1.323   3.726  16.509
 7277SOL    HW133710   1.313   3.798  16.447
 7277SOL    HW233711   1.273   3.754  16.586
 7278SOL     OW33712   1.476   2.963  18.575
 7278SOL    HW133713   1.440   3.051  18.568
 7278SOL    HW233714   1.406   2.905  18.546
 7279SOL     OW33715   3.249   1.232  14.452
 7279SOL    HW133716   3.250   1.327  14.435
 7279SOL    HW233717   3.338   1.211  14.478
 7280SOL     OW33718   2.822   1.502   4.104
 7280SOL    HW133719   2.880   1.429   4.126
 7280SOL    HW233720   2.738   1.477   4.141
 7281SOL     OW33721   1.840   1.828  19.951
 7281SOL    HW133722   1.855   1.734  19.939
 7281SOL    HW233723   1.900   1.870  19.890
 7282SOL     OW33724   3.319   2.585   2.816
 7282SOL    HW133725   3.281   2.647   2.754
 7282SOL    HW233726   3.394   2.632   2.854
 7283SOL     OW33727   2.179   0.612   3.985
 7283SOL    HW133728   2.108   0.550   4.004
 7283SOL    HW233729   2.259   0.561   3.997
 7284SOL     OW33730   0.384   0.836   1.756
 7284SOL    HW133731   0.410   0.744   1.749
 7284SOL    HW233732   0.294   0.833   1.789
 7285SOL     OW33733   3.621   4.373  21.275
 7285SOL    HW133734   3.618   4.362  21.179
 7285SOL    HW233735   3.566   4.449   0.015
 7286SOL     OW33736   1.088   2.942  16.316
 7286SOL    HW133737   1.101   2.877  16.385
 7286SOL    HW233738   0.993   2.951  16.309
 7287SOL     OW33739   1.954   3.531  16.882
 7287SOL    HW133740   1.935   3.612  16.833
 7287SOL    HW233741   2.031   3.553  16.935
 7288SOL     OW33742   3.869   2.841   4.144
 7288SOL    HW133743   3.838   2.774   4.083
 7288SOL    HW233744   3.960   2.818   4.161
 7289SOL     OW33745   3.367   3.694   3.029
 7289SOL    HW133746   3.284   3.741   3.014
 7289SOL    HW233747   3.409   3.743   3.100
 7290SOL     OW33748   4.193   4.412  14.163
 7290SOL    HW133749   4.279   4.401  14.123
 7290SOL    HW233750   4.147   4.330  14.144
 7291SOL     OW33751   1.131   0.153   6.136
 7291SOL    HW133752   1.044   0.132   6.171
 7291SOL    HW233753   1.192   0.103   6.190
 7292SOL     OW33754   1.329   3.997  21.149
 7292SOL    HW133755   1.326   4.063  21.219
 7292SOL    HW233756   1.257   4.022  21.091
 7293SOL     OW33757   2.032   4.026  18.028
 7293SOL    HW133758   1.954   3.981  17.996
 7293SOL    HW233759   2.081   3.958  18.074
 7294SOL     OW33760   2.164   4.736   2.271
 7294SOL    HW133761   2.073   4.761   2.289
 7294SOL    HW233762   2.156   4.652   2.225
 7295SOL     OW33763   4.582   1.461  15.320
 7295SOL    HW133764   4.495   1.493  15.298
 7295SOL    HW233765   4.570   1.367  15.333
 7296SOL     OW33766   3.820   0.615  17.837
 7296SOL    HW133767   3.910   0.627  17.806
 7296SOL    HW233768   3.828   0.604  17.931
 7297SOL     OW33769   1.213   3.835  16.092
 7297SOL    HW133770   1.306   3.839  16.069
 7297SOL    HW233771   1.172   3.902  16.038
 7298SOL     OW33772   1.104   1.496   1.261
 7298SOL    HW133773   1.132   1.479   1.351
 7298SOL    HW233774   1.017   1.456   1.255
 7299SOL     OW33775   0.708   2.282   5.236
 7299SOL    HW133776   0.704   2.261   5.142
 7299SOL    HW233777   0.706   2.197   5.279
 7300SOL     OW33778   1.109   0.390  13.670
 7300SOL    HW133779   1.156   0.416  13.750
 7300SOL    HW233780   1.096   0.471  13.621
 7301SOL     OW33781   3.219   0.570   4.950
 7301SOL    HW133782   3.164   0.521   4.888
 7301SOL    HW233783   3.171   0.652   4.964
 7302SOL     OW33784   1.494   1.569  19.975
 7302SOL    HW133785   1.436   1.498  19.948
 7302SOL    HW233786   1.549   1.531  20.044
 7303SOL     OW33787   0.599   2.877  15.077
 7303SOL    HW133788   0.665   2.829  15.027
 7303SOL    HW233789   0.644   2.906  15.156
 7304SOL     OW33790   3.051   1.294  15.513
 7304SOL    HW133791   3.002   1.265  15.591
 7304SOL    HW233792   3.142   1.296  15.542
 7305SOL     OW33793   3.136   1.464   2.550
 7305SOL    HW133794   3.142   1.370   2.566
 7305SOL    HW233795   3.161   1.475   2.458
 7306SOL     OW33796   4.353   0.927  18.943
 7306SOL    HW133797   4.425   0.882  18.986
 7306SOL    HW233798   4.395   0.997  18.892
 7307SOL     OW33799   1.982   0.905  15.823
 7307SOL    HW133800   2.069   0.893  15.786
 7307SOL    HW233801   1.946   0.816  15.828
 7308SOL     OW33802   4.053   2.645   5.404
 7308SOL    HW133803   4.106   2.601   5.337
 7308SOL    HW233804   4.043   2.734   5.371
 7309SOL     OW33805   4.488   4.000  20.163
 7309SOL    HW133806   4.482   3.926  20.103
 7309SOL    HW233807   4.519   3.962  20.246
 7310SOL     OW33808   1.034   2.437  20.580
 7310SOL    HW133809   1.001   2.394  20.501
 7310SOL    HW233810   1.001   2.384  20.652
 7311SOL     OW33811   4.194   4.787  21.261
 7311SOL    HW133812   4.164   4.723   0.049
 7311SOL    HW233813   4.258   0.046   0.033
 7312SOL     OW33814   3.306   0.732   6.644
 7312SOL    HW133815   3.300   0.673   6.719
 7312SOL    HW233816   3.353   0.808   6.677
 7313SOL     OW33817   3.695   3.003  15.423
 7313SOL    HW133818   3.692   2.915  15.387
 7313SOL    HW233819   3.634   3.053  15.369
 7314SOL     OW33820   4.786   0.096   1.485
 7314SOL    HW133821   0.024   0.007   1.500
 7314SOL    HW233822   4.727   0.087   1.410
 7315SOL     OW33823   3.301   0.326  17.781
 7315SOL    HW133824   3.372   0.332  17.845
 7315SOL    HW233825   3.338   0.361  17.700
 7316SOL     OW33826   0.568   0.889  19.171
 7316SOL    HW133827   0.535   0.799  19.178
 7316SOL    HW233828   0.510   0.932  19.109
 7317SOL     OW33829   3.835   1.779  15.845
 7317SOL    HW133830   3.780   1.855  15.825
 7317SOL    HW233831   3.783   1.704  15.816
 7318SOL     OW33832   3.577   3.307   1.160
 7318SOL    HW133833   3.544   3.301   1.071
 7318SOL    HW233834   3.645   3.240   1.166
 7319SOL     OW33835   0.280   0.583  17.436
 7319SOL    HW133836   0.295   0.625  17.351
 7319SOL    HW233837   0.340   0.508  17.436
 7320SOL     OW33838   1.617   3.655   5.096
 7320SOL    HW133839   1.571   3.586   5.144
 7320SOL    HW233840   1.655   3.711   5.164
 7321SOL     OW33841   0.081   3.458   8.010
 7321SOL    HW133842   0.172   3.445   8.039
 7321SOL    HW233843   0.032   3.468   8.092
 7322SOL     OW33844   4.623   1.467  16.297
 7322SOL    HW133845   4.566   1.478  16.221
 7322SOL    HW233846   4.679   1.392  16.275
 7323SOL     OW33847   3.409   0.359  21.197
 7323SOL    HW133848   3.410   0.396  21.109
 7323SOL    HW233849   3.350   0.283  21.191
 7324SOL     OW33850   1.732   0.470   1.137
 7324SOL    HW133851   1.708   0.430   1.221
 7324SOL    HW233852   1.827   0.470   1.137
 7325SOL     OW33853   4.734   0.572   0.913
 7325SOL    HW133854   4.777   0.657   0.911
 7325SOL    HW233855   4.749   0.535   0.826
 7326SOL     OW33856   4.128   4.704   4.696
 7326SOL    HW133857   4.046   4.661   4.722
 7326SOL    HW233858   4.130   4.785   4.746
 7327SOL     OW33859   0.143   3.877  18.055
 7327SOL    HW133860   0.204   3.804  18.051
 7327SOL    HW233861   0.192   3.951  18.019
 7328SOL     OW33862   1.247   3.299  19.263
 7328SOL    HW133863   1.252   3.343  19.348
 7328SOL    HW233864   1.337   3.300  19.230
 7329SOL     OW33865   0.283   4.028  13.434
 7329SOL    HW133866   0.213   4.092  13.442
 7329SOL    HW233867   0.348   4.070  13.377
 7330SOL     OW33868   0.909   1.362   0.467
 7330SOL    HW133869   0.970   1.290   0.454
 7330SOL    HW233870   0.836   1.323   0.514
 7331SOL     OW33871   4.125   3.029  19.249
 7331SOL    HW133872   4.047   2.974  19.241
 7331SOL    HW233873   4.191   2.972  19.289
 7332SOL     OW33874   0.537   0.328   3.511
 7332SOL    HW133875   0.581   0.327   3.596
 7332SOL    HW233876   0.605   0.301   3.448
 7333SOL     OW33877   4.778   3.399  16.211
 7333SOL    HW133878   4.761   3.327  16.150
 7333SOL    HW233879   4.697   3.450  16.210
 7334SOL     OW33880   4.217   0.964  17.645
 7334SOL    HW133881   4.177   1.016  17.715
 7334SOL    HW233882   4.285   0.914  17.689
 7335SOL     OW33883   0.985   1.375   1.508
 7335SOL    HW133884   1.010   1.288   1.479
 7335SOL    HW233885   0.993   1.372   1.604
 7336SOL     OW33886   2.830   4.065   5.146
 7336SOL    HW133887   2.864   4.153   5.129
 7336SOL    HW233888   2.849   4.017   5.066
 7337SOL     OW33889   2.100   3.628  20.501
 7337SOL    HW133890   2.094   3.717  20.537
 7337SOL    HW233891   2.032   3.580  20.547
 7338SOL     OW33892   4.057   3.349  17.592
 7338SOL    HW133893   4.068   3.414  17.662
 7338SOL    HW233894   4.144   3.342  17.553
 7339SOL     OW33895   1.491   3.877  16.745
 7339SOL    HW133896   1.404   3.839  16.753
 7339SOL    HW233897   1.550   3.810  16.781
 7340SOL     OW33898   1.476   1.281  20.041
 7340SOL    HW133899   1.467   1.189  20.064
 7340SOL    HW233900   1.462   1.284  19.947
 7341SOL     OW33901   1.117   3.056   3.189
 7341SOL    HW133902   1.068   3.120   3.241
 7341SOL    HW233903   1.078   3.062   3.102
 7342SOL     OW33904   4.676   2.050  19.168
 7342SOL    HW133905   4.708   2.018  19.084
 7342SOL    HW233906   4.635   1.974  19.209
 7343SOL     OW33907   3.548   0.033   3.347
 7343SOL    HW133908   3.606   4.790   3.280
 7343SOL    HW233909   3.467   0.052   3.300
 7344SOL     OW33910   1.416   3.112  13.818
 7344SOL    HW133911   1.505   3.109  13.782
 7344SOL    HW233912   1.405   3.202  13.848
 7345SOL     OW33913   4.022   1.364  16.001
 7345SOL    HW133914   4.082   1.439  15.995
 7345SOL    HW233915   3.939   1.402  16.028
 7346SOL     OW33916   2.085   4.743   5.711
 7346SOL    HW133917   2.020   0.019   5.705
 7346SOL    HW233918   2.052   4.685   5.779
 7347SOL     OW33919   0.108   1.808   7.638
 7347SOL    HW133920   0.195   1.838   7.612
 7347SOL    HW233921   0.123   1.725   7.682
 7348SOL     OW33922   3.758   0.025  18.526
 7348SOL    HW133923   3.805   0.039  18.608
 7348SOL    HW233924   3.785   0.099  18.471
 7349SOL     OW33925   0.734   3.875   6.840
 7349SOL    HW133926   0.762   3.961   6.871
 7349SOL    HW233927   0.677   3.842   6.910
 7350SOL     OW33928   4.268   4.639  14.604
 7350SOL    HW133929   4.175   4.640  14.627
 7350SOL    HW233930   4.269   4.641  14.508
 7351SOL     OW33931   0.943   3.781  15.297
 7351SOL    HW133932   0.899   3.713  15.247
 7351SOL    HW233933   1.015   3.810  15.241
 7352SOL     OW33934   4.282   0.038  21.013
 7352SOL    HW133935   4.201   0.079  20.982
 7352SOL    HW233936   4.259   4.793  21.097
 7353SOL     OW33937   1.162   0.960  17.571
 7353SOL    HW133938   1.200   0.918  17.494
 7353SOL    HW233939   1.226   0.945  17.641
 7354SOL     OW33940   0.765   2.814   1.475
 7354SOL    HW133941   0.725   2.798   1.561
 7354SOL    HW233942   0.858   2.820   1.493
 7355SOL     OW33943   1.678   0.095   6.811
 7355SOL    HW133944   1.603   0.079   6.868
 7355SOL    HW233945   1.640   0.136   6.733
 7356SOL     OW33946   0.577   0.134  20.201
 7356SOL    HW133947   0.659   0.120  20.154
 7356SOL    HW233948   0.595   0.207  20.260
 7357SOL     OW33949   0.413   1.502  14.902
 7357SOL    HW133950   0.405   1.420  14.951
 7357SOL    HW233951   0.332   1.549  14.922
 7358SOL     OW33952   1.765   3.937   1.546
 7358SOL    HW133953   1.682   3.894   1.522
 7358SOL    HW233954   1.800   3.883   1.616
 7359SOL     OW33955   0.792   1.162  18.654
 7359SOL    HW133956   0.829   1.162  18.565
 7359SOL    HW233957   0.699   1.143  18.641
 7360SOL     OW33958   0.062   2.654   6.247
 7360SOL    HW133959   0.008   2.675   6.323
 7360SOL    HW233960   0.000   2.618   6.183
 7361SOL     OW33961   3.574   2.849   0.788
 7361SOL    HW133962   3.594   2.802   0.870
 7361SOL    HW233963   3.634   2.811   0.724
 7362SOL     OW33964   1.944   0.152   6.868
 7362SOL    HW133965   1.849   0.143   6.871
 7362SOL    HW233966   1.962   0.187   6.781
 7363SOL     OW33967   1.004   1.535   0.796
 7363SOL    HW133968   1.015   1.551   0.702
 7363SOL    HW233969   0.983   1.621   0.832
 7364SOL     OW33970   4.718   1.543   7.804
 7364SOL    HW133971   0.016   1.560   7.781
 7364SOL    HW233972   4.668   1.598   7.744
 7365SOL     OW33973   3.240   3.794  20.465
 7365SOL    HW133974   3.282   3.871  20.427
 7365SOL    HW233975   3.307   3.756  20.522
 7366SOL     OW33976   4.146   0.225  19.339
 7366SOL    HW133977   4.068   0.175  19.315
 7366SOL    HW233978   4.111   0.304  19.381
 7367SOL     OW33979   2.168   0.711  19.081
 7367SOL    HW133980   2.184   0.707  18.987
 7367SOL    HW233981   2.124   0.795  19.094
 7368SOL     OW33982   0.447   3.169   8.723
 7368SOL    HW133983   0.434   3.109   8.650
 7368SOL    HW233984   0.415   3.254   8.690
 7369SOL     OW33985   4.547   4.361  19.956
 7369SOL    HW133986   4.481   4.340  20.022
 7369SOL    HW233987   4.546   4.285  19.896
 7370SOL     OW33988   1.956   1.883  15.996
 7370SOL    HW133989   1.867   1.884  15.960
 7370SOL    HW233990   2.012   1.859  15.923
 7371SOL     OW33991   2.492   2.783   2.587
 7371SOL    HW133992   2.565   2.827   2.631
 7371SOL    HW233993   2.441   2.853   2.547
 7372SOL     OW33994   2.393   1.086  15.756
 7372SOL    HW133995   2.344   1.153  15.803
 7372SOL    HW233996   2.483   1.120  15.752
 7373SOL     OW33997   2.624   2.509  16.472
 7373SOL    HW133998   2.590   2.539  16.388
 7373SOL    HW233999   2.717   2.532  16.469
 7374SOL     OW34000   4.045   3.653   5.474
 7374SOL    HW134001   4.084   3.647   5.561
 7374SOL    HW234002   3.957   3.689   5.489
 7375SOL     OW34003   3.395   2.646   5.082
 7375SOL    HW134004   3.441   2.681   5.005
 7375SOL    HW234005   3.315   2.607   5.046
 7376SOL     OW34006   3.485   1.376   5.084
 7376SOL    HW134007   3.456   1.305   5.028
 7376SOL    HW234008   3.558   1.416   5.037
 7377SOL     OW34009   4.539   2.448  17.309
 7377SOL    HW134010   4.463   2.399  17.276
 7377SOL    HW234011   4.594   2.463  17.231
 7378SOL     OW34012   1.322   3.639   6.195
 7378SOL    HW134013   1.280   3.707   6.247
 7378SOL    HW234014   1.323   3.673   6.106
 7379SOL     OW34015   0.452   4.013   0.866
 7379SOL    HW134016   0.364   4.050   0.876
 7379SOL    HW234017   0.438   3.918   0.862
 7380SOL     OW34018   3.913   1.658   4.933
 7380SOL    HW134019   3.994   1.680   4.979
 7380SOL    HW234020   3.926   1.693   4.845
 7381SOL     OW34021   1.502   3.991  18.299
 7381SOL    HW134022   1.442   3.984  18.224
 7381SOL    HW234023   1.585   3.955  18.266
 7382SOL     OW34024   1.232   1.551  16.488
 7382SOL    HW134025   1.147   1.527  16.525
 7382SOL    HW234026   1.287   1.474  16.502
 7383SOL     OW34027   4.077   0.520   1.098
 7383SOL    HW134028   4.038   0.562   1.021
 7383SOL    HW234029   4.158   0.569   1.114
 7384SOL     OW34030   4.380   0.162  14.591
 7384SOL    HW134031   4.346   0.078  14.622
 7384SOL    HW234032   4.434   0.195  14.664
 7385SOL     OW34033   0.728   2.896   3.289
 7385SOL    HW134034   0.742   2.849   3.207
 7385SOL    HW234035   0.687   2.978   3.263
 7386SOL     OW34036   0.437   2.866  19.425
 7386SOL    HW134037   0.394   2.781  19.411
 7386SOL    HW234038   0.525   2.853  19.390
 7387SOL     OW34039   1.360   2.926  19.143
 7387SOL    HW134040   1.290   2.971  19.095
 7387SOL    HW234041   1.317   2.889  19.220
 7388SOL     OW34042   1.422   1.591  17.873
 7388SOL    HW134043   1.411   1.583  17.779
 7388SOL    HW234044   1.475   1.670  17.884
 7389SOL     OW34045   3.377   4.759  15.952
 7389SOL    HW134046   3.351   0.047  15.994
 7389SOL    HW234047   3.459   4.780  15.907
 7390SOL     OW34048   3.486   4.459  18.428
 7390SOL    HW134049   3.524   4.434  18.513
 7390SOL    HW234050   3.552   4.516  18.389
 7391SOL     OW34051   2.810   4.505   4.776
 7391SOL    HW134052   2.741   4.514   4.711
 7391SOL    HW234053   2.765   4.520   4.860
 7392SOL     OW34054   1.863   4.587   6.757
 7392SOL    HW134055   1.892   4.545   6.838
 7392SOL    HW234056   1.906   4.672   6.757
 7393SOL     OW34057   4.720   0.482  16.495
 7393SOL    HW134058   4.749   0.559  16.447
 7393SOL    HW234059   4.665   0.516  16.565
 7394SOL     OW34060   4.467   1.260   5.007
 7394SOL    HW134061   4.426   1.332   4.959
 7394SOL    HW234062   4.560   1.266   4.985
 7395SOL     OW34063   1.185   1.117   2.236
 7395SOL    HW134064   1.188   1.166   2.318
 7395SOL    HW234065   1.191   1.025   2.262
 7396SOL     OW34066   0.330   0.315   4.666
 7396SOL    HW134067   0.389   0.267   4.724
 7396SOL    HW234068   0.251   0.261   4.664
 7397SOL     OW34069   2.511   2.592  11.446
 7397SOL    HW134070   2.517   2.686  11.462
 7397SOL    HW234071   2.591   2.555  11.485
 7398SOL     OW34072   0.355   1.310  18.225
 7398SOL    HW134073   0.263   1.309  18.198
 7398SOL    HW234074   0.404   1.310  18.142
 7399SOL     OW34075   2.009   0.316   6.000
 7399SOL    HW134076   2.015   0.220   5.995
 7399SOL    HW234077   2.091   0.343   6.042
 7400SOL     OW34078   2.225   0.387  18.747
 7400SOL    HW134079   2.282   0.343  18.810
 7400SOL    HW234080   2.279   0.395  18.668
 7401SOL     OW34081   4.001   3.529   4.288
 7401SOL    HW134082   3.907   3.545   4.284
 7401SOL    HW234083   4.016   3.497   4.377
 7402SOL     OW34084   4.321   1.177   9.055
 7402SOL    HW134085   4.313   1.087   9.024
 7402SOL    HW234086   4.346   1.227   8.977
 7403SOL     OW34087   3.271   1.225  16.877
 7403SOL    HW134088   3.277   1.198  16.968
 7403SOL    HW234089   3.283   1.145  16.827
 7404SOL     OW34090   4.373   2.297  18.476
 7404SOL    HW134091   4.390   2.216  18.428
 7404SOL    HW234092   4.425   2.363  18.430
 7405SOL     OW34093   3.928   2.483   4.026
 7405SOL    HW134094   3.847   2.529   4.002
 7405SOL    HW234095   3.921   2.471   4.121
 7406SOL     OW34096   4.272   1.485  18.993
 7406SOL    HW134097   4.227   1.420  19.047
 7406SOL    HW234098   4.260   1.455  18.903
 7407SOL     OW34099   2.701   3.295  18.103
 7407SOL    HW134100   2.758   3.342  18.164
 7407SOL    HW234101   2.615   3.298  18.143
 7408SOL     OW34102   2.747   2.734   8.162
 7408SOL    HW134103   2.777   2.649   8.194
 7408SOL    HW234104   2.691   2.713   8.087
 7409SOL     OW34105   3.099   3.266   4.619
 7409SOL    HW134106   3.021   3.260   4.563
 7409SOL    HW234107   3.148   3.186   4.599
 7410SOL     OW34108   2.716   0.391  19.964
 7410SOL    HW134109   2.731   0.297  19.971
 7410SOL    HW234110   2.634   0.398  19.916
 7411SOL     OW34111   2.374   4.051   0.856
 7411SOL    HW134112   2.361   4.037   0.762
 7411SOL    HW234113   2.297   4.012   0.897
 7412SOL     OW34114   0.437   3.385  15.423
 7412SOL    HW134115   0.434   3.299  15.381
 7412SOL    HW234116   0.520   3.423  15.395
 7413SOL     OW34117   4.678   4.253   3.139
 7413SOL    HW134118   4.678   4.349   3.135
 7413SOL    HW234119   4.591   4.228   3.109
 7414SOL     OW34120   2.604   0.405   4.013
 7414SOL    HW134121   2.660   0.330   3.994
 7414SOL    HW234122   2.519   0.366   4.033
 7415SOL     OW34123   4.106   1.762  13.964
 7415SOL    HW134124   4.040   1.743  13.898
 7415SOL    HW234125   4.115   1.857  13.963
 7416SOL     OW34126   3.318   0.758   0.695
 7416SOL    HW134127   3.329   0.772   0.601
 7416SOL    HW234128   3.290   0.843   0.729
 7417SOL     OW34129   2.905   3.101  21.233
 7417SOL    HW134130   2.855   3.020  21.220
 7417SOL    HW234131   2.993   3.071  21.256
 7418SOL     OW34132   3.772   3.582  19.437
 7418SOL    HW134133   3.790   3.615  19.525
 7418SOL    HW234134   3.701   3.637  19.404
 7419SOL     OW34135   4.286   4.342  17.308
 7419SOL    HW134136   4.248   4.312  17.225
 7419SOL    HW234137   4.227   4.308  17.375
 7420SOL     OW34138   4.368   1.430   6.821
 7420SOL    HW134139   4.442   1.490   6.821
 7420SOL    HW234140   4.388   1.367   6.751
 7421SOL     OW34141   3.016   4.377  20.567
 7421SOL    HW134142   3.054   4.414  20.488
 7421SOL    HW234143   2.922   4.369  20.548
 7422SOL     OW34144   0.025   0.369  12.462
 7422SOL    HW134145   0.028   0.438  12.527
 7422SOL    HW234146   0.035   0.288  12.512
 7423SOL     OW34147   0.587   2.828  15.998
 7423SOL    HW134148   0.605   2.828  16.092
 7423SOL    HW234149   0.571   2.736  15.977
 7424SOL     OW34150   4.338   3.695   1.816
 7424SOL    HW134151   4.321   3.615   1.867
 7424SOL    HW234152   4.318   3.766   1.877
 7425SOL     OW34153   2.398   2.816   1.350
 7425SOL    HW134154   2.352   2.795   1.269
 7425SOL    HW234155   2.349   2.770   1.418
 7426SOL     OW34156   1.283   1.012  16.655
 7426SOL    HW134157   1.337   0.944  16.614
 7426SOL    HW234158   1.327   1.032  16.737
 7427SOL     OW34159   0.122   4.246   4.596
 7427SOL    HW134160   0.182   4.320   4.600
 7427SOL    HW234161   0.079   4.244   4.681
 7428SOL     OW34162   0.923   2.053  16.643
 7428SOL    HW134163   0.907   2.121  16.710
 7428SOL    HW234164   0.892   2.093  16.562
 7429SOL     OW34165   2.429   0.602   2.255
 7429SOL    HW134166   2.479   0.598   2.336
 7429SOL    HW234167   2.485   0.652   2.195
 7430SOL     OW34168   0.664   4.216   0.726
 7430SOL    HW134169   0.581   4.182   0.759
 7430SOL    HW234170   0.666   4.191   0.634
 7431SOL     OW34171   4.347   1.499  19.904
 7431SOL    HW134172   4.254   1.500  19.882
 7431SOL    HW234173   4.357   1.421  19.960
 7432SOL     OW34174   4.171   4.437   5.378
 7432SOL    HW134175   4.185   4.426   5.284
 7432SOL    HW234176   4.207   4.524   5.398
 7433SOL     OW34177   3.139   4.650  17.328
 7433SOL    HW134178   3.179   4.732  17.359
 7433SOL    HW234179   3.104   4.609  17.406
 7434SOL     OW34180   0.006   0.767  15.316
 7434SOL    HW134181   4.708   0.771  15.340
 7434SOL    HW234182   0.048   0.834  15.371
 7435SOL     OW34183   2.399   3.417   8.730
 7435SOL    HW134184   2.443   3.488   8.778
 7435SOL    HW234185   2.468   3.374   8.680
 7436SOL     OW34186   3.330   2.885  20.186
 7436SOL    HW134187   3.374   2.817  20.237
 7436SOL    HW234188   3.238   2.879  20.212
 7437SOL     OW34189   1.823   2.535   6.031
 7437SOL    HW134190   1.912   2.500   6.042
 7437SOL    HW234191   1.818   2.559   5.938
 7438SOL     OW34192   3.073   0.201  19.959
 7438SOL    HW134193   2.983   0.183  19.933
 7438SOL    HW234194   3.069   0.206  20.055
 7439SOL     OW34195   0.969   2.879  18.109
 7439SOL    HW134196   0.986   2.910  18.199
 7439SOL    HW234197   1.012   2.794  18.104
 7440SOL     OW34198   0.195   3.230  19.385
 7440SOL    HW134199   0.166   3.276  19.464
 7440SOL    HW234200   0.279   3.270  19.363
 7441SOL     OW34201   1.451   3.653   4.070
 7441SOL    HW134202   1.381   3.691   4.017
 7441SOL    HW234203   1.521   3.719   4.068
 7442SOL     OW34204   1.042   3.719   0.670
 7442SOL    HW134205   1.048   3.708   0.575
 7442SOL    HW234206   0.969   3.780   0.683
 7443SOL     OW34207   3.635   0.964   4.215
 7443SOL    HW134208   3.595   0.979   4.129
 7443SOL    HW234209   3.561   0.967   4.276
 7444SOL     OW34210   1.100   2.816  17.452
 7444SOL    HW134211   1.010   2.781  17.451
 7444SOL    HW234212   1.155   2.739  17.460
 7445SOL     OW34213   1.286   3.209   1.582
 7445SOL    HW134214   1.358   3.182   1.525
 7445SOL    HW234215   1.213   3.152   1.558
 7446SOL     OW34216   3.437   2.778   2.983
 7446SOL    HW134217   3.357   2.831   2.980
 7446SOL    HW234218   3.501   2.831   2.935
 7447SOL     OW34219   0.395   0.140  15.554
 7447SOL    HW134220   0.451   0.128  15.477
 7447SOL    HW234221   0.314   0.096  15.532
 7448SOL     OW34222   3.131   2.311   3.530
 7448SOL    HW134223   3.196   2.378   3.553
 7448SOL    HW234224   3.060   2.359   3.488
 7449SOL     OW34225   1.191   3.773   2.252
 7449SOL    HW134226   1.211   3.680   2.244
 7449SOL    HW234227   1.270   3.818   2.220
 7450SOL     OW34228   3.254   2.539   3.252
 7450SOL    HW134229   3.190   2.489   3.302
 7450SOL    HW234230   3.209   2.563   3.171
 7451SOL     OW34231   2.096   0.825   5.125
 7451SOL    HW134232   2.053   0.775   5.194
 7451SOL    HW234233   2.110   0.912   5.163
 7452SOL     OW34234   1.158   4.111  19.598
 7452SOL    HW134235   1.131   4.202  19.593
 7452SOL    HW234236   1.091   4.069  19.652
 7453SOL     OW34237   1.360   2.574   3.517
 7453SOL    HW134238   1.325   2.635   3.452
 7453SOL    HW234239   1.389   2.498   3.466
 7454SOL     OW34240   0.151   3.054  17.545
 7454SOL    HW134241   0.227   3.109  17.567
 7454SOL    HW234242   0.137   3.070  17.452
 7455SOL     OW34243   3.243   0.753  17.723
 7455SOL    HW134244   3.252   0.799  17.640
 7455SOL    HW234245   3.287   0.809  17.786
 7456SOL     OW34246   2.121   4.086  16.014
 7456SOL    HW134247   2.034   4.059  16.042
 7456SOL    HW234248   2.118   4.084  15.918
 7457SOL     OW34249   3.150   3.409  17.964
 7457SOL    HW134250   3.241   3.424  17.988
 7457SOL    HW234251   3.114   3.359  18.037
 7458SOL     OW34252   4.592   2.078  18.488
 7458SOL    HW134253   4.643   2.112  18.414
 7458SOL    HW234254   4.653   2.021  18.535
 7459SOL     OW34255   0.219   3.596  19.248
 7459SOL    HW134256   0.130   3.561  19.251
 7459SOL    HW234257   0.229   3.627  19.158
 7460SOL     OW34258   4.644   0.072   1.259
 7460SOL    HW134259   4.675   0.023   1.183
 7460SOL    HW234260   4.603   0.150   1.221
 7461SOL     OW34261   4.603   1.338  15.620
 7461SOL    HW134262   4.511   1.362  15.612
 7461SOL    HW234263   4.643   1.412  15.666
 7462SOL     OW34264   4.084   3.059  19.524
 7462SOL    HW134265   4.055   3.047  19.433
 7462SOL    HW234266   4.171   3.020  19.526
 7463SOL     OW34267   3.306   3.137  20.493
 7463SOL    HW134268   3.338   3.061  20.542
 7463SOL    HW234269   3.220   3.110  20.460
 7464SOL     OW34270   1.822   0.135   1.014
 7464SOL    HW134271   1.759   0.195   1.053
 7464SOL    HW234272   1.858   0.086   1.088
 7465SOL     OW34273   0.809   3.829  21.069
 7465SOL    HW134274   0.720   3.802  21.093
 7465SOL    HW234275   0.851   3.850  21.152
 7466SOL     OW34276   4.734   3.677  12.955
 7466SOL    HW134277   4.682   3.756  12.940
 7466SOL    HW234278   4.674   3.605  12.937
 7467SOL     OW34279   2.363   0.209  15.833
 7467SOL    HW134280   2.443   0.219  15.781
 7467SOL    HW234281   2.302   0.272  15.795
 7468SOL     OW34282   4.349   0.859  18.572
 7468SOL    HW134283   4.283   0.832  18.508
 7468SOL    HW234284   4.378   0.778  18.613
 7469SOL     OW34285   3.435   3.848  19.451
 7469SOL    HW134286   3.459   3.779  19.513
 7469SOL    HW234287   3.384   3.910  19.502
 7470SOL     OW34288   4.346   2.731   0.007
 7470SOL    HW134289   4.258   2.747   0.042
 7470SOL    HW234290   4.400   2.715   0.084
 7471SOL     OW34291   4.426   0.492  17.394
 7471SOL    HW134292   4.379   0.548  17.456
 7471SOL    HW234293   4.502   0.462  17.443
 7472SOL     OW34294   4.179   2.705  16.846
 7472SOL    HW134295   4.089   2.726  16.821
 7472SOL    HW234296   4.228   2.786  16.830
 7473SOL     OW34297   1.327   1.202  17.914
 7473SOL    HW134298   1.421   1.202  17.927
 7473SOL    HW234299   1.300   1.292  17.932
 7474SOL     OW34300   3.997   1.933  15.022
 7474SOL    HW134301   4.040   1.930  14.936
 7474SOL    HW234302   4.029   1.855  15.068
 7475SOL     OW34303   3.116   3.794   2.983
 7475SOL    HW134304   3.021   3.789   2.993
 7475SOL    HW234305   3.129   3.841   2.900
 7476SOL     OW34306   0.542   0.773   5.169
 7476SOL    HW134307   0.558   0.787   5.262
 7476SOL    HW234308   0.468   0.829   5.148
 7477SOL     OW34309   3.965   0.334   5.145
 7477SOL    HW134310   3.944   0.406   5.085
 7477SOL    HW234311   3.907   0.348   5.220
 7478SOL     OW34312   2.108   1.377   8.661
 7478SOL    HW134313   2.189   1.416   8.692
 7478SOL    HW234314   2.041   1.443   8.679
 7479SOL     OW34315   1.247   0.294   8.667
 7479SOL    HW134316   1.258   0.332   8.580
 7479SOL    HW234317   1.330   0.312   8.711
 7480SOL     OW34318   1.930   1.192  21.231
 7480SOL    HW134319   1.850   1.241  21.248
 7480SOL    HW234320   1.915   1.148  21.147
 7481SOL     OW34321   2.539   4.503  18.172
 7481SOL    HW134322   2.588   4.430  18.134
 7481SOL    HW234323   2.574   4.581  18.127
 7482SOL     OW34324   2.569   4.219  14.624
 7482SOL    HW134325   2.617   4.172  14.556
 7482SOL    HW234326   2.514   4.152  14.665
 7483SOL     OW34327   0.625   2.715   1.704
 7483SOL    HW134328   0.679   2.668   1.768
 7483SOL    HW234329   0.536   2.705   1.737
 7484SOL     OW34330   3.766   2.743   5.286
 7484SOL    HW134331   3.695   2.679   5.290
 7484SOL    HW234332   3.839   2.694   5.247
 7485SOL     OW34333   2.822   1.509  20.678
 7485SOL    HW134334   2.883   1.497  20.605
 7485SOL    HW234335   2.867   1.469  20.753
 7486SOL     OW34336   3.981   3.812   0.490
 7486SOL    HW134337   3.905   3.870   0.498
 7486SOL    HW234338   3.943   3.725   0.478
 7487SOL     OW34339   2.724   1.966  16.365
 7487SOL    HW134340   2.668   1.906  16.415
 7487SOL    HW234341   2.717   2.049  16.412
 7488SOL     OW34342   0.043   1.618   2.486
 7488SOL    HW134343   0.036   1.556   2.414
 7488SOL    HW234344   0.098   1.574   2.551
 7489SOL     OW34345   1.140   1.168   0.599
 7489SOL    HW134346   1.117   1.188   0.690
 7489SOL    HW234347   1.212   1.106   0.605
 7490SOL     OW34348   0.628   1.592  19.635
 7490SOL    HW134349   0.567   1.558  19.570
 7490SOL    HW234350   0.598   1.557  19.718
 7491SOL     OW34351   1.220   4.112  18.398
 7491SOL    HW134352   1.291   4.141  18.455
 7491SOL    HW234353   1.236   4.019  18.385
 7492SOL     OW34354   1.420   4.200  20.581
 7492SOL    HW134355   1.467   4.283  20.582
 7492SOL    HW234356   1.328   4.225  20.568
 7493SOL     OW34357   1.232   0.680  20.937
 7493SOL    HW134358   1.292   0.714  20.870
 7493SOL    HW234359   1.199   0.758  20.981
 7494SOL     OW34360   4.110   3.854   6.915
 7494SOL    HW134361   4.136   3.848   6.823
 7494SOL    HW234362   4.045   3.784   6.925
 7495SOL     OW34363   3.365   1.334   5.339
 7495SOL    HW134364   3.378   1.242   5.318
 7495SOL    HW234365   3.382   1.380   5.256
 7496SOL     OW34366   4.512   1.007  17.601
 7496SOL    HW134367   4.515   0.912  17.590
 7496SOL    HW234368   4.435   1.022  17.657
 7497SOL     OW34369   1.552   2.001   1.944
 7497SOL    HW134370   1.564   2.035   2.033
 7497SOL    HW234371   1.495   2.066   1.901
 7498SOL     OW34372   3.385   2.038   3.208
 7498SOL    HW134373   3.315   1.981   3.240
 7498SOL    HW234374   3.432   1.985   3.143
 7499SOL     OW34375   0.985   3.101  16.838
 7499SOL    HW134376   1.070   3.107  16.881
 7499SOL    HW234377   0.921   3.108  16.909
 7500SOL     OW34378   0.757   2.864   1.988
 7500SOL    HW134379   0.844   2.873   2.028
 7500SOL    HW234380   0.755   2.932   1.920
 7501SOL     OW34381   1.716   0.491  16.114
 7501SOL    HW134382   1.805   0.457  16.123
 7501SOL    HW234383   1.726   0.569  16.059
 7502SOL     OW34384   1.842   1.859   6.327
 7502SOL    HW134385   1.900   1.887   6.256
 7502SOL    HW234386   1.784   1.795   6.286
 7503SOL     OW34387   2.898   1.185  19.751
 7503SOL    HW134388   2.988   1.163  19.774
 7503SOL    HW234389   2.849   1.105  19.769
 7504SOL     OW34390   0.625   0.632   2.718
 7504SOL    HW134391   0.664   0.695   2.657
 7504SOL    HW234392   0.532   0.631   2.695
 7505SOL     OW34393   4.302   1.495   7.480
 7505SOL    HW134394   4.247   1.539   7.414
 7505SOL    HW234395   4.247   1.423   7.512
 7506SOL     OW34396   2.951   3.260  18.896
 7506SOL    HW134397   2.963   3.279  18.803
 7506SOL    HW234398   2.971   3.343  18.940
 7507SOL     OW34399   2.870   0.790   1.837
 7507SOL    HW134400   2.850   0.708   1.881
 7507SOL    HW234401   2.854   0.772   1.744
 7508SOL     OW34402   2.811   3.057  16.039
 7508SOL    HW134403   2.717   3.053  16.057
 7508SOL    HW234404   2.849   3.098  16.117
 7509SOL     OW34405   3.575   4.367  18.654
 7509SOL    HW134406   3.542   4.296  18.709
 7509SOL    HW234407   3.616   4.428  18.716
 7510SOL     OW34408   0.475   4.130   4.852
 7510SOL    HW134409   0.403   4.074   4.823
 7510SOL    HW234410   0.506   4.173   4.773
 7511SOL     OW34411   4.196   0.692   2.500
 7511SOL    HW134412   4.152   0.611   2.474
 7511SOL    HW234413   4.219   0.679   2.592
 7512SOL     OW34414   4.168   4.184  18.554
 7512SOL    HW134415   4.232   4.114  18.546
 7512SOL    HW234416   4.209   4.260  18.512
 7513SOL     OW34417   2.835   2.870  13.532
 7513SOL    HW134418   2.756   2.820  13.552
 7513SOL    HW234419   2.811   2.922  13.455
 7514SOL     OW34420   4.411   0.145   6.956
 7514SOL    HW134421   4.428   0.175   7.045
 7514SOL    HW234422   4.470   0.198   6.902
 7515SOL     OW34423   3.106   3.246   5.279
 7515SOL    HW134424   3.126   3.169   5.225
 7515SOL    HW234425   3.012   3.259   5.267
 7516SOL     OW34426   3.673   2.347   0.587
 7516SOL    HW134427   3.595   2.311   0.629
 7516SOL    HW234428   3.734   2.363   0.659
 7517SOL     OW34429   3.810   2.241  17.140
 7517SOL    HW134430   3.871   2.169  17.123
 7517SOL    HW234431   3.724   2.207  17.116
 7518SOL     OW34432   3.219   2.628  21.044
 7518SOL    HW134433   3.203   2.555  20.984
 7518SOL    HW234434   3.160   2.611  21.118
 7519SOL     OW34435   2.261   3.005   0.143
 7519SOL    HW134436   2.296   3.076   0.088
 7519SOL    HW234437   2.329   2.990   0.209
 7520SOL     OW34438   1.667   3.069  17.860
 7520SOL    HW134439   1.755   3.031  17.868
 7520SOL    HW234440   1.610   2.993  17.844
 7521SOL     OW34441   4.262   2.131  16.830
 7521SOL    HW134442   4.190   2.190  16.849
 7521SOL    HW234443   4.325   2.184  16.780
 7522SOL     OW34444   3.559   4.704  14.697
 7522SOL    HW134445   3.644   4.699  14.739
 7522SOL    HW234446   3.562   4.638  14.627
 7523SOL     OW34447   4.089   1.697   4.666
 7523SOL    HW134448   4.050   1.686   4.579
 7523SOL    HW234449   4.172   1.651   4.660
 7524SOL     OW34450   4.312   1.165   8.438
 7524SOL    HW134451   4.364   1.143   8.361
 7524SOL    HW234452   4.275   1.081   8.466
 7525SOL     OW34453   1.041   4.102   3.050
 7525SOL    HW134454   0.949   4.079   3.061
 7525SOL    HW234455   1.065   4.145   3.132
 7526SOL     OW34456   4.049   1.002  20.592
 7526SOL    HW134457   3.999   1.008  20.511
 7526SOL    HW234458   4.043   1.090  20.631
 7527SOL     OW34459   0.250   4.721   4.564
 7527SOL    HW134460   0.214   0.007   4.601
 7527SOL    HW234461   0.333   4.748   4.524
 7528SOL     OW34462   4.089   1.173   6.561
 7528SOL    HW134463   4.146   1.250   6.560
 7528SOL    HW234464   4.001   1.209   6.577
 7529SOL     OW34465   3.516   2.623  20.039
 7529SOL    HW134466   3.463   2.682  19.986
 7529SOL    HW234467   3.511   2.538  19.995
 7530SOL     OW34468   3.086   2.942  16.735
 7530SOL    HW134469   3.169   2.931  16.689
 7530SOL    HW234470   3.109   2.936  16.828
 7531SOL     OW34471   1.860   1.401   3.640
 7531SOL    HW134472   1.955   1.412   3.647
 7531SOL    HW234473   1.839   1.435   3.553
 7532SOL     OW34474   1.970   0.413   3.699
 7532SOL    HW134475   1.958   0.372   3.613
 7532SOL    HW234476   1.898   0.476   3.706
 7533SOL     OW34477   3.057   1.266   0.152
 7533SOL    HW134478   2.974   1.295   0.114
 7533SOL    HW234479   3.051   1.288   0.245
 7534SOL     OW34480   0.115   3.723   6.976
 7534SOL    HW134481   0.021   3.705   6.970
 7534SOL    HW234482   0.127   3.756   7.066
 7535SOL     OW34483   3.119   3.060   0.531
 7535SOL    HW134484   3.045   3.000   0.544
 7535SOL    HW234485   3.182   3.010   0.479
 7536SOL     OW34486   4.647   1.343   0.751
 7536SOL    HW134487   4.699   1.376   0.678
 7536SOL    HW234488   4.641   1.416   0.812
 7537SOL     OW34489   1.165   4.203   5.769
 7537SOL    HW134490   1.209   4.178   5.687
 7537SOL    HW234491   1.100   4.133   5.783
 7538SOL     OW34492   1.150   4.570   8.027
 7538SOL    HW134493   1.169   4.486   8.069
 7538SOL    HW234494   1.100   4.547   7.949
 7539SOL     OW34495   4.567   0.483   4.036
 7539SOL    HW134496   4.652   0.448   4.011
 7539SOL    HW234497   4.535   0.527   3.957
 7540SOL     OW34498   0.107   2.328   3.700
 7540SOL    HW134499   0.085   2.301   3.790
 7540SOL    HW234500   0.037   2.387   3.675
 7541SOL     OW34501   3.173   3.499   5.941
 7541SOL    HW134502   3.151   3.485   6.033
 7541SOL    HW234503   3.243   3.564   5.943
 7542SOL     OW34504   0.775   4.460  20.616
 7542SOL    HW134505   0.816   4.383  20.577
 7542SOL    HW234506   0.682   4.450  20.595
 7543SOL     OW34507   3.906   2.132  19.330
 7543SOL    HW134508   3.875   2.148  19.241
 7543SOL    HW234509   4.002   2.137  19.323
 7544SOL     OW34510   0.910   3.492  18.609
 7544SOL    HW134511   0.829   3.491  18.661
 7544SOL    HW234512   0.896   3.427  18.541
 7545SOL     OW34513   0.258   1.946  16.696
 7545SOL    HW134514   0.228   2.034  16.673
 7545SOL    HW234515   0.257   1.946  16.792
 7546SOL     OW34516   2.962   2.392   1.396
 7546SOL    HW134517   3.012   2.420   1.319
 7546SOL    HW234518   3.011   2.318   1.430
 7547SOL     OW34519   4.300   3.109   4.652
 7547SOL    HW134520   4.365   3.177   4.638
 7547SOL    HW234521   4.351   3.030   4.671
 7548SOL     OW34522   1.194   1.582  20.925
 7548SOL    HW134523   1.171   1.579  21.017
 7548SOL    HW234524   1.270   1.523  20.917
 7549SOL     OW34525   4.227   2.160   4.993
 7549SOL    HW134526   4.156   2.096   5.001
 7549SOL    HW234527   4.265   2.142   4.906
 7550SOL     OW34528   2.021   3.654  17.405
 7550SOL    HW134529   2.020   3.607  17.322
 7550SOL    HW234530   1.996   3.588  17.470
 7551SOL     OW34531   2.905   0.934  20.961
 7551SOL    HW134532   2.867   1.010  20.917
 7551SOL    HW234533   2.979   0.909  20.906
 7552SOL     OW34534   2.869   4.458   4.189
 7552SOL    HW134535   2.888   4.456   4.096
 7552SOL    HW234536   2.794   4.399   4.200
 7553SOL     OW34537   2.307   4.163  20.551
 7553SOL    HW134538   2.285   4.182  20.643
 7553SOL    HW234539   2.241   4.210  20.501
 7554SOL     OW34540   0.178   1.170  19.865
 7554SOL    HW134541   0.170   1.185  19.959
 7554SOL    HW234542   0.088   1.173  19.832
 7555SOL     OW34543   1.703   3.728  16.892
 7555SOL    HW134544   1.772   3.763  16.836
 7555SOL    HW234545   1.730   3.750  16.981
 7556SOL     OW34546   4.655   4.020   6.699
 7556SOL    HW134547   4.671   4.068   6.780
 7556SOL    HW234548   4.570   4.052   6.669
 7557SOL     OW34549   1.790   3.673   4.455
 7557SOL    HW134550   1.703   3.634   4.452
 7557SOL    HW234551   1.799   3.706   4.544
 7558SOL     OW34552   0.419   3.318  18.773
 7558SOL    HW134553   0.456   3.305  18.860
 7558SOL    HW234554   0.328   3.291  18.781
 7559SOL     OW34555   3.084   1.107   1.493
 7559SOL    HW134556   3.172   1.146   1.494
 7559SOL    HW234557   3.095   1.023   1.538
 7560SOL     OW34558   1.991   1.739   3.624
 7560SOL    HW134559   1.926   1.702   3.683
 7560SOL    HW234560   2.071   1.689   3.640
 7561SOL     OW34561   3.673   0.184  18.213
 7561SOL    HW134562   3.707   0.272  18.200
 7561SOL    HW234563   3.728   0.128  18.158
 7562SOL     OW34564   1.647   1.307  11.919
 7562SOL    HW134565   1.683   1.396  11.917
 7562SOL    HW234566   1.668   1.270  11.833
 7563SOL     OW34567   2.053   3.716   8.440
 7563SOL    HW134568   2.112   3.726   8.365
 7563SOL    HW234569   2.097   3.762   8.512
 7564SOL     OW34570   0.475   3.310  21.082
 7564SOL    HW134571   0.568   3.309  21.060
 7564SOL    HW234572   0.464   3.235  21.140
 7565SOL     OW34573   4.108   4.081  18.948
 7565SOL    HW134574   4.109   4.147  19.018
 7565SOL    HW234575   4.080   4.130  18.870
 7566SOL     OW34576   0.757   1.475   0.270
 7566SOL    HW134577   0.692   1.405   0.276
 7566SOL    HW234578   0.822   1.453   0.336
 7567SOL     OW34579   1.957   2.583  17.206
 7567SOL    HW134580   2.012   2.507  17.188
 7567SOL    HW234581   1.872   2.546  17.231
 7568SOL     OW34582   3.025   4.612   7.268
 7568SOL    HW134583   2.952   4.592   7.211
 7568SOL    HW234584   3.102   4.612   7.211
 7569SOL     OW34585   0.444   3.672   6.393
 7569SOL    HW134586   0.519   3.710   6.439
 7569SOL    HW234587   0.480   3.634   6.314
 7570SOL     OW34588   3.919   1.237  14.988
 7570SOL    HW134589   3.961   1.269  15.068
 7570SOL    HW234590   3.827   1.226  15.011
 7571SOL     OW34591   1.645   0.601   5.614
 7571SOL    HW134592   1.654   0.661   5.688
 7571SOL    HW234593   1.709   0.632   5.550
 7572SOL     OW34594   3.109   1.722   2.185
 7572SOL    HW134595   3.038   1.743   2.124
 7572SOL    HW234596   3.073   1.652   2.240
 7573SOL     OW34597   1.385   2.733   3.998
 7573SOL    HW134598   1.385   2.653   3.945
 7573SOL    HW234599   1.466   2.778   3.973
 7574SOL     OW34600   4.371   0.596  19.144
 7574SOL    HW134601   4.425   0.562  19.215
 7574SOL    HW234602   4.331   0.519  19.104
 7575SOL     OW34603   3.603   4.760   4.435
 7575SOL    HW134604   3.573   4.791   4.349
 7575SOL    HW234605   3.689   0.007   4.447
 7576SOL     OW34606   1.890   3.933  16.445
 7576SOL    HW134607   1.986   3.939  16.451
 7576SOL    HW234608   1.859   4.010  16.492
 7577SOL     OW34609   4.664   0.315  17.281
 7577SOL    HW134610   4.745   0.285  17.239
 7577SOL    HW234611   4.661   0.267  17.364
 7578SOL     OW34612   4.251   2.313  20.812
 7578SOL    HW134613   4.265   2.273  20.726
 7578SOL    HW234614   4.333   2.360  20.829
 7579SOL     OW34615   2.785   0.160   5.731
 7579SOL    HW134616   2.846   0.151   5.804
 7579SOL    HW234617   2.792   0.252   5.705
 7580SOL     OW34618   2.088   2.666   5.934
 7580SOL    HW134619   2.145   2.706   5.999
 7580SOL    HW234620   2.143   2.603   5.889
 7581SOL     OW34621   0.972   1.553   5.658
 7581SOL    HW134622   1.043   1.548   5.593
 7581SOL    HW234623   0.977   1.643   5.691
 7582SOL     OW34624   0.442   3.119   2.156
 7582SOL    HW134625   0.457   3.204   2.115
 7582SOL    HW234626   0.361   3.130   2.205
 7583SOL     OW34627   3.835   3.922   0.704
 7583SOL    HW134628   3.862   3.830   0.698
 7583SOL    HW234629   3.827   3.938   0.798
 7584SOL     OW34630   0.326   1.736  19.813
 7584SOL    HW134631   0.391   1.805  19.825
 7584SOL    HW234632   0.250   1.767  19.862
 7585SOL     OW34633   1.556   2.033   0.762
 7585SOL    HW134634   1.568   1.949   0.807
 7585SOL    HW234635   1.518   2.010   0.677
 7586SOL     OW34636   3.260   2.063  20.916
 7586SOL    HW134637   3.257   2.041  21.009
 7586SOL    HW234638   3.206   2.142  20.908
 7587SOL     OW34639   4.737   1.158   0.410
 7587SOL    HW134640   4.653   1.186   0.446
 7587SOL    HW234641   4.718   1.072   0.372
 7588SOL     OW34642   0.811   4.632   6.645
 7588SOL    HW134643   0.814   4.604   6.553
 7588SOL    HW234644   0.717   4.643   6.663
 7589SOL     OW34645   2.476   4.403  15.881
 7589SOL    HW134646   2.486   4.310  15.862
 7589SOL    HW234647   2.382   4.415  15.893
 7590SOL     OW34648   3.039   0.249  21.261
 7590SOL    HW134649   3.068   0.161  21.237
 7590SOL    HW234650   2.963   0.234   0.041
 7591SOL     OW34651   1.666   2.310   3.472
 7591SOL    HW134652   1.717   2.358   3.407
 7591SOL    HW234653   1.683   2.356   3.554
 7592SOL     OW34654   0.050   1.588  20.990
 7592SOL    HW134655   4.788   1.545  20.925
 7592SOL    HW234656   0.077   1.669  20.949
 7593SOL     OW34657   4.727   4.150  20.244
 7593SOL    HW134658   4.779   4.212  20.294
 7593SOL    HW234659   4.747   4.170  20.152
 7594SOL     OW34660   2.191   4.639  20.614
 7594SOL    HW134661   2.235   4.567  20.659
 7594SOL    HW234662   2.224   4.635  20.524
 7595SOL     OW34663   0.277   0.799   3.970
 7595SOL    HW134664   0.184   0.799   3.949
 7595SOL    HW234665   0.300   0.706   3.979
 7596SOL     OW34666   3.085   0.247  15.721
 7596SOL    HW134667   3.072   0.269  15.629
 7596SOL    HW234668   3.179   0.260  15.736
 7597SOL     OW34669   0.770   1.200  16.751
 7597SOL    HW134670   0.805   1.176  16.665
 7597SOL    HW234671   0.845   1.192  16.810
 7598SOL     OW34672   4.533   2.202  19.338
 7598SOL    HW134673   4.592   2.155  19.278
 7598SOL    HW234674   4.484   2.261  19.281
 7599SOL     OW34675   2.182   2.686  19.352
 7599SOL    HW134676   2.136   2.661  19.272
 7599SOL    HW234677   2.269   2.714  19.322
 7600SOL     OW34678   0.267   1.345  17.968
 7600SOL    HW134679   0.185   1.308  17.935
 7600SOL    HW234680   0.334   1.305  17.913
 7601SOL     OW34681   1.784   0.197  16.566
 7601SOL    HW134682   1.872   0.167  16.544
 7601SOL    HW234683   1.750   0.130  16.626
 7602SOL     OW34684   0.280   2.804   3.205
 7602SOL    HW134685   0.239   2.717   3.205
 7602SOL    HW234686   0.373   2.787   3.218
 7603SOL     OW34687   3.564   1.360   3.104
 7603SOL    HW134688   3.617   1.308   3.164
 7603SOL    HW234689   3.580   1.450   3.130
 7604SOL     OW34690   0.011   2.518  18.355
 7604SOL    HW134691   0.044   2.548  18.440
 7604SOL    HW234692   0.058   2.435  18.339
 7605SOL     OW34693   3.975   3.966   7.465
 7605SOL    HW134694   4.014   3.900   7.522
 7605SOL    HW234695   4.044   3.986   7.401
 7606SOL     OW34696   3.941   1.941  20.088
 7606SOL    HW134697   4.003   1.954  20.017
 7606SOL    HW234698   3.978   1.992  20.161
 7607SOL     OW34699   0.968   1.161   5.167
 7607SOL    HW134700   0.899   1.198   5.223
 7607SOL    HW234701   0.977   1.071   5.197
 7608SOL     OW34702   1.957   2.231   4.552
 7608SOL    HW134703   1.916   2.196   4.472
 7608SOL    HW234704   1.994   2.315   4.525
 7609SOL     OW34705   0.724   3.643   2.514
 7609SOL    HW134706   0.686   3.728   2.492
 7609SOL    HW234707   0.676   3.615   2.592
 7610SOL     OW34708   2.701   1.076   1.425
 7610SOL    HW134709   2.651   1.148   1.387
 7610SOL    HW234710   2.792   1.106   1.424
 7611SOL     OW34711   2.580   1.467   2.257
 7611SOL    HW134712   2.548   1.529   2.322
 7611SOL    HW234713   2.574   1.515   2.174
 7612SOL     OW34714   4.196   1.471   3.531
 7612SOL    HW134715   4.162   1.486   3.443
 7612SOL    HW234716   4.253   1.545   3.548
 7613SOL     OW34717   3.632   0.073  19.289
 7613SOL    HW134718   3.580   4.789  19.269
 7613SOL    HW234719   3.640   0.118  19.205
 7614SOL     OW34720   2.776   2.978   4.555
 7614SOL    HW134721   2.733   2.999   4.638
 7614SOL    HW234722   2.756   2.886   4.540
 7615SOL     OW34723   0.842   2.011  20.097
 7615SOL    HW134724   0.885   2.014  20.182
 7615SOL    HW234725   0.755   2.049  20.112
 7616SOL     OW34726   3.686   3.404   5.675
 7616SOL    HW134727   3.752   3.435   5.613
 7616SOL    HW234728   3.670   3.313   5.649
 7617SOL     OW34729   3.365   3.353   4.903
 7617SOL    HW134730   3.281   3.397   4.918
 7617SOL    HW234731   3.418   3.418   4.858
 7618SOL     OW34732   3.910   2.064  18.216
 7618SOL    HW134733   3.938   2.016  18.294
 7618SOL    HW234734   3.849   2.004  18.172
 7619SOL     OW34735   4.711   3.012   1.711
 7619SOL    HW134736   4.624   3.043   1.735
 7619SOL    HW234737   4.721   2.929   1.756
 7620SOL     OW34738   1.112   1.855   0.627
 7620SOL    HW134739   1.036   1.823   0.578
 7620SOL    HW234740   1.170   1.779   0.634
 7621SOL     OW34741   2.379   1.419  14.457
 7621SOL    HW134742   2.455   1.420  14.399
 7621SOL    HW234743   2.405   1.366  14.532
 7622SOL     OW34744   4.551   2.056   5.869
 7622SOL    HW134745   4.479   1.999   5.899
 7622SOL    HW234746   4.541   2.058   5.774
 7623SOL     OW34747   1.339   0.766  15.848
 7623SOL    HW134748   1.325   0.740  15.939
 7623SOL    HW234749   1.321   0.860  15.847
 7624SOL     OW34750   0.474   2.317  15.743
 7624SOL    HW134751   0.472   2.321  15.839
 7624SOL    HW234752   0.400   2.371  15.716
 7625SOL     OW34753   2.553   2.093  17.819
 7625SOL    HW134754   2.562   2.172  17.766
 7625SOL    HW234755   2.481   2.044  17.779
 7626SOL     OW34756   0.439   1.967  18.950
 7626SOL    HW134757   0.412   1.946  18.861
 7626SOL    HW234758   0.360   1.996  18.994
 7627SOL     OW34759   4.109   0.693  16.744
 7627SOL    HW134760   4.030   0.640  16.755
 7627SOL    HW234761   4.111   0.716  16.651
 7628SOL     OW34762   2.974   4.104  17.647
 7628SOL    HW134763   3.059   4.136  17.616
 7628SOL    HW234764   2.995   4.043  17.717
 7629SOL     OW34765   0.479   4.689   3.257
 7629SOL    HW134766   0.401   4.641   3.230
 7629SOL    HW234767   0.447   4.776   3.280
 7630SOL     OW34768   2.161   3.265  15.474
 7630SOL    HW134769   2.235   3.320  15.501
 7630SOL    HW234770   2.085   3.324  15.478
 7631SOL     OW34771   2.245   0.653  20.626
 7631SOL    HW134772   2.319   0.597  20.604
 7631SOL    HW234773   2.180   0.594  20.664
 7632SOL     OW34774   4.188   2.771  18.311
 7632SOL    HW134775   4.162   2.696  18.257
 7632SOL    HW234776   4.114   2.784  18.371
 7633SOL     OW34777   2.220   3.002   6.346
 7633SOL    HW134778   2.200   3.006   6.439
 7633SOL    HW234779   2.315   3.013   6.341
 7634SOL     OW34780   4.203   4.117   2.299
 7634SOL    HW134781   4.286   4.157   2.326
 7634SOL    HW234782   4.159   4.096   2.382
 7635SOL     OW34783   1.995   1.919   0.371
 7635SOL    HW134784   1.998   1.885   0.282
 7635SOL    HW234785   2.015   2.013   0.362
 7636SOL     OW34786   3.748   0.341   5.603
 7636SOL    HW134787   3.692   0.332   5.680
 7636SOL    HW234788   3.818   0.400   5.631
 7637SOL     OW34789   2.835   3.800   1.595
 7637SOL    HW134790   2.818   3.712   1.563
 7637SOL    HW234791   2.810   3.857   1.522
 7638SOL     OW34792   3.185   0.937   4.179
 7638SOL    HW134793   3.185   0.991   4.100
 7638SOL    HW234794   3.092   0.918   4.195
 7639SOL     OW34795   2.730   0.754  14.590
 7639SOL    HW134796   2.807   0.699  14.604
 7639SOL    HW234797   2.752   0.838  14.630
 7640SOL     OW34798   2.022   3.696   5.610
 7640SOL    HW134799   2.107   3.693   5.656
 7640SOL    HW234800   2.020   3.616   5.558
 7641SOL     OW34801   4.758   1.880  18.952
 7641SOL    HW134802   0.033   1.845  18.897
 7641SOL    HW234803   4.677   1.854  18.909
 7642SOL     OW34804   3.175   2.481   6.039
 7642SOL    HW134805   3.230   2.427   6.096
 7642SOL    HW234806   3.201   2.456   5.950
 7643SOL     OW34807   1.301   1.286  13.951
 7643SOL    HW134808   1.227   1.274  14.011
 7643SOL    HW234809   1.375   1.308  14.008
 7644SOL     OW34810   3.813   2.362   8.942
 7644SOL    HW134811   3.854   2.362   9.029
 7644SOL    HW234812   3.730   2.408   8.954
 7645SOL     OW34813   2.708   0.226  18.278
 7645SOL    HW134814   2.714   0.141  18.321
 7645SOL    HW234815   2.635   0.270  18.323
 7646SOL     OW34816   1.727   1.185  17.491
 7646SOL    HW134817   1.754   1.266  17.448
 7646SOL    HW234818   1.669   1.214  17.562
 7647SOL     OW34819   0.752   3.014   8.761
 7647SOL    HW134820   0.832   3.060   8.735
 7647SOL    HW234821   0.685   3.082   8.765
 7648SOL     OW34822   3.644   2.788   1.086
 7648SOL    HW134823   3.587   2.825   1.154
 7648SOL    HW234824   3.726   2.770   1.131
 7649SOL     OW34825   1.033   3.049   9.849
 7649SOL    HW134826   0.986   2.966   9.847
 7649SOL    HW234827   1.082   3.051   9.767
 7650SOL     OW34828   3.409   1.790  17.747
 7650SOL    HW134829   3.319   1.758  17.752
 7650SOL    HW234830   3.405   1.881  17.776
 7651SOL     OW34831   2.202   0.792  14.471
 7651SOL    HW134832   2.228   0.842  14.548
 7651SOL    HW234833   2.279   0.741  14.448
 7652SOL     OW34834   2.420   4.105   8.979
 7652SOL    HW134835   2.474   4.164   8.928
 7652SOL    HW234836   2.473   4.083   9.056
 7653SOL     OW34837   0.140   4.233   5.453
 7653SOL    HW134838   0.187   4.317   5.450
 7653SOL    HW234839   0.074   4.246   5.522
 7654SOL     OW34840   2.414   3.939   8.334
 7654SOL    HW134841   2.348   3.931   8.265
 7654SOL    HW234842   2.374   3.896   8.410
 7655SOL     OW34843   4.229   4.548  20.832
 7655SOL    HW134844   4.236   4.643  20.832
 7655SOL    HW234845   4.260   4.521  20.746
 7656SOL     OW34846   4.632   2.221  17.020
 7656SOL    HW134847   4.548   2.217  17.066
 7656SOL    HW234848   4.657   2.314  17.024
 7657SOL     OW34849   1.372   2.070  18.853
 7657SOL    HW134850   1.298   2.128  18.836
 7657SOL    HW234851   1.335   1.982  18.847
 7658SOL     OW34852   2.518   0.669   8.480
 7658SOL    HW134853   2.506   0.608   8.553
 7658SOL    HW234854   2.515   0.614   8.402
 7659SOL     OW34855   0.103   1.970   6.580
 7659SOL    HW134856   0.156   2.047   6.557
 7659SOL    HW234857   0.039   1.963   6.510
 7660SOL     OW34858   4.671   3.298   7.951
 7660SOL    HW134859   4.711   3.212   7.967
 7660SOL    HW234860   4.741   3.361   7.971
 7661SOL     OW34861   0.418   1.732   5.256
 7661SOL    HW134862   0.454   1.646   5.232
 7661SOL    HW234863   0.489   1.793   5.238
 7662SOL     OW34864   0.279   3.862   8.418
 7662SOL    HW134865   0.322   3.882   8.501
 7662SOL    HW234866   0.326   3.915   8.353
 7663SOL     OW34867   3.783   0.773   8.114
 7663SOL    HW134868   3.740   0.689   8.104
 7663SOL    HW234869   3.769   0.818   8.030
 7664SOL     OW34870   3.696   1.021   8.213
 7664SOL    HW134871   3.640   1.006   8.289
 7664SOL    HW234872   3.687   0.942   8.160
 7665SOL     OW34873   0.537   2.866   8.700
 7665SOL    HW134874   0.620   2.913   8.709
 7665SOL    HW234875   0.532   2.844   8.607
 7666SOL     OW34876   0.758   3.123   7.646
 7666SOL    HW134877   0.707   3.123   7.566
 7666SOL    HW234878   0.789   3.033   7.655
 7667SOL     OW34879   2.343   1.565   8.763
 7667SOL    HW134880   2.372   1.656   8.775
 7667SOL    HW234881   2.420   1.519   8.729
 7668SOL     OW34882   0.206   3.908   9.602
 7668SOL    HW134883   0.118   3.896   9.637
 7668SOL    HW234884   0.234   3.820   9.576
 7669SOL     OW34885   3.523   1.831  21.248
 7669SOL    HW134886   3.597   1.773  21.227
 7669SOL    HW234887   3.558   1.891   0.037
 7670SOL     OW34888   2.352   1.237  18.294
 7670SOL    HW134889   2.315   1.151  18.274
 7670SOL    HW234890   2.445   1.227  18.274
 7671SOL     OW34891   0.117   3.925   8.124
 7671SOL    HW134892   0.212   3.924   8.129
 7671SOL    HW234893   0.094   3.849   8.070
 7672SOL     OW34894   1.759   0.689   7.577
 7672SOL    HW134895   1.694   0.686   7.507
 7672SOL    HW234896   1.840   0.657   7.536
 7673SOL     OW34897   3.910   3.641   9.075
 7673SOL    HW134898   3.857   3.566   9.050
 7673SOL    HW234899   3.920   3.633   9.170
 7674SOL     OW34900   2.117   1.774   0.831
 7674SOL    HW134901   2.067   1.789   0.911
 7674SOL    HW234902   2.053   1.784   0.760
 7675SOL     OW34903   1.637   0.892   9.888
 7675SOL    HW134904   1.713   0.892   9.830
 7675SOL    HW234905   1.634   0.980   9.924
 7676SOL     OW34906   0.879   0.282   8.809
 7676SOL    HW134907   0.939   0.332   8.864
 7676SOL    HW234908   0.798   0.278   8.859
 7677SOL     OW34909   1.430   0.796   9.109
 7677SOL    HW134910   1.468   0.723   9.060
 7677SOL    HW234911   1.418   0.761   9.198
 7678SOL     OW34912   3.144   4.430  13.979
 7678SOL    HW134913   3.137   4.351  13.926
 7678SOL    HW234914   3.070   4.426  14.039
 7679SOL     OW34915   4.454   2.967   8.953
 7679SOL    HW134916   4.514   3.015   8.895
 7679SOL    HW234917   4.368   2.977   8.911
 7680SOL     OW34918   1.786   1.009  18.294
 7680SOL    HW134919   1.692   1.026  18.294
 7680SOL    HW234920   1.826   1.095  18.302
 7681SOL     OW34921   1.191   1.530  16.196
 7681SOL    HW134922   1.234   1.445  16.199
 7681SOL    HW234923   1.172   1.551  16.287
 7682SOL     OW34924   0.687   3.894   8.531
 7682SOL    HW134925   0.591   3.887   8.534
 7682SOL    HW234926   0.708   3.965   8.591
 7683SOL     OW34927   4.549   3.778  10.401
 7683SOL    HW134928   4.509   3.730  10.329
 7683SOL    HW234929   4.504   3.863  10.402
 7684SOL     OW34930   2.226   1.384   9.564
 7684SOL    HW134931   2.234   1.461   9.621
 7684SOL    HW234932   2.171   1.323   9.613
 7685SOL     OW34933   0.516   4.068  10.261
 7685SOL    HW134934   0.564   4.000  10.309
 7685SOL    HW234935   0.457   4.105  10.326
 7686SOL     OW34936   2.370   0.031  11.071
 7686SOL    HW134937   2.380   0.052  11.164
 7686SOL    HW234938   2.337   4.736  11.070
 7687SOL     OW34939   1.800   4.528  10.904
 7687SOL    HW134940   1.869   4.594  10.895
 7687SOL    HW234941   1.762   4.545  10.990
 7688SOL     OW34942   2.157   4.186  10.430
 7688SOL    HW134943   2.134   4.158  10.342
 7688SOL    HW234944   2.243   4.147  10.447
 7689SOL     OW34945   0.837   3.276  11.540
 7689SOL    HW134946   0.907   3.236  11.591
 7689SOL    HW234947   0.876   3.356  11.504
 7690SOL     OW34948   4.584   0.501   8.279
 7690SOL    HW134949   4.573   0.560   8.354
 7690SOL    HW234950   4.674   0.517   8.249
 7691SOL     OW34951   2.646   1.055  10.167
 7691SOL    HW134952   2.557   1.051  10.201
 7691SOL    HW234953   2.646   1.132  10.109
 7692SOL     OW34954   0.738   1.956  11.619
 7692SOL    HW134955   0.713   2.019  11.552
 7692SOL    HW234956   0.774   1.882  11.570
 7693SOL     OW34957   0.376   0.565   9.531
 7693SOL    HW134958   0.407   0.477   9.553
 7693SOL    HW234959   0.418   0.622   9.595
 7694SOL     OW34960   0.975   3.763   9.514
 7694SOL    HW134961   1.058   3.772   9.562
 7694SOL    HW234962   0.991   3.692   9.453
 7695SOL     OW34963   0.759   2.651  11.215
 7695SOL    HW134964   0.727   2.605  11.293
 7695SOL    HW234965   0.682   2.658  11.158
 7696SOL     OW34966   1.487   3.401  11.426
 7696SOL    HW134967   1.542   3.325  11.445
 7696SOL    HW234968   1.398   3.372  11.445
 7697SOL     OW34969   0.749   3.337  10.806
 7697SOL    HW134970   0.809   3.339  10.881
 7697SOL    HW234971   0.776   3.259  10.757
 7698SOL     OW34972   1.709   3.641  10.492
 7698SOL    HW134973   1.751   3.621  10.576
 7698SOL    HW234974   1.661   3.722  10.508
 7699SOL     OW34975   3.460   1.015   8.053
 7699SOL    HW134976   3.423   1.098   8.022
 7699SOL    HW234977   3.538   1.041   8.103
 7700SOL     OW34978   4.105   0.743   9.129
 7700SOL    HW134979   4.144   0.662   9.096
 7700SOL    HW234980   4.080   0.791   9.050
 7701SOL     OW34981   2.349   3.538  10.120
 7701SOL    HW134982   2.320   3.623  10.155
 7701SOL    HW234983   2.444   3.542  10.125
 7702SOL     OW34984   0.688   2.914  11.293
 7702SOL    HW134985   0.665   2.955  11.210
 7702SOL    HW234986   0.741   2.838  11.269
 7703SOL     OW34987   2.204   1.236   9.843
 7703SOL    HW134988   2.245   1.150   9.833
 7703SOL    HW234989   2.217   1.258   9.936
 7704SOL     OW34990   2.202   1.292  10.126
 7704SOL    HW134991   2.112   1.277  10.154
 7704SOL    HW234992   2.211   1.387  10.124
 7705SOL     OW34993   1.008   3.290   9.979
 7705SOL    HW134994   1.001   3.201   9.945
 7705SOL    HW234995   1.011   3.345   9.901
 7706SOL     OW34996   3.306   0.817   9.076
 7706SOL    HW134997   3.244   0.744   9.073
 7706SOL    HW234998   3.385   0.780   9.116
 7707SOL     OW34999   0.307   1.959   9.468
 7707SOL    HW135000   0.304   1.871   9.506
 7707SOL    HW235001   0.314   1.944   9.374
 7708SOL     OW35002   4.056   0.270  17.886
 7708SOL    HW135003   4.126   0.280  17.821
 7708SOL    HW235004   4.102   0.258  17.969
 7709SOL     OW35005   2.614   1.065   6.706
 7709SOL    HW135006   2.575   1.142   6.749
 7709SOL    HW235007   2.610   1.085   6.613
 7710SOL     OW35008   1.694   2.124  13.399
 7710SOL    HW135009   1.683   2.057  13.466
 7710SOL    HW235010   1.725   2.201  13.446
 7711SOL     OW35011   0.759   4.570  11.515
 7711SOL    HW135012   0.737   4.497  11.458
 7711SOL    HW235013   0.812   4.628  11.460
 7712SOL     OW35014   1.761   2.926  20.029
 7712SOL    HW135015   1.713   2.877  19.962
 7712SOL    HW235016   1.783   2.860  20.096
 7713SOL     OW35017   4.325   0.426  10.481
 7713SOL    HW135018   4.330   0.352  10.542
 7713SOL    HW235019   4.322   0.503  10.537
 7714SOL     OW35020   2.169   3.022  11.148
 7714SOL    HW135021   2.147   2.965  11.074
 7714SOL    HW235022   2.264   3.013  11.158
 7715SOL     OW35023   3.147   4.283  12.706
 7715SOL    HW135024   3.125   4.191  12.690
 7715SOL    HW235025   3.243   4.286  12.700
 7716SOL     OW35026   1.555   3.289  20.714
 7716SOL    HW135027   1.647   3.306  20.734
 7716SOL    HW235028   1.511   3.372  20.733
 7717SOL     OW35029   0.018   4.510   2.275
 7717SOL    HW135030   0.112   4.521   2.283
 7717SOL    HW235031   0.006   4.459   2.195
 7718SOL     OW35032   0.705   4.586  11.892
 7718SOL    HW135033   0.757   4.567  11.971
 7718SOL    HW235034   0.647   4.657  11.918
 7719SOL     OW35035   1.226   3.446  11.552
 7719SOL    HW135036   1.285   3.521  11.546
 7719SOL    HW235037   1.276   3.378  11.596
 7720SOL     OW35038   1.767   0.213  11.070
 7720SOL    HW135039   1.732   0.166  10.995
 7720SOL    HW235040   1.861   0.221  11.051
 7721SOL     OW35041   2.415   2.542  11.163
 7721SOL    HW135042   2.386   2.564  11.252
 7721SOL    HW235043   2.504   2.509  11.174
 7722SOL     OW35044   4.616   0.012   9.512
 7722SOL    HW135045   4.535   0.045   9.473
 7722SOL    HW235046   4.666   0.090   9.533
 7723SOL     OW35047   1.138   4.238  11.113
 7723SOL    HW135048   1.091   4.296  11.173
 7723SOL    HW235049   1.228   4.272  11.113
 7724SOL     OW35050   1.794   2.392  10.974
 7724SOL    HW135051   1.785   2.401  11.069
 7724SOL    HW235052   1.707   2.414  10.940
 7725SOL     OW35053   4.624   0.323  19.227
 7725SOL    HW135054   4.661   0.241  19.194
 7725SOL    HW235055   4.612   0.308  19.321
 7726SOL     OW35056   1.610   2.180  11.814
 7726SOL    HW135057   1.629   2.228  11.733
 7726SOL    HW235058   1.516   2.165  11.813
 7727SOL     OW35059   2.195   3.858  11.107
 7727SOL    HW135060   2.132   3.827  11.042
 7727SOL    HW235061   2.225   3.778  11.150
 7728SOL     OW35062   1.285   3.875   5.205
 7728SOL    HW135063   1.339   3.878   5.283
 7728SOL    HW235064   1.328   3.934   5.143
 7729SOL     OW35065   1.848   3.721  12.193
 7729SOL    HW135066   1.886   3.634  12.207
 7729SOL    HW235067   1.905   3.781  12.240
 7730SOL     OW35068   2.026   1.362  11.978
 7730SOL    HW135069   2.017   1.378  12.072
 7730SOL    HW235070   1.949   1.403  11.939
 7731SOL     OW35071   2.718   3.982  11.639
 7731SOL    HW135072   2.655   3.985  11.711
 7731SOL    HW235073   2.791   4.037  11.669
 7732SOL     OW35074   2.283   3.310  11.359
 7732SOL    HW135075   2.214   3.332  11.296
 7732SOL    HW235076   2.361   3.351  11.324
 7733SOL     OW35077   1.147   0.027  15.731
 7733SOL    HW135078   1.227   0.038  15.680
 7733SOL    HW235079   1.160   0.079  15.810
 7734SOL     OW35080   3.346   1.613   4.845
 7734SOL    HW135081   3.263   1.649   4.876
 7734SOL    HW235082   3.324   1.527   4.809
 7735SOL     OW35083   1.681   3.665   2.691
 7735SOL    HW135084   1.683   3.574   2.723
 7735SOL    HW235085   1.613   3.665   2.623
 7736SOL     OW35086   2.679   2.203  20.333
 7736SOL    HW135087   2.773   2.216  20.342
 7736SOL    HW235088   2.651   2.274  20.275
 7737SOL     OW35089   4.204   4.381  15.771
 7737SOL    HW135090   4.151   4.306  15.744
 7737SOL    HW235091   4.282   4.343  15.812
 7738SOL     OW35092   2.023   4.104  20.909
 7738SOL    HW135093   1.994   4.069  20.825
 7738SOL    HW235094   1.975   4.187  20.918
 7739SOL     OW35095   4.253   3.209   7.283
 7739SOL    HW135096   4.218   3.298   7.282
 7739SOL    HW235097   4.329   3.212   7.225
 7740SOL     OW35098   2.254   2.024  17.278
 7740SOL    HW135099   2.262   1.987  17.366
 7740SOL    HW235100   2.324   2.089  17.272
 7741SOL     OW35101   3.719   2.638   5.829
 7741SOL    HW135102   3.717   2.580   5.753
 7741SOL    HW235103   3.781   2.707   5.804
 7742SOL     OW35104   3.308   3.745  15.126
 7742SOL    HW135105   3.336   3.837  15.133
 7742SOL    HW235106   3.239   3.747  15.059
 7743SOL     OW35107   3.580   4.338  17.078
 7743SOL    HW135108   3.617   4.311  17.162
 7743SOL    HW235109   3.489   4.311  17.081
 7744SOL     OW35110   2.747   1.124   0.672
 7744SOL    HW135111   2.808   1.080   0.613
 7744SOL    HW235112   2.765   1.217   0.660
 7745SOL     OW35113   0.877   1.005  17.698
 7745SOL    HW135114   0.830   1.017  17.616
 7745SOL    HW235115   0.968   0.989  17.671
 7746SOL     OW35116   0.354   2.719  16.424
 7746SOL    HW135117   0.260   2.727  16.437
 7746SOL    HW235118   0.389   2.802  16.456
 7747SOL     OW35119   4.476   1.407   1.285
 7747SOL    HW135120   4.436   1.352   1.218
 7747SOL    HW235121   4.526   1.347   1.340
 7748SOL     OW35122   0.900   2.370   4.662
 7748SOL    HW135123   0.815   2.326   4.653
 7748SOL    HW235124   0.890   2.452   4.614
 7749SOL     OW35125   4.157   0.023  11.627
 7749SOL    HW135126   4.117   4.779  11.549
 7749SOL    HW235127   4.085   0.068  11.671
 7750SOL     OW35128   3.257   1.004  18.506
 7750SOL    HW135129   3.301   0.921  18.490
 7750SOL    HW235130   3.199   1.015  18.430
 7751SOL     OW35131   0.760   3.578   0.373
 7751SOL    HW135132   0.664   3.572   0.374
 7751SOL    HW235133   0.790   3.491   0.348
 7752SOL     OW35134   4.610   3.730  14.734
 7752SOL    HW135135   4.516   3.743  14.740
 7752SOL    HW235136   4.644   3.813  14.701
 7753SOL     OW35137   1.337   4.341  21.240
 7753SOL    HW135138   1.285   4.421  21.238
 7753SOL    HW235139   1.313   4.298   0.046
 7754SOL     OW35140   2.817   2.750   3.481
 7754SOL    HW135141   2.895   2.774   3.531
 7754SOL    HW235142   2.757   2.712   3.545
 7755SOL     OW35143   3.536   1.361   4.077
 7755SOL    HW135144   3.547   1.366   3.982
 7755SOL    HW235145   3.518   1.450   4.104
 7756SOL     OW35146   0.600   4.008   5.818
 7756SOL    HW135147   0.585   4.050   5.903
 7756SOL    HW235148   0.530   3.942   5.811
 7757SOL     OW35149   0.885   1.335   1.218
 7757SOL    HW135150   0.790   1.325   1.207
 7757SOL    HW235151   0.905   1.286   1.297
 7758SOL     OW35152   2.586   1.933  20.315
 7758SOL    HW135153   2.594   2.026  20.333
 7758SOL    HW235154   2.628   1.921  20.230
 7759SOL     OW35155   3.876   0.182   7.723
 7759SOL    HW135156   3.923   0.109   7.683
 7759SOL    HW235157   3.867   0.247   7.654
 7760SOL     OW35158   0.008   0.660  15.607
 7760SOL    HW135159   4.738   0.638  15.539
 7760SOL    HW235160   4.751   0.706  15.674
 7761SOL     OW35161   2.928   3.407  20.453
 7761SOL    HW135162   2.879   3.346  20.398
 7761SOL    HW235163   2.923   3.491  20.407
 7762SOL     OW35164   1.923   1.756  18.301
 7762SOL    HW135165   1.830   1.756  18.280
 7762SOL    HW235166   1.927   1.726  18.392
 7763SOL     OW35167   0.779   3.311   2.718
 7763SOL    HW135168   0.750   3.279   2.632
 7763SOL    HW235169   0.748   3.401   2.722
 7764SOL     OW35170   2.732   3.531  18.435
 7764SOL    HW135171   2.805   3.553  18.493
 7764SOL    HW235172   2.658   3.515  18.494
 7765SOL     OW35173   0.407   4.129   4.164
 7765SOL    HW135174   0.344   4.189   4.122
 7765SOL    HW235175   0.411   4.160   4.254
 7766SOL     OW35176   0.283   4.069  19.940
 7766SOL    HW135177   0.311   3.978  19.930
 7766SOL    HW235178   0.350   4.119  19.895
 7767SOL     OW35179   1.896   4.377   5.114
 7767SOL    HW135180   1.900   4.319   5.190
 7767SOL    HW235181   1.935   4.459   5.145
 7768SOL     OW35182   3.392   3.465  11.645
 7768SOL    HW135183   3.318   3.427  11.597
 7768SOL    HW235184   3.351   3.531  11.702
 7769SOL     OW35185   0.634   3.343   1.427
 7769SOL    HW135186   0.671   3.272   1.480
 7769SOL    HW235187   0.640   3.420   1.484
 7770SOL     OW35188   2.859   2.253  16.586
 7770SOL    HW135189   2.895   2.280  16.501
 7770SOL    HW235190   2.893   2.164  16.599
 7771SOL     OW35191   2.830   3.410   3.228
 7771SOL    HW135192   2.742   3.442   3.210
 7771SOL    HW235193   2.858   3.460   3.305
 7772SOL     OW35194   1.098   1.540   3.856
 7772SOL    HW135195   1.169   1.586   3.901
 7772SOL    HW235196   1.141   1.493   3.784
 7773SOL     OW35197   3.652   1.429  17.553
 7773SOL    HW135198   3.670   1.522  17.543
 7773SOL    HW235199   3.672   1.391  17.467
 7774SOL     OW35200   0.182   4.587   1.511
 7774SOL    HW135201   0.256   4.644   1.531
 7774SOL    HW235202   0.207   4.544   1.429
 7775SOL     OW35203   1.726   3.020  16.153
 7775SOL    HW135204   1.749   3.032  16.245
 7775SOL    HW235205   1.739   2.927  16.136
 7776SOL     OW35206   1.817   4.613   1.377
 7776SOL    HW135207   1.806   4.608   1.283
 7776SOL    HW235208   1.845   4.526   1.403
 7777SOL     OW35209   0.181   0.887  19.380
 7777SOL    HW135210   0.115   0.860  19.443
 7777SOL    HW235211   0.224   0.962  19.420
 7778SOL     OW35212   0.307   0.406  21.269
 7778SOL    HW135213   0.275   0.411   0.082
 7778SOL    HW235214   0.277   0.488  21.228
 7779SOL     OW35215   3.343   2.226   1.591
 7779SOL    HW135216   3.377   2.139   1.614
 7779SOL    HW235217   3.385   2.245   1.507
 7780SOL     OW35218   3.049   3.647  15.374
 7780SOL    HW135219   3.071   3.726  15.324
 7780SOL    HW235220   3.132   3.601  15.384
 7781SOL     OW35221   2.753   1.297   1.031
 7781SOL    HW135222   2.757   1.201   1.027
 7781SOL    HW235223   2.662   1.318   1.011
 7782SOL     OW35224   0.407   1.031   0.621
 7782SOL    HW135225   0.371   1.044   0.533
 7782SOL    HW235226   0.381   1.110   0.669
 7783SOL     OW35227   1.145   2.858   2.749
 7783SOL    HW135228   1.217   2.801   2.777
 7783SOL    HW235229   1.104   2.810   2.677
 7784SOL     OW35230   1.917   0.626  20.551
 7784SOL    HW135231   1.956   0.566  20.614
 7784SOL    HW235232   1.863   0.570  20.495
 7785SOL     OW35233   3.878   4.011   5.388
 7785SOL    HW135234   3.925   4.036   5.468
 7785SOL    HW235235   3.804   4.072   5.384
 7786SOL     OW35236   3.834   1.020   2.984
 7786SOL    HW135237   3.775   1.073   3.037
 7786SOL    HW235238   3.801   1.027   2.895
 7787SOL     OW35239   3.743   4.395  17.716
 7787SOL    HW135240   3.652   4.396  17.686
 7787SOL    HW235241   3.766   4.303  17.721
 7788SOL     OW35242   0.410   4.559   6.305
 7788SOL    HW135243   0.378   4.567   6.395
 7788SOL    HW235244   0.391   4.468   6.281
 7789SOL     OW35245   2.255   2.339   3.480
 7789SOL    HW135246   2.346   2.361   3.498
 7789SOL    HW235247   2.259   2.283   3.403
 7790SOL     OW35248   4.622   2.852   1.239
 7790SOL    HW135249   4.559   2.902   1.187
 7790SOL    HW235250   4.584   2.851   1.327
 7791SOL     OW35251   1.412   3.628   5.549
 7791SOL    HW135252   1.450   3.598   5.631
 7791SOL    HW235253   1.359   3.556   5.518
 7792SOL     OW35254   3.510   4.082   5.632
 7792SOL    HW135255   3.494   4.005   5.577
 7792SOL    HW235256   3.529   4.046   5.719
 7793SOL     OW35257   2.606   3.838  16.863
 7793SOL    HW135258   2.622   3.931  16.849
 7793SOL    HW235259   2.640   3.796  16.784
 7794SOL     OW35260   0.263   1.013   4.363
 7794SOL    HW135261   0.240   1.008   4.456
 7794SOL    HW235262   0.321   0.939   4.349
 7795SOL     OW35263   2.212   1.635  11.700
 7795SOL    HW135264   2.209   1.593  11.614
 7795SOL    HW235265   2.295   1.681  11.702
 7796SOL     OW35266   3.880   1.133  17.200
 7796SOL    HW135267   3.954   1.090  17.243
 7796SOL    HW235268   3.854   1.072  17.130
 7797SOL     OW35269   0.445   1.932   6.140
 7797SOL    HW135270   0.375   1.960   6.200
 7797SOL    HW235271   0.399   1.906   6.060
 7798SOL     OW35272   3.886   4.712  21.205
 7798SOL    HW135273   3.872   4.673   0.015
 7798SOL    HW235274   3.971   4.757  21.212
 7799SOL     OW35275   2.514   4.520   3.933
 7799SOL    HW135276   2.499   4.517   4.028
 7799SOL    HW235277   2.429   4.541   3.896
 7800SOL     OW35278   0.959   2.046  21.189
 7800SOL    HW135279   1.039   1.994  21.196
 7800SOL    HW235280   0.909   2.024  21.268
 7801SOL     OW35281   0.362   3.181   1.509
 7801SOL    HW135282   0.364   3.119   1.582
 7801SOL    HW235283   0.305   3.252   1.540
 7802SOL     OW35284   2.555   0.885   0.167
 7802SOL    HW135285   2.623   0.836   0.121
 7802SOL    HW235286   2.560   0.974   0.131
 7803SOL     OW35287   0.977   2.377   4.921
 7803SOL    HW135288   0.964   2.356   4.828
 7803SOL    HW235289   0.976   2.473   4.924
 7804SOL     OW35290   2.694   3.610  19.844
 7804SOL    HW135291   2.653   3.672  19.904
 7804SOL    HW235292   2.692   3.526  19.890
 7805SOL     OW35293   2.084   4.647   0.973
 7805SOL    HW135294   2.017   4.583   0.995
 7805SOL    HW235295   2.139   4.653   1.052
 7806SOL     OW35296   1.087   3.306  17.711
 7806SOL    HW135297   1.068   3.375  17.648
 7806SOL    HW235298   1.012   3.246  17.704
 7807SOL     OW35299   1.685   3.868  18.703
 7807SOL    HW135300   1.652   3.825  18.782
 7807SOL    HW235301   1.773   3.898  18.727
 7808SOL     OW35302   3.255   2.302   1.071
 7808SOL    HW135303   3.161   2.295   1.054
 7808SOL    HW235304   3.261   2.359   1.147
 7809SOL     OW35305   1.329   0.506  17.526
 7809SOL    HW135306   1.394   0.472  17.465
 7809SOL    HW235307   1.298   0.587  17.486
 7810SOL     OW35308   1.324   3.335   2.659
 7810SOL    HW135309   1.363   3.248   2.667
 7810SOL    HW235310   1.368   3.387   2.726
 7811SOL     OW35311   4.228   4.122   3.079
 7811SOL    HW135312   4.319   4.150   3.065
 7811SOL    HW235313   4.187   4.130   2.993
 7812SOL     OW35314   1.280   2.011  10.365
 7812SOL    HW135315   1.194   2.048  10.346
 7812SOL    HW235316   1.269   1.917  10.351
 7813SOL     OW35317   3.511   0.373   1.752
 7813SOL    HW135318   3.536   0.403   1.665
 7813SOL    HW235319   3.421   0.341   1.742
 7814SOL     OW35320   3.587   4.153   3.377
 7814SOL    HW135321   3.636   4.228   3.411
 7814SOL    HW235322   3.630   4.133   3.293
 7815SOL     OW35323   2.210   2.677   0.620
 7815SOL    HW135324   2.217   2.764   0.581
 7815SOL    HW235325   2.197   2.618   0.546
 7816SOL     OW35326   2.841   2.466   3.770
 7816SOL    HW135327   2.864   2.374   3.753
 7816SOL    HW235328   2.922   2.507   3.799
 7817SOL     OW35329   2.600   1.434   3.121
 7817SOL    HW135330   2.673   1.424   3.059
 7817SOL    HW235331   2.550   1.353   3.113
 7818SOL     OW35332   3.287   1.499   8.823
 7818SOL    HW135333   3.197   1.531   8.830
 7818SOL    HW235334   3.292   1.427   8.886
 7819SOL     OW35335   1.241   4.215  20.303
 7819SOL    HW135336   1.299   4.291  20.295
 7819SOL    HW235337   1.215   4.214  20.395
 7820SOL     OW35338   3.584   4.270  14.811
 7820SOL    HW135339   3.667   4.309  14.786
 7820SOL    HW235340   3.556   4.320  14.887
 7821SOL     OW35341   0.850   2.283   0.890
 7821SOL    HW135342   0.942   2.294   0.913
 7821SOL    HW235343   0.851   2.234   0.808
 7822SOL     OW35344   0.581   3.997  14.722
 7822SOL    HW135345   0.516   4.003  14.652
 7822SOL    HW235346   0.597   4.088  14.747
 7823SOL     OW35347   0.476   0.870  15.616
 7823SOL    HW135348   0.571   0.874  15.628
 7823SOL    HW235349   0.449   0.961  15.608
 7824SOL     OW35350   0.180   3.430   8.857
 7824SOL    HW135351   0.263   3.454   8.899
 7824SOL    HW235352   0.206   3.398   8.770
 7825SOL     OW35353   1.458   0.641  19.959
 7825SOL    HW135354   1.529   0.697  19.928
 7825SOL    HW235355   1.402   0.699  20.009
 7826SOL     OW35356   4.089   3.883   1.095
 7826SOL    HW135357   4.149   3.937   1.146
 7826SOL    HW235358   4.079   3.930   1.012
 7827SOL     OW35359   3.720   0.748  16.423
 7827SOL    HW135360   3.816   0.757  16.424
 7827SOL    HW235361   3.704   0.662  16.461
 7828SOL     OW35362   0.700   1.401  19.168
 7828SOL    HW135363   0.611   1.422  19.139
 7828SOL    HW235364   0.687   1.352  19.250
 7829SOL     OW35365   1.198   2.061   2.204
 7829SOL    HW135366   1.233   2.149   2.193
 7829SOL    HW235367   1.105   2.068   2.182
 7830SOL     OW35368   1.903   0.092   2.037
 7830SOL    HW135369   1.917   0.130   1.950
 7830SOL    HW235370   1.811   0.066   2.037
 7831SOL     OW35371   3.813   4.541   2.304
 7831SOL    HW135372   3.744   4.607   2.315
 7831SOL    HW235373   3.794   4.500   2.220
 7832SOL     OW35374   0.949   0.171   0.043
 7832SOL    HW135375   0.896   0.250   0.058
 7832SOL    HW235376   0.904   0.103   0.093
 7833SOL     OW35377   3.905   1.583  14.297
 7833SOL    HW135378   3.989   1.626  14.311
 7833SOL    HW235379   3.869   1.625  14.219
 7834SOL     OW35380   1.881   0.119  14.911
 7834SOL    HW135381   1.914   0.030  14.899
 7834SOL    HW235382   1.871   0.153  14.822
 7835SOL     OW35383   2.991   1.597  14.537
 7835SOL    HW135384   3.070   1.549  14.514
 7835SOL    HW235385   2.968   1.567  14.625
 7836SOL     OW35386   2.377   2.154  13.763
 7836SOL    HW135387   2.469   2.163  13.786
 7836SOL    HW235388   2.334   2.127  13.844
 7837SOL     OW35389   4.547   0.171   2.032
 7837SOL    HW135390   4.535   0.238   1.964
 7837SOL    HW235391   4.607   0.108   1.993
 7838SOL     OW35392   2.314   3.289  16.170
 7838SOL    HW135393   2.347   3.375  16.195
 7838SOL    HW235394   2.221   3.291  16.193
 7839SOL     OW35395   2.442   0.510   2.937
 7839SOL    HW135396   2.500   0.469   2.873
 7839SOL    HW235397   2.447   0.453   3.014
 7840SOL     OW35398   3.989   2.926   0.662
 7840SOL    HW135399   4.005   2.895   0.573
 7840SOL    HW235400   3.944   2.854   0.705
 7841SOL     OW35401   0.678   4.687  20.809
 7841SOL    HW135402   0.738   4.712  20.739
 7841SOL    HW235403   0.591   4.702  20.773
 7842SOL     OW35404   0.291   2.390  19.071
 7842SOL    HW135405   0.380   2.355  19.077
 7842SOL    HW235406   0.297   2.461  19.007
 7843SOL     OW35407   3.700   3.307   0.532
 7843SOL    HW135408   3.774   3.248   0.534
 7843SOL    HW235409   3.737   3.392   0.509
 7844SOL     OW35410   3.069   2.081   2.306
 7844SOL    HW135411   3.038   2.077   2.397
 7844SOL    HW235412   3.004   2.137   2.262
 7845SOL     OW35413   0.335   3.255  17.962
 7845SOL    HW135414   0.394   3.329  17.977
 7845SOL    HW235415   0.275   3.285  17.894
 7846SOL     OW35416   3.270   2.620  15.463
 7846SOL    HW135417   3.190   2.597  15.510
 7846SOL    HW235418   3.327   2.657  15.529
 7847SOL     OW35419   0.056   1.497   4.262
 7847SOL    HW135420   0.042   1.409   4.227
 7847SOL    HW235421   0.128   1.487   4.325
 7848SOL     OW35422   3.743   1.491   1.337
 7848SOL    HW135423   3.835   1.467   1.339
 7848SOL    HW235424   3.729   1.527   1.249
 7849SOL     OW35425   0.360   4.443  17.260
 7849SOL    HW135426   0.398   4.374  17.313
 7849SOL    HW235427   0.435   4.495  17.231
 7850SOL     OW35428   4.600   2.134  20.970
 7850SOL    HW135429   4.663   2.186  20.919
 7850SOL    HW235430   4.622   2.153  21.061
 7851SOL     OW35431   3.623   1.080  20.641
 7851SOL    HW135432   3.568   1.101  20.565
 7851SOL    HW235433   3.694   1.028  20.605
 7852SOL     OW35434   1.824   1.578   3.840
 7852SOL    HW135435   1.730   1.582   3.825
 7852SOL    HW235436   1.856   1.511   3.780
 7853SOL     OW35437   1.726   2.592  16.522
 7853SOL    HW135438   1.716   2.613  16.429
 7853SOL    HW235439   1.818   2.613  16.542
 7854SOL     OW35440   2.921   1.583   2.380
 7854SOL    HW135441   2.900   1.515   2.444
 7854SOL    HW235442   2.911   1.665   2.429
 7855SOL     OW35443   0.211   1.127  18.562
 7855SOL    HW135444   0.191   1.125  18.468
 7855SOL    HW235445   0.172   1.209  18.593
 7856SOL     OW35446   2.412   4.693   6.119
 7856SOL    HW135447   2.410   4.616   6.062
 7856SOL    HW235448   2.483   4.747   6.084
 7857SOL     OW35449   4.170   3.434   8.316
 7857SOL    HW135450   4.116   3.410   8.241
 7857SOL    HW235451   4.249   3.471   8.277
 7858SOL     OW35452   0.123   2.427   5.256
 7858SOL    HW135453   0.086   2.431   5.168
 7858SOL    HW235454   0.209   2.468   5.248
 7859SOL     OW35455   2.265   2.716   2.029
 7859SOL    HW135456   2.267   2.788   1.966
 7859SOL    HW235457   2.188   2.665   2.004
 7860SOL     OW35458   0.074   0.465   5.806
 7860SOL    HW135459   0.118   0.512   5.736
 7860SOL    HW235460   0.062   0.376   5.772
 7861SOL     OW35461   0.237   3.614  18.224
 7861SOL    HW135462   0.319   3.566  18.221
 7861SOL    HW235463   0.261   3.700  18.258
 7862SOL     OW35464   1.824   3.942  14.209
 7862SOL    HW135465   1.865   4.023  14.179
 7862SOL    HW235466   1.731   3.965  14.215
 7863SOL     OW35467   3.356   0.216   0.282
 7863SOL    HW135468   3.324   0.219   0.372
 7863SOL    HW235469   3.424   0.284   0.279
 7864SOL     OW35470   2.118   4.445   6.450
 7864SOL    HW135471   2.131   4.406   6.364
 7864SOL    HW235472   2.075   4.376   6.502
 7865SOL     OW35473   0.034   0.950  16.665
 7865SOL    HW135474   0.018   0.857  16.684
 7865SOL    HW235475   4.779   0.996  16.733
 7866SOL     OW35476   1.554   3.817  20.678
 7866SOL    HW135477   1.583   3.852  20.594
 7866SOL    HW235478   1.517   3.892  20.724
 7867SOL     OW35479   0.839   2.528   3.266
 7867SOL    HW135480   0.760   2.521   3.211
 7867SOL    HW235481   0.806   2.551   3.353
 7868SOL     OW35482   2.560   2.886  15.036
 7868SOL    HW135483   2.597   2.973  15.054
 7868SOL    HW235484   2.509   2.866  15.114
 7869SOL     OW35485   1.772   0.918   1.009
 7869SOL    HW135486   1.784   0.987   0.944
 7869SOL    HW235487   1.693   0.873   0.981
 7870SOL     OW35488   4.650   2.971   0.322
 7870SOL    HW135489   4.727   2.958   0.377
 7870SOL    HW235490   4.665   2.916   0.245
 7871SOL     OW35491   4.216   0.002  19.882
 7871SOL    HW135492   4.201   4.726  19.818
 7871SOL    HW235493   4.255   4.751  19.957
 7872SOL     OW35494   3.646   2.540  18.445
 7872SOL    HW135495   3.589   2.594  18.500
 7872SOL    HW235496   3.623   2.450  18.468
 7873SOL     OW35497   2.856   2.700   2.809
 7873SOL    HW135498   2.894   2.613   2.825
 7873SOL    HW235499   2.770   2.696   2.852
 7874SOL     OW35500   4.593   3.308  19.944
 7874SOL    HW135501   4.608   3.306  19.850
 7874SOL    HW235502   4.533   3.235  19.961
 7875SOL     OW35503   2.898   2.058   0.702
 7875SOL    HW135504   2.873   2.005   0.777
 7875SOL    HW235505   2.973   2.012   0.664
 7876SOL     OW35506   1.079   2.250  20.336
 7876SOL    HW135507   1.086   2.182  20.403
 7876SOL    HW235508   1.103   2.206  20.254
 7877SOL     OW35509   1.122   1.368   5.146
 7877SOL    HW135510   1.055   1.300   5.140
 7877SOL    HW235511   1.149   1.383   5.055
 7878SOL     OW35512   0.620   3.557  17.023
 7878SOL    HW135513   0.690   3.609  16.984
 7878SOL    HW235514   0.629   3.470  16.983
 7879SOL     OW35515   1.150   3.343   2.271
 7879SOL    HW135516   1.087   3.322   2.203
 7879SOL    HW235517   1.100   3.337   2.353
 7880SOL     OW35518   3.125   4.022  18.128
 7880SOL    HW135519   3.099   3.993  18.216
 7880SOL    HW235520   3.059   4.089  18.106
 7881SOL     OW35521   3.987   3.074   7.956
 7881SOL    HW135522   3.950   2.985   7.952
 7881SOL    HW235523   3.930   3.126   7.899
 7882SOL     OW35524   1.481   4.728   2.983
 7882SOL    HW135525   1.399   4.697   2.946
 7882SOL    HW235526   1.513   4.793   2.920
 7883SOL     OW35527   3.216   2.821   2.707
 7883SOL    HW135528   3.253   2.870   2.780
 7883SOL    HW235529   3.135   2.868   2.686
 7884SOL     OW35530   4.509   2.068  17.581
 7884SOL    HW135531   4.446   2.023  17.526
 7884SOL    HW235532   4.585   2.082  17.524
 7885SOL     OW35533   1.817   4.697  16.279
 7885SOL    HW135534   1.769   4.650  16.347
 7885SOL    HW235535   1.799   4.648  16.199
 7886SOL     OW35536   0.279   3.641  16.557
 7886SOL    HW135537   0.221   3.676  16.490
 7886SOL    HW235538   0.357   3.614  16.508
 7887SOL     OW35539   3.978   3.916  15.597
 7887SOL    HW135540   3.957   3.891  15.507
 7887SOL    HW235541   3.993   4.010  15.593
 7888SOL     OW35542   0.669   1.983  19.506
 7888SOL    HW135543   0.579   1.954  19.521
 7888SOL    HW235544   0.660   2.065  19.457
 7889SOL     OW35545   3.275   4.017  11.307
 7889SOL    HW135546   3.345   4.008  11.371
 7889SOL    HW235547   3.207   3.956  11.336
 7890SOL     OW35548   3.223   4.650  19.118
 7890SOL    HW135549   3.196   4.721  19.177
 7890SOL    HW235550   3.195   4.679  19.032
 7891SOL     OW35551   3.913   2.763   1.167
 7891SOL    HW135552   3.908   2.768   1.262
 7891SOL    HW235553   3.999   2.724   1.150
 7892SOL     OW35554   4.339   0.929  16.700
 7892SOL    HW135555   4.347   1.023  16.713
 7892SOL    HW235556   4.372   0.890  16.781
 7893SOL     OW35557   1.809   3.907  17.945
 7893SOL    HW135558   1.790   3.883  18.036
 7893SOL    HW235559   1.724   3.920  17.905
 7894SOL     OW35560   2.680   3.684  14.906
 7894SOL    HW135561   2.628   3.706  14.829
 7894SOL    HW235562   2.644   3.739  14.976
 7895SOL     OW35563   3.104   1.043   5.110
 7895SOL    HW135564   3.125   1.090   5.030
 7895SOL    HW235565   3.172   0.975   5.116
 7896SOL     OW35566   2.824   0.064   0.944
 7896SOL    HW135567   2.913   0.033   0.956
 7896SOL    HW235568   2.822   0.151   0.983
 7897SOL     OW35569   0.601   1.338  17.883
 7897SOL    HW135570   0.676   1.324  17.825
 7897SOL    HW235571   0.624   1.416  17.934
 7898SOL     OW35572   0.198   0.844   5.355
 7898SOL    HW135573   0.261   0.899   5.308
 7898SOL    HW235574   0.113   0.870   5.318
 7899SOL     OW35575   0.558   4.349  17.570
 7899SOL    HW135576   0.598   4.425  17.612
 7899SOL    HW235577   0.625   4.317  17.509
 7900SOL     OW35578   2.517   0.002  15.911
 7900SOL    HW135579   2.455   4.741  15.959
 7900SOL    HW235580   2.463   0.071  15.872
 7901SOL     OW35581   3.738   0.826   3.852
 7901SOL    HW135582   3.742   0.741   3.808
 7901SOL    HW235583   3.692   0.882   3.790
 7902SOL     OW35584   2.268   4.722   5.052
 7902SOL    HW135585   2.250   4.649   4.992
 7902SOL    HW235586   2.345   4.765   5.015
 7903SOL     OW35587   3.893   1.164  18.982
 7903SOL    HW135588   3.956   1.102  19.021
 7903SOL    HW235589   3.890   1.139  18.889
 7904SOL     OW35590   0.499   0.221   2.836
 7904SOL    HW135591   0.538   0.143   2.878
 7904SOL    HW235592   0.481   0.193   2.747
 7905SOL     OW35593   3.589   3.410   6.004
 7905SOL    HW135594   3.510   3.417   6.058
 7905SOL    HW235595   3.559   3.371   5.922
 7906SOL     OW35596   3.302   0.154   4.353
 7906SOL    HW135597   3.269   0.209   4.282
 7906SOL    HW235598   3.396   0.150   4.338
 7907SOL     OW35599   2.014   4.734  13.762
 7907SOL    HW135600   1.922   4.744  13.787
 7907SOL    HW235601   2.025   4.792  13.686
 7908SOL     OW35602   0.591   3.408  13.694
 7908SOL    HW135603   0.499   3.407  13.668
 7908SOL    HW235604   0.590   3.437  13.785
 7909SOL     OW35605   4.204   0.792  16.503
 7909SOL    HW135606   4.263   0.740  16.448
 7909SOL    HW235607   4.263   0.849  16.554
 7910SOL     OW35608   4.481   3.314  13.745
 7910SOL    HW135609   4.539   3.243  13.773
 7910SOL    HW235610   4.500   3.385  13.805
 7911SOL     OW35611   2.465   2.804   0.019
 7911SOL    HW135612   2.493   2.895   0.031
 7911SOL    HW235613   2.520   2.754   0.080
 7912SOL     OW35614   0.678   1.195   2.012
 7912SOL    HW135615   0.766   1.164   1.995
 7912SOL    HW235616   0.621   1.123   1.985
 7913SOL     OW35617   1.636   1.954   2.458
 7913SOL    HW135618   1.594   2.025   2.410
 7913SOL    HW235619   1.593   1.955   2.544
 7914SOL     OW35620   4.129   4.665  19.503
 7914SOL    HW135621   4.120   4.646  19.596
 7914SOL    HW235622   4.055   4.722  19.483
 7915SOL     OW35623   3.796   4.173  17.461
 7915SOL    HW135624   3.892   4.168  17.459
 7915SOL    HW235625   3.770   4.105  17.523
 7916SOL     OW35626   0.042   0.342  19.810
 7916SOL    HW135627   0.086   0.262  19.839
 7916SOL    HW235628   0.109   0.410  19.816
 7917SOL     OW35629   4.056   2.237   3.970
 7917SOL    HW135630   4.025   2.182   3.898
 7917SOL    HW235631   4.000   2.314   3.969
 7918SOL     OW35632   0.303   2.631   0.204
 7918SOL    HW135633   0.384   2.581   0.196
 7918SOL    HW235634   0.327   2.709   0.253
 7919SOL     OW35635   1.895   2.165  19.299
 7919SOL    HW135636   1.894   2.259  19.316
 7919SOL    HW235637   1.928   2.157  19.209
 7920SOL     OW35638   1.713   0.747  17.264
 7920SOL    HW135639   1.744   0.801  17.337
 7920SOL    HW235640   1.709   0.658  17.300
 7921SOL     OW35641   0.438   3.333  15.733
 7921SOL    HW135642   0.465   3.392  15.804
 7921SOL    HW235643   0.430   3.389  15.656
 7922SOL     OW35644   0.343   3.943   1.956
 7922SOL    HW135645   0.426   3.964   1.914
 7922SOL    HW235646   0.363   3.870   2.015
 7923SOL     OW35647   1.264   3.620   3.772
 7923SOL    HW135648   1.227   3.533   3.788
 7923SOL    HW235649   1.199   3.681   3.806
 7924SOL     OW35650   1.976   4.686  14.816
 7924SOL    HW135651   2.044   4.649  14.760
 7924SOL    HW235652   1.902   4.626  14.807
 7925SOL     OW35653   2.733   4.208  15.036
 7925SOL    HW135654   2.655   4.259  15.057
 7925SOL    HW235655   2.720   4.183  14.945
 7926SOL     OW35656   4.601   0.714   1.780
 7926SOL    HW135657   4.564   0.724   1.868
 7926SOL    HW235658   4.601   0.803   1.744
 7927SOL     OW35659   1.699   2.890  15.049
 7927SOL    HW135660   1.682   2.968  15.102
 7927SOL    HW235661   1.710   2.819  15.113
 7928SOL     OW35662   2.817   1.197  21.211
 7928SOL    HW135663   2.786   1.256  21.142
 7928SOL    HW235664   2.856   1.123  21.163
 7929SOL     OW35665   3.582   2.913  18.416
 7929SOL    HW135666   3.633   2.881  18.490
 7929SOL    HW235667   3.646   2.919  18.344
 7930SOL     OW35668   4.221   4.315  15.464
 7930SOL    HW135669   4.171   4.338  15.385
 7930SOL    HW235670   4.169   4.350  15.536
 7931SOL     OW35671   0.565   1.298   1.318
 7931SOL    HW135672   0.550   1.346   1.237
 7931SOL    HW235673   0.591   1.366   1.381
 7932SOL     OW35674   2.191   4.630   3.116
 7932SOL    HW135675   2.129   4.579   3.167
 7932SOL    HW235676   2.138   4.671   3.047
 7933SOL     OW35677   1.202   1.575  16.920
 7933SOL    HW135678   1.180   1.508  16.855
 7933SOL    HW235679   1.274   1.538  16.970
 7934SOL     OW35680   4.753   2.853  16.618
 7934SOL    HW135681   4.788   2.819  16.536
 7934SOL    HW235682   4.685   2.915  16.591
 7935SOL     OW35683   1.578   0.606   4.252
 7935SOL    HW135684   1.546   0.694   4.233
 7935SOL    HW235685   1.555   0.591   4.344
 7936SOL     OW35686   0.644   3.188  13.509
 7936SOL    HW135687   0.591   3.125  13.558
 7936SOL    HW235688   0.668   3.254  13.573
 7937SOL     OW35689   3.677   3.322  19.468
 7937SOL    HW135690   3.659   3.339  19.561
 7937SOL    HW235691   3.718   3.403  19.437
 7938SOL     OW35692   3.392   2.285  17.448
 7938SOL    HW135693   3.383   2.373  17.410
 7938SOL    HW235694   3.471   2.290  17.501
 7939SOL     OW35695   0.846   3.915  18.665
 7939SOL    HW135696   0.896   3.848  18.619
 7939SOL    HW235697   0.801   3.964  18.596
 7940SOL     OW35698   3.292   2.415  16.215
 7940SOL    HW135699   3.275   2.495  16.165
 7940SOL    HW235700   3.305   2.347  16.149
 7941SOL     OW35701   2.186   0.989   0.247
 7941SOL    HW135702   2.234   0.906   0.249
 7941SOL    HW235703   2.209   1.033   0.328
 7942SOL     OW35704   4.662   3.272  20.879
 7942SOL    HW135705   4.623   3.355  20.905
 7942SOL    HW235706   4.664   3.220  20.959
 7943SOL     OW35707   3.496   4.768  14.962
 7943SOL    HW135708   3.493   4.731  14.873
 7943SOL    HW235709   3.404   4.785  14.984
 7944SOL     OW35710   0.548   4.276  16.179
 7944SOL    HW135711   0.626   4.253  16.129
 7944SOL    HW235712   0.507   4.346  16.129
 7945SOL     OW35713   0.522   2.099  16.217
 7945SOL    HW135714   0.598   2.070  16.167
 7945SOL    HW235715   0.540   2.069  16.307
 7946SOL     OW35716   0.421   1.436  19.787
 7946SOL    HW135717   0.370   1.515  19.806
 7946SOL    HW235718   0.417   1.428  19.691
 7947SOL     OW35719   2.744   2.355   5.069
 7947SOL    HW135720   2.676   2.340   5.135
 7947SOL    HW235721   2.790   2.433   5.100
 7948SOL     OW35722   1.441   0.638   1.175
 7948SOL    HW135723   1.368   0.697   1.158
 7948SOL    HW235724   1.472   0.612   1.088
 7949SOL     OW35725   1.003   3.364  18.832
 7949SOL    HW135726   1.098   3.360  18.823
 7949SOL    HW235727   0.974   3.412  18.754
 7950SOL     OW35728   3.569   2.102   3.397
 7950SOL    HW135729   3.502   2.085   3.331
 7950SOL    HW235730   3.625   2.169   3.357
 7951SOL     OW35731   0.467   0.777   1.050
 7951SOL    HW135732   0.407   0.706   1.027
 7951SOL    HW235733   0.516   0.744   1.125
 7952SOL     OW35734   2.933   2.784   0.831
 7952SOL    HW135735   2.878   2.706   0.824
 7952SOL    HW235736   2.906   2.825   0.913
 7953SOL     OW35737   2.120   1.394  20.788
 7953SOL    HW135738   2.078   1.479  20.773
 7953SOL    HW235739   2.214   1.413  20.782
 7954SOL     OW35740   3.374   1.938  20.237
 7954SOL    HW135741   3.346   1.936  20.145
 7954SOL    HW235742   3.469   1.929  20.233
 7955SOL     OW35743   0.556   0.323   6.090
 7955SOL    HW135744   0.642   0.321   6.132
 7955SOL    HW235745   0.570   0.373   6.010
 7956SOL     OW35746   1.321   0.438   7.226
 7956SOL    HW135747   1.367   0.356   7.245
 7956SOL    HW235748   1.255   0.444   7.295
 7957SOL     OW35749   2.012   1.329  15.531
 7957SOL    HW135750   2.019   1.400  15.467
 7957SOL    HW235751   1.929   1.345  15.575
 7958SOL     OW35752   4.497   4.389  15.452
 7958SOL    HW135753   4.407   4.359  15.466
 7958SOL    HW235754   4.550   4.310  15.464
 7959SOL     OW35755   4.612   3.622   2.085
 7959SOL    HW135756   4.571   3.624   2.171
 7959SOL    HW235757   4.558   3.561   2.034
 7960SOL     OW35758   0.089   1.204   4.240
 7960SOL    HW135759   0.145   1.134   4.273
 7960SOL    HW235760   0.055   1.171   4.157
 7961SOL     OW35761   3.268   2.205  15.033
 7961SOL    HW135762   3.356   2.168  15.022
 7961SOL    HW235763   3.226   2.191  14.948
 7962SOL     OW35764   1.267   1.669   5.537
 7962SOL    HW135765   1.253   1.760   5.562
 7962SOL    HW235766   1.307   1.629   5.614
 7963SOL     OW35767   1.053   3.707   0.402
 7963SOL    HW135768   1.117   3.706   0.331
 7963SOL    HW235769   0.968   3.703   0.358
 7964SOL     OW35770   3.591   1.211   9.297
 7964SOL    HW135771   3.505   1.229   9.336
 7964SOL    HW235772   3.581   1.234   9.205
 7965SOL     OW35773   4.501   4.076  20.687
 7965SOL    HW135774   4.513   3.981  20.681
 7965SOL    HW235775   4.459   4.100  20.604
 7966SOL     OW35776   2.224   4.762   0.521
 7966SOL    HW135777   2.264   4.789   0.438
 7966SOL    HW235778   2.298   4.754   0.581
 7967SOL     OW35779   2.298   3.766   6.880
 7967SOL    HW135780   2.355   3.842   6.869
 7967SOL    HW235781   2.267   3.772   6.971
 7968SOL     OW35782   0.781   3.624  15.156
 7968SOL    HW135783   0.796   3.530  15.150
 7968SOL    HW235784   0.692   3.632  15.192
 7969SOL     OW35785   0.166   1.099  17.395
 7969SOL    HW135786   0.232   1.052  17.446
 7969SOL    HW235787   0.104   1.032  17.368
 7970SOL     OW35788   2.567   2.825  13.008
 7970SOL    HW135789   2.561   2.834  13.103
 7970SOL    HW235790   2.549   2.733  12.991
 7971SOL     OW35791   3.111   3.814   0.632
 7971SOL    HW135792   3.200   3.850   0.641
 7971SOL    HW235793   3.119   3.749   0.562
 7972SOL     OW35794   1.968   1.165  17.023
 7972SOL    HW135795   2.042   1.199  16.973
 7972SOL    HW235796   1.978   1.070  17.021
 7973SOL     OW35797   0.577   1.971   1.701
 7973SOL    HW135798   0.579   1.886   1.657
 7973SOL    HW235799   0.657   1.973   1.753
 7974SOL     OW35800   0.618   2.642   5.675
 7974SOL    HW135801   0.563   2.709   5.715
 7974SOL    HW235802   0.559   2.594   5.617
 7975SOL     OW35803   3.819   0.182   4.805
 7975SOL    HW135804   3.752   0.249   4.818
 7975SOL    HW235805   3.811   0.125   4.882
 7976SOL     OW35806   0.818   1.148  11.381
 7976SOL    HW135807   0.748   1.180  11.439
 7976SOL    HW235808   0.828   1.056  11.405
 7977SOL     OW35809   4.097   4.659  16.077
 7977SOL    HW135810   4.163   4.679  16.144
 7977SOL    HW235811   4.014   4.667  16.124
 7978SOL     OW35812   4.676   4.487  19.109
 7978SOL    HW135813   4.763   4.505  19.073
 7978SOL    HW235814   4.615   4.519  19.042
 7979SOL     OW35815   4.496   1.086  19.893
 7979SOL    HW135816   4.423   1.113  19.837
 7979SOL    HW235817   4.478   0.994  19.912
 7980SOL     OW35818   0.565   2.969   1.676
 7980SOL    HW135819   0.566   2.874   1.668
 7980SOL    HW235820   0.480   2.990   1.715
 7981SOL     OW35821   3.931   0.274  19.123
 7981SOL    HW135822   3.836   0.281  19.115
 7981SOL    HW235823   3.964   0.359  19.094
 7982SOL     OW35824   0.401   0.469   5.694
 7982SOL    HW135825   0.378   0.451   5.603
 7982SOL    HW235826   0.486   0.426   5.707
 7983SOL     OW35827   0.366   1.662   4.165
 7983SOL    HW135828   0.413   1.745   4.152
 7983SOL    HW235829   0.428   1.607   4.212
 7984SOL     OW35830   0.339   3.550   2.952
 7984SOL    HW135831   0.243   3.547   2.955
 7984SOL    HW235832   0.364   3.612   3.021
 7985SOL     OW35833   2.330   1.509   6.240
 7985SOL    HW135834   2.362   1.433   6.191
 7985SOL    HW235835   2.243   1.484   6.269
 7986SOL     OW35836   2.275   0.881   5.553
 7986SOL    HW135837   2.311   0.866   5.641
 7986SOL    HW235838   2.229   0.964   5.561
 7987SOL     OW35839   3.880   0.068  18.057
 7987SOL    HW135840   3.846   0.089  17.969
 7987SOL    HW235841   3.873   4.767  18.063
 7988SOL     OW35842   1.448   1.272   8.709
 7988SOL    HW135843   1.377   1.298   8.650
 7988SOL    HW235844   1.523   1.256   8.650
 7989SOL     OW35845   2.715   2.078  19.110
 7989SOL    HW135846   2.756   2.136  19.174
 7989SOL    HW235847   2.677   2.137  19.045
 7990SOL     OW35848   1.079   4.258   2.764
 7990SOL    HW135849   1.167   4.282   2.792
 7990SOL    HW235850   1.037   4.222   2.842
 7991SOL     OW35851   3.826   4.432  16.022
 7991SOL    HW135852   3.759   4.416  15.955
 7991SOL    HW235853   3.886   4.495  15.982
 7992SOL     OW35854   2.800   0.399  21.122
 7992SOL    HW135855   2.762   0.403  21.209
 7992SOL    HW235856   2.871   0.335  21.130
 7993SOL     OW35857   2.607   4.415  19.951
 7993SOL    HW135858   2.556   4.334  19.947
 7993SOL    HW235859   2.698   4.387  19.948
 7994SOL     OW35860   3.300   4.609  14.369
 7994SOL    HW135861   3.258   4.624  14.284
 7994SOL    HW235862   3.381   4.659  14.366
 7995SOL     OW35863   4.789   4.431  14.538
 7995SOL    HW135864   0.046   4.511  14.544
 7995SOL    HW235865   4.744   4.425  14.623
 7996SOL     OW35866   0.068   3.796  13.164
 7996SOL    HW135867   0.019   3.754  13.093
 7996SOL    HW235868   0.158   3.769  13.150
 7997SOL     OW35869   1.991   2.552  15.577
 7997SOL    HW135870   1.993   2.621  15.642
 7997SOL    HW235871   1.898   2.528  15.570
 7998SOL     OW35872   4.034   3.444   2.589
 7998SOL    HW135873   3.989   3.526   2.610
 7998SOL    HW235874   4.009   3.385   2.660
 7999SOL     OW35875   2.694   2.825   2.259
 7999SOL    HW135876   2.658   2.913   2.258
 7999SOL    HW235877   2.617   2.768   2.260
 8000SOL     OW35878   1.692   1.307  19.014
 8000SOL    HW135879   1.771   1.271  19.054
 8000SOL    HW235880   1.652   1.361  19.082
 8001SOL     OW35881   0.293   1.052  15.707
 8001SOL    HW135882   0.211   1.094  15.733
 8001SOL    HW235883   0.342   1.121  15.664
 8002SOL     OW35884   2.767   1.150   3.922
 8002SOL    HW135885   2.851   1.150   3.968
 8002SOL    HW235886   2.702   1.139   3.991
 8003SOL     OW35887   3.422   1.572   6.813
 8003SOL    HW135888   3.355   1.638   6.834
 8003SOL    HW235889   3.499   1.599   6.863
 8004SOL     OW35890   2.168   1.275  17.336
 8004SOL    HW135891   2.210   1.237  17.259
 8004SOL    HW235892   2.178   1.369  17.326
 8005SOL     OW35893   3.534   4.043   5.908
 8005SOL    HW135894   3.480   3.974   5.945
 8005SOL    HW235895   3.607   4.051   5.970
 8006SOL     OW35896   2.787   3.420  19.439
 8006SOL    HW135897   2.809   3.352  19.504
 8006SOL    HW235898   2.759   3.495  19.492
 8007SOL     OW35899   2.522   0.597  17.146
 8007SOL    HW135900   2.469   0.647  17.208
 8007SOL    HW235901   2.457   0.551  17.091
 8008SOL     OW35902   2.269   4.156   2.709
 8008SOL    HW135903   2.264   4.231   2.768
 8008SOL    HW235904   2.288   4.082   2.766
 8009SOL     OW35905   1.811   3.576   4.118
 8009SOL    HW135906   1.906   3.565   4.115
 8009SOL    HW235907   1.779   3.496   4.159
 8010SOL     OW35908   1.286   1.852   0.926
 8010SOL    HW135909   1.245   1.921   0.873
 8010SOL    HW235910   1.229   1.843   1.002
 8011SOL     OW35911   3.522   3.831  16.810
 8011SOL    HW135912   3.495   3.917  16.778
 8011SOL    HW235913   3.618   3.835  16.809
 8012SOL     OW35914   0.064   2.052   4.129
 8012SOL    HW135915   0.086   1.962   4.103
 8012SOL    HW235916   0.117   2.107   4.072
 8013SOL     OW35917   2.118   1.032  19.043
 8013SOL    HW135918   2.174   1.003  18.972
 8013SOL    HW235919   2.032   1.045  19.003
 8014SOL     OW35920   1.267   3.174  19.995
 8014SOL    HW135921   1.331   3.103  20.002
 8014SOL    HW235922   1.263   3.212  20.083
 8015SOL     OW35923   3.914   3.146   0.514
 8015SOL    HW135924   3.996   3.134   0.466
 8015SOL    HW235925   3.916   3.079   0.582
 8016SOL     OW35926   4.471   0.127  18.367
 8016SOL    HW135927   4.407   0.058  18.348
 8016SOL    HW235928   4.540   0.082  18.415
 8017SOL     OW35929   1.981   2.272   2.544
 8017SOL    HW135930   1.990   2.367   2.544
 8017SOL    HW235931   2.057   2.240   2.494
 8018SOL     OW35932   3.743   1.941   3.569
 8018SOL    HW135933   3.698   1.997   3.505
 8018SOL    HW235934   3.675   1.882   3.600
 8019SOL     OW35935   3.539   3.151   4.779
 8019SOL    HW135936   3.568   3.131   4.868
 8019SOL    HW235937   3.459   3.202   4.792
 8020SOL     OW35938   2.125   2.307   2.820
 8020SOL    HW135939   2.174   2.372   2.769
 8020SOL    HW235940   2.041   2.300   2.775
 8021SOL     OW35941   2.387   2.569  15.316
 8021SOL    HW135942   2.455   2.562  15.383
 8021SOL    HW235943   2.312   2.524  15.354
 8022SOL     OW35944   0.849   2.137  16.186
 8022SOL    HW135945   0.876   2.062  16.238
 8022SOL    HW235946   0.837   2.103  16.098
 8023SOL     OW35947   1.914   1.740  18.584
 8023SOL    HW135948   1.964   1.701  18.655
 8023SOL    HW235949   1.861   1.807  18.626
 8024SOL     OW35950   2.076   2.175   0.353
 8024SOL    HW135951   2.119   2.201   0.435
 8024SOL    HW235952   2.042   2.256   0.317
 8025SOL     OW35953   4.529   3.737  17.202
 8025SOL    HW135954   4.481   3.805  17.249
 8025SOL    HW235955   4.619   3.743  17.235
 8026SOL     OW35956   1.153   1.182  15.553
 8026SOL    HW135957   1.089   1.252  15.563
 8026SOL    HW235958   1.140   1.127  15.630
 8027SOL     OW35959   2.579   0.272  12.834
 8027SOL    HW135960   2.485   0.264  12.846
 8027SOL    HW235961   2.615   0.271  12.923
 8028SOL     OW35962   0.103   1.054  13.967
 8028SOL    HW135963   0.023   1.023  13.924
 8028SOL    HW235964   0.144   1.112  13.903
 8029SOL     OW35965   0.357   4.067   2.237
 8029SOL    HW135966   0.284   4.043   2.294
 8029SOL    HW235967   0.337   4.026   2.153
 8030SOL     OW35968   2.398   3.628  20.367
 8030SOL    HW135969   2.320   3.589  20.327
 8030SOL    HW235970   2.367   3.662  20.451
 8031SOL     OW35971   3.527   1.654  20.181
 8031SOL    HW135972   3.600   1.614  20.133
 8031SOL    HW235973   3.562   1.668  20.269
 8032SOL     OW35974   1.430   3.216  18.504
 8032SOL    HW135975   1.335   3.225  18.495
 8032SOL    HW235976   1.462   3.210  18.415
 8033SOL     OW35977   1.859   2.504   2.213
 8033SOL    HW135978   1.926   2.444   2.246
 8033SOL    HW235979   1.790   2.448   2.179
 8034SOL     OW35980   1.875   1.379  19.522
 8034SOL    HW135981   1.966   1.406  19.514
 8034SOL    HW235982   1.860   1.371  19.616
 8035SOL     OW35983   1.850   2.994  12.832
 8035SOL    HW135984   1.758   2.967  12.831
 8035SOL    HW235985   1.847   3.089  12.840
 8036SOL     OW35986   4.112   3.214   1.751
 8036SOL    HW135987   4.177   3.215   1.680
 8036SOL    HW235988   4.066   3.297   1.742
 8037SOL     OW35989   1.412   2.945   0.980
 8037SOL    HW135990   1.341   3.010   0.980
 8037SOL    HW235991   1.472   2.977   0.913
 8038SOL     OW35992   3.522   2.408   3.366
 8038SOL    HW135993   3.599   2.360   3.336
 8038SOL    HW235994   3.504   2.471   3.296
 8039SOL     OW35995   2.765   3.243   0.262
 8039SOL    HW135996   2.744   3.326   0.306
 8039SOL    HW235997   2.861   3.239   0.263
 8040SOL     OW35998   1.066   0.948  14.674
 8040SOL    HW135999   1.144   1.002  14.686
 8040SOL    HW236000   0.994   1.011  14.674
 8041SOL     OW36001   3.491   2.836  16.773
 8041SOL    HW136002   3.427   2.880  16.716
 8041SOL    HW236003   3.445   2.758  16.805
 8042SOL     OW36004   0.766   1.244  15.104
 8042SOL    HW136005   0.807   1.272  15.186
 8042SOL    HW236006   0.836   1.253  15.039
 8043SOL     OW36007   3.408   2.991   4.337
 8043SOL    HW136008   3.380   3.072   4.294
 8043SOL    HW236009   3.502   2.985   4.319
 8044SOL     OW36010   2.476   0.054  17.641
 8044SOL    HW136011   2.530   4.774  17.666
 8044SOL    HW236012   2.388   0.017  17.627
 8045SOL     OW36013   0.541   2.370   2.225
 8045SOL    HW136014   0.611   2.426   2.261
 8045SOL    HW236015   0.528   2.402   2.136
 8046SOL     OW36016   4.184   3.789  20.178
 8046SOL    HW136017   4.109   3.730  20.170
 8046SOL    HW236018   4.239   3.750  20.246
 8047SOL     OW36019   4.412   0.238  13.859
 8047SOL    HW136020   4.379   0.318  13.899
 8047SOL    HW236021   4.366   0.168  13.905
 8048SOL     OW36022   1.964   0.129   5.480
 8048SOL    HW136023   2.007   0.210   5.456
 8048SOL    HW236024   1.922   0.099   5.399
 8049SOL     OW36025   1.529   4.178   2.616
 8049SOL    HW136026   1.564   4.149   2.701
 8049SOL    HW236027   1.532   4.100   2.561
 8050SOL     OW36028   1.259   0.011  19.775
 8050SOL    HW136029   1.232   4.716  19.793
 8050SOL    HW236030   1.317   0.004  19.700
 8051SOL     OW36031   0.482   4.439  14.639
 8051SOL    HW136032   0.514   4.520  14.678
 8051SOL    HW236033   0.522   4.369  14.691
 8052SOL     OW36034   0.478   2.923  17.139
 8052SOL    HW136035   0.463   2.892  17.050
 8052SOL    HW236036   0.450   2.850  17.194
 8053SOL     OW36037   3.604   0.389   1.141
 8053SOL    HW136038   3.604   0.385   1.045
 8053SOL    HW236039   3.696   0.377   1.165
 8054SOL     OW36040   3.285   2.760  15.017
 8054SOL    HW136041   3.320   2.674  14.993
 8054SOL    HW236042   3.223   2.742  15.087
 8055SOL     OW36043   3.150   3.636   4.012
 8055SOL    HW136044   3.102   3.570   4.061
 8055SOL    HW236045   3.087   3.670   3.949
 8056SOL     OW36046   3.322   4.410  19.621
 8056SOL    HW136047   3.389   4.353  19.658
 8056SOL    HW236048   3.249   4.404  19.683
 8057SOL     OW36049   1.398   3.186   6.777
 8057SOL    HW136050   1.373   3.279   6.773
 8057SOL    HW236051   1.317   3.138   6.762
 8058SOL     OW36052   0.853   3.547   5.715
 8058SOL    HW136053   0.855   3.520   5.806
 8058SOL    HW236054   0.855   3.643   5.718
 8059SOL     OW36055   0.942   0.565   2.869
 8059SOL    HW136056   0.852   0.532   2.873
 8059SOL    HW236057   0.941   0.641   2.927
 8060SOL     OW36058   4.038   0.617   5.422
 8060SOL    HW136059   4.040   0.711   5.405
 8060SOL    HW236060   4.079   0.578   5.345
 8061SOL     OW36061   2.013   2.839  17.280
 8061SOL    HW136062   2.012   2.744  17.269
 8061SOL    HW236063   1.928   2.860  17.318
 8062SOL     OW36064   1.921   2.738  16.741
 8062SOL    HW136065   1.975   2.756  16.819
 8062SOL    HW236066   1.847   2.798  16.750
 8063SOL     OW36067   2.849   3.808   5.915
 8063SOL    HW136068   2.920   3.846   5.863
 8063SOL    HW236069   2.875   3.717   5.927
 8064SOL     OW36070   1.013   3.906  18.315
 8064SOL    HW136071   1.064   3.987  18.314
 8064SOL    HW236072   0.925   3.933  18.339
 8065SOL     OW36073   3.651   0.360   0.873
 8065SOL    HW136074   3.605   0.277   0.856
 8065SOL    HW236075   3.591   0.427   0.841
 8066SOL     OW36076   1.413   2.196  17.458
 8066SOL    HW136077   1.373   2.124  17.506
 8066SOL    HW236078   1.433   2.159  17.372
 8067SOL     OW36079   4.512   1.194  15.349
 8067SOL    HW136080   4.498   1.212  15.442
 8067SOL    HW236081   4.572   1.120  15.348
 8068SOL     OW36082   4.397   4.358   3.221
 8068SOL    HW136083   4.420   4.438   3.174
 8068SOL    HW236084   4.302   4.349   3.207
 8069SOL     OW36085   3.487   1.015   2.868
 8069SOL    HW136086   3.435   1.028   2.789
 8069SOL    HW236087   3.577   1.028   2.840
 8070SOL     OW36088   1.970   3.040   3.729
 8070SOL    HW136089   2.006   3.018   3.816
 8070SOL    HW236090   1.940   2.956   3.695
 8071SOL     OW36091   1.099   1.437  18.855
 8071SOL    HW136092   1.073   1.410  18.768
 8071SOL    HW236093   1.020   1.429  18.908
 8072SOL     OW36094   4.732   4.680   5.452
 8072SOL    HW136095   4.793   4.749   5.479
 8072SOL    HW236096   4.775   4.599   5.479
 8073SOL     OW36097   4.624   0.203   2.560
 8073SOL    HW136098   4.680   0.280   2.551
 8073SOL    HW236099   4.560   0.227   2.626
 8074SOL     OW36100   0.982   1.365  18.623
 8074SOL    HW136101   1.016   1.299  18.563
 8074SOL    HW236102   0.891   1.341  18.637
 8075SOL     OW36103   2.939   1.943  19.065
 8075SOL    HW136104   2.963   1.892  19.142
 8075SOL    HW236105   2.854   1.982  19.089
 8076SOL     OW36106   4.719   0.254   0.488
 8076SOL    HW136107   4.748   0.164   0.500
 8076SOL    HW236108   4.770   0.304   0.552
 8077SOL     OW36109   0.969   3.934  16.495
 8077SOL    HW136110   0.942   4.026  16.502
 8077SOL    HW236111   1.011   3.915  16.579
 8078SOL     OW36112   2.519   0.486   4.446
 8078SOL    HW136113   2.549   0.563   4.496
 8078SOL    HW236114   2.496   0.521   4.360
 8079SOL     OW36115   4.256   2.767   6.048
 8079SOL    HW136116   4.221   2.682   6.020
 8079SOL    HW236117   4.319   2.791   5.980
 8080SOL     OW36118   3.097   1.551  17.492
 8080SOL    HW136119   3.008   1.553  17.528
 8080SOL    HW236120   3.144   1.619  17.540
 8081SOL     OW36121   4.348   4.678   2.348
 8081SOL    HW136122   4.290   4.609   2.318
 8081SOL    HW236123   4.320   4.698   2.437
 8082SOL     OW36124   0.850   0.802  18.488
 8082SOL    HW136125   0.775   0.773  18.436
 8082SOL    HW236126   0.868   0.891  18.458
 8083SOL     OW36127   3.248   4.202  16.363
 8083SOL    HW136128   3.200   4.197  16.445
 8083SOL    HW236129   3.316   4.135  16.371
 8084SOL     OW36130   2.279   1.713   3.728
 8084SOL    HW136131   2.305   1.622   3.712
 8084SOL    HW236132   2.354   1.751   3.773
 8085SOL     OW36133   2.192   3.539   4.839
 8085SOL    HW136134   2.132   3.614   4.852
 8085SOL    HW236135   2.200   3.500   4.926
 8086SOL     OW36136   1.208   3.426  16.667
 8086SOL    HW136137   1.232   3.475  16.588
 8086SOL    HW236138   1.150   3.357  16.636
 8087SOL     OW36139   1.048   2.717   4.007
 8087SOL    HW136140   1.050   2.649   4.074
 8087SOL    HW236141   1.070   2.797   4.054
 8088SOL     OW36142   0.409   3.121  15.345
 8088SOL    HW136143   0.400   3.040  15.294
 8088SOL    HW236144   0.479   3.102  15.408
 8089SOL     OW36145   2.809   2.688  18.143
 8089SOL    HW136146   2.856   2.606  18.163
 8089SOL    HW236147   2.718   2.669  18.165
 8090SOL     OW36148   1.925   1.904   2.453
 8090SOL    HW136149   1.834   1.931   2.442
 8090SOL    HW236150   1.939   1.906   2.548
 8091SOL     OW36151   1.580   2.411   2.863
 8091SOL    HW136152   1.662   2.362   2.855
 8091SOL    HW236153   1.600   2.483   2.923
 8092SOL     OW36154   1.556   4.482  17.792
 8092SOL    HW136155   1.486   4.486  17.726
 8092SOL    HW236156   1.585   4.391  17.790
 8093SOL     OW36157   1.796   3.945  20.809
 8093SOL    HW136158   1.834   3.949  20.721
 8093SOL    HW236159   1.762   4.033  20.824
 8094SOL     OW36160   3.914   1.060  16.493
 8094SOL    HW136161   3.916   0.979  16.442
 8094SOL    HW236162   3.970   1.042  16.568
 8095SOL     OW36163   1.247   2.307   5.321
 8095SOL    HW136164   1.233   2.329   5.413
 8095SOL    HW236165   1.159   2.300   5.284
 8096SOL     OW36166   3.404   0.162  18.272
 8096SOL    HW136167   3.371   0.251  18.287
 8096SOL    HW236168   3.494   0.175  18.241
 8097SOL     OW36169   2.263   4.744  18.567
 8097SOL    HW136170   2.205   4.670  18.549
 8097SOL    HW236171   2.320   4.748  18.490
 8098SOL     OW36172   4.474   0.749   2.029
 8098SOL    HW136173   4.403   0.743   2.092
 8098SOL    HW236174   4.552   0.765   2.082
 8099SOL     OW36175   2.267   2.207   5.916
 8099SOL    HW136176   2.300   2.183   5.830
 8099SOL    HW236177   2.319   2.155   5.977
 8100SOL     OW36178   2.130   4.451   3.489
 8100SOL    HW136179   2.062   4.444   3.422
 8100SOL    HW236180   2.095   4.402   3.563
 8101SOL     OW36181   4.000   1.339  17.355
 8101SOL    HW136182   3.986   1.251  17.319
 8101SOL    HW236183   3.923   1.389  17.326
 8102SOL     OW36184   1.004   1.384  17.790
 8102SOL    HW136185   1.095   1.363  17.768
 8102SOL    HW236186   1.008   1.420  17.878
 8103SOL     OW36187   4.317   3.946  19.829
 8103SOL    HW136188   4.315   3.972  19.737
 8103SOL    HW236189   4.402   3.903  19.841
 8104SOL     OW36190   4.583   1.948   6.611
 8104SOL    HW136191   4.610   2.020   6.667
 8104SOL    HW236192   4.572   1.874   6.670
 8105SOL     OW36193   4.632   2.736   2.720
 8105SOL    HW136194   4.609   2.708   2.809
 8105SOL    HW236195   4.550   2.766   2.682
 8106SOL     OW36196   0.437   3.042  17.843
 8106SOL    HW136197   0.526   3.042  17.879
 8106SOL    HW236198   0.400   3.126  17.872
 8107SOL     OW36199   0.915   1.554   5.129
 8107SOL    HW136200   0.956   1.581   5.048
 8107SOL    HW236201   0.976   1.490   5.167
 8108SOL     OW36202   2.964   3.194   1.611
 8108SOL    HW136203   2.914   3.271   1.640
 8108SOL    HW236204   3.040   3.192   1.670
 8109SOL     OW36205   2.184   0.549  19.469
 8109SOL    HW136206   2.092   0.534  19.493
 8109SOL    HW236207   2.197   0.493  19.393
 8110SOL     OW36208   2.296   0.195   5.420
 8110SOL    HW136209   2.359   0.137   5.377
 8110SOL    HW236210   2.252   0.241   5.348
 8111SOL     OW36211   2.159   4.567   1.451
 8111SOL    HW136212   2.104   4.490   1.461
 8111SOL    HW236213   2.166   4.604   1.539
 8112SOL     OW36214   4.761   1.052   5.556
 8112SOL    HW136215   4.736   1.045   5.648
 8112SOL    HW236216   0.061   1.035   5.555
 8113SOL     OW36217   4.300   1.045  21.137
 8113SOL    HW136218   4.358   1.122  21.145
 8113SOL    HW236219   4.360   0.972  21.120
 8114SOL     OW36220   1.658   1.612  20.334
 8114SOL    HW136221   1.697   1.626  20.420
 8114SOL    HW236222   1.718   1.550  20.291
 8115SOL     OW36223   2.170   1.039   4.822
 8115SOL    HW136224   2.238   0.974   4.803
 8115SOL    HW236225   2.134   1.011   4.907
 8116SOL     OW36226   2.207   1.287   2.783
 8116SOL    HW136227   2.294   1.250   2.792
 8116SOL    HW236228   2.150   1.227   2.831
 8117SOL     OW36229   2.295   2.833  14.826
 8117SOL    HW136230   2.325   2.854  14.915
 8117SOL    HW236231   2.374   2.841  14.772
 8118SOL     OW36232   1.038   0.938  16.196
 8118SOL    HW136233   1.025   0.887  16.116
 8118SOL    HW236234   0.976   1.011  16.188
 8119SOL     OW36235   3.056   2.503  17.965
 8119SOL    HW136236   3.102   2.545  17.891
 8119SOL    HW236237   3.117   2.511  18.038
 8120SOL     OW36238   1.547   4.544   1.313
 8120SOL    HW136239   1.617   4.572   1.371
 8120SOL    HW236240   1.467   4.581   1.351
 8121SOL     OW36241   1.353   0.800  16.253
 8121SOL    HW136242   1.344   0.804  16.348
 8121SOL    HW236243   1.441   0.832  16.236
 8122SOL     OW36244   0.346   3.126   6.726
 8122SOL    HW136245   0.409   3.143   6.656
 8122SOL    HW236246   0.267   3.175   6.699
 8123SOL     OW36247   2.611   0.379  19.515
 8123SOL    HW136248   2.597   0.310  19.580
 8123SOL    HW236249   2.624   0.333  19.433
 8124SOL     OW36250   2.315   2.453   2.710
 8124SOL    HW136251   2.330   2.491   2.623
 8124SOL    HW236252   2.402   2.424   2.738
 8125SOL     OW36253   1.775   0.466   8.302
 8125SOL    HW136254   1.744   0.545   8.256
 8125SOL    HW236255   1.824   0.500   8.377
 8126SOL     OW36256   2.818   1.678   4.917
 8126SOL    HW136257   2.809   1.608   4.983
 8126SOL    HW236258   2.758   1.652   4.847
 8127SOL     OW36259   3.079   3.237  16.322
 8127SOL    HW136260   3.137   3.263  16.251
 8127SOL    HW236261   2.992   3.265  16.293
 8128SOL     OW36262   1.998   0.490   3.199
 8128SOL    HW136263   2.030   0.399   3.195
 8128SOL    HW236264   1.908   0.482   3.230
 8129SOL     OW36265   4.052   1.652   5.320
 8129SOL    HW136266   3.962   1.681   5.331
 8129SOL    HW236267   4.048   1.557   5.323
 8130SOL     OW36268   2.987   3.912   2.305
 8130SOL    HW136269   2.961   4.002   2.287
 8130SOL    HW236270   3.028   3.881   2.224
 8131SOL     OW36271   2.971   4.553  19.632
 8131SOL    HW136272   3.034   4.570  19.562
 8131SOL    HW236273   3.016   4.494  19.692
 8132SOL     OW36274   3.172   3.589  19.236
 8132SOL    HW136275   3.182   3.657  19.303
 8132SOL    HW236276   3.078   3.586  19.219
 8133SOL     OW36277   0.295   2.058   2.521
 8133SOL    HW136278   0.245   2.072   2.601
 8133SOL    HW236279   0.239   2.003   2.466
 8134SOL     OW36280   2.313   3.309  14.727
 8134SOL    HW136281   2.264   3.390  14.741
 8134SOL    HW236282   2.340   3.283  14.815
 8135SOL     OW36283   2.720   4.702   0.722
 8135SOL    HW136284   2.707   4.623   0.774
 8135SOL    HW236285   2.781   4.755   0.773
 8136SOL     OW36286   3.914   4.609  18.174
 8136SOL    HW136287   3.839   4.553  18.158
 8136SOL    HW236288   3.959   4.614  18.090
 8137SOL     OW36289   2.855   4.507  16.958
 8137SOL    HW136290   2.927   4.570  16.958
 8137SOL    HW236291   2.779   4.558  16.988
 8138SOL     OW36292   0.348   3.683  20.323
 8138SOL    HW136293   0.311   3.617  20.381
 8138SOL    HW236294   0.442   3.681  20.341
 8139SOL     OW36295   0.243   2.746  20.396
 8139SOL    HW136296   0.318   2.726  20.452
 8139SOL    HW236297   0.279   2.744  20.307
 8140SOL     OW36298   2.040   2.310  18.646
 8140SOL    HW136299   2.049   2.216  18.632
 8140SOL    HW236300   2.128   2.345  18.630
 8141SOL     OW36301   0.725   0.902  19.426
 8141SOL    HW136302   0.813   0.936  19.411
 8141SOL    HW236303   0.684   0.901  19.339
 8142SOL     OW36304   4.194   0.262  19.771
 8142SOL    HW136305   4.202   0.318  19.848
 8142SOL    HW236306   4.209   0.174  19.805
 8143SOL     OW36307   3.880   2.558   6.974
 8143SOL    HW136308   3.866   2.637   6.921
 8143SOL    HW236309   3.840   2.578   7.059
 8144SOL     OW36310   2.935   1.037   0.509
 8144SOL    HW136311   2.881   1.056   0.433
 8144SOL    HW236312   3.019   1.011   0.473
 8145SOL     OW36313   1.718   4.019   0.351
 8145SOL    HW136314   1.696   4.089   0.290
 8145SOL    HW236315   1.788   3.970   0.308
 8146SOL     OW36316   2.486   0.505   8.721
 8146SOL    HW136317   2.514   0.428   8.671
 8146SOL    HW236318   2.436   0.470   8.794
 8147SOL     OW36319   0.977   4.070   5.913
 8147SOL    HW136320   0.994   4.032   5.999
 8147SOL    HW236321   0.948   4.159   5.930
 8148SOL     OW36322   1.777   4.602   5.392
 8148SOL    HW136323   1.769   4.697   5.398
 8148SOL    HW236324   1.868   4.584   5.417
 8149SOL     OW36325   2.980   0.411   3.766
 8149SOL    HW136326   2.909   0.475   3.762
 8149SOL    HW236327   2.987   0.377   3.676
 8150SOL     OW36328   2.614   4.521   1.300
 8150SOL    HW136329   2.624   4.582   1.227
 8150SOL    HW236330   2.554   4.454   1.268
 8151SOL     OW36331   3.734   2.865   6.364
 8151SOL    HW136332   3.806   2.815   6.325
 8151SOL    HW236333   3.736   2.842   6.456
 8152SOL     OW36334   2.533   2.619  16.233
 8152SOL    HW136335   2.490   2.550  16.181
 8152SOL    HW236336   2.465   2.684  16.249
 8153SOL     OW36337   2.599   2.939   6.859
 8153SOL    HW136338   2.632   2.851   6.879
 8153SOL    HW236339   2.525   2.951   6.919
 8154SOL     OW36340   2.689   2.615  19.376
 8154SOL    HW136341   2.629   2.540  19.375
 8154SOL    HW236342   2.691   2.644  19.467
 8155SOL     OW36343   3.815   2.778   3.573
 8155SOL    HW136344   3.833   2.818   3.657
 8155SOL    HW236345   3.762   2.701   3.594
 8156SOL     OW36346   3.687   1.670   6.900
 8156SOL    HW136347   3.685   1.725   6.822
 8156SOL    HW236348   3.726   1.726   6.968
 8157SOL     OW36349   0.914   0.370   1.263
 8157SOL    HW136350   0.830   0.370   1.308
 8157SOL    HW236351   0.932   0.277   1.246
 8158SOL     OW36352   3.181   2.569   1.530
 8158SOL    HW136353   3.194   2.571   1.625
 8158SOL    HW236354   3.094   2.529   1.519
 8159SOL     OW36355   0.162   2.316   4.825
 8159SOL    HW136356   0.126   2.303   4.737
 8159SOL    HW236357   0.100   2.270   4.883
 8160SOL     OW36358   1.205   2.802  15.861
 8160SOL    HW136359   1.246   2.862  15.799
 8160SOL    HW236360   1.185   2.856  15.937
 8161SOL     OW36361   3.432   2.611   1.117
 8161SOL    HW136362   3.357   2.658   1.082
 8161SOL    HW236363   3.507   2.668   1.097
 8162SOL     OW36364   2.809   3.309  16.253
 8162SOL    HW136365   2.781   3.379  16.312
 8162SOL    HW236366   2.745   3.239  16.266
 8163SOL     OW36367   2.537   3.278   5.157
 8163SOL    HW136368   2.531   3.353   5.098
 8163SOL    HW236369   2.529   3.201   5.100
 8164SOL     OW36370   2.169   2.888   8.708
 8164SOL    HW136371   2.074   2.880   8.702
 8164SOL    HW236372   2.189   2.967   8.657
 8165SOL     OW36373   0.293   0.304   5.916
 8165SOL    HW136374   0.273   0.391   5.882
 8165SOL    HW236375   0.269   0.308   6.008
 8166SOL     OW36376   3.417   3.023  18.775
 8166SOL    HW136377   3.378   3.104  18.807
 8166SOL    HW236378   3.508   3.026  18.806
 8167SOL     OW36379   2.630   1.130   3.154
 8167SOL    HW136380   2.674   1.090   3.229
 8167SOL    HW236381   2.696   1.127   3.084
 8168SOL     OW36382   3.542   1.073   5.989
 8168SOL    HW136383   3.571   1.001   5.933
 8168SOL    HW236384   3.496   1.132   5.930
 8169SOL     OW36385   1.482   3.113  12.693
 8169SOL    HW136386   1.541   3.081  12.624
 8169SOL    HW236387   1.530   3.100  12.774
 8170SOL     OW36388   0.912   4.134  20.587
 8170SOL    HW136389   0.969   4.096  20.521
 8170SOL    HW236390   0.830   4.150  20.541
 8171SOL     OW36391   0.192   1.194   5.814
 8171SOL    HW136392   0.213   1.138   5.740
 8171SOL    HW236393   0.177   1.280   5.776
 8172SOL     OW36394   1.765   0.025   6.394
 8172SOL    HW136395   1.847   4.782   6.428
 8172SOL    HW236396   1.791   0.107   6.352
 8173SOL     OW36397   4.491   2.998  16.297
 8173SOL    HW136398   4.527   3.071  16.348
 8173SOL    HW236399   4.407   2.978  16.339
 8174SOL     OW36400   0.524   1.230  15.556
 8174SOL    HW136401   0.491   1.224  15.467
 8174SOL    HW236402   0.514   1.323  15.579
 8175SOL     OW36403   0.056   0.010  16.236
 8175SOL    HW136404   0.120   0.024  16.305
 8175SOL    HW236405   0.109   4.790  16.157
 8176SOL     OW36406   3.265   4.143   3.691
 8176SOL    HW136407   3.281   4.114   3.601
 8176SOL    HW236408   3.346   4.187   3.717
 8177SOL     OW36409   1.523   1.326  13.699
 8177SOL    HW136410   1.469   1.261  13.655
 8177SOL    HW236411   1.507   1.311  13.792
 8178SOL     OW36412   1.424   4.106  15.287
 8178SOL    HW136413   1.455   4.189  15.322
 8178SOL    HW236414   1.340   4.091  15.330
 8179SOL     OW36415   4.071   3.104  20.133
 8179SOL    HW136416   4.116   3.024  20.163
 8179SOL    HW236417   4.110   3.174  20.185
 8180SOL     OW36418   3.291   2.417   3.932
 8180SOL    HW136419   3.243   2.467   3.866
 8180SOL    HW236420   3.340   2.482   3.981
 8181SOL     OW36421   1.006   4.314   3.894
 8181SOL    HW136422   0.979   4.334   3.805
 8181SOL    HW236423   1.097   4.285   3.886
 8182SOL     OW36424   0.186   3.011  17.272
 8182SOL    HW136425   0.274   2.994  17.306
 8182SOL    HW236426   0.194   3.095  17.227
 8183SOL     OW36427   1.645   2.781   1.473
 8183SOL    HW136428   1.679   2.697   1.501
 8183SOL    HW236429   1.643   2.775   1.377
 8184SOL     OW36430   4.242   0.560   4.301
 8184SOL    HW136431   4.336   0.550   4.311
 8184SOL    HW236432   4.206   0.472   4.315
 8185SOL     OW36433   4.708   0.359  15.866
 8185SOL    HW136434   4.715   0.437  15.922
 8185SOL    HW236435   4.679   0.290  15.925
 8186SOL     OW36436   4.109   1.010   4.360
 8186SOL    HW136437   4.151   0.927   4.379
 8186SOL    HW236438   4.052   0.992   4.285
 8187SOL     OW36439   4.747   3.429   0.311
 8187SOL    HW136440   4.687   3.406   0.240
 8187SOL    HW236441   4.700   3.495   0.362
 8188SOL     OW36442   0.063   0.044   1.861
 8188SOL    HW136443   0.063   0.120   1.803
 8188SOL    HW236444   4.780   4.788   1.836
 8189SOL     OW36445   0.302   4.606   2.214
 8189SOL    HW136446   0.292   4.672   2.145
 8189SOL    HW236447   0.319   4.525   2.166
 8190SOL     OW36448   2.252   1.923   4.888
 8190SOL    HW136449   2.194   1.974   4.945
 8190SOL    HW236450   2.325   1.897   4.945
 8191SOL     OW36451   0.352   2.047   0.122
 8191SOL    HW136452   0.258   2.052   0.106
 8191SOL    HW236453   0.389   2.121   0.075
 8192SOL     OW36454   2.387   4.098  16.403
 8192SOL    HW136455   2.436   4.106  16.321
 8192SOL    HW236456   2.447   4.051  16.461
 8193SOL     OW36457   2.052   0.995   4.095
 8193SOL    HW136458   1.974   0.942   4.078
 8193SOL    HW236459   2.105   0.941   4.153
 8194SOL     OW36460   0.715   3.493   3.401
 8194SOL    HW136461   0.784   3.510   3.466
 8194SOL    HW236462   0.638   3.537   3.436
 8195SOL     OW36463   4.320   3.452  20.081
 8195SOL    HW136464   4.238   3.479  20.123
 8195SOL    HW236465   4.360   3.534  20.051
 8196SOL     OW36466   2.994   0.089   7.357
 8196SOL    HW136467   2.899   0.102   7.363
 8196SOL    HW236468   3.005   4.790   7.342
 8197SOL     OW36469   3.869   3.513  16.930
 8197SOL    HW136470   3.784   3.556  16.917
 8197SOL    HW236471   3.851   3.442  16.991
 8198SOL     OW36472   2.745   3.807  18.065
 8198SOL    HW136473   2.814   3.752  18.101
 8198SOL    HW236474   2.702   3.751  18.000
 8199SOL     OW36475   4.641   2.003   0.576
 8199SOL    HW136476   4.582   1.931   0.554
 8199SOL    HW236477   4.653   1.994   0.671
 8200SOL     OW36478   4.207   2.834  16.114
 8200SOL    HW136479   4.138   2.896  16.091
 8200SOL    HW236480   4.278   2.852  16.053
 8201SOL     OW36481   2.692   0.943  16.011
 8201SOL    HW136482   2.696   1.039  16.007
 8201SOL    HW236483   2.775   0.914  15.973
 8202SOL     OW36484   3.806   1.994   9.278
 8202SOL    HW136485   3.874   1.999   9.211
 8202SOL    HW236486   3.805   1.902   9.305
 8203SOL     OW36487   1.330   2.907  20.519
 8203SOL    HW136488   1.318   2.826  20.569
 8203SOL    HW236489   1.367   2.968  20.583
 8204SOL     OW36490   0.342   0.530  13.287
 8204SOL    HW136491   0.330   0.603  13.226
 8204SOL    HW236492   0.413   0.478  13.249
 8205SOL     OW36493   0.473   0.216  16.707
 8205SOL    HW136494   0.522   0.227  16.625
 8205SOL    HW236495   0.509   0.282  16.766
 8206SOL     OW36496   2.603   0.753   3.417
 8206SOL    HW136497   2.695   0.775   3.407
 8206SOL    HW236498   2.593   0.734   3.510
 8207SOL     OW36499   4.282   4.179   5.936
 8207SOL    HW136500   4.346   4.204   5.869
 8207SOL    HW236501   4.237   4.103   5.899
 8208SOL     OW36502   4.576   4.098  15.324
 8208SOL    HW136503   4.537   4.149  15.254
 8208SOL    HW236504   4.650   4.150  15.354
 8209SOL     OW36505   0.893   0.048  19.289
 8209SOL    HW136506   0.857   0.010  19.370
 8209SOL    HW236507   0.910   0.139  19.312
 8210SOL     OW36508   3.163   0.451   6.756
 8210SOL    HW136509   3.086   0.451   6.700
 8210SOL    HW236510   3.142   0.511   6.827
 8211SOL     OW36511   0.946   1.050   3.153
 8211SOL    HW136512   0.951   1.073   3.245
 8211SOL    HW236513   0.855   1.070   3.129
 8212SOL     OW36514   3.327   4.164  13.662
 8212SOL    HW136515   3.388   4.109  13.711
 8212SOL    HW236516   3.263   4.192  13.727
 8213SOL     OW36517   2.071   1.563   6.955
 8213SOL    HW136518   2.014   1.599   7.023
 8213SOL    HW236519   2.012   1.522   6.893
 8214SOL     OW36520   3.940   1.381  15.432
 8214SOL    HW136521   3.942   1.355  15.524
 8214SOL    HW236522   3.952   1.476  15.433
 8215SOL     OW36523   3.566   0.633  17.425
 8215SOL    HW136524   3.485   0.603  17.468
 8215SOL    HW236525   3.636   0.600  17.481
 8216SOL     OW36526   1.824   3.797  12.874
 8216SOL    HW136527   1.787   3.881  12.846
 8216SOL    HW236528   1.747   3.743  12.896
 8217SOL     OW36529   4.298   1.071   0.244
 8217SOL    HW136530   4.375   1.127   0.232
 8217SOL    HW236531   4.292   1.058   0.338
 8218SOL     OW36532   0.858   3.088  14.086
 8218SOL    HW136533   0.898   3.128  14.163
 8218SOL    HW236534   0.925   3.094  14.018
 8219SOL     OW36535   3.582   0.707  18.951
 8219SOL    HW136536   3.644   0.772  18.986
 8219SOL    HW236537   3.504   0.757  18.929
 8220SOL     OW36538   2.798   2.868   1.059
 8220SOL    HW136539   2.706   2.864   1.032
 8220SOL    HW236540   2.796   2.920   1.139
 8221SOL     OW36541   0.527   3.765  21.056
 8221SOL    HW136542   0.488   3.699  21.114
 8221SOL    HW236543   0.486   3.750  20.971
 8222SOL     OW36544   2.931   1.467  18.318
 8222SOL    HW136545   2.848   1.483  18.362
 8222SOL    HW236546   2.967   1.390  18.363
 8223SOL     OW36547   2.461   2.065   4.728
 8223SOL    HW136548   2.417   2.149   4.739
 8223SOL    HW236549   2.399   2.001   4.764
 8224SOL     OW36550   4.697   1.995  16.634
 8224SOL    HW136551   4.729   2.064  16.692
 8224SOL    HW236552   4.666   1.927  16.693
 8225SOL     OW36553   1.537   2.645   0.417
 8225SOL    HW136554   1.488   2.612   0.341
 8225SOL    HW236555   1.487   2.722   0.446
 8226SOL     OW36556   0.467   4.292  18.765
 8226SOL    HW136557   0.433   4.210  18.798
 8226SOL    HW236558   0.545   4.309  18.818
 8227SOL     OW36559   2.278   3.392   0.252
 8227SOL    HW136560   2.359   3.364   0.210
 8227SOL    HW236561   2.210   3.376   0.186
 8228SOL     OW36562   2.362   0.029   4.237
 8228SOL    HW136563   2.457   0.034   4.221
 8228SOL    HW236564   2.354   0.032   4.332
 8229SOL     OW36565   3.530   0.458   0.288
 8229SOL    HW136566   3.522   0.451   0.383
 8229SOL    HW236567   3.456   0.514   0.262
 8230SOL     OW36568   3.008   4.252   8.034
 8230SOL    HW136569   2.985   4.340   8.065
 8230SOL    HW236570   2.942   4.195   8.074
 8231SOL     OW36571   2.845   3.849   5.342
 8231SOL    HW136572   2.839   3.934   5.298
 8231SOL    HW236573   2.913   3.801   5.295
 8232SOL     OW36574   4.702   4.684  18.781
 8232SOL    HW136575   4.766   4.718  18.844
 8232SOL    HW236576   4.717   4.590  18.780
 8233SOL     OW36577   4.764   1.250  18.073
 8233SOL    HW136578   0.027   1.188  18.026
 8233SOL    HW236579   4.701   1.279  18.006
 8234SOL     OW36580   4.715   2.741  12.284
 8234SOL    HW136581   4.695   2.664  12.338
 8234SOL    HW236582   4.771   2.795  12.340
 8235SOL     OW36583   3.808   0.064  14.677
 8235SOL    HW136584   3.733   0.070  14.618
 8235SOL    HW236585   3.820   0.152  14.711
 8236SOL     OW36586   2.581   3.846  19.953
 8236SOL    HW136587   2.536   3.845  20.037
 8236SOL    HW236588   2.529   3.907  19.899
 8237SOL     OW36589   3.129   2.988   0.010
 8237SOL    HW136590   3.126   2.892   0.014
 8237SOL    HW236591   3.222   3.009   0.001
 8238SOL     OW36592   2.625   0.087   6.048
 8238SOL    HW136593   2.700   0.052   6.000
 8238SOL    HW236594   2.646   0.072   6.140
 8239SOL     OW36595   2.694   3.334   1.944
 8239SOL    HW136596   2.761   3.398   1.917
 8239SOL    HW236597   2.743   3.253   1.957
 8240SOL     OW36598   3.248   2.691   3.694
 8240SOL    HW136599   3.329   2.726   3.733
 8240SOL    HW236600   3.271   2.601   3.669
 8241SOL     OW36601   4.669   4.585  21.131
 8241SOL    HW136602   4.691   4.632  21.051
 8241SOL    HW236603   4.577   4.562  21.120
 8242SOL     OW36604   1.852   4.254   6.285
 8242SOL    HW136605   1.879   4.216   6.369
 8242SOL    HW236606   1.819   4.341   6.308
 8243SOL     OW36607   4.018   0.557   4.689
 8243SOL    HW136608   4.051   0.496   4.755
 8243SOL    HW236609   4.034   0.514   4.605
 8244SOL     OW36610   0.614   0.051   1.193
 8244SOL    HW136611   0.553   4.772   1.182
 8244SOL    HW236612   0.571   0.124   1.148
 8245SOL     OW36613   4.014   4.580  18.445
 8245SOL    HW136614   4.041   4.645  18.511
 8245SOL    HW236615   3.993   4.632  18.367
 8246SOL     OW36616   3.768   3.618   8.689
 8246SOL    HW136617   3.703   3.653   8.627
 8246SOL    HW236618   3.814   3.695   8.722
 8247SOL     OW36619   3.499   2.543  21.074
 8247SOL    HW136620   3.411   2.580  21.071
 8247SOL    HW236621   3.511   2.518  21.166
 8248SOL     OW36622   0.433   0.562  14.610
 8248SOL    HW136623   0.390   0.564  14.525
 8248SOL    HW236624   0.441   0.469  14.632
 8249SOL     OW36625   1.447   1.466   2.003
 8249SOL    HW136626   1.445   1.522   2.081
 8249SOL    HW236627   1.456   1.527   1.930
 8250SOL     OW36628   2.003   4.791  16.494
 8250SOL    HW136629   2.083   4.748  16.526
 8250SOL    HW236630   1.980   4.742  16.415
 8251SOL     OW36631   0.883   1.498  18.286
 8251SOL    HW136632   0.793   1.508  18.318
 8251SOL    HW236633   0.916   1.588  18.280
 8252SOL     OW36634   1.931   0.031  21.148
 8252SOL    HW136635   1.908   0.039  21.056
 8252SOL    HW236636   1.853   0.059  21.196
 8253SOL     OW36637   4.050   2.304  21.014
 8253SOL    HW136638   4.107   2.310  20.936
 8253SOL    HW236639   4.104   2.339  21.085
 8254SOL     OW36640   3.342   0.286   5.782
 8254SOL    HW136641   3.402   0.237   5.726
 8254SOL    HW236642   3.398   0.327   5.848
 8255SOL     OW36643   0.163   1.395   2.829
 8255SOL    HW136644   0.186   1.310   2.867
 8255SOL    HW236645   0.098   1.432   2.890
 8256SOL     OW36646   2.675   3.856  17.143
 8256SOL    HW136647   2.769   3.840  17.145
 8256SOL    HW236648   2.649   3.841  17.052
 8257SOL     OW36649   3.016   2.932   4.787
 8257SOL    HW136650   3.106   2.916   4.815
 8257SOL    HW236651   3.005   3.027   4.797
 8258SOL     OW36652   1.590   4.115   6.382
 8258SOL    HW136653   1.587   4.172   6.459
 8258SOL    HW236654   1.585   4.176   6.308
 8259SOL     OW36655   3.350   3.053   4.617
 8259SOL    HW136656   3.386   3.016   4.536
 8259SOL    HW236657   3.423   3.102   4.655
 8260SOL     OW36658   0.374   0.234  19.709
 8260SOL    HW136659   0.325   0.227  19.791
 8260SOL    HW236660   0.462   0.205  19.731
 8261SOL     OW36661   0.435   4.721   4.869
 8261SOL    HW136662   0.456   4.640   4.823
 8261SOL    HW236663   0.439   4.697   4.962
 8262SOL     OW36664   2.847   4.037  19.711
 8262SOL    HW136665   2.828   4.002  19.798
 8262SOL    HW236666   2.772   4.091  19.690
 8263SOL     OW36667   0.702   4.256  18.181
 8263SOL    HW136668   0.655   4.187  18.229
 8263SOL    HW236669   0.637   4.290  18.120
 8264SOL     OW36670   0.158   3.036   3.190
 8264SOL    HW136671   0.213   2.958   3.198
 8264SOL    HW236672   0.173   3.068   3.101
 8265SOL     OW36673   0.614   4.196  17.275
 8265SOL    HW136674   0.519   4.187  17.277
 8265SOL    HW236675   0.647   4.111  17.306
 8266SOL     OW36676   0.594   3.042   3.985
 8266SOL    HW136677   0.546   2.987   4.047
 8266SOL    HW236678   0.660   3.086   4.038
 8267SOL     OW36679   4.357   1.805  10.534
 8267SOL    HW136680   4.262   1.805  10.519
 8267SOL    HW236681   4.395   1.814  10.446
 8268SOL     OW36682   1.417   4.321   4.791
 8268SOL    HW136683   1.491   4.358   4.743
 8268SOL    HW236684   1.457   4.256   4.849
 8269SOL     OW36685   4.269   2.241  15.560
 8269SOL    HW136686   4.288   2.310  15.624
 8269SOL    HW236687   4.354   2.203  15.539
 8270SOL     OW36688   4.698   1.038   3.177
 8270SOL    HW136689   4.750   0.962   3.205
 8270SOL    HW236690   4.712   1.103   3.246
 8271SOL     OW36691   4.091   3.139  15.214
 8271SOL    HW136692   4.158   3.137  15.145
 8271SOL    HW236693   4.021   3.083  15.181
 8272SOL     OW36694   3.795   2.609   8.211
 8272SOL    HW136695   3.784   2.606   8.116
 8272SOL    HW236696   3.871   2.665   8.225
 8273SOL     OW36697   4.130   1.331   1.658
 8273SOL    HW136698   4.199   1.396   1.645
 8273SOL    HW236699   4.162   1.276   1.730
 8274SOL     OW36700   3.597   1.846   0.730
 8274SOL    HW136701   3.536   1.823   0.800
 8274SOL    HW236702   3.566   1.798   0.654
 8275SOL     OW36703   0.330   1.705   5.684
 8275SOL    HW136704   0.400   1.768   5.665
 8275SOL    HW236705   0.273   1.708   5.607
 8276SOL     OW36706   4.722   0.007  17.911
 8276SOL    HW136707   4.769   4.722  17.883
 8276SOL    HW236708   4.791   0.064  17.946
 8277SOL     OW36709   0.220   2.250  16.773
 8277SOL    HW136710   0.219   2.330  16.825
 8277SOL    HW236711   0.267   2.274  16.693
 8278SOL     OW36712   3.422   3.243   0.923
 8278SOL    HW136713   3.395   3.175   0.862
 8278SOL    HW236714   3.341   3.290   0.945
 8279SOL     OW36715   0.547   0.600   2.128
 8279SOL    HW136716   0.471   0.644   2.167
 8279SOL    HW236717   0.531   0.605   2.033
 8280SOL     OW36718   0.220   2.394   0.301
 8280SOL    HW136719   0.213   2.486   0.277
 8280SOL    HW236720   0.256   2.395   0.390
 8281SOL     OW36721   3.920   3.673   6.994
 8281SOL    HW136722   3.953   3.584   7.004
 8281SOL    HW236723   3.827   3.662   6.975
 8282SOL     OW36724   3.273   1.113  20.167
 8282SOL    HW136725   3.295   1.165  20.089
 8282SOL    HW236726   3.338   1.043  20.167
 8283SOL     OW36727   0.206   3.515   4.529
 8283SOL    HW136728   0.110   3.514   4.535
 8283SOL    HW236729   0.227   3.438   4.476
 8284SOL     OW36730   1.984   0.013   3.035
 8284SOL    HW136731   1.920   4.778   2.969
 8284SOL    HW236732   2.058   0.045   2.984
 8285SOL     OW36733   0.595   3.728  17.423
 8285SOL    HW136734   0.509   3.686  17.433
 8285SOL    HW236735   0.616   3.758  17.512
 8286SOL     OW36736   2.947   4.101  18.590
 8286SOL    HW136737   2.969   4.077  18.680
 8286SOL    HW236738   3.004   4.046  18.536
 8287SOL     OW36739   1.049   2.262  17.411
 8287SOL    HW136740   1.100   2.306  17.478
 8287SOL    HW236741   0.965   2.243  17.453
 8288SOL     OW36742   2.541   3.729   1.034
 8288SOL    HW136743   2.450   3.752   1.057
 8288SOL    HW236744   2.534   3.685   0.950
 8289SOL     OW36745   1.071   2.921   6.073
 8289SOL    HW136746   1.025   2.851   6.120
 8289SOL    HW236747   1.141   2.876   6.026
 8290SOL     OW36748   2.342   2.939  18.699
 8290SOL    HW136749   2.275   3.003  18.721
 8290SOL    HW236750   2.295   2.867  18.657
 8291SOL     OW36751   0.459   1.218   4.988
 8291SOL    HW136752   0.482   1.301   5.031
 8291SOL    HW236753   0.516   1.214   4.912
 8292SOL     OW36754   3.124   3.608  16.411
 8292SOL    HW136755   3.142   3.573  16.498
 8292SOL    HW236756   3.116   3.702  16.424
 8293SOL     OW36757   0.807   4.109  15.829
 8293SOL    HW136758   0.842   4.186  15.783
 8293SOL    HW236759   0.750   4.067  15.764
 8294SOL     OW36760   4.293   1.483   3.981
 8294SOL    HW136761   4.229   1.505   3.914
 8294SOL    HW236762   4.367   1.541   3.964
 8295SOL     OW36763   2.951   4.696  18.115
 8295SOL    HW136764   3.014   4.757  18.153
 8295SOL    HW236765   2.957   4.618  18.171
 8296SOL     OW36766   3.297   3.138  18.303
 8296SOL    HW136767   3.380   3.168  18.339
 8296SOL    HW236768   3.322   3.081  18.230
 8297SOL     OW36769   2.629   1.938  14.333
 8297SOL    HW136770   2.582   1.919  14.252
 8297SOL    HW236771   2.595   1.873  14.395
 8298SOL     OW36772   4.231   1.912  21.213
 8298SOL    HW136773   4.138   1.937  21.215
 8298SOL    HW236774   4.261   1.943  21.127
 8299SOL     OW36775   3.928   1.113   1.575
 8299SOL    HW136776   3.970   1.194   1.604
 8299SOL    HW236777   3.999   1.049   1.573
 8300SOL     OW36778   4.172   1.441   4.974
 8300SOL    HW136779   4.092   1.420   4.926
 8300SOL    HW236780   4.243   1.428   4.910
 8301SOL     OW36781   0.111   3.574  14.369
 8301SOL    HW136782   0.041   3.580  14.435
 8301SOL    HW236783   0.076   3.621  14.293
 8302SOL     OW36784   3.994   1.967  18.446
 8302SOL    HW136785   3.977   1.891  18.502
 8302SOL    HW236786   4.048   2.024  18.500
 8303SOL     OW36787   2.759   3.904  18.322
 8303SOL    HW136788   2.673   3.866  18.340
 8303SOL    HW236789   2.773   3.890  18.229
 8304SOL     OW36790   0.934   0.030   3.945
 8304SOL    HW136791   1.008   0.068   3.991
 8304SOL    HW236792   0.877   4.790   4.014
 8305SOL     OW36793   1.608   3.480  20.392
 8305SOL    HW136794   1.627   3.393  20.357
 8305SOL    HW236795   1.515   3.478  20.413
 8306SOL     OW36796   2.536   0.313   4.753
 8306SOL    HW136797   2.613   0.291   4.806
 8306SOL    HW236798   2.471   0.343   4.817
 8307SOL     OW36799   0.567   3.979  18.603
 8307SOL    HW136800   0.494   3.996  18.662
 8307SOL    HW236801   0.561   3.885  18.583
 8308SOL     OW36802   0.713   0.480   5.895
 8308SOL    HW136803   0.746   0.489   5.806
 8308SOL    HW236804   0.785   0.442   5.944
 8309SOL     OW36805   2.719   3.790  20.643
 8309SOL    HW136806   2.670   3.820  20.566
 8309SOL    HW236807   2.785   3.731  20.608
 8310SOL     OW36808   3.206   4.128   5.029
 8310SOL    HW136809   3.280   4.185   5.007
 8310SOL    HW236810   3.135   4.155   4.971
 8311SOL     OW36811   3.025   1.370   1.103
 8311SOL    HW136812   2.936   1.349   1.075
 8311SOL    HW236813   3.040   1.459   1.073
 8312SOL     OW36814   0.803   4.714   4.189
 8312SOL    HW136815   0.872   4.755   4.241
 8312SOL    HW236816   0.836   4.627   4.169
 8313SOL     OW36817   1.151   2.546   6.009
 8313SOL    HW136818   1.101   2.478   6.054
 8313SOL    HW236819   1.216   2.575   6.074
 8314SOL     OW36820   1.853   4.396  18.528
 8314SOL    HW136821   1.831   4.444  18.608
 8314SOL    HW236822   1.769   4.384  18.484
 8315SOL     OW36823   1.219   1.051  19.914
 8315SOL    HW136824   1.155   1.117  19.942
 8315SOL    HW236825   1.280   1.099  19.858
 8316SOL     OW36826   4.717   3.938  18.166
 8316SOL    HW136827   4.784   3.902  18.107
 8316SOL    HW236828   4.762   3.952  18.249
 8317SOL     OW36829   2.557   2.226   4.532
 8317SOL    HW136830   2.499   2.295   4.565
 8317SOL    HW236831   2.536   2.149   4.585
 8318SOL     OW36832   3.301   4.632   6.037
 8318SOL    HW136833   3.228   4.600   5.984
 8318SOL    HW236834   3.264   4.640   6.125
 8319SOL     OW36835   3.081   2.885  17.464
 8319SOL    HW136836   3.020   2.958  17.451
 8319SOL    HW236837   3.126   2.905  17.546
 8320SOL     OW36838   1.946   3.865  17.594
 8320SOL    HW136839   2.007   3.877  17.667
 8320SOL    HW236840   1.992   3.807  17.534
 8321SOL     OW36841   1.683   4.525   3.930
 8321SOL    HW136842   1.645   4.469   3.997
 8321SOL    HW236843   1.743   4.468   3.882
 8322SOL     OW36844   1.745   2.361  18.984
 8322SOL    HW136845   1.817   2.300  18.997
 8322SOL    HW236846   1.673   2.326  19.037
 8323SOL     OW36847   3.760   3.781   9.937
 8323SOL    HW136848   3.743   3.727  10.013
 8323SOL    HW236849   3.700   3.855   9.946
 8324SOL     OW36850   2.514   3.627   2.757
 8324SOL    HW136851   2.536   3.669   2.674
 8324SOL    HW236852   2.582   3.560   2.769
 8325SOL     OW36853   2.514   2.392  16.687
 8325SOL    HW136854   2.558   2.447  16.751
 8325SOL    HW236855   2.549   2.421  16.602
 8326SOL     OW36856   4.638   3.502  18.113
 8326SOL    HW136857   4.589   3.436  18.162
 8326SOL    HW236858   4.712   3.523  18.170
 8327SOL     OW36859   2.533   2.044  19.726
 8327SOL    HW136860   2.554   2.096  19.804
 8327SOL    HW236861   2.470   1.979  19.757
 8328SOL     OW36862   0.106   2.422   5.947
 8328SOL    HW136863   0.100   2.504   5.899
 8328SOL    HW236864   0.060   2.359   5.892
 8329SOL     OW36865   0.041   0.738  19.767
 8329SOL    HW136866   0.031   0.763  19.859
 8329SOL    HW236867   0.136   0.728  19.756
 8330SOL     OW36868   4.184   0.274   0.477
 8330SOL    HW136869   4.137   0.259   0.559
 8330SOL    HW236870   4.238   0.196   0.465
 8331SOL     OW36871   3.594   3.960   6.404
 8331SOL    HW136872   3.675   3.954   6.353
 8331SOL    HW236873   3.605   3.896   6.474
 8332SOL     OW36874   3.433   1.125   1.002
 8332SOL    HW136875   3.386   1.177   1.067
 8332SOL    HW236876   3.370   1.058   0.976
 8333SOL     OW36877   1.079   2.844   0.137
 8333SOL    HW136878   1.012   2.786   0.100
 8333SOL    HW236879   1.158   2.824   0.087
 8334SOL     OW36880   1.237   1.004   3.093
 8334SOL    HW136881   1.151   1.025   3.129
 8334SOL    HW236882   1.219   0.950   3.016
 8335SOL     OW36883   1.749   0.282   3.164
 8335SOL    HW136884   1.713   0.194   3.179
 8335SOL    HW236885   1.703   0.337   3.228
 8336SOL     OW36886   0.965   4.249  15.494
 8336SOL    HW136887   0.982   4.214  15.407
 8336SOL    HW236888   0.943   4.341  15.480
 8337SOL     OW36889   0.075   0.467   0.661
 8337SOL    HW136890   0.123   0.545   0.631
 8337SOL    HW236891   0.143   0.401   0.675
 8338SOL     OW36892   0.619   3.370  17.678
 8338SOL    HW136893   0.697   3.322  17.706
 8338SOL    HW236894   0.648   3.461  17.670
 8339SOL     OW36895   3.511   4.002   5.013
 8339SOL    HW136896   3.605   3.986   5.023
 8339SOL    HW236897   3.506   4.092   4.979
 8340SOL     OW36898   2.862   0.206  19.120
 8340SOL    HW136899   2.841   0.113  19.111
 8340SOL    HW236900   2.935   0.220  19.061
 8341SOL     OW36901   2.850   4.407  21.074
 8341SOL    HW136902   2.936   4.380  21.105
 8341SOL    HW236903   2.837   4.494  21.114
 8342SOL     OW36904   1.759   4.517   6.402
 8342SOL    HW136905   1.826   4.585   6.394
 8342SOL    HW236906   1.735   4.518   6.495
 8343SOL     OW36907   2.986   1.537   9.538
 8343SOL    HW136908   3.032   1.504   9.616
 8343SOL    HW236909   2.953   1.458   9.495
 8344SOL     OW36910   3.375   4.218   0.574
 8344SOL    HW136911   3.362   4.131   0.535
 8344SOL    HW236912   3.286   4.248   0.594
 8345SOL     OW36913   1.944   2.118   5.028
 8345SOL    HW136914   1.895   2.057   4.973
 8345SOL    HW236915   1.913   2.101   5.116
 8346SOL     OW36916   4.025   1.017   4.941
 8346SOL    HW136917   4.120   1.025   4.949
 8346SOL    HW236918   4.008   1.026   4.847
 8347SOL     OW36919   2.258   0.438   4.473
 8347SOL    HW136920   2.242   0.383   4.396
 8347SOL    HW236921   2.353   0.447   4.477
 8348SOL     OW36922   2.479   0.462  15.543
 8348SOL    HW136923   2.476   0.525  15.471
 8348SOL    HW236924   2.388   0.435  15.556
 8349SOL     OW36925   0.144   0.426   4.251
 8349SOL    HW136926   0.133   0.521   4.247
 8349SOL    HW236927   0.112   0.394   4.167
 8350SOL     OW36928   4.175   0.747   4.492
 8350SOL    HW136929   4.138   0.709   4.572
 8350SOL    HW236930   4.191   0.673   4.435
 8351SOL     OW36931   4.592   3.126   2.262
 8351SOL    HW136932   4.598   3.175   2.344
 8351SOL    HW236933   4.655   3.055   2.271
 8352SOL     OW36934   2.019   4.020  13.949
 8352SOL    HW136935   2.091   4.048  13.892
 8352SOL    HW236936   2.011   4.091  14.012
 8353SOL     OW36937   0.301   2.008  20.451
 8353SOL    HW136938   0.306   1.970  20.363
 8353SOL    HW236939   0.328   1.938  20.509
 8354SOL     OW36940   0.917   2.036   2.287
 8354SOL    HW136941   0.966   2.017   2.366
 8354SOL    HW236942   0.839   1.981   2.293
 8355SOL     OW36943   1.094   0.360  18.954
 8355SOL    HW136944   1.130   0.364  19.042
 8355SOL    HW236945   1.060   0.448  18.937
 8356SOL     OW36946   1.137   0.567  15.412
 8356SOL    HW136947   1.226   0.597  15.392
 8356SOL    HW236948   1.149   0.488  15.464
 8357SOL     OW36949   2.328   3.464  18.721
 8357SOL    HW136950   2.244   3.477  18.677
 8357SOL    HW236951   2.388   3.524  18.676
 8358SOL     OW36952   4.481   2.652   4.268
 8358SOL    HW136953   4.487   2.584   4.335
 8358SOL    HW236954   4.397   2.696   4.286
 8359SOL     OW36955   4.722   1.854  15.633
 8359SOL    HW136956   0.003   1.910  15.610
 8359SOL    HW236957   4.761   1.769  15.654
 8360SOL     OW36958   3.726   4.280   1.702
 8360SOL    HW136959   3.764   4.198   1.732
 8360SOL    HW236960   3.671   4.309   1.775
 8361SOL     OW36961   1.659   0.499  19.558
 8361SOL    HW136962   1.657   0.407  19.533
 8361SOL    HW236963   1.593   0.540  19.502
 8362SOL     OW36964   1.298   4.750  21.009
 8362SOL    HW136965   1.379   0.007  21.009
 8362SOL    HW236966   1.237   0.007  20.955
 8363SOL     OW36967   0.475   2.680  20.185
 8363SOL    HW136968   0.513   2.673  20.272
 8363SOL    HW236969   0.523   2.616  20.133
 8364SOL     OW36970   0.156   2.572   3.269
 8364SOL    HW136971   0.113   2.496   3.229
 8364SOL    HW236972   0.110   2.585   3.352
 8365SOL     OW36973   2.958   4.175  19.081
 8365SOL    HW136974   3.034   4.233  19.093
 8365SOL    HW236975   2.887   4.219  19.128
 8366SOL     OW36976   0.285   1.267   4.476
 8366SOL    HW136977   0.273   1.207   4.550
 8366SOL    HW236978   0.233   1.231   4.405
 8367SOL     OW36979   3.610   1.980  17.013
 8367SOL    HW136980   3.649   1.895  16.993
 8367SOL    HW236981   3.534   1.960  17.068
 8368SOL     OW36982   4.573   3.065  16.576
 8368SOL    HW136983   4.487   3.105  16.559
 8368SOL    HW236984   4.633   3.140  16.579
 8369SOL     OW36985   2.805   1.980   2.012
 8369SOL    HW136986   2.816   1.896   2.056
 8369SOL    HW236987   2.758   1.959   1.931
 8370SOL     OW36988   1.092   2.832   3.566
 8370SOL    HW136989   1.069   2.777   3.641
 8370SOL    HW236990   1.151   2.899   3.603
 8371SOL     OW36991   3.087   2.158   1.526
 8371SOL    HW136992   3.175   2.185   1.554
 8371SOL    HW236993   3.033   2.167   1.604
 8372SOL     OW36994   0.002   4.790   0.536
 8372SOL    HW136995   0.054   4.714   0.561
 8372SOL    HW236996   4.706   4.764   0.554
 8373SOL     OW36997   1.645   3.333   5.562
 8373SOL    HW136998   1.586   3.394   5.517
 8373SOL    HW236999   1.593   3.253   5.572
 8374SOL     OW37000   0.793   2.614   5.858
 8374SOL    HW137001   0.728   2.623   5.788
 8374SOL    HW237002   0.741   2.607   5.938
 8375SOL     OW37003   2.728   2.131   4.052
 8375SOL    HW137004   2.711   2.200   4.116
 8375SOL    HW237005   2.783   2.173   3.986
 8376SOL     OW37006   3.446   4.167   2.863
 8376SOL    HW137007   3.430   4.121   2.946
 8376SOL    HW237008   3.360   4.176   2.823
 8377SOL     OW37009   3.323   4.547   4.996
 8377SOL    HW137010   3.403   4.577   4.952
 8377SOL    HW237011   3.257   4.544   4.927
 8378SOL     OW37012   0.808   1.761  19.000
 8378SOL    HW137013   0.765   1.819  19.063
 8378SOL    HW237014   0.744   1.749  18.930
 8379SOL     OW37015   3.170   0.276   1.004
 8379SOL    HW137016   3.102   0.315   1.058
 8379SOL    HW237017   3.187   0.191   1.044
 8380SOL     OW37018   3.394   4.161  12.665
 8380SOL    HW137019   3.451   4.159  12.588
 8380SOL    HW237020   3.382   4.069  12.689
 8381SOL     OW37021   3.680   1.688   3.975
 8381SOL    HW137022   3.635   1.757   4.024
 8381SOL    HW237023   3.764   1.679   4.019
 8382SOL     OW37024   2.308   4.775   3.637
 8382SOL    HW137025   2.299   4.710   3.707
 8382SOL    HW237026   2.218   4.790   3.608
 8383SOL     OW37027   2.533   3.524  19.128
 8383SOL    HW137028   2.458   3.503  19.072
 8383SOL    HW237029   2.599   3.458  19.105
 8384SOL     OW37030   3.489   0.591   4.859
 8384SOL    HW137031   3.470   0.685   4.855
 8384SOL    HW237032   3.404   0.551   4.877
 8385SOL     OW37033   4.510   0.853   0.545
 8385SOL    HW137034   4.566   0.888   0.614
 8385SOL    HW237035   4.435   0.912   0.543
 8386SOL     OW37036   1.868   2.579   4.915
 8386SOL    HW137037   1.844   2.564   5.007
 8386SOL    HW237038   1.786   2.608   4.874
 8387SOL     OW37039   3.873   0.633  18.099
 8387SOL    HW137040   3.899   0.559  18.154
 8387SOL    HW237041   3.833   0.695  18.161
 8388SOL     OW37042   4.525   3.910  17.935
 8388SOL    HW137043   4.486   3.823  17.932
 8388SOL    HW237044   4.568   3.914  18.021
 8389SOL     OW37045   3.708   2.753  15.695
 8389SOL    HW137046   3.780   2.787  15.747
 8389SOL    HW237047   3.737   2.762  15.604
 8390SOL     OW37048   2.400   2.483  18.131
 8390SOL    HW137049   2.388   2.403  18.183
 8390SOL    HW237050   2.448   2.454  18.053
 8391SOL     OW37051   4.049   3.440   7.058
 8391SOL    HW137052   4.071   3.414   7.148
 8391SOL    HW237053   3.993   3.369   7.026
 8392SOL     OW37054   3.429   0.355  16.059
 8392SOL    HW137055   3.390   0.297  16.124
 8392SOL    HW237056   3.523   0.350  16.077
 8393SOL     OW37057   2.461   2.309   2.325
 8393SOL    HW137058   2.456   2.391   2.373
 8393SOL    HW237059   2.515   2.251   2.379
 8394SOL     OW37060   0.417   3.479   2.520
 8394SOL    HW137061   0.395   3.568   2.493
 8394SOL    HW237062   0.471   3.445   2.448
 8395SOL     OW37063   4.132   4.710   6.604
 8395SOL    HW137064   4.167   4.677   6.521
 8395SOL    HW237065   4.191   4.782   6.628
 8396SOL     OW37066   2.499   3.012   2.933
 8396SOL    HW137067   2.492   2.952   2.858
 8396SOL    HW237068   2.437   2.979   2.997
 8397SOL     OW37069   3.871   0.742   4.065
 8397SOL    HW137070   3.799   0.778   4.014
 8397SOL    HW237071   3.836   0.735   4.154
 8398SOL     OW37072   3.308   2.198   2.087
 8398SOL    HW137073   3.393   2.173   2.050
 8398SOL    HW237074   3.252   2.121   2.072
 8399SOL     OW37075   3.713   0.524   2.319
 8399SOL    HW137076   3.632   0.523   2.268
 8399SOL    HW237077   3.783   0.511   2.254
 8400SOL     OW37078   2.226   1.655   4.622
 8400SOL    HW137079   2.186   1.653   4.535
 8400SOL    HW237080   2.199   1.740   4.659
 8401SOL     OW37081   3.131   2.292  20.827
 8401SOL    HW137082   3.045   2.313  20.791
 8401SOL    HW237083   3.192   2.343  20.775
 8402SOL     OW37084   1.343   3.147   2.222
 8402SOL    HW137085   1.294   3.088   2.279
 8402SOL    HW237086   1.299   3.231   2.231
 8403SOL     OW37087   2.212   4.546   4.546
 8403SOL    HW137088   2.160   4.624   4.528
 8403SOL    HW237089   2.301   4.569   4.519
 8404SOL     OW37090   4.676   0.517   3.328
 8404SOL    HW137091   4.603   0.499   3.388
 8404SOL    HW237092   4.745   0.552   3.384
 8405SOL     OW37093   3.436   4.576  20.814
 8405SOL    HW137094   3.418   4.667  20.792
 8405SOL    HW237095   3.482   4.541  20.737
 8406SOL     OW37096   1.269   1.264  21.055
 8406SOL    HW137097   1.217   1.306  21.123
 8406SOL    HW237098   1.328   1.332  21.024
 8407SOL     OW37099   3.842   4.545   3.659
 8407SOL    HW137100   3.830   4.585   3.573
 8407SOL    HW237101   3.764   4.572   3.708
 8408SOL     OW37102   1.706   0.711  19.757
 8408SOL    HW137103   1.751   0.772  19.700
 8408SOL    HW237104   1.680   0.639  19.700
 8409SOL     OW37105   0.579   2.748   4.868
 8409SOL    HW137106   0.580   2.793   4.952
 8409SOL    HW237107   0.498   2.775   4.826
 8410SOL     OW37108   3.437   0.061  19.738
 8410SOL    HW137109   3.398   0.050  19.825
 8410SOL    HW237110   3.488   0.142  19.745
 8411SOL     OW37111   2.804   0.601   4.693
 8411SOL    HW137112   2.805   0.506   4.682
 8411SOL    HW237113   2.719   0.629   4.659
 8412SOL     OW37114   1.271   1.197   7.205
 8412SOL    HW137115   1.214   1.228   7.275
 8412SOL    HW237116   1.359   1.218   7.235
 8413SOL     OW37117   3.260   2.971   2.934
 8413SOL    HW137118   3.166   2.959   2.950
 8413SOL    HW237119   3.277   3.063   2.955
 8414SOL     OW37120   2.460   4.480   4.239
 8414SOL    HW137121   2.367   4.473   4.218
 8414SOL    HW237122   2.465   4.546   4.308
 8415SOL     OW37123   2.420   3.495   4.069
 8415SOL    HW137124   2.376   3.442   4.136
 8415SOL    HW237125   2.366   3.574   4.062
 8416SOL     OW37126   1.003   1.055   6.227
 8416SOL    HW137127   1.090   1.028   6.257
 8416SOL    HW237128   0.960   1.088   6.306
 8417SOL     OW37129   4.249   2.927   5.195
 8417SOL    HW137130   4.198   3.008   5.199
 8417SOL    HW237131   4.295   2.932   5.111
 8418SOL     OW37132   0.456   2.002   3.229
 8418SOL    HW137133   0.383   1.985   3.169
 8418SOL    HW237134   0.470   2.097   3.223
 8419SOL     OW37135   4.383   0.895  19.298
 8419SOL    HW137136   4.382   0.894  19.203
 8419SOL    HW237137   4.459   0.841  19.322
 8420SOL     OW37138   2.069   3.645   5.219
 8420SOL    HW137139   2.145   3.607   5.176
 8420SOL    HW237140   2.019   3.570   5.251
 8421SOL     OW37141   0.558   1.991  16.475
 8421SOL    HW137142   0.561   1.905  16.433
 8421SOL    HW237143   0.556   1.972  16.568
 8422SOL     OW37144   0.738   3.975  17.377
 8422SOL    HW137145   0.693   3.891  17.368
 8422SOL    HW237146   0.759   3.982  17.470
 8423SOL     OW37147   0.306   4.108  20.502
 8423SOL    HW137148   0.267   4.025  20.475
 8423SOL    HW237149   0.312   4.102  20.597
 8424SOL     OW37150   0.005   1.389   5.257
 8424SOL    HW137151   4.791   1.479   5.225
 8424SOL    HW237152   0.097   1.383   5.285
 8425SOL     OW37153   4.748   3.181  20.353
 8425SOL    HW137154   4.693   3.119  20.401
 8425SOL    HW237155   4.771   3.135  20.272
 8426SOL     OW37156   2.596   2.691   2.892
 8426SOL    HW137157   2.589   2.643   2.810
 8426SOL    HW237158   2.509   2.726   2.907
 8427SOL     OW37159   4.516   4.391  18.184
 8427SOL    HW137160   4.592   4.450  18.180
 8427SOL    HW237161   4.484   4.399  18.273
 8428SOL     OW37162   1.758   2.713   5.427
 8428SOL    HW137163   1.729   2.651   5.493
 8428SOL    HW237164   1.678   2.758   5.400
 8429SOL     OW37165   3.940   2.409   4.287
 8429SOL    HW137166   3.886   2.330   4.278
 8429SOL    HW237167   3.929   2.436   4.378
 8430SOL     OW37168   3.227   1.512  19.255
 8430SOL    HW137169   3.146   1.541  19.296
 8430SOL    HW237170   3.241   1.423  19.289
 8431SOL     OW37171   0.711   4.769  17.875
 8431SOL    HW137172   0.668   4.785  17.959
 8431SOL    HW237173   0.804   4.768  17.895
 8432SOL     OW37174   0.665   0.241  20.650
 8432SOL    HW137175   0.729   0.245  20.721
 8432SOL    HW237176   0.614   0.322  20.658
 8433SOL     OW37177   3.095   2.108   5.984
 8433SOL    HW137178   3.012   2.065   5.962
 8433SOL    HW237179   3.094   2.113   6.079
 8434SOL     OW37180   1.564   0.176   2.484
 8434SOL    HW137181   1.615   0.253   2.511
 8434SOL    HW237182   1.516   0.206   2.406
 8435SOL     OW37183   1.801   2.739   4.137
 8435SOL    HW137184   1.768   2.782   4.059
 8435SOL    HW237185   1.776   2.647   4.127
 8436SOL     OW37186   3.814   3.093   3.640
 8436SOL    HW137187   3.728   3.056   3.622
 8436SOL    HW237188   3.842   3.131   3.557
 8437SOL     OW37189   0.942   3.566  17.214
 8437SOL    HW137190   1.008   3.636  17.215
 8437SOL    HW237191   0.978   3.499  17.156
 8438SOL     OW37192   4.178   1.343   2.319
 8438SOL    HW137193   4.160   1.402   2.245
 8438SOL    HW237194   4.170   1.399   2.396
 8439SOL     OW37195   2.477   2.149  18.946
 8439SOL    HW137196   2.542   2.197  18.895
 8439SOL    HW237197   2.465   2.202  19.025
 8440SOL     OW37198   1.148   2.978  18.945
 8440SOL    HW137199   1.112   3.048  19.000
 8440SOL    HW237200   1.111   2.898  18.981
 8441SOL     OW37201   4.059   1.703   1.474
 8441SOL    HW137202   4.124   1.730   1.540
 8441SOL    HW237203   3.991   1.659   1.525
 8442SOL     OW37204   2.065   1.831   5.091
 8442SOL    HW137205   2.158   1.817   5.111
 8442SOL    HW237206   2.022   1.753   5.127
 8443SOL     OW37207   4.378   0.288  18.034
 8443SOL    HW137208   4.329   0.210  18.059
 8443SOL    HW237209   4.400   0.331  18.116
 8444SOL     OW37210   2.406   2.256  17.198
 8444SOL    HW137211   2.491   2.220  17.174
 8444SOL    HW237212   2.426   2.340  17.238
 8445SOL     OW37213   0.197   3.740  16.107
 8445SOL    HW137214   0.159   3.787  16.032
 8445SOL    HW237215   0.276   3.790  16.128
 8446SOL     OW37216   2.853   4.679   2.928
 8446SOL    HW137217   2.914   4.750   2.945
 8446SOL    HW237218   2.766   4.721   2.928
 8447SOL     OW37219   3.227   2.468  13.718
 8447SOL    HW137220   3.303   2.418  13.750
 8447SOL    HW237221   3.168   2.403  13.681
 8448SOL     OW37222   4.282   0.977   1.663
 8448SOL    HW137223   4.349   1.000   1.599
 8448SOL    HW237224   4.213   0.935   1.611
 8449SOL     OW37225   3.392   0.843  16.202
 8449SOL    HW137226   3.477   0.877  16.230
 8449SOL    HW237227   3.410   0.752  16.176
 8450SOL     OW37228   3.606   1.928  18.139
 8450SOL    HW137229   3.662   1.887  18.074
 8450SOL    HW237230   3.616   1.874  18.218
 8451SOL     OW37231   3.215   1.992  17.548
 8451SOL    HW137232   3.296   2.042  17.553
 8451SOL    HW237233   3.238   1.905  17.580
 8452SOL     OW37234   1.157   3.537   0.840
 8452SOL    HW137235   1.087   3.582   0.795
 8452SOL    HW237236   1.185   3.468   0.780
 8453SOL     OW37237   2.695   2.457   4.017
 8453SOL    HW137238   2.716   2.548   4.036
 8453SOL    HW237239   2.749   2.435   3.941
 8454SOL     OW37240   2.078   2.523   0.998
 8454SOL    HW137241   2.122   2.478   1.070
 8454SOL    HW237242   2.145   2.531   0.930
 8455SOL     OW37243   3.348   4.247  20.195
 8455SOL    HW137244   3.395   4.329  20.210
 8455SOL    HW237245   3.310   4.257  20.107
 8456SOL     OW37246   3.247   3.766  20.818
 8456SOL    HW137247   3.292   3.709  20.880
 8456SOL    HW237248   3.159   3.729  20.810
 8457SOL     OW37249   2.165   3.698   0.661
 8457SOL    HW137250   2.259   3.685   0.667
 8457SOL    HW237251   2.139   3.650   0.582
 8458SOL     OW37252   3.284   1.598  20.117
 8458SOL    HW137253   3.361   1.645  20.150
 8458SOL    HW237254   3.222   1.667  20.094
 8459SOL     OW37255   1.522   4.503  19.013
 8459SOL    HW137256   1.428   4.498  19.031
 8459SOL    HW237257   1.563   4.454  19.084
 8460SOL     OW37258   0.854   3.755   4.780
 8460SOL    HW137259   0.844   3.660   4.788
 8460SOL    HW237260   0.769   3.790   4.806
 8461SOL     OW37261   2.741   0.932  16.732
 8461SOL    HW137262   2.821   0.948  16.782
 8461SOL    HW237263   2.702   1.019  16.720
 8462SOL     OW37264   0.171   0.926  21.224
 8462SOL    HW137265   0.103   0.909  21.158
 8462SOL    HW237266   0.211   1.009  21.196
 8463SOL     OW37267   3.943   4.489  14.061
 8463SOL    HW137268   3.984   4.525  13.983
 8463SOL    HW237269   4.015   4.455  14.114
 8464SOL     OW37270   2.655   0.622   5.844
 8464SOL    HW137271   2.729   0.636   5.903
 8464SOL    HW237272   2.678   0.543   5.795
 8465SOL     OW37273   3.615   3.618  18.132
 8465SOL    HW137274   3.575   3.689  18.182
 8465SOL    HW237275   3.639   3.553  18.198
 8466SOL     OW37276   3.459   4.738   2.276
 8466SOL    HW137277   3.525   4.728   2.345
 8466SOL    HW237278   3.444   0.039   2.272
 8467SOL     OW37279   3.044   2.133  16.108
 8467SOL    HW137280   3.001   2.053  16.139
 8467SOL    HW237281   3.131   2.105  16.080
 8468SOL     OW37282   1.280   4.687  16.496
 8468SOL    HW137283   1.234   4.728  16.422
 8468SOL    HW237284   1.239   4.726  16.574
 8469SOL     OW37285   0.676   0.428   2.916
 8469SOL    HW137286   0.645   0.495   2.855
 8469SOL    HW237287   0.612   0.357   2.910
 8470SOL     OW37288   4.634   0.129  15.356
 8470SOL    HW137289   4.699   0.065  15.384
 8470SOL    HW237290   4.673   0.214  15.380
 8471SOL     OW37291   0.360   3.428   0.974
 8471SOL    HW137292   0.414   3.401   1.048
 8471SOL    HW237293   0.282   3.467   1.014
 8472SOL     OW37294   3.177   2.926  18.039
 8472SOL    HW137295   3.203   3.017  18.051
 8472SOL    HW237296   3.150   2.898  18.127
 8473SOL     OW37297   1.314   3.444  19.504
 8473SOL    HW137298   1.402   3.429  19.538
 8473SOL    HW237299   1.256   3.403  19.568
 8474SOL     OW37300   1.203   1.388  15.194
 8474SOL    HW137301   1.182   1.477  15.166
 8474SOL    HW237302   1.125   1.359  15.241
 8475SOL     OW37303   0.008   2.288  18.041
 8475SOL    HW137304   4.774   2.371  18.001
 8475SOL    HW237305   0.096   2.306  18.075
 8476SOL     OW37306   4.197   1.588   1.258
 8476SOL    HW137307   4.162   1.500   1.275
 8476SOL    HW237308   4.187   1.634   1.342
 8477SOL     OW37309   4.404   3.664   6.910
 8477SOL    HW137310   4.368   3.576   6.924
 8477SOL    HW237311   4.328   3.718   6.887
 8478SOL     OW37312   1.704   2.870   2.536
 8478SOL    HW137313   1.791   2.908   2.552
 8478SOL    HW237314   1.690   2.881   2.442
 8479SOL     OW37315   0.736   0.901  16.278
 8479SOL    HW137316   0.690   0.887  16.361
 8479SOL    HW237317   0.827   0.918  16.304
 8480SOL     OW37318   4.258   1.420  17.426
 8480SOL    HW137319   4.317   1.354  17.461
 8480SOL    HW237320   4.184   1.371  17.391
 8481SOL     OW37321   3.007   1.054   2.616
 8481SOL    HW137322   3.083   0.996   2.619
 8481SOL    HW237323   2.933   0.996   2.598
 8482SOL     OW37324   1.635   2.386   1.187
 8482SOL    HW137325   1.605   2.394   1.096
 8482SOL    HW237326   1.558   2.356   1.236
 8483SOL     OW37327   1.467   4.207   3.073
 8483SOL    HW137328   1.521   4.208   2.995
 8483SOL    HW237329   1.414   4.128   3.066
 8484SOL     OW37330   4.127   2.678  20.673
 8484SOL    HW137331   4.115   2.769  20.700
 8484SOL    HW237332   4.213   2.654  20.708
 8485SOL     OW37333   2.284   0.719   8.284
 8485SOL    HW137334   2.211   0.715   8.345
 8485SOL    HW237335   2.243   0.717   8.197
 8486SOL     OW37336   3.180   0.551   3.855
 8486SOL    HW137337   3.241   0.514   3.919
 8486SOL    HW237338   3.103   0.494   3.862
 8487SOL     OW37339   1.887   0.751  18.921
 8487SOL    HW137340   1.835   0.695  18.978
 8487SOL    HW237341   1.940   0.690  18.869
 8488SOL     OW37342   0.076   0.468  18.368
 8488SOL    HW137343   0.087   0.433  18.280
 8488SOL    HW237344   4.776   0.488  18.374
 8489SOL     OW37345   2.003   2.361   4.075
 8489SOL    HW137346   2.009   2.361   3.980
 8489SOL    HW237347   2.092   2.377   4.106
 8490SOL     OW37348   1.677   4.227   7.693
 8490SOL    HW137349   1.623   4.302   7.668
 8490SOL    HW237350   1.615   4.167   7.735
 8491SOL     OW37351   1.229   1.625   1.755
 8491SOL    HW137352   1.160   1.580   1.706
 8491SOL    HW237353   1.307   1.573   1.739
 8492SOL     OW37354   1.602   1.675   5.942
 8492SOL    HW137355   1.692   1.688   5.913
 8492SOL    HW237356   1.607   1.678   6.038
 8493SOL     OW37357   4.174   4.272   4.790
 8493SOL    HW137358   4.165   4.329   4.866
 8493SOL    HW237359   4.268   4.257   4.781
 8494SOL     OW37360   4.479   1.642  20.584
 8494SOL    HW137361   4.570   1.671  20.591
 8494SOL    HW237362   4.473   1.601  20.498
 8495SOL     OW37363   4.713   2.246  17.374
 8495SOL    HW137364   4.650   2.313  17.348
 8495SOL    HW237365   0.003   2.279  17.342
 8496SOL     OW37366   4.207   3.114   5.548
 8496SOL    HW137367   4.192   3.075   5.634
 8496SOL    HW237368   4.141   3.183   5.541
 8497SOL     OW37369   2.106   3.343  14.548
 8497SOL    HW137370   2.150   3.417  14.505
 8497SOL    HW237371   2.177   3.294  14.590
 8498SOL     OW37372   4.717   2.905   4.866
 8498SOL    HW137373   4.762   2.833   4.910
 8498SOL    HW237374   4.737   2.893   4.773
 8499SOL     OW37375   3.726   2.956  16.753
 8499SOL    HW137376   3.643   2.908  16.760
 8499SOL    HW237377   3.726   3.015  16.828
 8500SOL     OW37378   4.699   1.472   6.402
 8500SOL    HW137379   4.708   1.446   6.494
 8500SOL    HW237380   4.606   1.488   6.391
 8501SOL     OW37381   2.682   1.301  17.503
 8501SOL    HW137382   2.609   1.273  17.448
 8501SOL    HW237383   2.743   1.228  17.500
 8502SOL     OW37384   1.003   2.414   1.207
 8502SOL    HW137385   1.057   2.489   1.183
 8502SOL    HW237386   0.974   2.432   1.297
 8503SOL     OW37387   0.828   2.571  17.469
 8503SOL    HW137388   0.745   2.615  17.450
 8503SOL    HW237389   0.828   2.494  17.412
 8504SOL     OW37390   0.120   0.800   0.813
 8504SOL    HW137391   0.097   0.853   0.737
 8504SOL    HW237392   0.215   0.791   0.809
 8505SOL     OW37393   3.058   3.464   0.015
 8505SOL    HW137394   3.034   3.487   0.105
 8505SOL    HW237395   3.136   3.409   0.024
 8506SOL     OW37396   0.989   2.800  18.386
 8506SOL    HW137397   1.002   2.709  18.358
 8506SOL    HW237398   1.006   2.798  18.481
 8507SOL     OW37399   4.214   4.604   4.286
 8507SOL    HW137400   4.234   4.665   4.356
 8507SOL    HW237401   4.120   4.585   4.296
 8508SOL     OW37402   3.153   2.984   1.965
 8508SOL    HW137403   3.091   2.915   1.941
 8508SOL    HW237404   3.239   2.941   1.961
 8509SOL     OW37405   1.153   1.421   3.059
 8509SOL    HW137406   1.087   1.428   3.128
 8509SOL    HW237407   1.122   1.480   2.990
 8510SOL     OW37408   3.884   0.457   0.288
 8510SOL    HW137409   3.804   0.408   0.308
 8510SOL    HW237410   3.950   0.389   0.272
 8511SOL     OW37411   3.240   1.632  20.438
 8511SOL    HW137412   3.206   1.685  20.366
 8511SOL    HW237413   3.193   1.663  20.515
 8512SOL     OW37414   0.602   1.212  13.344
 8512SOL    HW137415   0.511   1.221  13.370
 8512SOL    HW237416   0.625   1.298  13.308
 8513SOL     OW37417   2.724   1.089   1.722
 8513SOL    HW137418   2.677   1.022   1.673
 8513SOL    HW237419   2.787   1.040   1.776
 8514SOL     OW37420   1.581   0.402   6.241
 8514SOL    HW137421   1.580   0.315   6.281
 8514SOL    HW237422   1.496   0.410   6.198
 8515SOL     OW37423   1.528   3.586  19.153
 8515SOL    HW137424   1.532   3.501  19.110
 8515SOL    HW237425   1.435   3.600  19.172
 8516SOL     OW37426   2.040   4.172   1.151
 8516SOL    HW137427   2.105   4.171   1.080
 8516SOL    HW237428   1.956   4.170   1.106
 8517SOL     OW37429   2.060   0.341  17.977
 8517SOL    HW137430   2.002   0.396  17.925
 8517SOL    HW237431   2.028   0.252  17.964
 8518SOL     OW37432   2.422   2.196   8.426
 8518SOL    HW137433   2.365   2.157   8.493
 8518SOL    HW237434   2.400   2.147   8.346
 8519SOL     OW37435   0.876   2.580   2.809
 8519SOL    HW137436   0.850   2.488   2.808
 8519SOL    HW237437   0.971   2.579   2.816
 8520SOL     OW37438   3.501   0.991   3.974
 8520SOL    HW137439   3.452   0.910   3.990
 8520SOL    HW237440   3.450   1.036   3.907
 8521SOL     OW37441   4.300   4.072  21.188
 8521SOL    HW137442   4.249   4.142  21.146
 8521SOL    HW237443   4.361   4.118  21.245
 8522SOL     OW37444   3.319   0.784   8.309
 8522SOL    HW137445   3.343   0.792   8.401
 8522SOL    HW237446   3.393   0.737   8.269
 8523SOL     OW37447   2.863   3.239   3.771
 8523SOL    HW137448   2.872   3.238   3.675
 8523SOL    HW237449   2.844   3.148   3.793
 8524SOL     OW37450   3.500   4.256   0.254
 8524SOL    HW137451   3.529   4.326   0.195
 8524SOL    HW237452   3.407   4.271   0.265
 8525SOL     OW37453   1.645   1.941  17.513
 8525SOL    HW137454   1.624   1.902  17.428
 8525SOL    HW237455   1.721   1.996  17.497
 8526SOL     OW37456   1.589   4.300  18.440
 8526SOL    HW137457   1.626   4.229  18.388
 8526SOL    HW237458   1.559   4.258  18.521
 8527SOL     OW37459   0.365   2.169   4.328
 8527SOL    HW137460   0.325   2.209   4.252
 8527SOL    HW237461   0.357   2.235   4.397
 8528SOL     OW37462   1.019   2.764  16.779
 8528SOL    HW137463   1.104   2.719  16.782
 8528SOL    HW237464   0.984   2.753  16.868
 8529SOL     OW37465   2.845   3.033  14.895
 8529SOL    HW137466   2.831   2.952  14.845
 8529SOL    HW237467   2.763   3.081  14.885
 8530SOL     OW37468   0.494   2.151  21.009
 8530SOL    HW137469   0.572   2.098  21.026
 8530SOL    HW237470   0.433   2.092  20.964
 8531SOL     OW37471   2.398   0.289  20.766
 8531SOL    HW137472   2.308   0.285  20.732
 8531SOL    HW237473   2.391   0.257  20.856
 8532SOL     OW37474   3.735   3.590   4.296
 8532SOL    HW137475   3.742   3.673   4.250
 8532SOL    HW237476   3.653   3.597   4.346
 8533SOL     OW37477   4.353   1.466  20.356
 8533SOL    HW137478   4.275   1.433  20.312
 8533SOL    HW237479   4.425   1.442  20.297
 8534SOL     OW37480   1.795   0.924  17.469
 8534SOL    HW137481   1.763   1.014  17.475
 8534SOL    HW237482   1.737   0.874  17.526
 8535SOL     OW37483   2.223   2.688   5.555
 8535SOL    HW137484   2.185   2.760   5.606
 8535SOL    HW237485   2.302   2.664   5.603
 8536SOL     OW37486   3.899   1.335  19.351
 8536SOL    HW137487   3.976   1.302  19.304
 8536SOL    HW237488   3.927   1.421  19.383
 8537SOL     OW37489   0.137   0.639  13.464
 8537SOL    HW137490   0.217   0.610  13.421
 8537SOL    HW237491   0.091   0.690  13.397
 8538SOL     OW37492   0.469   1.712   2.463
 8538SOL    HW137493   0.381   1.748   2.451
 8538SOL    HW237494   0.478   1.702   2.558
 8539SOL     OW37495   1.513   4.581  18.467
 8539SOL    HW137496   1.604   4.600  18.444
 8539SOL    HW237497   1.519   4.531  18.548
 8540SOL     OW37498   2.308   2.170   1.003
 8540SOL    HW137499   2.228   2.143   0.959
 8540SOL    HW237500   2.367   2.196   0.932
 8541SOL     OW37501   0.524   3.624   3.605
 8541SOL    HW137502   0.542   3.589   3.692
 8541SOL    HW237503   0.486   3.710   3.621
 8542SOL     OW37504   3.163   0.065   1.396
 8542SOL    HW137505   3.081   0.054   1.349
 8542SOL    HW237506   3.221   4.792   1.360
 8543SOL     OW37507   1.384   3.073   1.823
 8543SOL    HW137508   1.295   3.077   1.859
 8543SOL    HW237509   1.382   3.134   1.749
 8544SOL     OW37510   1.261   1.925   1.668
 8544SOL    HW137511   1.269   1.835   1.698
 8544SOL    HW237512   1.193   1.964   1.724
 8545SOL     OW37513   4.338   0.671  15.590
 8545SOL    HW137514   4.270   0.738  15.596
 8545SOL    HW237515   4.289   0.588  15.584
 8546SOL     OW37516   0.223   4.373  14.072
 8546SOL    HW137517   0.275   4.386  13.992
 8546SOL    HW237518   0.274   4.309  14.122
 8547SOL     OW37519   2.523   2.659  14.746
 8547SOL    HW137520   2.452   2.642  14.807
 8547SOL    HW237521   2.534   2.577  14.698
 8548SOL     OW37522   2.486   4.445  16.180
 8548SOL    HW137523   2.554   4.391  16.141
 8548SOL    HW237524   2.527   4.482  16.259
 8549SOL     OW37525   4.031   3.144  20.596
 8549SOL    HW137526   3.997   3.116  20.511
 8549SOL    HW237527   4.112   3.191  20.575
 8550SOL     OW37528   2.065   2.938   5.367
 8550SOL    HW137529   2.032   3.003   5.306
 8550SOL    HW237530   2.034   2.854   5.333
 8551SOL     OW37531   3.041   1.459   0.730
 8551SOL    HW137532   3.120   1.410   0.707
 8551SOL    HW237533   2.972   1.420   0.676
 8552SOL     OW37534   3.075   1.537   7.789
 8552SOL    HW137535   3.155   1.573   7.752
 8552SOL    HW237536   3.100   1.449   7.819
 8553SOL     OW37537   2.478   3.986   3.384
 8553SOL    HW137538   2.429   3.988   3.301
 8553SOL    HW237539   2.527   3.904   3.380
 8554SOL     OW37540   3.161   1.328  16.543
 8554SOL    HW137541   3.132   1.310  16.632
 8554SOL    HW237542   3.198   1.416  16.547
 8555SOL     OW37543   0.170   3.941   3.210
 8555SOL    HW137544   0.177   3.930   3.305
 8555SOL    HW237545   0.179   4.035   3.196
 8556SOL     OW37546   1.462   3.906  12.857
 8556SOL    HW137547   1.497   3.861  12.934
 8556SOL    HW237548   1.403   3.842  12.817
 8557SOL     OW37549   2.503   0.107   3.434
 8557SOL    HW137550   2.467   0.071   3.515
 8557SOL    HW237551   2.534   0.194   3.458
 8558SOL     OW37552   3.500   0.153  20.062
 8558SOL    HW137553   3.575   0.174  20.118
 8558SOL    HW237554   3.440   0.226  20.073
 8559SOL     OW37555   2.002   0.065  18.008
 8559SOL    HW137556   2.047   0.066  18.092
 8559SOL    HW237557   2.054   0.006  17.953
 8560SOL     OW37558   0.958   3.052   5.136
 8560SOL    HW137559   0.885   3.006   5.096
 8560SOL    HW237560   0.933   3.145   5.133
 8561SOL     OW37561   0.228   1.447   5.396
 8561SOL    HW137562   0.318   1.428   5.424
 8561SOL    HW237563   0.205   1.526   5.444
 8562SOL     OW37564   4.356   2.846  15.140
 8562SOL    HW137565   4.417   2.817  15.207
 8562SOL    HW237566   4.276   2.797  15.157
 8563SOL     OW37567   2.775   4.134  16.371
 8563SOL    HW137568   2.830   4.058  16.386
 8563SOL    HW237569   2.836   4.208  16.364
 8564SOL     OW37570   4.624   3.881   3.204
 8564SOL    HW137571   4.651   3.815   3.267
 8564SOL    HW237572   4.705   3.926   3.180
 8565SOL     OW37573   3.128   0.218   5.638
 8565SOL    HW137574   3.089   0.134   5.662
 8565SOL    HW237575   3.204   0.226   5.695
 8566SOL     OW37576   1.891   0.737  21.112
 8566SOL    HW137577   1.925   0.743  21.201
 8566SOL    HW237578   1.912   0.649  21.083
 8567SOL     OW37579   4.139   2.185  17.899
 8567SOL    HW137580   4.058   2.207  17.944
 8567SOL    HW237581   4.194   2.145  17.966
 8568SOL     OW37582   0.248   0.522  19.861
 8568SOL    HW137583   0.331   0.492  19.896
 8568SOL    HW237584   0.271   0.595  19.803
 8569SOL     OW37585   3.374   4.626   4.224
 8569SOL    HW137586   3.361   4.688   4.296
 8569SOL    HW237587   3.384   4.541   4.267
 8570SOL     OW37588   1.018   4.418  11.298
 8570SOL    HW137589   1.055   4.426  11.386
 8570SOL    HW237590   1.003   4.508  11.270
 8571SOL     OW37591   4.438   0.004  19.026
 8571SOL    HW137592   4.359   4.789  19.080
 8571SOL    HW237593   4.511   4.788  19.088
 8572SOL     OW37594   1.641   4.199  18.045
 8572SOL    HW137595   1.700   4.172  18.115
 8572SOL    HW237596   1.593   4.273  18.081
 8573SOL     OW37597   0.461   0.767   0.127
 8573SOL    HW137598   0.511   0.744   0.205
 8573SOL    HW237599   0.371   0.776   0.158
 8574SOL     OW37600   1.553   4.416  17.231
 8574SOL    HW137601   1.482   4.425  17.167
 8574SOL    HW237602   1.577   4.323  17.227
 8575SOL     OW37603   3.088   4.143  19.616
 8575SOL    HW137604   3.166   4.107  19.658
 8575SOL    HW237605   3.017   4.086  19.643
 8576SOL     OW37606   1.085   4.662  12.532
 8576SOL    HW137607   0.996   4.630  12.523
 8576SOL    HW237608   1.133   4.621  12.460
 8577SOL     OW37609   2.503   3.486   4.972
 8577SOL    HW137610   2.505   3.519   4.883
 8577SOL    HW237611   2.418   3.513   5.006
 8578SOL     OW37612   3.507   2.701  19.611
 8578SOL    HW137613   3.437   2.654  19.655
 8578SOL    HW237614   3.547   2.636  19.553
 8579SOL     OW37615   2.157   2.525   1.728
 8579SOL    HW137616   2.086   2.472   1.692
 8579SOL    HW237617   2.135   2.536   1.820
 8580SOL     OW37618   1.395   3.919   6.295
 8580SOL    HW137619   1.468   3.963   6.338
 8580SOL    HW237620   1.407   3.937   6.202
 8581SOL     OW37621   3.059   4.125  13.355
 8581SOL    HW137622   3.048   4.186  13.283
 8581SOL    HW237623   3.154   4.120  13.368
 8582SOL     OW37624   1.210   4.093  15.488
 8582SOL    HW137625   1.189   4.000  15.487
 8582SOL    HW237626   1.126   4.137  15.501
 8583SOL     OW37627   0.608   3.991  15.685
 8583SOL    HW137628   0.518   3.975  15.714
 8583SOL    HW237629   0.601   4.061  15.620
 8584SOL     OW37630   4.513   3.923   2.594
 8584SOL    HW137631   4.460   3.999   2.619
 8584SOL    HW237632   4.512   3.923   2.498
 8585SOL     OW37633   2.564   0.108   0.347
 8585SOL    HW137634   2.501   0.088   0.417
 8585SOL    HW237635   2.638   0.051   0.365
 8586SOL     OW37636   2.486   1.595  18.871
 8586SOL    HW137637   2.463   1.572  18.781
 8586SOL    HW237638   2.561   1.540  18.892
 8587SOL     OW37639   3.842   4.311  18.485
 8587SOL    HW137640   3.885   4.395  18.501
 8587SOL    HW237641   3.765   4.312  18.543
 8588SOL     OW37642   4.724   3.698   1.472
 8588SOL    HW137643   0.005   3.754   1.493
 8588SOL    HW237644   4.682   3.683   1.556
 8589SOL     OW37645   3.938   1.419   6.719
 8589SOL    HW137646   3.971   1.471   6.792
 8589SOL    HW237647   3.991   1.446   6.644
 8590SOL     OW37648   4.220   0.639   2.170
 8590SOL    HW137649   4.174   0.584   2.233
 8590SOL    HW237650   4.178   0.725   2.176
 8591SOL     OW37651   0.150   4.197  18.623
 8591SOL    HW137652   0.170   4.290  18.615
 8591SOL    HW237653   0.222   4.162  18.676
 8592SOL     OW37654   3.950   4.252   4.548
 8592SOL    HW137655   3.968   4.189   4.479
 8592SOL    HW237656   3.907   4.325   4.504
 8593SOL     OW37657   0.361   1.069  19.510
 8593SOL    HW137658   0.435   1.110  19.466
 8593SOL    HW237659   0.386   1.065  19.602
 8594SOL     OW37660   0.409   4.681  16.110
 8594SOL    HW137661   0.345   4.742  16.074
 8594SOL    HW237662   0.389   4.676  16.203
 8595SOL     OW37663   3.004   4.292   2.559
 8595SOL    HW137664   2.913   4.268   2.575
 8595SOL    HW237665   3.000   4.378   2.519
 8596SOL     OW37666   2.981   3.529   3.427
 8596SOL    HW137667   2.961   3.612   3.470
 8596SOL    HW237668   3.070   3.540   3.393
 8597SOL     OW37669   2.828   0.817   0.829
 8597SOL    HW137670   2.762   0.886   0.830
 8597SOL    HW237671   2.881   0.833   0.907
 8598SOL     OW37672   2.398   0.269   6.592
 8598SOL    HW137673   2.415   0.181   6.557
 8598SOL    HW237674   2.388   0.324   6.515
 8599SOL     OW37675   2.312   4.755  13.815
 8599SOL    HW137676   2.340   4.718  13.898
 8599SOL    HW237677   2.218   4.770  13.826
 8600SOL     OW37678   0.382   4.611   0.110
 8600SOL    HW137679   0.393   4.547   0.040
 8600SOL    HW237680   0.320   4.675   0.076
 8601SOL     OW37681   3.094   2.102   6.884
 8601SOL    HW137682   3.049   2.019   6.871
 8601SOL    HW237683   3.024   2.165   6.899
 8602SOL     OW37684   1.403   2.129  17.160
 8602SOL    HW137685   1.414   2.034  17.164
 8602SOL    HW237686   1.445   2.154  17.078
 8603SOL     OW37687   0.146   4.441   0.339
 8603SOL    HW137688   0.154   4.530   0.304
 8603SOL    HW237689   0.204   4.440   0.415
 8604SOL     OW37690   4.368   2.694  20.781
 8604SOL    HW137691   4.317   2.772  20.803
 8604SOL    HW237692   4.432   2.726  20.717
 8605SOL     OW37693   3.578   2.307   2.230
 8605SOL    HW137694   3.568   2.296   2.135
 8605SOL    HW237695   3.491   2.288   2.265
 8606SOL     OW37696   4.180   3.844   2.034
 8606SOL    HW137697   4.134   3.922   2.064
 8606SOL    HW237698   4.114   3.775   2.033
 8607SOL     OW37699   1.580   3.324   0.718
 8607SOL    HW137700   1.645   3.393   0.707
 8607SOL    HW237701   1.508   3.350   0.660
 8608SOL     OW37702   2.774   2.987   2.987
 8608SOL    HW137703   2.679   2.978   2.983
 8608SOL    HW237704   2.794   2.986   3.080
 8609SOL     OW37705   2.513   3.053  12.842
 8609SOL    HW137706   2.419   3.044  12.826
 8609SOL    HW237707   2.531   2.986  12.909
 8610SOL     OW37708   1.587   1.614   5.628
 8610SOL    HW137709   1.536   1.649   5.701
 8610SOL    HW237710   1.555   1.524   5.617
 8611SOL     OW37711   3.332   3.371   2.144
 8611SOL    HW137712   3.394   3.297   2.141
 8611SOL    HW237713   3.342   3.406   2.232
 8612SOL     OW37714   1.153   3.497  14.447
 8612SOL    HW137715   1.206   3.548  14.386
 8612SOL    HW237716   1.070   3.544  14.452
 8613SOL     OW37717   1.260   3.684   0.229
 8613SOL    HW137718   1.319   3.715   0.161
 8613SOL    HW237719   1.318   3.646   0.295
 8614SOL     OW37720   0.202   0.337   3.799
 8614SOL    HW137721   0.117   0.293   3.801
 8614SOL    HW237722   0.216   0.358   3.707
 8615SOL     OW37723   2.671   2.459   0.055
 8615SOL    HW137724   2.686   2.456   0.150
 8615SOL    HW237725   2.721   2.534   0.025
 8616SOL     OW37726   3.708   0.267  19.658
 8616SOL    HW137727   3.642   0.285  19.591
 8616SOL    HW237728   3.702   0.342  19.718
 8617SOL     OW37729   1.823   1.902   4.945
 8617SOL    HW137730   1.894   1.886   5.007
 8617SOL    HW237731   1.751   1.846   4.976
 8618SOL     OW37732   1.777   0.435  20.848
 8618SOL    HW137733   1.787   0.408  20.939
 8618SOL    HW237734   1.690   0.475  20.844
 8619SOL     OW37735   1.092   2.030  16.954
 8619SOL    HW137736   1.132   1.960  16.903
 8619SOL    HW237737   1.068   2.097  16.890
 8620SOL     OW37738   0.431   4.615   0.807
 8620SOL    HW137739   0.504   4.638   0.864
 8620SOL    HW237740   0.395   4.536   0.846
 8621SOL     OW37741   2.635   3.163   4.741
 8621SOL    HW137742   2.544   3.175   4.714
 8621SOL    HW237743   2.676   3.248   4.727
 8622SOL     OW37744   2.242   3.753   8.232
 8622SOL    HW137745   2.296   3.703   8.292
 8622SOL    HW237746   2.275   3.731   8.145
 8623SOL     OW37747   2.703   2.969  19.039
 8623SOL    HW137748   2.657   3.053  19.052
 8623SOL    HW237749   2.759   2.961  19.117
 8624SOL     OW37750   3.902   4.212   0.359
 8624SOL    HW137751   3.829   4.181   0.412
 8624SOL    HW237752   3.970   4.145   0.370
 8625SOL     OW37753   3.423   2.743  15.652
 8625SOL    HW137754   3.414   2.837  15.637
 8625SOL    HW237755   3.515   2.732  15.675
 8626SOL     OW37756   0.679   1.198   4.078
 8626SOL    HW137757   0.619   1.196   4.153
 8626SOL    HW237758   0.625   1.172   4.004
 8627SOL     OW37759   1.791   3.887   8.950
 8627SOL    HW137760   1.816   3.957   8.889
 8627SOL    HW237761   1.851   3.815   8.929
 8628SOL     OW37762   0.543   3.124  16.150
 8628SOL    HW137763   0.621   3.075  16.123
 8628SOL    HW237764   0.567   3.216  16.135
 8629SOL     OW37765   4.388   0.311  19.108
 8629SOL    HW137766   4.483   0.313  19.123
 8629SOL    HW237767   4.350   0.289  19.193
 8630SOL     OW37768   0.732   4.508   2.397
 8630SOL    HW137769   0.797   4.552   2.342
 8630SOL    HW237770   0.673   4.466   2.335
 8631SOL     OW37771   3.362   4.133  18.037
 8631SOL    HW137772   3.277   4.104  18.070
 8631SOL    HW237773   3.406   4.172  18.113
 8632SOL     OW37774   2.886   4.434  15.842
 8632SOL    HW137775   2.881   4.449  15.748
 8632SOL    HW237776   2.802   4.465  15.876
 8633SOL     OW37777   0.057   3.881   0.283
 8633SOL    HW137778   0.136   3.899   0.233
 8633SOL    HW237779   0.044   3.958   0.338
 8634SOL     OW37780   4.101   0.293  16.112
 8634SOL    HW137781   4.060   0.368  16.069
 8634SOL    HW237782   4.154   0.252  16.044
 8635SOL     OW37783   1.059   0.797   1.627
 8635SOL    HW137784   1.023   0.869   1.575
 8635SOL    HW237785   1.110   0.746   1.565
 8636SOL     OW37786   0.956   4.732  19.908
 8636SOL    HW137787   1.003   4.734  19.992
 8636SOL    HW237788   0.942   4.639  19.891
 8637SOL     OW37789   4.569   0.870  14.150
 8637SOL    HW137790   4.630   0.803  14.181
 8637SOL    HW237791   4.483   0.838  14.177
 8638SOL     OW37792   4.103   3.596  16.671
 8638SOL    HW137793   4.147   3.673  16.634
 8638SOL    HW237794   4.105   3.611  16.766
 8639SOL     OW37795   3.187   4.157   1.662
 8639SOL    HW137796   3.197   4.062   1.666
 8639SOL    HW237797   3.102   4.174   1.701
 8640SOL     OW37798   2.265   1.303   5.340
 8640SOL    HW137799   2.345   1.308   5.287
 8640SOL    HW237800   2.296   1.278   5.427
 8641SOL     OW37801   4.647   1.236  17.287
 8641SOL    HW137802   4.708   1.293  17.333
 8641SOL    HW237803   4.575   1.223  17.349
 8642SOL     OW37804   1.652   2.082   4.100
 8642SOL    HW137805   1.742   2.067   4.069
 8642SOL    HW237806   1.658   2.164   4.150
 8643SOL     OW37807   1.249   3.345   3.799
 8643SOL    HW137808   1.330   3.294   3.806
 8643SOL    HW237809   1.183   3.289   3.839
 8644SOL     OW37810   2.389   1.826  19.015
 8644SOL    HW137811   2.419   1.901  18.963
 8644SOL    HW237812   2.384   1.754  18.952
 8645SOL     OW37813   1.303   2.351  19.245
 8645SOL    HW137814   1.338   2.339  19.333
 8645SOL    HW237815   1.244   2.426  19.253
 8646SOL     OW37816   4.311   4.403  14.969
 8646SOL    HW137817   4.371   4.428  14.899
 8646SOL    HW237818   4.237   4.362  14.925
 8647SOL     OW37819   0.812   0.458   1.874
 8647SOL    HW137820   0.900   0.443   1.910
 8647SOL    HW237821   0.775   0.370   1.864
 8648SOL     OW37822   0.289   1.569   2.651
 8648SOL    HW137823   0.260   1.503   2.714
 8648SOL    HW237824   0.369   1.605   2.690
 8649SOL     OW37825   2.945   1.719  16.516
 8649SOL    HW137826   2.955   1.814  16.525
 8649SOL    HW237827   3.008   1.682  16.578
 8650SOL     OW37828   0.318   4.751  18.597
 8650SOL    HW137829   0.284   0.002  18.674
 8650SOL    HW237830   0.285   4.661  18.605
 8651SOL     OW37831   0.898   1.239   3.890
 8651SOL    HW137832   0.852   1.322   3.885
 8651SOL    HW237833   0.876   1.204   3.976
 8652SOL     OW37834   0.260   0.286  16.048
 8652SOL    HW137835   0.302   0.316  15.968
 8652SOL    HW237836   0.212   0.362  16.080
 8653SOL     OW37837   0.961   3.155   6.042
 8653SOL    HW137838   0.875   3.151   6.084
 8653SOL    HW237839   0.999   3.068   6.058
 8654SOL     OW37840   2.083   2.040  18.625
 8654SOL    HW137841   2.167   2.045  18.671
 8654SOL    HW237842   2.066   1.946  18.616
 8655SOL     OW37843   1.140   0.919  13.785
 8655SOL    HW137844   1.158   0.859  13.857
 8655SOL    HW237845   1.088   0.989  13.824
 8656SOL     OW37846   4.748   0.556  19.404
 8656SOL    HW137847   4.785   0.540  19.317
 8656SOL    HW237848   4.792   0.493  19.461
 8657SOL     OW37849   3.384   3.086  21.272
 8657SOL    HW137850   3.380   3.119  21.182
 8657SOL    HW237851   3.478   3.081   0.014
 8658SOL     OW37852   0.027   2.657   0.505
 8658SOL    HW137853   0.113   2.698   0.508
 8658SOL    HW237854   0.017   2.615   0.591
 8659SOL     OW37855   4.763   1.653   2.949
 8659SOL    HW137856   0.029   1.696   2.888
 8659SOL    HW237857   4.723   1.724   2.998
 8660SOL     OW37858   1.742   1.945  18.676
 8660SOL    HW137859   1.647   1.939  18.665
 8660SOL    HW237860   1.771   1.999  18.602
 8661SOL     OW37861   3.736   4.658  17.206
 8661SOL    HW137862   3.745   4.708  17.125
 8661SOL    HW237863   3.826   4.632  17.228
 8662SOL     OW37864   4.688   3.694   3.374
 8662SOL    HW137865   4.663   3.718   3.463
 8662SOL    HW237866   4.783   3.686   3.377
 8663SOL     OW37867   1.070   3.498   2.781
 8663SOL    HW137868   1.134   3.461   2.720
 8663SOL    HW237869   1.056   3.429   2.846
 8664SOL     OW37870   1.159   1.891  11.297
 8664SOL    HW137871   1.159   1.801  11.263
 8664SOL    HW237872   1.101   1.939  11.238
 8665SOL     OW37873   0.217   1.214  21.134
 8665SOL    HW137874   0.270   1.214  21.054
 8665SOL    HW237875   0.213   1.306  21.160
 8666SOL     OW37876   3.059   4.750   2.263
 8666SOL    HW137877   3.102   0.005   2.193
 8666SOL    HW237878   3.023   0.023   2.321
 8667SOL     OW37879   0.952   0.828  15.958
 8667SOL    HW137880   0.863   0.817  15.993
 8667SOL    HW237881   0.960   0.760  15.892
 8668SOL     OW37882   3.654   2.434   5.626
 8668SOL    HW137883   3.614   2.401   5.546
 8668SOL    HW237884   3.738   2.389   5.632
 8669SOL     OW37885   0.601   2.509   3.067
 8669SOL    HW137886   0.645   2.574   3.012
 8669SOL    HW237887   0.551   2.455   3.005
 8670SOL     OW37888   1.586   0.623  20.850
 8670SOL    HW137889   1.629   0.691  20.798
 8670SOL    HW237890   1.591   0.656  20.940
 8671SOL     OW37891   4.463   3.317  15.016
 8671SOL    HW137892   4.437   3.308  15.108
 8671SOL    HW237893   4.451   3.229  14.980
 8672SOL     OW37894   2.243   4.678   1.196
 8672SOL    HW137895   2.280   4.762   1.222
 8672SOL    HW237896   2.197   4.647   1.274
 8673SOL     OW37897   2.450   4.611   3.051
 8673SOL    HW137898   2.451   4.578   2.961
 8673SOL    HW237899   2.357   4.618   3.074
 8674SOL     OW37900   4.159   2.457  21.187
 8674SOL    HW137901   4.102   2.511  21.133
 8674SOL    HW237902   4.140   2.484   0.001
 8675SOL     OW37903   0.571   3.512   6.199
 8675SOL    HW137904   0.653   3.506   6.249
 8675SOL    HW237905   0.525   3.430   6.218
 8676SOL     OW37906   4.001   0.838  20.239
 8676SOL    HW137907   3.985   0.765  20.179
 8676SOL    HW237908   4.092   0.865  20.221
 8677SOL     OW37909   4.600   3.773  21.070
 8677SOL    HW137910   4.634   3.845  21.123
 8677SOL    HW237911   4.505   3.782  21.076
 8678SOL     OW37912   4.102   4.194  16.185
 8678SOL    HW137913   4.156   4.216  16.109
 8678SOL    HW237914   4.110   4.099  16.194
 8679SOL     OW37915   2.133   3.268   6.290
 8679SOL    HW137916   2.160   3.176   6.288
 8679SOL    HW237917   2.039   3.265   6.307
 8680SOL     OW37918   1.755   4.767   2.896
 8680SOL    HW137919   1.702   0.042   2.935
 8680SOL    HW237920   1.701   4.689   2.902
 8681SOL     OW37921   1.809   1.267  18.599
 8681SOL    HW137922   1.722   1.305  18.585
 8681SOL    HW237923   1.852   1.328  18.660
 8682SOL     OW37924   3.264   2.601  16.842
 8682SOL    HW137925   3.327   2.531  16.861
 8682SOL    HW237926   3.225   2.576  16.758
 8683SOL     OW37927   0.313   2.958   1.742
 8683SOL    HW137928   0.273   2.882   1.699
 8683SOL    HW237929   0.238   3.012   1.769
 8684SOL     OW37930   4.130   3.065   0.062
 8684SOL    HW137931   4.120   3.112  21.256
 8684SOL    HW237932   4.156   3.132   0.125
 8685SOL     OW37933   1.340   1.569   5.782
 8685SOL    HW137934   1.394   1.596   5.856
 8685SOL    HW237935   1.287   1.497   5.816
 8686SOL     OW37936   0.001   0.582  17.415
 8686SOL    HW137937   4.788   0.525  17.492
 8686SOL    HW237938   0.093   0.606  17.410
 8687SOL     OW37939   4.529   3.467  13.956
 8687SOL    HW137940   4.485   3.462  14.041
 8687SOL    HW237941   4.501   3.551  13.920
 8688SOL     OW37942   2.347   0.138  15.525
 8688SOL    HW137943   2.323   0.072  15.460
 8688SOL    HW237944   2.319   0.221  15.486
 8689SOL     OW37945   1.390   3.465   1.619
 8689SOL    HW137946   1.469   3.477   1.671
 8689SOL    HW237947   1.382   3.370   1.608
 8690SOL     OW37948   3.802   2.959  16.227
 8690SOL    HW137949   3.716   2.986  16.259
 8690SOL    HW237950   3.802   2.981  16.134
 8691SOL     OW37951   1.709   3.033   5.223
 8691SOL    HW137952   1.795   3.072   5.210
 8691SOL    HW237953   1.647   3.098   5.189
 8692SOL     OW37954   1.700   1.710   7.661
 8692SOL    HW137955   1.657   1.784   7.702
 8692SOL    HW237956   1.778   1.694   7.715
 8693SOL     OW37957   3.698   3.317   4.251
 8693SOL    HW137958   3.752   3.298   4.328
 8693SOL    HW237959   3.689   3.412   4.251
 8694SOL     OW37960   0.436   0.229   5.217
 8694SOL    HW137961   0.393   0.145   5.235
 8694SOL    HW237962   0.378   0.295   5.254
 8695SOL     OW37963   3.491   2.802  14.060
 8695SOL    HW137964   3.563   2.751  14.022
 8695SOL    HW237965   3.437   2.826  13.986
 8696SOL     OW37966   0.200   1.185   7.809
 8696SOL    HW137967   0.196   1.213   7.717
 8696SOL    HW237968   0.247   1.255   7.854
 8697SOL     OW37969   1.319   4.429   5.047
 8697SOL    HW137970   1.272   4.355   5.086
 8697SOL    HW237971   1.368   4.392   4.974
 8698SOL     OW37972   4.491   4.409  18.458
 8698SOL    HW137973   4.401   4.440  18.444
 8698SOL    HW237974   4.489   4.363  18.542
 8699SOL     OW37975   2.956   2.086  13.020
 8699SOL    HW137976   2.960   2.010  13.078
 8699SOL    HW237977   3.008   2.153  13.064
 8700SOL     OW37978   4.382   4.489   7.824
 8700SOL    HW137979   4.428   4.472   7.907
 8700SOL    HW237980   4.447   4.473   7.757
 8701SOL     OW37981   4.262   3.816   2.783
 8701SOL    HW137982   4.178   3.811   2.830
 8701SOL    HW237983   4.327   3.822   2.853
 8702SOL     OW37984   1.319   2.879  17.070
 8702SOL    HW137985   1.238   2.829  17.079
 8702SOL    HW237986   1.382   2.833  17.126
 8703SOL     OW37987   4.149   0.099   6.888
 8703SOL    HW137988   4.110   0.047   6.959
 8703SOL    HW237989   4.239   0.114   6.917
 8704SOL     OW37990   4.143   4.174  17.052
 8704SOL    HW137991   4.083   4.231  17.003
 8704SOL    HW237992   4.085   4.112  17.096
 8705SOL     OW37993   3.351   2.847  19.909
 8705SOL    HW137994   3.352   2.864  20.003
 8705SOL    HW237995   3.390   2.926  19.870
 8706SOL     OW37996   2.772   4.628  21.197
 8706SOL    HW137997   2.752   4.721  21.205
 8706SOL    HW237998   2.712   4.585  21.258
 8707SOL     OW37999   2.258   1.786   5.632
 8707SOL    HW138000   2.264   1.755   5.722
 8707SOL    HW238001   2.321   1.733   5.583
 8708SOL     OW38002   1.296   1.379   0.435
 8708SOL    HW138003   1.262   1.324   0.363
 8708SOL    HW238004   1.258   1.340   0.514
 8709SOL     OW38005   2.691   1.030  18.905
 8709SOL    HW138006   2.638   1.050  18.828
 8709SOL    HW238007   2.780   1.054  18.879
 8710SOL     OW38008   3.986   2.451  18.688
 8710SOL    HW138009   3.904   2.403  18.679
 8710SOL    HW238010   4.039   2.423  18.613
 8711SOL     OW38011   0.604   1.813   4.673
 8711SOL    HW138012   0.669   1.808   4.604
 8711SOL    HW238013   0.537   1.872   4.639
 8712SOL     OW38014   3.303   2.229   3.046
 8712SOL    HW138015   3.210   2.207   3.039
 8712SOL    HW238016   3.337   2.170   3.114
 8713SOL     OW38017   0.753   4.357   5.784
 8713SOL    HW138018   0.820   4.392   5.725
 8713SOL    HW238019   0.723   4.276   5.743
 8714SOL     OW38020   3.000   0.079   6.638
 8714SOL    HW138021   3.060   0.143   6.600
 8714SOL    HW238022   3.055   0.024   6.693
 8715SOL     OW38023   3.312   3.922   6.404
 8715SOL    HW138024   3.405   3.902   6.405
 8715SOL    HW238025   3.270   3.845   6.443
 8716SOL     OW38026   3.923   4.043   0.094
 8716SOL    HW138027   3.955   4.124   0.135
 8716SOL    HW238028   3.861   4.073   0.027
 8717SOL     OW38029   0.269   3.746   4.223
 8717SOL    HW138030   0.253   3.770   4.315
 8717SOL    HW238031   0.363   3.758   4.211
 8718SOL     OW38032   2.438   3.396  17.734
 8718SOL    HW138033   2.516   3.342  17.744
 8718SOL    HW238034   2.386   3.379  17.813
 8719SOL     OW38035   1.518   0.677  12.816
 8719SOL    HW138036   1.604   0.636  12.805
 8719SOL    HW238037   1.471   0.655  12.736
 8720SOL     OW38038   4.788   3.717  17.878
 8720SOL    HW138039   4.749   3.776  17.814
 8720SOL    HW238040   0.049   3.775  17.932
 8721SOL     OW38041   4.184   4.362  18.108
 8721SOL    HW138042   4.257   4.339  18.051
 8721SOL    HW238043   4.106   4.340  18.057
 8722SOL     OW38044   2.199   0.353   1.655
 8722SOL    HW138045   2.276   0.307   1.622
 8722SOL    HW238046   2.234   0.434   1.694
 8723SOL     OW38047   2.597   4.329   2.805
 8723SOL    HW138048   2.640   4.354   2.886
 8723SOL    HW238049   2.549   4.250   2.826
 8724SOL     OW38050   3.993   4.100  15.840
 8724SOL    HW138051   3.899   4.089  15.852
 8724SOL    HW238052   4.032   4.023  15.881
 8725SOL     OW38053   3.080   3.331  16.006
 8725SOL    HW138054   3.000   3.357  15.960
 8725SOL    HW238055   3.108   3.410  16.052
 8726SOL     OW38056   2.084   2.937   3.355
 8726SOL    HW138057   2.025   2.957   3.283
 8726SOL    HW238058   2.047   2.857   3.394
 8727SOL     OW38059   0.698   3.833   2.042
 8727SOL    HW138060   0.685   3.750   2.089
 8727SOL    HW238061   0.786   3.861   2.067
 8728SOL     OW38062   3.507   0.046  17.163
 8728SOL    HW138063   3.473   4.770  17.218
 8728SOL    HW238064   3.504   0.010  17.074
 8729SOL     OW38065   1.017   0.574   5.017
 8729SOL    HW138066   0.987   0.507   4.955
 8729SOL    HW238067   0.943   0.636   5.022
 8730SOL     OW38068   3.549   0.062  21.270
 8730SOL    HW138069   3.608   0.049  21.196
 8730SOL    HW238070   3.554   0.156   0.012
 8731SOL     OW38071   0.274   2.531  20.613
 8731SOL    HW138072   0.265   2.452  20.560
 8731SOL    HW238073   0.358   2.521  20.657
 8732SOL     OW38074   0.374   3.126   2.640
 8732SOL    HW138075   0.367   3.079   2.557
 8732SOL    HW238076   0.349   3.061   2.706
 8733SOL     OW38077   4.567   0.598  15.468
 8733SOL    HW138078   4.519   0.567  15.391
 8733SOL    HW238079   4.499   0.630  15.527
 8734SOL     OW38080   0.387   4.720   7.281
 8734SOL    HW138081   0.481   4.736   7.282
 8734SOL    HW238082   0.358   4.750   7.195
 8735SOL     OW38083   2.697   0.765  20.448
 8735SOL    HW138084   2.603   0.784  20.449
 8735SOL    HW238085   2.732   0.818  20.377
 8736SOL     OW38086   4.278   2.130  16.338
 8736SOL    HW138087   4.212   2.060  16.341
 8736SOL    HW238088   4.356   2.091  16.376
 8737SOL     OW38089   0.179   2.377  17.788
 8737SOL    HW138090   0.096   2.364  17.835
 8737SOL    HW238091   0.193   2.295  17.741
 8738SOL     OW38092   1.500   4.767  20.702
 8738SOL    HW138093   1.477   0.048  20.757
 8738SOL    HW238094   1.550   4.709  20.759
 8739SOL     OW38095   4.144   3.858   3.698
 8739SOL    HW138096   4.216   3.917   3.721
 8739SOL    HW238097   4.079   3.872   3.768
 8740SOL     OW38098   1.561   2.993   2.029
 8740SOL    HW138099   1.497   3.008   1.959
 8740SOL    HW238100   1.610   3.075   2.034
 8741SOL     OW38101   3.686   2.865  15.153
 8741SOL    HW138102   3.654   2.811  15.224
 8741SOL    HW238103   3.608   2.909  15.119
 8742SOL     OW38104   1.860   1.384  17.384
 8742SOL    HW138105   1.860   1.469  17.339
 8742SOL    HW238106   1.933   1.337  17.343
 8743SOL     OW38107   0.343   3.507  17.455
 8743SOL    HW138108   0.323   3.443  17.523
 8743SOL    HW238109   0.278   3.491  17.387
 8744SOL     OW38110   1.239   1.928  17.893
 8744SOL    HW138111   1.166   1.909  17.834
 8744SOL    HW238112   1.219   2.014  17.929
 8745SOL     OW38113   4.054   2.429   6.220
 8745SOL    HW138114   3.960   2.437   6.202
 8745SOL    HW238115   4.059   2.382   6.303
 8746SOL     OW38116   0.198   1.966  18.148
 8746SOL    HW138117   0.223   2.056  18.168
 8746SOL    HW238118   0.191   1.924  18.233
 8747SOL     OW38119   2.450   4.242   5.590
 8747SOL    HW138120   2.398   4.307   5.543
 8747SOL    HW238121   2.476   4.179   5.523
 8748SOL     OW38122   2.339   4.582   6.598
 8748SOL    HW138123   2.326   4.493   6.564
 8748SOL    HW238124   2.250   4.617   6.608
 8749SOL     OW38125   2.548   1.397   0.837
 8749SOL    HW138126   2.514   1.337   0.770
 8749SOL    HW238127   2.487   1.386   0.910
 8750SOL     OW38128   0.625   3.596  16.226
 8750SOL    HW138129   0.705   3.645  16.209
 8750SOL    HW238130   0.563   3.627  16.159
 8751SOL     OW38131   0.630   3.730  20.444
 8751SOL    HW138132   0.646   3.645  20.402
 8751SOL    HW238133   0.699   3.737  20.510
 8752SOL     OW38134   3.773   1.349  13.833
 8752SOL    HW138135   3.838   1.372  13.900
 8752SOL    HW238136   3.752   1.258  13.851
 8753SOL     OW38137   1.967   0.231  13.998
 8753SOL    HW138138   2.026   0.230  14.073
 8753SOL    HW238139   2.024   0.242  13.922
 8754SOL     OW38140   1.466   0.640   7.146
 8754SOL    HW138141   1.387   0.591   7.166
 8754SOL    HW238142   1.456   0.666   7.055
 8755SOL     OW38143   2.382   3.280   2.832
 8755SOL    HW138144   2.394   3.218   2.904
 8755SOL    HW238145   2.451   3.257   2.770
 8756SOL     OW38146   2.848   3.252   4.446
 8756SOL    HW138147   2.777   3.303   4.406
 8756SOL    HW238148   2.808   3.167   4.465
 8757SOL     OW38149   1.271   3.704   1.598
 8757SOL    HW138150   1.306   3.616   1.584
 8757SOL    HW238151   1.254   3.737   1.510
 8758SOL     OW38152   2.427   2.058   8.152
 8758SOL    HW138153   2.441   1.965   8.171
 8758SOL    HW238154   2.514   2.097   8.165
 8759SOL     OW38155   3.784   3.925  16.786
 8759SOL    HW138156   3.863   3.966  16.752
 8759SOL    HW238157   3.727   3.999  16.809
 8760SOL     OW38158   3.850   3.708   9.694
 8760SOL    HW138159   3.877   3.617   9.697
 8760SOL    HW238160   3.806   3.723   9.777
 8761SOL     OW38161   3.525   0.651   1.092
 8761SOL    HW138162   3.566   0.569   1.119
 8761SOL    HW238163   3.586   0.719   1.121
 8762SOL     OW38164   0.859   3.264  19.035
 8762SOL    HW138165   0.804   3.219  18.971
 8762SOL    HW238166   0.920   3.316  18.983
 8763SOL     OW38167   2.937   2.679  12.706
 8763SOL    HW138168   2.876   2.671  12.632
 8763SOL    HW238169   2.891   2.732  12.770
 8764SOL     OW38170   0.349   1.157   1.326
 8764SOL    HW138171   0.429   1.206   1.310
 8764SOL    HW238172   0.308   1.201   1.401
 8765SOL     OW38173   0.018   3.508  18.626
 8765SOL    HW138174   4.746   3.517  18.694
 8765SOL    HW238175   4.763   3.514  18.544
 8766SOL     OW38176   2.902   4.514   3.613
 8766SOL    HW138177   2.888   4.431   3.568
 8766SOL    HW238178   2.815   4.554   3.619
 8767SOL     OW38179   4.512   4.421  20.727
 8767SOL    HW138180   4.459   4.450  20.652
 8767SOL    HW238181   4.457   4.357  20.772
 8768SOL     OW38182   1.218   0.243  13.423
 8768SOL    HW138183   1.181   0.295  13.494
 8768SOL    HW238184   1.159   0.257  13.349
 8769SOL     OW38185   3.485   2.671   3.256
 8769SOL    HW138186   3.480   2.698   3.164
 8769SOL    HW238187   3.408   2.616   3.269
 8770SOL     OW38188   1.972   4.290   6.026
 8770SOL    HW138189   1.978   4.289   6.122
 8770SOL    HW238190   2.012   4.207   5.999
 8771SOL     OW38191   2.647   3.870   3.868
 8771SOL    HW138192   2.603   3.950   3.841
 8771SOL    HW238193   2.589   3.799   3.839
 8772SOL     OW38194   4.123   1.777   0.815
 8772SOL    HW138195   4.045   1.777   0.759
 8772SOL    HW238196   4.091   1.752   0.901
 8773SOL     OW38197   1.223   0.707   1.829
 8773SOL    HW138198   1.154   0.740   1.771
 8773SOL    HW238199   1.300   0.702   1.774
 8774SOL     OW38200   3.761   1.223   4.265
 8774SOL    HW138201   3.753   1.128   4.263
 8774SOL    HW238202   3.702   1.254   4.196
 8775SOL     OW38203   1.916   2.652  17.579
 8775SOL    HW138204   1.889   2.668  17.669
 8775SOL    HW238205   1.995   2.705  17.567
 8776SOL     OW38206   2.194   3.842  17.768
 8776SOL    HW138207   2.190   3.938  17.764
 8776SOL    HW238208   2.222   3.816  17.680
 8777SOL     OW38209   3.511   2.333   5.434
 8777SOL    HW138210   3.537   2.387   5.359
 8777SOL    HW238211   3.493   2.247   5.396
 8778SOL     OW38212   2.123   1.794  19.091
 8778SOL    HW138213   2.216   1.814  19.083
 8778SOL    HW238214   2.079   1.877  19.076
 8779SOL     OW38215   2.921   4.783  18.715
 8779SOL    HW138216   2.900   4.728  18.639
 8779SOL    HW238217   2.900   0.078  18.686
 8780SOL     OW38218   4.468   3.179   7.133
 8780SOL    HW138219   4.478   3.099   7.081
 8780SOL    HW238220   4.556   3.198   7.164
 8781SOL     OW38221   4.169   1.874  19.871
 8781SOL    HW138222   4.174   1.794  19.922
 8781SOL    HW238223   4.248   1.923  19.895
 8782SOL     OW38224   4.669   4.772  18.530
 8782SOL    HW138225   4.761   4.783  18.506
 8782SOL    HW238226   4.671   4.723  18.612
 8783SOL     OW38227   1.728   0.264  17.755
 8783SOL    HW138228   1.736   0.313  17.836
 8783SOL    HW238229   1.640   0.284  17.723
 8784SOL     OW38230   1.635   0.942   3.866
 8784SOL    HW138231   1.589   0.897   3.796
 8784SOL    HW238232   1.665   1.024   3.826
 8785SOL     OW38233   1.449   2.999   6.164
 8785SOL    HW138234   1.417   2.973   6.077
 8785SOL    HW238235   1.489   3.085   6.149
 8786SOL     OW38236   2.645   2.414  17.990
 8786SOL    HW138237   2.705   2.366  17.932
 8786SOL    HW238238   2.693   2.422  18.072
 8787SOL     OW38239   3.889   4.329  13.719
 8787SOL    HW138240   3.891   4.378  13.637
 8787SOL    HW238241   3.797   4.330  13.745
 8788SOL     OW38242   1.612   4.536   6.640
 8788SOL    HW138243   1.697   4.539   6.683
 8788SOL    HW238244   1.549   4.544   6.712
 8789SOL     OW38245   1.054   4.762  20.392
 8789SOL    HW138246   1.009   0.050  20.412
 8789SOL    HW238247   1.115   4.749  20.465
 8790SOL     OW38248   3.043   0.496  17.600
 8790SOL    HW138249   3.134   0.472  17.618
 8790SOL    HW238250   3.020   0.447  17.521
 8791SOL     OW38251   2.804   2.717   0.017
 8791SOL    HW138252   2.850   2.692   0.097
 8791SOL    HW238253   2.768   2.804   0.036
 8792SOL     OW38254   3.200   3.533   5.215
 8792SOL    HW138255   3.293   3.523   5.234
 8792SOL    HW238256   3.161   3.449   5.240
 8793SOL     OW38257   2.883   0.833   2.284
 8793SOL    HW138258   2.918   0.869   2.202
 8793SOL    HW238259   2.788   0.832   2.271
 8794SOL     OW38260   0.368   4.227   7.522
 8794SOL    HW138261   0.366   4.321   7.504
 8794SOL    HW238262   0.324   4.187   7.447
 8795SOL     OW38263   0.066   4.299  17.304
 8795SOL    HW138264   0.054   4.209  17.333
 8795SOL    HW238265   0.100   4.345  17.380
 8796SOL     OW38266   2.744   3.165  16.929
 8796SOL    HW138267   2.774   3.159  16.838
 8796SOL    HW238268   2.791   3.241  16.965
 8797SOL     OW38269   1.020   1.262  19.409
 8797SOL    HW138270   1.079   1.266  19.334
 8797SOL    HW238271   0.965   1.340  19.400
 8798SOL     OW38272   3.727   2.148   5.717
 8798SOL    HW138273   3.645   2.099   5.716
 8798SOL    HW238274   3.778   2.113   5.644
 8799SOL     OW38275   3.769   3.986   4.851
 8799SOL    HW138276   3.739   4.075   4.867
 8799SOL    HW238277   3.860   3.995   4.824
 8800SOL     OW38278   4.076   2.578  19.832
 8800SOL    HW138279   3.984   2.592  19.807
 8800SOL    HW238280   4.125   2.635  19.773
 8801SOL     OW38281   3.955   2.017  15.615
 8801SOL    HW138282   4.049   1.998  15.621
 8801SOL    HW238283   3.950   2.096  15.560
 8802SOL     OW38284   4.168   0.985   2.661
 8802SOL    HW138285   4.080   0.972   2.627
 8802SOL    HW238286   4.161   0.966   2.755
 8803SOL     OW38287   3.048   2.262  17.840
 8803SOL    HW138288   3.100   2.295  17.766
 8803SOL    HW238289   3.030   2.340  17.893
 8804SOL     OW38290   0.541   2.487   0.173
 8804SOL    HW138291   0.592   2.512   0.250
 8804SOL    HW238292   0.563   2.553   0.107
 8805SOL     OW38293   2.726   1.921  17.162
 8805SOL    HW138294   2.677   1.857  17.110
 8805SOL    HW238295   2.760   1.871  17.236
 8806SOL     OW38296   3.866   3.234  21.063
 8806SOL    HW138297   3.895   3.144  21.049
 8806SOL    HW238298   3.772   3.227  21.079
 8807SOL     OW38299   1.065   3.326   9.087
 8807SOL    HW138300   0.977   3.296   9.108
 8807SOL    HW238301   1.113   3.320   9.170
 8808SOL     OW38302   0.163   3.082  20.875
 8808SOL    HW138303   0.168   3.023  20.800
 8808SOL    HW238304   0.201   3.164  20.844
 8809SOL     OW38305   4.335   0.582  17.152
 8809SOL    HW138306   4.385   0.553  17.228
 8809SOL    HW238307   4.259   0.524  17.149
 8810SOL     OW38308   4.502   4.620  15.290
 8810SOL    HW138309   4.416   4.601  15.251
 8810SOL    HW238310   4.510   4.557  15.361
 8811SOL     OW38311   3.491   3.778  17.745
 8811SOL    HW138312   3.464   3.695  17.705
 8811SOL    HW238313   3.528   3.752  17.829
 8812SOL     OW38314   0.510   1.114  14.395
 8812SOL    HW138315   0.509   1.155  14.481
 8812SOL    HW238316   0.420   1.084  14.381
 8813SOL     OW38317   2.673   4.611   5.004
 8813SOL    HW138318   2.674   4.647   5.093
 8813SOL    HW238319   2.629   4.678   4.952
 8814SOL     OW38320   1.249   3.204  18.827
 8814SOL    HW138321   1.213   3.119  18.849
 8814SOL    HW238322   1.335   3.185  18.789
 8815SOL     OW38323   2.815   3.920   0.041
 8815SOL    HW138324   2.893   3.936  21.265
 8815SOL    HW238325   2.792   4.005   0.077
 8816SOL     OW38326   0.504   1.630  16.370
 8816SOL    HW138327   0.443   1.690  16.413
 8816SOL    HW238328   0.450   1.557  16.340
 8817SOL     OW38329   3.403   4.588  17.496
 8817SOL    HW138330   3.333   4.652  17.500
 8817SOL    HW238331   3.418   4.574  17.403
 8818SOL     OW38332   2.183   4.319   1.760
 8818SOL    HW138333   2.117   4.382   1.788
 8818SOL    HW238334   2.139   4.267   1.693
 8819SOL     OW38335   2.068   0.775   2.027
 8819SOL    HW138336   1.985   0.731   2.014
 8819SOL    HW238337   2.132   0.722   1.979
 8820SOL     OW38338   4.555   1.782  19.279
 8820SOL    HW138339   4.581   1.700  19.321
 8820SOL    HW238340   4.482   1.814  19.331
 8821SOL     OW38341   4.281   3.173   0.677
 8821SOL    HW138342   4.249   3.082   0.679
 8821SOL    HW238343   4.360   3.172   0.731
 8822SOL     OW38344   1.088   3.995  20.414
 8822SOL    HW138345   1.057   3.913  20.375
 8822SOL    HW238346   1.123   4.044  20.339
 8823SOL     OW38347   1.866   0.968   4.430
 8823SOL    HW138348   1.827   0.988   4.344
 8823SOL    HW238349   1.792   0.970   4.490
 8824SOL     OW38350   0.666   0.930  20.364
 8824SOL    HW138351   0.691   0.979  20.443
 8824SOL    HW238352   0.688   0.989  20.292
 8825SOL     OW38353   0.663   0.735  17.214
 8825SOL    HW138354   0.676   0.646  17.248
 8825SOL    HW238355   0.692   0.793  17.284
 8826SOL     OW38356   3.829   1.868  19.054
 8826SOL    HW138357   3.826   1.962  19.072
 8826SOL    HW238358   3.791   1.828  19.132
 8827SOL     OW38359   2.119   1.446   3.655
 8827SOL    HW138360   2.168   1.470   3.734
 8827SOL    HW238361   2.179   1.387   3.607
 8828SOL     OW38362   1.017   1.555   2.822
 8828SOL    HW138363   0.930   1.575   2.858
 8828SOL    HW238364   1.061   1.640   2.818
 8829SOL     OW38365   0.211   1.262  16.034
 8829SOL    HW138366   0.220   1.329  15.966
 8829SOL    HW238367   0.280   1.199  16.014
 8830SOL     OW38368   2.127   4.713   1.896
 8830SOL    HW138369   2.144   4.790   1.950
 8830SOL    HW238370   2.138   4.744   1.806
 8831SOL     OW38371   4.277   0.320  20.902
 8831SOL    HW138372   4.213   0.308  20.972
 8831SOL    HW238373   4.224   0.344  20.825
 8832SOL     OW38374   1.863   2.403   1.347
 8832SOL    HW138375   1.802   2.389   1.275
 8832SOL    HW238376   1.950   2.394   1.308
 8833SOL     OW38377   4.161   2.093   4.516
 8833SOL    HW138378   4.085   2.036   4.531
 8833SOL    HW238379   4.156   2.115   4.423
 8834SOL     OW38380   1.774   0.365   2.908
 8834SOL    HW138381   1.767   0.461   2.906
 8834SOL    HW238382   1.766   0.343   3.001
 8835SOL     OW38383   3.131   0.373   4.742
 8835SOL    HW138384   3.143   0.278   4.743
 8835SOL    HW238385   3.076   0.390   4.666
 8836SOL     OW38386   3.820   3.491   6.604
 8836SOL    HW138387   3.763   3.511   6.679
 8836SOL    HW238388   3.828   3.574   6.557
 8837SOL     OW38389   4.690   0.817   2.157
 8837SOL    HW138390   4.765   0.876   2.149
 8837SOL    HW238391   4.720   0.734   2.118
 8838SOL     OW38392   0.883   4.606   0.610
 8838SOL    HW138393   0.889   4.697   0.581
 8838SOL    HW238394   0.931   4.556   0.545
 8839SOL     OW38395   0.747   0.538   7.279
 8839SOL    HW138396   0.840   0.554   7.264
 8839SOL    HW238397   0.706   0.623   7.262
 8840SOL     OW38398   1.480   2.951  14.036
 8840SOL    HW138399   1.498   3.031  14.085
 8840SOL    HW238400   1.454   2.981  13.949
 8841SOL     OW38401   2.964   2.499   1.743
 8841SOL    HW138402   2.895   2.439   1.714
 8841SOL    HW238403   3.011   2.450   1.811
 8842SOL     OW38404   0.671   3.578   2.141
 8842SOL    HW138405   0.666   3.496   2.092
 8842SOL    HW238406   0.758   3.577   2.181
 8843SOL     OW38407   4.775   0.822   2.452
 8843SOL    HW138408   4.700   0.782   2.496
 8843SOL    HW238409   4.737   0.866   2.376
 8844SOL     OW38410   1.403   3.490  16.145
 8844SOL    HW138411   1.372   3.420  16.087
 8844SOL    HW238412   1.422   3.445  16.227
 8845SOL     OW38413   0.622   2.728   0.037
 8845SOL    HW138414   0.646   2.810   0.081
 8845SOL    HW238415   0.602   2.755  21.223
 8846SOL     OW38416   2.873   3.623  19.257
 8846SOL    HW138417   2.896   3.695  19.316
 8846SOL    HW238418   2.820   3.564  19.310
 8847SOL     OW38419   3.917   2.279  19.979
 8847SOL    HW138420   3.985   2.343  19.958
 8847SOL    HW238421   3.930   2.260  20.072
 8848SOL     OW38422   0.748   1.565  16.436
 8848SOL    HW138423   0.658   1.585  16.408
 8848SOL    HW238424   0.802   1.625  16.384
 8849SOL     OW38425   1.871   0.208  15.943
 8849SOL    HW138426   1.861   0.215  16.038
 8849SOL    HW238427   1.943   0.268  15.922
 8850SOL     OW38428   4.319   3.118  14.064
 8850SOL    HW138429   4.327   3.100  13.970
 8850SOL    HW238430   4.348   3.037  14.106
 8851SOL     OW38431   0.029   4.245  16.979
 8851SOL    HW138432   4.752   4.183  16.993
 8851SOL    HW238433   0.021   4.306  17.053
 8852SOL     OW38434   2.498   3.946  17.853
 8852SOL    HW138435   2.499   3.852  17.835
 8852SOL    HW238436   2.489   3.987  17.767
 8853SOL     OW38437   0.208   0.042  13.335
 8853SOL    HW138438   0.266   0.082  13.399
 8853SOL    HW238439   0.242   0.071  13.250
 8854SOL     OW38440   0.551   2.676  17.705
 8854SOL    HW138441   0.541   2.617  17.780
 8854SOL    HW238442   0.463   2.679  17.666
 8855SOL     OW38443   3.098   2.775   5.163
 8855SOL    HW138444   3.174   2.795   5.218
 8855SOL    HW238445   3.062   2.861   5.140
 8856SOL     OW38446   4.571   2.072  19.862
 8856SOL    HW138447   4.476   2.068  19.868
 8856SOL    HW238448   4.589   2.070  19.767
 8857SOL     OW38449   0.658   2.434  17.947
 8857SOL    HW138450   0.576   2.383  17.946
 8857SOL    HW238451   0.721   2.379  17.900
 8858SOL     OW38452   0.134   3.212   2.168
 8858SOL    HW138453   0.082   3.138   2.137
 8858SOL    HW238454   0.074   3.261   2.224
 8859SOL     OW38455   0.209   4.121   0.768
 8859SOL    HW138456   0.171   4.193   0.817
 8859SOL    HW238457   0.136   4.061   0.752
 8860SOL     OW38458   1.299   4.581   1.797
 8860SOL    HW138459   1.227   4.575   1.734
 8860SOL    HW238460   1.277   4.516   1.864
 8861SOL     OW38461   2.794   1.489  16.408
 8861SOL    HW138462   2.841   1.572  16.400
 8861SOL    HW238463   2.731   1.503  16.478
 8862SOL     OW38464   2.323   1.167  15.119
 8862SOL    HW138465   2.337   1.255  15.156
 8862SOL    HW238466   2.284   1.117  15.190
 8863SOL     OW38467   3.041   4.298  13.095
 8863SOL    HW138468   3.101   4.240  13.048
 8863SOL    HW238469   3.082   4.384  13.090
 8864SOL     OW38470   1.477   0.437   5.870
 8864SOL    HW138471   1.497   0.520   5.914
 8864SOL    HW238472   1.559   0.389   5.870
 8865SOL     OW38473   3.329   1.684  16.136
 8865SOL    HW138474   3.293   1.742  16.203
 8865SOL    HW238475   3.272   1.607  16.138
 8866SOL     OW38476   0.523   0.622  15.861
 8866SOL    HW138477   0.542   0.698  15.916
 8866SOL    HW238478   0.440   0.643  15.818
 8867SOL     OW38479   1.361   0.220  16.542
 8867SOL    HW138480   1.409   0.142  16.570
 8867SOL    HW238481   1.270   0.192  16.538
 8868SOL     OW38482   2.439   4.097   4.334
 8868SOL    HW138483   2.391   4.022   4.298
 8868SOL    HW238484   2.479   4.064   4.414
 8869SOL     OW38485   1.847   1.615  20.575
 8869SOL    HW138486   1.875   1.642  20.663
 8869SOL    HW238487   1.927   1.589  20.531
 8870SOL     OW38488   2.808   3.629   1.030
 8870SOL    HW138489   2.717   3.656   1.039
 8870SOL    HW238490   2.812   3.542   1.069
 8871SOL     OW38491   4.149   3.865  16.243
 8871SOL    HW138492   4.218   3.812  16.282
 8871SOL    HW238493   4.146   3.838  16.151
 8872SOL     OW38494   1.731   3.810  18.189
 8872SOL    HW138495   1.795   3.807  18.261
 8872SOL    HW238496   1.744   3.727  18.143
 8873SOL     OW38497   3.785   1.032   2.309
 8873SOL    HW138498   3.864   1.070   2.347
 8873SOL    HW238499   3.715   1.093   2.332
 8874SOL     OW38500   0.717   4.647  17.443
 8874SOL    HW138501   0.766   4.722  17.410
 8874SOL    HW238502   0.785   4.582  17.463
 8875SOL     OW38503   0.933   2.006   5.985
 8875SOL    HW138504   0.844   2.002   6.020
 8875SOL    HW238505   0.984   1.953   6.046
 8876SOL     OW38506   0.991   4.224   1.595
 8876SOL    HW138507   0.952   4.198   1.512
 8876SOL    HW238508   1.083   4.199   1.587
 8877SOL     OW38509   4.557   3.066  15.417
 8877SOL    HW138510   4.521   3.096  15.501
 8877SOL    HW238511   4.496   3.101  15.351
 8878SOL     OW38512   2.640   2.912   4.024
 8878SOL    HW138513   2.674   2.931   4.111
 8878SOL    HW238514   2.623   2.998   3.985
 8879SOL     OW38515   2.326   4.238  20.035
 8879SOL    HW138516   2.334   4.158  19.982
 8879SOL    HW238517   2.306   4.307  19.972
 8880SOL     OW38518   0.313   2.945   2.419
 8880SOL    HW138519   0.252   2.914   2.486
 8880SOL    HW238520   0.302   2.883   2.346
 8881SOL     OW38521   4.733   2.632  21.011
 8881SOL    HW138522   0.004   2.651  21.078
 8881SOL    HW238523   4.655   2.607  21.060
 8882SOL     OW38524   0.395   2.715  17.288
 8882SOL    HW138525   0.455   2.641  17.287
 8882SOL    HW238526   0.324   2.687  17.346
 8883SOL     OW38527   4.134   3.452   3.462
 8883SOL    HW138528   4.220   3.474   3.497
 8883SOL    HW238529   4.072   3.473   3.532
 8884SOL     OW38530   3.538   1.027   2.577
 8884SOL    HW138531   3.556   0.941   2.614
 8884SOL    HW238532   3.609   1.082   2.609
 8885SOL     OW38533   2.835   1.103   4.395
 8885SOL    HW138534   2.742   1.120   4.381
 8885SOL    HW238535   2.850   1.126   4.486
 8886SOL     OW38536   2.511   1.760  17.914
 8886SOL    HW138537   2.457   1.683  17.895
 8886SOL    HW238538   2.498   1.777  18.007
 8887SOL     OW38539   2.467   0.156  19.971
 8887SOL    HW138540   2.493   0.067  19.994
 8887SOL    HW238541   2.460   0.155  19.876
 8888SOL     OW38542   3.248   2.414   0.496
 8888SOL    HW138543   3.246   2.358   0.573
 8888SOL    HW238544   3.273   2.500   0.529
 8889SOL     OW38545   2.298   3.461   6.203
 8889SOL    HW138546   2.224   3.406   6.229
 8889SOL    HW238547   2.357   3.400   6.158
 8890SOL     OW38548   3.618   1.235  19.763
 8890SOL    HW138549   3.654   1.320  19.739
 8890SOL    HW238550   3.660   1.174  19.702
 8891SOL     OW38551   2.377   1.263   6.123
 8891SOL    HW138552   2.414   1.214   6.049
 8891SOL    HW238553   2.283   1.258   6.110
 8892SOL     OW38554   1.911   1.152  15.861
 8892SOL    HW138555   1.929   1.060  15.838
 8892SOL    HW238556   1.817   1.155  15.875
 8893SOL     OW38557   4.746   3.956   2.086
 8893SOL    HW138558   4.656   3.980   2.064
 8893SOL    HW238559   4.754   3.866   2.054
 8894SOL     OW38560   0.673   0.749   0.840
 8894SOL    HW138561   0.666   0.748   0.935
 8894SOL    HW238562   0.582   0.757   0.810
 8895SOL     OW38563   0.965   1.544  16.611
 8895SOL    HW138564   0.976   1.639  16.600
 8895SOL    HW238565   0.879   1.526  16.572
 8896SOL     OW38566   1.236   0.131   5.276
 8896SOL    HW138567   1.184   0.198   5.321
 8896SOL    HW238568   1.285   0.088   5.345
 8897SOL     OW38569   3.344   2.921  20.657
 8897SOL    HW138570   3.301   2.915  20.743
 8897SOL    HW238571   3.389   2.837  20.647
 8898SOL     OW38572   2.609   2.194  19.496
 8898SOL    HW138573   2.560   2.273  19.474
 8898SOL    HW238574   2.575   2.168  19.582
 8899SOL     OW38575   3.025   2.136  15.718
 8899SOL    HW138576   3.094   2.136  15.652
 8899SOL    HW238577   3.045   2.212  15.773
 8900SOL     OW38578   0.064   2.185   7.775
 8900SOL    HW138579   0.086   2.158   7.864
 8900SOL    HW238580   0.147   2.214   7.737
 8901SOL     OW38581   4.078   4.760  15.458
 8901SOL    HW138582   4.030   0.039  15.419
 8901SOL    HW238583   4.169   4.791  15.462
 8902SOL     OW38584   3.173   1.039   3.504
 8902SOL    HW138585   3.119   0.975   3.551
 8902SOL    HW238586   3.259   0.999   3.497
 8903SOL     OW38587   3.874   2.625  20.342
 8903SOL    HW138588   3.950   2.615  20.285
 8903SOL    HW238589   3.894   2.571  20.419
 8904SOL     OW38590   4.542   3.266   2.563
 8904SOL    HW138591   4.596   3.321   2.620
 8904SOL    HW238592   4.491   3.328   2.511
 8905SOL     OW38593   0.271   0.779  20.296
 8905SOL    HW138594   0.273   0.789  20.391
 8905SOL    HW238595   0.237   0.691  20.282
 8906SOL     OW38596   1.301   3.477   6.820
 8906SOL    HW138597   1.284   3.466   6.914
 8906SOL    HW238598   1.379   3.532   6.816
 8907SOL     OW38599   3.756   3.450  12.531
 8907SOL    HW138600   3.789   3.385  12.468
 8907SOL    HW238601   3.784   3.418  12.616
 8908SOL     OW38602   0.357   3.378   3.258
 8908SOL    HW138603   0.313   3.315   3.314
 8908SOL    HW238604   0.287   3.421   3.209
 8909SOL     OW38605   4.215   3.780   6.657
 8909SOL    HW138606   4.283   3.834   6.616
 8909SOL    HW238607   4.241   3.690   6.640
 8910SOL     OW38608   4.177   2.066   3.052
 8910SOL    HW138609   4.124   2.141   3.080
 8910SOL    HW238610   4.170   2.004   3.125
 8911SOL     OW38611   2.762   4.463  20.758
 8911SOL    HW138612   2.735   4.491  20.846
 8911SOL    HW238613   2.844   4.510  20.742
 8912SOL     OW38614   0.756   0.779  18.132
 8912SOL    HW138615   0.730   0.708  18.191
 8912SOL    HW238616   0.675   0.828  18.116
 8913SOL     OW38617   3.896   3.693   2.503
 8913SOL    HW138618   3.827   3.731   2.557
 8913SOL    HW238619   3.977   3.727   2.539
 8914SOL     OW38620   0.675   1.750  20.265
 8914SOL    HW138621   0.725   1.717  20.190
 8914SOL    HW238622   0.725   1.824  20.298
 8915SOL     OW38623   4.167   3.465  20.665
 8915SOL    HW138624   4.217   3.383  20.667
 8915SOL    HW238625   4.109   3.459  20.741
 8916SOL     OW38626   0.777   0.817   4.798
 8916SOL    HW138627   0.707   0.850   4.741
 8916SOL    HW238628   0.755   0.725   4.810
 8917SOL     OW38629   1.790   4.376   0.567
 8917SOL    HW138630   1.758   4.466   0.574
 8917SOL    HW238631   1.880   4.381   0.599
 8918SOL     OW38632   2.099   4.216   7.149
 8918SOL    HW138633   2.088   4.129   7.112
 8918SOL    HW238634   2.078   4.275   7.076
 8919SOL     OW38635   4.739   2.117  18.239
 8919SOL    HW138636   4.749   2.027  18.209
 8919SOL    HW238637   4.746   2.170  18.160
 8920SOL     OW38638   0.250   2.014   5.618
 8920SOL    HW138639   0.226   1.993   5.708
 8920SOL    HW238640   0.213   1.943   5.566
 8921SOL     OW38641   1.473   3.219  15.142
 8921SOL    HW138642   1.544   3.159  15.166
 8921SOL    HW238643   1.499   3.254  15.057
 8922SOL     OW38644   2.115   3.626   5.920
 8922SOL    HW138645   2.162   3.684   5.860
 8922SOL    HW238646   2.160   3.542   5.912
 8923SOL     OW38647   0.077   0.374   5.524
 8923SOL    HW138648   0.010   0.438   5.501
 8923SOL    HW238649   0.028   0.296   5.551
 8924SOL     OW38650   2.999   0.620  18.557
 8924SOL    HW138651   3.031   0.697  18.604
 8924SOL    HW238652   3.079   0.575  18.529
 8925SOL     OW38653   3.312   4.177  15.777
 8925SOL    HW138654   3.357   4.140  15.701
 8925SOL    HW238655   3.308   4.105  15.840
 8926SOL     OW38656   1.692   3.880   5.255
 8926SOL    HW138657   1.761   3.875   5.321
 8926SOL    HW238658   1.659   3.970   5.261
 8927SOL     OW38659   4.081   4.644   3.179
 8927SOL    HW138660   3.997   4.655   3.134
 8927SOL    HW238661   4.111   4.558   3.153
 8928SOL     OW38662   0.342   2.311   2.625
 8928SOL    HW138663   0.349   2.231   2.572
 8928SOL    HW238664   0.264   2.354   2.591
 8929SOL     OW38665   3.542   2.520   8.976
 8929SOL    HW138666   3.518   2.541   9.066
 8929SOL    HW238667   3.533   2.603   8.929
 8930SOL     OW38668   0.777   0.574  11.143
 8930SOL    HW138669   0.812   0.588  11.055
 8930SOL    HW238670   0.841   0.615  11.201
 8931SOL     OW38671   1.116   0.088  12.207
 8931SOL    HW138672   1.127   0.177  12.173
 8931SOL    HW238673   1.156   0.032  12.141
 8932SOL     OW38674   3.882   2.181  18.631
 8932SOL    HW138675   3.976   2.202  18.634
 8932SOL    HW238676   3.877   2.091  18.663
 8933SOL     OW38677   4.536   1.359  19.334
 8933SOL    HW138678   4.502   1.284  19.383
 8933SOL    HW238679   4.535   1.331  19.243
 8934SOL     OW38680   3.758   4.626   0.659
 8934SOL    HW138681   3.683   4.613   0.718
 8934SOL    HW238682   3.737   4.707   0.612
 8935SOL     OW38683   2.089   3.683  20.864
 8935SOL    HW138684   2.133   3.603  20.833
 8935SOL    HW238685   1.999   3.673  20.835
 8936SOL     OW38686   2.103   2.633  20.437
 8936SOL    HW138687   2.053   2.594  20.365
 8936SOL    HW238688   2.053   2.611  20.515
 8937SOL     OW38689   0.010   3.457   6.903
 8937SOL    HW138690   4.790   3.546   6.869
 8937SOL    HW238691   0.102   3.438   6.882
 8938SOL     OW38692   2.921   1.924   4.685
 8938SOL    HW138693   2.946   1.952   4.773
 8938SOL    HW238694   2.828   1.949   4.678
 8939SOL     OW38695   2.361   1.716   2.097
 8939SOL    HW138696   2.352   1.625   2.124
 8939SOL    HW238697   2.314   1.721   2.014
 8940SOL     OW38698   0.721   1.821   2.458
 8940SOL    HW138699   0.640   1.769   2.452
 8940SOL    HW238700   0.693   1.905   2.493
 8941SOL     OW38701   2.030   4.474   0.619
 8941SOL    HW138702   2.115   4.488   0.577
 8941SOL    HW238703   1.992   4.561   0.627
 8942SOL     OW38704   0.782   1.720  15.347
 8942SOL    HW138705   0.711   1.778  15.374
 8942SOL    HW238706   0.743   1.661  15.283
 8943SOL     OW38707   4.160   0.398   2.265
 8943SOL    HW138708   4.119   0.320   2.302
 8943SOL    HW238709   4.225   0.364   2.203
 8944SOL     OW38710   1.881   2.860   0.476
 8944SOL    HW138711   1.797   2.826   0.506
 8944SOL    HW238712   1.927   2.784   0.441
 8945SOL     OW38713   3.034   1.996  17.328
 8945SOL    HW138714   3.103   1.989  17.394
 8945SOL    HW238715   3.002   1.907  17.317
 8946SOL     OW38716   2.028   0.811   1.024
 8946SOL    HW138717   1.938   0.841   1.012
 8946SOL    HW238718   2.071   0.882   1.071
 8947SOL     OW38719   3.037   1.452   3.834
 8947SOL    HW138720   2.991   1.435   3.916
 8947SOL    HW238721   3.077   1.368   3.811
 8948SOL     OW38722   3.751   2.293   8.674
 8948SOL    HW138723   3.800   2.273   8.753
 8948SOL    HW238724   3.792   2.373   8.640
 8949SOL     OW38725   2.563   3.293   9.210
 8949SOL    HW138726   2.578   3.320   9.119
 8949SOL    HW238727   2.628   3.341   9.260
 8950SOL     OW38728   1.944   4.536  14.190
 8950SOL    HW138729   1.924   4.630  14.185
 8950SOL    HW238730   1.996   4.519  14.112
 8951SOL     OW38731   1.780   1.722   7.394
 8951SOL    HW138732   1.858   1.778   7.404
 8951SOL    HW238733   1.742   1.718   7.482
 8952SOL     OW38734   4.597   0.506  18.776
 8952SOL    HW138735   4.633   0.520  18.863
 8952SOL    HW238736   4.619   0.415  18.755
 8953SOL     OW38737   2.204   3.663  18.409
 8953SOL    HW138738   2.181   3.588  18.464
 8953SOL    HW238739   2.208   3.737  18.470
 8954SOL     OW38740   3.506   0.242   5.241
 8954SOL    HW138741   3.485   0.150   5.226
 8954SOL    HW238742   3.427   0.289   5.215
 8955SOL     OW38743   0.682   4.261  19.815
 8955SOL    HW138744   0.609   4.307  19.856
 8955SOL    HW238745   0.646   4.176  19.790
 8956SOL     OW38746   1.290   0.781  18.647
 8956SOL    HW138747   1.292   0.688  18.673
 8956SOL    HW238748   1.361   0.821  18.698
 8957SOL     OW38749   0.828   3.922   0.691
 8957SOL    HW138750   0.783   3.962   0.766
 8957SOL    HW238751   0.772   3.849   0.665
 8958SOL     OW38752   0.021   2.364   0.045
 8958SOL    HW138753   0.028   2.454   0.013
 8958SOL    HW238754   0.037   2.371   0.139
 8959SOL     OW38755   1.028   0.933  16.512
 8959SOL    HW138756   1.110   0.964  16.551
 8959SOL    HW238757   1.010   0.997  16.442
 8960SOL     OW38758   4.394   1.169   4.574
 8960SOL    HW138759   4.420   1.221   4.498
 8960SOL    HW238760   4.328   1.223   4.618
 8961SOL     OW38761   4.356   0.181   4.076
 8961SOL    HW138762   4.317   0.097   4.052
 8961SOL    HW238763   4.352   0.234   3.996
 8962SOL     OW38764   1.564   1.681  16.319
 8962SOL    HW138765   1.565   1.721  16.232
 8962SOL    HW238766   1.511   1.741  16.372
 8963SOL     OW38767   1.341   0.828   4.056
 8963SOL    HW138768   1.370   0.859   4.142
 8963SOL    HW238769   1.316   0.908   4.009
 8964SOL     OW38770   0.771   0.081   2.528
 8964SOL    HW138771   0.840   0.034   2.575
 8964SOL    HW238772   0.690   0.055   2.572
 8965SOL     OW38773   0.782   2.351   0.047
 8965SOL    HW138774   0.822   2.394   0.122
 8965SOL    HW238775   0.691   2.380   0.048
 8966SOL     OW38776   2.123   4.483  13.890
 8966SOL    HW138777   2.113   4.568  13.848
 8966SOL    HW238778   2.178   4.432  13.831
 8967SOL     OW38779   0.785   2.489   2.318
 8967SOL    HW138780   0.768   2.582   2.331
 8967SOL    HW238781   0.816   2.483   2.227
 8968SOL     OW38782   3.922   4.595   4.236
 8968SOL    HW138783   3.938   4.545   4.155
 8968SOL    HW238784   3.876   4.673   4.206
 8969SOL     OW38785   3.355   0.704   1.407
 8969SOL    HW138786   3.294   0.675   1.340
 8969SOL    HW238787   3.397   0.623   1.437
 8970SOL     OW38788   1.381   2.080   3.666
 8970SOL    HW138789   1.325   2.025   3.720
 8970SOL    HW238790   1.361   2.170   3.695
 8971SOL     OW38791   4.143   2.790   1.466
 8971SOL    HW138792   4.198   2.800   1.544
 8971SOL    HW238793   4.064   2.839   1.487
 8972SOL     OW38794   2.057   3.254   2.700
 8972SOL    HW138795   2.084   3.291   2.616
 8972SOL    HW238796   2.108   3.302   2.765
 8973SOL     OW38797   4.590   0.754  17.543
 8973SOL    HW138798   4.536   0.768  17.465
 8973SOL    HW238799   4.671   0.715  17.510
 8974SOL     OW38800   4.325   2.931   1.269
 8974SOL    HW138801   4.377   2.922   1.349
 8974SOL    HW238802   4.241   2.889   1.291
 8975SOL     OW38803   3.587   1.350   0.890
 8975SOL    HW138804   3.556   1.263   0.917
 8975SOL    HW238805   3.521   1.411   0.924
 8976SOL     OW38806   0.350   0.414  13.674
 8976SOL    HW138807   0.261   0.450  13.674
 8976SOL    HW238808   0.403   0.480  13.718
 8977SOL     OW38809   1.403   3.046  20.735
 8977SOL    HW138810   1.482   3.007  20.774
 8977SOL    HW238811   1.428   3.136  20.716
 8978SOL     OW38812   3.556   4.341  16.216
 8978SOL    HW138813   3.462   4.324  16.222
 8978SOL    HW238814   3.574   4.337  16.122
 8979SOL     OW38815   3.316   1.755   4.589
 8979SOL    HW138816   3.375   1.748   4.514
 8979SOL    HW238817   3.349   1.691   4.652
 8980SOL     OW38818   2.531   2.338   5.234
 8980SOL    HW138819   2.444   2.374   5.218
 8980SOL    HW238820   2.525   2.301   5.323
 8981SOL     OW38821   2.197   2.807   6.160
 8981SOL    HW138822   2.201   2.876   6.227
 8981SOL    HW238823   2.287   2.776   6.153
 8982SOL     OW38824   4.027   2.202   6.455
 8982SOL    HW138825   3.935   2.193   6.432
 8982SOL    HW238826   4.029   2.270   6.523
 8983SOL     OW38827   3.559   3.187  18.402
 8983SOL    HW138828   3.561   3.096  18.371
 8983SOL    HW238829   3.598   3.183  18.489
 8984SOL     OW38830   4.401   3.004  20.266
 8984SOL    HW138831   4.373   2.938  20.203
 8984SOL    HW238832   4.478   2.965  20.309
 8985SOL     OW38833   2.920   2.249   0.106
 8985SOL    HW138834   2.902   2.195   0.183
 8985SOL    HW238835   2.948   2.186   0.039
 8986SOL     OW38836   3.878   3.885  19.907
 8986SOL    HW138837   3.825   3.872  19.986
 8986SOL    HW238838   3.961   3.919  19.939
 8987SOL     OW38839   3.661   1.541   6.128
 8987SOL    HW138840   3.681   1.462   6.078
 8987SOL    HW238841   3.666   1.513   6.220
 8988SOL     OW38842   0.046   0.669  16.342
 8988SOL    HW138843   4.770   0.716  16.297
 8988SOL    HW238844   0.063   0.720  16.422
 8989SOL     OW38845   4.218   4.391  18.364
 8989SOL    HW138846   4.136   4.431  18.392
 8989SOL    HW238847   4.198   4.351  18.280
 8990SOL     OW38848   2.976   3.083  17.209
 8990SOL    HW138849   2.980   3.147  17.138
 8990SOL    HW238850   3.051   3.105  17.265
 8991SOL     OW38851   0.479   4.311  18.025
 8991SOL    HW138852   0.493   4.266  17.942
 8991SOL    HW238853   0.404   4.265  18.064
 8992SOL     OW38854   3.325   4.082   3.426
 8992SOL    HW138855   3.415   4.113   3.422
 8992SOL    HW238856   3.280   4.129   3.356
 8993SOL     OW38857   1.207   4.271  15.749
 8993SOL    HW138858   1.114   4.276  15.724
 8993SOL    HW238859   1.233   4.362  15.761
 8994SOL     OW38860   1.007   1.007   7.909
 8994SOL    HW138861   1.004   1.069   7.981
 8994SOL    HW238862   0.933   1.031   7.853
 8995SOL     OW38863   1.065   1.440   8.187
 8995SOL    HW138864   1.002   1.460   8.256
 8995SOL    HW238865   1.102   1.525   8.163
 8996SOL     OW38866   0.659   3.351   1.955
 8996SOL    HW138867   0.706   3.272   1.983
 8996SOL    HW238868   0.581   3.319   1.911
 8997SOL     OW38869   0.216   0.229  11.727
 8997SOL    HW138870   0.292   0.202  11.779
 8997SOL    HW238871   0.254   0.273  11.650
 8998SOL     OW38872   3.141   0.485   9.785
 8998SOL    HW138873   3.155   0.574   9.752
 8998SOL    HW238874   3.096   0.498   9.869
 8999SOL     OW38875   4.047   1.266  20.689
 8999SOL    HW138876   4.088   1.322  20.755
 8999SOL    HW238877   4.038   1.322  20.612
 9000SOL     OW38878   3.050   1.103  10.192
 9000SOL    HW138879   3.050   1.184  10.243
 9000SOL    HW238880   3.133   1.104  10.145
 9001SOL     OW38881   0.859   0.679   6.088
 9001SOL    HW138882   0.805   0.754   6.060
 9001SOL    HW238883   0.803   0.603   6.074
 9002SOL     OW38884   4.392   3.594  10.563
 9002SOL    HW138885   4.467   3.648  10.539
 9002SOL    HW238886   4.401   3.580  10.658
 9003SOL     OW38887   2.751   1.022   8.858
 9003SOL    HW138888   2.719   1.040   8.946
 9003SOL    HW238889   2.677   1.039   8.801
 9004SOL     OW38890   2.165   1.639   8.502
 9004SOL    HW138891   2.211   1.707   8.452
 9004SOL    HW238892   2.214   1.632   8.584
 9005SOL     OW38893   2.428   2.116   7.663
 9005SOL    HW138894   2.504   2.084   7.711
 9005SOL    HW238895   2.353   2.090   7.715
 9006SOL     OW38896   4.358   1.296   8.804
 9006SOL    HW138897   4.377   1.386   8.830
 9006SOL    HW238898   4.426   1.275   8.740
 9007SOL     OW38899   1.855   0.973   9.733
 9007SOL    HW138900   1.874   0.959   9.640
 9007SOL    HW238901   1.896   1.057   9.754
 9008SOL     OW38902   4.708   0.549   8.572
 9008SOL    HW138903   4.649   0.549   8.648
 9008SOL    HW238904   4.717   0.457   8.549
 9009SOL     OW38905   0.484   0.588   9.781
 9009SOL    HW138906   0.434   0.535   9.843
 9009SOL    HW238907   0.574   0.585   9.815
 9010SOL     OW38908   3.877   0.556  10.164
 9010SOL    HW138909   3.946   0.530  10.225
 9010SOL    HW238910   3.807   0.589  10.220
 9011SOL     OW38911   3.792   4.748   8.640
 9011SOL    HW138912   3.845   4.770   8.564
 9011SOL    HW238913   3.767   4.656   8.626
 9012SOL     OW38914   1.585   1.011  10.549
 9012SOL    HW138915   1.573   1.071  10.476
 9012SOL    HW238916   1.663   1.043  10.594
 9013SOL     OW38917   4.380   0.473   9.582
 9013SOL    HW138918   4.377   0.396   9.639
 9013SOL    HW238919   4.386   0.547   9.643
 9014SOL     OW38920   4.008   0.219  10.492
 9014SOL    HW138921   3.935   0.168  10.457
 9014SOL    HW238922   3.992   0.221  10.586
 9015SOL     OW38923   0.440   0.901  10.339
 9015SOL    HW138924   0.500   0.974  10.326
 9015SOL    HW238925   0.353   0.939  10.328
 9016SOL     OW38926   0.380   0.357   9.924
 9016SOL    HW138927   0.297   0.309   9.920
 9016SOL    HW238928   0.447   0.291   9.910
 9017SOL     OW38929   2.334   0.563  10.054
 9017SOL    HW138930   2.246   0.526  10.059
 9017SOL    HW238931   2.359   0.552   9.962
 9018SOL     OW38932   1.512   0.958   8.498
 9018SOL    HW138933   1.452   0.954   8.572
 9018SOL    HW238934   1.456   0.979   8.423
 9019SOL     OW38935   0.746   0.109  12.161
 9019SOL    HW138936   0.802   0.182  12.135
 9019SOL    HW238937   0.793   0.066  12.233
 9020SOL     OW38938   0.757   1.410  10.045
 9020SOL    HW138939   0.827   1.364  10.091
 9020SOL    HW238940   0.734   1.483  10.103
 9021SOL     OW38941   0.856   0.075   9.388
 9021SOL    HW138942   0.949   0.068   9.366
 9021SOL    HW238943   0.812   0.025   9.320
 9022SOL     OW38944   4.455   4.038  10.431
 9022SOL    HW138945   4.362   4.022  10.442
 9022SOL    HW238946   4.467   4.130  10.453
 9023SOL     OW38947   0.518   1.326  10.219
 9023SOL    HW138948   0.466   1.381  10.278
 9023SOL    HW238949   0.515   1.371  10.135
 9024SOL     OW38950   2.884   0.916  10.126
 9024SOL    HW138951   2.948   0.971  10.171
 9024SOL    HW238952   2.799   0.952  10.153
 9025SOL     OW38953   4.508   4.634  11.172
 9025SOL    HW138954   4.557   4.562  11.132
 9025SOL    HW238955   4.521   4.623  11.266
 9026SOL     OW38956   1.606   1.213  10.380
 9026SOL    HW138957   1.664   1.288  10.395
 9026SOL    HW238958   1.635   1.177  10.296
 9027SOL     OW38959   1.674   1.586   9.829
 9027SOL    HW138960   1.752   1.540   9.859
 9027SOL    HW238961   1.706   1.652   9.768
 9028SOL     OW38962   1.397   1.702  14.132
 9028SOL    HW138963   1.361   1.631  14.186
 9028SOL    HW238964   1.464   1.660  14.078
 9029SOL     OW38965   3.189   4.367   9.568
 9029SOL    HW138966   3.165   4.311   9.494
 9029SOL    HW238967   3.170   4.456   9.538
 9030SOL     OW38968   0.337   4.570  10.737
 9030SOL    HW138969   0.269   4.624  10.697
 9030SOL    HW238970   0.373   4.625  10.807
 9031SOL     OW38971   4.239   4.788   9.870
 9031SOL    HW138972   4.292   4.712   9.893
 9031SOL    HW238973   4.216   0.033   9.954
 9032SOL     OW38974   4.262   0.116  10.369
 9032SOL    HW138975   4.226   0.182  10.428
 9032SOL    HW238976   4.214   0.128  10.287
 9033SOL     OW38977   1.988   2.296  12.378
 9033SOL    HW138978   1.949   2.288  12.465
 9033SOL    HW238979   1.917   2.274  12.317
 9034SOL     OW38980   0.073   2.291  12.970
 9034SOL    HW138981   0.038   2.380  12.968
 9034SOL    HW238982   0.030   2.249  13.044
 9035SOL     OW38983   1.850   2.728  18.814
 9035SOL    HW138984   1.805   2.735  18.730
 9035SOL    HW238985   1.885   2.816  18.829
 9036SOL     OW38986   1.045   1.656  11.420
 9036SOL    HW138987   1.005   1.585  11.370
 9036SOL    HW238988   1.080   1.614  11.499
 9037SOL     OW38989   0.052   2.992  18.079
 9037SOL    HW138990   0.045   2.899  18.099
 9037SOL    HW238991   0.062   2.995  17.983
 9038SOL     OW38992   0.748   0.604   9.892
 9038SOL    HW138993   0.737   0.513   9.920
 9038SOL    HW238994   0.827   0.603   9.838
 9039SOL     OW38995   4.687   0.786   1.240
 9039SOL    HW138996   4.625   0.803   1.310
 9039SOL    HW238997   4.718   0.872   1.213
 9040SOL     OW38998   4.703   3.732  11.212
 9040SOL    HW138999   4.643   3.798  11.246
 9040SOL    HW239000   4.753   3.778  11.145
 9041SOL     OW39001   1.371   2.856  13.382
 9041SOL    HW139002   1.284   2.865  13.420
 9041SOL    HW239003   1.377   2.763  13.358
 9042SOL     OW39004   0.052   0.349  10.353
 9042SOL    HW139005   0.110   0.361  10.278
 9042SOL    HW239006   0.030   0.255  10.352
 9043SOL     OW39007   2.848   0.636  12.969
 9043SOL    HW139008   2.845   0.550  13.011
 9043SOL    HW239009   2.757   0.663  12.963
 9044SOL     OW39010   0.180   0.314  10.592
 9044SOL    HW139011   0.267   0.353  10.596
 9044SOL    HW239012   0.154   0.323  10.500
 9045SOL     OW39013   3.403   1.927  12.731
 9045SOL    HW139014   3.484   1.977  12.719
 9045SOL    HW239015   3.388   1.885  12.646
 9046SOL     OW39016   3.192   0.344   4.192
 9046SOL    HW139017   3.156   0.284   4.126
 9046SOL    HW239018   3.120   0.403   4.212
 9047SOL     OW39019   4.131   3.154  11.071
 9047SOL    HW139020   4.156   3.162  10.979
 9047SOL    HW239021   4.056   3.095  11.070
 9048SOL     OW39022   1.890   0.838  19.563
 9048SOL    HW139023   1.915   0.800  19.479
 9048SOL    HW239024   1.944   0.917  19.571
 9049SOL     OW39025   1.910   1.971  14.301
 9049SOL    HW139026   1.899   1.902  14.235
 9049SOL    HW239027   1.823   2.011  14.308
 9050SOL     OW39028   3.798   4.534   9.743
 9050SOL    HW139029   3.749   4.546   9.824
 9050SOL    HW239030   3.871   4.596   9.749
 9051SOL     OW39031   3.930   3.423  15.274
 9051SOL    HW139032   3.852   3.391  15.320
 9051SOL    HW239033   3.986   3.346  15.265
 9052SOL     OW39034   4.379   2.350  12.969
 9052SOL    HW139035   4.458   2.372  13.019
 9052SOL    HW239036   4.350   2.434  12.932
 9053SOL     OW39037   0.589   1.895  12.856
 9053SOL    HW139038   0.657   1.832  12.879
 9053SOL    HW239039   0.524   1.844  12.808
 9054SOL     OW39040   0.384   0.363  11.554
 9054SOL    HW139041   0.474   0.343  11.579
 9054SOL    HW239042   0.384   0.360  11.459
 9055SOL     OW39043   0.624   1.116  10.341
 9055SOL    HW139044   0.572   1.186  10.301
 9055SOL    HW239045   0.693   1.097  10.277
 9056SOL     OW39046   0.603   1.406  11.233
 9056SOL    HW139047   0.592   1.453  11.150
 9056SOL    HW239048   0.694   1.423  11.258
 9057SOL     OW39049   1.338   0.261  10.030
 9057SOL    HW139050   1.297   0.250  10.115
 9057SOL    HW239051   1.284   0.326   9.985
 9058SOL     OW39052   1.032   0.504  10.550
 9058SOL    HW139053   1.011   0.487  10.641
 9058SOL    HW239054   0.999   0.593  10.533
 9059SOL     OW39055   2.365   0.567  12.952
 9059SOL    HW139056   2.378   0.473  12.956
 9059SOL    HW239057   2.315   0.588  13.031
 9060SOL     OW39058   0.936   1.443  11.296
 9060SOL    HW139059   0.869   1.475  11.356
 9060SOL    HW239060   0.909   1.354  11.274
 9061SOL     OW39061   0.874   2.327   2.523
 9061SOL    HW139062   0.905   2.237   2.516
 9061SOL    HW239063   0.837   2.347   2.437
 9062SOL     OW39064   3.531   4.764  14.375
 9062SOL    HW139065   3.610   4.715  14.398
 9062SOL    HW239066   3.537   0.049  14.428
 9063SOL     OW39067   4.433   2.803   5.836
 9063SOL    HW139068   4.435   2.766   5.748
 9063SOL    HW239069   4.496   2.876   5.833
 9064SOL     OW39070   3.218   2.851  12.190
 9064SOL    HW139071   3.222   2.945  12.207
 9064SOL    HW239072   3.310   2.824  12.186
 9065SOL     OW39073   0.366   3.794  17.550
 9065SOL    HW139074   0.337   3.705  17.529
 9065SOL    HW239075   0.357   3.843  17.468
 9066SOL     OW39076   1.677   2.029  20.698
 9066SOL    HW139077   1.629   1.951  20.670
 9066SOL    HW239078   1.608   2.089  20.728
 9067SOL     OW39079   0.670   0.618   0.284
 9067SOL    HW139080   0.749   0.671   0.273
 9067SOL    HW239081   0.655   0.616   0.378
 9068SOL     OW39082   1.281   1.845   2.007
 9068SOL    HW139083   1.288   1.909   2.078
 9068SOL    HW239084   1.371   1.830   1.979
 9069SOL     OW39085   0.236   0.453  10.168
 9069SOL    HW139086   0.294   0.525  10.193
 9069SOL    HW239087   0.269   0.425  10.082
 9070SOL     OW39088   4.432   2.764  16.717
 9070SOL    HW139089   4.437   2.737  16.625
 9070SOL    HW239090   4.387   2.848  16.715
 9071SOL     OW39091   3.207   0.745  13.029
 9071SOL    HW139092   3.199   0.741  12.934
 9071SOL    HW239093   3.284   0.800  13.045
 9072SOL     OW39094   2.362   0.410  20.036
 9072SOL    HW139095   2.408   0.326  20.025
 9072SOL    HW239096   2.430   0.476  20.022
 9073SOL     OW39097   3.355   2.138   0.170
 9073SOL    HW139098   3.320   2.120   0.083
 9073SOL    HW239099   3.440   2.095   0.171
 9074SOL     OW39100   0.871   1.857  11.405
 9074SOL    HW139101   0.876   1.919  11.332
 9074SOL    HW239102   0.940   1.793  11.386
 9075SOL     OW39103   3.796   0.808   5.983
 9075SOL    HW139104   3.827   0.837   6.069
 9075SOL    HW239105   3.863   0.838   5.922
 9076SOL     OW39106   0.513   3.332   6.572
 9076SOL    HW139107   0.592   3.384   6.576
 9076SOL    HW239108   0.486   3.336   6.480
 9077SOL     OW39109   0.307   3.920  17.792
 9077SOL    HW139110   0.294   3.864  17.716
 9077SOL    HW239111   0.343   3.862  17.859
 9078SOL     OW39112   4.711   3.182   3.165
 9078SOL    HW139113   4.777   3.114   3.178
 9078SOL    HW239114   4.641   3.139   3.116
 9079SOL     OW39115   1.867   1.328   2.971
 9079SOL    HW139116   1.854   1.324   2.876
 9079SOL    HW239117   1.916   1.248   2.991
 9080SOL     OW39118   4.150   0.916   2.317
 9080SOL    HW139119   4.174   0.848   2.380
 9080SOL    HW239120   4.121   0.990   2.371
 9081SOL     OW39121   1.044   0.893   4.735
 9081SOL    HW139122   0.953   0.866   4.745
 9081SOL    HW239123   1.061   0.952   4.808
 9082SOL     OW39124   4.708   1.007  18.996
 9082SOL    HW139125   4.663   0.922  19.002
 9082SOL    HW239126   4.743   1.022  19.083
 9083SOL     OW39127   0.447   2.789  18.668
 9083SOL    HW139128   0.539   2.773  18.684
 9083SOL    HW239129   0.425   2.863  18.725
 9084SOL     OW39130   3.599   0.785   2.694
 9084SOL    HW139131   3.526   0.748   2.744
 9084SOL    HW239132   3.672   0.725   2.710
 9085SOL     OW39133   2.823   3.318   5.197
 9085SOL    HW139134   2.821   3.367   5.115
 9085SOL    HW239135   2.779   3.235   5.176
 9086SOL     OW39136   4.702   2.869   4.011
 9086SOL    HW139137   4.793   2.892   4.028
 9086SOL    HW239138   4.661   2.950   3.982
 9087SOL     OW39139   0.899   2.495   1.484
 9087SOL    HW139140   0.867   2.439   1.555
 9087SOL    HW239141   0.962   2.553   1.526
 9088SOL     OW39142   2.699   2.045   1.266
 9088SOL    HW139143   2.610   2.036   1.232
 9088SOL    HW239144   2.723   2.135   1.247
 9089SOL     OW39145   1.884   4.469  18.120
 9089SOL    HW139146   1.848   4.484  18.032
 9089SOL    HW239147   1.828   4.521  18.178
 9090SOL     OW39148   0.872   3.187   0.079
 9090SOL    HW139149   0.961   3.204   0.047
 9090SOL    HW239150   0.817   3.247   0.030
 9091SOL     OW39151   2.591   3.147   2.634
 9091SOL    HW139152   2.642   3.068   2.650
 9091SOL    HW239153   2.519   3.119   2.578
 9092SOL     OW39154   0.784   0.225   3.291
 9092SOL    HW139155   0.766   0.308   3.247
 9092SOL    HW239156   0.821   0.169   3.223
 9093SOL     OW39157   4.219   1.741   8.403
 9093SOL    HW139158   4.291   1.684   8.431
 9093SOL    HW239159   4.212   1.725   8.309
 9094SOL     OW39160   0.981   4.206  16.479
 9094SOL    HW139161   0.905   4.262  16.494
 9094SOL    HW239162   1.047   4.239  16.539
 9095SOL     OW39163   2.243   0.275  17.200
 9095SOL    HW139164   2.306   0.270  17.272
 9095SOL    HW239165   2.181   0.204  17.218
 9096SOL     OW39166   1.642   2.358  18.744
 9096SOL    HW139167   1.678   2.273  18.719
 9096SOL    HW239168   1.672   2.372  18.834
 9097SOL     OW39169   2.062   1.469   1.001
 9097SOL    HW139170   1.975   1.507   0.987
 9097SOL    HW239171   2.058   1.429   1.087
 9098SOL     OW39172   3.995   2.368   3.279
 9098SOL    HW139173   4.023   2.400   3.193
 9098SOL    HW239174   4.028   2.433   3.340
 9099SOL     OW39175   0.811   3.361   3.826
 9099SOL    HW139176   0.894   3.328   3.861
 9099SOL    HW239177   0.786   3.297   3.760
 9100SOL     OW39178   2.147   2.790  20.080
 9100SOL    HW139179   2.226   2.844  20.080
 9100SOL    HW239180   2.178   2.702  20.059
 9101SOL     OW39181   1.634   3.552   3.386
 9101SOL    HW139182   1.562   3.547   3.449
 9101SOL    HW239183   1.708   3.585   3.436
 9102SOL     OW39184   1.934   1.585  19.154
 9102SOL    HW139185   1.859   1.642  19.141
 9102SOL    HW239186   2.010   1.638  19.131
 9103SOL     OW39187   3.804   0.782   2.235
 9103SOL    HW139188   3.771   0.718   2.298
 9103SOL    HW239189   3.784   0.867   2.274
 9104SOL     OW39190   4.577   4.520   0.109
 9104SOL    HW139191   4.484   4.541   0.099
 9104SOL    HW239192   4.618   4.557   0.031
 9105SOL     OW39193   2.361   2.443  13.775
 9105SOL    HW139194   2.351   2.352  13.748
 9105SOL    HW239195   2.337   2.444  13.868
 9106SOL     OW39196   3.843   1.433   0.112
 9106SOL    HW139197   3.935   1.410   0.099
 9106SOL    HW239198   3.820   1.393   0.196
 9107SOL     OW39199   3.045   0.954  21.215
 9107SOL    HW139200   2.985   0.906  21.159
 9107SOL    HW239201   3.098   1.007  21.155
 9108SOL     OW39202   1.401   3.366  13.924
 9108SOL    HW139203   1.409   3.458  13.900
 9108SOL    HW239204   1.491   3.334  13.927
 9109SOL     OW39205   1.813   2.417  18.500
 9109SOL    HW139206   1.890   2.374  18.537
 9109SOL    HW239207   1.752   2.426  18.574
 9110SOL     OW39208   2.103   2.259   4.806
 9110SOL    HW139209   2.058   2.226   4.884
 9110SOL    HW239210   2.046   2.236   4.733
 9111SOL     OW39211   1.974   3.579   3.158
 9111SOL    HW139212   1.891   3.625   3.147
 9111SOL    HW239213   2.038   3.648   3.175
 9112SOL     OW39214   1.116   4.458   6.079
 9112SOL    HW139215   1.043   4.404   6.049
 9112SOL    HW239216   1.172   4.398   6.128
 9113SOL     OW39217   4.535   2.978   6.943
 9113SOL    HW139218   4.546   2.997   6.850
 9113SOL    HW239219   4.530   2.883   6.948
 9114SOL     OW39220   0.808   2.587   0.690
 9114SOL    HW139221   0.899   2.565   0.669
 9114SOL    HW239222   0.756   2.547   0.621
 9115SOL     OW39223   4.192   2.276   3.624
 9115SOL    HW139224   4.195   2.349   3.686
 9115SOL    HW239225   4.282   2.267   3.593
 9116SOL     OW39226   0.405   0.199  11.914
 9116SOL    HW139227   0.388   0.254  11.990
 9116SOL    HW239228   0.433   0.115  11.950
 9117SOL     OW39229   2.100   0.215  16.826
 9117SOL    HW139230   2.130   0.130  16.860
 9117SOL    HW239231   2.167   0.240  16.763
 9118SOL     OW39232   1.637   4.168   0.694
 9118SOL    HW139233   1.560   4.217   0.722
 9118SOL    HW239234   1.680   4.225   0.631
 9119SOL     OW39235   1.159   3.103  15.453
 9119SOL    HW139236   1.088   3.084  15.391
 9119SOL    HW239237   1.199   3.184  15.420
 9120SOL     OW39238   2.581   3.231  18.752
 9120SOL    HW139239   2.522   3.296  18.714
 9120SOL    HW239240   2.607   3.268  18.836
 9121SOL     OW39241   0.551   3.922   2.516
 9121SOL    HW139242   0.587   3.986   2.455
 9121SOL    HW239243   0.525   3.974   2.592
 9122SOL     OW39244   3.816   2.082  16.488
 9122SOL    HW139245   3.869   2.003  16.488
 9122SOL    HW239246   3.799   2.099  16.395
 9123SOL     OW39247   4.677   1.761   4.822
 9123SOL    HW139248   4.690   1.714   4.740
 9123SOL    HW239249   4.647   1.848   4.796
 9124SOL     OW39250   1.315   0.048   8.864
 9124SOL    HW139251   1.294   0.019   8.953
 9124SOL    HW239252   1.230   0.061   8.823
 9125SOL     OW39253   0.663   3.283   5.847
 9125SOL    HW139254   0.743   3.318   5.886
 9125SOL    HW239255   0.603   3.358   5.844
 9126SOL     OW39256   1.891   2.945   0.876
 9126SOL    HW139257   1.958   2.980   0.817
 9126SOL    HW239258   1.937   2.930   0.958
 9127SOL     OW39259   0.669   4.157   1.492
 9127SOL    HW139260   0.596   4.101   1.465
 9127SOL    HW239261   0.685   4.133   1.583
 9128SOL     OW39262   3.937   0.509   4.413
 9128SOL    HW139263   3.887   0.591   4.415
 9128SOL    HW239264   3.872   0.441   4.431
 9129SOL     OW39265   4.053   4.774  16.668
 9129SOL    HW139266   4.027   4.695  16.715
 9129SOL    HW239267   4.060   0.047  16.736
 9130SOL     OW39268   0.623   1.969  15.170
 9130SOL    HW139269   0.672   1.926  15.101
 9130SOL    HW239270   0.534   1.936  15.161
 9131SOL     OW39271   3.856   4.732   5.707
 9131SOL    HW139272   3.928   4.690   5.753
 9131SOL    HW239273   3.836   4.673   5.635
 9132SOL     OW39274   2.166   0.907  17.805
 9132SOL    HW139275   2.098   0.862  17.855
 9132SOL    HW239276   2.133   0.909  17.716
 9133SOL     OW39277   2.938   2.285  16.296
 9133SOL    HW139278   2.977   2.222  16.236
 9133SOL    HW239279   2.882   2.340  16.240
 9134SOL     OW39280   0.406   4.711   8.081
 9134SOL    HW139281   0.424   4.637   8.139
 9134SOL    HW239282   0.311   4.709   8.070
 9135SOL     OW39283   2.215   3.110   8.576
 9135SOL    HW139284   2.289   3.084   8.521
 9135SOL    HW239285   2.241   3.194   8.613
 9136SOL     OW39286   3.206   0.751   0.042
 9136SOL    HW139287   3.286   0.781  21.276
 9136SOL    HW239288   3.143   0.821   0.026
 9137SOL     OW39289   3.094   2.264  15.238
 9137SOL    HW139290   3.077   2.177  15.276
 9137SOL    HW239291   3.156   2.247  15.167
 9138SOL     OW39292   2.831   0.438   6.037
 9138SOL    HW139293   2.889   0.367   6.012
 9138SOL    HW239294   2.862   0.466   6.123
 9139SOL     OW39295   2.291   3.831  18.747
 9139SOL    HW139296   2.301   3.921  18.780
 9139SOL    HW239297   2.370   3.815  18.697
 9140SOL     OW39298   1.746   3.491   4.850
 9140SOL    HW139299   1.686   3.511   4.922
 9140SOL    HW239300   1.717   3.405   4.819
 9141SOL     OW39301   3.891   4.078   1.590
 9141SOL    HW139302   3.855   3.991   1.571
 9141SOL    HW239303   3.894   4.122   1.505
 9142SOL     OW39304   0.464   1.222   3.108
 9142SOL    HW139305   0.404   1.222   3.033
 9142SOL    HW239306   0.493   1.313   3.116
 9143SOL     OW39307   2.311   2.381  19.056
 9143SOL    HW139308   2.351   2.457  19.099
 9143SOL    HW239309   2.325   2.396  18.963
 9144SOL     OW39310   0.815   0.814  16.630
 9144SOL    HW139311   0.844   0.824  16.721
 9144SOL    HW239312   0.881   0.859  16.578
 9145SOL     OW39313   1.220   1.323   8.581
 9145SOL    HW139314   1.196   1.413   8.602
 9145SOL    HW239315   1.153   1.292   8.521
 9146SOL     OW39316   0.701   1.330   5.782
 9146SOL    HW139317   0.709   1.375   5.698
 9146SOL    HW239318   0.626   1.373   5.825
 9147SOL     OW39319   1.750   2.628  19.044
 9147SOL    HW139320   1.750   2.535  19.021
 9147SOL    HW239321   1.794   2.671  18.971
 9148SOL     OW39322   1.646   1.759  21.271
 9148SOL    HW139323   1.708   1.703  21.225
 9148SOL    HW239324   1.606   1.703   0.061
 9149SOL     OW39325   1.165   2.956  16.061
 9149SOL    HW139326   1.139   2.930  16.149
 9149SOL    HW239327   1.116   3.037  16.044
 9150SOL     OW39328   4.680   4.180  21.256
 9150SOL    HW139329   4.656   4.172   0.072
 9150SOL    HW239330   4.698   4.090  21.228
 9151SOL     OW39331   0.187   1.841   4.008
 9151SOL    HW139332   0.234   1.787   4.071
 9151SOL    HW239333   0.255   1.877   3.951
 9152SOL     OW39334   2.427   4.089   2.180
 9152SOL    HW139335   2.488   4.093   2.254
 9152SOL    HW239336   2.483   4.073   2.104
 9153SOL     OW39337   1.710   3.512   2.163
 9153SOL    HW139338   1.616   3.520   2.149
 9153SOL    HW239339   1.719   3.457   2.241
 9154SOL     OW39340   3.085   0.309  19.596
 9154SOL    HW139341   3.079   0.219  19.626
 9154SOL    HW239342   3.034   0.311  19.515
 9155SOL     OW39343   0.702   1.994   4.434
 9155SOL    HW139344   0.709   2.089   4.430
 9155SOL    HW239345   0.792   1.963   4.432
 9156SOL     OW39346   0.587   1.469  13.215
 9156SOL    HW139347   0.564   1.467  13.122
 9156SOL    HW239348   0.610   1.560  13.231
 9157SOL     OW39349   0.796   4.727  20.558
 9157SOL    HW139350   0.706   4.738  20.528
 9157SOL    HW239351   0.820   4.638  20.533
 9158SOL     OW39352   0.924   1.523   4.317
 9158SOL    HW139353   0.901   1.573   4.395
 9158SOL    HW239354   0.870   1.560   4.247
 9159SOL     OW39355   3.749   3.954   1.013
 9159SOL    HW139356   3.812   3.924   1.079
 9159SOL    HW239357   3.721   3.874   0.968
 9160SOL     OW39358   4.447   1.096   2.760
 9160SOL    HW139359   4.416   1.111   2.671
 9160SOL    HW239360   4.532   1.141   2.763
 9161SOL     OW39361   3.343   2.226  14.503
 9161SOL    HW139362   3.406   2.154  14.508
 9161SOL    HW239363   3.260   2.183  14.479
 9162SOL     OW39364   4.258   1.382  16.167
 9162SOL    HW139365   4.168   1.351  16.156
 9162SOL    HW239366   4.309   1.303  16.181
 9163SOL     OW39367   0.230   1.442   3.226
 9163SOL    HW139368   0.236   1.352   3.259
 9163SOL    HW239369   0.136   1.457   3.216
 9164SOL     OW39370   1.139   0.741  19.101
 9164SOL    HW139371   1.194   0.667  19.129
 9164SOL    HW239372   1.067   0.701  19.053
 9165SOL     OW39373   3.195   0.373  16.756
 9165SOL    HW139374   3.235   0.355  16.671
 9165SOL    HW239375   3.268   0.394  16.813
 9166SOL     OW39376   4.671   3.262   5.626
 9166SOL    HW139377   4.691   3.301   5.541
 9166SOL    HW239378   4.754   3.266   5.674
 9167SOL     OW39379   1.731   1.779   3.297
 9167SOL    HW139380   1.825   1.798   3.299
 9167SOL    HW239381   1.693   1.852   3.249
 9168SOL     OW39382   1.924   3.514  15.032
 9168SOL    HW139383   1.981   3.469  15.094
 9168SOL    HW239384   1.980   3.530  14.956
 9169SOL     OW39385   0.005   2.340  20.481
 9169SOL    HW139386   4.787   2.402  20.409
 9169SOL    HW239387   0.097   2.316  20.477
 9170SOL     OW39388   1.257   4.446   2.235
 9170SOL    HW139389   1.291   4.403   2.313
 9170SOL    HW239390   1.193   4.509   2.267
 9171SOL     OW39391   1.096   2.120   2.773
 9171SOL    HW139392   1.182   2.115   2.814
 9171SOL    HW239393   1.048   2.183   2.826
 9172SOL     OW39394   2.897   3.129  16.671
 9172SOL    HW139395   2.851   3.072  16.610
 9172SOL    HW239396   2.974   3.079  16.697
 9173SOL     OW39397   4.145   3.697   0.697
 9173SOL    HW139398   4.117   3.607   0.684
 9173SOL    HW239399   4.104   3.746   0.625
 9174SOL     OW39400   0.307   3.565  18.578
 9174SOL    HW139401   0.303   3.474  18.551
 9174SOL    HW239402   0.221   3.583  18.617
 9175SOL     OW39403   0.681   3.857   0.311
 9175SOL    HW139404   0.719   3.776   0.346
 9175SOL    HW239405   0.646   3.831   0.225
 9176SOL     OW39406   4.686   4.251  14.974
 9176SOL    HW139407   4.688   4.306  14.896
 9176SOL    HW239408   4.775   4.252  15.007
 9177SOL     OW39409   2.865   4.617   6.558
 9177SOL    HW139410   2.924   4.689   6.581
 9177SOL    HW239411   2.780   4.643   6.593
 9178SOL     OW39412   1.965   1.965  20.673
 9178SOL    HW139413   1.872   1.983  20.684
 9178SOL    HW239414   1.991   2.015  20.595
 9179SOL     OW39415   3.253   4.265   7.912
 9179SOL    HW139416   3.290   4.182   7.881
 9179SOL    HW239417   3.166   4.242   7.943
 9180SOL     OW39418   0.252   4.094  15.994
 9180SOL    HW139419   0.303   4.121  15.917
 9180SOL    HW239420   0.173   4.148  15.990
 9181SOL     OW39421   0.895   2.448   2.065
 9181SOL    HW139422   0.838   2.459   1.989
 9181SOL    HW239423   0.936   2.363   2.052
 9182SOL     OW39424   2.750   2.938   2.722
 9182SOL    HW139425   2.767   2.991   2.800
 9182SOL    HW239426   2.796   2.856   2.738
 9183SOL     OW39427   1.095   1.988   5.200
 9183SOL    HW139428   1.029   1.948   5.256
 9183SOL    HW239429   1.071   2.081   5.197
 9184SOL     OW39430   4.076   1.299   8.523
 9184SOL    HW139431   4.151   1.244   8.505
 9184SOL    HW239432   4.010   1.272   8.459
 9185SOL     OW39433   2.142   0.939   4.432
 9185SOL    HW139434   2.047   0.943   4.442
 9185SOL    HW239435   2.156   0.888   4.352
 9186SOL     OW39436   4.773   2.649   2.490
 9186SOL    HW139437   4.704   2.616   2.433
 9186SOL    HW239438   4.726   2.688   2.564
 9187SOL     OW39439   4.036   2.536  19.128
 9187SOL    HW139440   3.963   2.590  19.097
 9187SOL    HW239441   4.113   2.592  19.118
 9188SOL     OW39442   1.428   1.401   3.309
 9188SOL    HW139443   1.483   1.323   3.311
 9188SOL    HW239444   1.483   1.468   3.267
 9189SOL     OW39445   3.814   2.633  20.858
 9189SOL    HW139446   3.788   2.704  20.799
 9189SOL    HW239447   3.739   2.573  20.858
 9190SOL     OW39448   0.083   3.533  15.237
 9190SOL    HW139449   0.132   3.456  15.206
 9190SOL    HW239450   0.082   3.592  15.162
 9191SOL     OW39451   4.357   2.409   4.069
 9191SOL    HW139452   4.341   2.387   4.161
 9191SOL    HW239453   4.270   2.430   4.035
 9192SOL     OW39454   4.084   4.585  13.619
 9192SOL    HW139455   3.996   4.602  13.585
 9192SOL    HW239456   4.102   4.658  13.678
 9193SOL     OW39457   0.347   3.336   4.111
 9193SOL    HW139458   0.352   3.299   4.023
 9193SOL    HW239459   0.432   3.379   4.124
 9194SOL     OW39460   3.171   0.068   2.052
 9194SOL    HW139461   3.118   0.099   1.979
 9194SOL    HW239462   3.260   0.098   2.032
 9195SOL     OW39463   2.344   1.015   3.439
 9195SOL    HW139464   2.273   0.969   3.484
 9195SOL    HW239465   2.365   0.960   3.364
 9196SOL     OW39466   1.212   0.970   7.039
 9196SOL    HW139467   1.251   1.050   7.074
 9196SOL    HW239468   1.275   0.901   7.063
 9197SOL     OW39469   4.463   0.050   1.535
 9197SOL    HW139470   4.443   0.005   1.453
 9197SOL    HW239471   4.378   0.079   1.568
 9198SOL     OW39472   2.318   4.428   5.150
 9198SOL    HW139473   2.381   4.357   5.160
 9198SOL    HW239474   2.368   4.499   5.110
 9199SOL     OW39475   2.217   0.375   6.153
 9199SOL    HW139476   2.276   0.382   6.228
 9199SOL    HW239477   2.262   0.316   6.092
 9200SOL     OW39478   1.998   4.678   6.401
 9200SOL    HW139479   2.070   4.617   6.420
 9200SOL    HW239480   2.036   4.743   6.342
 9201SOL     OW39481   1.646   0.593   2.532
 9201SOL    HW139482   1.733   0.633   2.532
 9201SOL    HW239483   1.639   0.549   2.447
 9202SOL     OW39484   4.242   3.687  15.336
 9202SOL    HW139485   4.295   3.732  15.269
 9202SOL    HW239486   4.239   3.748  15.409
 9203SOL     OW39487   1.620   3.186   3.180
 9203SOL    HW139488   1.538   3.214   3.222
 9203SOL    HW239489   1.689   3.229   3.232
 9204SOL     OW39490   3.066   0.178  16.976
 9204SOL    HW139491   3.014   0.200  16.899
 9204SOL    HW239492   3.144   0.234  16.969
 9205SOL     OW39493   4.335   2.522   1.575
 9205SOL    HW139494   4.268   2.511   1.508
 9205SOL    HW239495   4.319   2.608   1.613
 9206SOL     OW39496   3.343   1.742   0.266
 9206SOL    HW139497   3.413   1.783   0.315
 9206SOL    HW239498   3.373   1.652   0.251
 9207SOL     OW39499   4.453   0.630   5.813
 9207SOL    HW139500   4.477   0.622   5.905
 9207SOL    HW239501   4.531   0.668   5.771
 9208SOL     OW39502   3.965   1.209   4.509
 9208SOL    HW139503   3.946   1.141   4.444
 9208SOL    HW239504   3.913   1.285   4.480
 9209SOL     OW39505   2.425   4.479  14.243
 9209SOL    HW139506   2.487   4.408  14.261
 9209SOL    HW239507   2.345   4.434  14.215
 9210SOL     OW39508   0.980   3.223   5.790
 9210SOL    HW139509   0.981   3.132   5.759
 9210SOL    HW239510   0.948   3.218   5.880
 9211SOL     OW39511   1.413   3.589   0.929
 9211SOL    HW139512   1.335   3.546   0.893
 9211SOL    HW239513   1.398   3.682   0.914
 9212SOL     OW39514   4.462   3.470  17.172
 9212SOL    HW139515   4.489   3.562  17.170
 9212SOL    HW239516   4.368   3.473  17.191
 9213SOL     OW39517   4.463   2.216   5.454
 9213SOL    HW139518   4.417   2.237   5.373
 9213SOL    HW239519   4.556   2.220   5.432
 9214SOL     OW39520   1.295   3.979   1.777
 9214SOL    HW139521   1.202   3.967   1.759
 9214SOL    HW239522   1.320   3.902   1.828
 9215SOL     OW39523   2.125   3.052  17.002
 9215SOL    HW139524   2.207   3.080  16.962
 9215SOL    HW239525   2.124   2.957  16.991
 9216SOL     OW39526   2.730   2.318  19.947
 9216SOL    HW139527   2.709   2.369  19.869
 9216SOL    HW239528   2.787   2.248  19.914
 9217SOL     OW39529   3.111   1.529  16.188
 9217SOL    HW139530   3.016   1.538  16.179
 9217SOL    HW239531   3.124   1.438  16.216
 9218SOL     OW39532   3.178   3.863   4.953
 9218SOL    HW139533   3.223   3.947   4.966
 9218SOL    HW239534   3.086   3.887   4.944
 9219SOL     OW39535   4.477   0.244   4.627
 9219SOL    HW139536   4.458   0.166   4.575
 9219SOL    HW239537   4.499   0.211   4.714
 9220SOL     OW39538   3.602   2.279  12.343
 9220SOL    HW139539   3.593   2.259  12.437
 9220SOL    HW239540   3.511   2.285  12.312
 9221SOL     OW39541   1.459   1.390  18.694
 9221SOL    HW139542   1.450   1.353  18.606
 9221SOL    HW239543   1.508   1.471  18.680
 9222SOL     OW39544   3.008   0.008  15.837
 9222SOL    HW139545   3.054   0.078  15.790
 9222SOL    HW239546   2.916   0.019  15.812
 9223SOL     OW39547   2.075   1.482   4.889
 9223SOL    HW139548   2.095   1.563   4.843
 9223SOL    HW239549   2.117   1.413   4.837
 9224SOL     OW39550   1.541   0.858  17.593
 9224SOL    HW139551   1.544   0.812  17.677
 9224SOL    HW239552   1.514   0.947  17.616
 9225SOL     OW39553   3.380   0.495   4.021
 9225SOL    HW139554   3.469   0.514   4.051
 9225SOL    HW239555   3.346   0.432   4.085
 9226SOL     OW39556   1.538   4.772  19.767
 9226SOL    HW139557   1.541   4.676  19.771
 9226SOL    HW239558   1.610   0.006  19.824
 9227SOL     OW39559   3.959   0.480  18.345
 9227SOL    HW139560   4.051   0.506  18.354
 9227SOL    HW239561   3.912   0.537  18.405
 9228SOL     OW39562   4.441   4.068   4.917
 9228SOL    HW139563   4.395   4.003   4.971
 9228SOL    HW239564   4.501   4.111   4.977
 9229SOL     OW39565   1.733   1.804  19.540
 9229SOL    HW139566   1.800   1.745  19.505
 9229SOL    HW239567   1.778   1.887  19.554
 9230SOL     OW39568   1.059   3.740  20.453
 9230SOL    HW139569   0.965   3.732  20.471
 9230SOL    HW239570   1.096   3.772  20.535
 9231SOL     OW39571   1.889   3.999  16.118
 9231SOL    HW139572   1.871   4.011  16.211
 9231SOL    HW239573   1.894   3.904  16.106
 9232SOL     OW39574   4.232   1.635  16.056
 9232SOL    HW139575   4.138   1.649  16.052
 9232SOL    HW239576   4.242   1.547  16.094
 9233SOL     OW39577   3.451   1.319  20.617
 9233SOL    HW139578   3.463   1.265  20.539
 9233SOL    HW239579   3.392   1.269  20.673
 9234SOL     OW39580   1.523   2.191   4.909
 9234SOL    HW139581   1.435   2.218   4.933
 9234SOL    HW239582   1.522   2.189   4.813
 9235SOL     OW39583   0.044   4.085   1.519
 9235SOL    HW139584   0.061   4.032   1.597
 9235SOL    HW239585   0.046   4.175   1.549
 9236SOL     OW39586   1.445   2.187  20.436
 9236SOL    HW139587   1.414   2.182  20.527
 9236SOL    HW239588   1.438   2.097  20.404
 9237SOL     OW39589   0.076   3.894   1.696
 9237SOL    HW139590   0.151   3.913   1.752
 9237SOL    HW239591   0.039   3.813   1.732
 9238SOL     OW39592   4.596   2.884  17.912
 9238SOL    HW139593   4.667   2.925  17.864
 9238SOL    HW239594   4.516   2.914  17.868
 9239SOL     OW39595   3.256   2.673  16.496
 9239SOL    HW139596   3.302   2.590  16.499
 9239SOL    HW239597   3.169   2.654  16.529
 9240SOL     OW39598   3.874   3.189   3.391
 9240SOL    HW139599   3.807   3.143   3.341
 9240SOL    HW239600   3.951   3.187   3.335
 9241SOL     OW39601   1.213   0.936  17.261
 9241SOL    HW139602   1.260   0.866  17.307
 9241SOL    HW239603   1.281   0.984  17.215
 9242SOL     OW39604   0.853   1.160   0.660
 9242SOL    HW139605   0.788   1.193   0.721
 9242SOL    HW239606   0.891   1.084   0.705
 9243SOL     OW39607   1.347   1.263   4.633
 9243SOL    HW139608   1.318   1.264   4.725
 9243SOL    HW239609   1.403   1.185   4.627
 9244SOL     OW39610   1.621   4.793   3.200
 9244SOL    HW139611   1.578   4.760   3.121
 9244SOL    HW239612   1.551   0.004   3.265
 9245SOL     OW39613   1.725   0.881  16.544
 9245SOL    HW139614   1.760   0.829  16.616
 9245SOL    HW239615   1.717   0.819  16.472
 9246SOL     OW39616   2.054   0.826  17.546
 9246SOL    HW139617   1.980   0.881  17.521
 9246SOL    HW239618   2.130   0.869  17.506
 9247SOL     OW39619   0.005   3.196   4.737
 9247SOL    HW139620   0.067   3.254   4.781
 9247SOL    HW239621   0.057   3.119   4.713
 9248SOL     OW39622   4.016   4.791   3.915
 9248SOL    HW139623   4.010   4.777   3.821
 9248SOL    HW239624   3.927   0.019   3.942
 9249SOL     OW39625   4.494   4.339  16.376
 9249SOL    HW139626   4.417   4.387  16.344
 9249SOL    HW239627   4.463   4.294  16.454
 9250SOL     OW39628   0.997   4.108   0.535
 9250SOL    HW139629   0.953   4.123   0.451
 9250SOL    HW239630   0.953   4.031   0.571
 9251SOL     OW39631   0.193   0.043   3.514
 9251SOL    HW139632   0.211   0.137   3.510
 9251SOL    HW239633   0.235   0.014   3.595
 9252SOL     OW39634   4.072   0.858   0.595
 9252SOL    HW139635   3.981   0.829   0.601
 9252SOL    HW239636   4.091   0.860   0.501
 9253SOL     OW39637   3.617   0.211   3.553
 9253SOL    HW139638   3.654   0.298   3.542
 9253SOL    HW239639   3.568   0.196   3.472
 9254SOL     OW39640   0.397   4.393  20.686
 9254SOL    HW139641   0.317   4.428  20.725
 9254SOL    HW239642   0.408   4.308  20.728
 9255SOL     OW39643   3.970   2.989   3.918
 9255SOL    HW139644   3.913   3.055   3.880
 9255SOL    HW239645   3.920   2.951   3.990
 9256SOL     OW39646   0.115   1.734  11.828
 9256SOL    HW139647   0.194   1.729  11.882
 9256SOL    HW239648   0.122   1.819  11.784
 9257SOL     OW39649   1.746   3.337  17.975
 9257SOL    HW139650   1.733   3.275  17.904
 9257SOL    HW239651   1.658   3.369  17.995
 9258SOL     OW39652   3.959   2.104  15.342
 9258SOL    HW139653   3.904   2.136  15.270
 9258SOL    HW239654   4.048   2.129  15.317
 9259SOL     OW39655   4.630   3.580  15.867
 9259SOL    HW139656   4.623   3.675  15.879
 9259SOL    HW239657   4.716   3.568  15.826
 9260SOL     OW39658   0.640   2.514   0.445
 9260SOL    HW139659   0.599   2.586   0.493
 9260SOL    HW239660   0.630   2.438   0.502
 9261SOL     OW39661   1.422   0.544   4.795
 9261SOL    HW139662   1.503   0.540   4.846
 9261SOL    HW239663   1.365   0.601   4.846
 9262SOL     OW39664   1.947   1.363  15.165
 9262SOL    HW139665   1.871   1.329  15.213
 9262SOL    HW239666   1.953   1.307  15.088
 9263SOL     OW39667   3.130   1.465   4.381
 9263SOL    HW139668   3.114   1.520   4.304
 9263SOL    HW239669   3.113   1.522   4.456
 9264SOL     OW39670   1.848   2.872   2.948
 9264SOL    HW139671   1.871   2.937   2.881
 9264SOL    HW239672   1.754   2.861   2.939
 9265SOL     OW39673   3.391   4.778   5.221
 9265SOL    HW139674   3.298   4.761   5.236
 9265SOL    HW239675   3.435   4.742   5.298
 9266SOL     OW39676   4.568   3.571   5.516
 9266SOL    HW139677   4.596   3.502   5.455
 9266SOL    HW239678   4.484   3.540   5.550
 9267SOL     OW39679   1.478   3.390  17.153
 9267SOL    HW139680   1.441   3.346  17.076
 9267SOL    HW239681   1.570   3.404  17.130
 9268SOL     OW39682   4.771   1.440   3.141
 9268SOL    HW139683   4.692   1.386   3.130
 9268SOL    HW239684   4.763   1.509   3.075
 9269SOL     OW39685   0.791   4.532   4.884
 9269SOL    HW139686   0.871   4.493   4.917
 9269SOL    HW239687   0.771   4.602   4.947
 9270SOL     OW39688   2.047   2.304  13.927
 9270SOL    HW139689   1.961   2.289  13.968
 9270SOL    HW239690   2.031   2.294  13.833
 9271SOL     OW39691   1.182   0.301   4.067
 9271SOL    HW139692   1.175   0.302   3.971
 9271SOL    HW239693   1.253   0.362   4.086
 9272SOL     OW39694   4.682   0.935  20.397
 9272SOL    HW139695   4.644   0.894  20.319
 9272SOL    HW239696   4.609   0.942  20.458
 9273SOL     OW39697   0.941   1.558  19.084
 9273SOL    HW139698   0.872   1.493  19.096
 9273SOL    HW239699   0.894   1.638  19.059
 9274SOL     OW39700   3.310   3.231  15.546
 9274SOL    HW139701   3.244   3.219  15.615
 9274SOL    HW239702   3.264   3.280  15.477
 9275SOL     OW39703   0.316   4.241   1.488
 9275SOL    HW139704   0.314   4.235   1.584
 9275SOL    HW239705   0.369   4.167   1.460
 9276SOL     OW39706   0.656   2.802   4.389
 9276SOL    HW139707   0.639   2.812   4.295
 9276SOL    HW239708   0.749   2.818   4.399
 9277SOL     OW39709   2.592   1.831   8.150
 9277SOL    HW139710   2.614   1.759   8.209
 9277SOL    HW239711   2.674   1.877   8.136
 9278SOL     OW39712   3.527   4.137   2.146
 9278SOL    HW139713   3.603   4.087   2.176
 9278SOL    HW239714   3.455   4.074   2.147
 9279SOL     OW39715   2.668   2.140   8.220
 9279SOL    HW139716   2.649   2.178   8.305
 9279SOL    HW239717   2.700   2.213   8.167
 9280SOL     OW39718   4.644   3.521   4.624
 9280SOL    HW139719   4.686   3.560   4.547
 9280SOL    HW239720   4.646   3.590   4.690
 9281SOL     OW39721   2.089   0.353   4.840
 9281SOL    HW139722   2.098   0.423   4.774
 9281SOL    HW239723   2.010   0.378   4.889
 9282SOL     OW39724   3.807   1.098  16.927
 9282SOL    HW139725   3.721   1.130  16.955
 9282SOL    HW239726   3.792   1.065  16.838
 9283SOL     OW39727   3.457   2.286   8.768
 9283SOL    HW139728   3.546   2.265   8.741
 9283SOL    HW239729   3.468   2.350   8.839
 9284SOL     OW39730   2.259   4.459  14.831
 9284SOL    HW139731   2.353   4.455  14.844
 9284SOL    HW239732   2.244   4.543  14.787
 9285SOL     OW39733   3.401   2.604   4.094
 9285SOL    HW139734   3.376   2.697   4.098
 9285SOL    HW239735   3.388   2.572   4.183
 9286SOL     OW39736   0.350   0.871   3.676
 9286SOL    HW139737   0.390   0.878   3.763
 9286SOL    HW239738   0.339   0.777   3.663
 9287SOL     OW39739   3.661   3.201  17.745
 9287SOL    HW139740   3.610   3.122  17.727
 9287SOL    HW239741   3.704   3.221  17.662
 9288SOL     OW39742   0.394   3.051  20.470
 9288SOL    HW139743   0.481   3.090  20.456
 9288SOL    HW239744   0.366   3.021  20.384
 9289SOL     OW39745   1.134   0.560   3.911
 9289SOL    HW139746   1.227   0.580   3.922
 9289SOL    HW239747   1.094   0.585   3.995
 9290SOL     OW39748   4.024   2.454  20.542
 9290SOL    HW139749   4.021   2.540  20.583
 9290SOL    HW239750   4.117   2.432  20.537
 9291SOL     OW39751   1.876   1.576  19.888
 9291SOL    HW139752   1.825   1.541  19.961
 9291SOL    HW239753   1.964   1.539  19.901
 9292SOL     OW39754   3.477   2.229   7.359
 9292SOL    HW139755   3.410   2.206   7.295
 9292SOL    HW239756   3.536   2.153   7.361
 9293SOL     OW39757   1.906   1.596   2.536
 9293SOL    HW139758   1.917   1.687   2.511
 9293SOL    HW239759   1.993   1.557   2.525
 9294SOL     OW39760   0.319   1.801  15.823
 9294SOL    HW139761   0.290   1.763  15.740
 9294SOL    HW239762   0.412   1.778  15.829
 9295SOL     OW39763   2.565   2.224  13.077
 9295SOL    HW139764   2.528   2.224  12.988
 9295SOL    HW239765   2.638   2.286  13.072
 9296SOL     OW39766   0.577   0.944   2.366
 9296SOL    HW139767   0.617   1.028   2.344
 9296SOL    HW239768   0.497   0.966   2.412
 9297SOL     OW39769   1.556   4.398   5.345
 9297SOL    HW139770   1.517   4.455   5.280
 9297SOL    HW239771   1.632   4.447   5.378
 9298SOL     OW39772   2.403   2.532  19.649
 9298SOL    HW139773   2.329   2.473  19.634
 9298SOL    HW239774   2.457   2.488  19.714
 9299SOL     OW39775   2.619   0.365  14.702
 9299SOL    HW139776   2.675   0.288  14.699
 9299SOL    HW239777   2.536   0.334  14.738
 9300SOL     OW39778   3.816   3.512  20.664
 9300SOL    HW139779   3.858   3.491  20.748
 9300SOL    HW239780   3.736   3.560  20.688
 9301SOL     OW39781   3.260   4.493  14.622
 9301SOL    HW139782   3.273   4.530  14.534
 9301SOL    HW239783   3.291   4.402  14.613
 9302SOL     OW39784   1.706   4.785  16.728
 9302SOL    HW139785   1.742   4.699  16.750
 9302SOL    HW239786   1.618   4.784  16.767
 9303SOL     OW39787   3.191   1.726   6.550
 9303SOL    HW139788   3.130   1.761   6.485
 9303SOL    HW239789   3.176   1.632   6.549
 9304SOL     OW39790   1.762   0.419   0.407
 9304SOL    HW139791   1.824   0.476   0.452
 9304SOL    HW239792   1.796   0.330   0.423
 9305SOL     OW39793   2.836   1.613  14.310
 9305SOL    HW139794   2.892   1.624  14.387
 9305SOL    HW239795   2.835   1.700  14.270
 9306SOL     OW39796   3.304   3.467   4.592
 9306SOL    HW139797   3.296   3.458   4.497
 9306SOL    HW239798   3.251   3.396   4.628
 9307SOL     OW39799   3.378   0.670   2.790
 9307SOL    HW139800   3.336   0.662   2.875
 9307SOL    HW239801   3.360   0.586   2.747
 9308SOL     OW39802   3.289   1.911   2.238
 9308SOL    HW139803   3.230   1.985   2.254
 9308SOL    HW239804   3.232   1.841   2.207
 9309SOL     OW39805   3.167   4.313   5.746
 9309SOL    HW139806   3.249   4.334   5.701
 9309SOL    HW239807   3.134   4.235   5.700
 9310SOL     OW39808   2.783   2.352  17.199
 9310SOL    HW139809   2.795   2.409  17.274
 9310SOL    HW239810   2.862   2.365  17.146
 9311SOL     OW39811   1.747   0.589  19.076
 9311SOL    HW139812   1.734   0.495  19.064
 9311SOL    HW239813   1.659   0.626  19.078
 9312SOL     OW39814   3.275   4.215  12.972
 9312SOL    HW139815   3.320   4.213  12.888
 9312SOL    HW239816   3.320   4.150  13.026
 9313SOL     OW39817   2.482   3.047   0.317
 9313SOL    HW139818   2.522   3.117   0.265
 9313SOL    HW239819   2.542   3.034   0.390
 9314SOL     OW39820   2.327   2.676   4.797
 9314SOL    HW139821   2.360   2.650   4.711
 9314SOL    HW239822   2.246   2.625   4.808
 9315SOL     OW39823   2.276   0.151   0.758
 9315SOL    HW139824   2.195   0.101   0.753
 9315SOL    HW239825   2.247   0.243   0.762
 9316SOL     OW39826   3.051   2.066  17.059
 9316SOL    HW139827   3.113   2.138  17.066
 9316SOL    HW239828   3.037   2.037  17.149
 9317SOL     OW39829   0.091   3.098  15.577
 9317SOL    HW139830   0.050   3.131  15.497
 9317SOL    HW239831   0.181   3.078  15.551
 9318SOL     OW39832   3.911   0.527  16.795
 9318SOL    HW139833   3.826   0.543  16.755
 9318SOL    HW239834   3.958   0.474  16.731
 9319SOL     OW39835   0.440   2.758  15.601
 9319SOL    HW139836   0.532   2.748  15.626
 9319SOL    HW239837   0.402   2.810  15.672
 9320SOL     OW39838   1.809   3.333   6.046
 9320SOL    HW139839   1.817   3.428   6.038
 9320SOL    HW239840   1.880   3.298   5.992
 9321SOL     OW39841   4.508   0.894   3.739
 9321SOL    HW139842   4.502   0.950   3.816
 9321SOL    HW239843   4.495   0.805   3.771
 9322SOL     OW39844   0.478   3.340   1.208
 9322SOL    HW139845   0.544   3.284   1.167
 9322SOL    HW239846   0.499   3.336   1.302
 9323SOL     OW39847   0.414   2.538   5.211
 9323SOL    HW139848   0.415   2.486   5.131
 9323SOL    HW239849   0.507   2.556   5.229
 9324SOL     OW39850   4.711   2.519  17.917
 9324SOL    HW139851   4.722   2.606  17.955
 9324SOL    HW239852   4.661   2.533  17.837
 9325SOL     OW39853   0.989   2.961   2.979
 9325SOL    HW139854   0.937   2.892   3.021
 9325SOL    HW239855   1.022   2.920   2.899
 9326SOL     OW39856   1.248   1.018  15.990
 9326SOL    HW139857   1.222   1.092  15.936
 9326SOL    HW239858   1.166   0.983  16.025
 9327SOL     OW39859   4.587   3.636   1.695
 9327SOL    HW139860   4.510   3.681   1.731
 9327SOL    HW239861   4.595   3.557   1.748
 9328SOL     OW39862   1.720   0.378   7.494
 9328SOL    HW139863   1.632   0.417   7.488
 9328SOL    HW239864   1.741   0.353   7.404
 9329SOL     OW39865   1.018   2.124  20.584
 9329SOL    HW139866   1.041   2.145  20.675
 9329SOL    HW239867   0.968   2.042  20.590
 9330SOL     OW39868   0.688   2.835  19.319
 9330SOL    HW139869   0.705   2.927  19.340
 9330SOL    HW239870   0.774   2.798  19.298
 9331SOL     OW39871   3.698   1.007  16.685
 9331SOL    HW139872   3.614   0.968  16.659
 9331SOL    HW239873   3.744   1.022  16.602
 9332SOL     OW39874   0.235   3.054  12.894
 9332SOL    HW139875   0.305   3.120  12.899
 9332SOL    HW239876   0.278   2.972  12.921
 9333SOL     OW39877   2.300   1.080  17.173
 9333SOL    HW139878   2.289   0.987  17.156
 9333SOL    HW239879   2.276   1.123  17.091
 9334SOL     OW39880   2.473   1.104  19.276
 9334SOL    HW139881   2.500   1.012  19.283
 9334SOL    HW239882   2.378   1.102  19.288
 9335SOL     OW39883   2.874   0.973   4.944
 9335SOL    HW139884   2.911   1.059   4.920
 9335SOL    HW239885   2.922   0.948   5.023
 9336SOL     OW39886   2.503   4.002  18.123
 9336SOL    HW139887   2.465   4.031  18.041
 9336SOL    HW239888   2.567   3.936  18.098
 9337SOL     OW39889   1.355   2.216   6.852
 9337SOL    HW139890   1.360   2.276   6.778
 9337SOL    HW239891   1.297   2.145   6.822
 9338SOL     OW39892   4.438   2.101  18.713
 9338SOL    HW139893   4.484   2.124  18.632
 9338SOL    HW239894   4.415   2.186  18.751
 9339SOL     OW39895   3.820   0.747   0.232
 9339SOL    HW139896   3.847   0.712   0.147
 9339SOL    HW239897   3.819   0.670   0.289
 9340SOL     OW39898   2.876   1.481  17.805
 9340SOL    HW139899   2.782   1.491  17.789
 9340SOL    HW239900   2.918   1.542  17.744
 9341SOL     OW39901   2.253   4.491  19.850
 9341SOL    HW139902   2.328   4.465  19.797
 9341SOL    HW239903   2.198   4.542  19.790
 9342SOL     OW39904   0.911   1.868  13.224
 9342SOL    HW139905   0.951   1.866  13.311
 9342SOL    HW239906   0.980   1.901  13.167
 9343SOL     OW39907   0.784   2.412  13.663
 9343SOL    HW139908   0.723   2.353  13.619
 9343SOL    HW239909   0.782   2.384  13.754
 9344SOL     OW39910   1.066   3.596   1.117
 9344SOL    HW139911   1.102   3.537   1.184
 9344SOL    HW239912   1.125   3.588   1.043
 9345SOL     OW39913   0.422   1.534  20.812
 9345SOL    HW139914   0.511   1.528  20.778
 9345SOL    HW239915   0.429   1.583  20.893
 9346SOL     OW39916   1.383   0.198  15.641
 9346SOL    HW139917   1.409   0.216  15.732
 9346SOL    HW239918   1.341   0.279  15.612
 9347SOL     OW39919   3.585   2.050   6.900
 9347SOL    HW139920   3.629   2.097   6.971
 9347SOL    HW239921   3.656   2.004   6.854
 9348SOL     OW39922   1.740   2.234   0.006
 9348SOL    HW139923   1.785   2.150   0.017
 9348SOL    HW239924   1.711   2.257   0.095
 9349SOL     OW39925   2.886   2.780  21.008
 9349SOL    HW139926   2.897   2.687  20.987
 9349SOL    HW239927   2.870   2.781  21.102
 9350SOL     OW39928   2.053   4.568  15.110
 9350SOL    HW139929   2.140   4.602  15.132
 9350SOL    HW239930   2.036   4.600  15.022
 9351SOL     OW39931   1.708   4.456  13.999
 9351SOL    HW139932   1.638   4.514  13.967
 9351SOL    HW239933   1.686   4.441  14.091
 9352SOL     OW39934   1.382   2.473   6.209
 9352SOL    HW139935   1.430   2.391   6.220
 9352SOL    HW239936   1.446   2.541   6.232
 9353SOL     OW39937   2.235   4.390  21.028
 9353SOL    HW139938   2.260   4.473  21.070
 9353SOL    HW239939   2.209   4.334  21.101
 9354SOL     OW39940   4.026   3.068   8.229
 9354SOL    HW139941   3.982   2.988   8.200
 9354SOL    HW239942   4.005   3.133   8.163
 9355SOL     OW39943   0.853   3.339  16.904
 9355SOL    HW139944   0.876   3.277  16.836
 9355SOL    HW239945   0.831   3.285  16.980
 9356SOL     OW39946   3.837   0.642  19.703
 9356SOL    HW139947   3.905   0.709  19.706
 9356SOL    HW239948   3.844   0.604  19.615
 9357SOL     OW39949   1.385   2.882  20.236
 9357SOL    HW139950   1.328   2.819  20.192
 9357SOL    HW239951   1.375   2.862  20.329
 9358SOL     OW39952   3.235   1.665   3.495
 9358SOL    HW139953   3.161   1.694   3.549
 9358SOL    HW239954   3.225   1.570   3.491
 9359SOL     OW39955   1.482   3.549  15.891
 9359SOL    HW139956   1.436   3.544  15.807
 9359SOL    HW239957   1.414   3.534  15.957
 9360SOL     OW39958   2.394   0.469  15.961
 9360SOL    HW139959   2.308   0.433  15.937
 9360SOL    HW239960   2.419   0.521  15.885
 9361SOL     OW39961   1.490   0.266  17.615
 9361SOL    HW139962   1.430   0.203  17.575
 9361SOL    HW239963   1.523   0.318  17.541
 9362SOL     OW39964   4.313   2.134   1.476
 9362SOL    HW139965   4.230   2.086   1.482
 9362SOL    HW239966   4.359   2.092   1.403
 9363SOL     OW39967   4.579   3.159   3.435
 9363SOL    HW139968   4.488   3.148   3.407
 9363SOL    HW239969   4.600   3.251   3.416
 9364SOL     OW39970   3.472   4.659  19.993
 9364SOL    HW139971   3.526   4.737  19.984
 9364SOL    HW239972   3.382   4.692  19.989
 9365SOL     OW39973   0.429   0.411   4.193
 9365SOL    HW139974   0.481   0.363   4.257
 9365SOL    HW239975   0.338   0.398   4.221
 9366SOL     OW39976   0.274   3.946   1.188
 9366SOL    HW139977   0.244   3.891   1.260
 9366SOL    HW239978   0.304   3.884   1.122
 9367SOL     OW39979   1.311   3.277  15.348
 9367SOL    HW139980   1.339   3.356  15.393
 9367SOL    HW239981   1.361   3.279  15.266
 9368SOL     OW39982   3.902   1.661  15.369
 9368SOL    HW139983   3.807   1.672  15.360
 9368SOL    HW239984   3.939   1.718  15.302
 9369SOL     OW39985   4.600   3.995  15.007
 9369SOL    HW139986   4.585   4.085  14.977
 9369SOL    HW239987   4.678   4.002  15.063
 9370SOL     OW39988   3.236   2.820  17.267
 9370SOL    HW139989   3.203   2.834  17.179
 9370SOL    HW239990   3.173   2.865  17.324
 9371SOL     OW39991   2.553   3.814   6.516
 9371SOL    HW139992   2.532   3.722   6.505
 9371SOL    HW239993   2.582   3.842   6.429
 9372SOL     OW39994   3.856   1.447   1.028
 9372SOL    HW139995   3.852   1.357   1.059
 9372SOL    HW239996   3.780   1.456   0.970
 9373SOL     OW39997   2.223   2.287  15.317
 9373SOL    HW139998   2.145   2.319  15.273
 9373SOL    HW239999   2.219   2.325  15.404
 9374SOL     OW40000   3.438   4.512  16.603
 9374SOL    HW140001   3.476   4.596  16.630
 9374SOL    HW240002   3.511   4.451  16.607
 9375SOL     OW40003   0.259   0.016   1.026
 9375SOL    HW140004   0.213   0.030   0.943
 9375SOL    HW240005   0.201   4.752   1.076
 9376SOL     OW40006   0.129   3.562   5.758
 9376SOL    HW140007   0.132   3.609   5.675
 9376SOL    HW240008   0.116   3.630   5.824
 9377SOL     OW40009   2.172   2.127  19.157
 9377SOL    HW140010   2.225   2.202  19.131
 9377SOL    HW240011   2.175   2.127  19.253
 9378SOL     OW40012   0.050   0.379  20.836
 9378SOL    HW140013   0.050   0.352  20.744
 9378SOL    HW240014   0.024   0.300  20.883
 9379SOL     OW40015   3.283   3.452   6.721
 9379SOL    HW140016   3.282   3.411   6.807
 9379SOL    HW240017   3.359   3.414   6.677
 9380SOL     OW40018   1.618   0.963  17.989
 9380SOL    HW140019   1.612   1.040  18.045
 9380SOL    HW240020   1.539   0.913  18.008
 9381SOL     OW40021   0.557   4.669  14.797
 9381SOL    HW140022   0.468   4.703  14.806
 9381SOL    HW240023   0.607   4.743  14.761
 9382SOL     OW40024   0.863   3.380   8.470
 9382SOL    HW140025   0.886   3.292   8.438
 9382SOL    HW240026   0.944   3.411   8.512
 9383SOL     OW40027   2.985   3.703  20.807
 9383SOL    HW140028   2.939   3.620  20.811
 9383SOL    HW240029   2.932   3.763  20.859
 9384SOL     OW40030   3.231   4.262  19.409
 9384SOL    HW140031   3.261   4.318  19.480
 9384SOL    HW240032   3.177   4.195  19.452
 9385SOL     OW40033   1.306   1.243  20.605
 9385SOL    HW140034   1.241   1.231  20.675
 9385SOL    HW240035   1.364   1.311  20.638
 9386SOL     OW40036   4.213   0.099   1.699
 9386SOL    HW140037   4.201   0.021   1.755
 9386SOL    HW240038   4.132   0.105   1.649
 9387SOL     OW40039   3.014   4.794   6.168
 9387SOL    HW140040   3.090   4.756   6.213
 9387SOL    HW240041   2.946   4.727   6.175
 9388SOL     OW40042   0.346   0.824   6.075
 9388SOL    HW140043   0.390   0.901   6.110
 9388SOL    HW240044   0.417   0.764   6.052
 9389SOL     OW40045   1.058   3.761  11.483
 9389SOL    HW140046   1.148   3.793  11.477
 9389SOL    HW240047   1.012   3.805  11.412
 9390SOL     OW40048   4.310   3.277  16.211
 9390SOL    HW140049   4.265   3.198  16.242
 9390SOL    HW240050   4.325   3.328  16.291
 9391SOL     OW40051   0.431   0.362  10.979
 9391SOL    HW140052   0.519   0.326  10.961
 9391SOL    HW240053   0.419   0.430  10.912
 9392SOL     OW40054   0.659   1.835  20.644
 9392SOL    HW140055   0.576   1.788  20.651
 9392SOL    HW240056   0.656   1.901  20.713
 9393SOL     OW40057   0.491   1.169  16.817
 9393SOL    HW140058   0.585   1.178  16.807
 9393SOL    HW240059   0.454   1.203  16.736
 9394SOL     OW40060   3.062   3.994  18.837
 9394SOL    HW140061   3.146   3.978  18.879
 9394SOL    HW240062   3.009   4.038  18.904
 9395SOL     OW40063   2.892   1.326  15.765
 9395SOL    HW140064   2.814   1.291  15.807
 9395SOL    HW240065   2.867   1.414  15.738
 9396SOL     OW40066   4.005   3.829   2.900
 9396SOL    HW140067   3.977   3.852   2.988
 9396SOL    HW240068   3.931   3.781   2.863
 9397SOL     OW40069   2.626   3.234   1.457
 9397SOL    HW140070   2.714   3.250   1.423
 9397SOL    HW240071   2.569   3.286   1.400
 9398SOL     OW40072   2.235   2.687  18.173
 9398SOL    HW140073   2.180   2.713  18.099
 9398SOL    HW240074   2.285   2.612  18.140
 9399SOL     OW40075   3.569   4.299  11.754
 9399SOL    HW140076   3.644   4.357  11.742
 9399SOL    HW240077   3.513   4.345  11.817
 9400SOL     OW40078   4.098   3.528   1.428
 9400SOL    HW140079   4.138   3.443   1.411
 9400SOL    HW240080   4.138   3.587   1.363
 9401SOL     OW40081   1.753   1.463  20.087
 9401SOL    HW140082   1.841   1.430  20.105
 9401SOL    HW240083   1.697   1.385  20.087
 9402SOL     OW40084   3.291   4.637  18.614
 9402SOL    HW140085   3.378   4.674  18.597
 9402SOL    HW240086   3.267   4.594  18.532
 9403SOL     OW40087   2.691   3.205   8.000
 9403SOL    HW140088   2.725   3.149   8.069
 9403SOL    HW240089   2.763   3.212   7.937
 9404SOL     OW40090   1.071   4.194  21.079
 9404SOL    HW140091   1.158   4.234  21.075
 9404SOL    HW240092   1.044   4.187  20.987
 9405SOL     OW40093   4.754   3.950  16.937
 9405SOL    HW140094   0.033   3.944  16.998
 9405SOL    HW240095   0.001   3.962  16.851
 9406SOL     OW40096   1.401   4.353   0.810
 9406SOL    HW140097   1.451   4.372   0.889
 9406SOL    HW240098   1.359   4.437   0.788
 9407SOL     OW40099   0.584   1.468   4.363
 9407SOL    HW140100   0.568   1.376   4.384
 9407SOL    HW240101   0.606   1.468   4.270
 9408SOL     OW40102   1.394   3.891   5.491
 9408SOL    HW140103   1.409   3.798   5.508
 9408SOL    HW240104   1.465   3.935   5.537
 9409SOL     OW40105   4.006   2.857  18.789
 9409SOL    HW140106   4.058   2.936  18.796
 9409SOL    HW240107   4.035   2.816  18.707
 9410SOL     OW40108   1.283   1.306  15.877
 9410SOL    HW140109   1.203   1.341  15.916
 9410SOL    HW240110   1.332   1.269  15.950
 9411SOL     OW40111   4.313   4.774   3.170
 9411SOL    HW140112   4.352   4.763   3.083
 9411SOL    HW240113   4.231   4.725   3.166
 9412SOL     OW40114   2.467   2.184  18.072
 9412SOL    HW140115   2.489   2.156  17.983
 9412SOL    HW240116   2.551   2.178  18.119
 9413SOL     OW40117   0.761   0.716  17.501
 9413SOL    HW140118   0.854   0.711  17.522
 9413SOL    HW240119   0.740   0.631  17.461
 9414SOL     OW40120   1.044   1.369   4.746
 9414SOL    HW140121   1.046   1.443   4.808
 9414SOL    HW240122   1.136   1.351   4.728
 9415SOL     OW40123   1.185   0.012   9.085
 9415SOL    HW140124   1.191   0.042   9.176
 9415SOL    HW240125   1.095   0.030   9.059
 9416SOL     OW40126   4.131   4.120  19.362
 9416SOL    HW140127   4.071   4.051  19.335
 9416SOL    HW240128   4.137   4.178  19.287
 9417SOL     OW40129   4.491   3.755   5.328
 9417SOL    HW140130   4.395   3.754   5.329
 9417SOL    HW240131   4.516   3.687   5.390
 9418SOL     OW40132   1.183   1.344   0.871
 9418SOL    HW140133   1.260   1.392   0.841
 9418SOL    HW240134   1.110   1.404   0.857
 9419SOL     OW40135   0.977   2.597   5.663
 9419SOL    HW140136   0.915   2.590   5.736
 9419SOL    HW240137   1.009   2.508   5.650
 9420SOL     OW40138   0.976   0.118   1.253
 9420SOL    HW140139   1.062   0.077   1.243
 9420SOL    HW240140   0.936   0.072   1.327
 9421SOL     OW40141   3.668   1.014   5.268
 9421SOL    HW140142   3.736   0.972   5.215
 9421SOL    HW240143   3.675   0.971   5.353
 9422SOL     OW40144   3.598   4.117   2.643
 9422SOL    HW140145   3.565   4.137   2.730
 9422SOL    HW240146   3.520   4.105   2.589
 9423SOL     OW40147   0.485   0.860  13.585
 9423SOL    HW140148   0.404   0.883  13.540
 9423SOL    HW240149   0.473   0.768  13.610
 9424SOL     OW40150   4.264   2.536   2.153
 9424SOL    HW140151   4.168   2.535   2.156
 9424SOL    HW240152   4.287   2.463   2.096
 9425SOL     OW40153   3.097   0.449  16.023
 9425SOL    HW140154   3.063   0.529  15.982
 9425SOL    HW240155   3.114   0.389  15.950
 9426SOL     OW40156   2.166   3.919   0.941
 9426SOL    HW140157   2.140   3.930   0.850
 9426SOL    HW240158   2.099   3.861   0.978
 9427SOL     OW40159   2.465   3.950  20.509
 9427SOL    HW140160   2.532   4.006  20.471
 9427SOL    HW240161   2.383   3.997  20.495
 9428SOL     OW40162   2.844   2.494   1.073
 9428SOL    HW140163   2.762   2.534   1.103
 9428SOL    HW240164   2.853   2.520   0.982
 9429SOL     OW40165   3.617   3.767  21.159
 9429SOL    HW140166   3.584   3.811  21.237
 9429SOL    HW240167   3.629   3.676  21.186
 9430SOL     OW40168   2.534   2.947  17.153
 9430SOL    HW140169   2.465   2.919  17.212
 9430SOL    HW240170   2.614   2.943  17.205
 9431SOL     OW40171   2.845   4.561  18.573
 9431SOL    HW140172   2.858   4.528  18.662
 9431SOL    HW240173   2.819   4.483  18.523
 9432SOL     OW40174   4.184   3.770  18.395
 9432SOL    HW140175   4.149   3.801  18.311
 9432SOL    HW240176   4.206   3.678  18.379
 9433SOL     OW40177   1.348   4.355   4.326
 9433SOL    HW140178   1.265   4.396   4.350
 9433SOL    HW240179   1.326   4.298   4.252
 9434SOL     OW40180   2.956   4.117   3.264
 9434SOL    HW140181   2.946   4.147   3.173
 9434SOL    HW240182   2.956   4.022   3.257
 9435SOL     OW40183   1.831   3.309  20.806
 9435SOL    HW140184   1.855   3.380  20.747
 9435SOL    HW240185   1.896   3.313  20.876
 9436SOL     OW40186   1.243   4.086   6.088
 9436SOL    HW140187   1.282   4.159   6.138
 9436SOL    HW240188   1.244   4.116   5.997
 9437SOL     OW40189   4.091   2.637   2.526
 9437SOL    HW140190   4.032   2.597   2.462
 9437SOL    HW240191   4.151   2.690   2.474
 9438SOL     OW40192   3.355   4.150  18.774
 9438SOL    HW140193   3.345   4.086  18.845
 9438SOL    HW240194   3.314   4.229  18.807
 9439SOL     OW40195   1.818   1.885  17.297
 9439SOL    HW140196   1.839   1.971  17.333
 9439SOL    HW240197   1.902   1.852  17.263
 9440SOL     OW40198   1.972   2.113   2.187
 9440SOL    HW140199   1.988   2.026   2.225
 9440SOL    HW240200   1.905   2.152   2.243
 9441SOL     OW40201   0.264   1.030  14.356
 9441SOL    HW140202   0.169   1.039  14.357
 9441SOL    HW240203   0.279   0.936  14.348
 9442SOL     OW40204   0.329   3.378   2.096
 9442SOL    HW140205   0.250   3.345   2.139
 9442SOL    HW240206   0.309   3.374   2.002
 9443SOL     OW40207   3.908   0.600  12.039
 9443SOL    HW140208   3.922   0.507  12.057
 9443SOL    HW240209   3.973   0.645  12.094
 9444SOL     OW40210   2.638   0.339  16.544
 9444SOL    HW140211   2.589   0.419  16.525
 9444SOL    HW240212   2.643   0.336  16.639
 9445SOL     OW40213   4.308   0.464  19.611
 9445SOL    HW140214   4.384   0.488  19.664
 9445SOL    HW240215   4.268   0.390  19.657
 9446SOL     OW40216   3.155   3.898   1.708
 9446SOL    HW140217   3.124   3.876   1.620
 9446SOL    HW240218   3.191   3.817   1.743
 9447SOL     OW40219   2.075   3.879  13.151
 9447SOL    HW140220   2.146   3.897  13.090
 9447SOL    HW240221   2.110   3.903  13.237
 9448SOL     OW40222   2.802   1.495   5.119
 9448SOL    HW140223   2.742   1.421   5.110
 9448SOL    HW240224   2.879   1.458   5.161
 9449SOL     OW40225   2.882   2.297   6.811
 9449SOL    HW140226   2.879   2.290   6.716
 9449SOL    HW240227   2.800   2.258   6.841
 9450SOL     OW40228   4.224   0.576  18.299
 9450SOL    HW140229   4.245   0.595  18.207
 9450SOL    HW240230   4.298   0.524  18.330
 9451SOL     OW40231   4.534   2.478  20.585
 9451SOL    HW140232   4.514   2.485  20.679
 9451SOL    HW240233   4.618   2.431  20.582
 9452SOL     OW40234   2.079   3.041   1.835
 9452SOL    HW140235   2.111   3.090   1.759
 9452SOL    HW240236   2.155   2.990   1.863
 9453SOL     OW40237   2.797   2.420  18.224
 9453SOL    HW140238   2.766   2.459  18.306
 9453SOL    HW240239   2.810   2.328  18.244
 9454SOL     OW40240   3.484   4.379  17.645
 9454SOL    HW140241   3.448   4.452  17.595
 9454SOL    HW240242   3.473   4.303  17.587
 9455SOL     OW40243   3.449   2.220  17.033
 9455SOL    HW140244   3.517   2.160  17.004
 9455SOL    HW240245   3.398   2.240  16.955
 9456SOL     OW40246   0.616   3.419   5.556
 9456SOL    HW140247   0.662   3.463   5.628
 9456SOL    HW240248   0.612   3.327   5.582
 9457SOL     OW40249   3.799   1.796  16.914
 9457SOL    HW140250   3.877   1.755  16.950
 9457SOL    HW240251   3.810   1.791  16.819
 9458SOL     OW40252   1.198   2.709   6.284
 9458SOL    HW140253   1.213   2.629   6.334
 9458SOL    HW240254   1.102   2.717   6.280
 9459SOL     OW40255   0.466   3.971  16.420
 9459SOL    HW140256   0.465   4.039  16.487
 9459SOL    HW240257   0.543   3.917  16.441
 9460SOL     OW40258   0.150   3.404  19.011
 9460SOL    HW140259   0.114   3.439  19.093
 9460SOL    HW240260   0.079   3.350  18.975
 9461SOL     OW40261   3.422   4.216  19.833
 9461SOL    HW140262   3.448   4.129  19.863
 9461SOL    HW240263   3.497   4.272  19.852
 9462SOL     OW40264   4.554   1.878   3.563
 9462SOL    HW140265   4.512   1.953   3.607
 9462SOL    HW240266   4.647   1.898   3.565
 9463SOL     OW40267   1.130   1.771  19.121
 9463SOL    HW140268   1.069   1.698  19.124
 9463SOL    HW240269   1.118   1.810  19.034
 9464SOL     OW40270   1.480   1.710  18.445
 9464SOL    HW140271   1.452   1.801  18.451
 9464SOL    HW240272   1.535   1.696  18.522
 9465SOL     OW40273   4.458   1.723   4.294
 9465SOL    HW140274   4.547   1.732   4.327
 9465SOL    HW240275   4.468   1.728   4.198
 9466SOL     OW40276   2.278   2.675  12.873
 9466SOL    HW140277   2.233   2.684  12.958
 9466SOL    HW240278   2.222   2.722  12.812
 9467SOL     OW40279   3.641   0.872  17.833
 9467SOL    HW140280   3.655   0.922  17.752
 9467SOL    HW240281   3.698   0.796  17.824
 9468SOL     OW40282   1.934   0.100   1.254
 9468SOL    HW140283   1.909   0.015   1.290
 9468SOL    HW240284   1.952   0.154   1.331
 9469SOL     OW40285   2.547   4.792  21.246
 9469SOL    HW140286   2.479   4.743   0.016
 9469SOL    HW240287   2.511   0.086  21.236
 9470SOL     OW40288   3.455   2.862   1.304
 9470SOL    HW140289   3.455   2.949   1.266
 9470SOL    HW240290   3.364   2.846   1.329
 9471SOL     OW40291   3.665   2.589   2.253
 9471SOL    HW140292   3.627   2.508   2.287
 9471SOL    HW240293   3.621   2.603   2.170
 9472SOL     OW40294   2.826   0.867  14.997
 9472SOL    HW140295   2.747   0.898  15.042
 9472SOL    HW240296   2.898   0.907  15.046
 9473SOL     OW40297   0.083   1.804  20.784
 9473SOL    HW140298   0.056   1.734  20.724
 9473SOL    HW240299   0.003   1.827  20.832
 9474SOL     OW40300   0.333   3.074   5.084
 9474SOL    HW140301   0.336   3.022   5.164
 9474SOL    HW240302   0.240   3.082   5.063
 9475SOL     OW40303   2.784   0.549  20.161
 9475SOL    HW140304   2.839   0.618  20.126
 9475SOL    HW240305   2.776   0.485  20.090
 9476SOL     OW40306   0.574   0.860   5.426
 9476SOL    HW140307   0.516   0.936   5.429
 9476SOL    HW240308   0.577   0.829   5.517
 9477SOL     OW40309   4.758   4.527  20.282
 9477SOL    HW140310   0.023   4.485  20.344
 9477SOL    HW240311   4.792   4.501  20.196
 9478SOL     OW40312   1.735   0.315  18.338
 9478SOL    HW140313   1.822   0.319  18.379
 9478SOL    HW240314   1.744   0.246  18.271
 9479SOL     OW40315   0.681   3.019  20.402
 9479SOL    HW140316   0.680   2.961  20.479
 9479SOL    HW240317   0.774   3.031  20.382
 9480SOL     OW40318   2.377   0.248  16.318
 9480SOL    HW140319   2.420   0.231  16.234
 9480SOL    HW240320   2.372   0.343  16.324
 9481SOL     OW40321   3.236   1.366  20.315
 9481SOL    HW140322   3.264   1.447  20.357
 9481SOL    HW240323   3.310   1.341  20.259
 9482SOL     OW40324   3.107   3.315  18.230
 9482SOL    HW140325   3.016   3.298  18.252
 9482SOL    HW240326   3.154   3.240  18.266
 9483SOL     OW40327   1.633   4.565   2.726
 9483SOL    HW140328   1.679   4.607   2.654
 9483SOL    HW240329   1.691   4.495   2.756
 9484SOL     OW40330   4.236   3.370  19.341
 9484SOL    HW140331   4.158   3.425  19.352
 9484SOL    HW240332   4.303   3.412  19.394
 9485SOL     OW40333   3.473   4.652   5.832
 9485SOL    HW140334   3.526   4.731   5.832
 9485SOL    HW240335   3.416   4.662   5.909
 9486SOL     OW40336   1.684   1.976   3.126
 9486SOL    HW140337   1.592   1.993   3.106
 9486SOL    HW240338   1.728   1.983   3.041
 9487SOL     OW40339   2.499   0.903  17.049
 9487SOL    HW140340   2.576   0.849  17.062
 9487SOL    HW240341   2.531   0.993  17.057
 9488SOL     OW40342   3.100   4.332  15.575
 9488SOL    HW140343   3.041   4.257  15.580
 9488SOL    HW240344   3.185   4.294  15.554
 9489SOL     OW40345   1.647   3.022   0.028
 9489SOL    HW140346   1.723   3.078   0.040
 9489SOL    HW240347   1.598   3.062  21.233
 9490SOL     OW40348   2.003   4.175   4.668
 9490SOL    HW140349   2.053   4.241   4.715
 9490SOL    HW240350   1.918   4.217   4.650
 9491SOL     OW40351   4.186   1.483  16.735
 9491SOL    HW140352   4.243   1.468  16.810
 9491SOL    HW240353   4.097   1.473  16.770
 9492SOL     OW40354   2.118   4.436  16.027
 9492SOL    HW140355   2.166   4.519  16.030
 9492SOL    HW240356   2.171   4.375  16.079
 9493SOL     OW40357   3.043   4.547  12.789
 9493SOL    HW140358   3.110   4.481  12.770
 9493SOL    HW240359   3.051   4.563  12.883
 9494SOL     OW40360   1.608   0.065  14.462
 9494SOL    HW140361   1.593   0.081  14.369
 9494SOL    HW240362   1.576   0.144  14.505
 9495SOL     OW40363   3.857   2.801  17.808
 9495SOL    HW140364   3.888   2.886  17.839
 9495SOL    HW240365   3.809   2.764  17.882
 9496SOL     OW40366   2.950   1.074   5.710
 9496SOL    HW140367   3.005   1.015   5.659
 9496SOL    HW240368   2.889   1.111   5.646
 9497SOL     OW40369   1.387   3.461  15.540
 9497SOL    HW140370   1.448   3.533  15.549
 9497SOL    HW240371   1.303   3.496  15.571
 9498SOL     OW40372   0.889   3.312  14.504
 9498SOL    HW140373   0.910   3.398  14.539
 9498SOL    HW240374   0.953   3.299  14.434
 9499SOL     OW40375   3.046   0.888  14.531
 9499SOL    HW140376   3.034   0.793  14.531
 9499SOL    HW240377   2.975   0.920  14.587
 9500SOL     OW40378   2.760   0.177   3.897
 9500SOL    HW140379   2.833   0.204   3.953
 9500SOL    HW240380   2.767   0.082   3.892
 9501SOL     OW40381   2.189   1.131  19.296
 9501SOL    HW140382   2.191   1.226  19.281
 9501SOL    HW240383   2.174   1.094  19.209
 9502SOL     OW40384   3.021   2.503  21.193
 9502SOL    HW140385   2.954   2.472  21.132
 9502SOL    HW240386   2.993   2.470   0.002
 9503SOL     OW40387   2.037   0.333  14.440
 9503SOL    HW140388   2.069   0.243  14.431
 9503SOL    HW240389   2.117   0.386  14.438
 9504SOL     OW40390   3.455   2.600  17.669
 9504SOL    HW140391   3.443   2.675  17.727
 9504SOL    HW240392   3.395   2.615  17.596
 9505SOL     OW40393   0.403   2.171   0.771
 9505SOL    HW140394   0.434   2.122   0.695
 9505SOL    HW240395   0.359   2.106   0.826
 9506SOL     OW40396   1.160   0.899   2.824
 9506SOL    HW140397   1.166   0.991   2.800
 9506SOL    HW240398   1.092   0.864   2.766
 9507SOL     OW40399   3.857   1.481   3.853
 9507SOL    HW140400   3.884   1.456   3.942
 9507SOL    HW240401   3.767   1.509   3.862
 9508SOL     OW40402   3.306   2.919  16.590
 9508SOL    HW140403   3.296   2.834  16.547
 9508SOL    HW240404   3.282   2.983  16.523
 9509SOL     OW40405   3.828   3.834   6.281
 9509SOL    HW140406   3.852   3.753   6.235
 9509SOL    HW240407   3.911   3.867   6.314
 9510SOL     OW40408   2.442   2.818  15.753
 9510SOL    HW140409   2.392   2.739  15.776
 9510SOL    HW240410   2.409   2.885  15.812
 9511SOL     OW40411   1.733   4.207   2.335
 9511SOL    HW140412   1.772   4.284   2.295
 9511SOL    HW240413   1.744   4.138   2.269
 9512SOL     OW40414   0.518   1.635   2.751
 9512SOL    HW140415   0.559   1.705   2.801
 9512SOL    HW240416   0.566   1.556   2.776
 9513SOL     OW40417   0.315   0.911  17.533
 9513SOL    HW140418   0.389   0.887  17.589
 9513SOL    HW240419   0.295   0.832  17.484
 9514SOL     OW40420   1.138   2.746   5.828
 9514SOL    HW140421   1.081   2.719   5.756
 9514SOL    HW240422   1.144   2.670   5.885
 9515SOL     OW40423   3.411   2.317  19.231
 9515SOL    HW140424   3.484   2.377  19.211
 9515SOL    HW240425   3.348   2.332  19.160
 9516SOL     OW40426   3.776   0.364  18.668
 9516SOL    HW140427   3.771   0.281  18.715
 9516SOL    HW240428   3.800   0.428  18.735
 9517SOL     OW40429   4.705   4.335   0.281
 9517SOL    HW140430   4.788   4.379   0.299
 9517SOL    HW240431   4.656   4.397   0.227
 9518SOL     OW40432   0.213   2.245  14.290
 9518SOL    HW140433   0.253   2.175  14.342
 9518SOL    HW240434   0.134   2.268  14.338
 9519SOL     OW40435   2.301   3.896   2.379
 9519SOL    HW140436   2.382   3.891   2.429
 9519SOL    HW240437   2.323   3.950   2.303
 9520SOL     OW40438   2.777   2.541  13.018
 9520SOL    HW140439   2.800   2.451  12.994
 9520SOL    HW240440   2.711   2.567  12.953
 9521SOL     OW40441   1.516   3.660   1.300
 9521SOL    HW140442   1.503   3.566   1.315
 9521SOL    HW240443   1.515   3.699   1.388
 9522SOL     OW40444   1.097   2.100   2.510
 9522SOL    HW140445   1.179   2.053   2.492
 9522SOL    HW240446   1.094   2.106   2.606
 9523SOL     OW40447   2.429   2.826  17.818
 9523SOL    HW140448   2.482   2.746  17.823
 9523SOL    HW240449   2.349   2.804  17.867
 9524SOL     OW40450   3.820   1.107   6.441
 9524SOL    HW140451   3.863   1.169   6.381
 9524SOL    HW240452   3.750   1.068   6.387
 9525SOL     OW40453   2.063   4.369   4.429
 9525SOL    HW140454   2.122   4.429   4.475
 9525SOL    HW240455   2.030   4.310   4.496
 9526SOL     OW40456   1.621   1.187   5.922
 9526SOL    HW140457   1.598   1.111   5.869
 9526SOL    HW240458   1.568   1.178   6.001
 9527SOL     OW40459   1.758   0.761   3.267
 9527SOL    HW140460   1.790   0.830   3.325
 9527SOL    HW240461   1.745   0.804   3.182
 9528SOL     OW40462   4.383   1.915   2.526
 9528SOL    HW140463   4.368   2.004   2.494
 9528SOL    HW240464   4.393   1.924   2.620
 9529SOL     OW40465   4.773   2.292   5.750
 9529SOL    HW140466   4.759   2.197   5.747
 9529SOL    HW240467   4.691   2.329   5.718
 9530SOL     OW40468   3.448   0.539  20.180
 9530SOL    HW140469   3.446   0.486  20.259
 9530SOL    HW240470   3.430   0.477  20.109
 9531SOL     OW40471   2.164   3.583   2.517
 9531SOL    HW140472   2.092   3.621   2.566
 9531SOL    HW240473   2.137   3.588   2.426
 9532SOL     OW40474   0.909   1.138   4.833
 9532SOL    HW140475   0.964   1.215   4.820
 9532SOL    HW240476   0.901   1.131   4.928
 9533SOL     OW40477   1.897   4.293  19.062
 9533SOL    HW140478   1.903   4.203  19.031
 9533SOL    HW240479   1.979   4.307  19.109
 9534SOL     OW40480   2.754   3.992   1.408
 9534SOL    HW140481   2.844   4.013   1.381
 9534SOL    HW240482   2.701   4.011   1.330
 9535SOL     OW40483   2.023   3.424   7.469
 9535SOL    HW140484   1.939   3.409   7.512
 9535SOL    HW240485   2.080   3.355   7.505
 9536SOL     OW40486   3.489   4.651   3.005
 9536SOL    HW140487   3.435   4.572   3.005
 9536SOL    HW240488   3.471   4.693   2.921
 9537SOL     OW40489   1.057   4.728   0.842
 9537SOL    HW140490   1.022   0.018   0.873
 9537SOL    HW240491   0.983   4.667   0.850
 9538SOL     OW40492   3.090   1.941   0.538
 9538SOL    HW140493   3.119   1.990   0.460
 9538SOL    HW240494   3.151   1.868   0.544
 9539SOL     OW40495   4.036   2.205   0.830
 9539SOL    HW140496   3.999   2.121   0.806
 9539SOL    HW240497   4.044   2.202   0.926
 9540SOL     OW40498   4.354   4.657   1.877
 9540SOL    HW140499   4.306   4.703   1.947
 9540SOL    HW240500   4.286   4.608   1.831
 9541SOL     OW40501   2.669   1.922  20.773
 9541SOL    HW140502   2.762   1.923  20.798
 9541SOL    HW240503   2.631   1.996  20.819
 9542SOL     OW40504   2.110   2.768  18.602
 9542SOL    HW140505   2.074   2.817  18.676
 9542SOL    HW240506   2.069   2.807  18.525
 9543SOL     OW40507   3.082   4.761   0.958
 9543SOL    HW140508   3.162   0.010   0.988
 9543SOL    HW240509   3.101   4.736   0.867
 9544SOL     OW40510   0.607   3.966  20.698
 9544SOL    HW140511   0.673   3.991  20.763
 9544SOL    HW240512   0.599   3.871  20.707
 9545SOL     OW40513   2.144   1.590  17.295
 9545SOL    HW140514   2.083   1.655  17.262
 9545SOL    HW240515   2.214   1.587  17.230
 9546SOL     OW40516   2.359   4.618   0.808
 9546SOL    HW140517   2.418   4.560   0.857
 9546SOL    HW240518   2.293   4.644   0.872
 9547SOL     OW40519   1.344   3.490  18.882
 9547SOL    HW140520   1.324   3.418  18.942
 9547SOL    HW240521   1.303   3.464  18.800
 9548SOL     OW40522   3.215   2.097   6.629
 9548SOL    HW140523   3.245   2.183   6.600
 9548SOL    HW240524   3.178   2.111   6.716
 9549SOL     OW40525   3.462   1.384   8.216
 9549SOL    HW140526   3.429   1.342   8.296
 9549SOL    HW240527   3.431   1.475   8.223
 9550SOL     OW40528   2.549   3.815  15.124
 9550SOL    HW140529   2.522   3.744  15.183
 9550SOL    HW240530   2.484   3.884  15.138
 9551SOL     OW40531   1.255   2.626  16.062
 9551SOL    HW140532   1.313   2.659  16.130
 9551SOL    HW240533   1.277   2.677  15.984
 9552SOL     OW40534   2.030   0.272  15.582
 9552SOL    HW140535   2.016   0.185  15.546
 9552SOL    HW240536   1.944   0.314  15.577
 9553SOL     OW40537   2.664   4.481   4.499
 9553SOL    HW140538   2.712   4.399   4.506
 9553SOL    HW240539   2.728   4.544   4.467
 9554SOL     OW40540   4.360   4.403  19.642
 9554SOL    HW140541   4.445   4.407  19.599
 9554SOL    HW240542   4.361   4.319  19.689
 9555SOL     OW40543   3.461   2.011   1.705
 9555SOL    HW140544   3.474   1.918   1.690
 9555SOL    HW240545   3.529   2.036   1.767
 9556SOL     OW40546   2.398   2.422  20.973
 9556SOL    HW140547   2.348   2.479  21.031
 9556SOL    HW240548   2.334   2.358  20.940
 9557SOL     OW40549   0.901   0.425  13.840
 9557SOL    HW140550   0.849   0.457  13.767
 9557SOL    HW240551   0.971   0.374  13.799
 9558SOL     OW40552   2.389   2.431   4.025
 9558SOL    HW140553   2.376   2.343   3.989
 9558SOL    HW240554   2.475   2.459   3.993
 9559SOL     OW40555   3.672   2.535   1.517
 9559SOL    HW140556   3.592   2.513   1.564
 9559SOL    HW240557   3.653   2.512   1.426
 9560SOL     OW40558   2.226   4.253  16.763
 9560SOL    HW140559   2.188   4.227  16.679
 9560SOL    HW240560   2.260   4.341  16.747
 9561SOL     OW40561   0.241   3.898  14.176
 9561SOL    HW140562   0.264   3.961  14.245
 9561SOL    HW240563   0.145   3.892  14.180
 9562SOL     OW40564   0.492   3.955  16.929
 9562SOL    HW140565   0.443   3.896  16.870
 9562SOL    HW240566   0.494   3.908  17.012
 9563SOL     OW40567   4.396   3.442   3.170
 9563SOL    HW140568   4.452   3.478   3.102
 9563SOL    HW240569   4.456   3.398   3.230
 9564SOL     OW40570   2.155   1.022  20.258
 9564SOL    HW140571   2.120   0.960  20.323
 9564SOL    HW240572   2.176   1.100  20.308
 9565SOL     OW40573   2.888   0.531   2.193
 9565SOL    HW140574   2.957   0.593   2.219
 9565SOL    HW240575   2.828   0.529   2.267
 9566SOL     OW40576   3.447   2.715   5.642
 9566SOL    HW140577   3.526   2.674   5.676
 9566SOL    HW240578   3.391   2.725   5.718
 9567SOL     OW40579   2.692   3.817  14.582
 9567SOL    HW140580   2.604   3.831  14.617
 9567SOL    HW240581   2.697   3.723  14.566
 9568SOL     OW40582   4.106   4.053   0.886
 9568SOL    HW140583   4.118   4.148   0.888
 9568SOL    HW240584   4.112   4.030   0.794
 9569SOL     OW40585   0.615   2.857  21.095
 9569SOL    HW140586   0.608   2.945  21.057
 9569SOL    HW240587   0.607   2.797  21.021
 9570SOL     OW40588   1.635   0.560  18.522
 9570SOL    HW140589   1.607   0.470  18.510
 9570SOL    HW240590   1.729   0.554  18.541
 9571SOL     OW40591   0.394   2.925   6.926
 9571SOL    HW140592   0.374   3.005   6.878
 9571SOL    HW240593   0.332   2.861   6.892
 9572SOL     OW40594   0.759   4.459   2.663
 9572SOL    HW140595   0.798   4.532   2.710
 9572SOL    HW240596   0.777   4.477   2.571
 9573SOL     OW40597   1.893   0.472   4.237
 9573SOL    HW140598   1.932   0.436   4.157
 9573SOL    HW240599   1.799   0.461   4.224
 9574SOL     OW40600   0.160   3.930  20.173
 9574SOL    HW140601   0.067   3.950  20.178
 9574SOL    HW240602   0.198   4.003  20.124
 9575SOL     OW40603   2.649   0.796   3.688
 9575SOL    HW140604   2.611   0.794   3.776
 9575SOL    HW240605   2.661   0.889   3.669
 9576SOL     OW40606   0.417   3.855   6.896
 9576SOL    HW140607   0.377   3.921   6.953
 9576SOL    HW240608   0.464   3.797   6.956
 9577SOL     OW40609   4.336   0.646  16.879
 9577SOL    HW140610   4.332   0.651  16.975
 9577SOL    HW240611   4.246   0.657  16.850
 9578SOL     OW40612   4.721   1.891   0.799
 9578SOL    HW140613   4.732   1.949   0.874
 9578SOL    HW240614   4.671   1.817   0.833
 9579SOL     OW40615   0.317   0.806  18.396
 9579SOL    HW140616   0.307   0.862  18.319
 9579SOL    HW240617   0.405   0.826  18.429
 9580SOL     OW40618   0.681   1.849   3.217
 9580SOL    HW140619   0.751   1.852   3.282
 9580SOL    HW240620   0.616   1.912   3.248
 9581SOL     OW40621   1.756   3.748   4.713
 9581SOL    HW140622   1.759   3.795   4.796
 9581SOL    HW240623   1.756   3.656   4.737
 9582SOL     OW40624   1.393   0.508   5.244
 9582SOL    HW140625   1.304   0.511   5.279
 9582SOL    HW240626   1.435   0.436   5.291
 9583SOL     OW40627   3.967   2.388   5.838
 9583SOL    HW140628   4.012   2.448   5.897
 9583SOL    HW240629   3.921   2.444   5.775
 9584SOL     OW40630   4.644   2.903   4.343
 9584SOL    HW140631   4.572   2.967   4.340
 9584SOL    HW240632   4.604   2.822   4.310
 9585SOL     OW40633   4.618   0.205  19.491
 9585SOL    HW140634   4.674   0.131  19.517
 9585SOL    HW240635   4.529   0.169  19.493
 9586SOL     OW40636   0.796   2.398  16.587
 9586SOL    HW140637   0.714   2.419  16.631
 9586SOL    HW240638   0.774   2.326  16.528
 9587SOL     OW40639   0.933   3.770   2.700
 9587SOL    HW140640   0.936   3.763   2.605
 9587SOL    HW240641   0.967   3.687   2.732
 9588SOL     OW40642   4.430   4.430  13.430
 9588SOL    HW140643   4.473   4.345  13.417
 9588SOL    HW240644   4.442   4.476  13.347
 9589SOL     OW40645   3.084   3.043   5.659
 9589SOL    HW140646   3.032   3.123   5.671
 9589SOL    HW240647   3.163   3.073   5.612
 9590SOL     OW40648   3.079   2.422  17.163
 9590SOL    HW140649   3.096   2.369  17.084
 9590SOL    HW240650   3.166   2.446  17.195
 9591SOL     OW40651   4.366   3.522  15.886
 9591SOL    HW140652   4.458   3.530  15.910
 9591SOL    HW240653   4.367   3.499  15.793
 9592SOL     OW40654   1.938   0.712   5.346
 9592SOL    HW140655   1.936   0.630   5.296
 9592SOL    HW240656   1.959   0.685   5.435
 9593SOL     OW40657   0.942   2.536  18.973
 9593SOL    HW140658   1.021   2.488  18.998
 9593SOL    HW240659   0.940   2.532  18.878
 9594SOL     OW40660   0.499   0.084   4.528
 9594SOL    HW140661   0.481   0.155   4.467
 9594SOL    HW240662   0.545   0.018   4.476
 9595SOL     OW40663   2.301   1.630  16.713
 9595SOL    HW140664   2.223   1.631  16.659
 9595SOL    HW240665   2.323   1.537  16.723
 9596SOL     OW40666   2.614   1.080  17.961
 9596SOL    HW140667   2.675   1.110  17.894
 9596SOL    HW240668   2.600   1.157  18.016
 9597SOL     OW40669   4.250   3.413  21.003
 9597SOL    HW140670   4.168   3.423  20.956
 9597SOL    HW240671   4.260   3.318  21.014
 9598SOL     OW40672   2.902   3.593   4.578
 9598SOL    HW140673   2.992   3.560   4.571
 9598SOL    HW240674   2.873   3.601   4.487
 9599SOL     OW40675   4.385   2.149  20.212
 9599SOL    HW140676   4.365   2.079  20.275
 9599SOL    HW240677   4.480   2.162  20.220
 9600SOL     OW40678   0.930   4.660   2.787
 9600SOL    HW140679   0.969   4.640   2.872
 9600SOL    HW240680   1.005   4.671   2.728
 9601SOL     OW40681   2.597   1.964   2.415
 9601SOL    HW140682   2.524   1.980   2.355
 9601SOL    HW240683   2.654   2.040   2.405
 9602SOL     OW40684   0.586   3.129   4.990
 9602SOL    HW140685   0.494   3.101   4.989
 9602SOL    HW240686   0.626   3.083   4.916
 9603SOL     OW40687   0.390   3.313   5.790
 9603SOL    HW140688   0.416   3.405   5.790
 9603SOL    HW240689   0.306   3.313   5.742
 9604SOL     OW40690   3.289   1.584   8.226
 9604SOL    HW140691   3.353   1.638   8.273
 9604SOL    HW240692   3.206   1.631   8.238
 9605SOL     OW40693   2.127   3.327  17.059
 9605SOL    HW140694   2.112   3.237  17.087
 9605SOL    HW240695   2.217   3.346  17.084
 9606SOL     OW40696   4.208   4.572  17.614
 9606SOL    HW140697   4.120   4.535  17.622
 9606SOL    HW240698   4.216   4.632  17.688
 9607SOL     OW40699   3.563   3.997  14.774
 9607SOL    HW140700   3.641   3.978  14.825
 9607SOL    HW240701   3.555   4.093  14.777
 9608SOL     OW40702   0.104   4.741   0.270
 9608SOL    HW140703   0.076   0.032   0.237
 9608SOL    HW240704   0.099   4.750   0.366
 9609SOL     OW40705   2.317   3.876  19.701
 9609SOL    HW140706   2.278   3.792  19.675
 9609SOL    HW240707   2.380   3.895  19.631
 9610SOL     OW40708   3.377   0.738  19.478
 9610SOL    HW140709   3.317   0.741  19.404
 9610SOL    HW240710   3.437   0.665  19.458
 9611SOL     OW40711   1.503   3.163   0.391
 9611SOL    HW140712   1.506   3.117   0.474
 9611SOL    HW240713   1.525   3.254   0.412
 9612SOL     OW40714   0.188   3.747   4.900
 9612SOL    HW140715   0.255   3.782   4.960
 9612SOL    HW240716   0.110   3.799   4.918
 9613SOL     OW40717   2.451   1.566   3.337
 9613SOL    HW140718   2.450   1.495   3.273
 9613SOL    HW240719   2.539   1.565   3.373
 9614SOL     OW40720   3.335   1.216   2.603
 9614SOL    HW140721   3.343   1.124   2.577
 9614SOL    HW240722   3.406   1.260   2.557
 9615SOL     OW40723   4.682   0.483  19.034
 9615SOL    HW140724   4.648   0.443  19.114
 9615SOL    HW240725   4.767   0.520  19.060
 9616SOL     OW40726   2.591   4.501  19.194
 9616SOL    HW140727   2.641   4.502  19.276
 9616SOL    HW240728   2.499   4.502  19.222
 9617SOL     OW40729   2.903   2.217  18.911
 9617SOL    HW140730   2.967   2.288  18.906
 9617SOL    HW240731   2.953   2.139  18.886
 9618SOL     OW40732   1.815   3.894   4.298
 9618SOL    HW140733   1.908   3.906   4.279
 9618SOL    HW240734   1.812   3.819   4.357
 9619SOL     OW40735   2.806   0.543   1.929
 9619SOL    HW140736   2.721   0.502   1.918
 9619SOL    HW240737   2.835   0.518   2.016
 9620SOL     OW40738   1.195   0.291   5.657
 9620SOL    HW140739   1.174   0.289   5.564
 9620SOL    HW240740   1.209   0.384   5.676
 9621SOL     OW40741   2.660   1.693  17.035
 9621SOL    HW140742   2.611   1.711  16.955
 9621SOL    HW240743   2.738   1.647  17.005
 9622SOL     OW40744   4.107   1.696   5.744
 9622SOL    HW140745   4.134   1.648   5.823
 9622SOL    HW240746   4.011   1.689   5.744
 9623SOL     OW40747   1.704   2.826  18.603
 9623SOL    HW140748   1.639   2.896  18.615
 9623SOL    HW240749   1.653   2.745  18.603
 9624SOL     OW40750   1.833   0.713   0.533
 9624SOL    HW140751   1.746   0.718   0.572
 9624SOL    HW240752   1.893   0.730   0.606
 9625SOL     OW40753   0.996   2.302   5.758
 9625SOL    HW140754   1.025   2.285   5.847
 9625SOL    HW240755   0.900   2.296   5.763
 9626SOL     OW40756   4.298   0.576   3.066
 9626SOL    HW140757   4.333   0.538   2.985
 9626SOL    HW240758   4.351   0.655   3.079
 9627SOL     OW40759   0.227   4.461  18.966
 9627SOL    HW140760   0.290   4.515  18.918
 9627SOL    HW240761   0.274   4.379  18.983
 9628SOL     OW40762   1.859   0.007   1.547
 9628SOL    HW140763   1.782   0.064   1.543
 9628SOL    HW240764   1.833   4.721   1.503
 9629SOL     OW40765   3.357   2.086   4.371
 9629SOL    HW140766   3.277   2.122   4.409
 9629SOL    HW240767   3.418   2.080   4.444
 9630SOL     OW40768   3.797   4.128  11.754
 9630SOL    HW140769   3.813   4.112  11.847
 9630SOL    HW240770   3.716   4.179  11.752
 9631SOL     OW40771   2.188   4.578  20.103
 9631SOL    HW140772   2.188   4.540  20.015
 9631SOL    HW240773   2.233   4.662  20.093
 9632SOL     OW40774   2.787   0.809  14.108
 9632SOL    HW140775   2.747   0.815  14.195
 9632SOL    HW240776   2.879   0.829  14.122
 9633SOL     OW40777   2.523   4.794   5.377
 9633SOL    HW140778   2.594   0.003   5.313
 9633SOL    HW240779   2.519   4.702   5.405
 9634SOL     OW40780   4.316   2.654   4.508
 9634SOL    HW140781   4.268   2.734   4.491
 9634SOL    HW240782   4.339   2.659   4.601
 9635SOL     OW40783   2.000   1.180  16.574
 9635SOL    HW140784   2.032   1.167  16.485
 9635SOL    HW240785   1.980   1.274  16.579
 9636SOL     OW40786   2.315   0.533  17.550
 9636SOL    HW140787   2.258   0.457  17.558
 9636SOL    HW240788   2.315   0.573  17.636
 9637SOL     OW40789   0.688   1.774   6.190
 9637SOL    HW140790   0.706   1.779   6.097
 9637SOL    HW240791   0.596   1.801   6.199
 9638SOL     OW40792   3.825   2.154  19.087
 9638SOL    HW140793   3.897   2.193  19.037
 9638SOL    HW240794   3.749   2.163  19.030
 9639SOL     OW40795   3.051   4.615   1.931
 9639SOL    HW140796   2.977   4.666   1.964
 9639SOL    HW240797   3.128   4.660   1.968
 9640SOL     OW40798   3.635   0.957  16.260
 9640SOL    HW140799   3.602   1.023  16.322
 9640SOL    HW240800   3.675   0.890  16.316
 9641SOL     OW40801   1.777   1.528   0.911
 9641SOL    HW140802   1.793   1.581   0.834
 9641SOL    HW240803   1.684   1.504   0.906
 9642SOL     OW40804   3.764   0.277  20.992
 9642SOL    HW140805   3.762   0.372  20.999
 9642SOL    HW240806   3.824   0.249  21.061
 9643SOL     OW40807   3.101   0.281  19.005
 9643SOL    HW140808   3.079   0.351  18.944
 9643SOL    HW240809   3.192   0.258  18.983
 9644SOL     OW40810   3.378   3.451  18.079
 9644SOL    HW140811   3.460   3.502  18.074
 9644SOL    HW240812   3.364   3.439  18.173
 9645SOL     OW40813   2.910   2.427   2.844
 9645SOL    HW140814   2.958   2.460   2.920
 9645SOL    HW240815   2.977   2.385   2.789
 9646SOL     OW40816   4.623   4.752  15.071
 9646SOL    HW140817   4.549   4.783  15.019
 9646SOL    HW240818   4.583   4.718  15.152
 9647SOL     OW40819   3.998   1.560  19.172
 9647SOL    HW140820   4.062   1.628  19.154
 9647SOL    HW240821   4.047   1.478  19.161
 9648SOL     OW40822   1.672   2.589   5.143
 9648SOL    HW140823   1.595   2.564   5.194
 9648SOL    HW240824   1.655   2.679   5.117
 9649SOL     OW40825   1.881   4.488  15.560
 9649SOL    HW140826   1.971   4.462  15.580
 9649SOL    HW240827   1.827   4.416  15.594
 9650SOL     OW40828   2.578   4.325   6.316
 9650SOL    HW140829   2.594   4.321   6.222
 9650SOL    HW240830   2.528   4.246   6.336
 9651SOL     OW40831   0.776   2.899  17.764
 9651SOL    HW140832   0.724   2.937  17.693
 9651SOL    HW240833   0.741   2.811  17.774
 9652SOL     OW40834   3.469   1.926   2.971
 9652SOL    HW140835   3.413   1.877   2.911
 9652SOL    HW240836   3.514   1.990   2.916
 9653SOL     OW40837   2.291   2.953   0.607
 9653SOL    HW140838   2.309   3.046   0.591
 9653SOL    HW240839   2.284   2.915   0.519
 9654SOL     OW40840   0.874   1.883  18.623
 9654SOL    HW140841   0.894   1.904  18.714
 9654SOL    HW240842   0.924   1.804  18.605
 9655SOL     OW40843   3.707   3.688   0.957
 9655SOL    HW140844   3.648   3.653   1.023
 9655SOL    HW240845   3.679   3.647   0.875
 9656SOL     OW40846   4.042   0.464   3.079
 9656SOL    HW140847   4.007   0.441   3.165
 9656SOL    HW240848   4.109   0.530   3.097
 9657SOL     OW40849   2.196   2.554  14.283
 9657SOL    HW140850   2.121   2.587  14.333
 9657SOL    HW240851   2.257   2.524  14.349
 9658SOL     OW40852   2.603   0.969   2.255
 9658SOL    HW140853   2.623   1.054   2.214
 9658SOL    HW240854   2.575   0.914   2.181
 9659SOL     OW40855   1.313   0.500  20.455
 9659SOL    HW140856   1.244   0.434  20.462
 9659SOL    HW240857   1.267   0.584  20.458
 9660SOL     OW40858   1.486   2.082   7.214
 9660SOL    HW140859   1.480   2.027   7.292
 9660SOL    HW240860   1.474   2.171   7.246
 9661SOL     OW40861   1.105   0.685  18.398
 9661SOL    HW140862   1.137   0.742  18.468
 9661SOL    HW240863   1.016   0.714  18.381
 9662SOL     OW40864   1.036   2.528  19.554
 9662SOL    HW140865   1.040   2.440  19.591
 9662SOL    HW240866   0.983   2.578  19.617
 9663SOL     OW40867   3.394   0.799   3.477
 9663SOL    HW140868   3.455   0.856   3.429
 9663SOL    HW240869   3.444   0.769   3.553
 9664SOL     OW40870   3.753   1.522   4.581
 9664SOL    HW140871   3.806   1.583   4.530
 9664SOL    HW240872   3.800   1.513   4.664
 9665SOL     OW40873   1.512   4.138  17.475
 9665SOL    HW140874   1.508   4.088  17.556
 9665SOL    HW240875   1.421   4.152  17.450
 9666SOL     OW40876   3.518   3.893   2.358
 9666SOL    HW140877   3.532   3.821   2.296
 9666SOL    HW240878   3.429   3.922   2.341
 9667SOL     OW40879   1.558   3.731   1.580
 9667SOL    HW140880   1.473   3.754   1.619
 9667SOL    HW240881   1.590   3.659   1.634
 9668SOL     OW40882   1.731   2.474   4.082
 9668SOL    HW140883   1.823   2.447   4.080
 9668SOL    HW240884   1.691   2.418   4.149
 9669SOL     OW40885   0.481   4.371  19.081
 9669SOL    HW140886   0.547   4.305  19.102
 9669SOL    HW240887   0.531   4.446  19.051
 9670SOL     OW40888   4.641   1.730   8.281
 9670SOL    HW140889   4.595   1.697   8.204
 9670SOL    HW240890   4.600   1.814   8.299
 9671SOL     OW40891   2.579   3.127  17.577
 9671SOL    HW140892   2.635   3.072  17.632
 9671SOL    HW240893   2.491   3.093  17.589
 9672SOL     OW40894   1.684   1.825   7.140
 9672SOL    HW140895   1.601   1.789   7.108
 9672SOL    HW240896   1.688   1.796   7.231
 9673SOL     OW40897   2.507   2.345  15.590
 9673SOL    HW140898   2.514   2.439  15.609
 9673SOL    HW240899   2.595   2.311  15.606
 9674SOL     OW40900   1.432   4.043   5.027
 9674SOL    HW140901   1.488   4.071   4.955
 9674SOL    HW240902   1.468   4.087   5.105
 9675SOL     OW40903   0.813   4.703   1.875
 9675SOL    HW140904   0.763   4.731   1.798
 9675SOL    HW240905   0.858   4.624   1.847
 9676SOL     OW40906   1.154   1.918  14.277
 9676SOL    HW140907   1.185   1.855  14.342
 9676SOL    HW240908   1.090   1.870  14.225
 9677SOL     OW40909   0.474   2.965   4.531
 9677SOL    HW140910   0.539   2.909   4.490
 9677SOL    HW240911   0.399   2.907   4.546
 9678SOL     OW40912   4.674   2.842  20.716
 9678SOL    HW140913   4.708   2.759  20.749
 9678SOL    HW240914   4.744   2.878  20.662
 9679SOL     OW40915   3.822   2.887   7.402
 9679SOL    HW140916   3.770   2.961   7.433
 9679SOL    HW240917   3.897   2.927   7.358
 9680SOL     OW40918   2.928   3.977  16.704
 9680SOL    HW140919   2.887   4.037  16.767
 9680SOL    HW240920   2.865   3.906  16.694
 9681SOL     OW40921   2.932   2.271  20.429
 9681SOL    HW140922   2.942   2.212  20.504
 9681SOL    HW240923   3.014   2.262  20.380
 9682SOL     OW40924   2.845   2.754   1.367
 9682SOL    HW140925   2.809   2.666   1.378
 9682SOL    HW240926   2.768   2.811   1.365
 9683SOL     OW40927   2.051   0.939   0.618
 9683SOL    HW140928   1.994   0.971   0.688
 9683SOL    HW240929   2.113   0.881   0.663
 9684SOL     OW40930   1.705   4.164  15.991
 9684SOL    HW140931   1.777   4.106  16.013
 9684SOL    HW240932   1.726   4.198  15.905
 9685SOL     OW40933   4.582   0.933   6.504
 9685SOL    HW140934   4.652   0.868   6.504
 9685SOL    HW240935   4.527   0.910   6.429
 9686SOL     OW40936   3.442   3.267   0.639
 9686SOL    HW140937   3.532   3.271   0.606
 9686SOL    HW240938   3.436   3.182   0.681
 9687SOL     OW40939   0.482   3.323  18.497
 9687SOL    HW140940   0.448   3.301  18.584
 9687SOL    HW240941   0.411   3.299  18.438
 9688SOL     OW40942   3.109   1.223   5.925
 9688SOL    HW140943   3.202   1.203   5.918
 9688SOL    HW240944   3.067   1.161   5.864
 9689SOL     OW40945   4.618   1.899  16.030
 9689SOL    HW140946   4.547   1.963  16.031
 9689SOL    HW240947   4.576   1.818  16.003
 9690SOL     OW40948   0.811   1.770  19.998
 9690SOL    HW140949   0.832   1.861  20.017
 9690SOL    HW240950   0.849   1.755  19.911
 9691SOL     OW40951   4.662   1.174   2.514
 9691SOL    HW140952   4.754   1.166   2.489
 9691SOL    HW240953   4.616   1.116   2.454
 9692SOL     OW40954   4.367   2.612  18.638
 9692SOL    HW140955   4.306   2.572  18.701
 9692SOL    HW240956   4.452   2.572  18.659
 9693SOL     OW40957   3.862   1.621   5.837
 9693SOL    HW140958   3.807   1.690   5.872
 9693SOL    HW240959   3.851   1.548   5.898
 9694SOL     OW40960   4.304   0.139  17.063
 9694SOL    HW140961   4.366   0.200  17.024
 9694SOL    HW240962   4.359   0.070  17.102
 9695SOL     OW40963   3.858   2.088  16.800
 9695SOL    HW140964   3.842   2.091  16.705
 9695SOL    HW240965   3.785   2.038  16.835
 9696SOL     OW40966   3.839   1.975   3.107
 9696SOL    HW140967   3.866   2.039   3.041
 9696SOL    HW240968   3.796   1.905   3.057
 9697SOL     OW40969   2.113   3.976  13.400
 9697SOL    HW140970   2.160   4.056  13.423
 9697SOL    HW240971   2.030   3.983  13.447
 9698SOL     OW40972   3.138   3.599   0.419
 9698SOL    HW140973   3.206   3.585   0.352
 9698SOL    HW240974   3.127   3.513   0.459
 9699SOL     OW40975   3.880   3.694   9.353
 9699SOL    HW140976   3.907   3.777   9.392
 9699SOL    HW240977   3.915   3.627   9.413
 9700SOL     OW40978   4.757   4.045  20.873
 9700SOL    HW140979   4.685   4.001  20.828
 9700SOL    HW240980   4.723   4.132  20.894
 9701SOL     OW40981   4.765   3.565  21.151
 9701SOL    HW140982   4.696   3.631  21.139
 9701SOL    HW240983   0.044   3.597  21.098
 9702SOL     OW40984   3.316   0.409   5.161
 9702SOL    HW140985   3.265   0.460   5.224
 9702SOL    HW240986   3.275   0.428   5.076
 9703SOL     OW40987   4.285   2.874  14.195
 9703SOL    HW140988   4.255   2.892  14.284
 9703SOL    HW240989   4.370   2.833  14.205
 9704SOL     OW40990   0.103   0.331  18.657
 9704SOL    HW140991   0.067   0.384  18.586
 9704SOL    HW240992   0.028   0.313  18.714
 9705SOL     OW40993   3.430   1.671   2.613
 9705SOL    HW140994   3.373   1.712   2.676
 9705SOL    HW240995   3.507   1.643   2.663
 9706SOL     OW40996   4.470   4.718  14.201
 9706SOL    HW140997   4.498   4.715  14.109
 9706SOL    HW240998   4.518   4.792  14.238
 9707SOL     OW40999   4.069   0.281   4.833
 9707SOL    HW141000   3.978   0.256   4.815
 9707SOL    HW241001   4.112   0.278   4.748
 9708SOL     OW41002   1.446   4.619   5.237
 9708SOL    HW141003   1.526   4.641   5.188
 9708SOL    HW241004   1.388   4.580   5.172
 9709SOL     OW41005   4.154   3.623   6.309
 9709SOL    HW141006   4.171   3.717   6.321
 9709SOL    HW241007   4.220   3.579   6.362
 9710SOL     OW41008   4.167   4.446  19.983
 9710SOL    HW141009   4.190   4.526  20.030
 9710SOL    HW241010   4.227   4.380  20.018
 9711SOL     OW41011   2.237   3.607   2.819
 9711SOL    HW141012   2.331   3.611   2.838
 9711SOL    HW241013   2.229   3.539   2.752
 9712SOL     OW41014   0.144   0.109  18.483
 9712SOL    HW141015   0.143   0.203  18.501
 9712SOL    HW241016   0.222   0.077  18.529
 9713SOL     OW41017   3.824   1.082   3.903
 9713SOL    HW141018   3.738   1.125   3.902
 9713SOL    HW241019   3.804   0.990   3.886
 9714SOL     OW41020   3.805   0.901   6.907
 9714SOL    HW141021   3.774   0.925   6.820
 9714SOL    HW241022   3.818   0.806   6.903
 9715SOL     OW41023   1.843   0.696  15.991
 9715SOL    HW141024   1.937   0.679  15.993
 9715SOL    HW241025   1.830   0.767  16.055
 9716SOL     OW41026   4.432   1.906  18.028
 9716SOL    HW141027   4.468   1.973  17.970
 9716SOL    HW241028   4.343   1.891  17.995
 9717SOL     OW41029   3.354   0.762   3.988
 9717SOL    HW141030   3.329   0.797   4.073
 9717SOL    HW241031   3.338   0.668   3.995
 9718SOL     OW41032   0.533   3.508  13.916
 9718SOL    HW141033   0.548   3.598  13.945
 9718SOL    HW241034   0.445   3.487  13.948
 9719SOL     OW41035   0.599   0.397  15.966
 9719SOL    HW141036   0.579   0.486  15.938
 9719SOL    HW241037   0.603   0.347  15.885
 9720SOL     OW41038   1.109   3.848  14.619
 9720SOL    HW141039   1.044   3.783  14.592
 9720SOL    HW241040   1.184   3.832  14.562
 9721SOL     OW41041   0.324   0.436   5.419
 9721SOL    HW141042   0.304   0.497   5.348
 9721SOL    HW241043   0.239   0.400   5.444
 9722SOL     OW41044   0.835   1.510   3.839
 9722SOL    HW141045   0.821   1.542   3.750
 9722SOL    HW241046   0.925   1.538   3.860
 9723SOL     OW41047   2.611   2.184   6.428
 9723SOL    HW141048   2.632   2.093   6.406
 9723SOL    HW241049   2.526   2.200   6.386
 9724SOL     OW41050   2.192   1.307   3.066
 9724SOL    HW141051   2.243   1.328   2.987
 9724SOL    HW241052   2.258   1.291   3.133
 9725SOL     OW41053   4.568   3.424   1.884
 9725SOL    HW141054   4.550   3.345   1.935
 9725SOL    HW241055   4.616   3.393   1.807
 9726SOL     OW41056   2.449   2.494  17.303
 9726SOL    HW141057   2.542   2.490  17.327
 9726SOL    HW241058   2.412   2.557  17.364
 9727SOL     OW41059   0.667   2.619  15.715
 9727SOL    HW141060   0.621   2.604  15.798
 9727SOL    HW241061   0.753   2.652  15.740
 9728SOL     OW41062   2.894   0.727  17.418
 9728SOL    HW141063   2.857   0.741  17.506
 9728SOL    HW241064   2.835   0.664  17.377
 9729SOL     OW41065   1.236   3.436  18.644
 9729SOL    HW141066   1.230   3.479  18.558
 9729SOL    HW241067   1.199   3.349  18.629
 9730SOL     OW41068   3.964   4.452   4.012
 9730SOL    HW141069   3.929   4.378   3.962
 9730SOL    HW241070   4.054   4.462   3.980
 9731SOL     OW41071   0.564   3.571   4.853
 9731SOL    HW141072   0.485   3.621   4.831
 9731SOL    HW241073   0.534   3.480   4.855
 9732SOL     OW41074   0.629   2.116   2.041
 9732SOL    HW141075   0.606   2.164   2.120
 9732SOL    HW241076   0.575   2.037   2.044
 9733SOL     OW41077   0.758   2.761   3.004
 9733SOL    HW141078   0.793   2.705   2.935
 9733SOL    HW241079   0.668   2.780   2.977
 9734SOL     OW41080   4.523   1.013   2.335
 9734SOL    HW141081   4.566   0.946   2.281
 9734SOL    HW241082   4.487   1.075   2.271
 9735SOL     OW41083   2.225   0.881  20.973
 9735SOL    HW141084   2.212   0.787  20.963
 9735SOL    HW241085   2.263   0.890  21.061
 9736SOL     OW41086   1.093   2.132   1.426
 9736SOL    HW141087   1.003   2.153   1.449
 9736SOL    HW241088   1.092   2.122   1.331
 9737SOL     OW41089   4.036   1.490  13.726
 9737SOL    HW141090   3.988   1.480  13.808
 9737SOL    HW241091   3.974   1.465  13.658
 9738SOL     OW41092   4.127   1.323   1.367
 9738SOL    HW141093   4.174   1.240   1.375
 9738SOL    HW241094   4.120   1.356   1.457
 9739SOL     OW41095   1.491   0.577  19.376
 9739SOL    HW141096   1.494   0.587  19.280
 9739SOL    HW241097   1.407   0.535  19.393
 9740SOL     OW41098   3.723   1.512  20.043
 9740SOL    HW141099   3.784   1.579  20.012
 9740SOL    HW241100   3.757   1.431  20.007
 9741SOL     OW41101   2.624   0.670  19.512
 9741SOL    HW141102   2.542   0.697  19.554
 9741SOL    HW241103   2.621   0.574  19.513
 9742SOL     OW41104   3.016   4.023   1.314
 9742SOL    HW141105   2.993   4.003   1.223
 9742SOL    HW241106   3.111   4.028   1.314
 9743SOL     OW41107   2.590   1.807   5.671
 9743SOL    HW141108   2.621   1.897   5.670
 9743SOL    HW241109   2.664   1.756   5.704
 9744SOL     OW41110   0.962   1.115  13.850
 9744SOL    HW141111   0.916   1.192  13.818
 9744SOL    HW241112   0.952   1.117  13.945
 9745SOL     OW41113   3.679   4.586   6.224
 9745SOL    HW141114   3.689   4.580   6.319
 9745SOL    HW241115   3.599   4.539   6.205
 9746SOL     OW41116   0.973   3.086  18.685
 9746SOL    HW141117   1.001   3.134  18.763
 9746SOL    HW241118   0.877   3.091  18.687
 9747SOL     OW41119   2.205   4.164   7.987
 9747SOL    HW141120   2.259   4.171   8.067
 9747SOL    HW241121   2.188   4.254   7.961
 9748SOL     OW41122   4.158   3.241   4.421
 9748SOL    HW141123   4.210   3.210   4.495
 9748SOL    HW241124   4.219   3.294   4.369
 9749SOL     OW41125   4.210   4.304   0.129
 9749SOL    HW141126   4.172   4.386   0.161
 9749SOL    HW241127   4.156   4.279   0.055
 9750SOL     OW41128   2.277   3.865   3.191
 9750SOL    HW141129   2.191   3.894   3.221
 9750SOL    HW241130   2.286   3.776   3.226
 9751SOL     OW41131   2.367   2.218  20.122
 9751SOL    HW141132   2.282   2.180  20.103
 9751SOL    HW241133   2.374   2.216  20.217
 9752SOL     OW41134   0.953   2.935   1.691
 9752SOL    HW141135   0.904   3.016   1.702
 9752SOL    HW241136   1.034   2.961   1.647
 9753SOL     OW41137   2.795   1.680   9.696
 9753SOL    HW141138   2.819   1.645   9.781
 9753SOL    HW241139   2.847   1.630   9.634
 9754SOL     OW41140   1.131   0.681   6.196
 9754SOL    HW141141   1.122   0.665   6.290
 9754SOL    HW241142   1.042   0.674   6.163
 9755SOL     OW41143   0.824   3.341   2.286
 9755SOL    HW141144   0.869   3.420   2.315
 9755SOL    HW241145   0.734   3.351   2.317
 9756SOL     OW41146   2.415   2.857   6.658
 9756SOL    HW141147   2.458   2.893   6.736
 9756SOL    HW241148   2.472   2.785   6.631
 9757SOL     OW41149   4.778   1.873   6.332
 9757SOL    HW141150   4.763   1.780   6.314
 9757SOL    HW241151   4.691   1.906   6.355
 9758SOL     OW41152   0.708   3.370  19.448
 9758SOL    HW141153   0.716   3.416  19.365
 9758SOL    HW241154   0.783   3.311  19.451
 9759SOL     OW41155   1.403   1.888   5.871
 9759SOL    HW141156   1.357   1.816   5.915
 9759SOL    HW241157   1.495   1.876   5.894
 9760SOL     OW41158   3.180   0.378   3.219
 9760SOL    HW141159   3.234   0.447   3.179
 9760SOL    HW241160   3.221   0.296   3.189
 9761SOL     OW41161   0.509   0.037  13.809
 9761SOL    HW141162   0.526   4.741  13.779
 9761SOL    HW241163   0.595   0.069  13.836
 9762SOL     OW41164   1.103   1.167   1.709
 9762SOL    HW141165   1.095   1.245   1.764
 9762SOL    HW241166   1.197   1.149   1.706
 9763SOL     OW41167   0.048   3.124   3.800
 9763SOL    HW141168   4.775   3.193   3.803
 9763SOL    HW241169   0.035   3.082   3.715
 9764SOL     OW41170   4.722   0.953   4.739
 9764SOL    HW141171   4.728   1.012   4.813
 9764SOL    HW241172   4.665   0.882   4.769
 9765SOL     OW41173   3.319   1.199  16.158
 9765SOL    HW141174   3.230   1.216  16.191
 9765SOL    HW241175   3.308   1.182  16.065
 9766SOL     OW41176   1.585   2.239   0.960
 9766SOL    HW141177   1.635   2.188   0.897
 9766SOL    HW241178   1.506   2.187   0.975
 9767SOL     OW41179   4.715   3.885   3.921
 9767SOL    HW141180   4.782   3.913   3.983
 9767SOL    HW241181   4.712   3.789   3.930
 9768SOL     OW41182   1.465   3.514  14.979
 9768SOL    HW141183   1.373   3.489  14.983
 9768SOL    HW241184   1.510   3.436  14.946
 9769SOL     OW41185   1.576   0.994   1.259
 9769SOL    HW141186   1.619   0.908   1.252
 9769SOL    HW241187   1.566   1.023   1.168
 9770SOL     OW41188   4.375   1.790   6.161
 9770SOL    HW141189   4.292   1.827   6.133
 9770SOL    HW241190   4.412   1.857   6.220
 9771SOL     OW41191   3.317   0.346  19.982
 9771SOL    HW141192   3.241   0.288  19.981
 9771SOL    HW241193   3.287   0.425  19.936
 9772SOL     OW41194   1.275   3.913   7.892
 9772SOL    HW141195   1.181   3.899   7.880
 9772SOL    HW241196   1.287   3.920   7.987
 9773SOL     OW41197   1.885   0.835  18.474
 9773SOL    HW141198   1.852   0.898  18.410
 9773SOL    HW241199   1.927   0.888  18.541
 9774SOL     OW41200   0.802   4.235  16.075
 9774SOL    HW141201   0.892   4.228  16.108
 9774SOL    HW241202   0.782   4.149  16.040
 9775SOL     OW41203   4.478   4.288  19.230
 9775SOL    HW141204   4.534   4.340  19.172
 9775SOL    HW241205   4.410   4.349  19.258
 9776SOL     OW41206   2.280   2.984   2.220
 9776SOL    HW141207   2.222   3.055   2.195
 9776SOL    HW241208   2.255   2.911   2.163
 9777SOL     OW41209   2.478   1.132  20.916
 9777SOL    HW141210   2.394   1.171  20.941
 9777SOL    HW241211   2.467   1.038  20.935
 9778SOL     OW41212   3.826   1.192   7.393
 9778SOL    HW141213   3.741   1.158   7.421
 9778SOL    HW241214   3.845   1.146   7.312
 9779SOL     OW41215   4.383   3.038   2.561
 9779SOL    HW141216   4.423   3.118   2.596
 9779SOL    HW241217   4.289   3.053   2.569
 9780SOL     OW41218   0.390   0.324  11.256
 9780SOL    HW141219   0.380   0.348  11.164
 9780SOL    HW241220   0.302   0.302  11.285
 9781SOL     OW41221   2.418   2.572   2.439
 9781SOL    HW141222   2.445   2.606   2.353
 9781SOL    HW241223   2.454   2.634   2.502
 9782SOL     OW41224   1.140   3.703  18.973
 9782SOL    HW141225   1.113   3.783  18.928
 9782SOL    HW241226   1.228   3.684  18.940
 9783SOL     OW41227   2.606   3.586  17.127
 9783SOL    HW141228   2.619   3.529  17.203
 9783SOL    HW241229   2.663   3.661  17.144
 9784SOL     OW41230   0.528   4.147   1.790
 9784SOL    HW141231   0.433   4.139   1.793
 9784SOL    HW241232   0.544   4.231   1.748
 9785SOL     OW41233   4.274   0.687  19.809
 9785SOL    HW141234   4.240   0.614  19.860
 9785SOL    HW241235   4.242   0.671  19.720
 9786SOL     OW41236   4.454   1.306  14.899
 9786SOL    HW141237   4.373   1.307  14.950
 9786SOL    HW241238   4.484   1.397  14.901
 9787SOL     OW41239   3.409   4.131   5.282
 9787SOL    HW141240   3.381   4.222   5.276
 9787SOL    HW241241   3.377   4.091   5.201
 9788SOL     OW41242   3.900   4.628   5.286
 9788SOL    HW141243   3.869   4.717   5.302
 9788SOL    HW241244   3.898   4.586   5.372
 9789SOL     OW41245   1.194   0.229  17.925
 9789SOL    HW141246   1.225   0.287  17.856
 9789SOL    HW241247   1.274   0.194  17.965
 9790SOL     OW41248   2.055   2.799  16.980
 9790SOL    HW141249   2.098   2.714  16.981
 9790SOL    HW241250   2.032   2.816  17.071
 9791SOL     OW41251   4.005   4.413  20.610
 9791SOL    HW141252   3.943   4.342  20.590
 9791SOL    HW241253   3.982   4.482  20.548
 9792SOL     OW41254   1.153   0.232  19.643
 9792SOL    HW141255   1.157   0.150  19.691
 9792SOL    HW241256   1.064   0.264  19.657
 9793SOL     OW41257   4.277   2.953  19.027
 9793SOL    HW141258   4.249   3.014  19.094
 9793SOL    HW241259   4.247   2.991  18.945
 9794SOL     OW41260   3.473   2.086   5.690
 9794SOL    HW141261   3.454   2.055   5.602
 9794SOL    HW241262   3.422   2.166   5.699
 9795SOL     OW41263   1.676   4.090  19.823
 9795SOL    HW141264   1.696   4.070  19.914
 9795SOL    HW241265   1.672   4.005  19.780
 9796SOL     OW41266   0.996   1.116  17.963
 9796SOL    HW141267   0.950   1.084  17.885
 9796SOL    HW241268   1.072   1.163  17.928
 9797SOL     OW41269   0.683   4.630  16.100
 9797SOL    HW141270   0.592   4.656  16.091
 9797SOL    HW241271   0.699   4.568  16.030
 9798SOL     OW41272   3.970   2.505   4.534
 9798SOL    HW141273   3.989   2.598   4.545
 9798SOL    HW241274   3.884   2.493   4.575
 9799SOL     OW41275   2.701   0.451   1.546
 9799SOL    HW141276   2.762   0.379   1.563
 9799SOL    HW241277   2.637   0.446   1.617
 9800SOL     OW41278   0.309   0.565   2.584
 9800SOL    HW141279   0.273   0.604   2.504
 9800SOL    HW241280   0.336   0.640   2.637
 9801SOL     OW41281   3.332   1.216   1.450
 9801SOL    HW141282   3.382   1.139   1.473
 9801SOL    HW241283   3.393   1.289   1.462
 9802SOL     OW41284   2.300   2.469   8.899
 9802SOL    HW141285   2.280   2.510   8.815
 9802SOL    HW241286   2.238   2.508   8.961
 9803SOL     OW41287   2.214   2.121  16.557
 9803SOL    HW141288   2.145   2.089  16.615
 9803SOL    HW241289   2.208   2.065  16.479
 9804SOL     OW41290   2.608   1.454   4.266
 9804SOL    HW141291   2.513   1.442   4.263
 9804SOL    HW241292   2.627   1.468   4.359
 9805SOL     OW41293   4.486   0.414  20.122
 9805SOL    HW141294   4.521   0.500  20.102
 9805SOL    HW241295   4.545   0.353  20.078
 9806SOL     OW41296   4.092   0.780  17.001
 9806SOL    HW141297   4.108   0.762  16.909
 9806SOL    HW241298   4.095   0.694  17.044
 9807SOL     OW41299   1.548   0.636   4.529
 9807SOL    HW141300   1.489   0.613   4.600
 9807SOL    HW241301   1.537   0.731   4.518
 9808SOL     OW41302   2.783   3.616  15.436
 9808SOL    HW141303   2.774   3.582  15.525
 9808SOL    HW241304   2.875   3.603  15.414
 9809SOL     OW41305   2.549   0.948   8.674
 9809SOL    HW141306   2.453   0.950   8.680
 9809SOL    HW241307   2.567   0.974   8.584
 9810SOL     OW41308   4.568   1.387  17.060
 9810SOL    HW141309   4.594   1.330  17.132
 9810SOL    HW241310   4.616   1.468  17.075
 9811SOL     OW41311   3.649   3.418  14.368
 9811SOL    HW141312   3.606   3.339  14.335
 9811SOL    HW241313   3.582   3.460  14.422
 9812SOL     OW41314   4.257   4.365  13.638
 9812SOL    HW141315   4.309   4.394  13.563
 9812SOL    HW241316   4.189   4.433  13.648
 9813SOL     OW41317   4.351   4.073  15.529
 9813SOL    HW141318   4.431   4.060  15.478
 9813SOL    HW241319   4.320   4.160  15.503
 9814SOL     OW41320   2.983   0.180   5.958
 9814SOL    HW141321   3.038   0.143   5.888
 9814SOL    HW241322   2.975   0.110   6.022
 9815SOL     OW41323   2.400   0.938  21.195
 9815SOL    HW141324   2.467   0.937  21.263
 9815SOL    HW241325   2.336   1.002  21.226
 9816SOL     OW41326   2.903   2.411  18.609
 9816SOL    HW141327   2.911   2.318  18.633
 9816SOL    HW241328   2.887   2.455  18.692
 9817SOL     OW41329   3.704   0.509  15.649
 9817SOL    HW141330   3.797   0.530  15.653
 9817SOL    HW241331   3.702   0.413  15.647
 9818SOL     OW41332   3.397   0.131  12.800
 9818SOL    HW141333   3.339   0.055  12.808
 9818SOL    HW241334   3.338   0.205  12.784
 9819SOL     OW41335   3.608   2.391  17.620
 9819SOL    HW141336   3.685   2.427  17.577
 9819SOL    HW241337   3.548   2.466  17.627
 9820SOL     OW41338   0.067   0.181   5.718
 9820SOL    HW141339   0.042   0.100   5.763
 9820SOL    HW241340   0.114   0.150   5.640
 9821SOL     OW41341   1.002   1.415   2.397
 9821SOL    HW141342   0.979   1.402   2.489
 9821SOL    HW241343   1.084   1.367   2.386
 9822SOL     OW41344   2.453   0.360  19.138
 9822SOL    HW141345   2.529   0.312  19.171
 9822SOL    HW241346   2.435   0.322  19.052
 9823SOL     OW41347   4.348   1.493   1.553
 9823SOL    HW141348   4.393   1.571   1.584
 9823SOL    HW241349   4.382   1.479   1.465
 9824SOL     OW41350   0.333   1.087   0.377
 9824SOL    HW141351   0.311   1.032   0.303
 9824SOL    HW241352   0.301   1.174   0.353
 9825SOL     OW41353   0.554   4.765   2.948
 9825SOL    HW141354   0.548   4.680   2.905
 9825SOL    HW241355   0.510   4.753   3.032
 9826SOL     OW41356   2.735   1.630   1.090
 9826SOL    HW141357   2.647   1.591   1.086
 9826SOL    HW241358   2.766   1.629   1.000
 9827SOL     OW41359   1.983   3.907   1.223
 9827SOL    HW141360   2.045   3.884   1.293
 9827SOL    HW241361   1.989   4.002   1.215
 9828SOL     OW41362   3.339   1.452   0.630
 9828SOL    HW141363   3.432   1.474   0.638
 9828SOL    HW241364   3.316   1.414   0.715
 9829SOL     OW41365   3.653   4.335  13.878
 9829SOL    HW141366   3.722   4.385  13.922
 9829SOL    HW241367   3.598   4.402  13.838
 9830SOL     OW41368   1.106   0.957  15.721
 9830SOL    HW141369   1.081   0.883  15.667
 9830SOL    HW241370   1.047   0.953  15.796
 9831SOL     OW41371   2.077   1.841   2.670
 9831SOL    HW141372   2.061   1.889   2.752
 9831SOL    HW241373   2.108   1.755   2.698
 9832SOL     OW41374   2.501   1.781  18.184
 9832SOL    HW141375   2.532   1.837  18.255
 9832SOL    HW241376   2.462   1.706  18.227
 9833SOL     OW41377   3.548   0.359   4.704
 9833SOL    HW141378   3.507   0.373   4.618
 9833SOL    HW241379   3.529   0.438   4.753
 9834SOL     OW41380   2.740   0.536  17.321
 9834SOL    HW141381   2.677   0.529  17.249
 9834SOL    HW241382   2.699   0.490  17.394
 9835SOL     OW41383   1.837   1.291   1.586
 9835SOL    HW141384   1.763   1.235   1.561
 9835SOL    HW241385   1.864   1.257   1.672
 9836SOL     OW41386   0.351   1.498   3.742
 9836SOL    HW141387   0.395   1.472   3.662
 9836SOL    HW241388   0.358   1.422   3.799
 9837SOL     OW41389   1.207   1.440  19.911
 9837SOL    HW141390   1.204   1.507  19.979
 9837SOL    HW241391   1.126   1.390  19.922
 9838SOL     OW41392   1.786   3.233   3.694
 9838SOL    HW141393   1.775   3.227   3.599
 9838SOL    HW241394   1.856   3.172   3.714
 9839SOL     OW41395   1.270   3.008  12.544
 9839SOL    HW141396   1.310   2.924  12.525
 9839SOL    HW241397   1.336   3.056  12.594
 9840SOL     OW41398   0.674   0.196   1.880
 9840SOL    HW141399   0.705   0.200   1.790
 9840SOL    HW241400   0.717   0.119   1.918
 9841SOL     OW41401   2.394   2.157   3.934
 9841SOL    HW141402   2.442   2.086   3.976
 9841SOL    HW241403   2.330   2.113   3.879
 9842SOL     OW41404   0.146   0.238  19.249
 9842SOL    HW141405   0.132   0.256  19.342
 9842SOL    HW241406   0.082   0.171  19.227
 9843SOL     OW41407   1.165   1.287   6.454
 9843SOL    HW141408   1.169   1.279   6.359
 9843SOL    HW241409   1.170   1.381   6.471
 9844SOL     OW41410   1.128   1.499  21.179
 9844SOL    HW141411   1.035   1.501  21.203
 9844SOL    HW241412   1.171   1.551  21.247
 9845SOL     OW41413   0.185   1.143  20.148
 9845SOL    HW141414   0.129   1.159  20.224
 9845SOL    HW241415   0.230   1.061  20.168
 9846SOL     OW41416   3.057   2.131   3.300
 9846SOL    HW141417   3.054   2.092   3.387
 9846SOL    HW241418   3.120   2.202   3.308
 9847SOL     OW41419   2.584   3.748   4.243
 9847SOL    HW141420   2.495   3.780   4.237
 9847SOL    HW241421   2.637   3.813   4.197
 9848SOL     OW41422   2.883   3.873   4.934
 9848SOL    HW141423   2.833   3.875   4.852
 9848SOL    HW241424   2.847   3.800   4.983
 9849SOL     OW41425   3.672   3.585  13.877
 9849SOL    HW141426   3.741   3.541  13.926
 9849SOL    HW241427   3.688   3.679  13.891
 9850SOL     OW41428   4.786   3.182  18.930
 9850SOL    HW141429   4.719   3.146  18.872
 9850SOL    HW241430   0.015   3.110  18.988
 9851SOL     OW41431   3.491   2.988  17.694
 9851SOL    HW141432   3.504   2.909  17.746
 9851SOL    HW241433   3.397   3.005  17.699
 9852SOL     OW41434   3.409   4.353   5.611
 9852SOL    HW141435   3.417   4.257   5.613
 9852SOL    HW241436   3.475   4.383   5.673
 9853SOL     OW41437   2.271   0.564   5.250
 9853SOL    HW141438   2.347   0.555   5.192
 9853SOL    HW241439   2.308   0.573   5.337
 9854SOL     OW41440   3.050   2.985  18.894
 9854SOL    HW141441   3.044   3.075  18.926
 9854SOL    HW241442   2.982   2.979  18.827
 9855SOL     OW41443   2.485   2.556   5.555
 9855SOL    HW141444   2.574   2.543   5.523
 9855SOL    HW241445   2.492   2.630   5.616
 9856SOL     OW41446   4.413   0.705   5.397
 9856SOL    HW141447   4.488   0.665   5.440
 9856SOL    HW241448   4.371   0.633   5.349
 9857SOL     OW41449   0.423   3.640   5.204
 9857SOL    HW141450   0.439   3.553   5.169
 9857SOL    HW241451   0.328   3.645   5.213
 9858SOL     OW41452   1.848   4.106   6.784
 9858SOL    HW141453   1.890   4.184   6.820
 9858SOL    HW241454   1.844   4.123   6.689
 9859SOL     OW41455   0.311   2.321   3.453
 9859SOL    HW141456   0.224   2.321   3.494
 9859SOL    HW241457   0.330   2.229   3.436
 9860SOL     OW41458   1.196   0.899   3.543
 9860SOL    HW141459   1.144   0.914   3.464
 9860SOL    HW241460   1.285   0.885   3.511
 9861SOL     OW41461   0.800   2.241  19.485
 9861SOL    HW141462   0.880   2.190  19.499
 9861SOL    HW241463   0.822   2.301  19.415
 9862SOL     OW41464   4.716   3.859  13.942
 9862SOL    HW141465   4.734   3.899  13.857
 9862SOL    HW241466   4.623   3.833  13.937
 9863SOL     OW41467   1.382   0.264  16.891
 9863SOL    HW141468   1.289   0.285  16.894
 9863SOL    HW241469   1.425   0.344  16.862
 9864SOL     OW41470   4.551   2.705   2.988
 9864SOL    HW141471   4.606   2.754   3.049
 9864SOL    HW241472   4.536   2.621   3.031
 9865SOL     OW41473   3.707   0.812  15.189
 9865SOL    HW141474   3.724   0.762  15.269
 9865SOL    HW241475   3.794   0.833  15.155
 9866SOL     OW41476   0.116   0.360  19.547
 9866SOL    HW141477   0.085   0.329  19.632
 9866SOL    HW241478   0.202   0.397  19.565
 9867SOL     OW41479   0.440   4.604   1.819
 9867SOL    HW141480   0.499   4.614   1.894
 9867SOL    HW241481   0.494   4.623   1.743
 9868SOL     OW41482   1.885   0.712  16.704
 9868SOL    HW141483   1.972   0.718  16.664
 9868SOL    HW241484   1.902   0.685  16.794
 9869SOL     OW41485   4.330   0.418   2.044
 9869SOL    HW141486   4.343   0.392   1.953
 9869SOL    HW241487   4.308   0.511   2.039
 9870SOL     OW41488   2.612   2.692  20.594
 9870SOL    HW141489   2.613   2.654  20.682
 9870SOL    HW241490   2.527   2.668  20.558
 9871SOL     OW41491   0.361   0.377  15.801
 9871SOL    HW141492   0.334   0.458  15.758
 9871SOL    HW241493   0.432   0.344  15.747
 9872SOL     OW41494   0.707   1.570  18.017
 9872SOL    HW141495   0.790   1.610  17.989
 9872SOL    HW241496   0.730   1.518  18.093
 9873SOL     OW41497   2.621   0.488   3.293
 9873SOL    HW141498   2.617   0.567   3.347
 9873SOL    HW241499   2.530   0.457   3.289
 9874SOL     OW41500   2.797   3.026   6.708
 9874SOL    HW141501   2.722   3.003   6.762
 9874SOL    HW241502   2.859   3.068   6.768
 9875SOL     OW41503   0.769   2.265   1.663
 9875SOL    HW141504   0.814   2.184   1.687
 9875SOL    HW241505   0.680   2.237   1.641
 9876SOL     OW41506   1.202   0.675   6.915
 9876SOL    HW141507   1.118   0.683   6.959
 9876SOL    HW241508   1.223   0.763   6.886
 9877SOL     OW41509   3.489   4.684  16.926
 9877SOL    HW141510   3.561   4.624  16.907
 9877SOL    HW241511   3.476   4.732  16.845
 9878SOL     OW41512   3.557   4.481   3.863
 9878SOL    HW141513   3.601   4.543   3.921
 9878SOL    HW241514   3.493   4.534   3.816
 9879SOL     OW41515   4.172   3.918   0.099
 9879SOL    HW141516   4.088   3.926   0.053
 9879SOL    HW241517   4.235   3.960   0.041
 9880SOL     OW41518   3.780   1.507  18.992
 9880SOL    HW141519   3.759   1.415  19.011
 9880SOL    HW241520   3.825   1.538  19.070
 9881SOL     OW41521   4.442   0.574  15.008
 9881SOL    HW141522   4.371   0.509  15.009
 9881SOL    HW241523   4.480   0.566  14.921
 9882SOL     OW41524   4.134   1.588   3.286
 9882SOL    HW141525   4.164   1.518   3.228
 9882SOL    HW241526   4.038   1.586   3.277
 9883SOL     OW41527   4.643   3.425   3.324
 9883SOL    HW141528   4.669   3.514   3.298
 9883SOL    HW241529   4.678   3.369   3.255
 9884SOL     OW41530   1.261   4.211  17.409
 9884SOL    HW141531   1.167   4.205  17.424
 9884SOL    HW241532   1.282   4.303  17.424
 9885SOL     OW41533   3.698   1.282   5.296
 9885SOL    HW141534   3.644   1.306   5.221
 9885SOL    HW241535   3.695   1.187   5.299
 9886SOL     OW41536   1.242   4.593   0.484
 9886SOL    HW141537   1.214   4.612   0.394
 9886SOL    HW241538   1.266   4.501   0.482
 9887SOL     OW41539   1.627   0.762  21.093
 9887SOL    HW141540   1.717   0.731  21.103
 9887SOL    HW241541   1.637   0.850  21.056
 9888SOL     OW41542   2.774   0.010  18.934
 9888SOL    HW141543   2.705   0.074  18.916
 9888SOL    HW241544   2.830   0.012  18.856
 9889SOL     OW41545   2.791   2.183   2.758
 9889SOL    HW141546   2.787   2.137   2.842
 9889SOL    HW241547   2.824   2.270   2.780
 9890SOL     OW41548   3.124   0.834   2.458
 9890SOL    HW141549   3.094   0.764   2.516
 9890SOL    HW241550   3.049   0.854   2.403
 9891SOL     OW41551   2.673   3.023  15.401
 9891SOL    HW141552   2.757   3.036  15.358
 9891SOL    HW241553   2.684   2.942  15.451
 9892SOL     OW41554   0.387   0.186  15.101
 9892SOL    HW141555   0.468   0.225  15.068
 9892SOL    HW241556   0.415   0.126  15.169
 9893SOL     OW41557   2.778   0.643  15.307
 9893SOL    HW141558   2.845   0.615  15.370
 9893SOL    HW241559   2.737   0.561  15.279
 9894SOL     OW41560   0.259   2.927   2.884
 9894SOL    HW141561   0.336   2.874   2.863
 9894SOL    HW241562   0.185   2.868   2.871
 9895SOL     OW41563   2.295   1.308  21.080
 9895SOL    HW141564   2.285   1.399  21.109
 9895SOL    HW241565   2.276   1.256  21.158
 9896SOL     OW41566   2.652   2.712  19.639
 9896SOL    HW141567   2.715   2.684  19.706
 9896SOL    HW241568   2.593   2.772  19.685
 9897SOL     OW41569   1.352   4.348  15.452
 9897SOL    HW141570   1.304   4.266  15.465
 9897SOL    HW241571   1.397   4.363  15.535
 9898SOL     OW41572   2.914   2.097  16.832
 9898SOL    HW141573   2.944   2.072  16.919
 9898SOL    HW241574   2.889   2.189  16.842
 9899SOL     OW41575   1.866   4.486  15.934
 9899SOL    HW141576   1.956   4.488  15.966
 9899SOL    HW241577   1.848   4.577  15.908
 9900SOL     OW41578   3.100   1.709  20.656
 9900SOL    HW141579   3.038   1.759  20.710
 9900SOL    HW241580   3.184   1.752  20.669
 9901SOL     OW41581   4.184   2.541  15.069
 9901SOL    HW141582   4.113   2.571  15.126
 9901SOL    HW241583   4.194   2.611  15.004
 9902SOL     OW41584   0.586   3.881  15.004
 9902SOL    HW141585   0.574   3.872  14.909
 9902SOL    HW241586   0.529   3.815  15.042
 9903SOL     OW41587   2.417   4.158  12.985
 9903SOL    HW141588   2.352   4.212  13.030
 9903SOL    HW241589   2.388   4.068  13.001
 9904SOL     OW41590   2.497   2.265   3.054
 9904SOL    HW141591   2.542   2.303   3.129
 9904SOL    HW241592   2.562   2.208   3.012
 9905SOL     OW41593   0.623   3.555   4.523
 9905SOL    HW141594   0.592   3.539   4.612
 9905SOL    HW241595   0.611   3.649   4.510
 9906SOL     OW41596   0.624   0.191  19.897
 9906SOL    HW141597   0.614   0.098  19.916
 9906SOL    HW241598   0.714   0.200  19.866
 9907SOL     OW41599   2.934   3.257   5.719
 9907SOL    HW141600   2.846   3.235   5.689
 9907SOL    HW241601   2.923   3.339   5.767
 9908SOL     OW41602   3.730   1.720   1.584
 9908SOL    HW141603   3.666   1.729   1.654
 9908SOL    HW241604   3.727   1.627   1.562
 9909SOL     OW41605   3.664   3.263   6.952
 9909SOL    HW141606   3.757   3.240   6.950
 9909SOL    HW241607   3.653   3.315   7.031
 9910SOL     OW41608   2.734   3.425  14.976
 9910SOL    HW141609   2.740   3.516  14.947
 9910SOL    HW241610   2.751   3.428  15.070
 9911SOL     OW41611   4.016   2.599   3.424
 9911SOL    HW141612   3.966   2.666   3.377
 9911SOL    HW241613   3.994   2.614   3.516
 9912SOL     OW41614   1.032   2.320   2.956
 9912SOL    HW141615   1.036   2.404   3.002
 9912SOL    HW241616   0.939   2.301   2.948
 9913SOL     OW41617   4.695   1.231   1.720
 9913SOL    HW141618   4.694   1.327   1.720
 9913SOL    HW241619   4.767   1.208   1.779
 9914SOL     OW41620   4.158   0.602   6.059
 9914SOL    HW141621   4.178   0.509   6.051
 9914SOL    HW241622   4.093   0.619   5.990
 9915SOL     OW41623   3.672   0.425   5.007
 9915SOL    HW141624   3.607   0.399   5.072
 9915SOL    HW241625   3.621   0.457   4.932
 9916SOL     OW41626   1.012   2.867   0.832
 9916SOL    HW141627   0.941   2.822   0.878
 9916SOL    HW241628   0.971   2.945   0.796
 9917SOL     OW41629   4.285   0.297  14.152
 9917SOL    HW141630   4.199   0.258  14.167
 9917SOL    HW241631   4.339   0.265  14.225
 9918SOL     OW41632   4.151   0.413  17.482
 9918SOL    HW141633   4.222   0.380  17.427
 9918SOL    HW241634   4.079   0.429  17.421
 9919SOL     OW41635   1.995   4.558   7.017
 9919SOL    HW141636   1.963   4.549   7.107
 9919SOL    HW241637   2.032   4.646   7.014
 9920SOL     OW41638   2.654   2.278  18.785
 9920SOL    HW141639   2.737   2.257  18.827
 9920SOL    HW241640   2.658   2.373  18.770
 9921SOL     OW41641   0.550   2.087  13.081
 9921SOL    HW141642   0.600   2.137  13.017
 9921SOL    HW241643   0.550   1.997  13.046
 9922SOL     OW41644   0.573   0.955   1.898
 9922SOL    HW141645   0.651   0.941   1.844
 9922SOL    HW241646   0.500   0.936   1.840
 9923SOL     OW41647   1.292   0.411   0.428
 9923SOL    HW141648   1.273   0.483   0.368
 9923SOL    HW241649   1.350   0.353   0.378
 9924SOL     OW41650   3.348   2.555  17.309
 9924SOL    HW141651   3.443   2.543  17.299
 9924SOL    HW241652   3.334   2.647  17.286
 9925SOL     OW41653   4.147   0.453  20.707
 9925SOL    HW141654   4.056   0.449  20.678
 9925SOL    HW241655   4.159   0.542  20.739
 9926SOL     OW41656   4.319   3.092   3.749
 9926SOL    HW141657   4.365   3.176   3.747
 9926SOL    HW241658   4.257   3.101   3.822
 9927SOL     OW41659   4.429   2.529   3.538
 9927SOL    HW141660   4.424   2.470   3.462
 9927SOL    HW241661   4.356   2.590   3.526
 9928SOL     OW41662   3.387   4.299   7.587
 9928SOL    HW141663   3.353   4.219   7.549
 9928SOL    HW241664   3.456   4.327   7.527
 9929SOL     OW41665   2.944   1.827   9.125
 9929SOL    HW141666   2.963   1.920   9.109
 9929SOL    HW241667   2.973   1.812   9.215
 9930SOL     OW41668   1.400   2.384   5.938
 9930SOL    HW141669   1.387   2.390   6.033
 9930SOL    HW241670   1.398   2.474   5.908
 9931SOL     OW41671   4.199   3.908   6.128
 9931SOL    HW141672   4.176   3.936   6.040
 9931SOL    HW241673   4.288   3.871   6.119
 9932SOL     OW41674   1.896   2.478  20.323
 9932SOL    HW141675   1.828   2.488  20.389
 9932SOL    HW241676   1.928   2.388  20.335
 9933SOL     OW41677   4.017   0.572  19.024
 9933SOL    HW141678   4.068   0.581  18.944
 9933SOL    HW241679   4.040   0.648  19.076
 9934SOL     OW41680   1.884   1.532  16.758
 9934SOL    HW141681   1.823   1.463  16.787
 9934SOL    HW241682   1.831   1.612  16.762
 9935SOL     OW41683   0.801   2.066   1.379
 9935SOL    HW141684   0.728   2.006   1.393
 9935SOL    HW241685   0.760   2.146   1.347
 9936SOL     OW41686   1.395   3.957  17.191
 9936SOL    HW141687   1.409   3.864  17.171
 9936SOL    HW241688   1.482   3.996  17.183
 9937SOL     OW41689   1.077   4.012  20.079
 9937SOL    HW141690   1.038   4.094  20.110
 9937SOL    HW241691   1.171   4.024  20.092
 9938SOL     OW41692   1.454   1.041  17.154
 9938SOL    HW141693   1.478   1.056  17.063
 9938SOL    HW241694   1.537   1.040  17.202
 9939SOL     OW41695   1.176   0.930  21.018
 9939SOL    HW141696   1.081   0.938  21.004
 9939SOL    HW241697   1.209   1.019  21.011
 9940SOL     OW41698   0.696   1.543  20.445
 9940SOL    HW141699   0.672   1.614  20.387
 9940SOL    HW241700   0.680   1.577  20.533
 9941SOL     OW41701   2.196   0.903  15.156
 9941SOL    HW141702   2.151   0.934  15.078
 9941SOL    HW241703   2.286   0.886  15.127
 9942SOL     OW41704   3.924   3.861  19.643
 9942SOL    HW141705   3.920   3.956  19.635
 9942SOL    HW241706   3.911   3.844  19.737
 9943SOL     OW41707   2.377   0.868  15.468
 9943SOL    HW141708   2.358   0.795  15.410
 9943SOL    HW241709   2.472   0.869  15.475
 9944SOL     OW41710   4.475   2.275  16.711
 9944SOL    HW141711   4.451   2.346  16.770
 9944SOL    HW241712   4.569   2.265  16.721
 9945SOL     OW41713   2.882   0.572   8.918
 9945SOL    HW141714   2.795   0.606   8.896
 9945SOL    HW241715   2.943   0.639   8.886
 9946SOL     OW41716   0.721   2.501   4.437
 9946SOL    HW141717   0.672   2.425   4.469
 9946SOL    HW241718   0.666   2.576   4.459
 9947SOL     OW41719   0.998   3.962   6.208
 9947SOL    HW141720   1.079   3.999   6.172
 9947SOL    HW241721   1.028   3.903   6.277
 9948SOL     OW41722   2.350   0.576   1.081
 9948SOL    HW141723   2.358   0.671   1.077
 9948SOL    HW241724   2.357   0.555   1.175
 9949SOL     OW41725   4.493   2.476   7.177
 9949SOL    HW141726   4.505   2.568   7.154
 9949SOL    HW241727   4.519   2.471   7.269
 9950SOL     OW41728   1.401   0.187  19.963
 9950SOL    HW141729   1.349   0.115  19.926
 9950SOL    HW241730   1.445   0.226  19.888
 9951SOL     OW41731   2.258   2.429  20.713
 9951SOL    HW141732   2.232   2.503  20.767
 9951SOL    HW241733   2.197   2.359  20.739
 9952SOL     OW41734   4.308   1.225   4.276
 9952SOL    HW141735   4.249   1.160   4.316
 9952SOL    HW241736   4.386   1.174   4.253
 9953SOL     OW41737   3.481   4.001   1.824
 9953SOL    HW141738   3.573   4.017   1.848
 9953SOL    HW241739   3.468   3.908   1.840
 9954SOL     OW41740   3.018   3.893  18.407
 9954SOL    HW141741   3.034   3.803  18.379
 9954SOL    HW241742   2.924   3.905  18.395
 9955SOL     OW41743   4.424   2.364  21.264
 9955SOL    HW141744   4.352   2.384  21.205
 9955SOL    HW241745   4.475   2.445  21.268
 9956SOL     OW41746   3.817   1.895  13.937
 9956SOL    HW141747   3.882   1.890  13.866
 9956SOL    HW241748   3.778   1.982  13.926
 9957SOL     OW41749   4.594   4.164  19.416
 9957SOL    HW141750   4.675   4.129  19.378
 9957SOL    HW241751   4.549   4.205  19.342
 9958SOL     OW41752   1.853   1.431  18.805
 9958SOL    HW141753   1.808   1.362  18.854
 9958SOL    HW241754   1.819   1.512  18.842
 9959SOL     OW41755   1.302   4.272   6.272
 9959SOL    HW141756   1.267   4.251   6.359
 9959SOL    HW241757   1.385   4.317   6.289
 9960SOL     OW41758   3.122   3.788   1.466
 9960SOL    HW141759   3.089   3.699   1.470
 9960SOL    HW241760   3.126   3.809   1.373
 9961SOL     OW41761   2.928   2.769  17.888
 9961SOL    HW141762   3.006   2.807  17.927
 9961SOL    HW241763   2.877   2.736  17.962
 9962SOL     OW41764   2.570   4.158  16.212
 9962SOL    HW141765   2.603   4.211  16.140
 9962SOL    HW241766   2.641   4.156  16.276
 9963SOL     OW41767   2.368   2.556  20.496
 9963SOL    HW141768   2.283   2.573  20.457
 9963SOL    HW241769   2.348   2.505  20.575
 9964SOL     OW41770   3.580   4.324   4.670
 9964SOL    HW141771   3.617   4.263   4.606
 9964SOL    HW241772   3.591   4.411   4.630
 9965SOL     OW41773   1.700   1.994  15.120
 9965SOL    HW141774   1.607   2.015  15.109
 9965SOL    HW241775   1.723   1.945  15.042
 9966SOL     OW41776   4.060   1.125  17.812
 9966SOL    HW141777   3.990   1.134  17.748
 9966SOL    HW241778   4.045   1.196  17.874
 9967SOL     OW41779   0.851   0.099  20.211
 9967SOL    HW141780   0.897   0.016  20.195
 9967SOL    HW241781   0.897   0.163  20.156
 9968SOL     OW41782   1.996   1.910  13.978
 9968SOL    HW141783   2.009   1.996  14.018
 9968SOL    HW241784   1.945   1.928  13.899
 9969SOL     OW41785   4.478   0.832   4.391
 9969SOL    HW141786   4.385   0.827   4.410
 9969SOL    HW241787   4.518   0.766   4.447
 9970SOL     OW41788   1.009   0.484  20.295
 9970SOL    HW141789   1.067   0.432  20.350
 9970SOL    HW241790   0.927   0.488  20.344
 9971SOL     OW41791   3.689   4.390  17.327
 9971SOL    HW141792   3.773   4.428  17.301
 9971SOL    HW241793   3.712   4.309  17.372
 9972SOL     OW41794   1.412   3.584   8.536
 9972SOL    HW141795   1.485   3.626   8.490
 9972SOL    HW241796   1.399   3.638   8.614
 9973SOL     OW41797   0.865   3.559  20.950
 9973SOL    HW141798   0.867   3.648  20.985
 9973SOL    HW241799   0.782   3.555  20.901
 9974SOL     OW41800   3.668   2.805   0.534
 9974SOL    HW141801   3.677   2.860   0.457
 9974SOL    HW241802   3.678   2.716   0.500
 9975SOL     OW41803   4.698   1.211   4.622
 9975SOL    HW141804   4.746   1.185   4.701
 9975SOL    HW241805   4.630   1.145   4.612
 9976SOL     OW41806   2.692   2.508  18.450
 9976SOL    HW141807   2.659   2.569  18.516
 9976SOL    HW241808   2.751   2.451  18.498
 9977SOL     OW41809   0.959   1.137   0.079
 9977SOL    HW141810   0.868   1.149   0.050
 9977SOL    HW241811   0.952   1.086   0.159
 9978SOL     OW41812   2.670   2.980   1.964
 9978SOL    HW141813   2.738   3.048   1.960
 9978SOL    HW241814   2.590   3.028   1.982
 9979SOL     OW41815   2.941   3.119  17.489
 9979SOL    HW141816   2.972   3.209  17.493
 9979SOL    HW241817   2.910   3.100  17.578
 9980SOL     OW41818   2.672   3.301  19.009
 9980SOL    HW141819   2.747   3.257  18.970
 9980SOL    HW241820   2.680   3.284  19.103
 9981SOL     OW41821   0.833   0.182   1.650
 9981SOL    HW141822   0.878   0.098   1.654
 9981SOL    HW241823   0.898   0.243   1.616
 9982SOL     OW41824   3.820   3.058  17.933
 9982SOL    HW141825   3.772   3.104  17.864
 9982SOL    HW241826   3.881   3.122  17.968
 9983SOL     OW41827   1.653   2.774  17.527
 9983SOL    HW141828   1.745   2.758  17.544
 9983SOL    HW241829   1.612   2.774  17.613
 9984SOL     OW41830   3.712   0.185  17.560
 9984SOL    HW141831   3.703   0.098  17.598
 9984SOL    HW241832   3.741   0.169  17.470
 9985SOL     OW41833   2.401   0.775  14.952
 9985SOL    HW141834   2.480   0.720  14.948
 9985SOL    HW241835   2.355   0.756  14.870
 9986SOL     OW41836   4.577   0.974   1.691
 9986SOL    HW141837   4.623   1.056   1.673
 9986SOL    HW241838   4.504   0.999   1.747
 9987SOL     OW41839   2.574   2.365   0.857
 9987SOL    HW141840   2.508   2.299   0.836
 9987SOL    HW241841   2.626   2.326   0.928
 9988SOL     OW41842   4.581   4.485   1.783
 9988SOL    HW141843   4.560   4.578   1.769
 9988SOL    HW241844   4.527   4.459   1.857
 9989SOL     OW41845   4.121   3.120   2.545
 9989SOL    HW141846   4.057   3.063   2.502
 9989SOL    HW241847   4.070   3.196   2.574
 9990SOL     OW41848   1.818   3.641   9.655
 9990SOL    HW141849   1.836   3.704   9.725
 9990SOL    HW241850   1.810   3.694   9.576
 9991SOL     OW41851   3.118   4.687  20.531
 9991SOL    HW141852   3.051   4.734  20.579
 9991SOL    HW241853   3.111   4.596  20.562
 9992SOL     OW41854   0.653   3.488  18.705
 9992SOL    HW141855   0.561   3.465  18.690
 9992SOL    HW241856   0.657   3.511  18.797
 9993SOL     OW41857   2.521   3.519   3.435
 9993SOL    HW141858   2.549   3.480   3.353
 9993SOL    HW241859   2.513   3.446   3.496
 9994SOL     OW41860   4.176   2.683   1.102
 9994SOL    HW141861   4.261   2.670   1.059
 9994SOL    HW241862   4.189   2.650   1.191
 9995SOL     OW41863   4.713   0.814   9.718
 9995SOL    HW141864   4.671   0.753   9.658
 9995SOL    HW241865   4.716   0.768   9.802
 9996SOL     OW41866   2.686   2.846   9.504
 9996SOL    HW141867   2.621   2.883   9.563
 9996SOL    HW241868   2.769   2.885   9.532
 9997SOL     OW41869   1.139   2.625   9.613
 9997SOL    HW141870   1.157   2.588   9.526
 9997SOL    HW241871   1.220   2.611   9.662
 9998SOL     OW41872   1.430   3.242   9.493
 9998SOL    HW141873   1.399   3.168   9.546
 9998SOL    HW241874   1.514   3.266   9.533
 9999SOL     OW41875   1.087   3.363  17.098
 9999SOL    HW141876   1.136   3.282  17.081
 9999SOL    HW241877   1.113   3.422  17.027
10000SOL     OW41878   2.181   2.698   9.600
10000SOL    HW141879   2.094   2.733   9.620
10000SOL    HW241880   2.238   2.775   9.599
10001SOL     OW41881   3.699   4.466  18.039
10001SOL    HW141882   3.730   4.480  17.950
10001SOL    HW241883   3.616   4.420  18.029
10002SOL     OW41884   2.379   3.928   7.845
10002SOL    HW141885   2.407   4.014   7.812
10002SOL    HW241886   2.294   3.913   7.804
10003SOL     OW41887   2.266   3.066   7.814
10003SOL    HW141888   2.227   2.979   7.816
10003SOL    HW241889   2.288   3.085   7.906
10004SOL     OW41890   2.225   2.229   0.669
10004SOL    HW141891   2.226   2.305   0.727
10004SOL    HW241892   2.161   2.169   0.707
10005SOL     OW41893   2.218   2.432   9.671
10005SOL    HW141894   2.207   2.527   9.666
10005SOL    HW241895   2.302   2.416   9.629
10006SOL     OW41896   2.530   1.403   8.050
10006SOL    HW141897   2.458   1.465   8.065
10006SOL    HW241898   2.580   1.404   8.132
10007SOL     OW41899   1.574   1.984   9.095
10007SOL    HW141900   1.508   1.982   9.027
10007SOL    HW241901   1.657   1.996   9.048
10008SOL     OW41902   1.631   2.920  10.340
10008SOL    HW141903   1.668   2.945  10.255
10008SOL    HW241904   1.668   2.984  10.401
10009SOL     OW41905   3.034   3.287  10.942
10009SOL    HW141906   2.982   3.207  10.930
10009SOL    HW241907   2.970   3.358  10.934
10010SOL     OW41908   1.636   2.672  10.418
10010SOL    HW141909   1.625   2.766  10.402
10010SOL    HW241910   1.551   2.634  10.396
10011SOL     OW41911   2.865   3.027   9.875
10011SOL    HW141912   2.815   2.999   9.952
10011SOL    HW241913   2.941   2.968   9.874
10012SOL     OW41914   1.711   2.125  10.871
10012SOL    HW141915   1.769   2.174  10.928
10012SOL    HW241916   1.765   2.055  10.836
10013SOL     OW41917   1.157   1.678  11.095
10013SOL    HW141918   1.197   1.703  11.012
10013SOL    HW241919   1.195   1.593  11.116
10014SOL     OW41920   1.942   3.112  11.256
10014SOL    HW141921   1.885   3.036  11.256
10014SOL    HW241922   2.026   3.079  11.224
10015SOL     OW41923   2.724   3.872  11.124
10015SOL    HW141924   2.808   3.918  11.118
10015SOL    HW241925   2.681   3.908  11.201
10016SOL     OW41926   4.367   3.184   9.631
10016SOL    HW141927   4.401   3.195   9.542
10016SOL    HW241928   4.348   3.273   9.660
10017SOL     OW41929   2.036   0.636  10.406
10017SOL    HW141930   1.960   0.685  10.437
10017SOL    HW241931   2.105   0.656  10.469
10018SOL     OW41932   1.908   2.140  10.103
10018SOL    HW141933   1.974   2.097  10.049
10018SOL    HW241934   1.888   2.221  10.056
10019SOL     OW41935   1.296   1.735  10.858
10019SOL    HW141936   1.344   1.656  10.882
10019SOL    HW241937   1.347   1.774  10.787
10020SOL     OW41938   2.949   3.997  11.156
10020SOL    HW141939   2.991   3.977  11.239
10020SOL    HW241940   2.978   4.086  11.135
10021SOL     OW41941   2.872   2.829  11.490
10021SOL    HW141942   2.945   2.777  11.456
10021SOL    HW241943   2.860   2.797  11.579
10022SOL     OW41944   3.104   1.687  11.648
10022SOL    HW141945   3.094   1.640  11.565
10022SOL    HW241946   3.198   1.705  11.654
10023SOL     OW41947   3.680   2.938  12.335
10023SOL    HW141948   3.620   2.994  12.385
10023SOL    HW241949   3.626   2.901  12.265
10024SOL     OW41950   1.979   2.395  12.743
10024SOL    HW141951   1.894   2.422  12.777
10024SOL    HW241952   1.961   2.315  12.694
10025SOL     OW41953   3.131   1.645  11.004
10025SOL    HW141954   3.047   1.615  11.039
10025SOL    HW241955   3.127   1.740  11.010
10026SOL     OW41956   2.257   2.153  12.127
10026SOL    HW141957   2.172   2.180  12.091
10026SOL    HW241958   2.296   2.098  12.058
10027SOL     OW41959   2.203   2.522  12.212
10027SOL    HW141960   2.253   2.446  12.242
10027SOL    HW241961   2.270   2.587  12.191
10028SOL     OW41962   2.449   2.274  12.825
10028SOL    HW141963   2.438   2.240  12.736
10028SOL    HW241964   2.359   2.292  12.854
10029SOL     OW41965   1.662   3.169  11.388
10029SOL    HW141966   1.730   3.133  11.444
10029SOL    HW241967   1.642   3.099  11.326
10030SOL     OW41968   2.261   3.515  12.226
10030SOL    HW141969   2.260   3.597  12.177
10030SOL    HW241970   2.325   3.529  12.296
10031SOL     OW41971   2.159   3.179  12.921
10031SOL    HW141972   2.153   3.265  12.880
10031SOL    HW241973   2.191   3.121  12.852
10032SOL     OW41974   3.070   1.928  10.983
10032SOL    HW141975   3.042   2.007  11.029
10032SOL    HW241976   3.030   1.935  10.896
10033SOL     OW41977   1.409   4.476  16.426
10033SOL    HW141978   1.355   4.553  16.445
10033SOL    HW241979   1.499   4.508  16.431
10034SOL     OW41980   0.399   4.347   0.212
10034SOL    HW141981   0.326   4.402   0.242
10034SOL    HW241982   0.400   4.358   0.117
10035SOL     OW41983   3.667   2.949   7.076
10035SOL    HW141984   3.572   2.950   7.070
10035SOL    HW241985   3.690   3.032   7.118
10036SOL     OW41986   2.344   2.488  18.788
10036SOL    HW141987   2.262   2.535  18.796
10036SOL    HW241988   2.337   2.440  18.705
10037SOL     OW41989   2.034   2.837  19.513
10037SOL    HW141990   2.080   2.841  19.597
10037SOL    HW241991   2.081   2.770  19.464
10038SOL     OW41992   3.209   1.509  16.904
10038SOL    HW141993   3.205   1.413  16.906
10038SOL    HW241994   3.298   1.530  16.933
10039SOL     OW41995   4.311   0.105   6.663
10039SOL    HW141996   4.282   0.170   6.599
10039SOL    HW241997   4.256   0.121   6.739
10040SOL     OW41998   3.151   1.902  19.295
10040SOL    HW141999   3.182   1.858  19.216
10040SOL    HW242000   3.178   1.845  19.367
10041SOL     OW42001   0.014   1.440   0.186
10041SOL    HW142002   0.060   1.394   0.257
10041SOL    HW242003   4.722   1.460   0.223
10042SOL     OW42004   0.510   4.670  19.295
10042SOL    HW142005   0.433   4.613  19.304
10042SOL    HW242006   0.566   4.624  19.233
10043SOL     OW42007   3.580   2.608  12.059
10043SOL    HW142008   3.505   2.549  12.056
10043SOL    HW242009   3.655   2.551  12.076
10044SOL     OW42010   1.703   3.401  15.504
10044SOL    HW142011   1.655   3.457  15.443
10044SOL    HW242012   1.708   3.452  15.584
10045SOL     OW42013   1.948   2.059  16.697
10045SOL    HW142014   1.918   2.149  16.686
10045SOL    HW242015   1.919   2.035  16.785
10046SOL     OW42016   4.097   1.534   6.884
10046SOL    HW142017   4.178   1.484   6.889
10046SOL    HW242018   4.118   1.606   6.824
10047SOL     OW42019   2.453   3.846  20.202
10047SOL    HW142020   2.495   3.880  20.281
10047SOL    HW242021   2.399   3.774  20.233
10048SOL     OW42022   0.511   4.149  14.054
10048SOL    HW142023   0.532   4.132  13.962
10048SOL    HW242024   0.463   4.070  14.082
10049SOL     OW42025   3.612   4.315  16.716
10049SOL    HW142026   3.557   4.244  16.750
10049SOL    HW242027   3.644   4.283  16.632
10050SOL     OW42028   3.773   2.278  13.281
10050SOL    HW142029   3.719   2.264  13.203
10050SOL    HW242030   3.817   2.361  13.266
10051SOL     OW42031   2.696   3.465   2.878
10051SOL    HW142032   2.648   3.410   2.940
10051SOL    HW242033   2.788   3.443   2.894
10052SOL     OW42034   0.016   1.104  19.208
10052SOL    HW142035   0.047   1.186  19.246
10052SOL    HW242036   0.038   1.038  19.273
10053SOL     OW42037   3.409   2.073  17.269
10053SOL    HW142038   3.378   2.127  17.341
10053SOL    HW242039   3.413   2.133  17.194
10054SOL     OW42040   3.092   2.270   4.847
10054SOL    HW142041   3.085   2.349   4.901
10054SOL    HW242042   3.002   2.252   4.820
10055SOL     OW42043   2.470   3.071   5.013
10055SOL    HW142044   2.466   3.003   5.080
10055SOL    HW242045   2.431   3.031   4.935
10056SOL     OW42046   2.105   4.346  15.709
10056SOL    HW142047   2.017   4.332  15.745
10056SOL    HW242048   2.159   4.365  15.786
10057SOL     OW42049   2.406   0.018   6.444
10057SOL    HW142050   2.350   4.779   6.514
10057SOL    HW242051   2.476   4.747   6.436
10058SOL     OW42052   4.416   1.197  15.887
10058SOL    HW142053   4.407   1.156  15.973
10058SOL    HW242054   4.480   1.267  15.901
10059SOL     OW42055   0.366   2.460   5.695
10059SOL    HW142056   0.326   2.373   5.703
10059SOL    HW242057   0.411   2.458   5.610
10060SOL     OW42058   2.226   3.864  19.057
10060SOL    HW142059   2.207   3.780  19.016
10060SOL    HW242060   2.250   3.921  18.984
10061SOL     OW42061   4.266   4.407   7.074
10061SOL    HW142062   4.335   4.469   7.098
10061SOL    HW242063   4.210   4.455   7.014
10062SOL     OW42064   3.706   2.697  13.889
10062SOL    HW142065   3.796   2.729  13.895
10062SOL    HW242066   3.688   2.692  13.795
10063SOL     OW42067   2.665   2.848  13.273
10063SOL    HW142068   2.698   2.937  13.260
10063SOL    HW242069   2.597   2.857  13.340
10064SOL     OW42070   0.055   1.445  12.184
10064SOL    HW142071   4.760   1.410  12.188
10064SOL    HW242072   0.090   1.431  12.271
10065SOL     OW42073   1.487   2.861   0.597
10065SOL    HW142074   1.404   2.891   0.633
10065SOL    HW242075   1.553   2.896   0.656
10066SOL     OW42076   2.586   1.165   4.376
10066SOL    HW142077   2.561   1.189   4.465
10066SOL    HW242078   2.507   1.124   4.340
10067SOL     OW42079   1.073   4.582   2.356
10067SOL    HW142080   1.105   4.522   2.423
10067SOL    HW242081   1.136   4.654   2.356
10068SOL     OW42082   2.170   0.946  18.169
10068SOL    HW142083   2.107   1.018  18.163
10068SOL    HW242084   2.200   0.948  18.260
10069SOL     OW42085   1.183   2.970   3.786
10069SOL    HW142086   1.203   2.882   3.817
10069SOL    HW242087   1.185   3.025   3.865
10070SOL     OW42088   0.637   4.436   1.137
10070SOL    HW142089   0.619   4.357   1.085
10070SOL    HW242090   0.568   4.497   1.109
10071SOL     OW42091   2.247   2.115  13.994
10071SOL    HW142092   2.192   2.192  14.008
10071SOL    HW242093   2.259   2.078  14.081
10072SOL     OW42094   4.289   4.451  19.375
10072SOL    HW142095   4.238   4.528  19.399
10072SOL    HW242096   4.318   4.415  19.459
10073SOL     OW42097   1.579   0.834  19.447
10073SOL    HW142098   1.661   0.836  19.398
10073SOL    HW242099   1.537   0.752  19.421
10074SOL     OW42100   4.786   3.993   0.723
10074SOL    HW142101   4.704   4.004   0.675
10074SOL    HW242102   0.034   3.918   0.682
10075SOL     OW42103   0.059   2.329  18.587
10075SOL    HW142104   0.102   2.270  18.525
10075SOL    HW242105   0.130   2.381  18.624
10076SOL     OW42106   2.374   3.855  13.325
10076SOL    HW142107   2.327   3.775  13.302
10076SOL    HW242108   2.305   3.918  13.345
10077SOL     OW42109   1.508   4.723   6.433
10077SOL    HW142110   1.521   4.652   6.495
10077SOL    HW242111   1.591   4.771   6.433
10078SOL     OW42112   1.458   3.754   6.492
10078SOL    HW142113   1.455   3.661   6.469
10078SOL    HW242114   1.416   3.798   6.418
10079SOL     OW42115   4.688   4.768  20.934
10079SOL    HW142116   4.678   4.755  20.840
10079SOL    HW242117   4.778   0.006  20.945
10080SOL     OW42118   1.665   3.576   5.429
10080SOL    HW142119   1.689   3.550   5.518
10080SOL    HW242120   1.636   3.667   5.438
10081SOL     OW42121   1.157   4.494   1.571
10081SOL    HW142122   1.072   4.504   1.527
10081SOL    HW242123   1.195   4.415   1.532
10082SOL     OW42124   0.266   2.818   0.525
10082SOL    HW142125   0.319   2.829   0.446
10082SOL    HW242126   0.229   2.904   0.541
10083SOL     OW42127   2.537   1.844   1.771
10083SOL    HW142128   2.551   1.882   1.685
10083SOL    HW242129   2.521   1.919   1.829
10084SOL     OW42130   0.843   0.125  19.017
10084SOL    HW142131   0.846   0.220  19.024
10084SOL    HW242132   0.834   0.094  19.107
10085SOL     OW42133   1.495   0.309  17.332
10085SOL    HW142134   1.421   0.358  17.294
10085SOL    HW242135   1.530   0.259  17.259
10086SOL     OW42136   1.628   4.124  19.446
10086SOL    HW142137   1.615   4.071  19.368
10086SOL    HW242138   1.723   4.138  19.450
10087SOL     OW42139   3.760   4.493  11.759
10087SOL    HW142140   3.775   4.554  11.687
10087SOL    HW242141   3.827   4.514  11.824
10088SOL     OW42142   4.322   2.089  21.003
10088SOL    HW142143   4.344   2.153  20.935
10088SOL    HW242144   4.404   2.075  21.050
10089SOL     OW42145   0.319   1.118   6.060
10089SOL    HW142146   0.284   1.145   5.975
10089SOL    HW242147   0.249   1.068   6.101
10090SOL     OW42148   4.234   1.576  16.428
10090SOL    HW142149   4.184   1.508  16.383
10090SOL    HW242150   4.197   1.579  16.516
10091SOL     OW42151   1.411   0.495  16.514
10091SOL    HW142152   1.368   0.409  16.513
10091SOL    HW242153   1.492   0.481  16.465
10092SOL     OW42154   2.608   0.303  18.584
10092SOL    HW142155   2.640   0.390  18.558
10092SOL    HW242156   2.514   0.306  18.565
10093SOL     OW42157   0.973   4.375   5.626
10093SOL    HW142158   0.966   4.345   5.536
10093SOL    HW242159   1.030   4.311   5.669
10094SOL     OW42160   3.909   4.715   1.753
10094SOL    HW142161   3.899   4.739   1.846
10094SOL    HW242162   3.829   4.667   1.732
10095SOL     OW42163   1.813   2.062   1.106
10095SOL    HW142164   1.779   2.146   1.135
10095SOL    HW242165   1.747   1.998   1.134
10096SOL     OW42166   4.327   0.901  13.507
10096SOL    HW142167   4.393   0.837  13.480
10096SOL    HW242168   4.326   0.895  13.603
10097SOL     OW42169   3.256   0.890   2.682
10097SOL    HW142170   3.324   0.825   2.698
10097SOL    HW242171   3.238   0.884   2.589
10098SOL     OW42172   2.504   1.234  14.658
10098SOL    HW142173   2.587   1.281  14.652
10098SOL    HW242174   2.516   1.156  14.604
10099SOL     OW42175   0.403   1.289  20.272
10099SOL    HW142176   0.472   1.307  20.209
10099SOL    HW242177   0.327   1.268  20.219
10100SOL     OW42178   3.940   1.497   5.605
10100SOL    HW142179   4.008   1.559   5.578
10100SOL    HW242180   3.898   1.539   5.680
10101SOL     OW42181   3.623   4.247   1.455
10101SOL    HW142182   3.667   4.234   1.539
10101SOL    HW242183   3.684   4.301   1.404
10102SOL     OW42184   2.984   0.721  17.733
10102SOL    HW142185   3.074   0.742  17.757
10102SOL    HW242186   2.992   0.661  17.659
10103SOL     OW42187   2.749   0.486  18.968
10103SOL    HW142188   2.712   0.456  19.051
10103SOL    HW242189   2.718   0.576  18.959
10104SOL     OW42190   4.088   2.262  20.208
10104SOL    HW142191   4.122   2.310  20.284
10104SOL    HW242192   4.121   2.310  20.133
10105SOL     OW42193   3.095   2.978   7.696
10105SOL    HW142194   3.138   2.969   7.782
10105SOL    HW242195   3.161   3.020   7.641
10106SOL     OW42196   4.739   3.619   3.876
10106SOL    HW142197   4.714   3.545   3.821
10106SOL    HW242198   4.775   3.580   3.955
10107SOL     OW42199   3.625   0.532  20.672
10107SOL    HW142200   3.626   0.573  20.585
10107SOL    HW242201   3.625   0.606  20.733
10108SOL     OW42202   2.732   0.475  20.412
10108SOL    HW142203   2.743   0.562  20.451
10108SOL    HW242204   2.742   0.490  20.318
10109SOL     OW42205   1.183   2.334  17.683
10109SOL    HW142206   1.159   2.261  17.741
10109SOL    HW242207   1.107   2.393  17.686
10110SOL     OW42208   4.092   1.763  12.293
10110SOL    HW142209   4.153   1.776  12.366
10110SOL    HW242210   4.006   1.756  12.335
10111SOL     OW42211   0.528   1.203  18.451
10111SOL    HW142212   0.491   1.198  18.363
10111SOL    HW242213   0.453   1.197  18.509
10112SOL     OW42214   2.913   4.438  18.810
10112SOL    HW142215   2.999   4.399  18.823
10112SOL    HW242216   2.887   4.469  18.896
10113SOL     OW42217   0.477   4.336   3.226
10113SOL    HW142218   0.542   4.358   3.293
10113SOL    HW242219   0.468   4.417   3.175
10114SOL     OW42220   1.040   0.994   5.950
10114SOL    HW142221   0.955   1.025   5.917
10114SOL    HW242222   1.045   1.026   6.039
10115SOL     OW42223   2.671   2.040   0.541
10115SOL    HW142224   2.693   1.996   0.459
10115SOL    HW242225   2.756   2.051   0.585
10116SOL     OW42226   2.821   3.875   0.676
10116SOL    HW142227   2.815   3.966   0.649
10116SOL    HW242228   2.914   3.855   0.675
10117SOL     OW42229   0.209   0.025  15.983
10117SOL    HW142230   0.168   0.039  15.897
10117SOL    HW242231   0.222   0.113  16.018
10118SOL     OW42232   2.769   1.191   4.652
10118SOL    HW142233   2.715   1.268   4.636
10118SOL    HW242234   2.825   1.216   4.725
10119SOL     OW42235   0.188   3.365   2.648
10119SOL    HW142236   0.215   3.275   2.668
10119SOL    HW242237   0.269   3.409   2.621
10120SOL     OW42238   4.080   4.549   2.352
10120SOL    HW142239   4.011   4.483   2.342
10120SOL    HW242240   4.033   4.630   2.370
10121SOL     OW42241   2.422   1.323  20.685
10121SOL    HW142242   2.478   1.386  20.730
10121SOL    HW242243   2.431   1.242  20.736
10122SOL     OW42244   2.347   2.218   6.355
10122SOL    HW142245   2.344   2.160   6.279
10122SOL    HW242246   2.272   2.192   6.408
10123SOL     OW42247   4.719   3.516  14.564
10123SOL    HW142248   4.656   3.537  14.632
10123SOL    HW242249   4.666   3.489  14.489
10124SOL     OW42250   0.880   1.185  17.391
10124SOL    HW142251   0.936   1.111  17.412
10124SOL    HW242252   0.922   1.226  17.315
10125SOL     OW42253   1.692   0.349   1.740
10125SOL    HW142254   1.624   0.391   1.792
10125SOL    HW242255   1.768   0.407   1.749
10126SOL     OW42256   4.096   0.905   6.462
10126SOL    HW142257   4.190   0.909   6.441
10126SOL    HW242258   4.081   0.983   6.516
10127SOL     OW42259   3.918   3.577   6.174
10127SOL    HW142260   3.997   3.584   6.227
10127SOL    HW242261   3.899   3.483   6.170
10128SOL     OW42262   0.568   4.178   1.080
10128SOL    HW142263   0.546   4.122   1.006
10128SOL    HW242264   0.633   4.129   1.130
10129SOL     OW42265   4.012   3.504   8.665
10129SOL    HW142266   4.000   3.409   8.669
10129SOL    HW242267   3.924   3.540   8.669
10130SOL     OW42268   0.200   0.657   2.947
10130SOL    HW142269   0.273   0.691   2.896
10130SOL    HW242270   0.127   0.715   2.925
10131SOL     OW42271   0.583   3.839   4.491
10131SOL    HW142272   0.637   3.917   4.498
10131SOL    HW242273   0.510   3.854   4.550
10132SOL     OW42274   4.746   2.422   3.920
10132SOL    HW142275   4.684   2.353   3.894
10132SOL    HW242276   4.693   2.502   3.921
10133SOL     OW42277   3.353   1.227   5.847
10133SOL    HW142278   3.416   1.298   5.835
10133SOL    HW242279   3.360   1.176   5.766
10134SOL     OW42280   3.046   3.383   2.056
10134SOL    HW142281   3.122   3.388   2.115
10134SOL    HW242282   2.973   3.363   2.114
10135SOL     OW42283   1.069   1.391   6.151
10135SOL    HW142284   1.154   1.347   6.157
10135SOL    HW242285   1.016   1.334   6.096
10136SOL     OW42286   1.197   4.140   2.280
10136SOL    HW142287   1.274   4.168   2.330
10136SOL    HW242288   1.127   4.198   2.310
10137SOL     OW42289   3.148   0.044  18.245
10137SOL    HW142290   3.223   0.099  18.266
10137SOL    HW242291   3.174   4.750  18.274
10138SOL     OW42292   3.275   1.037  15.916
10138SOL    HW142293   3.188   1.061  15.884
10138SOL    HW242294   3.258   0.981  15.992
10139SOL     OW42295   4.053   1.997   2.288
10139SOL    HW142296   4.092   2.045   2.215
10139SOL    HW242297   3.974   2.047   2.310
10140SOL     OW42298   2.026   2.223   6.007
10140SOL    HW142299   1.983   2.235   5.922
10140SOL    HW242300   2.119   2.217   5.986
10141SOL     OW42301   0.398   3.867   5.045
10141SOL    HW142302   0.404   3.935   5.112
10141SOL    HW242303   0.425   3.787   5.089
10142SOL     OW42304   2.920   3.761  19.031
10142SOL    HW142305   2.908   3.698  19.103
10142SOL    HW242306   2.989   3.820  19.062
10143SOL     OW42307   0.635   0.806   6.230
10143SOL    HW142308   0.626   0.719   6.190
10143SOL    HW242309   0.702   0.849   6.178
10144SOL     OW42310   3.858   1.989  13.235
10144SOL    HW142311   3.777   1.949  13.268
10144SOL    HW242312   3.837   2.082  13.227
10145SOL     OW42313   4.652   0.942  13.884
10145SOL    HW142314   4.630   0.901  13.968
10145SOL    HW242315   4.641   0.871  13.820
10146SOL     OW42316   2.314   3.568  16.146
10146SOL    HW142317   2.319   3.570  16.050
10146SOL    HW242318   2.285   3.656  16.170
10147SOL     OW42319   2.573   3.743   3.006
10147SOL    HW142320   2.500   3.796   3.039
10147SOL    HW242321   2.537   3.698   2.929
10148SOL     OW42322   2.387   3.852  15.772
10148SOL    HW142323   2.307   3.799  15.770
10148SOL    HW242324   2.434   3.821  15.849
10149SOL     OW42325   2.706   3.398   2.608
10149SOL    HW142326   2.697   3.446   2.691
10149SOL    HW242327   2.686   3.307   2.630
10150SOL     OW42328   1.937   4.099  13.573
10150SOL    HW142329   1.875   4.148  13.518
10150SOL    HW242330   1.885   4.072  13.649
10151SOL     OW42331   2.200   4.366   6.192
10151SOL    HW142332   2.247   4.438   6.150
10151SOL    HW242333   2.260   4.291   6.185
10152SOL     OW42334   1.953   2.378   0.224
10152SOL    HW142335   1.961   2.440   0.151
10152SOL    HW242336   1.892   2.420   0.284
10153SOL     OW42337   0.631   2.902   5.540
10153SOL    HW142338   0.618   2.978   5.596
10153SOL    HW242339   0.609   2.827   5.594
10154SOL     OW42340   1.599   2.943  20.911
10154SOL    HW142341   1.625   3.026  20.950
10154SOL    HW242342   1.671   2.920  20.852
10155SOL     OW42343   3.295   4.516   5.437
10155SOL    HW142344   3.308   4.600   5.482
10155SOL    HW242345   3.335   4.451   5.495
10156SOL     OW42346   2.523   0.835  19.286
10156SOL    HW142347   2.563   0.784  19.356
10156SOL    HW242348   2.434   0.801  19.279
10157SOL     OW42349   0.162   3.042  19.123
10157SOL    HW142350   0.191   3.125  19.162
10157SOL    HW242351   0.233   2.981  19.140
10158SOL     OW42352   3.964   3.346   2.350
10158SOL    HW142353   4.003   3.381   2.430
10158SOL    HW242354   3.932   3.259   2.374
10159SOL     OW42355   1.071   2.790  20.190
10159SOL    HW142356   1.000   2.788  20.126
10159SOL    HW242357   1.122   2.710  20.172
10160SOL     OW42358   3.535   3.246  16.165
10160SOL    HW142359   3.604   3.297  16.206
10160SOL    HW242360   3.522   3.171  16.223
10161SOL     OW42361   0.638   4.379   6.583
10161SOL    HW142362   0.678   4.430   6.513
10161SOL    HW242363   0.712   4.351   6.637
10162SOL     OW42364   0.025   1.595   0.694
10162SOL    HW142365   0.052   1.683   0.719
10162SOL    HW242366   0.067   1.537   0.758
10163SOL     OW42367   2.762   2.024   5.674
10163SOL    HW142368   2.785   2.113   5.651
10163SOL    HW242369   2.790   2.015   5.765
10164SOL     OW42370   0.886   2.503  14.787
10164SOL    HW142371   0.870   2.434  14.722
10164SOL    HW242372   0.933   2.571  14.738
10165SOL     OW42373   2.475   3.244  20.538
10165SOL    HW142374   2.539   3.291  20.592
10165SOL    HW242375   2.395   3.297  20.545
10166SOL     OW42376   1.466   0.203  17.967
10166SOL    HW142377   1.481   0.277  17.909
10166SOL    HW242378   1.489   0.126  17.914
10167SOL     OW42379   4.547   0.709   2.550
10167SOL    HW142380   4.460   0.723   2.588
10167SOL    HW242381   4.533   0.639   2.486
10168SOL     OW42382   2.990   1.912   4.228
10168SOL    HW142383   2.948   1.992   4.258
10168SOL    HW242384   3.026   1.873   4.308
10169SOL     OW42385   0.983   1.853  20.626
10169SOL    HW142386   1.057   1.803  20.591
10169SOL    HW242387   0.943   1.794  20.690
10170SOL     OW42388   2.400   1.509   7.388
10170SOL    HW142389   2.418   1.418   7.412
10170SOL    HW242390   2.481   1.556   7.407
10171SOL     OW42391   1.974   3.464  15.432
10171SOL    HW142392   2.004   3.551  15.459
10171SOL    HW242393   1.878   3.469  15.438
10172SOL     OW42394   3.150   2.230   8.379
10172SOL    HW142395   3.095   2.305   8.355
10172SOL    HW242396   3.239   2.259   8.360
10173SOL     OW42397   3.152   3.162   1.073
10173SOL    HW142398   3.121   3.128   0.989
10173SOL    HW242399   3.115   3.251   1.077
10174SOL     OW42400   1.233   3.211  14.055
10174SOL    HW142401   1.257   3.277  13.991
10174SOL    HW242402   1.167   3.157  14.010
10175SOL     OW42403   2.512   3.235   1.724
10175SOL    HW142404   2.574   3.263   1.791
10175SOL    HW242405   2.556   3.252   1.641
10176SOL     OW42406   3.079   4.060  20.375
10176SOL    HW142407   3.091   4.062  20.470
10176SOL    HW242408   3.106   3.972  20.349
10177SOL     OW42409   3.170   4.162  19.937
10177SOL    HW142410   3.255   4.193  19.905
10177SOL    HW242411   3.186   4.072  19.964
10178SOL     OW42412   0.811   3.986  15.132
10178SOL    HW142413   0.830   3.912  15.189
10178SOL    HW242414   0.740   3.956  15.076
10179SOL     OW42415   2.309   0.130   3.232
10179SOL    HW142416   2.353   0.110   3.315
10179SOL    HW242417   2.328   0.055   3.176
10180SOL     OW42418   0.294   1.962  20.885
10180SOL    HW142419   0.240   1.981  20.961
10180SOL    HW242420   0.235   1.918  20.824
10181SOL     OW42421   2.961   0.626  21.073
10181SOL    HW142422   2.913   0.585  21.145
10181SOL    HW242423   2.931   0.580  20.995
10182SOL     OW42424   0.716   2.895   5.100
10182SOL    HW142425   0.750   2.861   5.183
10182SOL    HW242426   0.668   2.974   5.125
10183SOL     OW42427   2.641   0.387   6.625
10183SOL    HW142428   2.549   0.363   6.638
10183SOL    HW242429   2.656   0.375   6.531
10184SOL     OW42430   1.837   2.036   6.566
10184SOL    HW142431   1.830   1.997   6.479
10184SOL    HW242432   1.804   1.968   6.625
10185SOL     OW42433   1.337   2.344   3.888
10185SOL    HW142434   1.370   2.259   3.917
10185SOL    HW242435   1.289   2.378   3.963
10186SOL     OW42436   3.593   2.723  15.376
10186SOL    HW142437   3.663   2.675  15.421
10186SOL    HW242438   3.521   2.660  15.372
10187SOL     OW42439   1.967   3.929   0.267
10187SOL    HW142440   1.951   3.842   0.306
10187SOL    HW242441   1.942   3.919   0.175
10188SOL     OW42442   3.625   4.328  15.837
10188SOL    HW142443   3.613   4.241  15.798
10188SOL    HW242444   3.582   4.388  15.776
10189SOL     OW42445   2.388   1.180  19.921
10189SOL    HW142446   2.376   1.107  19.981
10189SOL    HW242447   2.456   1.150  19.860
10190SOL     OW42448   0.658   2.660  18.313
10190SOL    HW142449   0.721   2.608  18.363
10190SOL    HW242450   0.589   2.682  18.376
10191SOL     OW42451   2.304   3.817   1.205
10191SOL    HW142452   2.250   3.856   1.136
10191SOL    HW242453   2.286   3.871   1.282
10192SOL     OW42454   1.925   1.648  15.116
10192SOL    HW142455   1.927   1.556  15.143
10192SOL    HW242456   1.971   1.650  15.032
10193SOL     OW42457   0.257   3.302  20.264
10193SOL    HW142458   0.332   3.352  20.230
10193SOL    HW242459   0.277   3.211  20.242
10194SOL     OW42460   2.369   0.108   4.523
10194SOL    HW142461   2.396   0.179   4.581
10194SOL    HW242462   2.275   0.097   4.541
10195SOL     OW42463   1.496   3.041  20.046
10195SOL    HW142464   1.457   3.005  20.126
10195SOL    HW242465   1.585   3.004  20.044
10196SOL     OW42466   0.173   0.077   5.501
10196SOL    HW142467   0.213   0.032   5.427
10196SOL    HW242468   0.247   0.110   5.552
10197SOL     OW42469   4.042   2.431  13.588
10197SOL    HW142470   3.951   2.419  13.615
10197SOL    HW242471   4.040   2.422  13.493
10198SOL     OW42472   1.860   1.628  18.045
10198SOL    HW142473   1.935   1.649  17.989
10198SOL    HW242474   1.813   1.711  18.053
10199SOL     OW42475   2.657   0.820   5.633
10199SOL    HW142476   2.643   0.902   5.682
10199SOL    HW242477   2.659   0.752   5.700
10200SOL     OW42478   1.381   2.795  20.954
10200SOL    HW142479   1.315   2.845  20.907
10200SOL    HW242480   1.462   2.845  20.942
10201SOL     OW42481   3.129   2.674  16.190
10201SOL    HW142482   3.117   2.646  16.281
10201SOL    HW242483   3.045   2.711  16.165
10202SOL     OW42484   3.244   4.104   2.428
10202SOL    HW142485   3.157   4.113   2.467
10202SOL    HW242486   3.292   4.181   2.456
10203SOL     OW42487   0.496   3.131  21.271
10203SOL    HW142488   0.449   3.048  21.264
10203SOL    HW242489   0.462   3.172   0.074
10204SOL     OW42490   4.734   2.242  11.927
10204SOL    HW142491   4.767   2.284  12.007
10204SOL    HW242492   4.765   2.298  11.856
10205SOL     OW42493   1.988   2.143  17.167
10205SOL    HW142494   2.047   2.114  17.236
10205SOL    HW242495   2.036   2.213  17.122
10206SOL     OW42496   3.004   1.450  20.464
10206SOL    HW142497   3.097   1.427  20.472
10206SOL    HW242498   2.985   1.444  20.370
10207SOL     OW42499   2.169   3.913   1.438
10207SOL    HW142500   2.158   3.822   1.468
10207SOL    HW242501   2.218   3.955   1.508
10208SOL     OW42502   2.783   1.087   5.483
10208SOL    HW142503   2.772   1.074   5.389
10208SOL    HW242504   2.764   1.001   5.521
10209SOL     OW42505   2.637   2.829  16.932
10209SOL    HW142506   2.616   2.873  17.014
10209SOL    HW242507   2.731   2.808  16.939
10210SOL     OW42508   4.723   1.055   3.672
10210SOL    HW142509   4.690   1.111   3.743
10210SOL    HW242510   4.670   0.976   3.677
10211SOL     OW42511   3.619   0.888  19.882
10211SOL    HW142512   3.594   0.818  19.822
10211SOL    HW242513   3.536   0.926  19.911
10212SOL     OW42514   0.441   1.502  19.481
10212SOL    HW142515   0.415   1.413  19.456
10212SOL    HW242516   0.416   1.556  19.406
10213SOL     OW42517   1.921   2.828  19.226
10213SOL    HW142518   1.869   2.787  19.157
10213SOL    HW242519   2.011   2.820  19.197
10214SOL     OW42520   3.120   4.263   1.388
10214SOL    HW142521   3.143   4.258   1.481
10214SOL    HW242522   3.078   4.179   1.369
10215SOL     OW42523   3.229   1.749  19.090
10215SOL    HW142524   3.173   1.692  19.037
10215SOL    HW242525   3.264   1.692  19.158
10216SOL     OW42526   0.704   1.799   6.874
10216SOL    HW142527   0.618   1.840   6.886
10216SOL    HW242528   0.686   1.705   6.875
10217SOL     OW42529   4.202   0.271   4.337
10217SOL    HW142530   4.111   0.242   4.337
10217SOL    HW242531   4.250   0.199   4.297
10218SOL     OW42532   1.406   1.984  14.207
10218SOL    HW142533   1.312   1.975  14.219
10218SOL    HW242534   1.433   1.902  14.166
10219SOL     OW42535   0.302   2.042  16.981
10219SOL    HW142536   0.259   2.045  17.066
10219SOL    HW242537   0.294   2.130  16.946
10220SOL     OW42538   1.254   4.781   1.974
10220SOL    HW142539   1.308   0.064   1.959
10220SOL    HW242540   1.285   4.717   1.910
10221SOL     OW42541   0.944   4.685  21.014
10221SOL    HW142542   0.895   4.623  21.069
10221SOL    HW242543   0.906   4.770  21.034
10222SOL     OW42544   0.141   1.210   2.521
10222SOL    HW142545   0.127   1.261   2.600
10222SOL    HW242546   0.143   1.274   2.450
10223SOL     OW42547   4.364   2.096   0.768
10223SOL    HW142548   4.321   2.101   0.683
10223SOL    HW242549   4.442   2.151   0.759
10224SOL     OW42550   4.616   1.219   1.465
10224SOL    HW142551   4.664   1.237   1.546
10224SOL    HW242552   4.682   1.227   1.396
10225SOL     OW42553   1.537   4.669  20.413
10225SOL    HW142554   1.626   4.684  20.446
10225SOL    HW242555   1.503   4.757  20.397
10226SOL     OW42556   0.315   2.448   1.610
10226SOL    HW142557   0.368   2.370   1.595
10226SOL    HW242558   0.370   2.504   1.665
10227SOL     OW42559   0.028   3.062  16.772
10227SOL    HW142560   0.003   2.980  16.730
10227SOL    HW242561   0.046   3.122  16.699
10228SOL     OW42562   3.794   0.518  11.283
10228SOL    HW142563   3.871   0.561  11.246
10228SOL    HW242564   3.786   0.555  11.370
10229SOL     OW42565   0.260   0.190  19.947
10229SOL    HW142566   0.258   0.096  19.965
10229SOL    HW242567   0.253   0.231  20.033
10230SOL     OW42568   2.447   0.667  21.041
10230SOL    HW142569   2.395   0.588  21.054
10230SOL    HW242570   2.439   0.715  21.123
10231SOL     OW42571   0.205   3.604  20.091
10231SOL    HW142572   0.250   3.612  20.175
10231SOL    HW242573   0.136   3.540  20.106
10232SOL     OW42574   3.172   2.736   0.104
10232SOL    HW142575   3.181   2.646   0.071
10232SOL    HW242576   3.180   2.728   0.199
10233SOL     OW42577   1.255   1.053  18.277
10233SOL    HW142578   1.258   0.994  18.202
10233SOL    HW242579   1.167   1.039  18.314
10234SOL     OW42580   1.508   0.027  16.354
10234SOL    HW142581   1.432   4.778  16.314
10234SOL    HW242582   1.495   0.120  16.337
10235SOL     OW42583   1.413   1.312   3.892
10235SOL    HW142584   1.320   1.295   3.904
10235SOL    HW242585   1.432   1.283   3.803
10236SOL     OW42586   3.535   3.981  12.056
10236SOL    HW142587   3.452   4.005  12.015
10236SOL    HW242588   3.596   4.050  12.030
10237SOL     OW42589   2.358   3.428  17.144
10237SOL    HW142590   2.379   3.463  17.231
10237SOL    HW242591   2.404   3.485  17.083
10238SOL     OW42592   2.423   3.212   6.055
10238SOL    HW142593   2.468   3.208   5.971
10238SOL    HW242594   2.337   3.175   6.038
10239SOL     OW42595   0.339   0.701  21.111
10239SOL    HW142596   0.402   0.755  21.160
10239SOL    HW242597   0.270   0.762  21.085
10240SOL     OW42598   1.902   2.154  12.611
10240SOL    HW142599   1.902   2.067  12.572
10240SOL    HW242600   1.820   2.159  12.660
10241SOL     OW42601   1.571   4.756   5.670
10241SOL    HW142602   1.527   0.027   5.724
10241SOL    HW242603   1.654   0.003   5.645
10242SOL     OW42604   2.809   4.728   2.126
10242SOL    HW142605   2.744   4.708   2.194
10242SOL    HW242606   2.893   4.705   2.166
10243SOL     OW42607   3.369   2.564   4.354
10243SOL    HW142608   3.309   2.636   4.370
10243SOL    HW242609   3.321   2.485   4.379
10244SOL     OW42610   4.400   2.618   0.961
10244SOL    HW142611   4.391   2.575   0.876
10244SOL    HW242612   4.402   2.711   0.941
10245SOL     OW42613   3.897   1.502   8.342
10245SOL    HW142614   3.839   1.472   8.272
10245SOL    HW242615   3.982   1.514   8.299
10246SOL     OW42616   1.299   2.406  20.376
10246SOL    HW142617   1.358   2.333  20.393
10246SOL    HW242618   1.213   2.365  20.364
10247SOL     OW42619   3.384   0.477  16.925
10247SOL    HW142620   3.367   0.495  17.017
10247SOL    HW242621   3.475   0.504  16.912
10248SOL     OW42622   0.817   2.058  15.577
10248SOL    HW142623   0.909   2.081  15.591
10248SOL    HW242624   0.768   2.132  15.613
10249SOL     OW42625   2.525   2.722  18.239
10249SOL    HW142626   2.535   2.672  18.320
10249SOL    HW242627   2.456   2.675  18.190
10250SOL     OW42628   0.907   2.232  16.854
10250SOL    HW142629   0.938   2.319  16.831
10250SOL    HW242630   0.916   2.227  16.949
10251SOL     OW42631   2.344   4.430  19.011
10251SOL    HW142632   2.327   4.400  18.921
10251SOL    HW242633   2.438   4.421  19.021
10252SOL     OW42634   3.219   1.444   2.258
10252SOL    HW142635   3.177   1.494   2.188
10252SOL    HW242636   3.179   1.358   2.253
10253SOL     OW42637   0.734   1.690  16.978
10253SOL    HW142638   0.696   1.616  16.930
10253SOL    HW242639   0.659   1.743  17.005
10254SOL     OW42640   3.480   3.661   0.383
10254SOL    HW142641   3.554   3.608   0.353
10254SOL    HW242642   3.403   3.619   0.343
10255SOL     OW42643   4.357   2.264   5.200
10255SOL    HW142644   4.440   2.253   5.155
10255SOL    HW242645   4.290   2.239   5.136
10256SOL     OW42646   0.122   3.701   5.998
10256SOL    HW142647   0.091   3.791   6.011
10256SOL    HW242648   0.156   3.675   6.084
10257SOL     OW42649   3.760   2.267   3.604
10257SOL    HW142650   3.850   2.236   3.609
10257SOL    HW242651   3.715   2.202   3.550
10258SOL     OW42652   2.818   0.682  19.785
10258SOL    HW142653   2.882   0.697  19.854
10258SOL    HW242654   2.744   0.738  19.809
10259SOL     OW42655   4.581   1.430   2.485
10259SOL    HW142656   4.601   1.338   2.466
10259SOL    HW242657   4.588   1.438   2.580
10260SOL     OW42658   1.258   2.579  15.646
10260SOL    HW142659   1.227   2.642  15.712
10260SOL    HW242660   1.326   2.626  15.599
10261SOL     OW42661   0.516   2.994   3.725
10261SOL    HW142662   0.541   2.987   3.817
10261SOL    HW242663   0.575   2.935   3.679
10262SOL     OW42664   0.340   0.607  19.376
10262SOL    HW142665   0.354   0.675  19.441
10262SOL    HW242666   0.360   0.525  19.421
10263SOL     OW42667   3.433   0.151   1.901
10263SOL    HW142668   3.456   0.140   1.808
10263SOL    HW242669   3.457   0.242   1.920
10264SOL     OW42670   0.483   0.413   1.274
10264SOL    HW142671   0.557   0.384   1.222
10264SOL    HW242672   0.406   0.387   1.223
10265SOL     OW42673   0.201   2.385   1.317
10265SOL    HW142674   0.234   2.342   1.238
10265SOL    HW242675   0.268   2.450   1.338
10266SOL     OW42676   4.069   3.085  16.304
10266SOL    HW142677   4.058   3.130  16.220
10266SOL    HW242678   3.981   3.053  16.325
10267SOL     OW42679   3.857   4.648  14.273
10267SOL    HW142680   3.847   4.733  14.232
10267SOL    HW242681   3.884   4.589  14.202
10268SOL     OW42682   2.490   1.333  20.162
10268SOL    HW142683   2.572   1.328  20.113
10268SOL    HW242684   2.427   1.368  20.099
10269SOL     OW42685   0.983   0.103   1.955
10269SOL    HW142686   0.928   0.024   1.948
10269SOL    HW242687   1.072   0.070   1.946
10270SOL     OW42688   4.515   2.466  15.575
10270SOL    HW142689   4.470   2.409  15.637
10270SOL    HW242690   4.605   2.470  15.606
10271SOL     OW42691   0.993   0.719  15.644
10271SOL    HW142692   1.014   0.699  15.553
10271SOL    HW242693   0.899   0.735  15.644
10272SOL     OW42694   4.694   1.845   1.649
10272SOL    HW142695   4.688   1.940   1.665
10272SOL    HW242696   4.787   1.825   1.659
10273SOL     OW42697   2.272   4.314   0.899
10273SOL    HW142698   2.312   4.228   0.897
10273SOL    HW242699   2.191   4.304   0.848
10274SOL     OW42700   3.821   3.436  20.399
10274SOL    HW142701   3.801   3.343  20.412
10274SOL    HW242702   3.819   3.474  20.487
10275SOL     OW42703   4.716   1.518   5.560
10275SOL    HW142704   4.703   1.569   5.480
10275SOL    HW242705   4.686   1.430   5.537
10276SOL     OW42706   2.396   2.162  15.769
10276SOL    HW142707   2.442   2.208  15.699
10276SOL    HW242708   2.351   2.232  15.817
10277SOL     OW42709   0.497   2.128   2.292
10277SOL    HW142710   0.512   2.223   2.288
10277SOL    HW242711   0.406   2.120   2.323
10278SOL     OW42712   1.262   3.531  13.077
10278SOL    HW142713   1.197   3.554  13.011
10278SOL    HW242714   1.273   3.437  13.069
10279SOL     OW42715   3.452   0.681  19.752
10279SOL    HW142716   3.378   0.700  19.809
10279SOL    HW242717   3.419   0.696  19.663
10280SOL     OW42718   3.938   0.374  17.260
10280SOL    HW142719   3.891   0.295  17.288
10280SOL    HW242720   3.886   0.446  17.296
10281SOL     OW42721   3.149   1.176   4.867
10281SOL    HW142722   3.239   1.194   4.842
10281SOL    HW242723   3.097   1.237   4.814
10282SOL     OW42724   0.283   2.313  20.090
10282SOL    HW142725   0.372   2.321  20.057
10282SOL    HW242726   0.277   2.223  20.122
10283SOL     OW42727   4.542   3.242   0.774
10283SOL    HW142728   4.589   3.221   0.693
10283SOL    HW242729   4.527   3.336   0.769
10284SOL     OW42730   0.022   0.244  16.569
10284SOL    HW142731   4.783   0.329  16.542
10284SOL    HW242732   4.775   0.182  16.509
10285SOL     OW42733   2.157   1.235  12.924
10285SOL    HW142734   2.119   1.268  12.842
10285SOL    HW242735   2.210   1.308  12.956
10286SOL     OW42736   4.396   0.968   0.815
10286SOL    HW142737   4.358   1.051   0.783
10286SOL    HW242738   4.488   0.974   0.792
10287SOL     OW42739   0.198   1.156  12.133
10287SOL    HW142740   0.151   1.217  12.076
10287SOL    HW242741   0.206   1.076  12.081
10288SOL     OW42742   1.246   2.612  20.560
10288SOL    HW142743   1.160   2.586  20.592
10288SOL    HW242744   1.271   2.543  20.498
10289SOL     OW42745   3.986   4.022   2.153
10289SOL    HW142746   3.990   4.101   2.098
10289SOL    HW242747   4.063   4.028   2.209
10290SOL     OW42748   3.678   1.768   3.006
10290SOL    HW142749   3.601   1.825   3.003
10290SOL    HW242750   3.666   1.707   2.932
10291SOL     OW42751   0.360   1.287   3.944
10291SOL    HW142752   0.328   1.225   4.009
10291SOL    HW242753   0.310   1.367   3.961
10292SOL     OW42754   1.135   0.978  20.261
10292SOL    HW142755   1.052   0.937  20.237
10292SOL    HW242756   1.159   1.032  20.186
10293SOL     OW42757   3.634   4.415  20.991
10293SOL    HW142758   3.581   4.438  20.914
10293SOL    HW242759   3.705   4.480  20.991
10294SOL     OW42760   4.303   0.018  16.495
10294SOL    HW142761   4.231   0.015  16.558
10294SOL    HW242762   4.376   0.057  16.543
10295SOL     OW42763   3.238   2.827   1.081
10295SOL    HW142764   3.266   2.915   1.104
10295SOL    HW242765   3.185   2.797   1.155
10296SOL     OW42766   4.493   1.993  20.676
10296SOL    HW142767   4.537   2.003  20.761
10296SOL    HW242768   4.432   1.921  20.689
10297SOL     OW42769   0.522   3.573  19.213
10297SOL    HW142770   0.591   3.616  19.263
10297SOL    HW242771   0.445   3.575  19.270
10298SOL     OW42772   2.054   3.767  18.136
10298SOL    HW142773   2.138   3.736  18.102
10298SOL    HW242774   1.988   3.718  18.088
10299SOL     OW42775   3.518   3.336  15.896
10299SOL    HW142776   3.531   3.344  15.990
10299SOL    HW242777   3.427   3.307  15.887
10300SOL     OW42778   3.578   2.896   3.366
10300SOL    HW142779   3.596   2.889   3.460
10300SOL    HW242780   3.574   2.805   3.336
10301SOL     OW42781   4.179   1.447   4.239
10301SOL    HW142782   4.223   1.479   4.160
10301SOL    HW242783   4.224   1.365   4.259
10302SOL     OW42784   1.931   0.240  17.546
10302SOL    HW142785   1.991   0.309  17.574
10302SOL    HW242786   1.863   0.237  17.614
10303SOL     OW42787   4.402   4.370   1.977
10303SOL    HW142788   4.357   4.440   2.024
10303SOL    HW242789   4.338   4.299   1.974
10304SOL     OW42790   4.497   2.945   3.629
10304SOL    HW142791   4.445   3.025   3.641
10304SOL    HW242792   4.561   2.968   3.562
10305SOL     OW42793   1.691   2.999  11.972
10305SOL    HW142794   1.677   2.906  11.952
10305SOL    HW242795   1.786   3.008  11.979
10306SOL     OW42796   0.752   2.522  19.725
10306SOL    HW142797   0.692   2.586  19.688
10306SOL    HW242798   0.701   2.442  19.733
10307SOL     OW42799   4.479   3.501   5.107
10307SOL    HW142800   4.392   3.515   5.145
10307SOL    HW242801   4.463   3.450   5.028
10308SOL     OW42802   1.647   1.512   5.289
10308SOL    HW142803   1.726   1.525   5.340
10308SOL    HW242804   1.678   1.483   5.203
10309SOL     OW42805   1.384   0.596  15.623
10309SOL    HW142806   1.367   0.646  15.703
10309SOL    HW242807   1.473   0.621  15.598
10310SOL     OW42808   1.886   0.707  16.996
10310SOL    HW142809   1.791   0.713  17.004
10310SOL    HW242810   1.912   0.646  17.064
10311SOL     OW42811   2.535   0.923   9.665
10311SOL    HW142812   2.586   0.855   9.622
10311SOL    HW242813   2.597   0.994   9.680
10312SOL     OW42814   2.376   2.706  17.469
10312SOL    HW142815   2.368   2.784  17.415
10312SOL    HW242816   2.444   2.728  17.533
10313SOL     OW42817   4.347   4.599  17.354
10313SOL    HW142818   4.329   4.620  17.446
10313SOL    HW242819   4.348   4.503  17.352
10314SOL     OW42820   1.253   4.752  16.183
10314SOL    HW142821   1.279   0.041  16.143
10314SOL    HW242822   1.159   4.746  16.166
10315SOL     OW42823   3.674   2.449   1.254
10315SOL    HW142824   3.626   2.495   1.185
10315SOL    HW242825   3.735   2.392   1.207
10316SOL     OW42826   2.965   3.989  17.311
10316SOL    HW142827   2.898   4.057  17.311
10316SOL    HW242828   2.967   3.957  17.401
10317SOL     OW42829   3.029   1.333  20.110
10317SOL    HW142830   3.094   1.298  20.050
10317SOL    HW242831   3.080   1.368  20.183
10318SOL     OW42832   3.514   4.504   0.497
10318SOL    HW142833   3.495   4.414   0.523
10318SOL    HW242834   3.579   4.496   0.427
10319SOL     OW42835   1.003   2.250   5.182
10319SOL    HW142836   0.976   2.291   5.100
10319SOL    HW242837   0.958   2.299   5.250
10320SOL     OW42838   1.523   0.975   2.420
10320SOL    HW142839   1.477   0.979   2.504
10320SOL    HW242840   1.554   1.064   2.406
10321SOL     OW42841   1.525   1.453   0.898
10321SOL    HW142842   1.494   1.479   0.812
10321SOL    HW242843   1.447   1.453   0.954
10322SOL     OW42844   1.418   1.204  19.770
10322SOL    HW142845   1.463   1.261  19.708
10322SOL    HW242846   1.474   1.127  19.777
10323SOL     OW42847   1.510   2.541  16.719
10323SOL    HW142848   1.537   2.460  16.763
10323SOL    HW242849   1.571   2.549  16.645
10324SOL     OW42850   2.529   3.819   1.898
10324SOL    HW142851   2.582   3.782   1.969
10324SOL    HW242852   2.578   3.896   1.870
10325SOL     OW42853   2.252   2.725   5.185
10325SOL    HW142854   2.185   2.689   5.243
10325SOL    HW242855   2.205   2.788   5.130
10326SOL     OW42856   0.445   3.985   8.163
10326SOL    HW142857   0.438   3.993   8.068
10326SOL    HW242858   0.526   4.030   8.185
10327SOL     OW42859   3.962   0.339   1.679
10327SOL    HW142860   4.047   0.352   1.638
10327SOL    HW242861   3.921   0.269   1.627
10328SOL     OW42862   0.394   2.586   3.505
10328SOL    HW142863   0.367   2.589   3.597
10328SOL    HW242864   0.381   2.494   3.480
10329SOL     OW42865   3.670   0.254  19.097
10329SOL    HW142866   3.673   0.192  19.024
10329SOL    HW242867   3.591   0.306  19.081
10330SOL     OW42868   0.769   3.456  15.431
10330SOL    HW142869   0.754   3.394  15.502
10330SOL    HW242870   0.856   3.433  15.396
10331SOL     OW42871   0.079   3.587  13.820
10331SOL    HW142872   0.035   3.584  13.905
10331SOL    HW242873   0.018   3.543  13.760
10332SOL     OW42874   1.091   4.647   6.288
10332SOL    HW142875   1.083   4.606   6.202
10332SOL    HW242876   1.176   4.692   6.285
10333SOL     OW42877   2.645   4.170   6.775
10333SOL    HW142878   2.673   4.261   6.762
10333SOL    HW242879   2.727   4.122   6.787
10334SOL     OW42880   4.187   3.171   8.434
10334SOL    HW142881   4.174   3.257   8.395
10334SOL    HW242882   4.146   3.110   8.371
10335SOL     OW42883   4.145   3.113  15.488
10335SOL    HW142884   4.144   3.142  15.397
10335SOL    HW242885   4.154   3.018  15.483
10336SOL     OW42886   0.268   0.598  15.674
10336SOL    HW142887   0.174   0.601  15.653
10336SOL    HW242888   0.312   0.610  15.590
10337SOL     OW42889   4.488   3.098   3.997
10337SOL    HW142890   4.423   3.069   3.934
10337SOL    HW242891   4.539   3.164   3.950
10338SOL     OW42892   1.637   2.927   3.327
10338SOL    HW142893   1.608   2.990   3.261
10338SOL    HW242894   1.557   2.899   3.371
10339SOL     OW42895   0.204   4.632   6.114
10339SOL    HW142896   0.186   4.547   6.155
10339SOL    HW242897   0.255   4.680   6.179
10340SOL     OW42898   2.304   4.291   3.310
10340SOL    HW142899   2.359   4.359   3.349
10340SOL    HW242900   2.215   4.316   3.333
10341SOL     OW42901   1.395   3.192   5.440
10341SOL    HW142902   1.328   3.152   5.384
10341SOL    HW242903   1.457   3.121   5.457
10342SOL     OW42904   2.556   1.258   1.287
10342SOL    HW142905   2.488   1.286   1.348
10342SOL    HW242906   2.516   1.264   1.200
10343SOL     OW42907   0.177   3.863   6.717
10343SOL    HW142908   0.094   3.840   6.759
10343SOL    HW242909   0.244   3.821   6.772
10344SOL     OW42910   1.346   0.910   1.400
10344SOL    HW142911   1.302   0.992   1.380
10344SOL    HW242912   1.429   0.915   1.352
10345SOL     OW42913   1.499   2.108  18.036
10345SOL    HW142914   1.496   2.079  17.945
10345SOL    HW242915   1.419   2.159  18.048
10346SOL     OW42916   1.262   4.183   1.558
10346SOL    HW142917   1.316   4.137   1.623
10346SOL    HW242918   1.297   4.154   1.473
10347SOL     OW42919   0.408   0.880   2.142
10347SOL    HW142920   0.491   0.905   2.102
10347SOL    HW242921   0.426   0.880   2.236
10348SOL     OW42922   3.971   1.772   2.620
10348SOL    HW142923   3.892   1.790   2.570
10348SOL    HW242924   3.992   1.854   2.664
10349SOL     OW42925   2.193   3.159  18.796
10349SOL    HW142926   2.176   3.164  18.890
10349SOL    HW242927   2.259   3.226  18.780
10350SOL     OW42928   1.123   1.655  17.208
10350SOL    HW142929   1.123   1.748  17.233
10350SOL    HW242930   1.169   1.653  17.125
10351SOL     OW42931   4.230   0.007  18.310
10351SOL    HW142932   4.227   4.749  18.229
10351SOL    HW242933   4.159   0.070  18.300
10352SOL     OW42934   0.471   0.764  18.118
10352SOL    HW142935   0.434   0.702  18.180
10352SOL    HW242936   0.435   0.738  18.033
10353SOL     OW42937   2.479   1.839   3.247
10353SOL    HW142938   2.471   1.744   3.244
10353SOL    HW242939   2.454   1.862   3.337
10354SOL     OW42940   0.761   1.670   4.465
10354SOL    HW142941   0.741   1.709   4.380
10354SOL    HW242942   0.717   1.585   4.463
10355SOL     OW42943   2.099   2.636   3.683
10355SOL    HW142944   2.099   2.543   3.708
10355SOL    HW242945   2.178   2.647   3.631
10356SOL     OW42946   0.202   0.111  16.722
10356SOL    HW142947   0.132   0.163  16.682
10356SOL    HW242948   0.282   0.159  16.702
10357SOL     OW42949   3.410   3.823  15.418
10357SOL    HW142950   3.456   3.795  15.339
10357SOL    HW242951   3.428   3.753  15.481
10358SOL     OW42952   2.485   4.108   5.846
10358SOL    HW142953   2.478   4.153   5.762
10358SOL    HW242954   2.482   4.015   5.824
10359SOL     OW42955   2.004   2.496  20.867
10359SOL    HW142956   1.911   2.473  20.871
10359SOL    HW242957   2.042   2.450  20.942
10360SOL     OW42958   3.218   2.800  19.650
10360SOL    HW142959   3.281   2.871  19.637
10360SOL    HW242960   3.247   2.756  19.730
10361SOL     OW42961   1.410   4.790   5.445
10361SOL    HW142962   1.438   4.750   5.527
10361SOL    HW242963   1.451   4.737   5.376
10362SOL     OW42964   4.021   0.095   5.898
10362SOL    HW142965   3.971   0.098   5.817
10362SOL    HW242966   3.957   0.116   5.966
10363SOL     OW42967   2.651   3.830  19.054
10363SOL    HW142968   2.736   3.794  19.026
10363SOL    HW242969   2.658   3.838  19.149
10364SOL     OW42970   4.028   2.949  19.779
10364SOL    HW142971   3.945   2.908  19.803
10364SOL    HW242972   4.021   2.963  19.685
10365SOL     OW42973   0.770   3.324  21.017
10365SOL    HW142974   0.823   3.378  20.959
10365SOL    HW242975   0.766   3.374  21.099
10366SOL     OW42976   3.452   2.974  15.026
10366SOL    HW142977   3.457   3.025  14.945
10366SOL    HW242978   3.377   2.916  15.012
10367SOL     OW42979   2.866   0.743   5.991
10367SOL    HW142980   2.951   0.779   5.964
10367SOL    HW242981   2.888   0.675   6.055
10368SOL     OW42982   0.995   1.907  18.885
10368SOL    HW142983   0.921   1.858  18.919
10368SOL    HW242984   0.996   1.987  18.937
10369SOL     OW42985   2.391   0.034  19.318
10369SOL    HW142986   2.380   4.752  19.261
10369SOL    HW242987   2.467   0.080  19.282
10370SOL     OW42988   4.442   1.086  18.456
10370SOL    HW142989   4.359   1.058  18.419
10370SOL    HW242990   4.464   1.018  18.520
10371SOL     OW42991   2.493   4.074  16.790
10371SOL    HW142992   2.413   4.108  16.830
10371SOL    HW242993   2.539   4.152  16.759
10372SOL     OW42994   4.645   3.357   4.247
10372SOL    HW142995   4.681   3.314   4.325
10372SOL    HW242996   4.706   3.334   4.177
10373SOL     OW42997   4.324   3.030   2.270
10373SOL    HW142998   4.415   3.026   2.240
10373SOL    HW242999   4.328   3.002   2.361
10374SOL     OW43000   2.468   4.129  15.782
10374SOL    HW143001   2.444   4.037  15.782
10374SOL    HW243002   2.541   4.135  15.720
10375SOL     OW43003   1.096   1.555   0.536
10375SOL    HW143004   1.048   1.481   0.499
10375SOL    HW243005   1.185   1.547   0.503
10376SOL     OW43006   0.169   3.846  20.490
10376SOL    HW143007   0.192   3.783  20.559
10376SOL    HW243008   0.181   3.798  20.408
10377SOL     OW43009   3.355   2.797   8.145
10377SOL    HW143010   3.356   2.893   8.134
10377SOL    HW243011   3.271   2.770   8.108
10378SOL     OW43012   0.030   3.128   4.235
10378SOL    HW143013   4.760   3.060   4.257
10378SOL    HW243014   0.087   3.087   4.169
10379SOL     OW43015   3.687   1.011  18.063
10379SOL    HW143016   3.678   0.947  17.992
10379SOL    HW243017   3.706   1.093  18.019
10380SOL     OW43018   4.203   2.348   2.538
10380SOL    HW143019   4.268   2.399   2.587
10380SOL    HW243020   4.179   2.404   2.464
10381SOL     OW43021   0.877   1.678  19.760
10381SOL    HW143022   0.947   1.618  19.734
10381SOL    HW243023   0.810   1.668  19.691
10382SOL     OW43024   1.823   2.744  17.804
10382SOL    HW143025   1.758   2.694  17.852
10382SOL    HW243026   1.862   2.803  17.869
10383SOL     OW43027   0.675   0.084  18.310
10383SOL    HW143028   0.726   0.158  18.343
10383SOL    HW243029   0.741   0.023  18.277
10384SOL     OW43030   3.584   1.198  20.062
10384SOL    HW143031   3.575   1.170  19.971
10384SOL    HW243032   3.503   1.245  20.081
10385SOL     OW43033   4.277   1.696  17.057
10385SOL    HW143034   4.305   1.764  16.996
10385SOL    HW243035   4.294   1.732  17.144
10386SOL     OW43036   4.684   3.647   1.084
10386SOL    HW143037   4.651   3.728   1.046
10386SOL    HW243038   4.639   3.640   1.168
10387SOL     OW43039   0.542   4.692  14.153
10387SOL    HW143040   0.553   4.598  14.142
10387SOL    HW243041   0.489   4.702  14.232
10388SOL     OW43042   3.780   2.178  19.769
10388SOL    HW143043   3.809   2.211  19.853
10388SOL    HW243044   3.812   2.088  19.766
10389SOL     OW43045   1.708   2.046   5.956
10389SOL    HW143046   1.709   2.064   5.862
10389SOL    HW243047   1.660   2.119   5.994
10390SOL     OW43048   2.695   1.164  14.892
10390SOL    HW143049   2.745   1.203  14.963
10390SOL    HW243050   2.723   1.212  14.814
10391SOL     OW43051   0.884   4.173   1.336
10391SOL    HW143052   0.872   4.255   1.287
10391SOL    HW243053   0.806   4.166   1.390
10392SOL     OW43054   1.155   4.496  15.290
10392SOL    HW143055   1.223   4.457  15.345
10392SOL    HW243056   1.174   4.464  15.202
10393SOL     OW43057   1.081   2.688  14.735
10393SOL    HW143058   1.161   2.734  14.761
10393SOL    HW243059   1.011   2.751  14.749
10394SOL     OW43060   1.911   2.498  15.861
10394SOL    HW143061   1.874   2.418  15.824
10394SOL    HW243062   1.893   2.566  15.796
10395SOL     OW43063   0.680   2.095   6.071
10395SOL    HW143064   0.641   2.135   5.992
10395SOL    HW243065   0.615   2.031   6.100
10396SOL     OW43066   2.936   2.747   2.432
10396SOL    HW143067   2.861   2.758   2.374
10396SOL    HW243068   2.995   2.689   2.385
10397SOL     OW43069   2.635   0.805   0.411
10397SOL    HW143070   2.593   0.824   0.328
10397SOL    HW243071   2.723   0.774   0.387
10398SOL     OW43072   0.224   3.035   0.998
10398SOL    HW143073   0.273   3.099   1.050
10398SOL    HW243074   0.182   2.978   1.063
10399SOL     OW43075   4.783   1.153  20.920
10399SOL    HW143076   0.068   1.158  20.974
10399SOL    HW243077   4.770   1.059  20.906
10400SOL     OW43078   3.013   3.716  18.781
10400SOL    HW143079   2.953   3.717  18.855
10400SOL    HW243080   3.040   3.808  18.771
10401SOL     OW43081   3.993   4.451  17.339
10401SOL    HW143082   3.996   4.372  17.392
10401SOL    HW243083   4.084   4.475  17.326
10402SOL     OW43084   4.062   1.162   5.403
10402SOL    HW143085   4.138   1.197   5.448
10402SOL    HW243086   4.022   1.238   5.361
10403SOL     OW43087   0.590   1.131  18.141
10403SOL    HW143088   0.598   1.161  18.050
10403SOL    HW243089   0.674   1.155  18.181
10404SOL     OW43090   4.590   0.776  19.669
10404SOL    HW143091   4.677   0.777  19.709
10404SOL    HW243092   4.560   0.686  19.679
10405SOL     OW43093   1.231   0.637   0.307
10405SOL    HW143094   1.137   0.653   0.317
10405SOL    HW243095   1.269   0.724   0.290
10406SOL     OW43096   3.354   3.203   3.498
10406SOL    HW143097   3.273   3.233   3.458
10406SOL    HW243098   3.382   3.130   3.444
10407SOL     OW43099   1.520   4.669  13.960
10407SOL    HW143100   1.486   4.684  14.049
10407SOL    HW243101   1.442   4.675  13.904
10408SOL     OW43102   3.745   2.113   6.643
10408SOL    HW143103   3.657   2.083   6.622
10408SOL    HW243104   3.732   2.189   6.698
10409SOL     OW43105   1.801   2.258   2.348
10409SOL    HW143106   1.735   2.322   2.376
10409SOL    HW243107   1.868   2.260   2.417
10410SOL     OW43108   2.678   1.889  17.581
10410SOL    HW143109   2.662   1.955  17.514
10410SOL    HW243110   2.629   1.918  17.657
10411SOL     OW43111   0.760   2.386  17.259
10411SOL    HW143112   0.710   2.448  17.207
10411SOL    HW243113   0.775   2.312  17.201
10412SOL     OW43114   2.660   4.208  19.181
10412SOL    HW143115   2.630   4.180  19.095
10412SOL    HW243116   2.607   4.285  19.202
10413SOL     OW43117   2.285   4.671  19.111
10413SOL    HW143118   2.329   4.705  19.033
10413SOL    HW243119   2.278   4.577  19.097
10414SOL     OW43120   2.154   0.342   5.239
10414SOL    HW143121   2.067   0.357   5.202
10414SOL    HW243122   2.193   0.429   5.248
10415SOL     OW43123   0.622   2.791   0.707
10415SOL    HW143124   0.690   2.725   0.720
10415SOL    HW243125   0.612   2.798   0.612
10416SOL     OW43126   1.381   1.576   4.746
10416SOL    HW143127   1.374   1.587   4.841
10416SOL    HW243128   1.291   1.586   4.714
10417SOL     OW43129   2.884   0.944   9.182
10417SOL    HW143130   2.802   0.993   9.191
10417SOL    HW243131   2.939   0.975   9.254
10418SOL     OW43132   3.260   2.583   1.810
10418SOL    HW143133   3.194   2.649   1.827
10418SOL    HW243134   3.227   2.503   1.851
10419SOL     OW43135   4.705   1.459   4.878
10419SOL    HW143136   4.730   1.525   4.814
10419SOL    HW243137   4.712   1.502   4.963
10420SOL     OW43138   3.625   3.351  19.017
10420SOL    HW143139   3.594   3.440  19.034
10420SOL    HW243140   3.595   3.300  19.093
10421SOL     OW43141   1.161   4.346  18.251
10421SOL    HW143142   1.068   4.366  18.237
10421SOL    HW243143   1.161   4.260  18.294
10422SOL     OW43144   2.772   2.964  19.796
10422SOL    HW143145   2.799   2.948  19.705
10422SOL    HW243146   2.678   2.951  19.796
10423SOL     OW43147   3.844   3.343   0.227
10423SOL    HW143148   3.932   3.372   0.250
10423SOL    HW243149   3.856   3.251   0.202
10424SOL     OW43150   2.736   2.582   5.407
10424SOL    HW143151   2.826   2.610   5.421
10424SOL    HW243152   2.720   2.599   5.314
10425SOL     OW43153   0.642   4.489   3.603
10425SOL    HW143154   0.666   4.573   3.564
10425SOL    HW243155   0.666   4.498   3.696
10426SOL     OW43156   3.425   0.347  20.608
10426SOL    HW143157   3.490   0.403  20.651
10426SOL    HW243158   3.455   0.343  20.517
10427SOL     OW43159   4.148   1.636  20.115
10427SOL    HW143160   4.232   1.672  20.145
10427SOL    HW243161   4.085   1.661  20.183
10428SOL     OW43162   0.097   3.813   2.747
10428SOL    HW143163   0.129   3.899   2.772
10428SOL    HW243164   0.117   3.757   2.823
10429SOL     OW43165   2.588   0.222  15.626
10429SOL    HW143166   2.560   0.307  15.592
10429SOL    HW243167   2.530   0.159  15.585
10430SOL     OW43168   0.244   4.330  17.596
10430SOL    HW143169   0.332   4.295  17.578
10430SOL    HW243170   0.207   4.269  17.661
10431SOL     OW43171   1.886   4.056   2.888
10431SOL    HW143172   1.914   4.103   2.809
10431SOL    HW243173   1.889   3.964   2.863
10432SOL     OW43174   3.810   3.404  18.717
10432SOL    HW143175   3.844   3.441  18.798
10432SOL    HW243176   3.724   3.444  18.706
10433SOL     OW43177   1.463   3.439  16.761
10433SOL    HW143178   1.370   3.442  16.737
10433SOL    HW243179   1.473   3.356  16.807
10434SOL     OW43180   1.584   3.107   2.394
10434SOL    HW143181   1.520   3.078   2.330
10434SOL    HW243182   1.555   3.068   2.476
10435SOL     OW43183   4.542   3.193  19.234
10435SOL    HW143184   4.511   3.248  19.306
10435SOL    HW243185   4.531   3.247  19.156
10436SOL     OW43186   2.532   4.532   5.481
10436SOL    HW143187   2.509   4.514   5.572
10436SOL    HW243188   2.627   4.535   5.480
10437SOL     OW43189   2.454   0.959  20.090
10437SOL    HW143190   2.459   0.988  20.181
10437SOL    HW243191   2.486   0.869  20.092
10438SOL     OW43192   0.828   4.102   0.320
10438SOL    HW143193   0.750   4.147   0.351
10438SOL    HW243194   0.796   4.017   0.291
10439SOL     OW43195   0.812   4.061  13.668
10439SOL    HW143196   0.876   4.102  13.610
10439SOL    HW243197   0.774   3.990  13.615
10440SOL     OW43198   1.430   0.126   1.049
10440SOL    HW143199   1.456   0.067   0.979
10440SOL    HW243200   1.462   0.086   1.129
10441SOL     OW43201   2.213   2.971  18.235
10441SOL    HW143202   2.190   2.884  18.269
10441SOL    HW243203   2.149   3.030  18.275
10442SOL     OW43204   3.474   1.161  16.394
10442SOL    HW143205   3.437   1.181  16.308
10442SOL    HW243206   3.493   1.246  16.432
10443SOL     OW43207   1.336   2.595   5.652
10443SOL    HW143208   1.426   2.613   5.626
10443SOL    HW243209   1.324   2.643   5.734
10444SOL     OW43210   2.979   4.313  17.087
10444SOL    HW143211   2.933   4.393  17.061
10444SOL    HW243212   3.066   4.343  17.113
10445SOL     OW43213   1.980   3.116  20.015
10445SOL    HW143214   1.898   3.084  20.053
10445SOL    HW243215   1.967   3.107  19.920
10446SOL     OW43216   3.721   0.154  17.292
10446SOL    HW143217   3.642   0.117  17.253
10446SOL    HW243218   3.785   0.083  17.290
10447SOL     OW43219   0.659   1.790  18.201
10447SOL    HW143220   0.684   1.720  18.140
10447SOL    HW243221   0.636   1.864  18.145
10448SOL     OW43222   0.924   1.515  20.305
10448SOL    HW143223   0.988   1.457  20.346
10448SOL    HW243224   0.848   1.512  20.363
10449SOL     OW43225   4.500   0.510  16.673
10449SOL    HW143226   4.463   0.545  16.592
10449SOL    HW243227   4.432   0.526  16.739
10450SOL     OW43228   3.239   0.136  18.550
10450SOL    HW143229   3.201   0.050  18.565
10450SOL    HW243230   3.333   0.121  18.545
10451SOL     OW43231   2.305   3.444   8.040
10451SOL    HW143232   2.251   3.457   8.117
10451SOL    HW243233   2.242   3.436   7.968
10452SOL     OW43234   1.355   3.754   0.541
10452SOL    HW143235   1.309   3.764   0.625
10452SOL    HW243236   1.422   3.822   0.541
10453SOL     OW43237   3.438   4.151  20.587
10453SOL    HW143238   3.456   4.228  20.532
10453SOL    HW243239   3.441   4.077  20.527
10454SOL     OW43240   0.804   3.042  19.643
10454SOL    HW143241   0.838   3.123  19.605
10454SOL    HW243242   0.759   2.997  19.571
10455SOL     OW43243   2.258   3.842  16.164
10455SOL    HW143244   2.315   3.898  16.112
10455SOL    HW243245   2.185   3.899  16.190
10456SOL     OW43246   2.369   0.865   5.199
10456SOL    HW143247   2.346   0.894   5.287
10456SOL    HW243248   2.289   0.824   5.166
10457SOL     OW43249   2.559   2.165  18.532
10457SOL    HW143250   2.629   2.207  18.583
10457SOL    HW243251   2.543   2.224  18.459
10458SOL     OW43252   2.333   1.730   4.104
10458SOL    HW143253   2.289   1.811   4.079
10458SOL    HW243254   2.331   1.730   4.200
10459SOL     OW43255   3.691   1.257   2.448
10459SOL    HW143256   3.629   1.318   2.487
10459SOL    HW243257   3.754   1.312   2.402
10460SOL     OW43258   0.017   2.580   1.462
10460SOL    HW143259   0.070   2.537   1.395
10460SOL    HW243260   4.726   2.537   1.457
10461SOL     OW43261   3.330   3.334   1.300
10461SOL    HW143262   3.416   3.313   1.263
10461SOL    HW243263   3.322   3.277   1.376
10462SOL     OW43264   0.237   3.988  17.019
10462SOL    HW143265   0.199   4.067  16.980
10462SOL    HW243266   0.327   3.986  16.986
10463SOL     OW43267   2.251   0.116   2.611
10463SOL    HW143268   2.268   0.190   2.553
10463SOL    HW243269   2.156   0.105   2.609
10464SOL     OW43270   2.336   2.004   3.092
10464SOL    HW143271   2.371   1.927   3.136
10464SOL    HW243272   2.387   2.009   3.010
10465SOL     OW43273   0.003   2.628  19.132
10465SOL    HW143274   0.049   2.666  19.058
10465SOL    HW243275   4.774   2.540  19.104
10466SOL     OW43276   1.544   2.840  14.277
10466SOL    HW143277   1.579   2.753  14.255
10466SOL    HW243278   1.508   2.873  14.195
10467SOL     OW43279   3.345   1.325  17.129
10467SOL    HW143280   3.288   1.401  17.120
10467SOL    HW243281   3.340   1.302  17.222
10468SOL     OW43282   3.864   3.533   7.541
10468SOL    HW143283   3.890   3.624   7.523
10468SOL    HW243284   3.786   3.541   7.595
10469SOL     OW43285   1.311   4.639   3.527
10469SOL    HW143286   1.359   4.626   3.608
10469SOL    HW243287   1.378   4.666   3.463
10470SOL     OW43288   3.373   0.849  15.722
10470SOL    HW143289   3.388   0.899  15.641
10470SOL    HW243290   3.318   0.907  15.776
10471SOL     OW43291   0.956   2.617  15.232
10471SOL    HW143292   0.867   2.643  15.208
10471SOL    HW243293   0.944   2.558  15.306
10472SOL     OW43294   4.325   0.997  15.724
10472SOL    HW143295   4.404   1.005  15.671
10472SOL    HW243296   4.332   1.068  15.787
10473SOL     OW43297   4.637   0.008  11.755
10473SOL    HW143298   4.596   4.736  11.811
10473SOL    HW243299   4.564   0.051  11.711
10474SOL     OW43300   0.331   0.530  18.263
10474SOL    HW143301   0.285   0.582  18.328
10474SOL    HW243302   0.387   0.471  18.313
10475SOL     OW43303   0.198   0.380   0.263
10475SOL    HW143304   0.140   0.315   0.222
10475SOL    HW243305   0.140   0.452   0.287
10476SOL     OW43306   3.706   3.146  20.461
10476SOL    HW143307   3.747   3.112  20.540
10476SOL    HW243308   3.722   3.079  20.395
10477SOL     OW43309   0.100   1.364   0.415
10477SOL    HW143310   0.065   1.434   0.470
10477SOL    HW243311   0.043   1.289   0.432
10478SOL     OW43312   0.990   1.798   1.531
10478SOL    HW143313   1.084   1.817   1.527
10478SOL    HW243314   0.961   1.796   1.440
10479SOL     OW43315   4.272   2.637   5.558
10479SOL    HW143316   4.200   2.598   5.509
10479SOL    HW243317   4.297   2.714   5.507
10480SOL     OW43318   2.764   3.250  19.655
10480SOL    HW143319   2.723   3.245  19.742
10480SOL    HW243320   2.834   3.186  19.658
10481SOL     OW43321   2.775   3.790  16.384
10481SOL    HW143322   2.768   3.708  16.335
10481SOL    HW243323   2.868   3.810  16.385
10482SOL     OW43324   3.060   1.081  19.061
10482SOL    HW143325   3.096   1.097  19.148
10482SOL    HW243326   3.038   0.988  19.060
10483SOL     OW43327   4.059   0.866  15.595
10483SOL    HW143328   4.000   0.814  15.649
10483SOL    HW243329   4.110   0.917  15.658
10484SOL     OW43330   3.764   1.395   4.991
10484SOL    HW143331   3.844   1.445   5.010
10484SOL    HW243332   3.762   1.388   4.895
10485SOL     OW43333   3.306   3.849  17.371
10485SOL    HW143334   3.231   3.836  17.429
10485SOL    HW243335   3.268   3.867  17.286
10486SOL     OW43336   2.695   3.438  20.583
10486SOL    HW143337   2.783   3.418  20.551
10486SOL    HW243338   2.672   3.521  20.543
10487SOL     OW43339   3.911   0.409   8.286
10487SOL    HW143340   3.948   0.327   8.319
10487SOL    HW243341   3.958   0.478   8.334
10488SOL     OW43342   4.604   1.788  16.795
10488SOL    HW143343   4.639   1.807  16.882
10488SOL    HW243344   4.509   1.790  16.807
10489SOL     OW43345   2.150   3.117   0.395
10489SOL    HW143346   2.244   3.115   0.383
10489SOL    HW243347   2.120   3.030   0.369
10490SOL     OW43348   2.275   3.435   0.922
10490SOL    HW143349   2.251   3.359   0.868
10490SOL    HW243350   2.341   3.481   0.870
10491SOL     OW43351   0.581   0.420  18.095
10491SOL    HW143352   0.527   0.443  18.170
10491SOL    HW243353   0.666   0.396  18.133
10492SOL     OW43354   4.787   4.430  18.806
10492SOL    HW143355   0.062   4.410  18.870
10492SOL    HW243356   4.722   4.361  18.820
10493SOL     OW43357   2.403   4.265   2.472
10493SOL    HW143358   2.368   4.240   2.558
10493SOL    HW243359   2.464   4.194   2.450
10494SOL     OW43360   1.124   0.925   6.784
10494SOL    HW143361   1.033   0.899   6.800
10494SOL    HW243362   1.149   0.974   6.861
10495SOL     OW43363   0.455   1.354   2.536
10495SOL    HW143364   0.510   1.417   2.489
10495SOL    HW243365   0.375   1.402   2.555
10496SOL     OW43366   2.021   3.378   3.324
10496SOL    HW143367   2.000   3.451   3.266
10496SOL    HW243368   2.099   3.339   3.286
10497SOL     OW43369   1.745   2.254   2.719
10497SOL    HW143370   1.803   2.242   2.643
10497SOL    HW243371   1.657   2.251   2.682
10498SOL     OW43372   0.895   4.638   5.539
10498SOL    HW143373   0.929   4.700   5.604
10498SOL    HW243374   0.920   4.552   5.573
10499SOL     OW43375   0.823   2.951  20.003
10499SOL    HW143376   0.789   2.891  20.070
10499SOL    HW243377   0.896   2.996  20.046
10500SOL     OW43378   2.648   0.155  19.305
10500SOL    HW143379   2.693   0.106  19.375
10500SOL    HW243380   2.719   0.198  19.257
10501SOL     OW43381   3.642   4.634   7.730
10501SOL    HW143382   3.578   4.567   7.756
10501SOL    HW243383   3.726   4.600   7.760
10502SOL     OW43384   0.475   0.631  19.158
10502SOL    HW143385   0.411   0.627  19.229
10502SOL    HW243386   0.536   0.559  19.177
10503SOL     OW43387   4.282   0.683   1.152
10503SOL    HW143388   4.259   0.775   1.143
10503SOL    HW243389   4.375   0.679   1.129
10504SOL     OW43390   4.721   4.532   3.317
10504SOL    HW143391   4.642   4.580   3.344
10504SOL    HW243392   4.710   4.445   3.354
10505SOL     OW43393   1.795   3.305  17.319
10505SOL    HW143394   1.767   3.264  17.401
10505SOL    HW243395   1.791   3.234  17.254
10506SOL     OW43396   1.670   2.900   3.946
10506SOL    HW143397   1.696   2.990   3.967
10506SOL    HW243398   1.698   2.886   3.856
10507SOL     OW43399   0.236   3.987   5.341
10507SOL    HW143400   0.199   4.066   5.381
10507SOL    HW243401   0.192   3.915   5.385
10508SOL     OW43402   2.324   1.257  11.795
10508SOL    HW143403   2.239   1.255  11.751
10508SOL    HW243404   2.318   1.329  11.858
10509SOL     OW43405   4.244   4.684  19.167
10509SOL    HW143406   4.237   4.599  19.125
10509SOL    HW243407   4.165   4.692  19.220
10510SOL     OW43408   0.461   4.396  13.559
10510SOL    HW143409   0.403   4.324  13.587
10510SOL    HW243410   0.515   4.357  13.491
10511SOL     OW43411   3.291   4.739   4.509
10511SOL    HW143412   3.280   0.021   4.453
10511SOL    HW243413   3.366   4.760   4.565
10512SOL     OW43414   0.386   3.358  20.620
10512SOL    HW143415   0.451   3.318  20.562
10512SOL    HW243416   0.307   3.305  20.607
10513SOL     OW43417   4.739   4.543  18.165
10513SOL    HW143418   0.004   4.484  18.118
10513SOL    HW243419   4.785   4.627  18.166
10514SOL     OW43420   2.831   2.952   3.782
10514SOL    HW143421   2.759   2.890   3.771
10514SOL    HW243422   2.900   2.920   3.724
10515SOL     OW43423   2.922   1.542   1.543
10515SOL    HW143424   2.857   1.584   1.599
10515SOL    HW243425   2.870   1.491   1.481
10516SOL     OW43426   0.464   3.724  20.778
10516SOL    HW143427   0.390   3.777  20.751
10516SOL    HW243428   0.428   3.636  20.791
10517SOL     OW43429   2.402   3.672   0.404
10517SOL    HW143430   2.468   3.724   0.451
10517SOL    HW243431   2.338   3.735   0.374
10518SOL     OW43432   1.707   3.329   4.485
10518SOL    HW143433   1.684   3.265   4.553
10518SOL    HW243434   1.659   3.408   4.509
10519SOL     OW43435   1.678   4.578   2.169
10519SOL    HW143436   1.757   4.534   2.200
10519SOL    HW243437   1.617   4.507   2.151
10520SOL     OW43438   1.900   3.789  19.676
10520SOL    HW143439   1.924   3.861  19.618
10520SOL    HW243440   1.805   3.795  19.685
10521SOL     OW43441   2.174   1.777  16.907
10521SOL    HW143442   2.192   1.871  16.904
10521SOL    HW243443   2.199   1.744  16.821
10522SOL     OW43444   0.246   0.037   2.063
10522SOL    HW143445   0.190   0.034   1.985
10522SOL    HW243446   0.187   0.059   2.135
10523SOL     OW43447   3.940   3.662   1.972
10523SOL    HW143448   3.871   3.595   1.970
10523SOL    HW243449   3.926   3.708   2.055
10524SOL     OW43450   0.018   0.588   6.029
10524SOL    HW143451   0.044   0.564   5.941
10524SOL    HW243452   4.717   0.596   6.024
10525SOL     OW43453   2.196   0.671  18.132
10525SOL    HW143454   2.111   0.632  18.151
10525SOL    HW243455   2.184   0.765  18.147
10526SOL     OW43456   4.447   1.356   1.861
10526SOL    HW143457   4.387   1.281   1.857
10526SOL    HW243458   4.457   1.383   1.770
10527SOL     OW43459   3.660   1.845  20.929
10527SOL    HW143460   3.707   1.771  20.969
10527SOL    HW243461   3.568   1.826  20.944
10528SOL     OW43462   2.209   1.235  20.444
10528SOL    HW143463   2.220   1.310  20.502
10528SOL    HW243464   2.192   1.162  20.504
10529SOL     OW43465   0.076   2.075  16.074
10529SOL    HW143466   0.034   2.005  16.024
10529SOL    HW243467   0.007   2.112  16.127
10530SOL     OW43468   1.372   2.217   1.874
10530SOL    HW143469   1.280   2.216   1.847
10530SOL    HW243470   1.375   2.285   1.942
10531SOL     OW43471   1.175   3.639   5.167
10531SOL    HW143472   1.225   3.719   5.182
10531SOL    HW243473   1.123   3.657   5.089
10532SOL     OW43474   4.792   4.220   5.905
10532SOL    HW143475   0.071   4.276   5.880
10532SOL    HW243476   4.740   4.275   5.964
10533SOL     OW43477   2.064   1.267  11.713
10533SOL    HW143478   2.060   1.307  11.800
10533SOL    HW243479   1.974   1.238  11.696
10534SOL     OW43480   0.310   2.530   4.697
10534SOL    HW143481   0.252   2.468   4.742
10534SOL    HW243482   0.396   2.488   4.700
10535SOL     OW43483   0.194   2.993   4.689
10535SOL    HW143484   0.236   2.915   4.726
10535SOL    HW243485   0.264   3.058   4.685
10536SOL     OW43486   4.258   0.966   1.090
10536SOL    HW143487   4.307   1.003   1.164
10536SOL    HW243488   4.318   0.973   1.016
10537SOL     OW43489   0.359   2.893   0.285
10537SOL    HW143490   0.374   2.988   0.289
10537SOL    HW243491   0.374   2.871   0.193
10538SOL     OW43492   4.189   0.071  20.417
10538SOL    HW143493   4.248   0.139  20.382
10538SOL    HW243494   4.170   0.100  20.506
10539SOL     OW43495   3.239   3.414   4.317
10539SOL    HW143496   3.154   3.371   4.328
10539SOL    HW243497   3.289   3.354   4.262
10540SOL     OW43498   1.658   2.328  18.297
10540SOL    HW143499   1.690   2.357  18.382
10540SOL    HW243500   1.712   2.252  18.275
10541SOL     OW43501   1.550   4.175   1.037
10541SOL    HW143502   1.570   4.084   1.061
10541SOL    HW243503   1.454   4.181   1.043
10542SOL     OW43504   2.356   4.713  17.990
10542SOL    HW143505   2.362   4.618  17.999
10542SOL    HW243506   2.447   4.742  17.987
10543SOL     OW43507   1.460   3.697  15.631
10543SOL    HW143508   1.477   3.746  15.711
10543SOL    HW243509   1.532   3.721  15.572
10544SOL     OW43510   1.394   2.073   5.415
10544SOL    HW143511   1.440   2.042   5.337
10544SOL    HW243512   1.340   2.146   5.383
10545SOL     OW43513   0.544   4.773  12.007
10545SOL    HW143514   0.612   0.032  12.049
10545SOL    HW243515   0.524   4.704  12.071
10546SOL     OW43516   4.599   3.275   3.807
10546SOL    HW143517   4.533   3.344   3.823
10546SOL    HW243518   4.634   3.295   3.721
10547SOL     OW43519   4.467   1.753   1.533
10547SOL    HW143520   4.475   1.781   1.442
10547SOL    HW243521   4.546   1.787   1.576
10548SOL     OW43522   1.235   3.972  15.829
10548SOL    HW143523   1.254   4.063  15.810
10548SOL    HW243524   1.154   3.954  15.782
10549SOL     OW43525   4.196   3.124   4.028
10549SOL    HW143526   4.223   3.111   4.119
10549SOL    HW243527   4.127   3.059   4.014
10550SOL     OW43528   4.585   0.013  14.458
10550SOL    HW143529   4.668   4.792  14.505
10550SOL    HW243530   4.544   0.086  14.505
10551SOL     OW43531   0.199   0.612  16.823
10551SOL    HW143532   0.187   0.518  16.810
10551SOL    HW243533   0.274   0.619  16.882
10552SOL     OW43534   2.812   0.428  16.178
10552SOL    HW143535   2.903   0.450  16.159
10552SOL    HW243536   2.801   0.450  16.271
10553SOL     OW43537   0.326   0.998  18.168
10553SOL    HW143538   0.387   1.067  18.195
10553SOL    HW243539   0.381   0.931  18.129
10554SOL     OW43540   1.757   1.286  12.994
10554SOL    HW143541   1.729   1.322  13.078
10554SOL    HW243542   1.722   1.346  12.928
10555SOL     OW43543   1.178   4.460   1.094
10555SOL    HW143544   1.192   4.498   1.007
10555SOL    HW243545   1.211   4.370   1.086
10556SOL     OW43546   3.155   0.099  17.748
10556SOL    HW143547   3.062   0.114  17.766
10556SOL    HW243548   3.195   0.185  17.757
10557SOL     OW43549   4.482   0.300   0.617
10557SOL    HW143550   4.573   0.273   0.602
10557SOL    HW243551   4.486   0.396   0.622
10558SOL     OW43552   2.807   0.693   1.578
10558SOL    HW143553   2.902   0.686   1.587
10558SOL    HW243554   2.779   0.605   1.552
10559SOL     OW43555   0.758   1.538   0.946
10559SOL    HW143556   0.838   1.505   0.906
10559SOL    HW243557   0.741   1.620   0.900
10560SOL     OW43558   4.326   1.098  16.230
10560SOL    HW143559   4.308   1.110  16.323
10560SOL    HW243560   4.386   1.022  16.227
10561SOL     OW43561   4.514   2.147   3.692
10561SOL    HW143562   4.584   2.114   3.749
10561SOL    HW243563   4.485   2.228   3.734
10562SOL     OW43564   0.975   0.307  10.232
10562SOL    HW143565   1.036   0.271  10.297
10562SOL    HW243566   0.932   0.230  10.196
10563SOL     OW43567   4.467   2.102  17.851
10563SOL    HW143568   4.466   2.090  17.756
10563SOL    HW243569   4.458   2.196  17.864
10564SOL     OW43570   3.305   1.919   4.983
10564SOL    HW143571   3.270   1.977   5.050
10564SOL    HW243572   3.246   1.843   4.984
10565SOL     OW43573   4.315   0.372   3.317
10565SOL    HW143574   4.375   0.400   3.385
10565SOL    HW243575   4.273   0.453   3.286
10566SOL     OW43576   0.809   3.048  14.548
10566SOL    HW143577   0.718   3.052  14.578
10566SOL    HW243578   0.839   3.139  14.549
10567SOL     OW43579   1.579   2.825   2.908
10567SOL    HW143580   1.516   2.761   2.875
10567SOL    HW243581   1.533   2.869   2.979
10568SOL     OW43582   1.873   2.049  15.320
10568SOL    HW143583   1.822   2.026  15.243
10568SOL    HW243584   1.902   2.139  15.304
10569SOL     OW43585   4.537   1.011   5.383
10569SOL    HW143586   4.543   1.106   5.374
10569SOL    HW243587   4.621   0.985   5.421
10570SOL     OW43588   0.834   2.644   4.650
10570SOL    HW143589   0.824   2.652   4.745
10570SOL    HW243590   0.807   2.729   4.615
10571SOL     OW43591   0.268   4.734  20.060
10571SOL    HW143592   0.287   4.642  20.078
10571SOL    HW243593   0.233   4.768  20.143
10572SOL     OW43594   4.126   3.770   4.758
10572SOL    HW143595   4.071   3.778   4.680
10572SOL    HW243596   4.146   3.860   4.783
10573SOL     OW43597   2.406   4.556  17.396
10573SOL    HW143598   2.435   4.642  17.365
10573SOL    HW243599   2.320   4.544  17.357
10574SOL     OW43600   3.394   3.219  17.160
10574SOL    HW143601   3.477   3.235  17.206
10574SOL    HW243602   3.329   3.208  17.229
10575SOL     OW43603   1.168   2.864   4.503
10575SOL    HW143604   1.191   2.799   4.568
10575SOL    HW243605   1.251   2.893   4.466
10576SOL     OW43606   3.002   2.792  19.464
10576SOL    HW143607   3.039   2.765  19.380
10576SOL    HW243608   3.075   2.783  19.526
10577SOL     OW43609   4.410   3.293   6.683
10577SOL    HW143610   4.419   3.313   6.777
10577SOL    HW243611   4.330   3.240   6.678
10578SOL     OW43612   1.492   2.416  20.031
10578SOL    HW143613   1.439   2.342  20.002
10578SOL    HW243614   1.562   2.377  20.083
10579SOL     OW43615   3.769   0.333   5.318
10579SOL    HW143616   3.753   0.341   5.412
10579SOL    HW243617   3.685   0.307   5.281
10580SOL     OW43618   4.528   2.194   4.957
10580SOL    HW143619   4.526   2.250   4.880
10580SOL    HW243620   4.469   2.122   4.936
10581SOL     OW43621   1.898   4.615   8.017
10581SOL    HW143622   1.953   4.687   8.049
10581SOL    HW243623   1.817   4.657   7.989
10582SOL     OW43624   2.863   3.253  15.584
10582SOL    HW143625   2.889   3.273  15.494
10582SOL    HW243626   2.843   3.338  15.623
10583SOL     OW43627   2.846   3.423   1.701
10583SOL    HW143628   2.859   3.474   1.781
10583SOL    HW243629   2.797   3.483   1.643
10584SOL     OW43630   0.177   3.276  15.760
10584SOL    HW143631   0.269   3.288  15.740
10584SOL    HW243632   0.147   3.211  15.697
10585SOL     OW43633   2.228   1.741   1.144
10585SOL    HW143634   2.213   1.650   1.167
10585SOL    HW243635   2.153   1.765   1.089
10586SOL     OW43636   2.189   3.813  13.687
10586SOL    HW143637   2.171   3.804  13.593
10586SOL    HW243638   2.199   3.907  13.701
10587SOL     OW43639   3.264   2.017  15.979
10587SOL    HW143640   3.305   2.028  15.894
10587SOL    HW243641   3.208   1.940  15.969
10588SOL     OW43642   1.664   2.266  19.745
10588SOL    HW143643   1.598   2.225  19.689
10588SOL    HW243644   1.731   2.199  19.756
10589SOL     OW43645   0.249   0.014   0.761
10589SOL    HW143646   0.174   4.754   0.737
10589SOL    HW243647   0.316   4.745   0.788
10590SOL     OW43648   2.075   2.754   4.154
10590SOL    HW143649   1.981   2.746   4.139
10590SOL    HW243650   2.110   2.781   4.069
10591SOL     OW43651   4.107   0.966   8.450
10591SOL    HW143652   4.137   0.916   8.374
10591SOL    HW243653   4.129   0.910   8.525
10592SOL     OW43654   3.722   4.041  16.332
10592SOL    HW143655   3.724   4.113  16.394
10592SOL    HW243656   3.765   4.075  16.253
10593SOL     OW43657   0.329   3.607   1.764
10593SOL    HW143658   0.385   3.667   1.813
10593SOL    HW243659   0.241   3.623   1.798
10594SOL     OW43660   1.685   0.109  20.003
10594SOL    HW143661   1.645   0.183  20.048
10594SOL    HW243662   1.655   0.032  20.050
10595SOL     OW43663   4.184   2.389  19.992
10595SOL    HW143664   4.276   2.412  19.993
10595SOL    HW243665   4.145   2.445  19.924
10596SOL     OW43666   3.173   2.581   7.805
10596SOL    HW143667   3.095   2.528   7.789
10596SOL    HW243668   3.155   2.626   7.888
10597SOL     OW43669   4.133   4.037   3.319
10597SOL    HW143670   4.181   4.058   3.239
10597SOL    HW243671   4.171   4.094   3.386
10598SOL     OW43672   4.256   0.823  20.444
10598SOL    HW143673   4.330   0.848  20.499
10598SOL    HW243674   4.211   0.906  20.424
10599SOL     OW43675   1.595   3.155  20.475
10599SOL    HW143676   1.572   3.181  20.565
10599SOL    HW243677   1.673   3.102  20.485
10600SOL     OW43678   0.258   4.749   3.789
10600SOL    HW143679   0.262   4.686   3.861
10600SOL    HW243680   0.321   0.023   3.814
10601SOL     OW43681   3.950   3.050   0.925
10601SOL    HW143682   4.021   2.990   0.949
10601SOL    HW243683   3.921   3.020   0.839
10602SOL     OW43684   0.240   3.461  16.236
10602SOL    HW143685   0.152   3.425  16.228
10602SOL    HW243686   0.235   3.546  16.194
10603SOL     OW43687   2.215   2.893   5.759
10603SOL    HW143688   2.138   2.892   5.816
10603SOL    HW243689   2.289   2.899   5.820
10604SOL     OW43690   4.176   2.833   0.187
10604SOL    HW143691   4.152   2.851   0.278
10604SOL    HW243692   4.165   2.917   0.143
10605SOL     OW43693   1.987   1.298   4.320
10605SOL    HW143694   1.894   1.279   4.334
10605SOL    HW243695   2.002   1.275   4.228
10606SOL     OW43696   1.735   0.549   4.773
10606SOL    HW143697   1.781   0.530   4.691
10606SOL    HW243698   1.746   0.643   4.786
10607SOL     OW43699   4.717   2.639  16.788
10607SOL    HW143700   4.787   2.694  16.754
10607SOL    HW243701   4.637   2.681  16.756
10608SOL     OW43702   2.926   4.652  17.848
10608SOL    HW143703   2.942   4.675  17.939
10608SOL    HW243704   2.907   4.735  17.805
10609SOL     OW43705   1.880   4.791  14.091
10609SOL    HW143706   1.852   4.744  14.013
10609SOL    HW243707   1.924   0.075  14.058
10610SOL     OW43708   1.913   1.132   0.439
10610SOL    HW143709   1.956   1.062   0.489
10610SOL    HW243710   1.883   1.193   0.506
10611SOL     OW43711   3.026   0.610  19.983
10611SOL    HW143712   2.992   0.540  20.039
10611SOL    HW243713   3.061   0.565  19.906
10612SOL     OW43714   3.645   2.296   5.966
10612SOL    HW143715   3.563   2.318   5.923
10612SOL    HW243716   3.700   2.258   5.897
10613SOL     OW43717   2.218   4.495   4.145
10613SOL    HW143718   2.215   4.542   4.062
10613SOL    HW243719   2.130   4.507   4.182
10614SOL     OW43720   3.275   3.885  18.957
10614SOL    HW143721   3.296   3.795  18.931
10614SOL    HW243722   3.278   3.883  19.053
10615SOL     OW43723   4.537   0.255  15.071
10615SOL    HW143724   4.576   0.191  15.131
10615SOL    HW243725   4.583   0.336  15.088
10616SOL     OW43726   3.047   4.601  15.997
10616SOL    HW143727   2.965   4.553  15.981
10616SOL    HW243728   3.042   4.676  15.938
10617SOL     OW43729   3.390   1.687  20.941
10617SOL    HW143730   3.434   1.603  20.930
10617SOL    HW243731   3.349   1.682  21.027
10618SOL     OW43732   4.629   0.088   4.088
10618SOL    HW143733   4.538   0.115   4.073
10618SOL    HW243734   4.622   0.011   4.144
10619SOL     OW43735   1.871   0.050  19.806
10619SOL    HW143736   1.815   0.069  19.881
10619SOL    HW243737   1.896   0.136  19.772
10620SOL     OW43738   2.672   3.754   3.439
10620SOL    HW143739   2.725   3.743   3.517
10620SOL    HW243740   2.614   3.678   3.437
10621SOL     OW43741   1.004   1.062  13.572
10621SOL    HW143742   0.912   1.041  13.554
10621SOL    HW243743   1.009   1.066  13.668
10622SOL     OW43744   4.449   0.033   2.924
10622SOL    HW143745   4.490   0.119   2.914
10622SOL    HW243746   4.477   4.777   2.847
10623SOL     OW43747   2.471   1.752   1.265
10623SOL    HW143748   2.530   1.742   1.190
10623SOL    HW243749   2.386   1.772   1.226
10624SOL     OW43750   1.950   3.907  19.204
10624SOL    HW143751   2.040   3.925  19.179
10624SOL    HW243752   1.930   3.823  19.164
10625SOL     OW43753   3.682   1.552  15.830
10625SOL    HW143754   3.682   1.457  15.826
10625SOL    HW243755   3.593   1.575  15.857
10626SOL     OW43756   1.024   3.582   3.331
10626SOL    HW143757   1.021   3.624   3.245
10626SOL    HW243758   1.002   3.652   3.393
10627SOL     OW43759   2.465   4.167  17.289
10627SOL    HW143760   2.498   4.255  17.268
10627SOL    HW243761   2.435   4.132  17.205
10628SOL     OW43762   1.651   1.722   2.323
10628SOL    HW143763   1.651   1.802   2.376
10628SOL    HW243764   1.686   1.750   2.238
10629SOL     OW43765   2.363   1.876   0.217
10629SOL    HW143766   2.451   1.877   0.255
10629SOL    HW243767   2.345   1.783   0.201
10630SOL     OW43768   0.162   3.520  20.432
10630SOL    HW143769   0.102   3.515  20.507
10630SOL    HW243770   0.156   3.434  20.391
10631SOL     OW43771   3.956   3.508  19.276
10631SOL    HW143772   3.977   3.595  19.245
10631SOL    HW243773   3.891   3.522  19.345
10632SOL     OW43774   4.498   3.018  18.142
10632SOL    HW143775   4.534   3.053  18.061
10632SOL    HW243776   4.549   2.940  18.160
10633SOL     OW43777   3.819   4.153  16.079
10633SOL    HW143778   3.793   4.243  16.061
10633SOL    HW243779   3.913   4.156  16.092
10634SOL     OW43780   3.284   0.224   2.760
10634SOL    HW143781   3.256   0.154   2.819
10634SOL    HW243782   3.235   0.209   2.679
10635SOL     OW43783   0.129   2.669   5.826
10635SOL    HW143784   0.176   2.614   5.763
10635SOL    HW243785   0.046   2.689   5.783
10636SOL     OW43786   4.679   2.864   2.341
10636SOL    HW143787   4.718   2.782   2.368
10636SOL    HW243788   4.698   2.925   2.412
10637SOL     OW43789   0.009   1.023   5.223
10637SOL    HW143790   4.757   1.107   5.225
10637SOL    HW243791   4.743   0.964   5.178
10638SOL     OW43792   0.811   4.255  21.129
10638SOL    HW143793   0.905   4.255  21.146
10638SOL    HW243794   0.803   4.293  21.041
10639SOL     OW43795   1.424   2.511  20.951
10639SOL    HW143796   1.333   2.482  20.961
10639SOL    HW243797   1.421   2.605  20.967
10640SOL     OW43798   3.687   0.885   5.507
10640SOL    HW143799   3.681   0.790   5.498
10640SOL    HW243800   3.775   0.901   5.540
10641SOL     OW43801   3.670   3.520  16.065
10641SOL    HW143802   3.654   3.474  15.982
10641SOL    HW243803   3.583   3.535  16.101
10642SOL     OW43804   0.964   0.288   2.553
10642SOL    HW143805   0.944   0.280   2.646
10642SOL    HW243806   1.054   0.321   2.552
10643SOL     OW43807   0.569   1.399  15.822
10643SOL    HW143808   0.648   1.346  15.819
10643SOL    HW243809   0.599   1.486  15.848
10644SOL     OW43810   3.244   0.394  18.367
10644SOL    HW143811   3.160   0.353  18.383
10644SOL    HW243812   3.227   0.456  18.296
10645SOL     OW43813   1.301   2.706   1.629
10645SOL    HW143814   1.348   2.627   1.654
10645SOL    HW243815   1.350   2.777   1.671
10646SOL     OW43816   0.084   3.726   5.483
10646SOL    HW143817   0.019   3.796   5.476
10646SOL    HW243818   0.103   3.702   5.392
10647SOL     OW43819   0.532   0.557   1.785
10647SOL    HW143820   0.513   0.501   1.710
10647SOL    HW243821   0.618   0.527   1.815
10648SOL     OW43822   4.717   0.102  20.081
10648SOL    HW143823   4.638   0.106  20.135
10648SOL    HW243824   4.693   0.044  20.008
10649SOL     OW43825   4.197   2.480  16.144
10649SOL    HW143826   4.265   2.515  16.087
10649SOL    HW243827   4.165   2.556  16.193
10650SOL     OW43828   1.879   0.216  14.664
10650SOL    HW143829   1.889   0.294  14.609
10650SOL    HW243830   1.926   0.147  14.618
10651SOL     OW43831   3.972   3.805   4.235
10651SOL    HW143832   4.029   3.833   4.163
10651SOL    HW243833   3.969   3.710   4.229
10652SOL     OW43834   3.355   1.099   6.989
10652SOL    HW143835   3.376   1.168   7.051
10652SOL    HW243836   3.298   1.142   6.924
10653SOL     OW43837   0.823   0.078   3.009
10653SOL    HW143838   0.875   4.792   3.016
10653SOL    HW243839   0.740   0.049   2.970
10654SOL     OW43840   0.678   3.840   5.482
10654SOL    HW143841   0.709   3.825   5.571
10654SOL    HW243842   0.625   3.762   5.462
10655SOL     OW43843   0.218   0.120  14.759
10655SOL    HW143844   0.281   0.060  14.799
10655SOL    HW243845   0.188   0.175  14.832
10656SOL     OW43846   2.564   4.331  16.923
10656SOL    HW143847   2.489   4.276  16.945
10656SOL    HW243848   2.601   4.355  17.008
10657SOL     OW43849   3.789   2.208  13.555
10657SOL    HW143850   3.776   2.288  13.607
10657SOL    HW243851   3.750   2.229  13.470
10658SOL     OW43852   0.467   2.407  21.119
10658SOL    HW143853   0.520   2.332  21.091
10658SOL    HW243854   0.414   2.373  21.191
10659SOL     OW43855   3.795   2.556   2.703
10659SOL    HW143856   3.717   2.602   2.671
10659SOL    HW243857   3.861   2.625   2.709
10660SOL     OW43858   2.454   4.070   6.302
10660SOL    HW143859   2.408   4.103   6.225
10660SOL    HW243860   2.498   3.991   6.272
10661SOL     OW43861   0.481   1.194  14.638
10661SOL    HW143862   0.573   1.208  14.660
10661SOL    HW243863   0.440   1.169  14.721
10662SOL     OW43864   1.945   0.361   6.373
10662SOL    HW143865   1.913   0.448   6.351
10662SOL    HW243866   2.026   0.351   6.322
10663SOL     OW43867   0.780   0.204  14.408
10663SOL    HW143868   0.709   0.251  14.452
10663SOL    HW243869   0.740   0.171  14.327
10664SOL     OW43870   3.723   1.199  15.619
10664SOL    HW143871   3.656   1.203  15.687
10664SOL    HW243872   3.806   1.213  15.665
10665SOL     OW43873   3.372   1.922   1.300
10665SOL    HW143874   3.405   2.000   1.345
10665SOL    HW243875   3.395   1.936   1.208
10666SOL     OW43876   2.722   0.023  20.857
10666SOL    HW143877   2.701   0.093  20.920
10666SOL    HW243878   2.674   4.741  20.890
10667SOL     OW43879   0.164   2.953  20.635
10667SOL    HW143880   0.226   2.905  20.581
10667SOL    HW243881   0.152   3.037  20.591
10668SOL     OW43882   0.244   1.618  18.063
10668SOL    HW143883   0.312   1.648  18.124
10668SOL    HW243884   0.259   1.524  18.055
10669SOL     OW43885   1.023   4.243   4.796
10669SOL    HW143886   0.960   4.248   4.867
10669SOL    HW243887   1.043   4.334   4.774
10670SOL     OW43888   3.406   1.337   0.405
10670SOL    HW143889   3.366   1.250   0.408
10670SOL    HW243890   3.385   1.375   0.490
10671SOL     OW43891   4.090   0.040   1.977
10671SOL    HW143892   4.032   4.783   2.034
10671SOL    HW243893   4.173   0.042   2.024
10672SOL     OW43894   2.667   0.012  16.710
10672SOL    HW143895   2.602   0.026  16.778
10672SOL    HW243896   2.738   0.074  16.731
10673SOL     OW43897   1.803   1.077  15.278
10673SOL    HW143898   1.894   1.049  15.279
10673SOL    HW243899   1.756   1.004  15.237
10674SOL     OW43900   0.895   2.177   0.355
10674SOL    HW143901   0.861   2.121   0.285
10674SOL    HW243902   0.892   2.265   0.318
10675SOL     OW43903   2.305   4.584  20.371
10675SOL    HW143904   2.276   4.581  20.280
10675SOL    HW243905   2.373   4.516  20.377
10676SOL     OW43906   4.698   4.604   4.036
10676SOL    HW143907   4.678   4.515   4.009
10676SOL    HW243908   4.648   4.617   4.117
10677SOL     OW43909   4.143   4.002   0.366
10677SOL    HW143910   4.089   3.931   0.399
10677SOL    HW243911   4.165   3.976   0.277
10678SOL     OW43912   4.295   3.063  16.502
10678SOL    HW143913   4.221   3.066  16.441
10678SOL    HW243914   4.257   3.034  16.584
10679SOL     OW43915   2.517   2.233   5.478
10679SOL    HW143916   2.591   2.197   5.526
10679SOL    HW243917   2.466   2.157   5.450
10680SOL     OW43918   1.784   1.058  19.185
10680SOL    HW143919   1.857   1.039  19.244
10680SOL    HW243920   1.728   1.118  19.235
10681SOL     OW43921   1.704   0.428  17.992
10681SOL    HW143922   1.622   0.455  18.033
10681SOL    HW243923   1.749   0.510  17.971
10682SOL     OW43924   4.376   2.011   4.789
10682SOL    HW143925   4.377   1.918   4.810
10682SOL    HW243926   4.386   2.014   4.694
10683SOL     OW43927   4.528   2.430  20.870
10683SOL    HW143928   4.619   2.410  20.889
10683SOL    HW243929   4.507   2.504  20.927
10684SOL     OW43930   4.753   0.029   3.749
10684SOL    HW143931   4.732   4.786   3.835
10684SOL    HW243932   0.015   4.757   3.708
10685SOL     OW43933   2.763   1.424   2.913
10685SOL    HW143934   2.842   1.475   2.927
10685SOL    HW243935   2.755   1.415   2.818
10686SOL     OW43936   1.570   0.231  15.375
10686SOL    HW143937   1.615   0.171  15.315
10686SOL    HW243938   1.486   0.249  15.332
10687SOL     OW43939   2.994   0.319  17.383
10687SOL    HW143940   2.921   0.362  17.338
10687SOL    HW243941   3.036   0.266  17.315
10688SOL     OW43942   0.855   4.459   4.103
10688SOL    HW143943   0.899   4.405   4.038
10688SOL    HW243944   0.764   4.462   4.076
10689SOL     OW43945   4.583   0.569  12.829
10689SOL    HW143946   4.544   0.502  12.885
10689SOL    HW243947   4.509   0.607  12.782
10690SOL     OW43948   1.171   0.708  19.530
10690SOL    HW143949   1.220   0.644  19.582
10690SOL    HW243950   1.193   0.792  19.570
10691SOL     OW43951   4.298   1.662   0.141
10691SOL    HW143952   4.281   1.595   0.075
10691SOL    HW243953   4.253   1.740   0.107
10692SOL     OW43954   0.081   1.976  15.382
10692SOL    HW143955   0.160   1.944  15.338
10692SOL    HW243956   0.114   2.031  15.453
10693SOL     OW43957   3.620   0.473  19.308
10693SOL    HW143958   3.574   0.398  19.344
10693SOL    HW243959   3.662   0.441  19.229
10694SOL     OW43960   1.419   0.677  12.323
10694SOL    HW143961   1.508   0.704  12.301
10694SOL    HW243962   1.404   0.713  12.410
10695SOL     OW43963   1.424   0.617   2.880
10695SOL    HW143964   1.356   0.636   2.945
10695SOL    HW243965   1.407   0.679   2.809
10696SOL     OW43966   1.399   3.340  17.501
10696SOL    HW143967   1.350   3.303  17.428
10696SOL    HW243968   1.452   3.409  17.461
10697SOL     OW43969   4.637   3.713   3.635
10697SOL    HW143970   4.663   3.687   3.724
10697SOL    HW243971   4.591   3.796   3.648
10698SOL     OW43972   0.085   1.780   3.178
10698SOL    HW143973   0.096   1.716   3.107
10698SOL    HW243974   0.161   1.768   3.233
10699SOL     OW43975   2.251   1.690   5.898
10699SOL    HW143976   2.205   1.622   5.849
10699SOL    HW243977   2.194   1.707   5.974
10700SOL     OW43978   2.320   0.330   3.966
10700SOL    HW143979   2.362   0.320   3.880
10700SOL    HW243980   2.244   0.272   3.962
10701SOL     OW43981   4.733   0.133   3.385
10701SOL    HW143982   4.776   0.196   3.327
10701SOL    HW243983   0.011   0.079   3.419
10702SOL     OW43984   0.159   0.615  17.685
10702SOL    HW143985   0.190   0.588  17.599
10702SOL    HW243986   0.083   0.559  17.702
10703SOL     OW43987   4.782   0.297   3.994
10703SOL    HW143988   4.707   0.252   4.032
10703SOL    HW243989   0.060   0.233   3.999
10704SOL     OW43990   1.974   2.841   9.669
10704SOL    HW143991   1.963   2.822   9.762
10704SOL    HW243992   1.937   2.929   9.658
10705SOL     OW43993   3.727   4.612  13.899
10705SOL    HW143994   3.658   4.652  13.952
10705SOL    HW243995   3.793   4.584  13.963
10706SOL     OW43996   3.715   2.021   4.926
10706SOL    HW143997   3.644   1.957   4.929
10706SOL    HW243998   3.750   2.016   4.837
10707SOL     OW43999   1.425   2.497   4.266
10707SOL    HW144000   1.496   2.562   4.270
10707SOL    HW244001   1.471   2.412   4.269
10708SOL     OW44002   0.898   3.537  14.199
10708SOL    HW144003   0.815   3.503  14.164
10708SOL    HW244004   0.872   3.615  14.248
10709SOL     OW44005   0.699   4.581  18.727
10709SOL    HW144006   0.690   4.576  18.632
10709SOL    HW244007   0.734   4.668  18.743
10710SOL     OW44008   0.376   4.268   6.582
10710SOL    HW144009   0.368   4.270   6.487
10710SOL    HW244010   0.460   4.309   6.600
10711SOL     OW44011   1.448   3.813   1.933
10711SOL    HW144012   1.537   3.836   1.907
10711SOL    HW244013   1.436   3.856   2.018
10712SOL     OW44014   1.567   3.896  15.191
10712SOL    HW144015   1.529   3.968  15.240
10712SOL    HW244016   1.500   3.827  15.193
10713SOL     OW44017   3.944   4.388  19.588
10713SOL    HW144018   3.870   4.440  19.618
10713SOL    HW244019   4.019   4.448  19.595
10714SOL     OW44020   0.412   3.753  12.314
10714SOL    HW144021   0.463   3.757  12.394
10714SOL    HW244022   0.360   3.833  12.315
10715SOL     OW44023   2.667   0.802   8.220
10715SOL    HW144024   2.584   0.790   8.266
10715SOL    HW244025   2.729   0.828   8.287
10716SOL     OW44026   0.425   4.492   4.242
10716SOL    HW144027   0.466   4.578   4.233
10716SOL    HW244028   0.458   4.458   4.325
10717SOL     OW44029   1.714   4.373  16.140
10717SOL    HW144030   1.797   4.415  16.117
10717SOL    HW244031   1.702   4.305  16.073
10718SOL     OW44032   1.797   4.298   1.763
10718SOL    HW144033   1.768   4.313   1.674
10718SOL    HW244034   1.834   4.382   1.791
10719SOL     OW44035   1.522   3.109   1.457
10719SOL    HW144036   1.572   3.120   1.538
10719SOL    HW244037   1.573   3.047   1.406
10720SOL     OW44038   4.704   0.575   5.236
10720SOL    HW144039   4.788   0.533   5.222
10720SOL    HW244040   4.700   0.592   5.330
10721SOL     OW44041   0.834   2.588  18.091
10721SOL    HW144042   0.774   2.527  18.049
10721SOL    HW244043   0.777   2.657  18.126
10722SOL     OW44044   0.823   2.828  12.125
10722SOL    HW144045   0.850   2.851  12.214
10722SOL    HW244046   0.824   2.733  12.123
10723SOL     OW44047   1.784   4.567   1.104
10723SOL    HW144048   1.845   4.507   1.062
10723SOL    HW244049   1.702   4.555   1.057
10724SOL     OW44050   2.187   3.463  20.270
10724SOL    HW144051   2.154   3.478  20.359
10724SOL    HW244052   2.135   3.390  20.238
10725SOL     OW44053   1.201   2.168   0.580
10725SOL    HW144054   1.142   2.133   0.513
10725SOL    HW244055   1.284   2.181   0.534
10726SOL     OW44056   1.839   0.199  16.891
10726SOL    HW144057   1.799   0.143  16.825
10726SOL    HW244058   1.927   0.216  16.858
10727SOL     OW44059   3.071   1.736   0.227
10727SOL    HW144060   3.066   1.753   0.133
10727SOL    HW244061   3.163   1.751   0.249
10728SOL     OW44062   4.399   3.584   3.532
10728SOL    HW144063   4.420   3.674   3.560
10728SOL    HW244064   4.452   3.571   3.453
10729SOL     OW44065   2.824   4.377  12.860
10729SOL    HW144066   2.872   4.428  12.794
10729SOL    HW244067   2.888   4.313  12.891
10730SOL     OW44068   3.707   3.878  19.389
10730SOL    HW144069   3.618   3.856  19.417
10730SOL    HW244070   3.716   3.971  19.411
10731SOL     OW44071   3.587   3.852   2.861
10731SOL    HW144072   3.508   3.855   2.806
10731SOL    HW244073   3.558   3.810   2.942
10732SOL     OW44074   2.650   0.941  15.348
10732SOL    HW144075   2.619   0.952  15.258
10732SOL    HW244076   2.696   0.857  15.347
10733SOL     OW44077   3.996   3.264   4.854
10733SOL    HW144078   3.935   3.225   4.916
10733SOL    HW244079   3.952   3.343   4.823
10734SOL     OW44080   2.948   4.148   1.936
10734SOL    HW144081   2.949   4.243   1.942
10734SOL    HW244082   2.907   4.129   1.853
10735SOL     OW44083   0.684   0.525  19.443
10735SOL    HW144084   0.650   0.550  19.529
10735SOL    HW244085   0.751   0.591  19.424
10736SOL     OW44086   4.246   4.567  15.189
10736SOL    HW144087   4.206   4.502  15.247
10736SOL    HW244088   4.242   4.527  15.102
10737SOL     OW44089   3.149   1.128   6.552
10737SOL    HW144090   3.065   1.165   6.525
10737SOL    HW244091   3.209   1.203   6.551
10738SOL     OW44092   2.436   2.065   1.211
10738SOL    HW144093   2.404   2.100   1.128
10738SOL    HW244094   2.365   2.009   1.242
10739SOL     OW44095   0.176   3.649  14.666
10739SOL    HW144096   0.090   3.647  14.625
10739SOL    HW244097   0.160   3.626  14.757
10740SOL     OW44098   0.063   1.022   1.520
10740SOL    HW144099   0.074   1.016   1.615
10740SOL    HW244100   0.021   0.940   1.495
10741SOL     OW44101   2.340   2.720   8.180
10741SOL    HW144102   2.296   2.695   8.099
10741SOL    HW244103   2.399   2.791   8.155
10742SOL     OW44104   4.777   4.768   2.942
10742SOL    HW144105   0.006   4.776   2.850
10742SOL    HW244106   4.684   4.794   2.946
10743SOL     OW44107   2.681   1.373  20.486
10743SOL    HW144108   2.633   1.302  20.529
10743SOL    HW244109   2.732   1.413  20.557
10744SOL     OW44110   0.011   0.965  19.581
10744SOL    HW144111   0.040   1.034  19.640
10744SOL    HW244112   4.732   0.923  19.627
10745SOL     OW44113   4.773   4.345   0.781
10745SOL    HW144114   4.705   4.411   0.793
10745SOL    HW244115   4.735   4.281   0.722
10746SOL     OW44116   2.732   2.301  17.706
10746SOL    HW144117   2.696   2.265  17.625
10746SOL    HW244118   2.808   2.352  17.678
10747SOL     OW44119   0.166   1.958   0.576
10747SOL    HW144120   0.077   1.923   0.573
10747SOL    HW244121   0.173   2.014   0.498
10748SOL     OW44122   1.494   0.876  18.815
10748SOL    HW144123   1.567   0.898  18.757
10748SOL    HW244124   1.465   0.961  18.850
10749SOL     OW44125   2.765   2.334   0.644
10749SOL    HW144126   2.684   2.328   0.695
10749SOL    HW244127   2.811   2.252   0.663
10750SOL     OW44128   3.510   0.031  18.596
10750SOL    HW144129   3.596   0.008  18.563
10750SOL    HW244130   3.526   0.107  18.652
10751SOL     OW44131   0.702   0.330   4.046
10751SOL    HW144132   0.773   0.344   4.109
10751SOL    HW244133   0.623   0.324   4.101
10752SOL     OW44134   4.461   1.234  17.464
10752SOL    HW144135   4.484   1.269  17.550
10752SOL    HW244136   4.472   1.139  17.474
10753SOL     OW44137   1.219   4.327  16.261
10753SOL    HW144138   1.145   4.366  16.306
10753SOL    HW244139   1.295   4.377  16.291
10754SOL     OW44140   4.095   4.175  13.735
10754SOL    HW144141   4.016   4.228  13.741
10754SOL    HW244142   4.167   4.238  13.740
10755SOL     OW44143   3.000   0.659   3.534
10755SOL    HW144144   3.026   0.703   3.615
10755SOL    HW244145   3.052   0.579   3.533
10756SOL     OW44146   0.936   3.764  19.478
10756SOL    HW144147   0.957   3.743  19.569
10756SOL    HW244148   1.015   3.808  19.445
10757SOL     OW44149   3.637   0.735   1.643
10757SOL    HW144150   3.563   0.678   1.620
10757SOL    HW244151   3.701   0.675   1.681
10758SOL     OW44152   3.784   3.432   7.184
10758SOL    HW144153   3.848   3.434   7.255
10758SOL    HW244154   3.767   3.524   7.164
10759SOL     OW44155   2.638   1.402   3.801
10759SOL    HW144156   2.692   1.404   3.722
10759SOL    HW244157   2.699   1.382   3.872
10760SOL     OW44158   2.693   2.693   1.667
10760SOL    HW144159   2.748   2.658   1.597
10760SOL    HW244160   2.654   2.772   1.630
10761SOL     OW44161   4.466   4.473   4.529
10761SOL    HW144162   4.538   4.419   4.496
10761SOL    HW244163   4.390   4.414   4.531
10762SOL     OW44164   1.406   0.041  20.183
10762SOL    HW144165   1.422   0.099  20.108
10762SOL    HW244166   1.368   0.098  20.250
10763SOL     OW44167   1.008   2.639   0.413
10763SOL    HW144168   1.042   2.724   0.443
10763SOL    HW244169   1.023   2.580   0.487
10764SOL     OW44170   0.292   1.420  16.329
10764SOL    HW144171   0.211   1.423  16.380
10764SOL    HW244172   0.264   1.434  16.239
10765SOL     OW44173   2.190   0.582  20.182
10765SOL    HW144174   2.244   0.518  20.137
10765SOL    HW244175   2.217   0.667  20.145
10766SOL     OW44176   1.999   1.056   2.970
10766SOL    HW144177   1.993   1.037   2.876
10766SOL    HW244178   2.084   1.021   2.996
10767SOL     OW44179   3.732   1.100   1.389
10767SOL    HW144180   3.792   1.085   1.462
10767SOL    HW244181   3.702   1.190   1.400
10768SOL     OW44182   3.830   0.490  19.473
10768SOL    HW144183   3.753   0.501  19.418
10768SOL    HW244184   3.843   0.396  19.479
10769SOL     OW44185   2.815   2.995   8.181
10769SOL    HW144186   2.897   2.986   8.132
10769SOL    HW244187   2.775   2.908   8.177
10770SOL     OW44188   1.520   4.757  17.831
10770SOL    HW144189   1.425   4.759  17.833
10770SOL    HW244190   1.543   4.665  17.818
10771SOL     OW44191   3.005   0.541  18.912
10771SOL    HW144192   2.975   0.546  18.822
10771SOL    HW244193   2.926   0.523  18.963
10772SOL     OW44194   0.126   0.502  14.818
10772SOL    HW144195   0.150   0.417  14.855
10772SOL    HW244196   0.205   0.531  14.772
10773SOL     OW44197   4.605   1.860   3.260
10773SOL    HW144198   4.587   1.855   3.354
10773SOL    HW244199   4.559   1.784   3.223
10774SOL     OW44200   1.824   3.543  19.313
10774SOL    HW144201   1.740   3.566  19.353
10774SOL    HW244202   1.889   3.577  19.374
10775SOL     OW44203   1.228   2.365   2.501
10775SOL    HW144204   1.168   2.293   2.478
10775SOL    HW244205   1.193   2.441   2.454
10776SOL     OW44206   0.064   2.795   5.069
10776SOL    HW144207   0.155   2.802   5.097
10776SOL    HW244208   0.045   2.701   5.074
10777SOL     OW44209   2.806   4.740   0.480
10777SOL    HW144210   2.782   4.735   0.573
10777SOL    HW244211   2.797   4.650   0.448
10778SOL     OW44212   3.329   1.091   0.483
10778SOL    HW144213   3.255   1.063   0.537
10778SOL    HW244214   3.387   1.015   0.481
10779SOL     OW44215   0.931   2.746  15.509
10779SOL    HW144216   0.984   2.667  15.515
10779SOL    HW244217   0.843   2.715  15.488
10780SOL     OW44218   1.570   2.933   6.558
10780SOL    HW144219   1.490   2.918   6.507
10780SOL    HW244220   1.633   2.966   6.494
10781SOL     OW44221   3.217   2.255  18.798
10781SOL    HW144222   3.242   2.229  18.887
10781SOL    HW244223   3.209   2.173  18.750
10782SOL     OW44224   2.813   1.318   3.595
10782SOL    HW144225   2.759   1.249   3.557
10782SOL    HW244226   2.816   1.385   3.526
10783SOL     OW44227   3.291   0.024  21.154
10783SOL    HW144228   3.384   0.042  21.148
10783SOL    HW244229   3.275   0.010  21.247
10784SOL     OW44230   2.338   3.018   4.028
10784SOL    HW144231   2.378   2.932   4.016
10784SOL    HW244232   2.407   3.081   4.005
10785SOL     OW44233   3.541   0.176   4.248
10785SOL    HW144234   3.594   0.236   4.300
10785SOL    HW244235   3.588   0.167   4.165
10786SOL     OW44236   2.045   1.211   2.364
10786SOL    HW144237   1.980   1.198   2.433
10786SOL    HW244238   2.062   1.122   2.331
10787SOL     OW44239   1.598   4.712   5.034
10787SOL    HW144240   1.591   4.769   4.958
10787SOL    HW244241   1.692   4.693   5.041
10788SOL     OW44242   3.994   1.139   2.421
10788SOL    HW144243   3.999   1.179   2.508
10788SOL    HW244244   4.030   1.205   2.362
10789SOL     OW44245   2.818   3.373  21.196
10789SOL    HW144246   2.906   3.411  21.198
10789SOL    HW244247   2.826   3.290  21.242
10790SOL     OW44248   0.896   0.113   0.998
10790SOL    HW144249   0.927   0.113   1.089
10790SOL    HW244250   0.873   0.204   0.981
10791SOL     OW44251   0.562   2.277   5.868
10791SOL    HW144252   0.482   2.251   5.913
10791SOL    HW244253   0.564   2.373   5.875
10792SOL     OW44254   3.868   0.003   6.256
10792SOL    HW144255   3.796   4.738   6.232
10792SOL    HW244256   3.860   0.076   6.195
10793SOL     OW44257   1.090   2.408   1.850
10793SOL    HW144258   1.019   2.344   1.860
10793SOL    HW244259   1.045   2.491   1.836
10794SOL     OW44260   2.713   0.436  20.754
10794SOL    HW144261   2.662   0.517  20.765
10794SOL    HW244262   2.803   0.461  20.774
10795SOL     OW44263   3.042   3.111  20.437
10795SOL    HW144264   3.014   3.038  20.381
10795SOL    HW244265   3.039   3.188  20.379
10796SOL     OW44266   4.087   0.899  21.183
10796SOL    HW144267   4.170   0.944  21.175
10796SOL    HW244268   4.038   0.923  21.104
10797SOL     OW44269   2.459   1.256  17.765
10797SOL    HW144270   2.464   1.261  17.669
10797SOL    HW244271   2.460   1.162  17.784
10798SOL     OW44272   2.736   1.995   3.276
10798SOL    HW144273   2.656   1.943   3.268
10798SOL    HW244274   2.801   1.933   3.308
10799SOL     OW44275   1.846   2.001  16.955
10799SOL    HW144276   1.846   1.920  17.006
10799SOL    HW244277   1.895   2.063  17.009
10800SOL     OW44278   1.825   2.032   0.750
10800SOL    HW144279   1.833   2.127   0.759
10800SOL    HW244280   1.731   2.016   0.751
10801SOL     OW44281   2.047   4.178   3.100
10801SOL    HW144282   2.013   4.216   3.018
10801SOL    HW244283   2.100   4.104   3.071
10802SOL     OW44284   0.711   0.513   4.593
10802SOL    HW144285   0.765   0.588   4.568
10802SOL    HW244286   0.636   0.552   4.637
10803SOL     OW44287   4.488   0.322   1.171
10803SOL    HW144288   4.498   0.414   1.145
10803SOL    HW244289   4.408   0.293   1.126
10804SOL     OW44290   1.444   0.572   0.131
10804SOL    HW144291   1.365   0.586   0.183
10804SOL    HW244292   1.419   0.599   0.042
10805SOL     OW44293   2.769   4.187   0.071
10805SOL    HW144294   2.705   4.200   0.140
10805SOL    HW244295   2.724   4.216  21.268
10806SOL     OW44296   3.336   4.213   4.807
10806SOL    HW144297   3.312   4.139   4.752
10806SOL    HW244298   3.381   4.274   4.747
10807SOL     OW44299   4.253   3.946  16.781
10807SOL    HW144300   4.312   3.872  16.767
10807SOL    HW244301   4.305   4.010  16.830
10808SOL     OW44302   4.766   3.586   4.385
10808SOL    HW144303   4.716   3.658   4.345
10808SOL    HW244304   4.752   3.512   4.326
10809SOL     OW44305   1.889   3.055   2.752
10809SOL    HW144306   1.800   3.092   2.758
10809SOL    HW244307   1.940   3.124   2.708
10810SOL     OW44308   0.827   3.146   4.162
10810SOL    HW144309   0.870   3.079   4.216
10810SOL    HW244310   0.742   3.160   4.203
10811SOL     OW44311   4.009   2.323  16.853
10811SOL    HW144312   3.948   2.250  16.839
10811SOL    HW244313   3.960   2.400  16.825
10812SOL     OW44314   3.967   1.995  17.069
10812SOL    HW144315   3.886   1.948  17.089
10812SOL    HW244316   3.960   2.015  16.975
10813SOL     OW44317   0.492   1.975  17.642
10813SOL    HW144318   0.433   1.980  17.717
10813SOL    HW244319   0.575   1.943  17.678
10814SOL     OW44320   4.219   3.683  19.396
10814SOL    HW144321   4.161   3.754  19.369
10814SOL    HW244322   4.250   3.645  19.314
10815SOL     OW44323   1.727   3.818   4.046
10815SOL    HW144324   1.752   3.732   4.080
10815SOL    HW244325   1.724   3.874   4.123
10816SOL     OW44326   0.157   3.246   0.284
10816SOL    HW144327   0.089   3.313   0.277
10816SOL    HW244328   0.119   3.169   0.241
10817SOL     OW44329   1.933   3.319   0.516
10817SOL    HW144330   1.915   3.331   0.423
10817SOL    HW244331   2.023   3.285   0.519
10818SOL     OW44332   1.083   0.076   8.716
10818SOL    HW144333   1.129   0.159   8.699
10818SOL    HW244334   0.995   0.104   8.744
10819SOL     OW44335   3.473   3.096  13.011
10819SOL    HW144336   3.449   3.173  13.062
10819SOL    HW244337   3.404   3.087  12.945
10820SOL     OW44338   1.653   4.001  20.087
10820SOL    HW144339   1.636   4.052  20.167
10820SOL    HW244340   1.720   3.938  20.114
10821SOL     OW44341   3.536   4.335  20.402
10821SOL    HW144342   3.500   4.391  20.334
10821SOL    HW244343   3.607   4.288  20.359
10822SOL     OW44344   0.303   2.536   3.775
10822SOL    HW144345   0.281   2.539   3.868
10822SOL    HW244346   0.246   2.469   3.738
10823SOL     OW44347   3.401   0.605  16.067
10823SOL    HW144348   3.422   0.512  16.074
10823SOL    HW244349   3.329   0.609  16.004
10824SOL     OW44350   1.770   2.033   5.645
10824SOL    HW144351   1.779   1.985   5.562
10824SOL    HW244352   1.828   2.109   5.634
10825SOL     OW44353   3.692   1.321  17.308
10825SOL    HW144354   3.737   1.242  17.277
10825SOL    HW244355   3.631   1.343  17.238
10826SOL     OW44356   0.625   2.231  18.176
10826SOL    HW144357   0.687   2.250  18.246
10826SOL    HW244358   0.584   2.315  18.157
10827SOL     OW44359   4.629   0.338   6.802
10827SOL    HW144360   4.599   0.379   6.883
10827SOL    HW244361   4.567   0.366   6.736
10828SOL     OW44362   4.066   4.327   8.562
10828SOL    HW144363   4.158   4.339   8.539
10828SOL    HW244364   4.046   4.401   8.620
10829SOL     OW44365   2.148   2.249   5.358
10829SOL    HW144366   2.104   2.164   5.355
10829SOL    HW244367   2.210   2.246   5.286
10830SOL     OW44368   0.510   0.250  17.885
10830SOL    HW144369   0.486   0.312  17.953
10830SOL    HW244370   0.532   0.170  17.932
10831SOL     OW44371   3.051   3.228   6.690
10831SOL    HW144372   3.132   3.279   6.689
10831SOL    HW244373   3.025   3.224   6.782
10832SOL     OW44374   1.726   2.259  17.098
10832SOL    HW144375   1.807   2.309  17.096
10832SOL    HW244376   1.752   2.172  17.128
10833SOL     OW44377   0.086   4.324  20.412
10833SOL    HW144378   0.044   4.276  20.483
10833SOL    HW244379   0.179   4.303  20.421
10834SOL     OW44380   0.352   1.533   4.519
10834SOL    HW144381   0.315   1.446   4.507
10834SOL    HW244382   0.437   1.530   4.476
10835SOL     OW44383   4.753   4.290   2.731
10835SOL    HW144384   0.023   4.331   2.673
10835SOL    HW244385   4.669   4.306   2.690
10836SOL     OW44386   2.233   1.688   3.013
10836SOL    HW144387   2.176   1.706   3.088
10836SOL    HW244388   2.173   1.666   2.942
10837SOL     OW44389   0.940   3.715  17.759
10837SOL    HW144390   0.995   3.773  17.811
10837SOL    HW244391   0.976   3.720  17.671
10838SOL     OW44392   4.223   4.560   7.624
10838SOL    HW144393   4.287   4.548   7.695
10838SOL    HW244394   4.225   4.478   7.576
10839SOL     OW44395   2.210   4.692  14.649
10839SOL    HW144396   2.291   4.727  14.687
10839SOL    HW244397   2.239   4.625  14.587
10840SOL     OW44398   3.145   0.471   5.863
10840SOL    HW144399   3.096   0.432   5.935
10840SOL    HW244400   3.209   0.403   5.839
10841SOL     OW44401   1.401   0.099  17.106
10841SOL    HW144402   1.399   0.154  17.028
10841SOL    HW244403   1.494   0.085  17.124
10842SOL     OW44404   3.271   4.644   2.544
10842SOL    HW144405   3.179   4.646   2.573
10842SOL    HW244406   3.292   4.551   2.538
10843SOL     OW44407   2.616   3.480   6.373
10843SOL    HW144408   2.576   3.401   6.408
10843SOL    HW244409   2.553   3.550   6.393
10844SOL     OW44410   1.378   2.375   3.087
10844SOL    HW144411   1.292   2.352   3.054
10844SOL    HW244412   1.435   2.370   3.010
10845SOL     OW44413   1.014   1.409   1.804
10845SOL    HW144414   0.959   1.487   1.794
10845SOL    HW244415   1.035   1.407   1.897
10846SOL     OW44416   1.531   2.841   4.597
10846SOL    HW144417   1.517   2.746   4.604
10846SOL    HW244418   1.473   2.868   4.525
10847SOL     OW44419   2.795   4.141   1.666
10847SOL    HW144420   2.773   4.223   1.623
10847SOL    HW244421   2.792   4.075   1.597
10848SOL     OW44422   0.897   0.129  18.037
10848SOL    HW144423   0.986   0.149  18.010
10848SOL    HW244424   0.905   0.056  18.098
10849SOL     OW44425   1.710   3.104  16.892
10849SOL    HW144426   1.731   3.140  16.805
10849SOL    HW244427   1.711   3.009  16.879
10850SOL     OW44428   0.688   3.086  20.945
10850SOL    HW144429   0.740   3.156  20.985
10850SOL    HW244430   0.706   3.093  20.851
10851SOL     OW44431   2.604   3.215  14.865
10851SOL    HW144432   2.514   3.231  14.893
10851SOL    HW244433   2.656   3.281  14.911
10852SOL     OW44434   4.658   3.741   6.861
10852SOL    HW144435   4.646   3.803   6.789
10852SOL    HW244436   4.571   3.733   6.900
10853SOL     OW44437   1.728   0.124   0.019
10853SOL    HW144438   1.649   0.080   0.047
10853SOL    HW244439   1.714   0.216   0.041
10854SOL     OW44440   3.059   1.792   9.840
10854SOL    HW144441   3.148   1.759   9.828
10854SOL    HW244442   3.012   1.718   9.880
10855SOL     OW44443   4.395   3.867   0.753
10855SOL    HW144444   4.343   3.807   0.807
10855SOL    HW244445   4.329   3.921   0.708
10856SOL     OW44446   4.619   0.782  19.378
10856SOL    HW144447   4.653   0.698  19.349
10856SOL    HW244448   4.668   0.801  19.458
10857SOL     OW44449   0.080   0.391   2.847
10857SOL    HW144450   0.131   0.316   2.818
10857SOL    HW244451   0.144   0.461   2.859
10858SOL     OW44452   1.927   3.956  15.820
10858SOL    HW144453   1.885   3.907  15.890
10858SOL    HW244454   1.929   3.896  15.746
10859SOL     OW44455   3.298   1.133  21.114
10859SOL    HW144456   3.342   1.203  21.067
10859SOL    HW244457   3.271   1.071  21.046
10860SOL     OW44458   0.462   0.489   3.171
10860SOL    HW144459   0.457   0.556   3.239
10860SOL    HW244460   0.549   0.450   3.183
10861SOL     OW44461   2.436   1.473   4.913
10861SOL    HW144462   2.399   1.463   5.000
10861SOL    HW244463   2.380   1.419   4.857
10862SOL     OW44464   1.910   0.272   3.465
10862SOL    HW144465   1.914   0.259   3.371
10862SOL    HW244466   1.817   0.260   3.487
10863SOL     OW44467   4.337   3.335  19.802
10863SOL    HW144468   4.357   3.357  19.893
10863SOL    HW244469   4.259   3.280  19.808
10864SOL     OW44470   0.031   2.945   5.441
10864SOL    HW144471   4.759   2.953   5.373
10864SOL    HW244472   0.005   2.868   5.491
10865SOL     OW44473   2.126   1.961   0.075
10865SOL    HW144474   2.129   2.053   0.047
10865SOL    HW244475   2.213   1.946   0.114
10866SOL     OW44476   0.952   1.454   3.233
10866SOL    HW144477   0.867   1.477   3.194
10866SOL    HW244478   0.957   1.506   3.313
10867SOL     OW44479   3.417   4.407   4.435
10867SOL    HW144480   3.326   4.380   4.426
10867SOL    HW244481   3.445   4.370   4.519
10868SOL     OW44482   2.755   1.168  20.932
10868SOL    HW144483   2.788   1.153  20.844
10868SOL    HW244484   2.664   1.196  20.920
10869SOL     OW44485   1.203   3.327   0.659
10869SOL    HW144486   1.260   3.369   0.594
10869SOL    HW244487   1.114   3.337   0.623
10870SOL     OW44488   0.783   0.456  20.445
10870SOL    HW144489   0.710   0.444  20.384
10870SOL    HW244490   0.789   0.373  20.492
10871SOL     OW44491   2.665   2.439  19.714
10871SOL    HW144492   2.650   2.521  19.667
10871SOL    HW244493   2.760   2.427  19.711
10872SOL     OW44494   2.154   0.592  20.978
10872SOL    HW144495   2.122   0.528  21.041
10872SOL    HW244496   2.117   0.565  20.894
10873SOL     OW44497   4.048   1.375  15.185
10873SOL    HW144498   4.139   1.346  15.195
10873SOL    HW244499   4.012   1.371  15.274
10874SOL     OW44500   1.781   3.338  16.087
10874SOL    HW144501   1.737   3.262  16.049
10874SOL    HW244502   1.723   3.412  16.068
10875SOL     OW44503   4.630   1.544  17.982
10875SOL    HW144504   4.688   1.598  17.929
10875SOL    HW244505   4.578   1.495  17.919
10876SOL     OW44506   0.664   3.009   1.349
10876SOL    HW144507   0.657   3.065   1.426
10876SOL    HW244508   0.708   2.930   1.380
10877SOL     OW44509   3.690   2.528  16.955
10877SOL    HW144510   3.755   2.532  16.885
10877SOL    HW244511   3.703   2.443  16.995
10878SOL     OW44512   1.222   0.993  20.535
10878SOL    HW144513   1.271   1.074  20.549
10878SOL    HW244514   1.194   0.996  20.444
10879SOL     OW44515   0.979   0.455   1.596
10879SOL    HW144516   1.037   0.433   1.669
10879SOL    HW244517   0.920   0.522   1.631
10880SOL     OW44518   1.265   4.103   0.802
10880SOL    HW144519   1.230   4.061   0.723
10880SOL    HW244520   1.316   4.177   0.768
10881SOL     OW44521   1.637   3.833  15.463
10881SOL    HW144522   1.631   3.916  15.512
10881SOL    HW244523   1.623   3.858  15.372
10882SOL     OW44524   0.051   2.410   1.726
10882SOL    HW144525   4.787   2.485   1.712
10882SOL    HW244526   0.102   2.404   1.646
10883SOL     OW44527   1.834   2.191   1.954
10883SOL    HW144528   1.761   2.129   1.946
10883SOL    HW244529   1.877   2.165   2.036
10884SOL     OW44530   2.294   3.973   5.285
10884SOL    HW144531   2.263   3.902   5.342
10884SOL    HW244532   2.386   3.986   5.311
10885SOL     OW44533   4.302   0.049   2.123
10885SOL    HW144534   4.370   0.105   2.085
10885SOL    HW244535   4.347   0.002   2.194
10886SOL     OW44536   2.840   2.547  19.131
10886SOL    HW144537   2.817   2.520  19.220
10886SOL    HW244538   2.767   2.603  19.103
10887SOL     OW44539   2.951   1.898  16.253
10887SOL    HW144540   2.942   1.809  16.221
10887SOL    HW244541   2.866   1.919  16.291
10888SOL     OW44542   1.629   3.543   1.781
10888SOL    HW144543   1.713   3.497   1.775
10888SOL    HW244544   1.633   3.588   1.865
10889SOL     OW44545   1.064   3.576  19.182
10889SOL    HW144546   1.089   3.609  19.096
10889SOL    HW244547   1.147   3.562  19.227
10890SOL     OW44548   3.180   1.751  19.535
10890SOL    HW144549   3.084   1.756  19.539
10890SOL    HW244550   3.209   1.766  19.625
10891SOL     OW44551   0.792   0.022  16.256
10891SOL    HW144552   0.748   4.737  16.224
10891SOL    HW244553   0.760   0.092  16.200
10892SOL     OW44554   2.947   1.526  16.796
10892SOL    HW144555   2.939   1.540  16.890
10892SOL    HW244556   3.041   1.534  16.779
10893SOL     OW44557   0.974   0.930  18.193
10893SOL    HW144558   0.899   0.874  18.177
10893SOL    HW244559   0.987   0.978  18.111
10894SOL     OW44560   0.374   2.900  15.824
10894SOL    HW144561   0.283   2.876  15.845
10894SOL    HW244562   0.423   2.881  15.904
10895SOL     OW44563   0.626   2.578  17.087
10895SOL    HW144564   0.573   2.578  17.007
10895SOL    HW244565   0.645   2.671  17.103
10896SOL     OW44566   3.447   3.584  19.124
10896SOL    HW144567   3.446   3.587  19.029
10896SOL    HW244568   3.359   3.555  19.149
10897SOL     OW44569   2.118   1.575  20.522
10897SOL    HW144570   2.109   1.659  20.478
10897SOL    HW244571   2.210   1.551  20.512
10898SOL     OW44572   0.754   0.166  19.536
10898SOL    HW144573   0.793   0.247  19.501
10898SOL    HW244574   0.786   0.161  19.626
10899SOL     OW44575   3.619   2.004   0.165
10899SOL    HW144576   3.664   2.003   0.249
10899SOL    HW244577   3.677   2.053   0.106
10900SOL     OW44578   4.111   3.147   5.222
10900SOL    HW144579   4.063   3.128   5.303
10900SOL    HW244580   4.044   3.167   5.157
10901SOL     OW44581   0.669   3.071  17.277
10901SOL    HW144582   0.612   3.148  17.279
10901SOL    HW244583   0.622   3.008  17.222
10902SOL     OW44584   2.838   4.393  17.823
10902SOL    HW144585   2.872   4.482  17.836
10902SOL    HW244586   2.914   4.341  17.802
10903SOL     OW44587   1.950   2.908   0.181
10903SOL    HW144588   1.918   2.901   0.271
10903SOL    HW244589   1.895   2.976   0.141
10904SOL     OW44590   4.026   2.765  17.234
10904SOL    HW144591   3.939   2.741  17.204
10904SOL    HW244592   4.084   2.700  17.193
10905SOL     OW44593   0.886   4.700  18.222
10905SOL    HW144594   0.887   4.617  18.176
10905SOL    HW244595   0.964   4.697  18.279
10906SOL     OW44596   3.032   2.760   1.823
10906SOL    HW144597   3.022   2.777   1.729
10906SOL    HW244598   2.976   2.685   1.840
10907SOL     OW44599   0.815   4.045  19.153
10907SOL    HW144600   0.904   4.077  19.165
10907SOL    HW244601   0.799   4.052  19.059
10908SOL     OW44602   2.653   0.200   2.525
10908SOL    HW144603   2.627   0.223   2.436
10908SOL    HW244604   2.748   0.190   2.520
10909SOL     OW44605   3.902   4.787  20.757
10909SOL    HW144606   3.982   4.763  20.711
10909SOL    HW244607   3.835   4.790  20.689
10910SOL     OW44608   1.349   3.761  15.271
10910SOL    HW144609   1.306   3.751  15.356
10910SOL    HW244610   1.278   3.782  15.211
10911SOL     OW44611   2.605   0.801  17.702
10911SOL    HW144612   2.610   0.779  17.609
10911SOL    HW244613   2.573   0.891  17.705
10912SOL     OW44614   1.577   0.328   5.621
10912SOL    HW144615   1.539   0.294   5.539
10912SOL    HW244616   1.579   0.423   5.609
10913SOL     OW44617   3.225   2.736   0.366
10913SOL    HW144618   3.269   2.820   0.367
10913SOL    HW244619   3.247   2.696   0.451
10914SOL     OW44620   1.018   2.870   4.773
10914SOL    HW144621   1.004   2.797   4.833
10914SOL    HW244622   1.047   2.829   4.691
10915SOL     OW44623   0.542   0.028  18.982
10915SOL    HW144624   0.619   0.084  18.991
10915SOL    HW244625   0.468   0.089  18.979
10916SOL     OW44626   1.222   2.657  18.792
10916SOL    HW144627   1.173   2.575  18.778
10916SOL    HW244628   1.210   2.675  18.886
10917SOL     OW44629   2.982   4.598  16.655
10917SOL    HW144630   2.944   4.631  16.573
10917SOL    HW244631   3.073   4.578  16.633
10918SOL     OW44632   2.064   4.490   2.589
10918SOL    HW144633   2.021   4.568   2.554
10918SOL    HW244634   2.124   4.462   2.520
10919SOL     OW44635   1.102   2.658   1.163
10919SOL    HW144636   1.195   2.682   1.174
10919SOL    HW244637   1.062   2.737   1.126
10920SOL     OW44638   0.966   4.190  15.237
10920SOL    HW144639   0.918   4.267  15.207
10920SOL    HW244640   0.918   4.116  15.199
10921SOL     OW44641   1.865   2.375  17.578
10921SOL    HW144642   1.901   2.463  17.570
10921SOL    HW244643   1.775   2.382  17.545
10922SOL     OW44644   1.589   1.585   2.600
10922SOL    HW144645   1.521   1.521   2.575
10922SOL    HW244646   1.620   1.621   2.518
10923SOL     OW44647   0.893   2.661   4.950
10923SOL    HW144648   0.934   2.704   5.024
10923SOL    HW244649   0.803   2.693   4.950
10924SOL     OW44650   0.239   3.100   5.415
10924SOL    HW144651   0.155   3.054   5.409
10924SOL    HW244652   0.215   3.192   5.427
10925SOL     OW44653   2.620   2.960  18.154
10925SOL    HW144654   2.535   2.996  18.129
10925SOL    HW244655   2.603   2.868  18.171
10926SOL     OW44656   4.391   0.652  18.737
10926SOL    HW144657   4.462   0.588  18.736
10926SOL    HW244658   4.408   0.706  18.814
10927SOL     OW44659   2.013   0.389   1.461
10927SOL    HW144660   2.061   0.382   1.543
10927SOL    HW244661   1.954   0.463   1.474
10928SOL     OW44662   1.391   1.268  16.920
10928SOL    HW144663   1.437   1.302  16.844
10928SOL    HW244664   1.392   1.173  16.909
10929SOL     OW44665   1.370   1.493   5.035
10929SOL    HW144666   1.369   1.541   5.118
10929SOL    HW244667   1.442   1.431   5.045
10930SOL     OW44668   3.356   3.391  21.133
10930SOL    HW144669   3.313   3.467  21.094
10930SOL    HW244670   3.287   3.324  21.137
10931SOL     OW44671   2.637   0.894  19.814
10931SOL    HW144672   2.592   0.896  19.898
10931SOL    HW244673   2.600   0.969  19.766
10932SOL     OW44674   3.620   2.657  14.926
10932SOL    HW144675   3.637   2.715  15.000
10932SOL    HW244676   3.527   2.638  14.931
10933SOL     OW44677   2.662   0.717   8.825
10933SOL    HW144678   2.597   0.662   8.780
10933SOL    HW244679   2.670   0.795   8.770
10934SOL     OW44680   2.560   1.109  16.443
10934SOL    HW144681   2.588   1.020  16.423
10934SOL    HW244682   2.529   1.144  16.359
10935SOL     OW44683   4.214   0.358  18.618
10935SOL    HW144684   4.144   0.421  18.633
10935SOL    HW244685   4.266   0.360  18.699
10936SOL     OW44686   3.718   4.730   3.134
10936SOL    HW144687   3.794   4.734   3.075
10936SOL    HW244688   3.645   4.703   3.078
10937SOL     OW44689   1.285   2.126  20.939
10937SOL    HW144690   1.278   2.031  20.945
10937SOL    HW244691   1.283   2.156  21.030
10938SOL     OW44692   3.860   3.056  13.669
10938SOL    HW144693   3.799   3.064  13.741
10938SOL    HW244694   3.813   3.007  13.602
10939SOL     OW44695   3.460   1.313  17.939
10939SOL    HW144696   3.462   1.403  17.906
10939SOL    HW244697   3.548   1.279  17.921
10940SOL     OW44698   4.769   1.432   8.158
10940SOL    HW144699   4.772   1.393   8.071
10940SOL    HW244700   4.720   1.513   8.147
10941SOL     OW44701   3.633   0.762  20.834
10941SOL    HW144702   3.686   0.811  20.771
10941SOL    HW244703   3.601   0.828  20.896
10942SOL     OW44704   4.745   2.217  16.772
10942SOL    HW144705   0.039   2.235  16.805
10942SOL    HW244706   4.693   2.195  16.849
10943SOL     OW44707   3.610   4.409  19.937
10943SOL    HW144708   3.665   4.417  19.859
10943SOL    HW244709   3.584   4.499  19.957
10944SOL     OW44710   1.935   4.546   5.869
10944SOL    HW144711   1.958   4.456   5.889
10944SOL    HW244712   1.872   4.540   5.798
10945SOL     OW44713   0.698   0.894  20.811
10945SOL    HW144714   0.725   0.935  20.729
10945SOL    HW244715   0.605   0.917  20.820
10946SOL     OW44716   2.607   0.288   3.103
10946SOL    HW144717   2.638   0.350   3.169
10946SOL    HW244718   2.600   0.205   3.149
10947SOL     OW44719   0.537   4.139  21.168
10947SOL    HW144720   0.481   4.216  21.161
10947SOL    HW244721   0.623   4.169  21.136
10948SOL     OW44722   1.042   3.042   1.192
10948SOL    HW144723   0.995   2.980   1.137
10948SOL    HW244724   1.073   3.109   1.131
10949SOL     OW44725   3.921   2.243   3.000
10949SOL    HW144726   3.978   2.276   2.930
10949SOL    HW244727   3.842   2.297   2.994
10950SOL     OW44728   4.137   3.970  20.624
10950SOL    HW144729   4.133   4.046  20.682
10950SOL    HW244730   4.064   3.915  20.651
10951SOL     OW44731   4.381   0.019   0.993
10951SOL    HW144732   4.299   4.765   1.001
10951SOL    HW244733   4.362   0.090   0.931
10952SOL     OW44734   4.368   3.785  18.584
10952SOL    HW144735   4.417   3.867  18.582
10952SOL    HW244736   4.316   3.785  18.503
10953SOL     OW44737   1.701   1.140   4.285
10953SOL    HW144738   1.697   1.170   4.194
10953SOL    HW244739   1.677   1.217   4.336
10954SOL     OW44740   4.464   2.484  16.899
10954SOL    HW144741   4.378   2.468  16.938
10954SOL    HW244742   4.452   2.563  16.846
10955SOL     OW44743   3.922   4.039  20.411
10955SOL    HW144744   4.005   4.006  20.445
10955SOL    HW244745   3.898   3.977  20.342
10956SOL     OW44746   3.344   3.952   0.460
10956SOL    HW144747   3.389   3.869   0.450
10956SOL    HW244748   3.290   3.960   0.381
10957SOL     OW44749   3.091   4.409  19.820
10957SOL    HW144750   3.056   4.464  19.890
10957SOL    HW244751   3.100   4.322  19.861
10958SOL     OW44752   1.544   2.880  18.936
10958SOL    HW144753   1.512   2.897  19.025
10958SOL    HW244754   1.486   2.814  18.901
10959SOL     OW44755   3.075   4.427   0.976
10959SOL    HW144756   3.017   4.358   0.944
10959SOL    HW244757   3.029   4.465   1.051
10960SOL     OW44758   1.124   2.304  19.039
10960SOL    HW144759   1.184   2.322  19.111
10960SOL    HW244760   1.097   2.213  19.053
10961SOL     OW44761   4.045   1.694   0.271
10961SOL    HW144762   4.064   1.642   0.348
10961SOL    HW244763   4.122   1.685   0.215
10962SOL     OW44764   1.523   2.448  16.328
10962SOL    HW144765   1.487   2.371  16.284
10962SOL    HW244766   1.610   2.420  16.357
10963SOL     OW44767   3.063   3.590   2.673
10963SOL    HW144768   3.041   3.575   2.581
10963SOL    HW244769   2.989   3.641   2.707
10964SOL     OW44770   1.559   2.598  18.147
10964SOL    HW144771   1.537   2.677  18.197
10964SOL    HW244772   1.573   2.531  18.214
10965SOL     OW44773   1.583   4.517  19.734
10965SOL    HW144774   1.544   4.433  19.709
10965SOL    HW244775   1.645   4.495  19.804
10966SOL     OW44776   1.461   0.874   3.378
10966SOL    HW144777   1.442   0.956   3.332
10966SOL    HW244778   1.534   0.835   3.328
10967SOL     OW44779   0.139   4.570   0.644
10967SOL    HW144780   0.109   4.511   0.713
10967SOL    HW244781   0.219   4.531   0.611
10968SOL     OW44782   0.995   1.200  16.903
10968SOL    HW144783   0.975   1.221  16.994
10968SOL    HW244784   1.049   1.272  16.872
10969SOL     OW44785   1.967   1.652   4.058
10969SOL    HW144786   2.048   1.601   4.058
10969SOL    HW244787   1.923   1.627   3.977
10970SOL     OW44788   2.430   2.828  19.295
10970SOL    HW144789   2.512   2.860  19.332
10970SOL    HW244790   2.367   2.898  19.310
10971SOL     OW44791   2.001   3.720  15.691
10971SOL    HW144792   1.963   3.649  15.742
10971SOL    HW244793   1.948   3.723  15.611
10972SOL     OW44794   3.157   2.578   4.763
10972SOL    HW144795   3.210   2.514   4.714
10972SOL    HW244796   3.074   2.580   4.716
10973SOL     OW44797   4.019   0.160   0.772
10973SOL    HW144798   4.093   0.105   0.747
10973SOL    HW244799   4.001   0.137   0.863
10974SOL     OW44800   0.304   3.846  19.599
10974SOL    HW144801   0.256   3.919  19.638
10974SOL    HW244802   0.288   3.772  19.658
10975SOL     OW44803   0.699   1.958  12.613
10975SOL    HW144804   0.661   1.956  12.701
10975SOL    HW244805   0.670   1.876  12.573
10976SOL     OW44806   1.588   1.502   1.341
10976SOL    HW144807   1.555   1.568   1.403
10976SOL    HW244808   1.516   1.440   1.331
10977SOL     OW44809   0.652   3.902   1.061
10977SOL    HW144810   0.568   3.867   1.031
10977SOL    HW244811   0.711   3.826   1.060
10978SOL     OW44812   4.555   4.676   0.554
10978SOL    HW144813   4.480   4.684   0.612
10978SOL    HW244814   4.556   4.584   0.528
10979SOL     OW44815   4.249   1.691  19.167
10979SOL    HW144816   4.285   1.625  19.107
10979SOL    HW244817   4.287   1.669  19.252
10980SOL     OW44818   3.486   0.922  16.560
10980SOL    HW144819   3.436   0.977  16.500
10980SOL    HW244820   3.440   0.837  16.558
10981SOL     OW44821   1.306   3.596   2.000
10981SOL    HW144822   1.352   3.670   1.959
10981SOL    HW244823   1.318   3.524   1.939
10982SOL     OW44824   1.294   0.367  16.201
10982SOL    HW144825   1.386   0.343  16.211
10982SOL    HW244826   1.255   0.347  16.287
10983SOL     OW44827   2.957   4.721   4.210
10983SOL    HW144828   2.936   4.632   4.181
10983SOL    HW244829   2.931   4.723   4.302
10984SOL     OW44830   1.256   3.127   7.852
10984SOL    HW144831   1.346   3.097   7.846
10984SOL    HW244832   1.238   3.167   7.767
10985SOL     OW44833   0.876   2.275  21.080
10985SOL    HW144834   0.846   2.305  21.165
10985SOL    HW244835   0.910   2.187  21.095
10986SOL     OW44836   3.969   4.237  20.060
10986SOL    HW144837   3.999   4.304  19.999
10986SOL    HW244838   4.031   4.165  20.050
10987SOL     OW44839   2.938   3.010  16.300
10987SOL    HW144840   2.911   2.989  16.390
10987SOL    HW244841   3.013   3.068  16.311
10988SOL     OW44842   4.480   0.772  21.129
10988SOL    HW144843   4.513   0.684  21.111
10988SOL    HW244844   4.403   0.758  21.183
10989SOL     OW44845   0.807   4.077  18.416
10989SOL    HW144846   0.810   4.154  18.359
10989SOL    HW244847   0.716   4.046  18.410
10990SOL     OW44848   3.666   2.298   4.453
10990SOL    HW144849   3.618   2.227   4.496
10990SOL    HW244850   3.688   2.263   4.367
10991SOL     OW44851   0.765   3.375   9.396
10991SOL    HW144852   0.838   3.433   9.376
10991SOL    HW244853   0.750   3.326   9.315
10992SOL     OW44854   0.541   2.415   1.965
10992SOL    HW144855   0.551   2.333   1.916
10992SOL    HW244856   0.487   2.470   1.908
10993SOL     OW44857   0.830   1.485   8.345
10993SOL    HW144858   0.818   1.459   8.436
10993SOL    HW244859   0.873   1.571   8.350
10994SOL     OW44860   2.110   1.364   1.513
10994SOL    HW144861   2.121   1.427   1.584
10994SOL    HW244862   2.016   1.344   1.514
10995SOL     OW44863   4.253   2.704  17.638
10995SOL    HW144864   4.198   2.754  17.579
10995SOL    HW244865   4.277   2.626  17.589
10996SOL     OW44866   1.546   1.038   9.024
10996SOL    HW144867   1.517   0.955   9.061
10996SOL    HW244868   1.528   1.102   9.094
10997SOL     OW44869   3.494   3.770   0.633
10997SOL    HW144870   3.507   3.690   0.684
10997SOL    HW244871   3.501   3.742   0.541
10998SOL     OW44872   2.058   2.388   6.366
10998SOL    HW144873   2.096   2.433   6.441
10998SOL    HW244874   1.972   2.430   6.354
10999SOL     OW44875   3.661   3.424  18.309
10999SOL    HW144876   3.625   3.337  18.329
10999SOL    HW244877   3.753   3.418  18.335
11000SOL     OW44878   3.493   2.971   5.546
11000SOL    HW144879   3.420   3.025   5.515
11000SOL    HW244880   3.455   2.884   5.559
11001SOL     OW44881   2.825   1.516   8.051
11001SOL    HW144882   2.908   1.563   8.051
11001SOL    HW244883   2.817   1.480   8.140
11002SOL     OW44884   1.068   4.001   1.241
11002SOL    HW144885   1.025   3.975   1.160
11002SOL    HW244886   1.012   4.071   1.276
11003SOL     OW44887   3.636   3.262   0.048
11003SOL    HW144888   3.691   3.340   0.038
11003SOL    HW244889   3.698   3.193   0.072
11004SOL     OW44890   3.381   4.746   8.045
11004SOL    HW144891   3.343   4.672   7.997
11004SOL    HW244892   3.357   0.029   7.992
11005SOL     OW44893   2.865   3.305   8.604
11005SOL    HW144894   2.900   3.222   8.634
11005SOL    HW244895   2.810   3.336   8.676
11006SOL     OW44896   2.110   1.471  19.921
11006SOL    HW144897   2.169   1.471  19.996
11006SOL    HW244898   2.112   1.381  19.889
11007SOL     OW44899   1.483   3.786  10.599
11007SOL    HW144900   1.429   3.713  10.567
11007SOL    HW244901   1.420   3.849  10.634
11008SOL     OW44902   2.082   3.756   9.639
11008SOL    HW144903   2.027   3.699   9.584
11008SOL    HW244904   2.021   3.818   9.677
11009SOL     OW44905   0.596   3.175  11.456
11009SOL    HW144906   0.676   3.214  11.492
11009SOL    HW244907   0.625   3.125  11.380
11010SOL     OW44908   3.847   3.173   5.129
11010SOL    HW144909   3.837   3.170   5.224
11010SOL    HW244910   3.775   3.119   5.096
11011SOL     OW44911   0.214   3.548   9.250
11011SOL    HW144912   0.204   3.597   9.332
11011SOL    HW244913   0.272   3.475   9.272
11012SOL     OW44914   2.705   2.989  10.105
11012SOL    HW144915   2.685   3.063  10.162
11012SOL    HW244916   2.630   2.931  10.114
11013SOL     OW44917   1.020   3.549   9.336
11013SOL    HW144918   1.085   3.485   9.306
11013SOL    HW244919   0.966   3.566   9.260
11014SOL     OW44920   3.026   0.079   9.465
11014SOL    HW144921   2.934   0.051   9.463
11014SOL    HW244922   3.038   0.128   9.384
11015SOL     OW44923   2.869   4.176  10.364
11015SOL    HW144924   2.964   4.181  10.353
11015SOL    HW244925   2.835   4.255  10.322
11016SOL     OW44926   1.996   3.498  12.276
11016SOL    HW144927   2.092   3.495  12.270
11016SOL    HW244928   1.972   3.412  12.311
11017SOL     OW44929   2.012   3.806  11.871
11017SOL    HW144930   2.030   3.740  11.937
11017SOL    HW244931   1.917   3.805  11.861
11018SOL     OW44932   3.211   0.284  11.977
11018SOL    HW144933   3.208   0.206  12.033
11018SOL    HW244934   3.155   0.348  12.021
11019SOL     OW44935   3.677   4.699  11.966
11019SOL    HW144936   3.754   4.641  11.972
11019SOL    HW244937   3.680   4.751  12.046
11020SOL     OW44938   2.409   3.629  11.080
11020SOL    HW144939   2.403   3.641  11.175
11020SOL    HW244940   2.439   3.714  11.048
11021SOL     OW44941   2.200   2.335  12.902
11021SOL    HW144942   2.179   2.400  12.968
11021SOL    HW244943   2.127   2.340  12.840
11022SOL     OW44944   2.926   4.767  11.582
11022SOL    HW144945   2.999   4.708  11.561
11022SOL    HW244946   2.945   0.002  11.671
11023SOL     OW44947   3.716   2.976  13.000
11023SOL    HW144948   3.729   2.916  13.074
11023SOL    HW244949   3.631   3.018  13.017
11024SOL     OW44950   1.072   4.578  11.035
11024SOL    HW144951   1.015   4.524  10.981
11024SOL    HW244952   1.150   4.525  11.048
11025SOL     OW44953   2.607   2.262  12.080
11025SOL    HW144954   2.523   2.289  12.115
11025SOL    HW244955   2.629   2.328  12.015
11026SOL     OW44956   2.341   3.594  10.702
11026SOL    HW144957   2.323   3.515  10.652
11026SOL    HW244958   2.416   3.571  10.757
11027SOL     OW44959   2.436   1.818  16.464
11027SOL    HW144960   2.527   1.797  16.486
11027SOL    HW244961   2.429   1.913  16.476
11028SOL     OW44962   2.508   3.469  10.902
11028SOL    HW144963   2.481   3.523  10.976
11028SOL    HW244964   2.600   3.493  10.888
11029SOL     OW44965   2.008   3.292  11.018
11029SOL    HW144966   2.012   3.213  11.071
11029SOL    HW244967   2.097   3.328  11.020
11030SOL     OW44968   2.047   0.350  11.768
11030SOL    HW144969   2.133   0.347  11.810
11030SOL    HW244970   2.045   0.271  11.713
11031SOL     OW44971   2.567   2.337  12.428
11031SOL    HW144972   2.472   2.332  12.441
11031SOL    HW244973   2.578   2.412  12.369
11032SOL     OW44974   3.813   2.388  16.522
11032SOL    HW144975   3.841   2.405  16.432
11032SOL    HW244976   3.823   2.293  16.533
11033SOL     OW44977   2.361   4.768  18.822
11033SOL    HW144978   2.321   4.744  18.738
11033SOL    HW244979   2.448   4.729  18.819
11034SOL     OW44980   4.442   2.263  15.129
11034SOL    HW144981   4.389   2.261  15.049
11034SOL    HW244982   4.478   2.352  15.131
11035SOL     OW44983   2.598   0.897   2.506
11035SOL    HW144984   2.597   0.938   2.420
11035SOL    HW244985   2.508   0.902   2.537
11036SOL     OW44986   2.006   4.037  20.632
11036SOL    HW144987   2.003   4.123  20.588
11036SOL    HW244988   2.085   3.996  20.599
11037SOL     OW44989   3.111   0.986   5.482
11037SOL    HW144990   3.082   1.073   5.457
11037SOL    HW244991   3.075   0.928   5.415
11038SOL     OW44992   4.150   1.868   3.257
11038SOL    HW144993   4.161   1.781   3.296
11038SOL    HW244994   4.056   1.885   3.263
11039SOL     OW44995   1.363   2.565   4.801
11039SOL    HW144996   1.339   2.577   4.893
11039SOL    HW244997   1.280   2.565   4.754
11040SOL     OW44998   1.341   2.274  13.272
11040SOL    HW144999   1.262   2.223  13.291
11040SOL    HW245000   1.323   2.317  13.188
11041SOL     OW45001   2.568   2.425   8.451
11041SOL    HW145002   2.603   2.412   8.539
11041SOL    HW245003   2.516   2.347   8.433
11042SOL     OW45004   3.827   0.363   7.501
11042SOL    HW145005   3.838   0.430   7.433
11042SOL    HW245006   3.732   0.349   7.506
11043SOL     OW45007   2.026   0.766   8.375
11043SOL    HW145008   1.995   0.682   8.410
11043SOL    HW245009   1.995   0.767   8.285
11044SOL     OW45010   4.781   1.130   2.186
11044SOL    HW145011   4.727   1.194   2.140
11044SOL    HW245012   0.074   1.138   2.147
11045SOL     OW45013   1.461   1.832  16.732
11045SOL    HW145014   1.449   1.818  16.638
11045SOL    HW245015   1.371   1.839  16.766
11046SOL     OW45016   2.101   1.834  15.776
11046SOL    HW145017   2.192   1.862  15.778
11046SOL    HW245018   2.105   1.739  15.783
11047SOL     OW45019   1.558   4.705  11.905
11047SOL    HW145020   1.556   4.777  11.842
11047SOL    HW245021   1.469   4.702  11.941
11048SOL     OW45022   4.677   3.255   6.041
11048SOL    HW145023   4.729   3.179   6.070
11048SOL    HW245024   4.743   3.319   6.014
11049SOL     OW45025   4.146   3.447  16.043
11049SOL    HW145026   4.186   3.399  16.115
11049SOL    HW245027   4.215   3.455  15.978
11050SOL     OW45028   4.431   0.456   6.663
11050SOL    HW145029   4.443   0.551   6.662
11050SOL    HW245030   4.366   0.439   6.595
11051SOL     OW45031   0.386   2.863  19.132
11051SOL    HW145032   0.473   2.866  19.092
11051SOL    HW245033   0.400   2.896  19.221
11052SOL     OW45034   3.833   4.240   5.807
11052SOL    HW145035   3.762   4.300   5.831
11052SOL    HW245036   3.815   4.161   5.858
11053SOL     OW45037   4.702   0.852  13.455
11053SOL    HW145038   4.707   0.947  13.459
11053SOL    HW245039   4.640   0.834  13.384
11054SOL     OW45040   0.800   2.583  21.009
11054SOL    HW145041   0.762   2.503  21.046
11054SOL    HW245042   0.730   2.619  20.954
11055SOL     OW45043   0.872   0.414  18.146
11055SOL    HW145044   0.869   0.323  18.117
11055SOL    HW245045   0.952   0.449  18.108
11056SOL     OW45046   0.019   2.469   5.507
11056SOL    HW145047   0.069   2.451   5.427
11056SOL    HW245048   4.736   2.516   5.477
11057SOL     OW45049   4.076   2.648  20.162
11057SOL    HW145050   4.136   2.720  20.143
11057SOL    HW245051   4.053   2.612  20.077
11058SOL     OW45052   3.025   2.857   3.607
11058SOL    HW145053   3.046   2.903   3.526
11058SOL    HW245054   3.102   2.802   3.624
11059SOL     OW45055   1.208   3.610  20.880
11059SOL    HW145056   1.164   3.692  20.858
11059SOL    HW245057   1.145   3.563  20.934
11060SOL     OW45058   0.441   4.628  18.846
11060SOL    HW145059   0.511   4.599  18.787
11060SOL    HW245060   0.487   4.671  18.918
11061SOL     OW45061   1.861   0.856   4.814
11061SOL    HW145062   1.865   0.926   4.748
11061SOL    HW245063   1.791   0.884   4.873
11062SOL     OW45064   3.761   2.935  20.311
11062SOL    HW145065   3.686   2.877  20.322
11062SOL    HW245066   3.836   2.883  20.341
11063SOL     OW45067   3.085   2.688   8.056
11063SOL    HW145068   3.006   2.637   8.074
11063SOL    HW245069   3.067   2.774   8.093
11064SOL     OW45070   3.764   0.623  11.536
11064SOL    HW145071   3.771   0.693  11.600
11064SOL    HW245072   3.670   0.606  11.529
11065SOL     OW45073   2.731   1.469  18.922
11065SOL    HW145074   2.822   1.441  18.929
11065SOL    HW245075   2.716   1.520  19.002
11066SOL     OW45076   0.225   1.163   4.879
11066SOL    HW145077   0.313   1.196   4.899
11066SOL    HW245078   0.219   1.081   4.928
11067SOL     OW45079   1.017   4.495  16.383
11067SOL    HW145080   1.060   4.504  16.468
11067SOL    HW245081   0.924   4.485  16.404
11068SOL     OW45082   2.049   4.303  20.519
11068SOL    HW145083   2.039   4.366  20.448
11068SOL    HW245084   1.993   4.337  20.589
11069SOL     OW45085   2.642   3.942  11.367
11069SOL    HW145086   2.633   3.850  11.391
11069SOL    HW245087   2.643   3.988  11.451
11070SOL     OW45088   3.883   1.702  12.869
11070SOL    HW145089   3.850   1.690  12.958
11070SOL    HW245090   3.916   1.792  12.868
11071SOL     OW45091   4.760   4.444  18.410
11071SOL    HW145092   4.671   4.446  18.445
11071SOL    HW245093   4.752   4.477  18.321
11072SOL     OW45094   1.045   1.891  17.688
11072SOL    HW145095   1.030   1.803  17.655
11072SOL    HW245096   0.957   1.924  17.708
11073SOL     OW45097   0.830   3.750  20.609
11073SOL    HW145098   0.806   3.666  20.649
11073SOL    HW245099   0.869   3.800  20.680
11074SOL     OW45100   3.997   3.105   3.114
11074SOL    HW145101   4.075   3.154   3.139
11074SOL    HW245102   4.031   3.029   3.067
11075SOL     OW45103   4.437   2.713   5.218
11075SOL    HW145104   4.376   2.787   5.211
11075SOL    HW245105   4.524   2.753   5.219
11076SOL     OW45106   0.806   3.303   5.091
11076SOL    HW145107   0.819   3.341   5.178
11076SOL    HW245108   0.722   3.259   5.097
11077SOL     OW45109   2.176   3.472   8.265
11077SOL    HW145110   2.118   3.448   8.337
11077SOL    HW245111   2.243   3.527   8.306
11078SOL     OW45112   1.382   1.830   6.756
11078SOL    HW145113   1.363   1.740   6.781
11078SOL    HW245114   1.425   1.867   6.833
11079SOL     OW45115   2.268   3.864   0.300
11079SOL    HW145116   2.177   3.895   0.295
11079SOL    HW245117   2.312   3.907   0.227
11080SOL     OW45118   3.719   3.672  18.672
11080SOL    HW145119   3.812   3.670  18.650
11080SOL    HW245120   3.718   3.677  18.768
11081SOL     OW45121   1.683   0.826  20.004
11081SOL    HW145122   1.767   0.811  20.047
11081SOL    HW245123   1.696   0.798  19.914
11082SOL     OW45124   0.289   4.545   3.092
11082SOL    HW145125   0.237   4.622   3.067
11082SOL    HW245126   0.224   4.477   3.107
11083SOL     OW45127   2.071   2.549   3.115
11083SOL    HW145128   2.107   2.570   3.201
11083SOL    HW245129   2.138   2.495   3.074
11084SOL     OW45130   0.777   1.967  19.200
11084SOL    HW145131   0.834   1.976  19.276
11084SOL    HW245132   0.700   2.021  19.221
11085SOL     OW45133   4.597   2.515   2.373
11085SOL    HW145134   4.521   2.550   2.325
11085SOL    HW245135   4.595   2.421   2.354
11086SOL     OW45136   1.402   0.688  13.066
11086SOL    HW145137   1.425   0.676  12.974
11086SOL    HW245138   1.471   0.745  13.100
11087SOL     OW45139   2.648   1.437  14.333
11087SOL    HW145140   2.666   1.405  14.245
11087SOL    HW245141   2.704   1.514  14.343
11088SOL     OW45142   4.401   2.875   0.858
11088SOL    HW145143   4.469   2.878   0.791
11088SOL    HW245144   4.430   2.937   0.925
11089SOL     OW45145   2.283   3.051   5.511
11089SOL    HW145146   2.228   3.009   5.445
11089SOL    HW245147   2.284   2.990   5.584
11090SOL     OW45148   0.533   4.148   3.607
11090SOL    HW145149   0.512   4.236   3.639
11090SOL    HW245150   0.599   4.115   3.669
11091SOL     OW45151   1.464   0.312  20.304
11091SOL    HW145152   1.398   0.335  20.370
11091SOL    HW245153   1.525   0.255  20.350
11092SOL     OW45154   2.504   0.892   1.403
11092SOL    HW145155   2.573   0.958   1.412
11092SOL    HW245156   2.516   0.857   1.315
11093SOL     OW45157   3.833   2.930   2.740
11093SOL    HW145158   3.758   2.903   2.686
11093SOL    HW245159   3.887   2.851   2.748
11094SOL     OW45160   4.289   2.580  15.444
11094SOL    HW145161   4.232   2.514  15.403
11094SOL    HW245162   4.375   2.538  15.448
11095SOL     OW45163   2.468   4.275   6.571
11095SOL    HW145164   2.523   4.314   6.503
11095SOL    HW245165   2.527   4.260   6.645
11096SOL     OW45166   2.523   3.811  10.923
11096SOL    HW145167   2.573   3.759  10.859
11096SOL    HW245168   2.585   3.827  10.994
11097SOL     OW45169   3.967   2.799  16.696
11097SOL    HW145170   3.975   2.780  16.602
11097SOL    HW245171   3.893   2.860  16.701
11098SOL     OW45172   3.781   3.609  16.420
11098SOL    HW145173   3.777   3.653  16.505
11098SOL    HW245174   3.845   3.539  16.433
11099SOL     OW45175   1.873   0.243  15.257
11099SOL    HW145176   1.951   0.284  15.221
11099SOL    HW245177   1.817   0.316  15.284
11100SOL     OW45178   0.818   1.635  11.846
11100SOL    HW145179   0.825   1.566  11.912
11100SOL    HW245180   0.842   1.593  11.764
11101SOL     OW45181   3.436   1.600  19.767
11101SOL    HW145182   3.427   1.580  19.674
11101SOL    HW245183   3.486   1.527  19.803
11102SOL     OW45184   3.937   1.661  20.306
11102SOL    HW145185   3.852   1.626  20.334
11102SOL    HW245186   3.946   1.743  20.355
11103SOL     OW45187   0.026   2.659   4.198
11103SOL    HW145188   4.748   2.599   4.215
11103SOL    HW245189   4.782   2.728   4.145
11104SOL     OW45190   4.016   2.078   1.860
11104SOL    HW145191   3.970   2.007   1.815
11104SOL    HW245192   4.105   2.044   1.872
11105SOL     OW45193   0.582   1.191  19.792
11105SOL    HW145194   0.542   1.277  19.778
11105SOL    HW245195   0.671   1.200  19.756
11106SOL     OW45196   1.568   1.155   3.362
11106SOL    HW145197   1.545   1.131   3.273
11106SOL    HW245198   1.653   1.112   3.377
11107SOL     OW45199   3.976   0.089  16.429
11107SOL    HW145200   4.058   0.134  16.407
11107SOL    HW245201   3.991   0.053  16.517
11108SOL     OW45202   2.123   4.328  19.198
11108SOL    HW145203   2.126   4.341  19.293
11108SOL    HW245204   2.208   4.359  19.166
11109SOL     OW45205   1.044   3.731   5.431
11109SOL    HW145206   1.037   3.647   5.475
11109SOL    HW245207   1.069   3.710   5.341
11110SOL     OW45208   3.592   1.824  16.420
11110SOL    HW145209   3.582   1.852  16.329
11110SOL    HW245210   3.562   1.899  16.472
11111SOL     OW45211   0.068   2.621  16.088
11111SOL    HW145212   4.792   2.668  16.133
11111SOL    HW245213   0.049   2.528  16.105
11112SOL     OW45214   1.146   0.666   1.387
11112SOL    HW145215   1.140   0.579   1.347
11112SOL    HW245216   1.206   0.715   1.330
11113SOL     OW45217   4.407   0.378  18.388
11113SOL    HW145218   4.359   0.366  18.470
11113SOL    HW245219   4.432   0.290  18.361
11114SOL     OW45220   3.753   3.377   2.204
11114SOL    HW145221   3.687   3.320   2.244
11114SOL    HW245222   3.828   3.372   2.263
11115SOL     OW45223   2.707   4.416   6.692
11115SOL    HW145224   2.792   4.457   6.708
11115SOL    HW245225   2.658   4.480   6.641
11116SOL     OW45226   3.695   3.587   1.686
11116SOL    HW145227   3.602   3.566   1.675
11116SOL    HW245228   3.712   3.567   1.778
11117SOL     OW45229   2.333   3.702   9.137
11117SOL    HW145230   2.247   3.693   9.177
11117SOL    HW245231   2.394   3.698   9.211
11118SOL     OW45232   1.256   1.597  18.378
11118SOL    HW145233   1.334   1.639  18.414
11118SOL    HW245234   1.275   1.504  18.379
11119SOL     OW45235   4.306   3.375   2.820
11119SOL    HW145236   4.246   3.375   2.745
11119SOL    HW245237   4.254   3.412   2.891
11120SOL     OW45238   3.750   2.203  20.767
11120SOL    HW145239   3.655   2.193  20.772
11120SOL    HW245240   3.784   2.136  20.827
11121SOL     OW45241   4.626   2.343  12.709
11121SOL    HW145242   4.594   2.302  12.790
11121SOL    HW245243   4.649   2.432  12.735
11122SOL     OW45244   3.053   2.687  13.549
11122SOL    HW145245   2.992   2.760  13.559
11122SOL    HW245246   3.057   2.647  13.636
11123SOL     OW45247   2.512   1.382   0.215
11123SOL    HW145248   2.459   1.456   0.185
11123SOL    HW245249   2.481   1.364   0.303
11124SOL     OW45250   0.499   1.691   1.626
11124SOL    HW145251   0.499   1.642   1.708
11124SOL    HW245252   0.521   1.627   1.559
11125SOL     OW45253   2.338   3.975   0.565
11125SOL    HW145254   2.382   3.979   0.480
11125SOL    HW245255   2.260   4.029   0.554
11126SOL     OW45256   0.698   2.290  15.380
11126SOL    HW145257   0.695   2.296  15.476
11126SOL    HW245258   0.785   2.324  15.357
11127SOL     OW45259   4.724   0.392  10.659
11127SOL    HW145260   0.023   0.383  10.638
11127SOL    HW245261   4.678   0.353  10.584
11128SOL     OW45262   0.629   0.370  20.900
11128SOL    HW145263   0.556   0.310  20.912
11128SOL    HW245264   0.625   0.429  20.975
11129SOL     OW45265   3.328   2.059  13.021
11129SOL    HW145266   3.317   1.979  12.970
11129SOL    HW245267   3.321   2.130  12.957
11130SOL     OW45268   3.049   3.896  15.271
11130SOL    HW145269   3.016   3.892  15.181
11130SOL    HW245270   3.095   3.980  15.276
11131SOL     OW45271   1.089   0.552  15.852
11131SOL    HW145272   1.066   0.616  15.784
11131SOL    HW245273   1.128   0.604  15.922
11132SOL     OW45274   2.486   2.532  17.796
11132SOL    HW145275   2.553   2.498  17.856
11132SOL    HW245276   2.502   2.485  17.714
11133SOL     OW45277   4.653   3.369   5.355
11133SOL    HW145278   4.560   3.354   5.338
11133SOL    HW245279   4.691   3.380   5.268
11134SOL     OW45280   1.062   3.791  12.867
11134SOL    HW145281   1.148   3.763  12.837
11134SOL    HW245282   1.041   3.732  12.939
11135SOL     OW45283   4.106   2.498   9.777
11135SOL    HW145284   4.160   2.470   9.703
11135SOL    HW245285   4.017   2.500   9.742
11136SOL     OW45286   1.145   1.566  14.581
11136SOL    HW145287   1.220   1.600  14.533
11136SOL    HW245288   1.074   1.626  14.560
11137SOL     OW45289   3.597   1.687  13.604
11137SOL    HW145290   3.617   1.779  13.620
11137SOL    HW245291   3.521   1.689  13.545
11138SOL     OW45292   0.471   0.797   3.007
11138SOL    HW145293   0.480   0.729   3.074
11138SOL    HW245294   0.428   0.870   3.051
11139SOL     OW45295   4.349   4.640   3.810
11139SOL    HW145296   4.334   4.688   3.891
11139SOL    HW245297   4.363   4.708   3.744
11140SOL     OW45298   0.328   4.735   7.615
11140SOL    HW145299   0.352   4.663   7.673
11140SOL    HW245300   0.408   4.754   7.566
11141SOL     OW45301   4.571   4.217  17.522
11141SOL    HW145302   4.554   4.309  17.542
11141SOL    HW245303   4.558   4.172  17.605
11142SOL     OW45304   4.124   3.400   0.713
11142SOL    HW145305   4.103   3.368   0.801
11142SOL    HW245306   4.184   3.335   0.677
11143SOL     OW45307   1.437   2.104  21.269
11143SOL    HW145308   1.519   2.126  21.224
11143SOL    HW245309   1.422   2.178   0.052
11144SOL     OW45310   4.229   4.283   4.511
11144SOL    HW145311   4.264   4.240   4.589
11144SOL    HW245312   4.135   4.291   4.528
11145SOL     OW45313   3.753   2.441  12.206
11145SOL    HW145314   3.785   2.511  12.263
11145SOL    HW245315   3.708   2.381  12.266
11146SOL     OW45316   1.750   2.484  20.874
11146SOL    HW145317   1.660   2.475  20.842
11146SOL    HW245318   1.740   2.525  20.960
11147SOL     OW45319   1.584   3.626  19.933
11147SOL    HW145320   1.661   3.596  19.981
11147SOL    HW245321   1.512   3.576  19.971
11148SOL     OW45322   4.622   0.303  14.078
11148SOL    HW145323   4.583   0.225  14.039
11148SOL    HW245324   4.716   0.288  14.073
11149SOL     OW45325   3.341   2.389   4.673
11149SOL    HW145326   3.420   2.418   4.628
11149SOL    HW245327   3.372   2.349   4.754
11150SOL     OW45328   1.928   4.348  20.934
11150SOL    HW145329   1.977   4.415  20.981
11150SOL    HW245330   1.854   4.328  20.991
11151SOL     OW45331   4.683   4.736  19.439
11151SOL    HW145332   4.618   4.668  19.455
11151SOL    HW245333   4.767   4.695  19.458
11152SOL     OW45334   3.173   2.633  19.229
11152SOL    HW145335   3.264   2.654  19.248
11152SOL    HW245336   3.173   2.599  19.139
11153SOL     OW45337   0.936   3.714   5.978
11153SOL    HW145338   0.956   3.749   6.065
11153SOL    HW245339   1.021   3.703   5.936
11154SOL     OW45340   2.957   1.056   6.347
11154SOL    HW145341   2.981   1.141   6.311
11154SOL    HW245342   2.977   0.994   6.277
11155SOL     OW45343   0.458   3.772   1.539
11155SOL    HW145344   0.503   3.692   1.513
11155SOL    HW245345   0.507   3.804   1.614
11156SOL     OW45346   0.122   0.847  17.864
11156SOL    HW145347   0.051   0.784  17.852
11156SOL    HW245348   0.194   0.813  17.811
11157SOL     OW45349   0.924   1.278  15.340
11157SOL    HW145350   0.936   1.304  15.431
11157SOL    HW245351   0.926   1.182  15.343
11158SOL     OW45352   0.731   2.323  15.640
11158SOL    HW145353   0.644   2.338  15.676
11158SOL    HW245354   0.790   2.364  15.704
11159SOL     OW45355   1.967   3.116  19.736
11159SOL    HW145356   1.922   3.099  19.653
11159SOL    HW245357   2.020   3.194  19.719
11160SOL     OW45358   1.727   4.100   1.332
11160SOL    HW145359   1.703   4.055   1.252
11160SOL    HW245360   1.752   4.030   1.393
11161SOL     OW45361   3.729   4.188  18.911
11161SOL    HW145362   3.775   4.115  18.868
11161SOL    HW245363   3.660   4.145  18.961
11162SOL     OW45364   0.741   1.491  19.946
11162SOL    HW145365   0.769   1.439  19.870
11162SOL    HW245366   0.808   1.558  19.955
11163SOL     OW45367   1.247   4.765   4.469
11163SOL    HW145368   1.301   4.788   4.394
11163SOL    HW245369   1.297   0.002   4.545
11164SOL     OW45370   3.417   2.415   0.280
11164SOL    HW145371   3.387   2.332   0.243
11164SOL    HW245372   3.361   2.428   0.357
11165SOL     OW45373   3.347   2.986   0.415
11165SOL    HW145374   3.373   3.057   0.357
11165SOL    HW245375   3.384   3.009   0.500
11166SOL     OW45376   1.846   3.162   6.250
11166SOL    HW145377   1.777   3.197   6.307
11166SOL    HW245378   1.845   3.219   6.173
11167SOL     OW45379   3.976   1.519   0.482
11167SOL    HW145380   4.065   1.486   0.467
11167SOL    HW245381   3.926   1.442   0.508
11168SOL     OW45382   4.476   0.128  20.817
11168SOL    HW145383   4.477   0.065  20.889
11168SOL    HW245384   4.394   0.175  20.828
11169SOL     OW45385   3.499   4.133  15.355
11169SOL    HW145386   3.591   4.119  15.376
11169SOL    HW245387   3.482   4.073  15.282
11170SOL     OW45388   1.365   3.172  17.284
11170SOL    HW145389   1.438   3.110  17.278
11170SOL    HW245390   1.395   3.249  17.235
11171SOL     OW45391   0.304   0.541   0.971
11171SOL    HW145392   0.281   0.516   0.881
11171SOL    HW245393   0.241   0.492   1.026
11172SOL     OW45394   4.726   3.870   4.640
11172SOL    HW145395   4.739   3.872   4.735
11172SOL    HW245396   4.670   3.945   4.622
11173SOL     OW45397   4.470   1.749  12.068
11173SOL    HW145398   4.559   1.714  12.057
11173SOL    HW245399   4.413   1.675  12.047
11174SOL     OW45400   4.388   4.173   2.657
11174SOL    HW145401   4.331   4.121   2.715
11174SOL    HW245402   4.342   4.256   2.646
11175SOL     OW45403   0.528   3.995   5.285
11175SOL    HW145404   0.587   3.939   5.336
11175SOL    HW245405   0.448   3.998   5.338
11176SOL     OW45406   3.765   1.092  18.713
11176SOL    HW145407   3.711   1.069  18.788
11176SOL    HW245408   3.703   1.112  18.643
11177SOL     OW45409   0.926   1.649  17.579
11177SOL    HW145410   0.959   1.567  17.540
11177SOL    HW245411   0.884   1.694  17.506
11178SOL     OW45412   3.986   0.890  19.676
11178SOL    HW145413   3.997   0.933  19.592
11178SOL    HW245414   4.032   0.947  19.738
11179SOL     OW45415   0.987   3.518  13.953
11179SOL    HW145416   0.959   3.557  14.036
11179SOL    HW245417   0.966   3.584  13.887
11180SOL     OW45418   3.392   1.479   0.141
11180SOL    HW145419   3.354   1.444   0.221
11180SOL    HW245420   3.431   1.404   0.097
11181SOL     OW45421   0.154   1.951   4.805
11181SOL    HW145422   0.103   2.030   4.786
11181SOL    HW245423   0.099   1.879   4.776
11182SOL     OW45424   0.944   1.105   3.424
11182SOL    HW145425   0.973   1.039   3.487
11182SOL    HW245426   0.907   1.175   3.477
11183SOL     OW45427   4.200   2.743  14.882
11183SOL    HW145428   4.234   2.803  14.948
11183SOL    HW245429   4.210   2.790  14.799
11184SOL     OW45430   0.627   1.101  11.124
11184SOL    HW145431   0.678   1.139  11.053
11184SOL    HW245432   0.662   1.140  11.204
11185SOL     OW45433   0.469   1.215  20.988
11185SOL    HW145434   0.552   1.257  21.011
11185SOL    HW245435   0.466   1.219  20.892
11186SOL     OW45436   2.293   3.520   5.140
11186SOL    HW145437   2.277   3.442   5.194
11186SOL    HW245438   2.338   3.581   5.198
11187SOL     OW45439   3.814   0.332   0.655
11187SOL    HW145440   3.899   0.290   0.671
11187SOL    HW245441   3.775   0.343   0.741
11188SOL     OW45442   4.163   0.748   6.687
11188SOL    HW145443   4.150   0.810   6.759
11188SOL    HW245444   4.110   0.782   6.615
11189SOL     OW45445   2.582   0.682  20.819
11189SOL    HW145446   2.532   0.748  20.770
11189SOL    HW245447   2.532   0.669  20.900
11190SOL     OW45448   1.815   1.097   5.362
11190SOL    HW145449   1.742   1.148   5.327
11190SOL    HW245450   1.777   1.013   5.387
11191SOL     OW45451   0.720   1.429   2.789
11191SOL    HW145452   0.683   1.348   2.823
11191SOL    HW245453   0.802   1.402   2.746
11192SOL     OW45454   0.053   4.032  15.135
11192SOL    HW145455   0.088   3.977  15.066
11192SOL    HW245456   0.114   4.106  15.141
11193SOL     OW45457   3.487   2.271  12.657
11193SOL    HW145458   3.427   2.286  12.731
11193SOL    HW245459   3.549   2.207  12.690
11194SOL     OW45460   1.459   0.081   6.021
11194SOL    HW145461   1.554   0.074   6.031
11194SOL    HW245462   1.447   0.129   5.939
11195SOL     OW45463   3.122   3.362  17.426
11195SOL    HW145464   3.106   3.394  17.516
11195SOL    HW245465   3.054   3.406  17.374
11196SOL     OW45466   1.580   0.058   1.260
11196SOL    HW145467   1.602   0.087   1.349
11196SOL    HW245468   1.608   4.761   1.256
11197SOL     OW45469   3.078   3.613  13.093
11197SOL    HW145470   3.110   3.538  13.041
11197SOL    HW245471   3.156   3.667  13.106
11198SOL     OW45472   2.591   1.326   5.499
11198SOL    HW145473   2.563   1.236   5.482
11198SOL    HW245474   2.682   1.317   5.527
11199SOL     OW45475   0.634   1.860  21.159
11199SOL    HW145476   0.568   1.837  21.224
11199SOL    HW245477   0.705   1.900  21.209
11200SOL     OW45478   0.216   3.240  17.151
11200SOL    HW145479   0.155   3.312  17.162
11200SOL    HW245480   0.296   3.281  17.117
11201SOL     OW45481   0.738   4.099  16.885
11201SOL    HW145482   0.730   4.113  16.790
11201SOL    HW245483   0.659   4.050  16.908
11202SOL     OW45484   0.505   4.453   5.789
11202SOL    HW145485   0.589   4.413   5.812
11202SOL    HW245486   0.527   4.541   5.760
11203SOL     OW45487   1.279   1.261   2.455
11203SOL    HW145488   1.370   1.271   2.428
11203SOL    HW245489   1.284   1.220   2.541
11204SOL     OW45490   3.053   3.207   4.227
11204SOL    HW145491   3.002   3.186   4.305
11204SOL    HW245492   3.021   3.146   4.160
11205SOL     OW45493   3.960   4.411   1.623
11205SOL    HW145494   3.898   4.372   1.685
11205SOL    HW245495   3.967   4.347   1.552
11206SOL     OW45496   1.025   1.727  14.127
11206SOL    HW145497   1.081   1.744  14.052
11206SOL    HW245498   0.961   1.663  14.095
11207SOL     OW45499   4.431   1.989   4.537
11207SOL    HW145500   4.473   1.976   4.452
11207SOL    HW245501   4.344   2.021   4.516
11208SOL     OW45502   2.351   4.649  16.049
11208SOL    HW145503   2.319   4.704  16.120
11208SOL    HW245504   2.388   4.572  16.093
11209SOL     OW45505   3.077   4.075   4.373
11209SOL    HW145506   3.100   3.987   4.342
11209SOL    HW245507   3.040   4.119   4.297
11210SOL     OW45508   3.299   2.609  12.282
11210SOL    HW145509   3.226   2.666  12.256
11210SOL    HW245510   3.328   2.644  12.366
11211SOL     OW45511   3.797   1.270   5.545
11211SOL    HW145512   3.768   1.297   5.458
11211SOL    HW245513   3.861   1.336   5.571
11212SOL     OW45514   2.616   0.016   2.928
11212SOL    HW145515   2.560   0.011   2.850
11212SOL    HW245516   2.557   4.786   3.000
11213SOL     OW45517   1.308   3.249   0.219
11213SOL    HW145518   1.306   3.196   0.139
11213SOL    HW245519   1.365   3.200   0.278
11214SOL     OW45520   3.059   1.208   3.729
11214SOL    HW145521   3.081   1.186   3.638
11214SOL    HW245522   2.972   1.248   3.723
11215SOL     OW45523   3.107   3.524   3.683
11215SOL    HW145524   3.192   3.482   3.672
11215SOL    HW245525   3.086   3.559   3.597
11216SOL     OW45526   2.388   0.484  18.036
11216SOL    HW145527   2.384   0.508  17.944
11216SOL    HW245528   2.326   0.542  18.079
11217SOL     OW45529   3.506   2.106   4.575
11217SOL    HW145530   3.439   2.127   4.641
11217SOL    HW245531   3.553   2.031   4.611
11218SOL     OW45532   0.380   1.693   1.310
11218SOL    HW145533   0.452   1.754   1.328
11218SOL    HW245534   0.302   1.749   1.307
11219SOL     OW45535   4.071   4.153  14.044
11219SOL    HW145536   3.985   4.114  14.060
11219SOL    HW245537   4.080   4.154  13.949
11220SOL     OW45538   4.060   2.386  15.831
11220SOL    HW145539   4.053   2.479  15.809
11220SOL    HW245540   4.136   2.355  15.781
11221SOL     OW45541   4.018   2.477   0.154
11221SOL    HW145542   4.006   2.559   0.202
11221SOL    HW245543   3.936   2.465   0.106
11222SOL     OW45544   4.057   3.663  17.507
11222SOL    HW145545   4.018   3.709  17.582
11222SOL    HW245546   3.984   3.613  17.469
11223SOL     OW45547   3.316   2.780  18.340
11223SOL    HW145548   3.404   2.817  18.344
11223SOL    HW245549   3.313   2.717  18.411
11224SOL     OW45550   3.583   3.732   3.797
11224SOL    HW145551   3.582   3.669   3.725
11224SOL    HW245552   3.595   3.817   3.754
11225SOL     OW45553   0.667   4.426   1.463
11225SOL    HW145554   0.613   4.421   1.385
11225SOL    HW245555   0.663   4.339   1.502
11226SOL     OW45556   4.732   2.223   5.317
11226SOL    HW145557   4.765   2.193   5.233
11226SOL    HW245558   4.777   2.306   5.332
11227SOL     OW45559   4.293   3.221  20.561
11227SOL    HW145560   4.379   3.182  20.578
11227SOL    HW245561   4.292   3.236  20.466
11228SOL     OW45562   1.252   3.810  18.406
11228SOL    HW145563   1.169   3.827  18.451
11228SOL    HW245564   1.310   3.777  18.475
11229SOL     OW45565   1.280   4.490  17.540
11229SOL    HW145566   1.294   4.434  17.616
11229SOL    HW245567   1.363   4.535  17.528
11230SOL     OW45568   3.219   4.229   2.727
11230SOL    HW145569   3.137   4.241   2.678
11230SOL    HW245570   3.286   4.265   2.670
11231SOL     OW45571   0.503   1.552   0.567
11231SOL    HW145572   0.477   1.491   0.498
11231SOL    HW245573   0.578   1.599   0.531
11232SOL     OW45574   4.410   0.864  15.379
11232SOL    HW145575   4.447   0.855  15.292
11232SOL    HW245576   4.325   0.820  15.374
11233SOL     OW45577   0.346   0.131  13.116
11233SOL    HW145578   0.315   0.165  13.032
11233SOL    HW245579   0.442   0.130  13.107
11234SOL     OW45580   1.142   0.305  20.502
11234SOL    HW145581   1.195   0.227  20.517
11234SOL    HW245582   1.112   0.330  20.590
11235SOL     OW45583   3.480   0.424  18.943
11235SOL    HW145584   3.449   0.391  18.859
11235SOL    HW245585   3.472   0.519  18.936
11236SOL     OW45586   1.164   2.382   5.564
11236SOL    HW145587   1.236   2.437   5.597
11236SOL    HW245588   1.131   2.337   5.642
11237SOL     OW45589   0.127   4.169   2.066
11237SOL    HW145590   0.042   4.213   2.071
11237SOL    HW245591   0.106   4.076   2.076
11238SOL     OW45592   3.306   4.239  16.787
11238SOL    HW145593   3.313   4.247  16.882
11238SOL    HW245594   3.319   4.328  16.755
11239SOL     OW45595   4.204   2.465  16.995
11239SOL    HW145596   4.190   2.545  16.944
11239SOL    HW245597   4.141   2.402  16.960
11240SOL     OW45598   0.995   0.853  19.856
11240SOL    HW145599   1.081   0.894  19.867
11240SOL    HW245600   0.935   0.926  19.842
11241SOL     OW45601   0.543   0.808  16.552
11241SOL    HW145602   0.474   0.823  16.617
11241SOL    HW245603   0.621   0.847  16.592
11242SOL     OW45604   2.550   4.210  14.277
11242SOL    HW145605   2.495   4.150  14.226
11242SOL    HW245606   2.610   4.152  14.325
11243SOL     OW45607   2.303   2.497   0.814
11243SOL    HW145608   2.270   2.559   0.750
11243SOL    HW245609   2.388   2.470   0.781
11244SOL     OW45610   3.628   0.670  20.451
11244SOL    HW145611   3.659   0.699  20.365
11244SOL    HW245612   3.565   0.737  20.478
11245SOL     OW45613   2.421   0.902   4.867
11245SOL    HW145614   2.474   0.825   4.889
11245SOL    HW245615   2.401   0.891   4.774
11246SOL     OW45616   0.736   3.437   0.015
11246SOL    HW145617   0.651   3.478   0.033
11246SOL    HW245618   0.799   3.494   0.059
11247SOL     OW45619   0.852   4.572  19.522
11247SOL    HW145620   0.788   4.505  19.498
11247SOL    HW245621   0.804   4.631  19.581
11248SOL     OW45622   0.680   0.173  13.373
11248SOL    HW145623   0.698   0.133  13.288
11248SOL    HW245624   0.585   0.168  13.383
11249SOL     OW45625   4.360   2.761  17.097
11249SOL    HW145626   4.299   2.721  17.034
11249SOL    HW245627   4.357   2.855  17.078
11250SOL     OW45628   3.108   2.865   5.973
11250SOL    HW145629   3.051   2.804   6.019
11250SOL    HW245630   3.065   2.950   5.982
11251SOL     OW45631   1.343   0.059  17.515
11251SOL    HW145632   1.385   4.768  17.499
11251SOL    HW245633   1.292   0.075  17.436
11252SOL     OW45634   0.707   1.092   3.064
11252SOL    HW145635   0.621   1.133   3.076
11252SOL    HW245636   0.693   1.024   2.998
11253SOL     OW45637   3.186   1.453   7.076
11253SOL    HW145638   3.144   1.415   6.999
11253SOL    HW245639   3.121   1.515   7.111
11254SOL     OW45640   1.780   2.058   4.410
11254SOL    HW145641   1.732   2.006   4.475
11254SOL    HW245642   1.825   1.993   4.356
11255SOL     OW45643   4.020   3.075   7.225
11255SOL    HW145644   4.007   3.021   7.147
11255SOL    HW245645   4.107   3.113   7.213
11256SOL     OW45646   1.337   1.109  13.753
11256SOL    HW145647   1.273   1.043  13.776
11256SOL    HW245648   1.321   1.181  13.815
11257SOL     OW45649   0.466   2.040  15.698
11257SOL    HW145650   0.438   2.130  15.680
11257SOL    HW245651   0.385   1.991  15.709
11258SOL     OW45652   1.250   4.488  13.470
11258SOL    HW145653   1.336   4.471  13.433
11258SOL    HW245654   1.252   4.580  13.495
11259SOL     OW45655   4.014   0.840  17.543
11259SOL    HW145656   4.096   0.877  17.577
11259SOL    HW245657   3.968   0.915  17.505
11260SOL     OW45658   2.173   2.772   0.008
11260SOL    HW145659   2.265   2.799   0.016
11260SOL    HW245660   2.123   2.847   0.039
11261SOL     OW45661   2.439   0.063   6.804
11261SOL    HW145662   2.472   0.144   6.766
11261SOL    HW245663   2.512   0.029   6.855
11262SOL     OW45664   4.230   4.230   3.504
11262SOL    HW145665   4.325   4.242   3.510
11262SOL    HW245666   4.195   4.279   3.578
11263SOL     OW45667   3.221   1.693   0.521
11263SOL    HW145668   3.271   1.683   0.440
11263SOL    HW245669   3.244   1.615   0.573
11264SOL     OW45670   2.612   0.527   0.559
11264SOL    HW145671   2.578   0.569   0.638
11264SOL    HW245672   2.652   0.598   0.509
11265SOL     OW45673   1.071   0.986   2.536
11265SOL    HW145674   1.065   0.898   2.499
11265SOL    HW245675   0.984   1.004   2.570
11266SOL     OW45676   3.987   4.062   5.641
11266SOL    HW145677   4.056   4.117   5.603
11266SOL    HW245678   3.917   4.122   5.664
11267SOL     OW45679   4.136   0.437   2.590
11267SOL    HW145680   4.148   0.417   2.683
11267SOL    HW245681   4.041   0.440   2.579
11268SOL     OW45682   4.601   0.628  16.923
11268SOL    HW145683   4.608   0.602  17.015
11268SOL    HW245684   4.507   0.634  16.907
11269SOL     OW45685   3.178   0.958   2.164
11269SOL    HW145686   3.178   0.999   2.250
11269SOL    HW245687   3.260   0.988   2.123
11270SOL     OW45688   2.892   1.829  17.784
11270SOL    HW145689   2.879   1.897  17.851
11270SOL    HW245690   2.818   1.840  17.724
11271SOL     OW45691   1.585   3.886  17.797
11271SOL    HW145692   1.638   3.806  17.802
11271SOL    HW245693   1.528   3.872  17.721
11272SOL     OW45694   3.361   0.479   2.577
11272SOL    HW145695   3.370   0.388   2.550
11272SOL    HW245696   3.332   0.526   2.499
11273SOL     OW45697   2.465   1.540  19.609
11273SOL    HW145698   2.530   1.508  19.671
11273SOL    HW245699   2.502   1.623  19.577
11274SOL     OW45700   4.051   1.188  19.597
11274SOL    HW145701   4.020   1.158  19.512
11274SOL    HW245702   3.977   1.235  19.635
11275SOL     OW45703   3.797   0.354  16.967
11275SOL    HW145704   3.765   0.395  17.048
11275SOL    HW245705   3.823   0.427  16.912
11276SOL     OW45706   2.137   0.296   0.051
11276SOL    HW145707   2.116   0.343   0.132
11276SOL    HW245708   2.199   0.353   0.006
11277SOL     OW45709   2.575   1.153   0.062
11277SOL    HW145710   2.552   1.240   0.092
11277SOL    HW245711   2.655   1.166   0.011
11278SOL     OW45712   2.178   0.030  18.212
11278SOL    HW145713   2.258   0.020  18.161
11278SOL    HW245714   2.157   4.736  18.242
11279SOL     OW45715   0.056   2.769   3.473
11279SOL    HW145716   0.137   2.794   3.428
11279SOL    HW245717   0.083   2.747   3.562
11280SOL     OW45718   1.098   3.790  17.179
11280SOL    HW145719   1.085   3.881  17.152
11280SOL    HW245720   1.179   3.791  17.229
11281SOL     OW45721   1.691   0.340   2.656
11281SOL    HW145722   1.726   0.330   2.744
11281SOL    HW245723   1.641   0.422   2.660
11282SOL     OW45724   0.193   1.708  18.824
11282SOL    HW145725   0.251   1.642  18.786
11282SOL    HW245726   0.132   1.659  18.879
11283SOL     OW45727   2.035   0.275  20.035
11283SOL    HW145728   1.999   0.347  19.983
11283SOL    HW245729   1.993   0.284  20.121
11284SOL     OW45730   1.790   4.435  20.728
11284SOL    HW145731   1.724   4.487  20.773
11284SOL    HW245732   1.858   4.419  20.794
11285SOL     OW45733   3.143   0.352   1.480
11285SOL    HW145734   3.156   0.267   1.438
11285SOL    HW245735   3.199   0.350   1.557
11286SOL     OW45736   1.178   1.272  11.428
11286SOL    HW145737   1.157   1.364  11.441
11286SOL    HW245738   1.132   1.247  11.348
11287SOL     OW45739   0.202   0.770   4.728
11287SOL    HW145740   0.150   0.690   4.731
11287SOL    HW245741   0.293   0.740   4.726
11288SOL     OW45742   3.807   3.089  20.076
11288SOL    HW145743   3.897   3.091  20.110
11288SOL    HW245744   3.759   3.034  20.138
11289SOL     OW45745   0.253   2.593  20.063
11289SOL    HW145746   0.335   2.641  20.078
11289SOL    HW245747   0.272   2.503  20.092
11290SOL     OW45748   0.028   2.719  15.475
11290SOL    HW145749   4.792   2.800  15.517
11290SOL    HW245750   0.037   2.657  15.548
11291SOL     OW45751   4.523   1.522   0.246
11291SOL    HW145752   4.438   1.531   0.205
11291SOL    HW245753   4.556   1.611   0.255
11292SOL     OW45754   4.699   2.417   4.293
11292SOL    HW145755   4.687   2.356   4.221
11292SOL    HW245756   4.622   2.403   4.349
11293SOL     OW45757   1.923   2.087   4.042
11293SOL    HW145758   1.988   2.158   4.041
11293SOL    HW245759   1.965   2.016   4.091
11294SOL     OW45760   2.845   1.190  20.320
11294SOL    HW145761   2.835   1.262  20.383
11294SOL    HW245762   2.850   1.233  20.235
11295SOL     OW45763   1.844   3.854  15.132
11295SOL    HW145764   1.757   3.824  15.103
11295SOL    HW245765   1.825   3.915  15.204
11296SOL     OW45766   3.377   1.870  20.730
11296SOL    HW145767   3.382   1.785  20.774
11296SOL    HW245768   3.353   1.932  20.800
11297SOL     OW45769   3.554   1.513  19.283
11297SOL    HW145770   3.496   1.564  19.339
11297SOL    HW245771   3.519   1.424  19.287
11298SOL     OW45772   1.158   4.546   3.288
11298SOL    HW145773   1.211   4.560   3.366
11298SOL    HW245774   1.196   4.470   3.246
11299SOL     OW45775   3.993   1.975   4.987
11299SOL    HW145776   4.009   1.901   5.047
11299SOL    HW245777   3.898   1.982   4.983
11300SOL     OW45778   0.042   0.972   1.024
11300SOL    HW145779   0.052   0.920   0.944
11300SOL    HW245780   0.132   0.990   1.053
11301SOL     OW45781   3.996   1.838  20.507
11301SOL    HW145782   3.948   1.813  20.585
11301SOL    HW245783   3.961   1.924  20.484
11302SOL     OW45784   2.727   4.169   2.224
11302SOL    HW145785   2.820   4.168   2.248
11302SOL    HW245786   2.704   4.262   2.224
11303SOL     OW45787   4.619   4.444  19.475
11303SOL    HW145788   4.704   4.455  19.431
11303SOL    HW245789   4.598   4.351  19.463
11304SOL     OW45790   1.530   4.501   8.604
11304SOL    HW145791   1.609   4.460   8.569
11304SOL    HW245792   1.458   4.457   8.558
11305SOL     OW45793   0.943   1.293   3.632
11305SOL    HW145794   0.883   1.365   3.655
11305SOL    HW245795   0.949   1.240   3.712
11306SOL     OW45796   3.778   3.841  20.170
11306SOL    HW145797   3.729   3.798  20.239
11306SOL    HW245798   3.855   3.786  20.157
11307SOL     OW45799   0.167   0.603   6.744
11307SOL    HW145800   0.103   0.650   6.797
11307SOL    HW245801   0.148   0.510   6.759
11308SOL     OW45802   3.236   3.755  15.646
11308SOL    HW145803   3.174   3.770  15.574
11308SOL    HW245804   3.187   3.703  15.709
11309SOL     OW45805   4.120   2.411  15.351
11309SOL    HW145806   4.110   2.338  15.412
11309SOL    HW245807   4.043   2.405  15.293
11310SOL     OW45808   4.364   3.284   5.357
11310SOL    HW145809   4.290   3.266   5.299
11310SOL    HW245810   4.325   3.296   5.443
11311SOL     OW45811   4.169   3.957  17.872
11311SOL    HW145812   4.128   3.973  17.958
11311SOL    HW245813   4.211   3.871  17.882
11312SOL     OW45814   2.265   0.544  14.731
11312SOL    HW145815   2.202   0.536  14.659
11312SOL    HW245816   2.349   0.556  14.688
11313SOL     OW45817   3.459   3.683   1.880
11313SOL    HW145818   3.508   3.665   1.960
11313SOL    HW245819   3.413   3.601   1.861
11314SOL     OW45820   3.851   4.358  19.258
11314SOL    HW145821   3.784   4.301  19.297
11314SOL    HW245822   3.833   4.444  19.296
11315SOL     OW45823   0.508   2.388  16.665
11315SOL    HW145824   0.520   2.475  16.628
11315SOL    HW245825   0.507   2.402  16.760
11316SOL     OW45826   2.528   2.382   5.772
11316SOL    HW145827   2.522   2.412   5.681
11316SOL    HW245828   2.457   2.428   5.817
11317SOL     OW45829   0.592   2.033   1.095
11317SOL    HW145830   0.622   2.122   1.116
11317SOL    HW245831   0.500   2.033   1.121
11318SOL     OW45832   3.563   3.760  17.426
11318SOL    HW145833   3.594   3.836  17.474
11318SOL    HW245834   3.479   3.788  17.388
11319SOL     OW45835   0.122   1.503  17.678
11319SOL    HW145836   0.213   1.532  17.688
11319SOL    HW245837   0.083   1.519  17.764
11320SOL     OW45838   4.215   2.709  19.642
11320SOL    HW145839   4.151   2.697  19.572
11320SOL    HW245840   4.270   2.782  19.611
11321SOL     OW45841   4.410   3.670  19.831
11321SOL    HW145842   4.333   3.677  19.774
11321SOL    HW245843   4.470   3.613  19.783
11322SOL     OW45844   1.642   4.276  16.965
11322SOL    HW145845   1.561   4.237  16.930
11322SOL    HW245846   1.656   4.231  17.048
11323SOL     OW45847   2.301   2.394  11.548
11323SOL    HW145848   2.289   2.427  11.458
11323SOL    HW245849   2.358   2.458  11.589
11324SOL     OW45850   1.237   4.364  14.228
11324SOL    HW145851   1.250   4.373  14.323
11324SOL    HW245852   1.187   4.442  14.203
11325SOL     OW45853   3.316   1.264   2.892
11325SOL    HW145854   3.360   1.181   2.912
11325SOL    HW245855   3.311   1.267   2.797
11326SOL     OW45856   3.542   3.153   2.140
11326SOL    HW145857   3.534   3.067   2.182
11326SOL    HW245858   3.621   3.145   2.086
11327SOL     OW45859   2.036   0.970   8.558
11327SOL    HW145860   2.116   0.946   8.606
11327SOL    HW245861   2.021   0.897   8.498
11328SOL     OW45862   1.534   0.596  18.843
11328SOL    HW145863   1.532   0.690  18.857
11328SOL    HW245864   1.485   0.583  18.762
11329SOL     OW45865   1.136   0.157  18.450
11329SOL    HW145866   1.183   0.158  18.534
11329SOL    HW245867   1.130   0.065  18.426
11330SOL     OW45868   1.605   4.137   5.238
11330SOL    HW145869   1.576   4.214   5.286
11330SOL    HW245870   1.694   4.158   5.209
11331SOL     OW45871   0.916   2.550   4.237
11331SOL    HW145872   0.853   2.526   4.305
11331SOL    HW245873   0.939   2.641   4.257
11332SOL     OW45874   2.034   3.153   5.607
11332SOL    HW145875   1.978   3.088   5.566
11332SOL    HW245876   2.116   3.149   5.557
11333SOL     OW45877   2.869   4.700  19.876
11333SOL    HW145878   2.884   4.664  19.788
11333SOL    HW245879   2.873   4.623  19.933
11334SOL     OW45880   3.462   2.037   6.489
11334SOL    HW145881   3.377   2.029   6.532
11334SOL    HW245882   3.442   2.037   6.396
11335SOL     OW45883   2.285   3.062  19.295
11335SOL    HW145884   2.269   3.081  19.388
11335SOL    HW245885   2.293   3.148  19.255
11336SOL     OW45886   3.734   2.775  18.648
11336SOL    HW145887   3.703   2.686  18.666
11336SOL    HW245888   3.821   2.778  18.687
11337SOL     OW45889   0.013   0.813   4.031
11337SOL    HW145890   0.049   0.759   4.101
11337SOL    HW245891   4.713   0.793   4.032
11338SOL     OW45892   2.463   4.356   1.855
11338SOL    HW145893   2.464   4.446   1.823
11338SOL    HW245894   2.371   4.334   1.864
11339SOL     OW45895   0.754   4.359   5.380
11339SOL    HW145896   0.718   4.272   5.397
11339SOL    HW245897   0.849   4.346   5.379
11340SOL     OW45898   0.394   4.542  15.346
11340SOL    HW145899   0.365   4.454  15.370
11340SOL    HW245900   0.489   4.540  15.358
11341SOL     OW45901   1.228   2.178  16.193
11341SOL    HW145902   1.323   2.190  16.184
11341SOL    HW245903   1.208   2.101  16.141
11342SOL     OW45904   3.402   3.445   6.190
11342SOL    HW145905   3.466   3.433   6.260
11342SOL    HW245906   3.375   3.537   6.198
11343SOL     OW45907   1.005   3.133  20.071
11343SOL    HW145908   1.002   3.136  20.166
11343SOL    HW245909   1.098   3.127  20.050
11344SOL     OW45910   1.230   1.279  19.231
11344SOL    HW145911   1.258   1.268  19.141
11344SOL    HW245912   1.281   1.214  19.280
11345SOL     OW45913   3.515   3.397  18.762
11345SOL    HW145914   3.555   3.370  18.845
11345SOL    HW245915   3.431   3.351  18.760
11346SOL     OW45916   2.270   1.783  20.787
11346SOL    HW145917   2.341   1.730  20.822
11346SOL    HW245918   2.302   1.814  20.702
11347SOL     OW45919   1.983   0.628   5.612
11347SOL    HW145920   2.071   0.663   5.622
11347SOL    HW245921   1.986   0.543   5.656
11348SOL     OW45922   0.731   3.799  13.591
11348SOL    HW145923   0.721   3.721  13.536
11348SOL    HW245924   0.642   3.819  13.620
11349SOL     OW45925   2.400   0.862  13.294
11349SOL    HW145926   2.330   0.866  13.229
11349SOL    HW245927   2.458   0.934  13.271
11350SOL     OW45928   3.677   4.554  14.488
11350SOL    HW145929   3.679   4.459  14.490
11350SOL    HW245930   3.751   4.579  14.433
11351SOL     OW45931   1.740   3.168   3.945
11351SOL    HW145932   1.744   3.203   3.856
11351SOL    HW245933   1.799   3.224   3.995
11352SOL     OW45934   1.699   1.492   4.994
11352SOL    HW145935   1.703   1.421   4.931
11352SOL    HW245936   1.780   1.541   4.980
11353SOL     OW45937   4.517   4.446   8.053
11353SOL    HW145938   4.611   4.433   8.067
11353SOL    HW245939   4.495   4.524   8.104
11354SOL     OW45940   1.118   4.235  16.715
11354SOL    HW145941   1.208   4.238  16.685
11354SOL    HW245942   1.107   4.314  16.767
11355SOL     OW45943   2.019   2.715   2.451
11355SOL    HW145944   2.036   2.654   2.380
11355SOL    HW245945   1.971   2.663   2.516
11356SOL     OW45946   3.341   4.717   5.613
11356SOL    HW145947   3.337   0.018   5.608
11356SOL    HW245948   3.390   4.699   5.694
11357SOL     OW45949   0.824   1.517   2.232
11357SOL    HW145950   0.886   1.469   2.287
11357SOL    HW245951   0.870   1.530   2.149
11358SOL     OW45952   0.365   2.677   1.841
11358SOL    HW145953   0.386   2.744   1.907
11358SOL    HW245954   0.272   2.660   1.853
11359SOL     OW45955   0.419   0.038   2.356
11359SOL    HW145956   0.335   0.082   2.370
11359SOL    HW245957   0.396   4.751   2.311
11360SOL     OW45958   4.699   2.169   3.471
11360SOL    HW145959   4.638   2.219   3.416
11360SOL    HW245960   4.656   2.167   3.557
11361SOL     OW45961   1.494   1.234  17.687
11361SOL    HW145962   1.437   1.255  17.613
11361SOL    HW245963   1.435   1.193  17.750
11362SOL     OW45964   1.304   0.659   5.014
11362SOL    HW145965   1.335   0.616   5.094
11362SOL    HW245966   1.214   0.630   5.004
11363SOL     OW45967   1.760   2.836  15.461
11363SOL    HW145968   1.852   2.860  15.458
11363SOL    HW245969   1.713   2.918  15.474
11364SOL     OW45970   3.270   2.119  19.058
11364SOL    HW145971   3.224   2.103  19.140
11364SOL    HW245972   3.346   2.061  19.061
11365SOL     OW45973   3.970   3.827  16.001
11365SOL    HW145974   3.898   3.837  16.064
11365SOL    HW245975   3.961   3.737  15.968
11366SOL     OW45976   2.549   4.048   2.855
11366SOL    HW145977   2.492   4.059   2.931
11366SOL    HW245978   2.496   3.999   2.792
11367SOL     OW45979   0.166   1.602  15.034
11367SOL    HW145980   0.099   1.653  15.080
11367SOL    HW245981   0.126   1.581  14.950
11368SOL     OW45982   0.093   1.754   2.041
11368SOL    HW145983   0.065   1.677   2.090
11368SOL    HW245984   0.083   1.728   1.949
11369SOL     OW45985   1.892   0.957  17.974
11369SOL    HW145986   1.939   1.036  18.001
11369SOL    HW245987   1.800   0.982  17.977
11370SOL     OW45988   3.201   1.836   3.280
11370SOL    HW145989   3.214   1.797   3.366
11370SOL    HW245990   3.111   1.870   3.282
11371SOL     OW45991   3.077   2.818  20.288
11371SOL    HW145992   2.984   2.801  20.306
11371SOL    HW245993   3.113   2.732  20.266
11372SOL     OW45994   2.260   2.063  17.002
11372SOL    HW145995   2.240   2.051  17.095
11372SOL    HW245996   2.331   2.127  17.000
11373SOL     OW45997   0.219   4.351   2.630
11373SOL    HW145998   0.275   4.324   2.702
11373SOL    HW245999   0.274   4.409   2.577
11374SOL     OW46000   3.920   1.646  17.786
11374SOL    HW146001   3.846   1.699  17.815
11374SOL    HW246002   3.972   1.706  17.732
11375SOL     OW46003   1.219   3.310   3.058
11375SOL    HW146004   1.131   3.289   3.028
11375SOL    HW246005   1.212   3.315   3.153
11376SOL     OW46006   2.735   3.526   0.415
11376SOL    HW146007   2.664   3.484   0.463
11376SOL    HW246008   2.810   3.520   0.474
11377SOL     OW46009   0.100   2.751  17.196
11377SOL    HW146010   0.128   2.838  17.226
11377SOL    HW246011   0.007   2.748  17.217
11378SOL     OW46012   3.533   3.637   5.224
11378SOL    HW146013   3.567   3.724   5.243
11378SOL    HW246014   3.510   3.640   5.131
11379SOL     OW46015   4.388   2.392  16.453
11379SOL    HW146016   4.444   2.345  16.515
11379SOL    HW246017   4.302   2.352  16.462
11380SOL     OW46018   3.736   4.357  15.525
11380SOL    HW146019   3.737   4.266  15.553
11380SOL    HW246020   3.820   4.392  15.553
11381SOL     OW46021   0.605   4.579  17.194
11381SOL    HW146022   0.650   4.589  17.278
11381SOL    HW246023   0.659   4.518  17.144
11382SOL     OW46024   1.736   1.289  16.875
11382SOL    HW146025   1.806   1.265  16.936
11382SOL    HW246026   1.722   1.210  16.823
11383SOL     OW46027   0.606   2.062   2.507
11383SOL    HW146028   0.604   2.093   2.416
11383SOL    HW246029   0.516   2.035   2.525
11384SOL     OW46030   2.803   2.295  19.308
11384SOL    HW146031   2.891   2.259  19.319
11384SOL    HW246032   2.752   2.255  19.379
11385SOL     OW46033   0.021   4.486  16.337
11385SOL    HW146034   0.008   4.392  16.352
11385SOL    HW246035   0.077   4.514  16.409
11386SOL     OW46036   2.063   1.730  16.204
11386SOL    HW146037   2.011   1.787  16.147
11386SOL    HW246038   2.016   1.647  16.204
11387SOL     OW46039   0.469   2.584  16.869
11387SOL    HW146040   0.544   2.611  16.815
11387SOL    HW246041   0.406   2.655  16.859
11388SOL     OW46042   1.779   0.381  15.528
11388SOL    HW146043   1.696   0.339  15.506
11388SOL    HW246044   1.755   0.450  15.590
11389SOL     OW46045   4.448   3.670   2.288
11389SOL    HW146046   4.447   3.763   2.309
11389SOL    HW246047   4.357   3.642   2.298
11390SOL     OW46048   3.450   4.058  16.656
11390SOL    HW146049   3.367   4.102  16.677
11390SOL    HW246050   3.458   4.067  16.562
11391SOL     OW46051   0.510   1.099   0.995
11391SOL    HW146052   0.570   1.029   1.021
11391SOL    HW246053   0.566   1.161   0.946
11392SOL     OW46054   1.374   1.364   2.826
11392SOL    HW146055   1.461   1.374   2.864
11392SOL    HW246056   1.329   1.446   2.848
11393SOL     OW46057   0.326   2.540  16.122
11393SOL    HW146058   0.237   2.570  16.105
11393SOL    HW246059   0.343   2.567  16.212
11394SOL     OW46060   3.182   2.196  20.360
11394SOL    HW146061   3.252   2.237  20.411
11394SOL    HW246062   3.196   2.102  20.370
11395SOL     OW46063   2.340   2.014  14.250
11395SOL    HW146064   2.408   1.964  14.204
11395SOL    HW246065   2.378   2.101  14.261
11396SOL     OW46066   0.153   1.863   1.276
11396SOL    HW146067   0.060   1.885   1.277
11396SOL    HW246068   0.188   1.901   1.356
11397SOL     OW46069   0.359   3.760   3.121
11397SOL    HW146070   0.311   3.838   3.149
11397SOL    HW246071   0.440   3.762   3.172
11398SOL     OW46072   0.240   1.178   3.319
11398SOL    HW146073   0.295   1.120   3.372
11398SOL    HW246074   0.150   1.152   3.341
11399SOL     OW46075   2.750   2.533   1.453
11399SOL    HW146076   2.691   2.481   1.508
11399SOL    HW246077   2.819   2.472   1.428
11400SOL     OW46078   0.839   1.234  18.905
11400SOL    HW146079   0.766   1.296  18.897
11400SOL    HW246080   0.841   1.188  18.821
11401SOL     OW46081   4.689   1.852  21.175
11401SOL    HW146082   4.681   1.757  21.176
11401SOL    HW246083   4.621   1.883  21.235
11402SOL     OW46084   4.585   2.243   2.320
11402SOL    HW146085   4.590   2.203   2.233
11402SOL    HW246086   4.495   2.229   2.348
11403SOL     OW46087   2.357   1.708  20.183
11403SOL    HW146088   2.401   1.723  20.099
11403SOL    HW246089   2.336   1.795  20.215
11404SOL     OW46090   3.145   0.710  20.704
11404SOL    HW146091   3.060   0.748  20.682
11404SOL    HW246092   3.200   0.731  20.628
11405SOL     OW46093   0.284   3.866   3.455
11405SOL    HW146094   0.288   3.849   3.550
11405SOL    HW246095   0.245   3.787   3.418
11406SOL     OW46096   4.790   2.280  20.809
11406SOL    HW146097   4.780   2.266  20.715
11406SOL    HW246098   0.077   2.332  20.816
11407SOL     OW46099   4.553   3.771  16.901
11407SOL    HW146100   4.611   3.844  16.923
11407SOL    HW246101   4.487   3.771  16.970
11408SOL     OW46102   0.937   1.515  19.349
11408SOL    HW146103   0.871   1.583  19.367
11408SOL    HW246104   0.951   1.520  19.254
11409SOL     OW46105   0.119   0.580   2.101
11409SOL    HW146106   0.181   0.514   2.130
11409SOL    HW246107   0.033   0.542   2.117
11410SOL     OW46108   3.899   0.861   5.140
11410SOL    HW146109   3.879   0.778   5.098
11410SOL    HW246110   3.950   0.909   5.074
11411SOL     OW46111   2.752   2.320   4.271
11411SOL    HW146112   2.748   2.403   4.224
11411SOL    HW246113   2.679   2.323   4.332
11412SOL     OW46114   4.253   3.906  15.741
11412SOL    HW146115   4.272   3.974  15.676
11412SOL    HW246116   4.163   3.879  15.721
11413SOL     OW46117   1.260   2.627  16.796
11413SOL    HW146118   1.257   2.541  16.756
11413SOL    HW246119   1.352   2.655  16.787
11414SOL     OW46120   3.854   2.270  17.898
11414SOL    HW146121   3.788   2.205  17.872
11414SOL    HW246122   3.880   2.312  17.815
11415SOL     OW46123   2.563   2.573  20.818
11415SOL    HW146124   2.498   2.511  20.849
11415SOL    HW246125   2.589   2.622  20.896
11416SOL     OW46126   4.165   3.795   2.530
11416SOL    HW146127   4.206   3.791   2.617
11416SOL    HW246128   4.140   3.887   2.519
11417SOL     OW46129   1.983   2.673   2.799
11417SOL    HW146130   1.913   2.728   2.834
11417SOL    HW246131   2.063   2.710   2.837
11418SOL     OW46132   1.234   4.608  16.928
11418SOL    HW146133   1.285   4.528  16.943
11418SOL    HW246134   1.239   4.655  17.011
11419SOL     OW46135   1.985   2.848  18.368
11419SOL    HW146136   1.897   2.874  18.393
11419SOL    HW246137   1.977   2.757  18.339
11420SOL     OW46138   3.239   3.469  16.622
11420SOL    HW146139   3.271   3.386  16.588
11420SOL    HW246140   3.318   3.523  16.632
11421SOL     OW46141   3.667   0.689  15.449
11421SOL    HW146142   3.675   0.770  15.499
11421SOL    HW246143   3.634   0.625  15.512
11422SOL     OW46144   3.821   2.886  17.560
11422SOL    HW146145   3.887   2.848  17.503
11422SOL    HW246146   3.836   2.845  17.645
11423SOL     OW46147   1.853   1.660   1.160
11423SOL    HW146148   1.768   1.676   1.118
11423SOL    HW246149   1.833   1.597   1.230
11424SOL     OW46150   3.653   0.889   4.669
11424SOL    HW146151   3.685   0.972   4.633
11424SOL    HW246152   3.729   0.851   4.712
11425SOL     OW46153   4.227   1.327  18.377
11425SOL    HW146154   4.298   1.348  18.316
11425SOL    HW246155   4.239   1.234  18.397
11426SOL     OW46156   2.852   2.630  18.791
11426SOL    HW146157   2.866   2.721  18.765
11426SOL    HW246158   2.758   2.616  18.780
11427SOL     OW46159   0.022   3.931  13.691
11427SOL    HW146160   4.759   4.005  13.670
11427SOL    HW246161   0.047   3.896  13.605
11428SOL     OW46162   0.184   4.433   7.209
11428SOL    HW146163   0.140   4.484   7.277
11428SOL    HW246164   0.182   4.490   7.132
11429SOL     OW46165   4.411   4.061  16.992
11429SOL    HW146166   4.338   4.117  17.019
11429SOL    HW246167   4.467   4.056  17.069
11430SOL     OW46168   0.453   0.363   1.624
11430SOL    HW146169   0.432   0.287   1.679
11430SOL    HW246170   0.391   0.358   1.551
11431SOL     OW46171   2.012   3.837   3.252
11431SOL    HW146172   1.950   3.906   3.228
11431SOL    HW246173   2.004   3.830   3.347
11432SOL     OW46174   3.894   3.088   2.389
11432SOL    HW146175   3.822   3.121   2.443
11432SOL    HW246176   3.867   3.000   2.365
11433SOL     OW46177   0.277   3.868  17.282
11433SOL    HW146178   0.325   3.808  17.226
11433SOL    HW246179   0.208   3.903  17.226
11434SOL     OW46180   0.788   2.153  18.398
11434SOL    HW146181   0.882   2.147  18.412
11434SOL    HW246182   0.750   2.091  18.461
11435SOL     OW46183   3.751   4.609  19.366
11435SOL    HW146184   3.810   4.681  19.346
11435SOL    HW246185   3.669   4.632  19.322
11436SOL     OW46186   1.856   4.744   7.743
11436SOL    HW146187   1.789   4.693   7.790
11436SOL    HW246188   1.920   4.766   7.810
11437SOL     OW46189   0.963   4.391  19.030
11437SOL    HW146190   0.937   4.348  19.111
11437SOL    HW246191   0.949   4.484  19.047
11438SOL     OW46192   3.367   2.480  19.735
11438SOL    HW146193   3.360   2.418  19.663
11438SOL    HW246194   3.448   2.455  19.780
11439SOL     OW46195   3.645   2.821   1.509
11439SOL    HW146196   3.698   2.741   1.503
11439SOL    HW246197   3.570   2.804   1.453
11440SOL     OW46198   1.347   3.179  18.074
11440SOL    HW146199   1.384   3.186  17.986
11440SOL    HW246200   1.401   3.237  18.128
11441SOL     OW46201   4.592   0.042  13.963
11441SOL    HW146202   4.566   0.100  13.892
11441SOL    HW246203   4.680   0.013  13.939
11442SOL     OW46204   3.469   3.005  15.611
11442SOL    HW146205   3.560   3.002  15.583
11442SOL    HW246206   3.440   3.094  15.592
11443SOL     OW46207   2.766   1.776  18.276
11443SOL    HW146208   2.701   1.746  18.211
11443SOL    HW246209   2.850   1.770  18.230
11444SOL     OW46210   1.082   2.064  15.605
11444SOL    HW146211   1.142   2.006  15.557
11444SOL    HW246212   1.138   2.108  15.669
11445SOL     OW46213   4.430   1.115  20.352
11445SOL    HW146214   4.470   1.171  20.285
11445SOL    HW246215   4.422   1.172  20.428
11446SOL     OW46216   4.016   2.989  21.041
11446SOL    HW146217   3.992   2.927  21.109
11446SOL    HW246218   4.001   2.942  20.959
11447SOL     OW46219   3.701   1.989  15.720
11447SOL    HW146220   3.788   1.999  15.682
11447SOL    HW246221   3.644   1.972  15.644
11448SOL     OW46222   0.989   1.307   7.155
11448SOL    HW146223   1.034   1.272   7.232
11448SOL    HW246224   1.060   1.333   7.096
11449SOL     OW46225   4.505   3.191  17.917
11449SOL    HW146226   4.573   3.140  17.873
11449SOL    HW246227   4.531   3.282  17.904
11450SOL     OW46228   3.291   3.946  19.680
11450SOL    HW146229   3.354   3.952  19.753
11450SOL    HW246230   3.209   3.920  19.722
11451SOL     OW46231   3.511   2.159   3.895
11451SOL    HW146232   3.465   2.150   3.812
11451SOL    HW246233   3.442   2.170   3.960
11452SOL     OW46234   4.478   0.788   3.061
11452SOL    HW146235   4.438   0.875   3.052
11452SOL    HW246236   4.562   0.795   3.015
11453SOL     OW46237   1.226   0.680   3.063
11453SOL    HW146238   1.222   0.737   3.140
11453SOL    HW246239   1.196   0.595   3.094
11454SOL     OW46240   0.229   3.297   4.356
11454SOL    HW146241   0.148   3.250   4.335
11454SOL    HW246242   0.272   3.307   4.271
11455SOL     OW46243   2.734   4.728  20.262
11455SOL    HW146244   2.662   4.779  20.300
11455SOL    HW246245   2.725   4.641  20.300
11456SOL     OW46246   2.853   3.909  15.487
11456SOL    HW146247   2.869   3.942  15.399
11456SOL    HW246248   2.861   3.814  15.479
11457SOL     OW46249   0.466   0.205   2.077
11457SOL    HW146250   0.508   0.199   1.990
11457SOL    HW246251   0.417   0.124   2.086
11458SOL     OW46252   2.960   3.570  19.659
11458SOL    HW146253   2.885   3.559  19.717
11458SOL    HW246254   2.938   3.647  19.606
11459SOL     OW46255   3.555   1.835   7.136
11459SOL    HW146256   3.481   1.789   7.176
11459SOL    HW246257   3.515   1.909   7.090
11460SOL     OW46258   3.209   2.570  20.191
11460SOL    HW146259   3.181   2.594  20.103
11460SOL    HW246260   3.297   2.534  20.180
11461SOL     OW46261   1.809   0.784   8.220
11461SOL    HW146262   1.724   0.795   8.263
11461SOL    HW246263   1.793   0.802   8.128
11462SOL     OW46264   4.237   1.974   1.266
11462SOL    HW146265   4.233   1.945   1.175
11462SOL    HW246266   4.158   1.937   1.306
11463SOL     OW46267   0.165   2.210   4.566
11463SOL    HW146268   0.258   2.191   4.559
11463SOL    HW246269   0.123   2.145   4.509
11464SOL     OW46270   1.411   3.957  19.576
11464SOL    HW146271   1.469   4.030  19.595
11464SOL    HW246272   1.335   3.970  19.632
11465SOL     OW46273   1.814   1.020  16.309
11465SOL    HW146274   1.853   1.071  16.379
11465SOL    HW246275   1.886   1.004  16.248
11466SOL     OW46276   4.386   0.191  16.122
11466SOL    HW146277   4.463   0.164  16.071
11466SOL    HW246278   4.355   0.110  16.163
11467SOL     OW46279   0.691   4.498  21.176
11467SOL    HW146280   0.727   4.526  21.260
11467SOL    HW246281   0.715   4.406  21.168
11468SOL     OW46282   0.198   2.020   6.232
11468SOL    HW146283   0.154   2.105   6.226
11468SOL    HW246284   0.138   1.967   6.285
11469SOL     OW46285   3.893   3.638  21.024
11469SOL    HW146286   3.938   3.624  21.107
11469SOL    HW246287   3.805   3.667  21.049
11470SOL     OW46288   1.224   1.753  13.892
11470SOL    HW146289   1.215   1.664  13.858
11470SOL    HW246290   1.277   1.744  13.971
11471SOL     OW46291   0.781   3.206  15.575
11471SOL    HW146292   0.809   3.121  15.609
11471SOL    HW246293   0.686   3.200  15.571
11472SOL     OW46294   4.774   2.741  20.450
11472SOL    HW146295   4.789   2.708  20.539
11472SOL    HW246296   0.064   2.730  20.405
11473SOL     OW46297   3.550   1.014  20.897
11473SOL    HW146298   3.467   1.044  20.934
11473SOL    HW246299   3.546   1.039  20.805
11474SOL     OW46300   4.537   4.772  20.551
11474SOL    HW146301   4.612   4.729  20.591
11474SOL    HW246302   4.483   0.004  20.625
11475SOL     OW46303   1.589   0.793  17.005
11475SOL    HW146304   1.511   0.739  17.020
11475SOL    HW246305   1.639   0.786  17.086
11476SOL     OW46306   3.661   0.875  17.310
11476SOL    HW146307   3.633   0.795  17.353
11476SOL    HW246308   3.739   0.850  17.261
11477SOL     OW46309   0.694   0.484  17.343
11477SOL    HW146310   0.773   0.432  17.354
11477SOL    HW246311   0.622   0.421  17.348
11478SOL     OW46312   1.930   4.417   0.932
11478SOL    HW146313   1.893   4.329   0.931
11478SOL    HW246314   1.978   4.424   0.849
11479SOL     OW46315   4.400   0.129   5.138
11479SOL    HW146316   4.443   0.051   5.175
11479SOL    HW246317   4.389   0.188   5.213
11480SOL     OW46318   1.605   1.909   4.565
11480SOL    HW146319   1.520   1.930   4.526
11480SOL    HW246320   1.585   1.896   4.658
11481SOL     OW46321   4.477   4.260  15.140
11481SOL    HW146322   4.415   4.317  15.094
11481SOL    HW246323   4.557   4.264  15.087
11482SOL     OW46324   1.253   4.571   2.900
11482SOL    HW146325   1.245   4.590   2.806
11482SOL    HW246326   1.287   4.482   2.904
11483SOL     OW46327   3.625   2.748  16.015
11483SOL    HW146328   3.548   2.748  16.071
11483SOL    HW246329   3.630   2.837  15.979
11484SOL     OW46330   0.707   0.893  17.892
11484SOL    HW146331   0.766   0.939  17.831
11484SOL    HW246332   0.764   0.834  17.940
11485SOL     OW46333   3.644   3.587   6.904
11485SOL    HW146334   3.589   3.549   6.836
11485SOL    HW246335   3.611   3.552   6.986
11486SOL     OW46336   1.303   4.334  17.063
11486SOL    HW146337   1.211   4.319  17.087
11486SOL    HW246338   1.322   4.268  16.997
11487SOL     OW46339   2.881   4.311   4.472
11487SOL    HW146340   2.951   4.375   4.488
11487SOL    HW246341   2.878   4.301   4.377
11488SOL     OW46342   0.401   1.941  19.575
11488SOL    HW146343   0.357   1.862  19.544
11488SOL    HW246344   0.331   1.991  19.618
11489SOL     OW46345   2.010   3.863  21.065
11489SOL    HW146346   2.047   3.788  21.018
11489SOL    HW246347   2.002   3.931  20.998
11490SOL     OW46348   0.803   0.912   8.120
11490SOL    HW146349   0.794   0.874   8.033
11490SOL    HW246350   0.876   0.974   8.112
11491SOL     OW46351   3.690   1.535   6.616
11491SOL    HW146352   3.774   1.492   6.634
11491SOL    HW246353   3.641   1.527   6.698
11492SOL     OW46354   1.006   3.882   2.446
11492SOL    HW146355   0.957   3.955   2.408
11492SOL    HW246356   1.053   3.844   2.372
11493SOL     OW46357   2.082   3.290   0.789
11493SOL    HW146358   2.035   3.373   0.776
11493SOL    HW246359   2.022   3.223   0.756
11494SOL     OW46360   2.154   1.447  19.486
11494SOL    HW146361   2.215   1.437  19.414
11494SOL    HW246362   2.195   1.401  19.559
11495SOL     OW46363   0.204   3.194   2.942
11495SOL    HW146364   0.264   3.254   2.898
11495SOL    HW246365   0.216   3.110   2.897
11496SOL     OW46366   0.728   0.437  10.294
11496SOL    HW146367   0.817   0.401  10.296
11496SOL    HW246368   0.709   0.447  10.201
11497SOL     OW46369   2.016   1.848   1.911
11497SOL    HW146370   2.093   1.808   1.872
11497SOL    HW246371   2.047   1.884   1.994
11498SOL     OW46372   0.164   0.698  20.595
11498SOL    HW146373   0.078   0.662  20.616
11498SOL    HW246374   0.223   0.623  20.602
11499SOL     OW46375   2.793   4.495  13.641
11499SOL    HW146376   2.855   4.428  13.613
11499SOL    HW246377   2.819   4.516  13.730
11500SOL     OW46378   3.795   3.316  17.536
11500SOL    HW146379   3.791   3.404  17.497
11500SOL    HW246380   3.888   3.299  17.549
11501SOL     OW46381   0.686   0.334   5.261
11501SOL    HW146382   0.614   0.282   5.227
11501SOL    HW246383   0.711   0.291   5.343
11502SOL     OW46384   2.228   3.399   1.889
11502SOL    HW146385   2.217   3.313   1.848
11502SOL    HW246386   2.250   3.457   1.816
11503SOL     OW46387   0.909   3.399   4.205
11503SOL    HW146388   0.916   3.442   4.120
11503SOL    HW246389   0.877   3.311   4.185
11504SOL     OW46390   4.358   2.773   3.794
11504SOL    HW146391   4.409   2.706   3.840
11504SOL    HW246392   4.423   2.823   3.745
11505SOL     OW46393   3.724   1.812   6.038
11505SOL    HW146394   3.697   1.723   6.060
11505SOL    HW246395   3.643   1.858   6.018
11506SOL     OW46396   3.791   2.324  15.910
11506SOL    HW146397   3.750   2.410  15.920
11506SOL    HW246398   3.883   2.343  15.895
11507SOL     OW46399   0.136   1.369   3.570
11507SOL    HW146400   0.229   1.377   3.552
11507SOL    HW246401   0.128   1.290   3.624
11508SOL     OW46402   3.257   3.644   3.400
11508SOL    HW146403   3.257   3.740   3.404
11508SOL    HW246404   3.321   3.618   3.466
11509SOL     OW46405   2.202   0.910  15.667
11509SOL    HW146406   2.268   0.968  15.706
11509SOL    HW246407   2.246   0.873  15.591
11510SOL     OW46408   0.314   4.315   5.032
11510SOL    HW146409   0.392   4.350   5.075
11510SOL    HW246410   0.347   4.271   4.954
11511SOL     OW46411   0.965   0.312  19.393
11511SOL    HW146412   1.056   0.304  19.365
11511SOL    HW246413   0.945   0.405  19.382
11512SOL     OW46414   0.803   4.782  15.308
11512SOL    HW146415   0.860   0.023  15.376
11512SOL    HW246416   0.844   0.014  15.226
11513SOL     OW46417   0.772   2.818  17.172
11513SOL    HW146418   0.866   2.810  17.157
11513SOL    HW246419   0.760   2.802  17.265
11514SOL     OW46420   1.454   1.515  20.641
11514SOL    HW146421   1.535   1.565  20.643
11514SOL    HW246422   1.385   1.580  20.654
11515SOL     OW46423   1.049   2.766   5.147
11515SOL    HW146424   1.042   2.739   5.239
11515SOL    HW246425   1.010   2.854   5.145
11516SOL     OW46426   4.369   1.819  19.527
11516SOL    HW146427   4.331   1.899  19.491
11516SOL    HW246428   4.311   1.749  19.497
11517SOL     OW46429   0.451   4.037   1.384
11517SOL    HW146430   0.426   4.050   1.292
11517SOL    HW246431   0.430   3.945   1.401
11518SOL     OW46432   0.720   3.155   1.590
11518SOL    HW146433   0.770   3.164   1.671
11518SOL    HW246434   0.662   3.080   1.606
11519SOL     OW46435   1.055   3.416  15.965
11519SOL    HW146436   1.035   3.485  15.902
11519SOL    HW246437   1.086   3.463  16.042
11520SOL     OW46438   1.014   2.807  18.667
11520SOL    HW146439   1.012   2.902  18.669
11520SOL    HW246440   1.076   2.783  18.736
11521SOL     OW46441   4.539   1.641   7.615
11521SOL    HW146442   4.534   1.735   7.594
11521SOL    HW246443   4.462   1.603   7.572
11522SOL     OW46444   0.376   0.764   4.338
11522SOL    HW146445   0.462   0.786   4.302
11522SOL    HW246446   0.387   0.676   4.376
11523SOL     OW46447   4.304   3.720  17.853
11523SOL    HW146448   4.330   3.729  17.761
11523SOL    HW246449   4.253   3.640  17.856
11524SOL     OW46450   0.768   3.894  17.646
11524SOL    HW146451   0.755   3.939  17.729
11524SOL    HW246452   0.831   3.824  17.666
11525SOL     OW46453   1.612   3.117  19.782
11525SOL    HW146454   1.703   3.143  19.796
11525SOL    HW246455   1.565   3.150  19.858
11526SOL     OW46456   1.984   0.047  20.292
11526SOL    HW146457   2.073   0.058  20.257
11526SOL    HW246458   1.946   0.134  20.285
11527SOL     OW46459   3.009   3.818   7.518
11527SOL    HW146460   2.914   3.814   7.521
11527SOL    HW246461   3.036   3.827   7.610
11528SOL     OW46462   1.444   3.986   4.528
11528SOL    HW146463   1.488   3.982   4.613
11528SOL    HW246464   1.364   3.935   4.540
11529SOL     OW46465   3.502   1.701   1.779
11529SOL    HW146466   3.486   1.718   1.871
11529SOL    HW246467   3.452   1.621   1.761
11530SOL     OW46468   3.473   3.516   0.804
11530SOL    HW146469   3.386   3.537   0.838
11530SOL    HW246470   3.469   3.423   0.783
11531SOL     OW46471   4.006   4.659  14.730
11531SOL    HW146472   3.936   4.722  14.719
11531SOL    HW246473   4.070   4.703  14.786
11532SOL     OW46474   3.646   4.164   5.409
11532SOL    HW146475   3.608   4.155   5.497
11532SOL    HW246476   3.573   4.146   5.350
11533SOL     OW46477   1.541   3.591  13.817
11533SOL    HW146478   1.634   3.614  13.821
11533SOL    HW246479   1.523   3.581  13.723
11534SOL     OW46480   2.434   2.866  15.274
11534SOL    HW146481   2.504   2.840  15.333
11534SOL    HW246482   2.373   2.792  15.275
11535SOL     OW46483   0.761   3.762   6.591
11535SOL    HW146484   0.834   3.823   6.587
11535SOL    HW246485   0.724   3.774   6.679
11536SOL     OW46486   4.547   0.287   6.117
11536SOL    HW146487   4.514   0.199   6.132
11536SOL    HW246488   4.635   0.286   6.153
11537SOL     OW46489   0.737   0.710  19.802
11537SOL    HW146490   0.830   0.685  19.800
11537SOL    HW246491   0.691   0.629  19.781
11538SOL     OW46492   0.871   4.504   0.875
11538SOL    HW146493   0.877   4.525   0.782
11538SOL    HW246494   0.888   4.410   0.881
11539SOL     OW46495   3.498   2.900  17.208
11539SOL    HW146496   3.403   2.902  17.219
11539SOL    HW246497   3.533   2.908  17.297
11540SOL     OW46498   3.571   0.984  16.007
11540SOL    HW146499   3.479   0.956  16.010
11540SOL    HW246500   3.604   0.966  16.095
11541SOL     OW46501   2.638   4.358  18.692
11541SOL    HW146502   2.659   4.376  18.601
11541SOL    HW246503   2.721   4.371  18.739
11542SOL     OW46504   0.561   3.121   5.674
11542SOL    HW146505   0.469   3.146   5.680
11542SOL    HW246506   0.604   3.177   5.740
11543SOL     OW46507   3.409   2.325   2.821
11543SOL    HW146508   3.384   2.287   2.905
11543SOL    HW246509   3.377   2.415   2.824
11544SOL     OW46510   1.324   0.563  19.734
11544SOL    HW146511   1.382   0.592  19.805
11544SOL    HW246512   1.355   0.475  19.713
11545SOL     OW46513   4.592   3.590   3.069
11545SOL    HW146514   4.647   3.577   2.991
11545SOL    HW246515   4.640   3.654   3.122
11546SOL     OW46516   3.235   4.328   0.246
11546SOL    HW146517   3.173   4.397   0.270
11546SOL    HW246518   3.189   4.278   0.179
11547SOL     OW46519   3.393   2.763  16.195
11547SOL    HW146520   3.298   2.750  16.188
11547SOL    HW246521   3.422   2.693  16.254
11548SOL     OW46522   3.019   4.736  20.174
11548SOL    HW146523   3.036   0.029  20.210
11548SOL    HW246524   2.925   4.725  20.181
11549SOL     OW46525   1.625   0.071   4.773
11549SOL    HW146526   1.672   0.144   4.813
11549SOL    HW246527   1.658   0.066   4.684
11550SOL     OW46528   4.064   4.519   6.958
11550SOL    HW146529   4.026   4.534   6.872
11550SOL    HW246530   4.028   4.589   7.013
11551SOL     OW46531   2.110   4.188   0.303
11551SOL    HW146532   2.021   4.222   0.303
11551SOL    HW246533   2.099   4.095   0.327
11552SOL     OW46534   2.919   0.394  19.362
11552SOL    HW146535   2.955   0.345  19.288
11552SOL    HW246536   2.845   0.442  19.325
11553SOL     OW46537   4.120   3.826  18.139
11553SOL    HW146538   4.050   3.762  18.124
11553SOL    HW246539   4.201   3.775  18.137
11554SOL     OW46540   4.345   0.268  20.324
11554SOL    HW146541   4.275   0.323  20.358
11554SOL    HW246542   4.400   0.327  20.273
11555SOL     OW46543   0.362   4.413   4.553
11555SOL    HW146544   0.417   4.422   4.630
11555SOL    HW246545   0.348   4.503   4.523
11556SOL     OW46546   4.143   3.273   0.957
11556SOL    HW146547   4.086   3.196   0.962
11556SOL    HW246548   4.226   3.244   0.996
11557SOL     OW46549   2.908   0.483   6.639
11557SOL    HW146550   2.812   0.488   6.639
11557SOL    HW246551   2.930   0.450   6.552
11558SOL     OW46552   4.360   1.747  17.698
11558SOL    HW146553   4.408   1.824  17.667
11558SOL    HW246554   4.301   1.781  17.765
11559SOL     OW46555   2.229   4.139  21.162
11559SOL    HW146556   2.306   4.090  21.131
11559SOL    HW246557   2.156   4.103  21.112
11560SOL     OW46558   0.936   1.884   4.969
11560SOL    HW146559   0.993   1.910   4.897
11560SOL    HW246560   0.980   1.918   5.047
11561SOL     OW46561   3.715   0.626  16.075
11561SOL    HW146562   3.729   0.696  16.011
11561SOL    HW246563   3.620   0.620  16.085
11562SOL     OW46564   2.571   4.492   3.247
11562SOL    HW146565   2.535   4.407   3.223
11562SOL    HW246566   2.513   4.555   3.204
11563SOL     OW46567   4.389   3.495   1.515
11563SOL    HW146568   4.442   3.563   1.556
11563SOL    HW246569   4.300   3.530   1.515
11564SOL     OW46570   1.510   2.771   1.195
11564SOL    HW146571   1.594   2.742   1.161
11564SOL    HW246572   1.480   2.836   1.132
11565SOL     OW46573   3.224   3.102  19.207
11565SOL    HW146574   3.141   3.079  19.165
11565SOL    HW246575   3.203   3.178  19.260
11566SOL     OW46576   3.476   1.158  20.408
11566SOL    HW146577   3.552   1.191  20.360
11566SOL    HW246578   3.435   1.095  20.348
11567SOL     OW46579   2.677   0.287   3.664
11567SOL    HW146580   2.715   0.253   3.744
11567SOL    HW246581   2.723   0.370   3.649
11568SOL     OW46582   1.445   2.273   4.637
11568SOL    HW146583   1.534   2.305   4.628
11568SOL    HW246584   1.433   2.214   4.562
11569SOL     OW46585   1.362   4.312   2.805
11569SOL    HW146586   1.395   4.298   2.894
11569SOL    HW246587   1.431   4.277   2.748
11570SOL     OW46588   0.075   4.494  19.424
11570SOL    HW146589   0.141   4.540  19.477
11570SOL    HW246590   0.126   4.452  19.355
11571SOL     OW46591   1.960   1.918  16.463
11571SOL    HW146592   1.908   1.982  16.415
11571SOL    HW246593   1.962   1.951  16.552
11572SOL     OW46594   0.813   3.126   2.085
11572SOL    HW146595   0.861   3.185   2.143
11572SOL    HW246596   0.754   3.078   2.143
11573SOL     OW46597   2.096   1.066   5.273
11573SOL    HW146598   2.009   1.089   5.304
11573SOL    HW246599   2.155   1.124   5.321
11574SOL     OW46600   0.941   0.355   4.234
11574SOL    HW146601   1.011   0.340   4.172
11574SOL    HW246602   0.982   0.403   4.306
11575SOL     OW46603   1.943   3.085  21.062
11575SOL    HW146604   1.915   3.171  21.092
11575SOL    HW246605   2.033   3.076  21.094
11576SOL     OW46606   3.373   4.040   3.076
11576SOL    HW146607   3.389   3.957   3.121
11576SOL    HW246608   3.284   4.065   3.102
11577SOL     OW46609   3.123   3.723  19.485
11577SOL    HW146610   3.158   3.641  19.520
11577SOL    HW246611   3.086   3.768  19.560
11578SOL     OW46612   1.209   1.678  18.104
11578SOL    HW146613   1.269   1.740  18.062
11578SOL    HW246614   1.247   1.662  18.190
11579SOL     OW46615   3.175   4.376  19.169
11579SOL    HW146616   3.204   4.347  19.255
11579SOL    HW246617   3.184   4.472  19.172
11580SOL     OW46618   3.494   0.650   6.905
11580SOL    HW146619   3.583   0.652   6.870
11580SOL    HW246620   3.461   0.739   6.894
11581SOL     OW46621   2.647   0.212   0.760
11581SOL    HW146622   2.735   0.198   0.725
11581SOL    HW246623   2.589   0.168   0.697
11582SOL     OW46624   3.330   1.977  18.776
11582SOL    HW146625   3.291   1.965  18.690
11582SOL    HW246626   3.414   1.930  18.771
11583SOL     OW46627   0.664   4.431   4.370
11583SOL    HW146628   0.674   4.365   4.438
11583SOL    HW246629   0.746   4.426   4.319
11584SOL     OW46630   4.236   4.040   0.603
11584SOL    HW146631   4.289   4.120   0.611
11584SOL    HW246632   4.185   4.054   0.523
11585SOL     OW46633   4.560   4.771  15.738
11585SOL    HW146634   4.469   4.782  15.764
11585SOL    HW246635   4.558   4.768  15.642
11586SOL     OW46636   3.648   1.892   4.656
11586SOL    HW146637   3.743   1.880   4.653
11586SOL    HW246638   3.620   1.839   4.731
11587SOL     OW46639   3.398   1.102   5.603
11587SOL    HW146640   3.469   1.160   5.575
11587SOL    HW246641   3.364   1.065   5.521
11588SOL     OW46642   3.576   4.702   4.047
11588SOL    HW146643   3.504   4.692   4.109
11588SOL    HW246644   3.539   4.755   3.976
11589SOL     OW46645   1.108   1.309  20.396
11589SOL    HW146646   1.158   1.285  20.474
11589SOL    HW246647   1.175   1.334  20.332
11590SOL     OW46648   2.810   2.330   4.602
11590SOL    HW146649   2.749   2.280   4.548
11590SOL    HW246650   2.810   2.285   4.686
11591SOL     OW46651   0.981   0.954  19.344
11591SOL    HW146652   0.961   1.038  19.303
11591SOL    HW246653   1.070   0.934  19.315
11592SOL     OW46654   2.458   4.294   4.620
11592SOL    HW146655   2.506   4.364   4.576
11592SOL    HW246656   2.467   4.219   4.562
11593SOL     OW46657   1.244   0.062  15.098
11593SOL    HW146658   1.222   0.019  15.181
11593SOL    HW246659   1.297   0.138  15.124
11594SOL     OW46660   1.262   4.031   4.222
11594SOL    HW146661   1.352   4.023   4.255
11594SOL    HW246662   1.209   3.983   4.286
11595SOL     OW46663   0.649   3.025   6.961
11595SOL    HW146664   0.652   3.050   6.869
11595SOL    HW246665   0.570   2.972   6.969
11596SOL     OW46666   0.882   3.483   4.448
11596SOL    HW146667   0.897   3.473   4.354
11596SOL    HW246668   0.787   3.485   4.456
11597SOL     OW46669   1.309   2.810  18.422
11597SOL    HW146670   1.337   2.805  18.331
11597SOL    HW246671   1.215   2.825  18.418
11598SOL     OW46672   3.293   1.139   0.115
11598SOL    HW146673   3.296   1.131   0.020
11598SOL    HW246674   3.222   1.201   0.132
11599SOL     OW46675   2.004   2.133  15.657
11599SOL    HW146676   2.041   2.050  15.687
11599SOL    HW246677   2.064   2.163  15.588
11600SOL     OW46678   0.116   3.078  16.044
11600SOL    HW146679   0.129   2.992  16.003
11600SOL    HW246680   0.151   3.140  15.980
11601SOL     OW46681   0.215   3.537  19.523
11601SOL    HW146682   0.293   3.485  19.544
11601SOL    HW246683   0.229   3.567  19.434
11602SOL     OW46684   2.035   0.943  15.395
11602SOL    HW146685   2.094   0.978  15.462
11602SOL    HW246686   2.086   0.948  15.314
11603SOL     OW46687   3.592   4.479   2.712
11603SOL    HW146688   3.563   4.566   2.740
11603SOL    HW246689   3.655   4.453   2.780
11604SOL     OW46690   2.261   4.332  19.549
11604SOL    HW146691   2.192   4.384  19.590
11604SOL    HW246692   2.249   4.244  19.583
11605SOL     OW46693   1.633   1.148   1.472
11605SOL    HW146694   1.597   1.103   1.549
11605SOL    HW246695   1.615   1.088   1.399
11606SOL     OW46696   3.158   0.523  19.772
11606SOL    HW146697   3.146   0.591  19.707
11606SOL    HW246698   3.147   0.441  19.723
11607SOL     OW46699   2.181   0.117  14.890
11607SOL    HW146700   2.105   0.120  14.948
11607SOL    HW246701   2.168   0.039  14.837
11608SOL     OW46702   1.747   2.693   6.532
11608SOL    HW146703   1.799   2.772   6.521
11608SOL    HW246704   1.656   2.723   6.538
11609SOL     OW46705   3.103   1.407   5.700
11609SOL    HW146706   3.020   1.411   5.747
11609SOL    HW246707   3.160   1.354   5.755
11610SOL     OW46708   4.474   0.354  21.215
11610SOL    HW146709   4.503   0.407   0.013
11610SOL    HW246710   4.378   0.350  21.224
11611SOL     OW46711   0.285   0.754   5.692
11611SOL    HW146712   0.333   0.680   5.728
11611SOL    HW246713   0.256   0.724   5.606
11612SOL     OW46714   4.285   2.950  20.799
11612SOL    HW146715   4.278   2.952  20.704
11612SOL    HW246716   4.299   3.042  20.824
11613SOL     OW46717   1.325   1.421   4.413
11613SOL    HW146718   1.326   1.400   4.506
11613SOL    HW246719   1.344   1.338   4.369
11614SOL     OW46720   2.305   1.647  16.312
11614SOL    HW146721   2.212   1.663  16.301
11614SOL    HW246722   2.330   1.697  16.390
11615SOL     OW46723   3.307   0.530  20.424
11615SOL    HW146724   3.332   0.487  20.505
11615SOL    HW246725   3.353   0.614  20.426
11616SOL     OW46726   2.062   2.525   1.978
11616SOL    HW146727   1.985   2.563   2.020
11616SOL    HW246728   2.101   2.470   2.045
11617SOL     OW46729   2.183   3.247  19.044
11617SOL    HW146730   2.236   3.325  19.028
11617SOL    HW246731   2.103   3.280  19.086
11618SOL     OW46732   3.059   0.703  15.920
11618SOL    HW146733   2.966   0.681  15.916
11618SOL    HW246734   3.065   0.768  15.990
11619SOL     OW46735   1.350   4.725  13.099
11619SOL    HW146736   1.363   0.020  13.134
11619SOL    HW246737   1.433   4.681  13.115
11620SOL     OW46738   0.734   2.340   4.136
11620SOL    HW146739   0.770   2.338   4.048
11620SOL    HW246740   0.806   2.372   4.191
11621SOL     OW46741   1.610   1.303  16.220
11621SOL    HW146742   1.617   1.209  16.209
11621SOL    HW246743   1.654   1.340  16.144
11622SOL     OW46744   2.729   1.919   5.001
11622SOL    HW146745   2.705   1.883   5.087
11622SOL    HW246746   2.761   1.843   4.952
11623SOL     OW46747   0.788   1.086   2.622
11623SOL    HW146748   0.694   1.084   2.638
11623SOL    HW246749   0.812   1.178   2.632
11624SOL     OW46750   4.475   0.503  19.366
11624SOL    HW146751   4.428   0.512  19.449
11624SOL    HW246752   4.567   0.499  19.391
11625SOL     OW46753   4.493   0.902  16.944
11625SOL    HW146754   4.536   0.817  16.954
11625SOL    HW246755   4.563   0.961  16.920
11626SOL     OW46756   3.520   1.817   4.874
11626SOL    HW146757   3.444   1.869   4.897
11626SOL    HW246758   3.485   1.729   4.857
11627SOL     OW46759   4.476   2.304  18.137
11627SOL    HW146760   4.482   2.212  18.163
11627SOL    HW246761   4.539   2.349  18.193
11628SOL     OW46762   3.437   2.361   5.762
11628SOL    HW146763   3.362   2.411   5.732
11628SOL    HW246764   3.513   2.403   5.722
11629SOL     OW46765   1.179   2.007   8.743
11629SOL    HW146766   1.178   1.997   8.648
11629SOL    HW246767   1.121   2.080   8.761
11630SOL     OW46768   0.483   1.933   4.298
11630SOL    HW146769   0.535   1.932   4.379
11630SOL    HW246770   0.450   2.022   4.292
11631SOL     OW46771   3.837   2.687   0.259
11631SOL    HW146772   3.797   2.759   0.210
11631SOL    HW246773   3.762   2.636   0.290
11632SOL     OW46774   4.669   3.893  20.393
11632SOL    HW146775   4.678   3.981  20.357
11632SOL    HW246776   4.743   3.884  20.453
11633SOL     OW46777   1.755   2.958   5.790
11633SOL    HW146778   1.801   2.948   5.706
11633SOL    HW246779   1.826   2.966   5.854
11634SOL     OW46780   4.227   2.393  18.178
11634SOL    HW146781   4.228   2.298  18.170
11634SOL    HW246782   4.310   2.421  18.139
11635SOL     OW46783   2.728   0.039  12.760
11635SOL    HW146784   2.651   4.779  12.779
11635SOL    HW246785   2.706   0.125  12.796
11636SOL     OW46786   2.083   2.250  14.207
11636SOL    HW146787   2.064   2.343  14.218
11636SOL    HW246788   2.077   2.214  14.296
11637SOL     OW46789   0.505   0.000  18.096
11637SOL    HW146790   0.533   4.704  18.110
11637SOL    HW246791   0.508   0.040  18.183
11638SOL     OW46792   4.590   1.487   2.781
11638SOL    HW146793   4.504   1.501   2.821
11638SOL    HW246794   4.648   1.548   2.826
11639SOL     OW46795   3.604   2.156   2.545
11639SOL    HW146796   3.607   2.250   2.526
11639SOL    HW246797   3.512   2.138   2.560
11640SOL     OW46798   2.352   3.213  20.912
11640SOL    HW146799   2.386   3.192  20.825
11640SOL    HW246800   2.390   3.299  20.932
11641SOL     OW46801   2.546   4.091   5.358
11641SOL    HW146802   2.522   4.159   5.294
11641SOL    HW246803   2.637   4.111   5.381
11642SOL     OW46804   0.733   3.128   6.222
11642SOL    HW146805   0.683   3.069   6.277
11642SOL    HW246806   0.694   3.215   6.236
11643SOL     OW46807   0.576   3.176   3.207
11643SOL    HW146808   0.578   3.270   3.220
11643SOL    HW246809   0.518   3.162   3.133
11644SOL     OW46810   3.888   0.479  13.924
11644SOL    HW146811   3.951   0.516  13.987
11644SOL    HW246812   3.931   0.489  13.839
11645SOL     OW46813   4.520   3.520   0.885
11645SOL    HW146814   4.570   3.567   0.951
11645SOL    HW246815   4.429   3.525   0.915
11646SOL     OW46816   4.223   1.278   2.840
11646SOL    HW146817   4.244   1.325   2.760
11646SOL    HW246818   4.296   1.217   2.853
11647SOL     OW46819   3.179   2.858   0.806
11647SOL    HW146820   3.195   2.844   0.900
11647SOL    HW246821   3.095   2.816   0.790
11648SOL     OW46822   1.309   3.204   5.889
11648SOL    HW146823   1.358   3.238   5.965
11648SOL    HW246824   1.219   3.230   5.906
11649SOL     OW46825   4.590   4.517  14.344
11649SOL    HW146826   4.652   4.542  14.413
11649SOL    HW246827   4.560   4.601  14.308
11650SOL     OW46828   1.934   0.472   2.521
11650SOL    HW146829   1.861   0.411   2.534
11650SOL    HW246830   1.943   0.517   2.605
11651SOL     OW46831   3.591   2.711  18.092
11651SOL    HW146832   3.570   2.630  18.139
11651SOL    HW246833   3.687   2.714  18.092
11652SOL     OW46834   3.741   2.540   5.002
11652SOL    HW146835   3.729   2.586   4.918
11652SOL    HW246836   3.836   2.541   5.015
11653SOL     OW46837   0.941   0.524  18.578
11653SOL    HW146838   1.023   0.545  18.532
11653SOL    HW246839   0.899   0.609  18.591
11654SOL     OW46840   1.945   3.322  19.157
11654SOL    HW146841   1.920   3.238  19.193
11654SOL    HW246842   1.911   3.386  19.219
11655SOL     OW46843   4.517   1.615   3.793
11655SOL    HW146844   4.507   1.637   3.700
11655SOL    HW246845   4.588   1.551   3.795
11656SOL     OW46846   3.465   4.145   6.233
11656SOL    HW146847   3.495   4.091   6.306
11656SOL    HW246848   3.389   4.098   6.199
11657SOL     OW46849   1.603   1.518  19.193
11657SOL    HW146850   1.519   1.519  19.239
11657SOL    HW246851   1.624   1.610  19.180
11658SOL     OW46852   4.042   0.101  17.239
11658SOL    HW146853   4.126   0.106  17.193
11658SOL    HW246854   4.064   0.114  17.332
11659SOL     OW46855   1.667   0.884  15.113
11659SOL    HW146856   1.644   0.806  15.164
11659SOL    HW246857   1.610   0.880  15.036
11660SOL     OW46858   0.533   4.780   0.631
11660SOL    HW146859   0.517   4.704   0.687
11660SOL    HW246860   0.492   4.757   0.548
11661SOL     OW46861   0.973   3.354   4.695
11661SOL    HW146862   0.929   3.393   4.619
11661SOL    HW246863   0.910   3.364   4.766
11662SOL     OW46864   2.930   3.127  19.315
11662SOL    HW146865   2.944   3.042  19.274
11662SOL    HW246866   2.844   3.155  19.285
11663SOL     OW46867   2.517   0.569   1.346
11663SOL    HW146868   2.426   0.549   1.370
11663SOL    HW246869   2.569   0.535   1.419
11664SOL     OW46870   0.725   0.907   0.250
11664SOL    HW146871   0.671   0.873   0.321
11664SOL    HW246872   0.785   0.968   0.292
11665SOL     OW46873   3.886   3.195   5.414
11665SOL    HW146874   3.822   3.150   5.470
11665SOL    HW246875   3.944   3.240   5.476
11666SOL     OW46876   4.254   0.267  17.694
11666SOL    HW146877   4.344   0.259  17.663
11666SOL    HW246878   4.212   0.326  17.631
11667SOL     OW46879   4.208   3.530  17.252
11667SOL    HW146880   4.164   3.608  17.286
11667SOL    HW246881   4.138   3.466  17.238
11668SOL     OW46882   4.675   1.277   3.849
11668SOL    HW146883   4.758   1.241   3.879
11668SOL    HW246884   4.696   1.365   3.818
11669SOL     OW46885   4.514   0.817  15.128
11669SOL    HW146886   4.485   0.736  15.086
11669SOL    HW246887   4.600   0.833  15.090
11670SOL     OW46888   3.022   1.595   6.210
11670SOL    HW146889   3.061   1.645   6.138
11670SOL    HW246890   3.052   1.506   6.196
11671SOL     OW46891   4.175   3.620   2.316
11671SOL    HW146892   4.088   3.580   2.312
11671SOL    HW246893   4.165   3.694   2.376
11672SOL     OW46894   4.540   4.161  19.744
11672SOL    HW146895   4.594   4.085  19.766
11672SOL    HW246896   4.478   4.128  19.679
11673SOL     OW46897   0.189   4.076  13.934
11673SOL    HW146898   0.216   4.025  14.010
11673SOL    HW246899   0.101   4.044  13.913
11674SOL     OW46900   3.759   2.704   7.185
11674SOL    HW146901   3.709   2.753   7.121
11674SOL    HW246902   3.776   2.766   7.256
11675SOL     OW46903   3.866   1.403  17.695
11675SOL    HW146904   3.790   1.415  17.638
11675SOL    HW246905   3.882   1.489  17.733
11676SOL     OW46906   2.373   1.615  17.122
11676SOL    HW146907   2.350   1.688  17.064
11676SOL    HW246908   2.469   1.616  17.125
11677SOL     OW46909   0.018   4.658   7.328
11677SOL    HW146910   4.740   4.647   7.266
11677SOL    HW246911   0.024   4.753   7.341
11678SOL     OW46912   2.357   4.134   6.064
11678SOL    HW146913   2.415   4.124   5.988
11678SOL    HW246914   2.286   4.071   6.048
11679SOL     OW46915   2.886   2.953  18.216
11679SOL    HW146916   2.931   2.870  18.206
11679SOL    HW246917   2.794   2.933  18.195
11680SOL     OW46918   2.360   2.942   8.421
11680SOL    HW146919   2.383   2.862   8.469
11680SOL    HW246920   2.415   2.939   8.342
11681SOL     OW46921   2.614   3.049  19.528
11681SOL    HW146922   2.662   2.979  19.484
11681SOL    HW246923   2.681   3.109  19.558
11682SOL     OW46924   3.443   2.261  20.445
11682SOL    HW146925   3.462   2.240  20.354
11682SOL    HW246926   3.519   2.230  20.494
11683SOL     OW46927   3.389   3.395  16.944
11683SOL    HW146928   3.415   3.354  16.862
11683SOL    HW246929   3.441   3.351  17.011
11684SOL     OW46930   1.150   0.831  16.815
11684SOL    HW146931   1.168   0.891  16.744
11684SOL    HW246932   1.069   0.864  16.855
11685SOL     OW46933   4.592   4.789   1.770
11685SOL    HW146934   4.544   0.033   1.697
11685SOL    HW246935   4.527   4.738   1.818
11686SOL     OW46936   1.449   0.424  19.039
11686SOL    HW146937   1.476   0.341  18.998
11686SOL    HW246938   1.485   0.492  18.982
11687SOL     OW46939   4.757   1.194   4.891
11687SOL    HW146940   4.732   1.287   4.888
11687SOL    HW246941   0.058   1.196   4.904
11688SOL     OW46942   1.860   3.871   0.006
11688SOL    HW146943   1.773   3.849  21.250
11688SOL    HW246944   1.911   3.891  21.204
11689SOL     OW46945   2.620   4.481   0.895
11689SOL    HW146946   2.674   4.452   0.968
11689SOL    HW246947   2.563   4.406   0.876
11690SOL     OW46948   3.409   3.215   4.176
11690SOL    HW146949   3.391   3.151   4.108
11690SOL    HW246950   3.499   3.243   4.160
11691SOL     OW46951   1.161   2.522  14.521
11691SOL    HW146952   1.133   2.585  14.587
11691SOL    HW246953   1.163   2.572  14.439
11692SOL     OW46954   4.148   3.288   3.239
11692SOL    HW146955   4.126   3.361   3.296
11692SOL    HW246956   4.206   3.326   3.173
11693SOL     OW46957   3.759   2.476  13.647
11693SOL    HW146958   3.735   2.546  13.587
11693SOL    HW246959   3.677   2.447  13.686
11694SOL     OW46960   3.294   2.402   7.522
11694SOL    HW146961   3.340   2.334   7.472
11694SOL    HW246962   3.294   2.370   7.612
11695SOL     OW46963   3.206   3.452  19.627
11695SOL    HW146964   3.124   3.492  19.655
11695SOL    HW246965   3.258   3.446  19.706
11696SOL     OW46966   0.415   2.375  19.432
11696SOL    HW146967   0.474   2.341  19.499
11696SOL    HW246968   0.470   2.434  19.379
11697SOL     OW46969   0.376   1.774  15.360
11697SOL    HW146970   0.453   1.816  15.400
11697SOL    HW246971   0.340   1.841  15.301
11698SOL     OW46972   3.167   0.153   6.813
11698SOL    HW146973   3.256   0.119   6.816
11698SOL    HW246974   3.174   0.238   6.771
11699SOL     OW46975   2.469   3.384   1.324
11699SOL    HW146976   2.442   3.476   1.331
11699SOL    HW246977   2.402   3.344   1.269
11700SOL     OW46978   0.964   4.062  13.019
11700SOL    HW146979   1.017   4.012  12.957
11700SOL    HW246980   1.026   4.120  13.063
11701SOL     OW46981   2.822   3.522  16.470
11701SOL    HW146982   2.918   3.524  16.468
11701SOL    HW246983   2.801   3.474  16.550
11702SOL     OW46984   3.098   2.545   2.291
11702SOL    HW146985   3.152   2.467   2.303
11702SOL    HW246986   3.160   2.615   2.272
11703SOL     OW46987   3.350   1.319  17.395
11703SOL    HW146988   3.389   1.255  17.455
11703SOL    HW246989   3.303   1.380  17.452
11704SOL     OW46990   2.390   1.468  20.451
11704SOL    HW146991   2.464   1.529  20.445
11704SOL    HW246992   2.405   1.419  20.532
11705SOL     OW46993   4.159   1.318   5.737
11705SOL    HW146994   4.142   1.408   5.764
11705SOL    HW246995   4.164   1.321   5.642
11706SOL     OW46996   1.199   3.777  16.805
11706SOL    HW146997   1.146   3.698  16.818
11706SOL    HW246998   1.137   3.850  16.813
11707SOL     OW46999   0.050   3.338   0.618
11707SOL    HW147000   4.784   3.402   0.656
11707SOL    HW247001   0.104   3.389   0.557
11708SOL     OW47002   1.137   3.167  20.672
11708SOL    HW147003   1.224   3.150  20.709
11708SOL    HW247004   1.153   3.219  20.594
11709SOL     OW47005   3.313   2.174   2.611
11709SOL    HW147006   3.255   2.113   2.656
11709SOL    HW247007   3.337   2.238   2.679
11710SOL     OW47008   2.564   4.420  17.219
11710SOL    HW147009   2.505   4.467  17.278
11710SOL    HW247010   2.635   4.483  17.202
11711SOL     OW47011   2.002   3.039   0.650
11711SOL    HW147012   1.928   2.995   0.608
11711SOL    HW247013   2.065   3.052   0.580
11712SOL     OW47014   4.630   3.577   5.901
11712SOL    HW147015   4.593   3.507   5.955
11712SOL    HW247016   4.716   3.594   5.940
11713SOL     OW47017   2.929   4.423   1.201
11713SOL    HW147018   2.983   4.369   1.258
11713SOL    HW247019   2.848   4.373   1.188
11714SOL     OW47020   0.131   3.963   4.083
11714SOL    HW147021   0.076   4.015   4.142
11714SOL    HW247022   0.179   3.904   4.141
11715SOL     OW47023   1.221   1.396   3.596
11715SOL    HW147024   1.137   1.351   3.582
11715SOL    HW247025   1.239   1.438   3.512
11716SOL     OW47026   4.622   2.347  17.624
11716SOL    HW147027   4.565   2.323  17.697
11716SOL    HW247028   4.626   2.268  17.570
11717SOL     OW47029   2.871   4.688   4.521
11717SOL    HW147030   2.883   4.744   4.598
11717SOL    HW247031   2.947   4.631   4.521
11718SOL     OW47032   1.605   2.042  19.259
11718SOL    HW147033   1.675   2.096  19.296
11718SOL    HW247034   1.561   2.099  19.196
11719SOL     OW47035   3.965   1.366   4.752
11719SOL    HW147036   4.056   1.367   4.725
11719SOL    HW247037   3.927   1.291   4.706
11720SOL     OW47038   4.025   3.068  15.706
11720SOL    HW147039   3.961   3.140  15.704
11720SOL    HW247040   4.071   3.074  15.623
11721SOL     OW47041   0.374   2.691  18.400
11721SOL    HW147042   0.319   2.747  18.344
11721SOL    HW247043   0.365   2.729  18.487
11722SOL     OW47044   3.194   2.799   1.382
11722SOL    HW147045   3.200   2.716   1.430
11722SOL    HW247046   3.147   2.858   1.441
11723SOL     OW47047   4.537   3.243  16.073
11723SOL    HW147048   4.448   3.277  16.079
11723SOL    HW247049   4.538   3.167  16.131
11724SOL     OW47050   1.800   0.908   1.434
11724SOL    HW147051   1.769   0.859   1.358
11724SOL    HW247052   1.843   0.985   1.398
11725SOL     OW47053   2.894   0.240  18.624
11725SOL    HW147054   2.940   0.270  18.546
11725SOL    HW247055   2.802   0.261  18.608
11726SOL     OW47056   4.298   2.533   2.695
11726SOL    HW147057   4.299   2.629   2.695
11726SOL    HW247058   4.377   2.509   2.745
11727SOL     OW47059   0.097   3.708   7.932
11727SOL    HW147060   0.191   3.713   7.914
11727SOL    HW247061   0.080   3.614   7.943
11728SOL     OW47062   1.493   1.249   0.154
11728SOL    HW147063   1.405   1.213   0.150
11728SOL    HW247064   1.546   1.191   0.100
11729SOL     OW47065   2.040   3.856   3.926
11729SOL    HW147066   2.009   3.783   3.979
11729SOL    HW247067   2.028   3.826   3.835
11730SOL     OW47068   0.782   0.942   1.509
11730SOL    HW147069   0.776   0.888   1.587
11730SOL    HW247070   0.691   0.962   1.486
11731SOL     OW47071   0.822   4.039   6.620
11731SOL    HW147072   0.728   4.026   6.634
11731SOL    HW247073   0.853   4.083   6.699
11732SOL     OW47074   1.829   0.294   2.296
11732SOL    HW147075   1.787   0.380   2.290
11732SOL    HW247076   1.919   0.314   2.322
11733SOL     OW47077   3.525   1.877  15.550
11733SOL    HW147078   3.607   1.863  15.504
11733SOL    HW247079   3.463   1.902  15.481
11734SOL     OW47080   3.246   4.533   7.914
11734SOL    HW147081   3.158   4.547   7.878
11734SOL    HW247082   3.253   4.438   7.922
11735SOL     OW47083   2.017   1.890   4.223
11735SOL    HW147084   1.971   1.812   4.193
11735SOL    HW247085   2.096   1.857   4.264
11736SOL     OW47086   2.873   4.006  20.723
11736SOL    HW147087   2.817   3.935  20.690
11736SOL    HW247088   2.954   3.997  20.673
11737SOL     OW47089   1.897   2.946  17.969
11737SOL    HW147090   1.867   2.886  18.037
11737SOL    HW247091   1.931   3.022  18.017
11738SOL     OW47092   3.808   1.312   3.276
11738SOL    HW147093   3.896   1.309   3.239
11738SOL    HW247094   3.813   1.379   3.344
11739SOL     OW47095   0.234   2.593   2.392
11739SOL    HW147096   0.164   2.646   2.432
11739SOL    HW247097   0.312   2.616   2.442
11740SOL     OW47098   0.783   4.030   4.473
11740SOL    HW147099   0.814   4.086   4.401
11740SOL    HW247100   0.826   3.946   4.458
11741SOL     OW47101   4.787   2.542   5.026
11741SOL    HW147102   0.009   2.525   4.933
11741SOL    HW247103   4.692   2.531   5.036
11742SOL     OW47104   1.828   0.228  19.047
11742SOL    HW147105   1.818   0.133  19.046
11742SOL    HW247106   1.919   0.243  19.021
11743SOL     OW47107   4.120   1.898   6.122
11743SOL    HW147108   4.087   1.987   6.110
11743SOL    HW247109   4.058   1.843   6.074
11744SOL     OW47110   0.624   1.605  17.561
11744SOL    HW147111   0.691   1.542  17.586
11744SOL    HW247112   0.615   1.596  17.467
11745SOL     OW47113   0.695   0.084   2.256
11745SOL    HW147114   0.616   0.044   2.293
11745SOL    HW247115   0.707   0.041   2.171
11746SOL     OW47116   1.507   0.106   2.753
11746SOL    HW147117   1.553   0.184   2.721
11746SOL    HW247118   1.483   0.058   2.673
11747SOL     OW47119   4.731   2.427  16.571
11747SOL    HW147120   4.729   2.496  16.637
11747SOL    HW247121   4.748   2.346  16.620
11748SOL     OW47122   1.371   0.415  17.796
11748SOL    HW147123   1.416   0.373  17.723
11748SOL    HW247124   1.357   0.505  17.767
11749SOL     OW47125   3.992   2.599   5.102
11749SOL    HW147126   4.073   2.571   5.145
11749SOL    HW247127   4.017   2.616   5.011
11750SOL     OW47128   0.776   2.282  13.962
11750SOL    HW147129   0.862   2.288  14.002
11750SOL    HW247130   0.758   2.188  13.959
11751SOL     OW47131   2.688   3.364  17.827
11751SOL    HW147132   2.750   3.298  17.798
11751SOL    HW247133   2.664   3.338  17.916
11752SOL     OW47134   1.639   2.158   2.161
11752SOL    HW147135   1.710   2.191   2.217
11752SOL    HW247136   1.562   2.157   2.217
11753SOL     OW47137   4.111   0.251   3.585
11753SOL    HW147138   4.162   0.191   3.531
11753SOL    HW247139   4.126   0.337   3.546
11754SOL     OW47140   1.041   3.666   1.980
11754SOL    HW147141   1.130   3.654   2.012
11754SOL    HW247142   1.016   3.752   2.013
11755SOL     OW47143   0.361   2.901  21.273
11755SOL    HW147144   0.286   2.934  21.225
11755SOL    HW247145   0.367   2.809  21.247
11756SOL     OW47146   0.449   0.955  21.092
11756SOL    HW147147   0.470   1.043  21.060
11756SOL    HW247148   0.417   0.908  21.015
11757SOL     OW47149   0.684   2.889  20.642
11757SOL    HW147150   0.735   2.812  20.667
11757SOL    HW247151   0.718   2.959  20.697
11758SOL     OW47152   3.635   3.271   3.791
11758SOL    HW147153   3.687   3.210   3.739
11758SOL    HW247154   3.696   3.341   3.814
11759SOL     OW47155   1.764   2.996   4.561
11759SOL    HW147156   1.688   2.941   4.573
11759SOL    HW247157   1.780   2.995   4.466
11760SOL     OW47158   3.874   2.013  20.926
11760SOL    HW147159   3.812   1.944  20.947
11760SOL    HW247160   3.954   1.967  20.900
11761SOL     OW47161   0.135   3.896  14.916
11761SOL    HW147162   0.126   3.801  14.915
11761SOL    HW247163   0.087   3.926  14.839
11762SOL     OW47164   3.046   3.928  21.123
11762SOL    HW147165   2.987   3.891  21.058
11762SOL    HW247166   3.107   3.982  21.073
11763SOL     OW47167   4.330   2.085  19.495
11763SOL    HW147168   4.388   2.136  19.439
11763SOL    HW247169   4.297   2.147  19.559
11764SOL     OW47170   1.445   4.281   2.361
11764SOL    HW147171   1.533   4.282   2.324
11764SOL    HW247172   1.458   4.279   2.456
11765SOL     OW47173   3.027   3.598   6.773
11765SOL    HW147174   3.051   3.562   6.858
11765SOL    HW247175   3.105   3.585   6.719
11766SOL     OW47176   2.794   1.727   4.283
11766SOL    HW147177   2.788   1.647   4.230
11766SOL    HW247178   2.872   1.715   4.336
11767SOL     OW47179   4.138   0.164   3.284
11767SOL    HW147180   4.206   0.229   3.299
11767SOL    HW247181   4.176   0.102   3.222
11768SOL     OW47182   2.653   1.067   3.640
11768SOL    HW147183   2.686   1.105   3.721
11768SOL    HW247184   2.569   1.112   3.626
11769SOL     OW47185   3.951   3.026  18.413
11769SOL    HW147186   3.885   3.006  18.480
11769SOL    HW247187   3.906   3.013  18.330
11770SOL     OW47188   2.114   3.577   0.432
11770SOL    HW147189   2.178   3.522   0.387
11770SOL    HW247190   2.045   3.591   0.367
11771SOL     OW47191   4.641   2.885   5.235
11771SOL    HW147192   4.592   2.960   5.201
11771SOL    HW247193   4.672   2.840   5.157
11772SOL     OW47194   4.610   1.463   6.665
11772SOL    HW147195   4.695   1.502   6.680
11772SOL    HW247196   4.619   1.372   6.696
11773SOL     OW47197   0.648   3.093  19.358
11773SOL    HW147198   0.643   3.180  19.399
11773SOL    HW247199   0.627   3.109  19.266
11774SOL     OW47200   2.294   4.701  15.078
11774SOL    HW147201   2.366   4.638  15.084
11774SOL    HW247202   2.332   4.778  15.036
11775SOL     OW47203   0.375   3.694   4.719
11775SOL    HW147204   0.300   3.711   4.776
11775SOL    HW247205   0.336   3.660   4.638
11776SOL     OW47206   1.233   3.058   0.658
11776SOL    HW147207   1.206   3.074   0.749
11776SOL    HW247208   1.237   3.145   0.619
11777SOL     OW47209   1.433   3.379  18.284
11777SOL    HW147210   1.349   3.411  18.316
11777SOL    HW247211   1.456   3.438  18.213
11778SOL     OW47212   4.389   0.897   4.722
11778SOL    HW147213   4.352   0.937   4.801
11778SOL    HW247214   4.411   0.971   4.665
11779SOL     OW47215   4.002   0.142   1.109
11779SOL    HW147216   3.959   0.191   1.180
11779SOL    HW247217   3.958   0.057   1.108
11780SOL     OW47218   4.342   3.913   7.350
11780SOL    HW147219   4.283   3.988   7.338
11780SOL    HW247220   4.302   3.843   7.298
11781SOL     OW47221   0.909   3.508  18.104
11781SOL    HW147222   0.964   3.430  18.095
11781SOL    HW247223   0.856   3.509  18.025
11782SOL     OW47224   3.402   1.444   1.705
11782SOL    HW147225   3.446   1.422   1.623
11782SOL    HW247226   3.322   1.489   1.679
11783SOL     OW47227   1.357   4.535  19.983
11783SOL    HW147228   1.267   4.553  20.011
11783SOL    HW247229   1.346   4.484  19.903
11784SOL     OW47230   3.703   2.883  20.745
11784SOL    HW147231   3.651   2.925  20.814
11784SOL    HW247232   3.642   2.821  20.704
11785SOL     OW47233   1.584   0.148  20.474
11785SOL    HW147234   1.678   0.139  20.490
11785SOL    HW247235   1.542   0.121  20.556
11786SOL     OW47236   0.151   3.015   4.027
11786SOL    HW147237   0.244   3.040   4.025
11786SOL    HW247238   0.107   3.083   3.977
11787SOL     OW47239   2.310   1.190  14.849
11787SOL    HW147240   2.398   1.203  14.815
11787SOL    HW247241   2.322   1.169  14.941
11788SOL     OW47242   1.116   3.626   4.241
11788SOL    HW147243   1.085   3.679   4.168
11788SOL    HW247244   1.055   3.552   4.244
11789SOL     OW47245   3.441   2.175  18.147
11789SOL    HW147246   3.489   2.093  18.156
11789SOL    HW247247   3.485   2.221  18.075
11790SOL     OW47248   1.143   0.242   0.739
11790SOL    HW147249   1.183   0.173   0.687
11790SOL    HW247250   1.082   0.285   0.679
11791SOL     OW47251   3.124   4.617   9.467
11791SOL    HW147252   3.122   4.708   9.495
11791SOL    HW247253   3.157   4.621   9.377
11792SOL     OW47254   2.841   4.660   7.928
11792SOL    HW147255   2.884   4.619   7.853
11792SOL    HW247256   2.899   4.733   7.951
11793SOL     OW47257   3.511   1.914   4.011
11793SOL    HW147258   3.431   1.929   3.961
11793SOL    HW247259   3.566   1.991   3.992
11794SOL     OW47260   4.485   1.628  16.097
11794SOL    HW147261   4.477   1.695  16.165
11794SOL    HW247262   4.396   1.618  16.062
11795SOL     OW47263   2.677   0.785   7.545
11795SOL    HW147264   2.591   0.746   7.530
11795SOL    HW247265   2.710   0.741   7.623
11796SOL     OW47266   1.970   0.704   1.564
11796SOL    HW147267   2.045   0.756   1.594
11796SOL    HW247268   1.909   0.770   1.530
11797SOL     OW47269   0.626   4.783   9.209
11797SOL    HW147270   0.625   0.020   9.118
11797SOL    HW247271   0.539   4.745   9.222
11798SOL     OW47272   0.922   0.027   9.049
11798SOL    HW147273   0.860   0.016   8.978
11798SOL    HW247274   0.915   0.120   9.072
11799SOL     OW47275   3.759   0.999  10.308
11799SOL    HW147276   3.766   1.065  10.377
11799SOL    HW247277   3.783   0.917  10.351
11800SOL     OW47278   1.788   0.760  10.437
11800SOL    HW147279   1.824   0.848  10.450
11800SOL    HW247280   1.740   0.766  10.354
11801SOL     OW47281   2.612   0.997  10.511
11801SOL    HW147282   2.546   0.958  10.453
11801SOL    HW247283   2.652   0.921  10.554
11802SOL     OW47284   1.902   1.041  10.504
11802SOL    HW147285   1.871   1.018  10.591
11802SOL    HW247286   1.965   1.112  10.519
11803SOL     OW47287   2.864   0.329  10.496
11803SOL    HW147288   2.859   0.381  10.576
11803SOL    HW247289   2.773   0.308  10.475
11804SOL     OW47290   2.274   0.904  11.067
11804SOL    HW147291   2.365   0.882  11.085
11804SOL    HW247292   2.259   0.874  10.977
11805SOL     OW47293   3.192   0.722  12.014
11805SOL    HW147294   3.233   0.741  11.930
11805SOL    HW247295   3.262   0.734  12.079
11806SOL     OW47296   1.842   1.063  11.574
11806SOL    HW147297   1.846   1.082  11.480
11806SOL    HW247298   1.781   1.127  11.610
11807SOL     OW47299   2.778   1.665  12.189
11807SOL    HW147300   2.845   1.611  12.232
11807SOL    HW247301   2.789   1.752  12.229
11808SOL     OW47302   2.264   2.302  12.358
11808SOL    HW147303   2.259   2.231  12.293
11808SOL    HW247304   2.174   2.315  12.386
11809SOL     OW47305   3.655   1.094  12.964
11809SOL    HW147306   3.640   1.173  13.016
11809SOL    HW247307   3.568   1.058  12.949
11810SOL     OW47308   3.423   0.522   9.733
11810SOL    HW147309   3.418   0.545   9.826
11810SOL    HW247310   3.348   0.464   9.719
11811SOL     OW47311   2.662   0.782  13.225
11811SOL    HW147312   2.720   0.858  13.220
11811SOL    HW247313   2.593   0.809  13.285
11812SOL     OW47314   1.857   0.432  11.936
11812SOL    HW147315   1.858   0.389  12.022
11812SOL    HW247316   1.927   0.388  11.887
11813SOL     OW47317   0.560   0.429  11.806
11813SOL    HW147318   0.490   0.397  11.862
11813SOL    HW247319   0.599   0.351  11.768
11814SOL     OW47320   1.171   1.492  11.609
11814SOL    HW147321   1.148   1.476  11.700
11814SOL    HW247322   1.249   1.547  11.613
11815SOL     OW47323   0.893   4.266   6.457
11815SOL    HW147324   0.986   4.286   6.448
11815SOL    HW247325   0.891   4.192   6.517
11816SOL     OW47326   3.315   2.179  16.648
11816SOL    HW147327   3.244   2.209  16.591
11816SOL    HW247328   3.303   2.084  16.653
11817SOL     OW47329   3.264   2.108   5.187
11817SOL    HW147330   3.218   2.165   5.249
11817SOL    HW247331   3.289   2.031   5.239
11818SOL     OW47332   0.653   3.464  18.346
11818SOL    HW147333   0.644   3.414  18.265
11818SOL    HW247334   0.593   3.421  18.407
11819SOL     OW47335   4.340   2.766  20.188
11819SOL    HW147336   4.360   2.711  20.264
11819SOL    HW247337   4.404   2.738  20.122
11820SOL     OW47338   1.516   0.427  20.638
11820SOL    HW147339   1.457   0.473  20.578
11820SOL    HW247340   1.558   0.497  20.688
11821SOL     OW47341   2.030   0.372   5.696
11821SOL    HW147342   2.112   0.330   5.671
11821SOL    HW247343   2.033   0.377   5.791
11822SOL     OW47344   4.600   1.304   2.065
11822SOL    HW147345   4.552   1.305   1.982
11822SOL    HW247346   4.535   1.279   2.130
11823SOL     OW47347   0.117   0.327  10.904
11823SOL    HW147348   0.142   0.266  10.834
11823SOL    HW247349   0.197   0.337  10.956
11824SOL     OW47350   3.785   1.662  14.069
11824SOL    HW147351   3.732   1.614  14.006
11824SOL    HW247352   3.787   1.751  14.036
11825SOL     OW47353   0.346   2.906  15.201
11825SOL    HW147354   0.279   2.841  15.179
11825SOL    HW247355   0.428   2.867  15.172
11826SOL     OW47356   1.653   4.665   6.174
11826SOL    HW147357   1.665   4.665   6.269
11826SOL    HW247358   1.672   4.755   6.147
11827SOL     OW47359   4.121   4.718   0.937
11827SOL    HW147360   4.064   4.683   0.869
11827SOL    HW247361   4.130   4.647   1.001
11828SOL     OW47362   1.117   0.135   0.246
11828SOL    HW147363   1.161   0.216   0.274
11828SOL    HW247364   1.069   0.160   0.167
11829SOL     OW47365   4.445   4.314  17.932
11829SOL    HW147366   4.464   4.397  17.891
11829SOL    HW247367   4.472   4.325  18.023
11830SOL     OW47368   2.886   0.386   3.272
11830SOL    HW147369   2.813   0.449   3.273
11830SOL    HW247370   2.951   0.427   3.215
11831SOL     OW47371   0.227   4.233   1.756
11831SOL    HW147372   0.205   4.248   1.848
11831SOL    HW247373   0.162   4.283   1.707
11832SOL     OW47374   3.310   2.954  15.947
11832SOL    HW147375   3.359   2.921  16.022
11832SOL    HW247376   3.253   2.881  15.922
11833SOL     OW47377   4.133   0.330  16.382
11833SOL    HW147378   4.110   0.335  16.289
11833SOL    HW247379   4.228   0.332  16.383
11834SOL     OW47380   4.659   3.790  19.487
11834SOL    HW147381   4.686   3.712  19.536
11834SOL    HW247382   4.611   3.843  19.550
11835SOL     OW47383   3.463   2.995   1.633
11835SOL    HW147384   3.532   2.957   1.579
11835SOL    HW247385   3.388   2.938   1.620
11836SOL     OW47386   0.237   4.196   3.294
11836SOL    HW147387   0.328   4.225   3.296
11836SOL    HW247388   0.208   4.202   3.386
11837SOL     OW47389   1.795   2.987   4.281
11837SOL    HW147390   1.819   2.939   4.201
11837SOL    HW247391   1.735   3.055   4.251
11838SOL     OW47392   2.978   3.255  18.619
11838SOL    HW147393   3.060   3.208  18.602
11838SOL    HW247394   2.928   3.247  18.537
11839SOL     OW47395   1.871   4.231  19.475
11839SOL    HW147396   1.833   4.297  19.418
11839SOL    HW247397   1.939   4.277  19.524
11840SOL     OW47398   3.351   3.338  14.457
11840SOL    HW147399   3.348   3.374  14.546
11840SOL    HW247400   3.345   3.415  14.400
11841SOL     OW47401   4.526   3.145   5.145
11841SOL    HW147402   4.472   3.196   5.206
11841SOL    HW247403   4.604   3.199   5.132
11842SOL     OW47404   2.344   2.177  20.388
11842SOL    HW147405   2.352   2.268  20.415
11842SOL    HW247406   2.306   2.133  20.464
11843SOL     OW47407   2.000   2.874  15.968
11843SOL    HW147408   1.914   2.908  15.943
11843SOL    HW247409   1.994   2.859  16.062
11844SOL     OW47410   4.541   2.704  18.155
11844SOL    HW147411   4.503   2.727  18.070
11844SOL    HW247412   4.628   2.744  18.154
11845SOL     OW47413   0.391   0.494  20.506
11845SOL    HW147414   0.378   0.401  20.528
11845SOL    HW247415   0.439   0.530  20.581
11846SOL     OW47416   4.062   3.694  16.946
11846SOL    HW147417   3.985   3.637  16.950
11846SOL    HW247418   4.121   3.660  17.014
11847SOL     OW47419   3.310   3.977   2.191
11847SOL    HW147420   3.252   3.954   2.118
11847SOL    HW247421   3.251   4.010   2.259
11848SOL     OW47422   0.706   4.028  17.903
11848SOL    HW147423   0.638   4.079  17.858
11848SOL    HW247424   0.785   4.082  17.895
11849SOL     OW47425   1.177   3.601  17.485
11849SOL    HW147426   1.229   3.608  17.404
11849SOL    HW247427   1.119   3.527  17.469
11850SOL     OW47428   2.516   0.024  20.394
11850SOL    HW147429   2.466   4.736  20.390
11850SOL    HW247430   2.528   0.041  20.487
11851SOL     OW47431   4.298   2.992  16.807
11851SOL    HW147432   4.283   3.082  16.780
11851SOL    HW247433   4.319   2.998  16.900
11852SOL     OW47434   3.616   1.200   3.459
11852SOL    HW147435   3.562   1.279   3.468
11852SOL    HW247436   3.690   1.228   3.405
11853SOL     OW47437   2.831   3.603  12.897
11853SOL    HW147438   2.899   3.638  12.955
11853SOL    HW247439   2.819   3.513  12.925
11854SOL     OW47440   1.314   3.293  16.001
11854SOL    HW147441   1.222   3.302  15.975
11854SOL    HW247442   1.325   3.198  16.014
11855SOL     OW47443   1.742   2.611  21.147
11855SOL    HW147444   1.800   2.684  21.130
11855SOL    HW247445   1.800   2.538  21.168
11856SOL     OW47446   3.709   2.874  19.534
11856SOL    HW147447   3.633   2.820  19.556
11856SOL    HW247448   3.735   2.912  19.618
11857SOL     OW47449   0.823   1.910   5.524
11857SOL    HW147450   0.900   1.960   5.553
11857SOL    HW247451   0.850   1.869   5.442
11858SOL     OW47452   2.467   1.130  20.370
11858SOL    HW147453   2.394   1.170  20.417
11858SOL    HW247454   2.480   1.186  20.293
11859SOL     OW47455   1.170   0.587   3.581
11859SOL    HW147456   1.156   0.509   3.636
11859SOL    HW247457   1.205   0.652   3.641
11860SOL     OW47458   1.139   4.199  18.924
11860SOL    HW147459   1.073   4.263  18.951
11860SOL    HW247460   1.208   4.250  18.884
11861SOL     OW47461   0.860   4.247   5.023
11861SOL    HW147462   0.767   4.257   5.041
11861SOL    HW247463   0.879   4.156   5.047
11862SOL     OW47464   2.370   3.082  16.352
11862SOL    HW147465   2.277   3.078  16.370
11862SOL    HW247466   2.381   3.158  16.294
11863SOL     OW47467   3.842   2.018   6.228
11863SOL    HW147468   3.774   2.086   6.225
11863SOL    HW247469   3.810   1.948   6.172
11864SOL     OW47470   4.072   4.217  17.454
11864SOL    HW147471   4.069   4.130  17.415
11864SOL    HW247472   4.128   4.206  17.532
11865SOL     OW47473   4.546   4.285   1.472
11865SOL    HW147474   4.593   4.293   1.555
11865SOL    HW247475   4.579   4.204   1.434
11866SOL     OW47476   0.577   1.195   4.691
11866SOL    HW147477   0.651   1.172   4.746
11866SOL    HW247478   0.579   1.290   4.686
11867SOL     OW47479   3.315   3.037   7.023
11867SOL    HW147480   3.349   2.952   6.993
11867SOL    HW247481   3.249   3.015   7.088
11868SOL     OW47482   4.032   0.351  16.643
11868SOL    HW147483   4.070   0.350  16.556
11868SOL    HW247484   4.097   0.308  16.699
11869SOL     OW47485   1.405   1.692   4.443
11869SOL    HW147486   1.411   1.687   4.539
11869SOL    HW247487   1.360   1.612   4.417
11870SOL     OW47488   2.415   1.522  17.849
11870SOL    HW147489   2.436   1.432  17.824
11870SOL    HW247490   2.319   1.527  17.842
11871SOL     OW47491   1.516   3.389   4.107
11871SOL    HW147492   1.489   3.480   4.092
11871SOL    HW247493   1.598   3.396   4.155
11872SOL     OW47494   2.475   3.700  14.685
11872SOL    HW147495   2.427   3.650  14.751
11872SOL    HW247496   2.457   3.655  14.603
11873SOL     OW47497   3.786   1.700   0.038
11873SOL    HW147498   3.849   1.738   0.099
11873SOL    HW247499   3.774   1.610   0.069
11874SOL     OW47500   1.491   0.467   1.894
11874SOL    HW147501   1.447   0.477   1.978
11874SOL    HW247502   1.488   0.554   1.854
11875SOL     OW47503   4.147   3.627   8.875
11875SOL    HW147504   4.133   3.592   8.787
11875SOL    HW247505   4.069   3.602   8.924
11876SOL     OW47506   1.216   1.004  19.092
11876SOL    HW147507   1.265   1.022  19.172
11876SOL    HW247508   1.212   0.908  19.088
11877SOL     OW47509   0.676   4.119   7.199
11877SOL    HW147510   0.608   4.069   7.243
11877SOL    HW247511   0.732   4.151   7.270
11878SOL     OW47512   4.541   1.492  16.564
11878SOL    HW147513   4.558   1.500  16.470
11878SOL    HW247514   4.531   1.582  16.595
11879SOL     OW47515   0.638   2.249  20.390
11879SOL    HW147516   0.638   2.205  20.304
11879SOL    HW247517   0.672   2.183  20.450
11880SOL     OW47518   0.141   4.292   3.069
11880SOL    HW147519   0.070   4.228   3.075
11880SOL    HW247520   0.188   4.284   3.153
11881SOL     OW47521   2.391   4.230  17.861
11881SOL    HW147522   2.394   4.217  17.766
11881SOL    HW247523   2.480   4.254  17.885
11882SOL     OW47524   2.337   4.368  18.753
11882SOL    HW147525   2.400   4.357  18.682
11882SOL    HW247526   2.256   4.396  18.708
11883SOL     OW47527   0.734   3.298  20.103
11883SOL    HW147528   0.801   3.251  20.153
11883SOL    HW247529   0.756   3.280  20.011
11884SOL     OW47530   0.522   0.923   1.360
11884SOL    HW147531   0.587   0.964   1.303
11884SOL    HW247532   0.552   0.832   1.367
11885SOL     OW47533   4.731   2.804   3.165
11885SOL    HW147534   0.028   2.775   3.166
11885SOL    HW247535   4.693   2.766   3.244
11886SOL     OW47536   3.286   1.274   1.175
11886SOL    HW147537   3.194   1.298   1.167
11886SOL    HW247538   3.292   1.232   1.261
11887SOL     OW47539   1.442   0.793  18.118
11887SOL    HW147540   1.375   0.730  18.142
11887SOL    HW247541   1.464   0.838  18.200
11888SOL     OW47542   2.547   0.604   2.492
11888SOL    HW147543   2.527   0.529   2.548
11888SOL    HW247544   2.542   0.679   2.551
11889SOL     OW47545   0.476   3.927   0.491
11889SOL    HW147546   0.552   3.909   0.436
11889SOL    HW247547   0.424   3.847   0.488
11890SOL     OW47548   3.208   3.609  21.035
11890SOL    HW147549   3.198   3.626  21.129
11890SOL    HW247550   3.122   3.629  20.998
11891SOL     OW47551   4.556   0.404   7.091
11891SOL    HW147552   4.629   0.389   7.152
11891SOL    HW247553   4.542   0.499   7.094
11892SOL     OW47554   3.731   2.177   7.098
11892SOL    HW147555   3.736   2.254   7.155
11892SOL    HW247556   3.815   2.134   7.110
11893SOL     OW47557   0.766   4.502  17.801
11893SOL    HW147558   0.732   4.528  17.887
11893SOL    HW247559   0.779   4.585  17.754
11894SOL     OW47560   3.616   2.556   0.393
11894SOL    HW147561   3.651   2.475   0.431
11894SOL    HW247562   3.531   2.531   0.357
11895SOL     OW47563   0.735   0.460  18.958
11895SOL    HW147564   0.672   0.511  18.907
11895SOL    HW247565   0.689   0.436  19.038
11896SOL     OW47566   1.397   1.251   8.290
11896SOL    HW147567   1.419   1.272   8.381
11896SOL    HW247568   1.421   1.159   8.280
11897SOL     OW47569   3.708   1.914   7.598
11897SOL    HW147570   3.675   1.966   7.525
11897SOL    HW247571   3.793   1.953   7.619
11898SOL     OW47572   1.290   1.087  16.330
11898SOL    HW147573   1.378   1.058  16.304
11898SOL    HW247574   1.231   1.025  16.288
11899SOL     OW47575   4.656   1.169  18.614
11899SOL    HW147576   4.715   1.095  18.600
11899SOL    HW247577   4.595   1.166  18.540
11900SOL     OW47578   4.052   4.338  16.615
11900SOL    HW147579   4.005   4.371  16.538
11900SOL    HW247580   4.031   4.400  16.684
11901SOL     OW47581   1.640   4.202   2.871
11901SOL    HW147582   1.721   4.246   2.845
11901SOL    HW247583   1.669   4.115   2.898
11902SOL     OW47584   1.641   2.172  12.693
11902SOL    HW147585   1.616   2.255  12.653
11902SOL    HW247586   1.589   2.167  12.773
11903SOL     OW47587   2.799   2.475   2.552
11903SOL    HW147588   2.792   2.479   2.457
11903SOL    HW247589   2.805   2.566   2.580
11904SOL     OW47590   0.229   1.015   5.602
11904SOL    HW147591   0.265   1.027   5.514
11904SOL    HW247592   0.246   0.922   5.621
11905SOL     OW47593   1.334   4.757   6.233
11905SOL    HW147594   1.410   4.739   6.289
11905SOL    HW247595   1.371   4.773   6.146
11906SOL     OW47596   1.075   4.730  18.849
11906SOL    HW147597   1.163   4.762  18.870
11906SOL    HW247598   1.021   0.016  18.842
11907SOL     OW47599   4.281   1.048   0.527
11907SOL    HW147600   4.300   1.121   0.587
11907SOL    HW247601   4.213   0.997   0.572
11908SOL     OW47602   4.501   0.575   1.577
11908SOL    HW147603   4.528   0.487   1.603
11908SOL    HW247604   4.544   0.633   1.639
11909SOL     OW47605   2.433   0.887   1.901
11909SOL    HW147606   2.370   0.822   1.873
11909SOL    HW247607   2.481   0.910   1.821
11910SOL     OW47608   3.110   1.789  20.126
11910SOL    HW147609   3.159   1.854  20.075
11910SOL    HW247610   3.051   1.840  20.180
11911SOL     OW47611   0.122   1.413   2.293
11911SOL    HW147612   0.061   1.462   2.238
11911SOL    HW247613   0.187   1.379   2.231
11912SOL     OW47614   4.476   4.562  18.885
11912SOL    HW147615   4.439   4.632  18.939
11912SOL    HW247616   4.494   4.603  18.801
11913SOL     OW47617   3.682   4.065  15.837
11913SOL    HW147618   3.707   4.120  15.910
11913SOL    HW247619   3.650   3.984  15.877
11914SOL     OW47620   0.831   1.941  20.413
11914SOL    HW147621   0.913   1.906  20.448
11914SOL    HW247622   0.764   1.908  20.472
11915SOL     OW47623   3.553   0.918   5.775
11915SOL    HW147624   3.600   0.875   5.704
11915SOL    HW247625   3.485   0.969   5.732
11916SOL     OW47626   2.446   1.516  18.602
11916SOL    HW147627   2.430   1.424  18.620
11916SOL    HW247628   2.534   1.519  18.565
11917SOL     OW47629   2.203   2.830   0.359
11917SOL    HW147630   2.233   2.836   0.269
11917SOL    HW247631   2.128   2.772   0.356
11918SOL     OW47632   4.039   0.810   2.895
11918SOL    HW147633   3.982   0.752   2.845
11918SOL    HW247634   3.979   0.858   2.953
11919SOL     OW47635   3.750   1.886  15.385
11919SOL    HW147636   3.830   1.925  15.421
11919SOL    HW247637   3.733   1.937  15.305
11920SOL     OW47638   0.454   2.751   2.560
11920SOL    HW147639   0.539   2.749   2.515
11920SOL    HW247640   0.437   2.843   2.575
11921SOL     OW47641   2.853   0.832  19.448
11921SOL    HW147642   2.778   0.846  19.506
11921SOL    HW247643   2.897   0.755  19.484
11922SOL     OW47644   4.004   2.303  18.991
11922SOL    HW147645   4.017   2.351  19.073
11922SOL    HW247646   4.003   2.371  18.923
11923SOL     OW47647   4.547   4.603   1.083
11923SOL    HW147648   4.514   4.550   1.155
11923SOL    HW247649   4.490   4.681   1.083
11924SOL     OW47650   2.325   2.924   3.208
11924SOL    HW147651   2.253   2.933   3.271
11924SOL    HW247652   2.404   2.929   3.262
11925SOL     OW47653   3.372   2.640   0.575
11925SOL    HW147654   3.460   2.650   0.538
11925SOL    HW247655   3.381   2.662   0.667
11926SOL     OW47656   2.625   2.949   1.279
11926SOL    HW147657   2.594   3.035   1.251
11926SOL    HW247658   2.550   2.911   1.324
11927SOL     OW47659   4.415   4.625   6.910
11927SOL    HW147660   4.375   4.567   6.845
11927SOL    HW247661   4.422   4.709   6.865
11928SOL     OW47662   4.240   1.416  19.604
11928SOL    HW147663   4.204   1.330  19.585
11928SOL    HW247664   4.176   1.456  19.663
11929SOL     OW47665   1.624   2.896  19.236
11929SOL    HW147666   1.531   2.917  19.227
11929SOL    HW247667   1.635   2.813  19.190
11930SOL     OW47668   0.501   0.056  15.324
11930SOL    HW147669   0.539   4.762  15.323
11930SOL    HW247670   0.576   0.115  15.322
11931SOL     OW47671   1.512   1.781   3.957
11931SOL    HW147672   1.540   1.793   3.867
11931SOL    HW247673   1.592   1.791   4.009
11932SOL     OW47674   0.869   3.730  13.818
11932SOL    HW147675   0.825   3.768  13.742
11932SOL    HW247676   0.809   3.746  13.891
11933SOL     OW47677   1.392   3.866  20.362
11933SOL    HW147678   1.313   3.875  20.415
11933SOL    HW247679   1.455   3.925  20.402
11934SOL     OW47680   0.274   2.513  17.499
11934SOL    HW147681   0.188   2.541  17.529
11934SOL    HW247682   0.279   2.421  17.525
11935SOL     OW47683   2.635   3.788   2.295
11935SOL    HW147684   2.569   3.729   2.259
11935SOL    HW247685   2.681   3.821   2.218
11936SOL     OW47686   2.609   4.357   0.442
11936SOL    HW147687   2.587   4.297   0.371
11936SOL    HW247688   2.688   4.402   0.411
11937SOL     OW47689   4.480   0.578   0.588
11937SOL    HW147690   4.512   0.656   0.542
11937SOL    HW247691   4.407   0.610   0.642
11938SOL     OW47692   2.795   0.381  17.737
11938SOL    HW147693   2.864   0.445  17.720
11938SOL    HW247694   2.747   0.416  17.812
11939SOL     OW47695   0.739   0.723   3.282
11939SOL    HW147696   0.805   0.778   3.242
11939SOL    HW247697   0.769   0.710   3.372
11940SOL     OW47698   0.359   1.240  19.195
11940SOL    HW147699   0.328   1.179  19.128
11940SOL    HW247700   0.334   1.327  19.161
11941SOL     OW47701   2.677   0.357   0.359
11941SOL    HW147702   2.645   0.414   0.429
11941SOL    HW247703   2.623   0.278   0.365
11942SOL     OW47704   1.517   1.488   7.276
11942SOL    HW147705   1.518   1.559   7.212
11942SOL    HW247706   1.428   1.489   7.311
11943SOL     OW47707   1.193   3.772   1.355
11943SOL    HW147708   1.200   3.700   1.292
11943SOL    HW247709   1.184   3.850   1.300
11944SOL     OW47710   1.898   3.742  15.412
11944SOL    HW147711   1.809   3.775  15.430
11944SOL    HW247712   1.903   3.739  15.316
11945SOL     OW47713   1.093   0.582   5.345
11945SOL    HW147714   1.054   0.645   5.285
11945SOL    HW247715   1.088   0.623   5.431
11946SOL     OW47716   2.494   0.042   4.948
11946SOL    HW147717   2.438   0.101   4.898
11946SOL    HW247718   2.578   0.088   4.954
11947SOL     OW47719   1.543   2.566   2.141
11947SOL    HW147720   1.604   2.619   2.090
11947SOL    HW247721   1.497   2.512   2.076
11948SOL     OW47722   3.313   1.231   3.239
11948SOL    HW147723   3.373   1.290   3.194
11948SOL    HW247724   3.366   1.155   3.262
11949SOL     OW47725   0.863   4.316   3.526
11949SOL    HW147726   0.904   4.306   3.441
11949SOL    HW247727   0.788   4.374   3.510
11950SOL     OW47728   2.465   4.380   6.040
11950SOL    HW147729   2.530   4.402   5.973
11950SOL    HW247730   2.417   4.306   6.004
11951SOL     OW47731   2.076   1.677  17.587
11951SOL    HW147732   1.985   1.653  17.572
11951SOL    HW247733   2.126   1.617  17.532
11952SOL     OW47734   3.096   3.822  14.947
11952SOL    HW147735   3.142   3.882  14.888
11952SOL    HW247736   3.007   3.818  14.911
11953SOL     OW47737   4.729   4.286   3.912
11953SOL    HW147738   4.722   4.235   3.830
11953SOL    HW247739   0.021   4.262   3.947
11954SOL     OW47740   1.349   4.264  16.581
11954SOL    HW147741   1.372   4.347  16.538
11954SOL    HW247742   1.398   4.197  16.532
11955SOL     OW47743   2.678   3.840   8.190
11955SOL    HW147744   2.612   3.800   8.134
11955SOL    HW247745   2.629   3.902   8.244
11956SOL     OW47746   1.737   3.828   6.821
11956SOL    HW147747   1.784   3.906   6.792
11956SOL    HW247748   1.800   3.756   6.811
11957SOL     OW47749   1.468   0.278  19.720
11957SOL    HW147750   1.558   0.278  19.687
11957SOL    HW247751   1.424   0.209  19.670
11958SOL     OW47752   1.257   3.048   4.863
11958SOL    HW147753   1.190   2.988   4.830
11958SOL    HW247754   1.254   3.037   4.958
11959SOL     OW47755   4.241   3.272  17.931
11959SOL    HW147756   4.330   3.248  17.955
11959SOL    HW247757   4.189   3.256  18.010
11960SOL     OW47758   0.883   1.169  20.413
11960SOL    HW147759   0.865   1.158  20.320
11960SOL    HW247760   0.973   1.201  20.416
11961SOL     OW47761   3.751   3.015  19.814
11961SOL    HW147762   3.780   3.049  19.898
11961SOL    HW247763   3.661   3.045  19.805
11962SOL     OW47764   3.039   1.798  18.187
11962SOL    HW147765   3.060   1.889  18.164
11962SOL    HW247766   3.046   1.750  18.104
11963SOL     OW47767   2.077   2.683   4.454
11963SOL    HW147768   2.076   2.710   4.362
11963SOL    HW247769   2.063   2.764   4.503
11964SOL     OW47770   0.370   0.183  12.213
11964SOL    HW147771   0.380   0.278  12.220
11964SOL    HW247772   0.275   0.169  12.213
11965SOL     OW47773   2.633   2.478  20.320
11965SOL    HW147774   2.546   2.502  20.353
11965SOL    HW247775   2.694   2.527  20.375
11966SOL     OW47776   1.948   3.847   1.754
11966SOL    HW147777   1.998   3.925   1.781
11966SOL    HW247778   2.009   3.799   1.698
11967SOL     OW47779   2.453   0.046   7.252
11967SOL    HW147780   2.375   0.001   7.283
11967SOL    HW247781   2.427   0.084   7.168
11968SOL     OW47782   1.779   3.310   4.229
11968SOL    HW147783   1.874   3.306   4.246
11968SOL    HW247784   1.741   3.324   4.316
11969SOL     OW47785   1.085   0.559   0.841
11969SOL    HW147786   1.096   0.470   0.875
11969SOL    HW247787   1.163   0.575   0.789
11970SOL     OW47788   3.346   0.767   0.423
11970SOL    HW147789   3.434   0.786   0.391
11970SOL    HW247790   3.306   0.716   0.352
11971SOL     OW47791   2.720   1.955  18.622
11971SOL    HW147792   2.647   1.990  18.571
11971SOL    HW247793   2.684   1.943  18.710
11972SOL     OW47794   3.423   0.605   5.641
11972SOL    HW147795   3.443   0.564   5.725
11972SOL    HW247796   3.349   0.663   5.660
11973SOL     OW47797   2.880   3.035  20.150
11973SOL    HW147798   2.946   3.010  20.085
11973SOL    HW247799   2.827   2.956  20.164
11974SOL     OW47800   3.129   1.097  17.652
11974SOL    HW147801   3.214   1.140  17.657
11974SOL    HW247802   3.078   1.135  17.723
11975SOL     OW47803   4.170   4.667   6.337
11975SOL    HW147804   4.088   4.700   6.302
11975SOL    HW247805   4.189   4.589   6.286
11976SOL     OW47806   2.094   1.900  19.725
11976SOL    HW147807   2.158   1.838  19.759
11976SOL    HW247808   2.071   1.866  19.639
11977SOL     OW47809   2.827   1.741   6.596
11977SOL    HW147810   2.830   1.645   6.593
11977SOL    HW247811   2.736   1.761   6.619
11978SOL     OW47812   1.292   3.731  12.722
11978SOL    HW147813   1.255   3.763  12.640
11978SOL    HW247814   1.263   3.640  12.729
11979SOL     OW47815   1.459   2.478   1.667
11979SOL    HW147816   1.431   2.406   1.611
11979SOL    HW247817   1.552   2.491   1.645
11980SOL     OW47818   2.871   4.079   4.643
11980SOL    HW147819   2.890   4.140   4.714
11980SOL    HW247820   2.849   4.134   4.568
11981SOL     OW47821   0.201   3.882  21.185
11981SOL    HW147822   0.205   3.788  21.164
11981SOL    HW247823   0.210   3.926  21.101
11982SOL     OW47824   3.686   2.102  17.787
11982SOL    HW147825   3.741   2.027  17.765
11982SOL    HW247826   3.648   2.130  17.704
11983SOL     OW47827   3.583   0.850   0.307
11983SOL    HW147828   3.561   0.929   0.259
11983SOL    HW247829   3.670   0.826   0.274
11984SOL     OW47830   2.308   4.491   0.110
11984SOL    HW147831   2.231   4.534   0.148
11984SOL    HW247832   2.283   4.399   0.103
11985SOL     OW47833   1.384   0.769  17.395
11985SOL    HW147834   1.440   0.811  17.460
11985SOL    HW247835   1.435   0.771  17.314
11986SOL     OW47836   3.563   2.189  16.763
11986SOL    HW147837   3.630   2.196  16.696
11986SOL    HW247838   3.481   2.205  16.717
11987SOL     OW47839   2.180   2.301   2.134
11987SOL    HW147840   2.241   2.261   2.073
11987SOL    HW247841   2.129   2.228   2.169
11988SOL     OW47842   4.213   3.316  14.887
11988SOL    HW147843   4.166   3.391  14.851
11988SOL    HW247844   4.278   3.355  14.945
11989SOL     OW47845   1.697   2.745   7.260
11989SOL    HW147846   1.654   2.730   7.344
11989SOL    HW247847   1.638   2.704   7.196
11990SOL     OW47848   3.550   1.941  16.178
11990SOL    HW147849   3.618   1.980  16.124
11990SOL    HW247850   3.468   1.967  16.135
11991SOL     OW47851   1.628   3.931   1.145
11991SOL    HW147852   1.607   3.841   1.171
11991SOL    HW247853   1.692   3.920   1.074
11992SOL     OW47854   3.511   3.349   5.328
11992SOL    HW147855   3.588   3.308   5.369
11992SOL    HW247856   3.547   3.399   5.255
11993SOL     OW47857   3.315   3.952   7.749
11993SOL    HW147858   3.287   4.003   7.673
11993SOL    HW247859   3.237   3.904   7.776
11994SOL     OW47860   0.294   1.402  15.526
11994SOL    HW147861   0.219   1.342  15.520
11994SOL    HW247862   0.297   1.445  15.441
11995SOL     OW47863   2.163   3.694   1.592
11995SOL    HW147864   2.206   3.613   1.565
11995SOL    HW247865   2.202   3.716   1.676
11996SOL     OW47866   4.612   2.969  20.449
11996SOL    HW147867   4.556   2.979  20.526
11996SOL    HW247868   4.644   2.879  20.455
11997SOL     OW47869   2.102   1.469  16.902
11997SOL    HW147870   2.148   1.552  16.910
11997SOL    HW247871   2.012   1.493  16.880
11998SOL     OW47872   1.696   1.547   6.893
11998SOL    HW147873   1.739   1.569   6.975
11998SOL    HW247874   1.641   1.471   6.913
11999SOL     OW47875   4.320   0.190   0.773
11999SOL    HW147876   4.273   0.265   0.809
11999SOL    HW247877   4.393   0.229   0.724
12000SOL     OW47878   3.441   0.046  16.423
12000SOL    HW147879   3.535   0.054  16.408
12000SOL    HW247880   3.411   4.775  16.359
12001SOL     OW47881   0.276   2.661   6.094
12001SOL    HW147882   0.210   2.649   6.163
12001SOL    HW247883   0.226   2.681   6.015
12002SOL     OW47884   2.300   2.453   3.000
12002SOL    HW147885   2.252   2.412   2.928
12002SOL    HW247886   2.373   2.394   3.018
12003SOL     OW47887   3.227   4.391  18.865
12003SOL    HW147888   3.239   4.471  18.814
12003SOL    HW247889   3.245   4.418  18.955
12004SOL     OW47890   1.089   2.162   1.149
12004SOL    HW147891   1.078   2.255   1.169
12004SOL    HW247892   1.090   2.158   1.053
12005SOL     OW47893   1.515   3.502  17.980
12005SOL    HW147894   1.470   3.511  17.896
12005SOL    HW247895   1.499   3.585  18.025
12006SOL     OW47896   4.064   2.402  17.515
12006SOL    HW147897   4.159   2.415  17.521
12006SOL    HW247898   4.028   2.455  17.585
12007SOL     OW47899   3.943   0.646   6.334
12007SOL    HW147900   3.978   0.672   6.248
12007SOL    HW247901   3.926   0.729   6.378
12008SOL     OW47902   2.219   0.563   2.818
12008SOL    HW147903   2.306   0.575   2.856
12008SOL    HW247904   2.164   0.626   2.865
12009SOL     OW47905   3.525   0.278  19.447
12009SOL    HW147906   3.550   0.195  19.405
12009SOL    HW247907   3.433   0.266  19.471
12010SOL     OW47908   0.796   0.134  13.640
12010SOL    HW147909   0.810   0.067  13.574
12010SOL    HW247910   0.745   0.202  13.595
12011SOL     OW47911   2.815   4.461   0.281
12011SOL    HW147912   2.894   4.445   0.229
12011SOL    HW247913   2.746   4.472   0.216
12012SOL     OW47914   1.909   2.794  16.236
12012SOL    HW147915   1.937   2.815  16.325
12012SOL    HW247916   1.930   2.701  16.226
12013SOL     OW47917   2.451   4.112  17.616
12013SOL    HW147918   2.425   4.165  17.541
12013SOL    HW247919   2.544   4.094  17.603
12014SOL     OW47920   0.710   3.755  19.301
12014SOL    HW147921   0.770   3.762  19.375
12014SOL    HW247922   0.767   3.752  19.224
12015SOL     OW47923   0.405   3.296   6.290
12015SOL    HW147924   0.421   3.262   6.202
12015SOL    HW247925   0.333   3.243   6.323
12016SOL     OW47926   0.529   3.696   3.884
12016SOL    HW147927   0.523   3.745   3.966
12016SOL    HW247928   0.505   3.606   3.908
12017SOL     OW47929   3.252   0.985   4.650
12017SOL    HW147930   3.211   1.069   4.629
12017SOL    HW247931   3.183   0.920   4.637
12018SOL     OW47932   0.267   1.964   5.063
12018SOL    HW147933   0.213   1.950   4.985
12018SOL    HW247934   0.215   2.023   5.117
12019SOL     OW47935   2.390   0.232  14.755
12019SOL    HW147936   2.443   0.153  14.741
12019SOL    HW247937   2.345   0.217  14.838
12020SOL     OW47938   1.428   0.597  21.141
12020SOL    HW147939   1.370   0.610  21.066
12020SOL    HW247940   1.479   0.678  21.147
12021SOL     OW47941   0.552   2.592  19.301
12021SOL    HW147942   0.608   2.670  19.307
12021SOL    HW247943   0.479   2.618  19.246
12022SOL     OW47944   4.010   1.638  16.997
12022SOL    HW147945   4.100   1.669  17.000
12022SOL    HW247946   4.017   1.547  16.968
12023SOL     OW47947   3.551   2.411   4.849
12023SOL    HW147948   3.484   2.379   4.909
12023SOL    HW247949   3.603   2.473   4.901
12024SOL     OW47950   3.412   3.745   4.978
12024SOL    HW147951   3.320   3.773   4.984
12024SOL    HW247952   3.462   3.825   4.987
12025SOL     OW47953   1.088   0.430   3.286
12025SOL    HW147954   1.050   0.415   3.373
12025SOL    HW247955   1.095   0.343   3.248
12026SOL     OW47956   4.143   1.048  17.376
12026SOL    HW147957   4.182   1.012  17.455
12026SOL    HW247958   4.190   1.005  17.304
12027SOL     OW47959   3.140   1.641   4.161
12027SOL    HW147960   3.191   1.645   4.080
12027SOL    HW247961   3.083   1.718   4.156
12028SOL     OW47962   4.791   1.865  18.584
12028SOL    HW147963   4.764   1.784  18.541
12028SOL    HW247964   0.057   1.837  18.653
12029SOL     OW47965   1.109   0.522  16.606
12029SOL    HW147966   1.078   0.440  16.566
12029SOL    HW247967   1.140   0.574  16.532
12030SOL     OW47968   3.652   1.632  20.437
12030SOL    HW147969   3.634   1.716  20.479
12030SOL    HW247970   3.608   1.568  20.493
12031SOL     OW47971   0.014   2.611  20.720
12031SOL    HW147972   0.082   2.557  20.678
12031SOL    HW247973   0.015   2.582  20.812
12032SOL     OW47974   0.422   0.391  19.490
12032SOL    HW147975   0.404   0.332  19.563
12032SOL    HW247976   0.449   0.334  19.419
12033SOL     OW47977   1.023   3.994  16.783
12033SOL    HW147978   1.051   4.086  16.791
12033SOL    HW247979   0.928   3.998  16.778
12034SOL     OW47980   4.487   4.761  16.787
12034SOL    HW147981   4.504   4.702  16.714
12034SOL    HW247982   4.478   4.704  16.863
12035SOL     OW47983   3.163   2.382  16.455
12035SOL    HW147984   3.098   2.338  16.401
12035SOL    HW247985   3.241   2.388  16.400
12036SOL     OW47986   0.768   4.239   2.002
12036SOL    HW147987   0.704   4.218   1.933
12036SOL    HW247988   0.833   4.294   1.958
12037SOL     OW47989   0.115   3.679  20.749
12037SOL    HW147990   0.021   3.669  20.737
12037SOL    HW247991   0.143   3.596  20.789
12038SOL     OW47992   0.238   4.309   4.040
12038SOL    HW147993   0.238   4.379   3.975
12038SOL    HW247994   0.169   4.333   4.101
12039SOL     OW47995   3.553   1.212  16.984
12039SOL    HW147996   3.529   1.247  16.898
12039SOL    HW247997   3.497   1.260  17.045
12040SOL     OW47998   1.005   4.128  16.205
12040SOL    HW147999   0.987   4.154  16.295
12040SOL    HW248000   1.083   4.178  16.180
12041SOL     OW48001   3.200   2.694  15.816
12041SOL    HW148002   3.257   2.711  15.741
12041SOL    HW248003   3.218   2.602  15.838
12042SOL     OW48004   1.295   3.174   1.259
12042SOL    HW148005   1.227   3.109   1.242
12042SOL    HW248006   1.371   3.121   1.285
12043SOL     OW48007   1.825   1.077   1.991
12043SOL    HW148008   1.857   1.165   2.013
12043SOL    HW248009   1.789   1.087   1.902
12044SOL     OW48010   4.394   2.052  18.332
12044SOL    HW148011   4.443   2.042  18.414
12044SOL    HW248012   4.432   1.987  18.273
12045SOL     OW48013   3.676   4.606   4.926
12045SOL    HW148014   3.643   4.696   4.919
12045SOL    HW248015   3.684   4.590   5.020
12046SOL     OW48016   4.271   1.796  12.492
12046SOL    HW148017   4.304   1.881  12.521
12046SOL    HW248018   4.213   1.767  12.562
12047SOL     OW48019   3.094   0.734  17.077
12047SOL    HW148020   3.115   0.657  17.024
12047SOL    HW248021   3.085   0.701  17.166
12048SOL     OW48022   3.618   4.009  21.006
12048SOL    HW148023   3.630   3.920  21.039
12048SOL    HW248024   3.539   4.005  20.953
12049SOL     OW48025   0.718   0.995   7.461
12049SOL    HW148026   0.712   0.917   7.405
12049SOL    HW248027   0.627   1.015   7.483
12050SOL     OW48028   1.068   2.627  17.954
12050SOL    HW148029   1.065   2.698  17.890
12050SOL    HW248030   0.983   2.629  17.997
12051SOL     OW48031   0.110   3.337  20.778
12051SOL    HW148032   0.033   3.330  20.834
12051SOL    HW248033   0.096   3.272  20.709
12052SOL     OW48034   3.649   3.619  15.483
12052SOL    HW148035   3.711   3.641  15.554
12052SOL    HW248036   3.598   3.546  15.518
12053SOL     OW48037   4.742   2.243  15.381
12053SOL    HW148038   0.001   2.174  15.342
12053SOL    HW248039   4.665   2.199  15.416
12054SOL     OW48040   3.491   4.029  15.089
12054SOL    HW148041   3.585   4.010  15.080
12054SOL    HW248042   3.465   4.058  15.002
12055SOL     OW48043   1.761   3.060  19.069
12055SOL    HW148044   1.689   3.120  19.050
12055SOL    HW248045   1.721   2.992  19.124
12056SOL     OW48046   1.030   2.554  18.275
12056SOL    HW148047   1.052   2.474  18.322
12056SOL    HW248048   0.957   2.528  18.218
12057SOL     OW48049   2.306   2.366   0.441
12057SOL    HW148050   2.284   2.298   0.506
12057SOL    HW248051   2.401   2.359   0.432
12058SOL     OW48052   3.043   0.348   3.498
12058SOL    HW148053   3.128   0.392   3.499
12058SOL    HW248054   3.023   0.337   3.405
12059SOL     OW48055   3.296   2.460   7.160
12059SOL    HW148056   3.389   2.442   7.148
12059SOL    HW248057   3.253   2.375   7.154
12060SOL     OW48058   4.601   0.551  18.475
12060SOL    HW148059   4.541   0.495  18.427
12060SOL    HW248060   4.569   0.549  18.565
12061SOL     OW48061   0.575   1.339  20.075
12061SOL    HW148062   0.510   1.322  20.007
12061SOL    HW248063   0.633   1.405  20.037
12062SOL     OW48064   1.281   2.826   1.389
12062SOL    HW148065   1.279   2.771   1.467
12062SOL    HW248066   1.365   2.805   1.347
12063SOL     OW48067   1.150   4.398  11.523
12063SOL    HW148068   1.227   4.349  11.494
12063SOL    HW248069   1.185   4.460  11.588
12064SOL     OW48070   3.161   2.519  15.178
12064SOL    HW148071   3.202   2.541  15.262
12064SOL    HW248072   3.127   2.430  15.190
12065SOL     OW48073   4.698   2.423  15.977
12065SOL    HW148074   4.651   2.467  16.048
12065SOL    HW248075   4.648   2.343  15.961
12066SOL     OW48076   0.137   4.640   4.827
12066SOL    HW148077   0.232   4.654   4.821
12066SOL    HW248078   0.100   4.728   4.825
12067SOL     OW48079   3.660   4.761   3.685
12067SOL    HW148080   3.749   0.002   3.691
12067SOL    HW248081   3.612   0.032   3.634
12068SOL     OW48082   4.494   1.071   3.947
12068SOL    HW148083   4.538   1.062   4.031
12068SOL    HW248084   4.536   1.148   3.907
12069SOL     OW48085   4.506   3.288   4.750
12069SOL    HW148086   4.596   3.257   4.764
12069SOL    HW248087   4.516   3.368   4.698
12070SOL     OW48088   0.561   1.490   2.303
12070SOL    HW148089   0.531   1.574   2.338
12070SOL    HW248090   0.654   1.504   2.284
12071SOL     OW48091   0.458   1.017  18.970
12071SOL    HW148092   0.452   0.996  18.877
12071SOL    HW248093   0.367   1.021  19.000
12072SOL     OW48094   4.532   4.121  17.265
12072SOL    HW148095   4.500   4.061  17.332
12072SOL    HW248096   4.549   4.203  17.311
12073SOL     OW48097   2.572   2.944  16.714
12073SOL    HW148098   2.500   3.003  16.736
12073SOL    HW248099   2.592   2.899  16.796
12074SOL     OW48100   2.165   4.554  18.243
12074SOL    HW148101   2.223   4.509  18.182
12074SOL    HW248102   2.079   4.553  18.200
12075SOL     OW48103   3.579   2.539   5.267
12075SOL    HW148104   3.609   2.529   5.177
12075SOL    HW248105   3.497   2.588   5.260
12076SOL     OW48106   1.301   3.418   5.066
12076SOL    HW148107   1.232   3.472   5.106
12076SOL    HW248108   1.377   3.431   5.122
12077SOL     OW48109   4.057   0.458   5.689
12077SOL    HW148110   4.024   0.456   5.599
12077SOL    HW248111   4.112   0.536   5.693
12078SOL     OW48112   0.093   4.767  20.279
12078SOL    HW148113   0.053   0.031  20.214
12078SOL    HW248114   0.032   4.694  20.287
12079SOL     OW48115   0.817   3.481  19.235
12079SOL    HW148116   0.890   3.542  19.222
12079SOL    HW248117   0.821   3.422  19.160
12080SOL     OW48118   3.804   3.809   0.173
12080SOL    HW148119   3.714   3.840   0.165
12080SOL    HW248120   3.857   3.888   0.166
12081SOL     OW48121   3.141   3.548   4.931
12081SOL    HW148122   3.111   3.553   5.021
12081SOL    HW248123   3.163   3.638   4.907
12082SOL     OW48124   0.235   2.241  17.530
12082SOL    HW148125   0.206   2.229  17.439
12082SOL    HW248126   0.217   2.157  17.572
12083SOL     OW48127   3.321   3.641  18.786
12083SOL    HW148128   3.363   3.588  18.719
12083SOL    HW248129   3.258   3.695  18.738
12084SOL     OW48130   0.211   3.276  15.217
12084SOL    HW148131   0.133   3.225  15.198
12084SOL    HW248132   0.265   3.219  15.271
12085SOL     OW48133   4.634   0.130  16.385
12085SOL    HW148134   4.701   0.092  16.327
12085SOL    HW248135   4.595   0.055  16.429
12086SOL     OW48136   2.118   1.783  17.906
12086SOL    HW148137   2.083   1.839  17.837
12086SOL    HW248138   2.151   1.706  17.860
12087CA      CA48139   0.813   0.259   2.374
12088CL      CL48140   2.241   0.678   1.763
12089CL      CL48141   0.807   1.913   0.168
   4.79402   4.79402  21.27645
