Membrane in water t=   0.00000 step= 0
48143
  945MPD0     C    1   1.353   2.770   7.552
  945MPD0    C1    2   1.424   2.671   7.485
  945MPD0    C2    3   1.527   2.617   7.558
  945MPD0    C3    4   1.562   2.645   7.685
  945MPD0    C4    5   1.468   2.716   7.758
  945MPD0    C5    6   1.371   2.787   7.687
  945MPD0     H    7   1.591   2.540   7.516
  945MPD0    H1    8   1.472   2.729   7.866
  945MPD0    H2    9   1.280   2.831   7.500
  945MPD0    H3   10   1.313   2.866   7.735
  945MPD0     N   11   1.647   2.563   7.750
  945MPD0    H4   12   1.671   2.602   7.841
  945MPD0    H5   13   1.727   2.549   7.688
  945MPD0    N1   14   1.405   2.645   7.350
  945MPD0    H6   15   1.309   2.660   7.319
  945MPD0    H7   16   1.429   2.547   7.333
  946MPD0     C   17   2.695   0.233  11.711
  946MPD0    C1   18   2.662   0.099  11.700
  946MPD0    C2   19   2.737   0.009  11.768
  946MPD0    C3   20   2.849   0.046  11.845
  946MPD0    C4   21   2.885   0.175  11.846
  946MPD0    C5   22   2.811   0.263  11.776
  946MPD0     H   23   2.702   4.696  11.766
  946MPD0    H1   24   2.974   0.221  11.887
  946MPD0    H2   25   2.639   0.317  11.672
  946MPD0    H3   26   2.838   0.368  11.782
  946MPD0     N   27   2.917   4.732  11.906
  946MPD0    H4   28   2.970   4.760  11.988
  946MPD0    H5   29   2.857   4.651  11.920
  946MPD0    N1   30   2.547   0.060  11.624
  946MPD0    H6   31   2.537   0.124  11.546
  946MPD0    H7   32   2.537   4.749  11.614
  947MPD0     C   33   4.698   3.911  13.356
  947MPD0    C1   34   4.662   3.983  13.468
  947MPD0    C2   35   4.529   3.989  13.502
  947MPD0    C3   36   4.434   3.945  13.418
  947MPD0    C4   37   4.465   3.862  13.311
  947MPD0    C5   38   4.599   3.851  13.281
  947MPD0     H   39   4.499   4.043  13.591
  947MPD0    H1   40   4.395   3.798  13.257
  947MPD0    H2   41   0.016   3.909  13.342
  947MPD0    H3   42   4.623   3.790  13.194
  947MPD0     N   43   4.302   3.951  13.466
  947MPD0    H4   44   4.284   4.034  13.522
  947MPD0    H5   45   4.238   3.935  13.389
  947MPD0    N1   46   4.761   4.037  13.555
  947MPD0    H6   47   0.058   4.040  13.502
  947MPD0    H7   48   4.725   4.126  13.588
  948MPD0     C   49   0.880   2.131   6.439
  948MPD0    C1   50   0.989   2.089   6.369
  948MPD0    C2   51   1.110   2.134   6.413
  948MPD0    C3   52   1.127   2.207   6.537
  948MPD0    C4   53   1.017   2.242   6.611
  948MPD0    C5   54   0.901   2.199   6.558
  948MPD0     H   55   1.199   2.134   6.351
  948MPD0    H1   56   1.014   2.312   6.694
  948MPD0    H2   57   0.778   2.097   6.424
  948MPD0    H3   58   0.811   2.232   6.609
  948MPD0     N   59   1.252   2.265   6.572
  948MPD0    H4   60   1.264   2.287   6.671
  948MPD0    H5   61   1.331   2.207   6.545
  948MPD0    N1   62   0.975   2.008   6.252
  948MPD0    H6   63   0.894   1.946   6.256
  948MPD0    H7   64   1.061   1.955   6.238
  949MPD0     C   65   1.456   3.425   7.406
  949MPD0    C1   66   1.446   3.558   7.416
  949MPD0    C2   67   1.410   3.613   7.536
  949MPD0    C3   68   1.380   3.529   7.648
  949MPD0    C4   69   1.388   3.394   7.631
  949MPD0    C5   70   1.425   3.344   7.511
  949MPD0     H   71   1.408   3.720   7.553
  949MPD0    H1   72   1.363   3.332   7.716
  949MPD0    H2   73   1.479   3.380   7.310
  949MPD0    H3   74   1.431   3.237   7.494
  949MPD0     N   75   1.342   3.587   7.773
  949MPD0    H4   76   1.283   3.533   7.836
  949MPD0    H5   77   1.299   3.678   7.762
  949MPD0    N1   78   1.449   3.629   7.301
  949MPD0    H6   79   1.498   3.578   7.228
  949MPD0    H7   80   1.489   3.723   7.306
  950MPD0     C   81   0.774   2.784  12.777
  950MPD0    C1   82   0.722   2.844  12.888
  950MPD0    C2   83   0.616   2.927  12.868
  950MPD0    C3   84   0.579   2.964  12.744
  950MPD0    C4   85   0.621   2.895  12.635
  950MPD0    C5   86   0.724   2.803  12.652
  950MPD0     H   87   0.577   2.979  12.955
  950MPD0    H1   88   0.589   2.919  12.534
  950MPD0    H2   89   0.844   2.701  12.784
  950MPD0    H3   90   0.771   2.752  12.569
  950MPD0     N   91   0.468   3.050  12.732
  950MPD0    H4   92   0.469   3.114  12.811
  950MPD0    H5   93   0.458   3.103  12.646
  950MPD0    N1   94   0.766   2.818  13.020
  950MPD0    H6   95   0.865   2.795  13.027
  950MPD0    H7   96   0.734   2.888  13.086
  951MPD0     C   97   2.852   1.740  12.667
  951MPD0    C1   98   2.829   1.647  12.764
  951MPD0    C2   99   2.771   1.686  12.882
  951MPD0    C3  100   2.723   1.816  12.896
  951MPD0    C4  101   2.731   1.899  12.790
  951MPD0    C5  102   2.795   1.863  12.675
  951MPD0     H  103   2.751   1.607  12.954
  951MPD0    H1  104   2.690   1.999  12.792
  951MPD0    H2  105   2.906   1.717  12.576
  951MPD0    H3  106   2.793   1.927  12.588
  951MPD0     N  107   2.621   1.845  13.000
  951MPD0    H4  108   2.599   1.944  13.008
  951MPD0    H5  109   2.649   1.812  13.092
  951MPD0    N1  110   2.889   1.522  12.752
  951MPD0    H6  111   2.894   1.490  12.656
  951MPD0    H7  112   2.845   1.449  12.807
  952MPD0     C  113   3.706   4.748   1.809
  952MPD0    C1  114   3.729   4.614   1.802
  952MPD0    C2  115   3.853   4.565   1.836
  952MPD0    C3  116   3.941   4.647   1.907
  952MPD0    C4  117   3.911   4.782   1.907
  952MPD0    C5  118   3.798   0.042   1.856
  952MPD0     H  119   3.879   4.460   1.837
  952MPD0    H1  120   3.982   0.068   1.938
  952MPD0    H2  121   3.623   0.000   1.754
  952MPD0    H3  122   3.771   0.146   1.844
  952MPD0     N  123   4.071   4.609   1.944
  952MPD0    H4  124   4.067   4.509   1.961
  952MPD0    H5  125   4.098   4.660   2.028
  952MPD0    N1  126   3.641   4.536   1.730
  952MPD0    H6  127   3.648   4.438   1.756
  952MPD0    H7  128   3.547   4.575   1.729
  953MPD0     C  129   1.128   3.528  11.849
  953MPD0    C1  130   1.007   3.491  11.906
  953MPD0    C2  131   1.008   3.402  12.014
  953MPD0    C3  132   1.130   3.350  12.051
  953MPD0    C4  133   1.253   3.393  11.994
  953MPD0    C5  134   1.246   3.474  11.890
  953MPD0     H  135   0.910   3.387  12.058
  953MPD0    H1  136   1.350   3.361  12.030
  953MPD0    H2  137   1.123   3.598  11.767
  953MPD0    H3  138   1.336   3.523  11.855
  953MPD0     N  139   1.128   3.283  12.170
  953MPD0    H4  140   1.213   3.229  12.184
  953MPD0    H5  141   1.060   3.207  12.170
  953MPD0    N1  142   0.896   3.563  11.867
  953MPD0    H6  143   0.812   3.506  11.877
  953MPD0    H7  144   0.907   3.601  11.773
  954MPD0     C  145   0.240   0.703  13.795
  954MPD0    C1  146   0.148   0.603  13.769
  954MPD0    C2  147   0.094   0.542  13.879
  954MPD0    C3  148   0.113   0.578  14.008
  954MPD0    C4  149   0.197   0.684  14.027
  954MPD0    C5  150   0.259   0.742  13.921
  954MPD0     H  151   0.019   0.464  13.874
  954MPD0    H1  152   0.200   0.720  14.129
  954MPD0    H2  153   0.291   0.755  13.715
  954MPD0    H3  154   0.334   0.819  13.937
  954MPD0     N  155   0.014   0.540  14.105
  954MPD0    H4  156   4.786   0.440  14.097
  954MPD0    H5  157   0.043   0.551  14.202
  954MPD0    N1  158   0.114   0.562  13.639
  954MPD0    H6  159   0.076   0.643  13.591
  954MPD0    H7  160   0.033   0.500  13.636
  955MPD0     C  161   2.842   2.272   7.741
  955MPD0    C1  162   2.948   2.241   7.818
  955MPD0    C2  163   2.934   2.267   7.959
  955MPD0    C3  164   2.813   2.300   8.012
  955MPD0    C4  165   2.702   2.325   7.928
  955MPD0    C5  166   2.721   2.307   7.792
  955MPD0     H  167   3.021   2.257   8.024
  955MPD0    H1  168   2.602   2.348   7.964
  955MPD0    H2  169   2.841   2.264   7.633
  955MPD0    H3  170   2.633   2.336   7.736
  955MPD0     N  171   2.801   2.310   8.152
  955MPD0    H4  172   2.869   2.267   8.214
  955MPD0    H5  173   2.712   2.267   8.176
  955MPD0    N1  174   3.066   2.208   7.752
  955MPD0    H6  175   3.061   2.138   7.678
  955MPD0    H7  176   3.126   2.167   7.824
  956MPD0     C  177   0.458   3.114   7.081
  956MPD0    C1  178   0.484   3.243   7.033
  956MPD0    C2  179   0.440   3.342   7.112
  956MPD0    C3  180   0.410   3.331   7.247
  956MPD0    C4  181   0.387   3.203   7.294
  956MPD0    C5  182   0.414   3.098   7.207
  956MPD0     H  183   0.433   3.442   7.072
  956MPD0    H1  184   0.362   3.179   7.397
  956MPD0    H2  185   0.483   3.020   7.033
  956MPD0    H3  186   0.391   2.995   7.233
  956MPD0     N  187   0.350   3.443   7.310
  956MPD0    H4  188   0.366   3.444   7.411
  956MPD0    H5  189   0.379   3.538   7.286
  956MPD0    N1  190   0.510   3.260   6.898
  956MPD0    H6  191   0.541   3.353   6.869
  956MPD0    H7  192   0.569   3.183   6.867
  957MPD0     C  193   3.181   4.146  11.537
  957MPD0    C1  194   3.262   4.138  11.650
  957MPD0    C2  195   3.204   4.059  11.753
  957MPD0    C3  196   3.068   4.029  11.756
  957MPD0    C4  197   2.994   4.046  11.638
  957MPD0    C5  198   3.056   4.097  11.533
  957MPD0     H  199   3.264   4.030  11.838
  957MPD0    H1  200   2.888   4.026  11.636
  957MPD0    H2  201   3.221   4.196  11.450
  957MPD0    H3  202   2.998   4.108  11.442
  957MPD0     N  203   3.015   3.946  11.863
  957MPD0    H4  204   3.053   3.969  11.954
  957MPD0    H5  205   2.915   3.962  11.866
  957MPD0    N1  206   3.397   4.168  11.641
  957MPD0    H6  207   3.424   4.232  11.566
  957MPD0    H7  208   3.441   4.179  11.732
    1TMC1    C1  209   4.741   3.785   8.374
    1TMC1    C2  210   0.038   3.852   8.461
    1TMC1    C3  211   0.033   3.993   8.459
    1TMC1    C4  212   4.669   3.858   8.280
    1TMC1    C5  213   4.683   3.994   8.272
    1TMC1    C6  214   4.754   4.065   8.363
    1TMC1     C  215   4.753   3.646   8.349
    1TMC1     O  216   4.698   3.598   8.255
    1TMC1     H  217   0.113   3.800   8.520
    1TMC1    H1  218   4.602   3.806   8.213
    1TMC1    H2  219   4.748   4.173   8.354
    1TMC1    C7  220   4.562   4.072   8.240
    1TMC1    C8  221   0.084   4.068   8.574
    1TMC1    O1  222   4.523   4.158   8.321
    1TMC1    O2  223   0.080   4.191   8.578
    1TMC1    O3  224   4.566   4.107   8.111
    1TMC1    H3  225   4.612   4.037   8.060
    1TMC1    O5  226   0.120   3.984   8.678
    1TMC1    H5  227   0.079   3.895   8.675
    2TMC1    C1  228   3.678   3.999   7.870
    2TMC1    C2  229   3.709   4.062   7.751
    2TMC1    C3  230   3.731   3.989   7.640
    2TMC1    C4  231   3.651   3.866   7.868
    2TMC1    C5  232   3.656   3.802   7.748
    2TMC1    C6  233   3.706   3.857   7.640
    2TMC1     C  234   3.732   4.049   7.993
    2TMC1     O  235   3.777   3.962   8.069
    2TMC1     H  236   3.741   4.165   7.759
    2TMC1    H1  237   3.628   3.808   7.957
    2TMC1    H2  238   3.726   3.789   7.558
    2TMC1    C7  239   3.631   3.655   7.748
    2TMC1    C8  240   3.762   4.062   7.518
    2TMC1    O1  241   3.710   3.566   7.717
    2TMC1    O2  242   3.683   4.155   7.501
    2TMC1    O3  243   3.501   3.642   7.732
    2TMC1    H3  244   3.458   3.721   7.772
    2TMC1    O5  245   3.786   3.972   7.420
    2TMC1    H5  246   3.843   3.899   7.452
    3TMC1    C1  247   0.160   0.911   9.331
    3TMC1    C2  248   0.087   0.977   9.417
    3TMC1    C3  249   0.149   1.021   9.528
    3TMC1    C4  250   0.299   0.888   9.341
    3TMC1    C5  251   0.354   0.937   9.449
    3TMC1    C6  252   0.284   1.013   9.546
    3TMC1     C  253   0.100   0.885   9.198
    3TMC1     O  254   0.175   0.900   9.103
    3TMC1     H  255   4.777   1.018   9.403
    3TMC1    H1  256   0.348   0.831   9.263
    3TMC1    H2  257   0.336   1.061   9.628
    3TMC1    C7  258   0.492   0.966   9.461
    3TMC1    C8  259   0.077   1.126   9.606
    3TMC1    O1  260   0.555   0.973   9.564
    3TMC1    O2  261   0.126   1.215   9.674
    3TMC1    O3  262   0.538   0.961   9.332
    3TMC1    H3  263   0.468   0.970   9.263
    3TMC1    O5  264   4.764   1.046   9.657
    3TMC1    H5  265   4.735   0.964   9.612
    4TMC1    C1  266   2.051   0.154  10.106
    4TMC1    C2  267   2.040   0.156   9.968
    4TMC1    C3  268   1.966   0.057   9.907
    4TMC1    C4  269   1.974   0.066  10.180
    4TMC1    C5  270   1.898   4.764  10.114
    4TMC1    C6  271   1.904   4.748   9.977
    4TMC1     C  272   2.154   0.243  10.161
    4TMC1     O  273   2.220   0.300  10.077
    4TMC1     H  274   2.075   0.240   9.909
    4TMC1    H1  275   1.980   0.076  10.288
    4TMC1    H2  276   1.846   4.668   9.932
    4TMC1    C7  277   1.829   4.661  10.188
    4TMC1    C8  278   1.962   0.079   9.761
    4TMC1    O1  279   1.811   4.546  10.148
    4TMC1    O2  280   1.970   0.186   9.706
    4TMC1    O3  281   1.745   4.724  10.272
    4TMC1    H3  282   1.748   0.032  10.265
    4TMC1    O5  283   1.972   4.750   9.704
    4TMC1    H5  284   1.984   4.667   9.755
    5TMC1    C1  285   0.477   4.267   8.092
    5TMC1    C2  286   0.518   4.346   7.993
    5TMC1    C3  287   0.453   4.364   7.868
    5TMC1    C4  288   0.360   4.198   8.077
    5TMC1    C5  289   0.288   4.225   7.960
    5TMC1    C6  290   0.333   4.309   7.857
    5TMC1     C  291   0.517   4.305   8.226
    5TMC1     O  292   0.549   4.422   8.236
    5TMC1     H  293   0.615   4.388   8.016
    5TMC1    H1  294   0.312   4.156   8.165
    5TMC1    H2  295   0.281   4.315   7.762
    5TMC1    C7  296   0.153   4.254   7.978
    5TMC1    C8  297   0.487   4.480   7.784
    5TMC1    O1  298   0.093   4.357   7.947
    5TMC1    O2  299   0.404   4.543   7.722
    5TMC1    O3  300   0.090   4.163   8.058
    5TMC1    H3  301   0.136   4.082   8.090
    5TMC1    O5  302   0.604   4.536   7.827
    5TMC1    H5  303   0.676   4.482   7.866
    6TMC1    C1  304   0.810   3.629  10.959
    6TMC1    C2  305   0.858   3.704  11.057
    6TMC1    C3  306   0.990   3.741  11.040
    6TMC1    C4  307   0.882   3.599  10.846
    6TMC1    C5  308   1.002   3.654  10.817
    6TMC1    C6  309   1.059   3.725  10.925
    6TMC1     C  310   0.667   3.605  10.962
    6TMC1     O  311   0.593   3.677  11.028
    6TMC1     H  312   0.798   3.745  11.137
    6TMC1    H1  313   0.828   3.556  10.762
    6TMC1    H2  314   1.155   3.774  10.916
    6TMC1    C7  315   1.071   3.602  10.701
    6TMC1    C8  316   1.053   3.813  11.139
    6TMC1    O1  317   1.026   3.529  10.609
    6TMC1    O2  318   1.141   3.895  11.116
    6TMC1    O3  319   1.205   3.638  10.710
    6TMC1    H3  320   1.222   3.723  10.756
    6TMC1    O5  321   1.003   3.773  11.260
    6TMC1    H5  322   0.923   3.717  11.247
    7TMC1    C1  323   0.250   3.921   7.622
    7TMC1    C2  324   0.329   3.888   7.727
    7TMC1    C3  325   0.451   3.835   7.698
    7TMC1    C4  326   0.299   3.914   7.494
    7TMC1    C5  327   0.418   3.872   7.475
    7TMC1    C6  328   0.496   3.812   7.574
    7TMC1     C  329   0.115   3.982   7.652
    7TMC1     O  330   0.068   3.959   7.758
    7TMC1     H  331   0.294   3.907   7.828
    7TMC1    H1  332   0.236   3.941   7.410
    7TMC1    H2  333   0.589   3.762   7.548
    7TMC1    C7  334   0.471   3.864   7.341
    7TMC1    C8  335   0.538   3.864   7.806
    7TMC1    O1  336   0.594   3.857   7.326
    7TMC1    O2  337   0.532   3.965   7.876
    7TMC1    O3  338   0.382   3.779   7.293
    7TMC1    H3  339   0.290   3.803   7.317
    7TMC1    O5  340   0.655   3.792   7.785
    7TMC1    H5  341   0.636   3.709   7.736
    8TMC1    C1  342   1.454   2.038  15.258
    8TMC1    C2  343   1.572   2.035  15.330
    8TMC1    C3  344   1.592   2.116  15.441
    8TMC1    C4  345   1.356   2.125  15.291
    8TMC1    C5  346   1.378   2.199  15.397
    8TMC1    C6  347   1.488   2.194  15.479
    8TMC1     C  348   1.461   1.965  15.132
    8TMC1     O  349   1.573   1.943  15.087
    8TMC1     H  350   1.645   1.962  15.299
    8TMC1    H1  351   1.256   2.125  15.250
    8TMC1    H2  352   1.496   2.239  15.577
    8TMC1    C7  353   1.259   2.246  15.452
    8TMC1    C8  354   1.700   2.076  15.534
    8TMC1    O1  355   1.147   2.205  15.427
    8TMC1    O2  356   1.678   2.077  15.653
    8TMC1    O3  357   1.285   2.368  15.503
    8TMC1    H3  358   1.381   2.388  15.509
    8TMC1    O5  359   1.822   2.067  15.468
    8TMC1    H5  360   1.824   2.069  15.370
    9TMC1    C1  361   0.427   3.104   8.001
    9TMC1    C2  362   0.293   3.090   7.976
    9TMC1    C3  363   0.246   2.961   7.972
    9TMC1    C4  364   0.517   3.005   8.044
    9TMC1    C5  365   0.457   2.882   8.036
    9TMC1    C6  366   0.323   2.852   7.999
    9TMC1     C  367   0.456   3.240   8.054
    9TMC1     O  368   0.359   3.315   8.066
    9TMC1     H  369   0.232   3.176   7.950
    9TMC1    H1  370   0.622   3.005   8.070
    9TMC1    H2  371   0.291   2.749   7.999
    9TMC1    C7  372   0.543   2.772   8.069
    9TMC1    C8  373   0.119   2.936   7.912
    9TMC1    O1  374   0.656   2.757   8.031
    9TMC1    O2  375   0.032   3.023   7.905
    9TMC1    O3  376   0.479   2.696   8.159
    9TMC1    H3  377   0.400   2.739   8.197
    9TMC1    O5  378   0.126   2.830   7.824
    9TMC1    H5  379   0.181   2.753   7.850
   10TMC2    C1  380   1.767   3.450  11.215
   10TMC2    C2  381   1.821   3.498  11.099
   10TMC2    C3  382   1.768   3.439  10.991
   10TMC2    C4  383   1.680   3.351  11.227
   10TMC2    C5  384   1.642   3.293  11.114
   10TMC2    C6  385   1.681   3.332  10.994
   10TMC2     C  386   1.825   3.500  11.342
   10TMC2     O  387   1.859   3.618  11.358
   10TMC2     H  388   1.893   3.579  11.109
   10TMC2    H1  389   1.638   3.315  11.320
   10TMC2    H2  390   1.639   3.288  10.905
   10TMC2    C7  391   1.544   3.192  11.114
   10TMC2    C8  392   1.810   3.479  10.862
   10TMC2    O1  393   1.557   3.118  11.017
   10TMC2    O2  394   1.728   3.494  10.775
   10TMC2    O5  395   1.944   3.454  10.857
   10TMC2    H5  396   1.988   3.427  10.941
   11TMC2    C1  397   3.820   3.356  10.664
   11TMC2    C2  398   3.930   3.278  10.651
   11TMC2    C3  399   3.980   3.221  10.767
   11TMC2    C4  400   3.760   3.376  10.783
   11TMC2    C5  401   3.815   3.326  10.901
   11TMC2    C6  402   3.930   3.246  10.894
   11TMC2     C  403   3.773   3.416  10.544
   11TMC2     O  404   3.763   3.352  10.442
   11TMC2     H  405   3.969   3.260  10.552
   11TMC2    H1  406   3.667   3.431  10.782
   11TMC2    H2  407   3.966   3.210  10.990
   11TMC2    C7  408   3.791   3.402  11.024
   11TMC2    C8  409   4.096   3.128  10.755
   11TMC2    O1  410   3.832   3.358  11.133
   11TMC2    O2  411   4.147   3.059  10.841
   11TMC2    O5  412   4.090   3.081  10.625
   11TMC2    H5  413   4.011   3.106  10.572
   12TMC2    C1  414   4.725   4.765  10.680
   12TMC2    C2  415   4.744   0.051  10.566
   12TMC2    C3  416   4.639   0.049  10.484
   12TMC2    C4  417   4.606   4.689  10.712
   12TMC2    C5  418   4.515   4.688  10.609
   12TMC2    C6  419   4.531   4.752  10.492
   12TMC2     C  420   0.021   4.787  10.793
   12TMC2     O  421   4.761   4.771  10.903
   12TMC2     H  422   0.035   0.121  10.550
   12TMC2    H1  423   4.597   4.618  10.793
   12TMC2    H2  424   4.467   4.736  10.406
   12TMC2    C7  425   4.406   4.589  10.617
   12TMC2    C8  426   4.654   0.139  10.370
   12TMC2    O1  427   4.422   4.495  10.699
   12TMC2    O2  428   4.760   0.177  10.326
   12TMC2    O5  429   4.529   0.168  10.326
   12TMC2    H5  430   4.448   0.144  10.376
   13TMC2    C1  431   4.400   2.436   8.908
   13TMC2    C2  432   4.452   2.332   8.978
   13TMC2    C3  433   4.483   2.355   9.110
   13TMC2    C4  434   4.363   2.549   8.970
   13TMC2    C5  435   4.396   2.580   9.096
   13TMC2    C6  436   4.465   2.480   9.171
   13TMC2     C  437   4.360   2.424   8.768
   13TMC2     O  438   4.384   2.514   8.687
   13TMC2     H  439   4.472   2.233   8.938
   13TMC2    H1  440   4.311   2.622   8.909
   13TMC2    H2  441   4.491   2.506   9.273
   13TMC2    C7  442   4.294   2.644   9.185
   13TMC2    C8  443   4.551   2.245   9.169
   13TMC2    O1  444   4.304   2.619   9.306
   13TMC2    O2  445   4.585   2.144   9.103
   13TMC2    O5  446   4.605   2.284   9.287
   13TMC2    H5  447   4.552   2.361   9.317
   14TMC2    C1  448   2.649   0.091   9.094
   14TMC2    C2  449   2.769   0.119   9.153
   14TMC2    C3  450   2.867   0.181   9.079
   14TMC2    C4  451   2.631   0.100   8.958
   14TMC2    C5  452   2.738   0.157   8.885
   14TMC2    C6  453   2.860   0.187   8.939
   14TMC2     C  454   2.534   0.035   9.163
   14TMC2     O  455   2.425   0.036   9.104
   14TMC2     H  456   2.787   0.106   9.259
   14TMC2    H1  457   2.539   0.066   8.912
   14TMC2    H2  458   2.946   0.203   8.875
   14TMC2    C7  459   2.732   0.138   8.737
   14TMC2    C8  460   2.994   0.190   9.144
   14TMC2    O1  461   2.653   0.218   8.689
   14TMC2    O2  462   3.016   0.119   9.238
   14TMC2    O5  463   3.069   0.273   9.074
   14TMC2    H5  464   3.019   0.348   9.034
   15TMC2    C1  465   2.179   2.153  10.732
   15TMC2    C2  466   2.100   2.157  10.843
   15TMC2    C3  467   2.139   2.249  10.939
   15TMC2    C4  468   2.285   2.246  10.719
   15TMC2    C5  469   2.322   2.326  10.818
   15TMC2    C6  470   2.247   2.338  10.929
   15TMC2     C  471   2.165   2.030  10.650
   15TMC2     O  472   2.090   1.940  10.694
   15TMC2     H  473   2.022   2.084  10.858
   15TMC2    H1  474   2.360   2.249  10.641
   15TMC2    H2  475   2.263   2.411  11.007
   15TMC2    C7  476   2.423   2.433  10.794
   15TMC2    C8  477   2.105   2.202  11.065
   15TMC2    O1  478   2.446   2.456  10.674
   15TMC2    O2  479   2.000   2.142  11.078
   15TMC2    O5  480   2.224   2.180  11.129
   15TMC2    H5  481   2.299   2.232  11.093
   16TMC2    C1  482   0.094   0.512  11.618
   16TMC2    C2  483   4.752   0.538  11.631
   16TMC2    C3  484   4.712   0.544  11.763
   16TMC2    C4  485   0.177   0.483  11.718
   16TMC2    C5  486   0.127   0.498  11.846
   16TMC2    C6  487   4.787   0.537  11.869
   16TMC2     C  488   0.144   0.550  11.490
   16TMC2     O  489   0.066   0.599  11.406
   16TMC2     H  490   4.682   0.548  11.549
   16TMC2    H1  491   0.284   0.486  11.699
   16TMC2    H2  492   4.737   0.535  11.965
   16TMC2    C7  493   0.205   0.478  11.968
   16TMC2    C8  494   4.578   0.589  11.789
   16TMC2    O1  495   0.278   0.378  11.974
   16TMC2    O2  496   4.501   0.550  11.878
   16TMC2    O5  497   4.549   0.695  11.710
   16TMC2    H5  498   4.628   0.736  11.670
   17TMC2    C1  499   0.054   3.569   7.538
   17TMC2    C2  500   4.743   3.594   7.630
   17TMC2    C3  501   4.652   3.693   7.594
   17TMC2    C4  502   0.048   3.634   7.416
   17TMC2    C5  503   4.743   3.733   7.391
   17TMC2    C6  504   4.642   3.761   7.474
   17TMC2     C  505   0.176   3.522   7.578
   17TMC2     O  506   0.276   3.587   7.552
   17TMC2     H  507   4.728   3.524   7.712
   17TMC2    H1  508   0.120   3.604   7.341
   17TMC2    H2  509   4.565   3.831   7.445
   17TMC2    C7  510   4.787   3.831   7.289
   17TMC2    C8  511   4.562   3.717   7.705
   17TMC2    O1  512   0.114   3.817   7.257
   17TMC2    O2  513   4.593   3.686   7.819
   17TMC2    O5  514   4.448   3.782   7.675
   17TMC2    H5  515   4.425   3.783   7.580
   18TMC2    C1  516   1.167   4.751   8.350
   18TMC2    C2  517   1.088   4.738   8.238
   18TMC2    C3  518   1.036   4.618   8.209
   18TMC2    C4  519   1.179   4.653   8.439
   18TMC2    C5  520   1.113   4.535   8.409
   18TMC2    C6  521   1.041   4.516   8.297
   18TMC2     C  522   1.289   0.024   8.302
   18TMC2     O  523   1.276   0.118   8.228
   18TMC2     H  524   1.087   0.036   8.174
   18TMC2    H1  525   1.242   4.667   8.526
   18TMC2    H2  526   0.996   4.418   8.282
   18TMC2    C7  527   1.135   4.427   8.512
   18TMC2    C8  528   0.935   4.608   8.111
   18TMC2    O1  529   1.090   4.321   8.474
   18TMC2    O2  530   0.857   4.512   8.116
   18TMC2    O5  531   0.970   4.679   8.000
   18TMC2    H5  532   1.050   4.736   8.001
   19TMC2    C1  533   4.240   4.610   8.765
   19TMC2    C2  534   4.156   4.699   8.724
   19TMC2    C3  535   4.191   0.003   8.633
   19TMC2    C4  536   4.364   4.593   8.711
   19TMC2    C5  537   4.386   4.673   8.602
   19TMC2    C6  538   4.305   4.780   8.562
   19TMC2     C  539   4.174   4.506   8.842
   19TMC2     O  540   4.073   4.462   8.790
   19TMC2     H  541   4.064   4.692   8.780
   19TMC2    H1  542   4.430   4.514   8.744
   19TMC2    H2  543   4.324   0.052   8.475
   19TMC2    C7  544   4.526   4.702   8.570
   19TMC2    C8  545   4.087   0.101   8.596
   19TMC2    O1  546   4.554   0.031   8.561
   19TMC2    O2  547   4.069   0.145   8.483
   19TMC2    O5  548   4.021   0.140   8.709
   19TMC2    H5  549   4.054   0.110   8.796
   20TMC2    C1  550   1.721   1.635  15.393
   20TMC2    C2  551   1.673   1.618  15.519
   20TMC2    C3  552   1.743   1.655  15.632
   20TMC2    C4  553   1.848   1.680  15.370
   20TMC2    C5  554   1.918   1.710  15.481
   20TMC2    C6  555   1.868   1.711  15.605
   20TMC2     C  556   1.632   1.599  15.280
   20TMC2     O  557   1.524   1.558  15.312
   20TMC2     H  558   1.570   1.585  15.529
   20TMC2    H1  559   1.904   1.649  15.283
   20TMC2    H2  560   1.925   1.764  15.681
   20TMC2    C7  561   2.061   1.698  15.481
   20TMC2    C8  562   1.656   1.704  15.740
   20TMC2    O1  563   2.104   1.652  15.585
   20TMC2    O2  564   1.543   1.749  15.725
   20TMC2    O5  565   1.733   1.719  15.850
   20TMC2    H5  566   1.813   1.664  15.837
   21TMC2    C1  567   1.413   0.376  10.350
   21TMC2    C2  568   1.418   0.431  10.473
   21TMC2    C3  569   1.477   0.552  10.490
   21TMC2    C4  570   1.472   0.437  10.243
   21TMC2    C5  571   1.520   0.563  10.262
   21TMC2    C6  572   1.534   0.621  10.385
   21TMC2     C  573   1.331   0.252  10.323
   21TMC2     O  574   1.363   0.195  10.219
   21TMC2     H  575   1.380   0.378  10.560
   21TMC2    H1  576   1.469   0.383  10.149
   21TMC2    H2  577   1.582   0.717  10.401
   21TMC2    C7  578   1.573   0.635  10.150
   21TMC2    C8  579   1.531   0.567  10.625
   21TMC2    O1  580   1.669   0.700  10.186
   21TMC2    O2  581   1.515   0.474  10.701
   21TMC2    O5  582   1.646   0.632  10.610
   21TMC2    H5  583   1.650   0.721  10.569
   22TMC2    C1  584   2.018   3.118  14.580
   22TMC2    C2  585   1.896   3.186  14.577
   22TMC2    C3  586   1.833   3.213  14.696
   22TMC2    C4  587   2.068   3.062  14.697
   22TMC2    C5  588   2.007   3.088  14.810
   22TMC2    C6  589   1.891   3.168  14.811
   22TMC2     C  590   2.063   3.047  14.459
   22TMC2     O  591   2.165   2.977  14.479
   22TMC2     H  592   1.861   3.249  14.496
   22TMC2    H1  593   2.168   3.021  14.694
   22TMC2    H2  594   1.829   3.169  14.900
   22TMC2    C7  595   2.017   2.998  14.912
   22TMC2    C8  596   1.725   3.309  14.710
   22TMC2    O1  597   1.976   3.029  15.023
   22TMC2    O2  598   1.720   3.398  14.797
   22TMC2    O5  599   1.632   3.280  14.622
   22TMC2    H5  600   1.666   3.215  14.557
   23TMC2    C1  601   3.855   0.271   6.549
   23TMC2    C2  602   3.957   0.190   6.506
   23TMC2    C3  603   4.073   0.195   6.581
   23TMC2    C4  604   3.864   0.360   6.653
   23TMC2    C5  605   3.980   0.364   6.727
   23TMC2    C6  606   4.085   0.282   6.688
   23TMC2     C  607   3.735   0.261   6.465
   23TMC2     O  608   3.746   0.212   6.355
   23TMC2     H  609   3.938   0.117   6.428
   23TMC2    H1  610   3.779   0.421   6.681
   23TMC2    H2  611   4.178   0.287   6.743
   23TMC2    C7  612   3.983   0.430   6.857
   23TMC2    C8  613   4.160   0.086   6.576
   23TMC2    O1  614   3.887   0.505   6.891
   23TMC2    O2  615   4.218   0.044   6.673
   23TMC2    O5  616   4.201   0.065   6.449
   23TMC2    H5  617   4.162   0.133   6.390
   24TMC2    C1  618   4.624   0.902   6.963
   24TMC2    C2  619   4.634   0.775   7.012
   24TMC2    C3  620   4.531   0.730   7.092
   24TMC2    C4  621   4.507   0.973   6.983
   24TMC2    C5  622   4.404   0.909   7.050
   24TMC2    C6  623   4.416   0.794   7.116
   24TMC2     C  624   4.725   0.972   6.885
   24TMC2     O  625   4.716   1.091   6.880
   24TMC2     H  626   4.732   0.729   7.006
   24TMC2    H1  627   4.482   1.067   6.935
   24TMC2    H2  628   4.333   0.754   7.173
   24TMC2    C7  629   4.291   0.983   7.107
   24TMC2    C8  630   4.563   0.603   7.156
   24TMC2    O1  631   4.183   0.928   7.125
   24TMC2    O2  632   4.663   0.540   7.119
   24TMC2    O5  633   4.504   0.609   7.278
   24TMC2    H5  634   4.442   0.684   7.294
   25TMC2    C1  635   4.337   3.061   7.886
   25TMC2    C2  636   4.270   3.129   7.984
   25TMC2    C3  637   4.234   3.260   7.963
   25TMC2    C4  638   4.377   3.117   7.769
   25TMC2    C5  639   4.329   3.248   7.751
   25TMC2    C6  640   4.268   3.321   7.849
   25TMC2     C  641   4.395   2.927   7.913
   25TMC2     O  642   4.498   2.888   7.855
   25TMC2     H  643   4.245   3.091   8.082
   25TMC2    H1  644   4.417   3.058   7.687
   25TMC2    H2  645   4.238   3.424   7.832
   25TMC2    C7  646   4.354   3.319   7.628
   25TMC2    C8  647   4.147   3.332   8.054
   25TMC2    O1  648   4.294   3.424   7.619
   25TMC2    O2  649   4.082   3.274   8.136
   25TMC2    O5  650   4.191   3.460   8.058
   25TMC2    H5  651   4.267   3.479   7.999
   26TMC2    C1  652   3.831   1.753  14.695
   26TMC2    C2  653   3.790   1.822  14.804
   26TMC2    C3  654   3.739   1.941  14.790
   26TMC2    C4  655   3.813   1.797  14.568
   26TMC2    C5  656   3.749   1.919  14.552
   26TMC2    C6  657   3.701   1.979  14.667
   26TMC2     C  658   3.935   1.655  14.711
   26TMC2     O  659   3.938   1.596  14.818
   26TMC2     H  660   3.804   1.777  14.901
   26TMC2    H1  661   3.842   1.738  14.482
   26TMC2    H2  662   3.645   2.072  14.664
   26TMC2    C7  663   3.671   1.959  14.434
   26TMC2    C8  664   3.680   2.013  14.903
   26TMC2    O1  665   3.564   2.008  14.463
   26TMC2    O2  666   3.602   2.109  14.901
   26TMC2    O5  667   3.771   1.999  15.002
   26TMC2    H5  668   3.848   1.941  14.984
   27TMC2    C1  669   0.452   0.123   8.575
   27TMC2    C2  670   0.527   0.094   8.683
   27TMC2    C3  671   0.540   0.201   8.773
   27TMC2    C4  672   0.378   0.239   8.559
   27TMC2    C5  673   0.382   0.333   8.660
   27TMC2    C6  674   0.467   0.312   8.768
   27TMC2     C  675   0.392   0.002   8.519
   27TMC2     O  676   0.475   4.697   8.528
   27TMC2     H  677   0.583   0.003   8.703
   27TMC2    H1  678   0.348   0.261   8.457
   27TMC2    H2  679   0.474   0.389   8.843
   27TMC2    C7  680   0.325   0.465   8.626
   27TMC2    C8  681   0.596   0.145   8.894
   27TMC2    O1  682   0.314   0.498   8.508
   27TMC2    O2  683   0.586   0.027   8.915
   27TMC2    O5  684   0.705   0.218   8.918
   27TMC2    H5  685   0.684   0.308   8.886
   28TMC2    C1  686   0.855   2.824  13.660
   28TMC2    C2  687   0.860   2.917  13.563
   28TMC2    C3  688   0.789   2.901  13.448
   28TMC2    C4  689   0.779   2.712  13.637
   28TMC2    C5  690   0.709   2.695  13.520
   28TMC2    C6  691   0.708   2.798  13.422
   28TMC2     C  692   0.957   2.824  13.768
   28TMC2     O  693   1.060   2.882  13.733
   28TMC2     H  694   0.912   3.012  13.573
   28TMC2    H1  695   0.795   2.623  13.697
   28TMC2    H2  696   0.655   2.788  13.328
   28TMC2    C7  697   0.606   2.597  13.519
   28TMC2    C8  698   0.777   3.017  13.361
   28TMC2    O1  699   0.565   2.547  13.415
   28TMC2    O2  700   0.739   3.007  13.247
   28TMC2    O5  701   0.729   3.117  13.447
   28TMC2    H5  702   0.748   3.106  13.543
   29TMC2    C1  703   4.665   3.317  10.291
   29TMC2    C2  704   4.695   3.192  10.327
   29TMC2    C3  705   0.040   3.165  10.338
   29TMC2    C4  706   4.761   3.406  10.246
   29TMC2    C5  707   0.103   3.377  10.267
   29TMC2    C6  708   0.141   3.260  10.323
   29TMC2     C  709   4.532   3.365  10.297
   29TMC2     O  710   4.515   3.485  10.320
   29TMC2     H  711   4.619   3.123  10.363
   29TMC2    H1  712   4.721   3.501  10.212
   29TMC2    H2  713   0.246   3.239  10.341
   29TMC2    C7  714   0.209   3.464  10.220
   29TMC2    C8  715   0.073   3.074  10.433
   29TMC2    O1  716   0.178   3.584  10.202
   29TMC2    O2  717   0.102   3.116  10.544
   29TMC2    O5  718   0.007   2.963  10.407
   29TMC2    H5  719   4.766   2.959  10.314
   30TMC2    C1  720   1.994   4.272   9.691
   30TMC2    C2  721   2.002   4.156   9.763
   30TMC2    C3  722   1.911   4.055   9.737
   30TMC2    C4  723   1.898   4.286   9.596
   30TMC2    C5  724   1.813   4.181   9.570
   30TMC2    C6  725   1.815   4.064   9.635
   30TMC2     C  726   2.070   4.390   9.747
   30TMC2     O  727   2.006   4.497   9.775
   30TMC2     H  728   2.074   4.157   9.844
   30TMC2    H1  729   1.886   4.375   9.536
   30TMC2    H2  730   1.760   3.986   9.583
   30TMC2    C7  731   1.763   4.152   9.428
   30TMC2    C8  732   1.927   3.924   9.783
   30TMC2    O1  733   1.688   4.054   9.409
   30TMC2    O2  734   1.899   3.832   9.705
   30TMC2    O5  735   2.036   3.919   9.865
   30TMC2    H5  736   2.042   3.990   9.933
   31TMC2    C1  737   1.395   0.231  10.909
   31TMC2    C2  738   1.364   0.098  10.921
   31TMC2    C3  739   1.414   0.032  11.026
   31TMC2    C4  740   1.490   0.294  10.988
   31TMC2    C5  741   1.541   0.218  11.086
   31TMC2    C6  742   1.501   0.089  11.109
   31TMC2     C  743   1.287   0.308  10.848
   31TMC2     O  744   1.245   0.260  10.746
   31TMC2     H  745   1.288   0.062  10.853
   31TMC2    H1  746   1.506   0.401  10.979
   31TMC2    H2  747   1.550   0.031  11.187
   31TMC2    C7  748   1.591   0.298  11.191
   31TMC2    C8  749   1.353   4.698  11.066
   31TMC2    O1  750   1.547   0.413  11.186
   31TMC2    O2  751   1.376   4.651  11.178
   31TMC2    O5  752   1.265   4.652  10.978
   31TMC2    H5  753   1.223   4.569  11.008
   32TMC2    C1  754   0.998   1.186   7.604
   32TMC2    C2  755   0.959   1.179   7.736
   32TMC2    C3  756   0.833   1.218   7.771
   32TMC2    C4  757   0.899   1.236   7.514
   32TMC2    C5  758   0.779   1.286   7.560
   32TMC2    C6  759   0.744   1.284   7.690
   32TMC2     C  760   1.099   1.110   7.549
   32TMC2     O  761   1.168   1.150   7.453
   32TMC2     H  762   1.027   1.128   7.802
   32TMC2    H1  763   0.918   1.233   7.407
   32TMC2    H2  764   0.643   1.305   7.723
   32TMC2    C7  765   0.670   1.288   7.466
   32TMC2    C8  766   0.800   1.218   7.909
   32TMC2    O1  767   0.602   1.389   7.463
   32TMC2    O2  768   0.692   1.215   7.967
   32TMC2    O5  769   0.911   1.264   7.971
   32TMC2    H5  770   0.980   1.289   7.906
   33TMC2    C1  771   1.541   0.263  11.893
   33TMC2    C2  772   1.432   0.239  11.971
   33TMC2    C3  773   1.382   0.343  12.040
   33TMC2    C4  774   1.589   0.387  11.862
   33TMC2    C5  775   1.521   0.494  11.922
   33TMC2    C6  776   1.422   0.475  12.020
   33TMC2     C  777   1.566   0.151  11.806
   33TMC2     O  778   1.473   0.076  11.793
   33TMC2     H  779   1.399   0.138  11.993
   33TMC2    H1  780   1.653   0.407  11.777
   33TMC2    H2  781   1.354   0.555  12.049
   33TMC2    C7  782   1.581   0.627  11.914
   33TMC2    C8  783   1.282   0.303  12.137
   33TMC2    O1  784   1.515   0.731  11.936
   33TMC2    O2  785   1.202   0.213  12.125
   33TMC2    O5  786   1.282   0.399  12.231
   33TMC2    H5  787   1.358   0.460  12.225
   34TMC2    C1  788   2.170   3.789  10.466
   34TMC2    C2  789   2.094   3.759  10.579
   34TMC2    C3  790   2.166   3.760  10.697
   34TMC2    C4  791   2.304   3.813  10.472
   34TMC2    C5  792   2.361   3.828  10.597
   34TMC2    C6  793   2.295   3.794  10.709
   34TMC2     C  794   2.119   3.714  10.349
   34TMC2     O  795   2.208   3.662  10.286
   34TMC2     H  796   1.987   3.744  10.574
   34TMC2    H1  797   2.356   3.834  10.379
   34TMC2    H2  798   2.339   3.800  10.808
   34TMC2    C7  799   2.469   3.924  10.591
   34TMC2    C8  800   2.087   3.751  10.824
   34TMC2    O1  801   2.505   3.970  10.486
   34TMC2    O2  802   1.967   3.782  10.823
   34TMC2    O5  803   2.157   3.707  10.925
   34TMC2    H5  804   2.237   3.656  10.902
   35TMC2    C1  805   0.194   0.241   9.407
   35TMC2    C2  806   0.201   0.111   9.376
   35TMC2    C3  807   0.287   0.072   9.273
   35TMC2    C4  808   0.276   0.333   9.348
   35TMC2    C5  809   0.363   0.286   9.252
   35TMC2    C6  810   0.371   0.161   9.212
   35TMC2     C  811   0.114   0.289   9.518
   35TMC2     O  812   0.013   0.226   9.548
   35TMC2     H  813   0.135   0.039   9.423
   35TMC2    H1  814   0.255   0.439   9.357
   35TMC2    H2  815   0.460   0.137   9.154
   35TMC2    C7  816   0.437   0.382   9.180
   35TMC2    C8  817   0.308   4.716   9.237
   35TMC2    O1  818   0.462   0.344   9.070
   35TMC2    O2  819   0.396   4.686   9.157
   35TMC2    O5  820   0.182   4.672   9.223
   35TMC2    H5  821   0.123   4.748   9.242
   36TMC2    C1  822   0.754   0.880  15.275
   36TMC2    C2  823   0.727   0.755  15.236
   36TMC2    C3  824   0.603   0.722  15.193
   36TMC2    C4  825   0.652   0.964  15.283
   36TMC2    C5  826   0.530   0.932  15.236
   36TMC2    C6  827   0.502   0.809  15.180
   36TMC2     C  828   0.890   0.915  15.288
   36TMC2     O  829   0.910   1.026  15.332
   36TMC2     H  830   0.801   0.676  15.228
   36TMC2    H1  831   0.665   1.070  15.302
   36TMC2    H2  832   0.408   0.766  15.147
   36TMC2    C7  833   0.433   1.036  15.225
   36TMC2    C8  834   0.583   0.585  15.158
   36TMC2    O1  835   0.440   1.126  15.305
   36TMC2    O2  836   0.669   0.504  15.124
   36TMC2    O5  837   0.476   0.545  15.229
   36TMC2    H5  838   0.443   0.611  15.293
   37TMC2    C1  839   1.722   2.735  10.839
   37TMC2    C2  840   1.681   2.763  10.965
   37TMC2    C3  841   1.771   2.743  11.066
   37TMC2    C4  842   1.840   2.665  10.823
   37TMC2    C5  843   1.928   2.648  10.929
   37TMC2    C6  844   1.891   2.687  11.053
   37TMC2     C  845   1.706   2.845  10.748
   37TMC2     O  846   1.795   2.854  10.663
   37TMC2     H  847   1.587   2.809  10.993
   37TMC2    H1  848   1.873   2.634  10.724
   37TMC2    H2  849   1.958   2.671  11.136
   37TMC2    C7  850   2.068   2.699  10.901
   37TMC2    C8  851   1.745   2.793  11.203
   37TMC2    O1  852   2.144   2.691  10.997
   37TMC2    O2  853   1.816   2.754  11.298
   37TMC2    O5  854   1.715   2.925  11.196
   37TMC2    H5  855   1.714   2.959  11.104
   38TMC2    C1  856   1.605   3.988  10.180
   38TMC2    C2  857   1.710   4.043  10.112
   38TMC2    C3  858   1.748   4.168  10.143
   38TMC2    C4  859   1.549   4.061  10.286
   38TMC2    C5  860   1.603   4.176  10.317
   38TMC2    C6  861   1.701   4.240  10.246
   38TMC2     C  862   1.532   3.859  10.159
   38TMC2     O  863   1.414   3.866  10.185
   38TMC2     H  864   1.753   3.990  10.028
   38TMC2    H1  865   1.471   4.021  10.350
   38TMC2    H2  866   1.736   4.342  10.260
   38TMC2    C7  867   1.534   4.254  10.416
   38TMC2    C8  868   1.875   4.202  10.078
   38TMC2    O1  869   1.501   4.189  10.515
   38TMC2    O2  870   1.941   4.105  10.049
   38TMC2    O5  871   1.936   4.307  10.138
   38TMC2    H5  872   1.889   4.393  10.139
   39TMC2    C1  873   0.841   4.442   8.751
   39TMC2    C2  874   0.859   4.329   8.668
   39TMC2    C3  875   0.861   4.208   8.733
   39TMC2    C4  876   0.854   4.434   8.886
   39TMC2    C5  877   0.853   4.308   8.936
   39TMC2    C6  878   0.843   4.191   8.867
   39TMC2     C  879   0.871   4.568   8.693
   39TMC2     O  880   0.905   4.649   8.777
   39TMC2     H  881   0.852   4.341   8.561
   39TMC2    H1  882   0.865   4.521   8.950
   39TMC2    H2  883   0.858   4.096   8.916
   39TMC2    C7  884   0.874   4.290   9.082
   39TMC2    C8  885   0.869   4.086   8.652
   39TMC2    O1  886   0.830   4.181   9.123
   39TMC2    O2  887   0.805   3.984   8.678
   39TMC2    O5  888   0.915   4.114   8.528
   39TMC2    H5  889   0.984   4.183   8.534
   40TMC2    C1  890   0.870   0.536  14.830
   40TMC2    C2  891   0.796   0.429  14.871
   40TMC2    C3  892   0.860   0.315  14.873
   40TMC2    C4  893   1.006   0.530  14.813
   40TMC2    C5  894   1.066   0.409  14.803
   40TMC2    C6  895   0.991   0.299  14.838
   40TMC2     C  896   0.806   0.666  14.822
   40TMC2     O  897   0.869   0.768  14.841
   40TMC2     H  898   0.690   0.430  14.892
   40TMC2    H1  899   1.060   0.619  14.783
   40TMC2    H2  900   1.033   0.199  14.842
   40TMC2    C7  901   1.211   0.400  14.823
   40TMC2    C8  902   0.799   0.199  14.927
   40TMC2    O1  903   1.277   0.499  14.824
   40TMC2    O2  904   0.817   0.088  14.880
   40TMC2    O5  905   0.708   0.221  15.027
   40TMC2    H5  906   0.725   0.311  15.063
   41TMC2    C1  907   0.168   4.355   8.948
   41TMC2    C2  908   0.147   4.488   8.961
   41TMC2    C3  909   0.048   4.542   8.878
   41TMC2    C4  910   0.084   4.271   8.876
   41TMC2    C5  911   4.756   4.328   8.833
   41TMC2    C6  912   4.738   4.467   8.825
   41TMC2     C  913   0.267   4.293   9.030
   41TMC2     O  914   0.286   4.178   9.004
   41TMC2     H  915   0.221   4.552   9.008
   41TMC2    H1  916   0.119   4.174   8.841
   41TMC2    H2  917   4.647   4.515   8.792
   41TMC2    C7  918   4.634   4.246   8.812
   41TMC2    C8  919   0.023   4.686   8.889
   41TMC2    O1  920   4.539   4.298   8.756
   41TMC2    O2  921   4.706   4.742   8.868
   41TMC2    O5  922   0.141   4.744   8.876
   41TMC2    H5  923   0.221   4.687   8.872
   42TMC2    C1  924   3.105   3.729   8.070
   42TMC2    C2  925   3.037   3.747   8.182
   42TMC2    C3  926   3.115   3.781   8.287
   42TMC2    C4  927   3.232   3.678   8.066
   42TMC2    C5  928   3.289   3.669   8.190
   42TMC2    C6  929   3.242   3.735   8.295
   42TMC2     C  930   3.012   3.705   7.959
   42TMC2     O  931   3.010   3.785   7.869
   42TMC2     H  932   2.939   3.794   8.176
   42TMC2    H1  933   3.273   3.642   7.972
   42TMC2    H2  934   3.292   3.755   8.389
   42TMC2    C7  935   3.416   3.598   8.199
   42TMC2    C8  936   3.046   3.788   8.411
   42TMC2    O1  937   3.506   3.628   8.121
   42TMC2    O2  938   3.093   3.833   8.515
   42TMC2    O5  939   2.954   3.691   8.399
   42TMC2    H5  940   2.969   3.637   8.318
   43TMC2    C1  941   4.086   2.647   8.560
   43TMC2    C2  942   4.161   2.730   8.640
   43TMC2    C3  943   4.097   2.831   8.702
   43TMC2    C4  944   3.950   2.679   8.541
   43TMC2    C5  945   3.898   2.796   8.593
   43TMC2    C6  946   3.972   2.865   8.680
   43TMC2     C  947   4.147   2.625   8.429
   43TMC2     O  948   4.068   2.643   8.339
   43TMC2     H  949   4.269   2.719   8.644
   43TMC2    H1  950   3.902   2.614   8.469
   43TMC2    H2  951   3.935   2.955   8.727
   43TMC2    C7  952   3.818   2.884   8.509
   43TMC2    C8  953   4.184   2.904   8.798
   43TMC2    O1  954   3.808   3.002   8.548
   43TMC2    O2  955   4.249   2.836   8.875
   43TMC2    O5  956   4.253   2.983   8.713
   43TMC2    H5  957   4.201   3.048   8.662
   44TMC2    C1  958   4.665   1.006  11.946
   44TMC2    C2  959   4.555   1.089  11.966
   44TMC2    C3  960   4.570   1.220  11.951
   44TMC2    C4  961   4.777   1.062  11.892
   44TMC2    C5  962   4.782   1.197  11.872
   44TMC2    C6  963   4.672   1.279  11.891
   44TMC2     C  964   4.675   0.876  12.003
   44TMC2     O  965   4.781   0.815  11.996
   44TMC2     H  966   4.478   1.045  12.028
   44TMC2    H1  967   0.082   1.009  11.882
   44TMC2    H2  968   4.671   1.387  11.884
   44TMC2    C7  969   0.108   1.239  11.799
   44TMC2    C8  970   4.458   1.304  11.993
   44TMC2    O1  971   0.218   1.203  11.838
   44TMC2    O2  972   4.463   1.425  12.016
   44TMC2    O5  973   4.346   1.230  11.970
   44TMC2    H5  974   4.352   1.136  11.942
   45TMC2    C1  975   1.498   4.294  14.721
   45TMC2    C2  976   1.574   4.380  14.798
   45TMC2    C3  977   1.704   4.344  14.816
   45TMC2    C4  978   1.548   4.177  14.665
   45TMC2    C5  979   1.678   4.150  14.676
   45TMC2    C6  980   1.755   4.232  14.753
   45TMC2     C  981   1.373   4.345  14.660
   45TMC2     O  982   1.325   4.281  14.570
   45TMC2     H  983   1.530   4.477  14.817
   45TMC2    H1  984   1.489   4.111  14.603
   45TMC2    H2  985   1.856   4.204  14.780
   45TMC2    C7  986   1.722   4.025  14.633
   45TMC2    C8  987   1.793   4.455  14.842
   45TMC2    O1  988   1.680   3.986  14.526
   45TMC2    O2  989   1.916   4.464  14.819
   45TMC2    O5  990   1.732   4.547  14.920
   45TMC2    H5  991   1.642   4.522  14.950
   46TMC2    C1  992   2.656   2.184  15.166
   46TMC2    C2  993   2.553   2.238  15.097
   46TMC2    C3  994   2.574   2.358  15.045
   46TMC2    C4  995   2.770   2.253  15.199
   46TMC2    C5  996   2.797   2.365  15.130
   46TMC2    C6  997   2.696   2.420  15.055
   46TMC2     C  998   2.640   2.049  15.213
   46TMC2     O  999   2.739   1.985  15.227
   46TMC2     H 1000   2.475   2.175  15.057
   46TMC2    H1 1001   2.847   2.200  15.253
   46TMC2    H2 1002   2.704   2.510  14.995
   46TMC2    C7 1003   2.883   2.450  15.216
   46TMC2    C8 1004   2.483   2.407  14.943
   46TMC2    O1 1005   2.915   2.407  15.325
   46TMC2    O2 1006   2.439   2.330  14.860
   46TMC2    O5 1007   2.466   2.536  14.945
   46TMC2    H5 1008   2.494   2.572  15.032
   47TMC2    C1 1009   4.229   2.126  12.241
   47TMC2    C2 1010   4.252   2.131  12.105
   47TMC2    C3 1011   4.137   2.130  12.032
   47TMC2    C4 1012   4.102   2.098  12.297
   47TMC2    C5 1013   3.996   2.078  12.208
   47TMC2    C6 1014   4.010   2.107  12.077
   47TMC2     C 1015   4.342   2.123  12.332
   47TMC2     O 1016   4.323   2.163  12.450
   47TMC2     H 1017   4.351   2.148  12.063
   47TMC2    H1 1018   4.104   2.080  12.404
   47TMC2    H2 1019   3.920   2.124  12.018
   47TMC2    C7 1020   3.922   1.959  12.238
   47TMC2    C8 1021   4.139   2.083  11.905
   47TMC2    O1 1022   3.902   1.928  12.356
   47TMC2    O2 1023   4.062   2.139  11.825
   47TMC2    O5 1024   4.131   1.954  11.929
   47TMC2    H5 1025   4.199   1.927  11.995
   48TMC2    C1 1026   1.664   2.249  10.266
   48TMC2    C2 1027   1.679   2.113  10.289
   48TMC2    C3 1028   1.783   2.066  10.362
   48TMC2    C4 1029   1.763   2.335  10.310
   48TMC2    C5 1030   1.877   2.288  10.382
   48TMC2    C6 1031   1.889   2.152  10.401
   48TMC2     C 1032   1.556   2.295  10.185
   48TMC2     O 1033   1.582   2.396  10.118
   48TMC2     H 1034   1.610   2.033  10.262
   48TMC2    H1 1035   1.749   2.441  10.293
   48TMC2    H2 1036   1.968   2.105  10.458
   48TMC2    C7 1037   1.992   2.368  10.419
   48TMC2    C8 1038   1.807   1.924  10.363
   48TMC2    O1 1039   2.093   2.308  10.449
   48TMC2    O2 1040   1.715   1.845  10.380
   48TMC2    O5 1041   1.901   1.910  10.267
   48TMC2    H5 1042   1.944   1.995  10.243
   49TMC2    C1 1043   1.778   4.392  11.497
   49TMC2    C2 1044   1.768   4.434  11.370
   49TMC2    C3 1045   1.641   4.423  11.317
   49TMC2    C4 1046   1.682   4.323  11.563
   49TMC2    C5 1047   1.559   4.305  11.497
   49TMC2    C6 1048   1.533   4.357  11.376
   49TMC2     C 1049   1.921   4.391  11.536
   49TMC2     O 1050   1.993   4.469  11.469
   49TMC2     H 1051   1.854   4.467  11.314
   49TMC2    H1 1052   1.707   4.261  11.649
   49TMC2    H2 1053   1.435   4.349  11.330
   49TMC2    C7 1054   1.460   4.219  11.553
   49TMC2    C8 1055   1.646   4.450  11.176
   49TMC2    O1 1056   1.371   4.183  11.479
   49TMC2    O2 1057   1.743   4.512  11.130
   49TMC2    O5 1058   1.574   4.359  11.110
   49TMC2    H5 1059   1.532   4.294  11.169
   50TMC2    C1 1060   3.326   1.625  14.236
   50TMC2    C2 1061   3.202   1.613  14.179
   50TMC2    C3 1062   3.164   1.714  14.099
   50TMC2    C4 1063   3.402   1.738  14.218
   50TMC2    C5 1064   3.352   1.836  14.136
   50TMC2    C6 1065   3.230   1.831  14.076
   50TMC2     C 1066   3.361   1.532  14.342
   50TMC2     O 1067   3.267   1.469  14.392
   50TMC2     H 1068   3.139   1.528  14.202
   50TMC2    H1 1069   3.493   1.768  14.270
   50TMC2    H2 1070   3.201   1.888  13.989
   50TMC2    C7 1071   3.447   1.941  14.099
   50TMC2    C8 1072   3.071   1.671  13.999
   50TMC2    O1 1073   3.566   1.920  14.107
   50TMC2    O2 1074   3.058   1.554  13.968
   50TMC2    O5 1075   2.985   1.769  13.978
   50TMC2    H5 1076   2.985   1.839  14.047
   51TMC2    C1 1077   2.026   2.197  14.853
   51TMC2    C2 1078   2.087   2.201  14.733
   51TMC2    C3 1079   2.006   2.192  14.623
   51TMC2    C4 1080   1.891   2.174  14.858
   51TMC2    C5 1081   1.817   2.173  14.748
   51TMC2    C6 1082   1.873   2.183  14.623
   51TMC2     C 1083   2.074   2.285  14.957
   51TMC2     O 1084   2.055   2.248  15.069
   51TMC2     H 1085   2.195   2.213  14.727
   51TMC2    H1 1086   1.843   2.151  14.953
   51TMC2    H2 1087   1.810   2.176  14.535
   51TMC2    C7 1088   1.670   2.187  14.757
   51TMC2    C8 1089   2.056   2.262  14.508
   51TMC2    O1 1090   1.605   2.124  14.679
   51TMC2    O2 1091   1.982   2.270  14.411
   51TMC2    O5 1092   2.107   2.370  14.558
   51TMC2    H5 1093   2.194   2.355  14.601
   52TMC2    C1 1094   3.831   4.139   9.422
   52TMC2    C2 1095   3.900   4.035   9.361
   52TMC2    C3 1096   4.023   4.065   9.306
   52TMC2    C4 1097   3.882   4.273   9.418
   52TMC2    C5 1098   4.002   4.294   9.359
   52TMC2    C6 1099   4.074   4.194   9.308
   52TMC2     C 1100   3.701   4.114   9.489
   52TMC2     O 1101   3.620   4.208   9.482
   52TMC2     H 1102   3.863   3.933   9.357
   52TMC2    H1 1103   3.817   4.356   9.443
   52TMC2    H2 1104   4.173   4.210   9.267
   52TMC2    C7 1105   4.061   4.429   9.373
   52TMC2    C8 1106   4.111   3.949   9.272
   52TMC2    O1 1107   4.147   4.453   9.285
   52TMC2    O2 1108   4.233   3.949   9.265
   52TMC2    O5 1109   4.038   3.871   9.192
   52TMC2    H5 1110   3.940   3.876   9.194
   53TMC2    C1 1111   1.311   4.789   9.532
   53TMC2    C2 1112   1.399   4.728   9.622
   53TMC2    C3 1113   1.480   0.028   9.682
   53TMC2    C4 1114   1.319   0.138   9.489
   53TMC2    C5 1115   1.411   0.213   9.553
   53TMC2    C6 1116   1.496   0.156   9.645
   53TMC2     C 1117   1.219   4.706   9.457
   53TMC2     O 1118   1.191   4.744   9.346
   53TMC2     H 1119   1.410   4.624   9.649
   53TMC2    H1 1120   1.238   0.188   9.436
   53TMC2    H2 1121   1.576   0.218   9.683
   53TMC2    C7 1122   1.392   0.346   9.599
   53TMC2    C8 1123   1.578   4.769   9.777
   53TMC2    O1 1124   1.477   0.430   9.575
   53TMC2    O2 1125   1.660   4.685   9.743
   53TMC2    O5 1126   1.590   0.086   9.857
   53TMC2    H5 1127   1.503   0.127   9.876
   54TMC2    C1 1128   2.322   3.626  14.003
   54TMC2    C2 1129   2.218   3.627  13.915
   54TMC2    C3 1130   2.095   3.656  13.962
   54TMC2    C4 1131   2.309   3.645  14.141
   54TMC2    C5 1132   2.186   3.669  14.191
   54TMC2    C6 1133   2.076   3.671  14.107
   54TMC2     C 1134   2.459   3.621  13.957
   54TMC2     O 1135   2.532   3.570  14.036
   54TMC2     H 1136   2.229   3.601  13.810
   54TMC2    H1 1137   2.394   3.648  14.208
   54TMC2    H2 1138   1.977   3.687  14.148
   54TMC2    C7 1139   2.173   3.645  14.334
   54TMC2    C8 1140   1.982   3.654  13.880
   54TMC2    O1 1141   2.247   3.565  14.390
   54TMC2    O2 1142   1.971   3.594  13.774
   54TMC2    O5 1143   1.888   3.734  13.935
   54TMC2    H5 1144   1.915   3.790  14.010
   55TMC2    C1 1145   3.828   3.594   8.231
   55TMC2    C2 1146   3.881   3.675   8.140
   55TMC2    C3 1147   3.887   3.630   8.011
   55TMC2    C4 1148   3.776   3.471   8.196
   55TMC2    C5 1149   3.793   3.427   8.061
   55TMC2    C6 1150   3.850   3.506   7.970
   55TMC2     C 1151   3.767   3.647   8.352
   55TMC2     O 1152   3.722   3.562   8.432
   55TMC2     H 1153   3.933   3.764   8.173
   55TMC2    H1 1154   3.724   3.403   8.262
   55TMC2    H2 1155   3.866   3.466   7.870
   55TMC2    C7 1156   3.772   3.297   8.025
   55TMC2    C8 1157   3.990   3.685   7.919
   55TMC2    O1 1158   3.748   3.282   7.906
   55TMC2    O2 1159   4.039   3.625   7.826
   55TMC2    O5 1160   3.949   3.815   7.926
   55TMC2    H5 1161   3.888   3.845   7.997
   56TMC2    C1 1162   2.298   1.528  14.682
   56TMC2    C2 1163   2.336   1.604  14.572
   56TMC2    C3 1164   2.471   1.637  14.567
   56TMC2    C4 1165   2.389   1.480  14.774
   56TMC2    C5 1166   2.517   1.525  14.770
   56TMC2    C6 1167   2.559   1.608  14.666
   56TMC2     C 1168   2.167   1.475  14.674
   56TMC2     O 1169   2.084   1.535  14.604
   56TMC2     H 1170   2.266   1.632  14.495
   56TMC2    H1 1171   2.361   1.412  14.854
   56TMC2    H2 1172   2.658   1.652  14.666
   56TMC2    C7 1173   2.614   1.476  14.860
   56TMC2    C8 1174   2.515   1.704  14.442
   56TMC2    O1 1175   2.732   1.476  14.825
   56TMC2    O2 1176   2.630   1.741  14.433
   56TMC2    O5 1177   2.431   1.690  14.332
   56TMC2    H5 1178   2.351   1.640  14.361
   57TMC2    C1 1179   3.821   1.009   8.679
   57TMC2    C2 1180   3.854   1.125   8.742
   57TMC2    C3 1181   3.981   1.128   8.794
   57TMC2    C4 1182   3.901   0.898   8.681
   57TMC2    C5 1183   4.029   0.908   8.734
   57TMC2    C6 1184   4.069   1.022   8.803
   57TMC2     C 1185   3.699   0.995   8.608
   57TMC2     O 1186   3.675   0.884   8.566
   57TMC2     H 1187   3.781   1.204   8.756
   57TMC2    H1 1188   3.868   0.801   8.645
   57TMC2    H2 1189   4.169   1.027   8.844
   57TMC2    C7 1190   4.109   0.791   8.757
   57TMC2    C8 1191   4.010   1.237   8.887
   57TMC2    O1 1192   4.146   0.788   8.872
   57TMC2    O2 1193   4.099   1.219   8.969
   57TMC2    O5 1194   3.969   1.350   8.834
   57TMC2    H5 1195   3.911   1.349   8.755
   58TMC2    C1 1196   1.251   3.064  14.589
   58TMC2    C2 1197   1.374   3.110  14.547
   58TMC2    C3 1198   1.431   3.028  14.454
   58TMC2    C4 1199   1.210   2.939  14.554
   58TMC2    C5 1200   1.276   2.865  14.457
   58TMC2    C6 1201   1.389   2.913  14.400
   58TMC2     C 1202   1.192   3.120  14.707
   58TMC2     O 1203   1.127   3.044  14.781
   58TMC2     H 1204   1.428   3.193  14.591
   58TMC2    H1 1205   1.119   2.913  14.607
   58TMC2    H2 1206   1.457   2.859  14.335
   58TMC2    C7 1207   1.230   2.740  14.417
   58TMC2    C8 1208   1.534   3.092  14.374
   58TMC2    O1 1209   1.293   2.678  14.334
   58TMC2    O2 1210   1.647   3.099  14.416
   58TMC2    O5 1211   1.472   3.196  14.318
   58TMC2    H5 1212   1.375   3.181  14.314
   59TMC2    C1 1213   2.381   0.419  13.278
   59TMC2    C2 1214   2.473   0.349  13.200
   59TMC2    C3 1215   2.601   0.385  13.225
   59TMC2    C4 1216   2.416   0.514  13.376
   59TMC2    C5 1217   2.551   0.536  13.397
   59TMC2    C6 1218   2.650   0.465  13.329
   59TMC2     C 1219   2.240   0.417  13.235
   59TMC2     O 1220   2.223   0.354  13.132
   59TMC2     H 1221   2.458   0.275  13.122
   59TMC2    H1 1222   2.344   0.576  13.429
   59TMC2    H2 1223   2.757   0.477  13.338
   59TMC2    C7 1224   2.603   0.614  13.510
   59TMC2    C8 1225   2.696   0.359  13.121
   59TMC2    O1 1226   2.698   0.564  13.573
   59TMC2    O2 1227   2.689   0.258  13.048
   59TMC2    O5 1228   2.761   0.473  13.092
   59TMC2    H5 1229   2.741   0.553  13.145
   60TMC2    C1 1230   1.247   2.624  10.896
   60TMC2    C2 1231   1.366   2.555  10.899
   60TMC2    C3 1232   1.364   2.427  10.947
   60TMC2    C4 1233   1.129   2.565  10.941
   60TMC2    C5 1234   1.136   2.429  10.956
   60TMC2    C6 1235   1.250   2.362  10.979
   60TMC2     C 1236   1.279   2.755  10.946
   60TMC2     O 1237   1.368   2.815  10.890
   60TMC2     H 1238   1.459   2.611  10.894
   60TMC2    H1 1239   1.034   2.616  10.929
   60TMC2    H2 1240   1.241   2.258  11.009
   60TMC2    C7 1241   1.005   2.357  10.942
   60TMC2    C8 1242   1.491   2.366  10.965
   60TMC2    O1 1243   1.003   2.242  10.977
   60TMC2    O2 1244   1.590   2.416  10.911
   60TMC2    O5 1245   1.491   2.334  11.090
   60TMC2    H5 1246   1.406   2.322  11.137
   61TMC2    C1 1247   4.473   3.681   9.979
   61TMC2    C2 1248   4.533   3.719   9.862
   61TMC2    C3 1249   4.541   3.637   9.754
   61TMC2    C4 1250   4.416   3.554   9.985
   61TMC2    C5 1251   4.421   3.475   9.876
   61TMC2    C6 1252   4.485   3.514   9.759
   61TMC2     C 1253   4.421   3.773  10.079
   61TMC2     O 1254   4.350   3.725  10.167
   61TMC2     H 1255   4.570   3.821   9.854
   61TMC2    H1 1256   4.372   3.526  10.080
   61TMC2    H2 1257   4.517   3.446   9.681
   61TMC2    C7 1258   4.303   3.395   9.834
   61TMC2    C8 1259   4.623   3.658   9.634
   61TMC2    O1 1260   4.309   3.339   9.722
   61TMC2    O2 1261   4.586   3.631   9.520
   61TMC2    O5 1262   4.720   3.739   9.668
   61TMC2    H5 1263   4.729   3.738   9.766
   62TMC2    C1 1264   0.761   0.712  10.526
   62TMC2    C2 1265   0.712   0.588  10.542
   62TMC2    C3 1266   0.606   0.562  10.622
   62TMC2    C4 1267   0.699   0.821  10.585
   62TMC2    C5 1268   0.588   0.794  10.657
   62TMC2    C6 1269   0.538   0.667  10.678
   62TMC2     C 1270   0.892   0.726  10.470
   62TMC2     O 1271   0.961   0.628  10.459
   62TMC2     H 1272   0.752   0.508  10.481
   62TMC2    H1 1273   0.729   0.924  10.572
   62TMC2    H2 1274   0.465   0.647  10.755
   62TMC2    C7 1275   0.512   0.908  10.711
   62TMC2    C8 1276   0.546   0.429  10.625
   62TMC2    O1 1277   0.584   1.008  10.725
   62TMC2    O2 1278   0.475   0.395  10.721
   62TMC2    O5 1279   0.539   0.382  10.499
   62TMC2    H5 1280   0.564   0.453  10.436
   63TMC2    C1 1281   3.904   3.977   6.947
   63TMC2    C2 1282   3.983   4.009   7.056
   63TMC2    C3 1283   4.073   4.110   7.041
   63TMC2    C4 1284   3.926   4.015   6.819
   63TMC2    C5 1285   4.027   4.103   6.801
   63TMC2    C6 1286   4.093   4.160   6.911
   63TMC2     C 1287   3.772   3.925   6.972
   63TMC2     O 1288   3.770   3.872   7.081
   63TMC2     H 1289   3.963   3.974   7.157
   63TMC2    H1 1290   3.873   3.967   6.738
   63TMC2    H2 1291   4.181   4.223   6.900
   63TMC2    C7 1292   4.078   4.138   6.671
   63TMC2    C8 1293   4.187   4.108   7.128
   63TMC2    O1 1294   4.192   4.179   6.677
   63TMC2    O2 1295   4.229   3.999   7.165
   63TMC2    O5 1296   4.261   4.232   7.123
   63TMC2    H5 1297   4.201   4.308   7.105
   64TMC2    C1 1298   3.565   1.461   7.600
   64TMC2    C2 1299   3.483   1.370   7.535
   64TMC2    C3 1300   3.525   1.290   7.431
   64TMC2    C4 1301   3.694   1.468   7.555
   64TMC2    C5 1302   3.743   1.379   7.461
   64TMC2    C6 1303   3.662   1.293   7.395
   64TMC2     C 1304   3.512   1.518   7.726
   64TMC2     O 1305   3.398   1.490   7.760
   64TMC2     H 1306   3.384   1.356   7.576
   64TMC2    H1 1307   3.766   1.530   7.606
   64TMC2    H2 1308   3.690   1.254   7.298
   64TMC2    C7 1309   3.862   1.438   7.396
   64TMC2    C8 1310   3.440   1.204   7.349
   64TMC2    O1 1311   3.893   1.556   7.407
   64TMC2    O2 1312   3.488   1.121   7.274
   64TMC2    O5 1313   3.336   1.173   7.427
   64TMC2    H5 1314   3.323   1.252   7.483
   65TMC2    C1 1315   0.528   4.396   6.839
   65TMC2    C2 1316   0.652   4.338   6.846
   65TMC2    C3 1317   0.654   4.211   6.908
   65TMC2    C4 1318   0.410   4.348   6.900
   65TMC2    C5 1319   0.418   4.220   6.965
   65TMC2    C6 1320   0.540   4.156   6.969
   65TMC2     C 1321   0.520   4.510   6.743
   65TMC2     O 1322   0.623   4.572   6.725
   65TMC2     H 1323   0.743   4.376   6.801
   65TMC2    H1 1324   0.316   4.403   6.902
   65TMC2    H2 1325   0.554   4.065   7.026
   65TMC2    C7 1326   0.306   4.160   7.043
   65TMC2    C8 1327   0.764   4.126   6.867
   65TMC2    O1 1328   0.339   4.082   7.131
   65TMC2    O2 1329   0.814   4.132   6.759
   65TMC2    O5 1330   0.808   4.050   6.971
   65TMC2    H5 1331   0.767   4.077   7.056
   66TMC2    C1 1332   3.176   0.864  15.330
   66TMC2    C2 1333   3.061   0.930  15.378
   66TMC2    C3 1334   3.017   0.880  15.495
   66TMC2    C4 1335   3.233   0.755  15.384
   66TMC2    C5 1336   3.168   0.706  15.494
   66TMC2    C6 1337   3.066   0.763  15.556
   66TMC2     C 1338   3.196   0.873  15.185
   66TMC2     O 1339   3.097   0.885  15.116
   66TMC2     H 1340   3.020   1.011  15.319
   66TMC2    H1 1341   3.320   0.705  15.344
   66TMC2    H2 1342   3.016   0.721  15.642
   66TMC2    C7 1343   3.172   0.560  15.506
   66TMC2    C8 1344   2.899   0.928  15.566
   66TMC2    O1 1345   3.068   0.499  15.495
   66TMC2    O2 1346   2.895   0.925  15.690
   66TMC2    O5 1347   2.802   0.948  15.481
   66TMC2    H5 1348   2.809   0.926  15.386
   67TMC2    C1 1349   3.609   4.773   7.158
   67TMC2    C2 1350   3.561   0.043   7.269
   67TMC2    C3 1351   3.651   0.081   7.363
   67TMC2    C4 1352   3.739   4.731   7.143
   67TMC2    C5 1353   3.827   4.779   7.233
   67TMC2    C6 1354   3.787   0.061   7.343
   67TMC2     C 1355   3.522   4.756   7.052
   67TMC2     O 1356   3.401   4.737   7.073
   67TMC2     H 1357   3.460   0.081   7.277
   67TMC2    H1 1358   3.768   4.671   7.057
   67TMC2    H2 1359   3.854   0.091   7.423
   67TMC2    C7 1360   3.966   4.754   7.203
   67TMC2    C8 1361   3.600   0.114   7.491
   67TMC2    O1 1362   3.987   4.664   7.121
   67TMC2    O2 1363   3.646   0.082   7.596
   67TMC2    O5 1364   3.564   0.233   7.461
   67TMC2    H5 1365   3.567   0.271   7.371
   68TMC2    C1 1366   3.373   0.773   7.368
   68TMC2    C2 1367   3.473   0.689   7.328
   68TMC2    C3 1368   3.592   0.693   7.393
   68TMC2    C4 1369   3.394   0.870   7.466
   68TMC2    C5 1370   3.515   0.874   7.523
   68TMC2    C6 1371   3.619   0.793   7.483
   68TMC2     C 1372   3.271   0.806   7.274
   68TMC2     O 1373   3.223   0.717   7.207
   68TMC2     H 1374   3.454   0.600   7.268
   68TMC2    H1 1375   3.312   0.931   7.502
   68TMC2    H2 1376   3.717   0.802   7.528
   68TMC2    C7 1377   3.546   0.972   7.627
   68TMC2    C8 1378   3.699   0.598   7.370
   68TMC2    O1 1379   3.661   1.024   7.624
   68TMC2    O2 1380   3.782   0.560   7.454
   68TMC2    O5 1381   3.746   0.626   7.251
   68TMC2    H5 1382   3.685   0.681   7.198
   69TMC2    C1 1383   0.291   1.801   6.909
   69TMC2    C2 1384   0.326   1.884   7.010
   69TMC2    C3 1385   0.232   1.917   7.098
   69TMC2    C4 1386   0.164   1.758   6.892
   69TMC2    C5 1387   0.086   1.783   6.996
   69TMC2    C6 1388   0.108   1.863   7.105
   69TMC2     C 1389   0.397   1.713   6.854
   69TMC2     O 1390   0.498   1.683   6.913
   69TMC2     H 1391   0.429   1.915   7.025
   69TMC2    H1 1392   0.137   1.689   6.813
   69TMC2    H2 1393   0.030   1.889   7.175
   69TMC2    C7 1394   4.767   1.681   7.021
   69TMC2    C8 1395   0.284   1.987   7.211
   69TMC2    O1 1396   4.730   1.633   6.912
   69TMC2    O2 1397   0.384   2.055   7.203
   69TMC2    O5 1398   0.188   2.007   7.304
   69TMC2    H5 1399   0.113   1.944   7.314
   70TMC2    C1 1400   0.672   0.264   6.886
   70TMC2    C2 1401   0.583   0.160   6.880
   70TMC2    C3 1402   0.458   0.175   6.924
   70TMC2    C4 1403   0.633   0.387   6.932
   70TMC2    C5 1404   0.506   0.402   6.976
   70TMC2    C6 1405   0.418   0.291   6.983
   70TMC2     C 1406   0.817   0.240   6.881
   70TMC2     O 1407   0.880   0.324   6.818
   70TMC2     H 1408   0.619   0.060   6.861
   70TMC2    H1 1409   0.708   0.464   6.917
   70TMC2    H2 1410   0.323   0.299   7.034
   70TMC2    C7 1411   0.458   0.536   7.002
   70TMC2    C8 1412   0.392   0.057   6.975
   70TMC2    O1 1413   0.533   0.624   6.966
   70TMC2    O2 1414   0.465   4.751   7.006
   70TMC2    O5 1415   0.265   0.054   6.945
   70TMC2    H5 1416   0.229   0.124   6.886
   71TMC2    C1 1417   0.908   3.430  10.285
   71TMC2    C2 1418   1.020   3.494  10.310
   71TMC2    C3 1419   1.010   3.632  10.337
   71TMC2    C4 1420   0.780   3.488  10.302
   71TMC2    C5 1421   0.777   3.619  10.344
   71TMC2    C6 1422   0.889   3.692  10.357
   71TMC2     C 1423   0.897   3.303  10.345
   71TMC2     O 1424   0.837   3.215  10.281
   71TMC2     H 1425   1.114   3.441  10.310
   71TMC2    H1 1426   0.692   3.426  10.290
   71TMC2    H2 1427   0.899   3.788  10.406
   71TMC2    C7 1428   0.667   3.673  10.409
   71TMC2    C8 1429   1.128   3.730  10.349
   71TMC2    O1 1430   0.678   3.796  10.426
   71TMC2    O2 1431   1.115   3.838  10.406
   71TMC2    O5 1432   1.234   3.682  10.276
   71TMC2    H5 1433   1.302   3.751  10.259
   72TMC2    C1 1434   0.865   4.713  10.885
   72TMC2    C2 1435   0.770   4.612  10.861
   72TMC2    C3 1436   0.758   4.523  10.958
   72TMC2    C4 1437   0.930   4.732  11.005
   72TMC2    C5 1438   0.908   4.640  11.103
   72TMC2    C6 1439   0.820   4.537  11.084
   72TMC2     C 1440   0.902   0.006  10.776
   72TMC2     O 1441   0.910   0.128  10.793
   72TMC2     H 1442   0.715   4.612  10.768
   72TMC2    H1 1443   1.006   0.018  11.018
   72TMC2    H2 1444   0.817   4.458  11.158
   72TMC2    C7 1445   0.956   4.664  11.237
   72TMC2    C8 1446   0.640   4.437  10.950
   72TMC2    O1 1447   0.968   4.576  11.316
   72TMC2    O2 1448   0.605   4.394  10.844
   72TMC2    O5 1449   0.562   4.456  11.053
   72TMC2    H5 1450   0.591   4.531  11.109
   73TMC2    C1 1451   4.707   3.912   6.224
   73TMC2    C2 1452   0.024   3.981   6.280
   73TMC2    C3 1453   0.002   4.113   6.293
   73TMC2    C4 1454   4.582   3.968   6.197
   73TMC2    C5 1455   4.568   4.097   6.215
   73TMC2    C6 1456   4.669   4.170   6.264
   73TMC2     C 1457   4.709   3.763   6.215
   73TMC2     O 1458   4.616   3.710   6.151
   73TMC2     H 1459   0.124   3.939   6.271
   73TMC2    H1 1460   4.503   3.902   6.162
   73TMC2    H2 1461   4.657   4.278   6.258
   73TMC2    C7 1462   4.437   4.139   6.274
   73TMC2    C8 1463   0.084   4.198   6.374
   73TMC2    O1 1464   4.435   4.216   6.365
   73TMC2    O2 1465   0.081   4.323   6.387
   73TMC2    O5 1466   0.201   4.128   6.397
   73TMC2    H5 1467   0.187   4.032   6.414
   74TMC2    C1 1468   1.263   2.180  14.174
   74TMC2    C2 1469   1.177   2.129  14.264
   74TMC2    C3 1470   1.214   2.133  14.397
   74TMC2    C4 1471   1.393   2.211  14.207
   74TMC2    C5 1472   1.419   2.215  14.339
   74TMC2    C6 1473   1.331   2.180  14.436
   74TMC2     C 1474   1.199   2.243  14.059
   74TMC2     O 1475   1.092   2.199  14.016
   74TMC2     H 1476   1.072   2.127  14.239
   74TMC2    H1 1477   1.460   2.251  14.132
   74TMC2    H2 1478   1.372   2.169  14.536
   74TMC2    C7 1479   1.538   2.279  14.381
   74TMC2    C8 1480   1.125   2.087  14.503
   74TMC2    O1 1481   1.644   2.277  14.320
   74TMC2    O2 1482   1.045   1.998  14.471
   74TMC2    O5 1483   1.089   2.195  14.575
   74TMC2    H5 1484   1.146   2.274  14.570
   75TMC2    C1 1485   2.955   1.051   8.570
   75TMC2    C2 1486   2.883   1.133   8.490
   75TMC2    C3 1487   2.883   1.271   8.518
   75TMC2    C4 1488   3.029   1.095   8.679
   75TMC2    C5 1489   3.030   1.230   8.705
   75TMC2    C6 1490   2.961   1.320   8.623
   75TMC2     C 1491   2.930   0.912   8.546
   75TMC2     O 1492   2.857   0.883   8.452
   75TMC2     H 1493   2.858   1.098   8.391
   75TMC2    H1 1494   3.071   1.024   8.749
   75TMC2    H2 1495   2.969   1.427   8.641
   75TMC2    C7 1496   3.079   1.293   8.824
   75TMC2    C8 1497   2.890   1.364   8.409
   75TMC2    O1 1498   3.066   1.411   8.858
   75TMC2    O2 1499   2.946   1.472   8.421
   75TMC2    O5 1500   2.775   1.346   8.337
   75TMC2    H5 1501   2.742   1.254   8.342
   76TMC2    C1 1502   3.143   4.580   7.692
   76TMC2    C2 1503   3.178   4.682   7.777
   76TMC2    C3 1504   3.301   4.734   7.766
   76TMC2    C4 1505   3.236   4.530   7.611
   76TMC2    C5 1506   3.361   4.578   7.606
   76TMC2    C6 1507   3.399   4.689   7.679
   76TMC2     C 1508   3.042   4.492   7.745
   76TMC2     O 1509   3.034   4.486   7.869
   76TMC2     H 1510   3.100   4.735   7.831
   76TMC2    H1 1511   3.212   4.445   7.547
   76TMC2    H2 1512   3.499   4.731   7.671
   76TMC2    C7 1513   3.448   4.533   7.501
   76TMC2    C8 1514   3.327   0.070   7.833
   76TMC2    O1 1515   3.393   4.500   7.397
   76TMC2    O2 1516   3.298   0.098   7.949
   76TMC2    O5 1517   3.301   0.157   7.730
   76TMC2    H5 1518   3.304   0.110   7.644
   77TMC2    C1 1519   0.832   3.440   8.890
   77TMC2    C2 1520   0.729   3.449   8.807
   77TMC2    C3 1521   0.749   3.490   8.676
   77TMC2    C4 1522   0.959   3.480   8.846
   77TMC2    C5 1523   0.967   3.528   8.717
   77TMC2    C6 1524   0.869   3.526   8.624
   77TMC2     C 1525   0.822   3.479   9.028
   77TMC2     O 1526   0.905   3.449   9.107
   77TMC2     H 1527   0.632   3.422   8.847
   77TMC2    H1 1528   1.039   3.496   8.917
   77TMC2    H2 1529   0.888   3.552   8.520
   77TMC2    C7 1530   1.100   3.571   8.677
   77TMC2    C8 1531   0.634   3.489   8.592
   77TMC2    O1 1532   1.123   3.545   8.564
   77TMC2    O2 1533   0.523   3.470   8.649
   77TMC2    O5 1534   0.677   3.438   8.471
   77TMC2    H5 1535   0.774   3.428   8.461
   78TMC2    C1 1536   0.574   3.469   9.583
   78TMC2    C2 1537   0.670   3.370   9.582
   78TMC2    C3 1538   0.803   3.407   9.596
   78TMC2    C4 1539   0.603   3.598   9.602
   78TMC2    C5 1540   0.739   3.631   9.619
   78TMC2    C6 1541   0.840   3.539   9.620
   78TMC2     C 1542   0.441   3.450   9.532
   78TMC2     O 1543   0.401   3.517   9.434
   78TMC2     H 1544   0.636   3.268   9.569
   78TMC2    H1 1545   0.537   3.683   9.589
   78TMC2    H2 1546   0.946   3.559   9.634
   78TMC2    C7 1547   0.770   3.740   9.707
   78TMC2    C8 1548   0.890   3.315   9.660
   78TMC2    O1 1549   0.676   3.790   9.770
   78TMC2    O2 1550   0.931   3.360   9.766
   78TMC2    O5 1551   0.975   3.257   9.569
   78TMC2    H5 1552   0.932   3.266   9.481
   79TMC2    C1 1553   2.192   3.289  14.097
   79TMC2    C2 1554   2.276   3.305  14.203
   79TMC2    C3 1555   2.408   3.296  14.184
   79TMC2    C4 1556   2.243   3.249  13.977
   79TMC2    C5 1557   2.379   3.251  13.960
   79TMC2    C6 1558   2.470   3.278  14.063
   79TMC2     C 1559   2.049   3.321  14.110
   79TMC2     O 1560   1.993   3.340  14.003
   79TMC2     H 1561   2.244   3.312  14.306
   79TMC2    H1 1562   2.176   3.216  13.898
   79TMC2    H2 1563   2.578   3.271  14.063
   79TMC2    C7 1564   2.429   3.156  13.862
   79TMC2    C8 1565   2.491   3.321  14.303
   79TMC2    O1 1566   2.531   3.102  13.901
   79TMC2    O2 1567   2.466   3.291  14.420
   79TMC2    O5 1568   2.577   3.419  14.269
   79TMC2    H5 1569   2.580   3.433  14.172
   80TMC2    C1 1570   0.306   1.660   8.524
   80TMC2    C2 1571   0.233   1.634   8.409
   80TMC2    C3 1572   0.253   1.720   8.304
   80TMC2    C4 1573   0.392   1.762   8.531
   80TMC2    C5 1574   0.409   1.844   8.422
   80TMC2    C6 1575   0.331   1.827   8.318
   80TMC2     C 1576   0.299   1.575   8.640
   80TMC2     O 1577   0.398   1.564   8.708
   80TMC2     H 1578   0.168   1.548   8.394
   80TMC2    H1 1579   0.437   1.786   8.627
   80TMC2    H2 1580   0.345   1.889   8.230
   80TMC2    C7 1581   0.466   1.977   8.434
   80TMC2    C8 1582   0.229   1.675   8.164
   80TMC2    O1 1583   0.514   2.016   8.330
   80TMC2    O2 1584   0.239   1.757   8.074
   80TMC2    O5 1585   0.312   1.573   8.165
   80TMC2    H5 1586   0.329   1.530   8.252
   81TMC2    C1 1587   0.919   4.597   9.913
   81TMC2    C2 1588   0.995   4.696   9.858
   81TMC2    C3 1589   0.939   4.772   9.764
   81TMC2    C4 1590   0.796   4.564   9.862
   81TMC2    C5 1591   0.736   4.656   9.782
   81TMC2    C6 1592   0.815   4.749   9.715
   81TMC2     C 1593   0.916   4.628  10.054
   81TMC2     O 1594   0.960   4.734  10.084
   81TMC2     H 1595   1.099   4.701   9.888
   81TMC2    H1 1596   0.740   4.475   9.888
   81TMC2    H2 1597   0.762   0.033   9.656
   81TMC2    C7 1598   0.632   4.728   9.857
   81TMC2    C8 1599   1.022   0.092   9.718
   81TMC2    O1 1600   0.644   0.061   9.871
   81TMC2    O2 1601   1.134   0.102   9.765
   81TMC2    O5 1602   0.994   0.140   9.597
   81TMC2    H5 1603   0.920   0.088   9.559
   82TMC2    C1 1604   4.613   2.960  14.667
   82TMC2    C2 1605   4.639   3.070  14.740
   82TMC2    C3 1606   4.771   3.099  14.762
   82TMC2    C4 1607   4.711   2.875  14.625
   82TMC2    C5 1608   0.050   2.925  14.631
   82TMC2    C6 1609   0.085   3.027  14.708
   82TMC2     C 1610   4.490   2.954  14.587
   82TMC2     O 1611   4.478   2.863  14.506
   82TMC2     H 1612   4.579   3.156  14.766
   82TMC2    H1 1613   4.698   2.792  14.557
   82TMC2    H2 1614   0.188   3.051  14.730
   82TMC2    C7 1615   0.152   2.853  14.557
   82TMC2    C8 1616   0.006   3.213  14.846
   82TMC2    O1 1617   0.127   2.738  14.537
   82TMC2    O2 1618   4.738   3.320  14.839
   82TMC2    O5 1619   0.126   3.192  14.910
   82TMC2    H5 1620   0.136   3.095  14.924
   83TMC2    C1 1621   2.623   0.435  13.856
   83TMC2    C2 1622   2.534   0.490  13.949
   83TMC2    C3 1623   2.584   0.489  14.072
   83TMC2    C4 1624   2.754   0.406  13.876
   83TMC2    C5 1625   2.789   0.407  14.011
   83TMC2    C6 1626   2.699   0.440  14.112
   83TMC2     C 1627   2.549   0.351  13.761
   83TMC2     O 1628   2.434   0.325  13.786
   83TMC2     H 1629   2.430   0.516  13.931
   83TMC2    H1 1630   2.824   0.382  13.797
   83TMC2    H2 1631   2.741   0.452  14.211
   83TMC2    C7 1632   2.883   0.306  14.049
   83TMC2    C8 1633   2.512   0.570  14.170
   83TMC2    O1 1634   2.944   0.268  13.951
   83TMC2    O2 1635   2.484   0.687  14.156
   83TMC2    O5 1636   2.497   0.493  14.282
   83TMC2    H5 1637   2.531   0.401  14.279
   84TMC2    C1 1638   3.656   0.001   8.385
   84TMC2    C2 1639   3.724   0.107   8.440
   84TMC2    C3 1640   3.645   0.214   8.480
   84TMC2    C4 1641   3.522   4.786   8.353
   84TMC2    C5 1642   3.463   0.111   8.389
   84TMC2    C6 1643   3.512   0.223   8.453
   84TMC2     C 1644   3.734   4.665   8.391
   84TMC2     O 1645   3.793   4.641   8.493
   84TMC2     H 1646   3.826   0.081   8.466
   84TMC2    H1 1647   3.477   4.689   8.334
   84TMC2    H2 1648   3.463   0.316   8.479
   84TMC2    C7 1649   3.312   0.121   8.364
   84TMC2    C8 1650   3.690   0.330   8.561
   84TMC2    O1 1651   3.251   0.012   8.356
   84TMC2    O2 1652   3.625   0.434   8.570
   84TMC2    O5 1653   3.816   0.330   8.598
   84TMC2    H5 1654   3.873   0.251   8.584
   85TMC2    C1 1655   4.347   1.911  14.619
   85TMC2    C2 1656   4.356   1.810  14.706
   85TMC2    C3 1657   4.461   1.812  14.787
   85TMC2    C4 1658   4.437   2.004  14.602
   85TMC2    C5 1659   4.547   2.001  14.674
   85TMC2    C6 1660   4.560   1.905  14.768
   85TMC2     C 1661   4.220   1.928  14.554
   85TMC2     O 1662   4.117   1.927  14.621
   85TMC2     H 1663   4.288   1.726  14.716
   85TMC2    H1 1664   4.407   2.085  14.536
   85TMC2    H2 1665   4.642   1.903  14.839
   85TMC2    C7 1666   4.645   2.111  14.679
   85TMC2    C8 1667   4.509   1.683  14.823
   85TMC2    O1 1668   4.757   2.083  14.721
   85TMC2    O2 1669   4.481   1.582  14.759
   85TMC2    O5 1670   4.543   1.690  14.956
   85TMC2    H5 1671   4.534   1.785  14.978
   86TMC2    C1 1672   2.906   4.344   9.149
   86TMC2    C2 1673   2.871   4.459   9.222
   86TMC2    C3 1674   2.839   4.442   9.351
   86TMC2    C4 1675   2.917   4.214   9.204
   86TMC2    C5 1676   2.903   4.206   9.343
   86TMC2    C6 1677   2.860   4.318   9.411
   86TMC2     C 1678   2.971   4.371   9.022
   86TMC2     O 1679   3.048   4.289   8.979
   86TMC2     H 1680   2.867   4.561   9.187
   86TMC2    H1 1681   2.933   4.125   9.144
   86TMC2    H2 1682   2.846   4.305   9.518
   86TMC2    C7 1683   3.024   4.147   9.395
   86TMC2    C8 1684   2.777   4.552   9.420
   86TMC2    O1 1685   3.041   4.165   9.517
   86TMC2    O2 1686   2.806   4.665   9.386
   86TMC2    O5 1687   2.730   4.511   9.545
   86TMC2    H5 1688   2.695   4.419   9.547
   87MPD1     C 1689   1.106   3.991   7.371
   87MPD1    C1 1690   1.237   3.971   7.341
   87MPD1    C2 1691   1.272   3.926   7.213
   87MPD1    C3 1692   1.178   3.890   7.120
   87MPD1    C4 1693   1.046   3.889   7.163
   87MPD1    C5 1694   1.009   3.937   7.291
   87MPD1     H 1695   1.373   3.916   7.174
   87MPD1    H1 1696   0.969   3.863   7.091
   87MPD1    H2 1697   1.079   4.023   7.471
   87MPD1    H3 1698   0.905   3.945   7.320
   87MPD1     N 1699   1.231   3.860   6.989
   87MPD1    H5 1700   1.329   3.882   6.975
   87MPD1    N1 1701   1.333   4.020   7.429
   87MPD1    H6 1702   1.429   3.993   7.407
   87MPD1    H7 1703   1.306   4.004   7.526
   88MPD1     C 1704   4.168   1.626   9.762
   88MPD1    C1 1705   4.044   1.636   9.810
   88MPD1    C2 1706   4.015   1.750   9.884
   88MPD1    C3 1707   4.114   1.847   9.902
   88MPD1    C4 1708   4.243   1.837   9.848
   88MPD1    C5 1709   4.265   1.721   9.781
   88MPD1     H 1710   3.912   1.764   9.914
   88MPD1    H1 1711   4.324   1.906   9.869
   88MPD1    H2 1712   4.193   1.549   9.691
   88MPD1    H3 1713   4.355   1.698   9.725
   88MPD1     N 1714   4.070   1.953   9.978
   88MPD1    H5 1715   3.975   1.954  10.015
   88MPD1    N1 1716   3.943   1.552   9.762
   88MPD1    H6 1717   3.972   1.465   9.719
   88MPD1    H7 1718   3.865   1.546   9.827
   89MPD1     C 1719   2.411   3.586  11.720
   89MPD1    C1 1720   2.340   3.475  11.680
   89MPD1    C2 1721   2.346   3.362  11.754
   89MPD1    C3 1722   2.420   3.356  11.870
   89MPD1    C4 1723   2.469   3.477  11.920
   89MPD1    C5 1724   2.460   3.592  11.848
   89MPD1     H 1725   2.305   3.270  11.714
   89MPD1    H1 1726   2.510   3.497  12.018
   89MPD1    H2 1727   2.429   3.675  11.661
   89MPD1    H3 1728   2.509   3.684  11.876
   89MPD1     N 1729   2.447   3.241  11.945
   89MPD1    H5 1730   2.503   3.259  12.028
   89MPD1    N1 1731   2.277   3.468  11.551
   89MPD1    H6 1732   2.194   3.409  11.556
   89MPD1    H7 1733   2.246   3.560  11.520
   90MPD1     C 1734   0.742   1.851  13.701
   90MPD1    C1 1735   0.786   1.963  13.632
   90MPD1    C2 1736   0.920   1.992  13.629
   90MPD1    C3 1737   1.016   1.910  13.691
   90MPD1    C4 1738   0.967   1.803  13.757
   90MPD1    C5 1739   0.832   1.772  13.762
   90MPD1     H 1740   0.946   2.076  13.566
   90MPD1    H1 1741   1.043   1.743  13.805
   90MPD1    H2 1742   0.638   1.823  13.711
   90MPD1    H3 1743   0.797   1.695  13.830
   90MPD1     N 1744   1.151   1.951  13.710
   90MPD1    H5 1745   1.200   1.900  13.783
   90MPD1    N1 1746   0.692   2.053  13.578
   90MPD1    H6 1747   0.602   2.010  13.558
   90MPD1    H7 1748   0.725   2.088  13.488
   91MPD1     C 1749   3.004   2.420  10.807
   91MPD1    C1 1750   2.877   2.419  10.749
   91MPD1    C2 1751   2.819   2.294  10.720
   91MPD1    C3 1752   2.886   2.180  10.750
   91MPD1    C4 1753   3.009   2.177  10.818
   91MPD1    C5 1754   3.072   2.301  10.836
   91MPD1     H 1755   2.723   2.286  10.671
   91MPD1    H1 1756   3.059   2.084  10.841
   91MPD1    H2 1757   3.054   2.516  10.815
   91MPD1    H3 1758   3.172   2.296  10.878
   91MPD1     N 1759   2.808   2.063  10.719
   91MPD1    H5 1760   2.722   2.075  10.666
   91MPD1    N1 1761   2.828   2.530  10.677
   91MPD1    H6 1762   2.727   2.544  10.671
   91MPD1    H7 1763   2.855   2.621  10.714
   92MPD1     C 1764   2.824   1.058  10.963
   92MPD1    C1 1765   2.693   1.099  10.930
   92MPD1    C2 1766   2.680   1.216  10.861
   92MPD1    C3 1767   2.787   1.304  10.851
   92MPD1    C4 1768   2.904   1.261  10.896
   92MPD1    C5 1769   2.932   1.143  10.946
   92MPD1     H 1770   2.584   1.249  10.823
   92MPD1    H1 1771   2.989   1.327  10.879
   92MPD1    H2 1772   2.844   0.959  11.003
   92MPD1    H3 1773   3.028   1.106  10.981
   92MPD1     N 1774   2.776   1.435  10.789
   92MPD1    H5 1775   2.863   1.487  10.783
   92MPD1    N1 1776   2.581   1.014  10.929
   92MPD1    H6 1777   2.490   1.060  10.929
   92MPD1    H7 1778   2.592   0.943  11.001
   93MPD1     C 1779   1.820   4.188  12.088
   93MPD1    C1 1780   1.734   4.197  12.194
   93MPD1    C2 1781   1.680   4.074  12.236
   93MPD1    C3 1782   1.710   3.952  12.170
   93MPD1    C4 1783   1.802   3.946  12.069
   93MPD1    C5 1784   1.853   4.070  12.028
   93MPD1     H 1785   1.639   4.060  12.335
   93MPD1    H1 1786   1.832   3.848  12.032
   93MPD1    H2 1787   1.874   4.277  12.057
   93MPD1    H3 1788   1.926   4.065  11.948
   93MPD1     N 1789   1.657   3.825  12.204
   93MPD1    H5 1790   1.699   3.741  12.167
   93MPD1    N1 1791   1.727   4.310  12.275
   93MPD1    H6 1792   1.645   4.302  12.335
   93MPD1    H7 1793   1.724   4.391  12.214
   94MPD1     C 1794   3.129   0.143  12.870
   94MPD1    C1 1795   3.204   0.255  12.841
   94MPD1    C2 1796   3.192   0.359  12.935
   94MPD1    C3 1797   3.104   0.343  13.043
   94MPD1    C4 1798   3.020   0.234  13.050
   94MPD1    C5 1799   3.041   0.128  12.973
   94MPD1     H 1800   3.259   0.444  12.933
   94MPD1    H1 1801   2.949   0.228  13.132
   94MPD1    H2 1802   3.145   0.061  12.800
   94MPD1    H3 1803   2.970   0.046  12.974
   94MPD1     N 1804   3.123   0.450  13.135
   94MPD1    H5 1805   3.184   0.528  13.113
   94MPD1    N1 1806   3.301   0.263  12.738
   94MPD1    H6 1807   3.334   0.356  12.713
   94MPD1    H7 1808   3.265   0.213  12.657
   95MPD1     C 1809   1.400   0.444   6.560
   95MPD1    C1 1810   1.348   0.562   6.599
   95MPD1    C2 1811   1.215   0.579   6.562
   95MPD1    C3 1812   1.133   0.480   6.521
   95MPD1    C4 1813   1.191   0.358   6.479
   95MPD1    C5 1814   1.328   0.352   6.491
   95MPD1     H 1815   1.171   0.674   6.588
   95MPD1    H1 1816   1.145   0.272   6.432
   95MPD1    H2 1817   1.508   0.440   6.559
   95MPD1    H3 1818   1.376   0.269   6.440
   95MPD1     N 1819   0.997   0.505   6.512
   95MPD1    H5 1820   0.967   0.595   6.549
   95MPD1    N1 1821   1.418   0.672   6.655
   95MPD1    H6 1822   1.501   0.651   6.709
   95MPD1    H7 1823   1.357   0.721   6.720
   96MPD1     C 1824   4.609   0.835  13.148
   96MPD1    C1 1825   4.492   0.774  13.115
   96MPD1    C2 1826   4.388   0.863  13.088
   96MPD1    C3 1827   4.408   0.999  13.088
   96MPD1    C4 1828   4.532   1.053  13.108
   96MPD1    C5 1829   4.637   0.967  13.142
   96MPD1     H 1830   4.289   0.820  13.081
   96MPD1    H1 1831   4.545   1.160  13.115
   96MPD1    H2 1832   4.693   0.777  13.185
   96MPD1    H3 1833   4.738   0.998  13.167
   96MPD1     N 1834   4.303   1.091  13.069
   96MPD1    H5 1835   4.329   1.183  13.036
   96MPD1    N1 1836   4.469   0.640  13.142
   96MPD1    H6 1837   4.393   0.605  13.085
   96MPD1    H7 1838   4.551   0.582  13.124
   97MPD1     C 1839   3.958   4.506  12.172
   97MPD1    C1 1840   4.009   4.416  12.077
   97MPD1    C2 1841   3.980   4.282  12.084
   97MPD1    C3 1842   3.923   4.236  12.204
   97MPD1    C4 1843   3.898   4.328  12.303
   97MPD1    C5 1844   3.907   4.460  12.281
   97MPD1     H 1845   4.016   4.214  12.008
   97MPD1    H1 1846   3.849   4.295  12.394
   97MPD1    H2 1847   3.969   4.613  12.162
   97MPD1    H3 1848   3.866   4.527  12.356
   97MPD1     N 1849   3.912   4.099  12.233
   97MPD1    H5 1850   3.878   4.076  12.326
   97MPD1    N1 1851   4.050   4.475  11.956
   97MPD1    H6 1852   4.109   4.418  11.896
   97MPD1    H7 1853   4.092   4.567  11.971
   98MPD1     C 1854   3.202   0.769  10.883
   98MPD1    C1 1855   3.241   0.660  10.808
   98MPD1    C2 1856   3.155   0.625  10.701
   98MPD1    C3 1857   3.035   0.687  10.690
   98MPD1    C4 1858   3.005   0.796  10.773
   98MPD1    C5 1859   3.089   0.831  10.874
   98MPD1     H 1860   3.181   0.543  10.635
   98MPD1    H1 1861   2.914   0.853  10.762
   98MPD1    H2 1862   3.278   0.823  10.938
   98MPD1    H3 1863   3.076   0.910  10.947
   98MPD1     N 1864   2.953   0.654  10.587
   98MPD1    H5 1865   2.996   0.594  10.517
   98MPD1    N1 1866   3.379   0.621  10.806
   98MPD1    H6 1867   3.430   0.689  10.750
   98MPD1    H7 1868   3.384   0.526  10.770
   99MPD1     C 1869   0.586   1.871   6.438
   99MPD1    C1 1870   0.496   1.948   6.515
   99MPD1    C2 1871   0.535   1.995   6.638
   99MPD1    C3 1872   0.668   1.972   6.687
   99MPD1    C4 1873   0.750   1.898   6.607
   99MPD1    C5 1874   0.715   1.851   6.486
   99MPD1     H 1875   0.463   2.062   6.683
   99MPD1    H1 1876   0.854   1.876   6.629
   99MPD1    H2 1877   0.557   1.827   6.343
   99MPD1    H3 1878   0.791   1.805   6.423
   99MPD1     N 1879   0.721   2.021   6.809
   99MPD1    H5 1880   0.820   2.001   6.822
   99MPD1    N1 1881   0.363   1.950   6.480
   99MPD1    H6 1882   0.355   1.936   6.380
   99MPD1    H7 1883   0.330   2.046   6.491
  100MPD1     C 1884   0.063   1.359  14.714
  100MPD1    C1 1885   0.075   1.489  14.668
  100MPD1    C2 1886   0.192   1.515  14.592
  100MPD1    C3 1887   0.272   1.409  14.555
  100MPD1    C4 1888   0.248   1.281  14.580
  100MPD1    C5 1889   0.140   1.254  14.663
  100MPD1     H 1890   0.200   1.617  14.556
  100MPD1    H1 1891   0.307   1.202  14.535
  100MPD1    H2 1892   4.767   1.323  14.770
  100MPD1    H3 1893   0.123   1.150  14.688
  100MPD1     N 1894   0.395   1.419  14.473
  100MPD1    H5 1895   0.438   1.334  14.438
  100MPD1    N1 1896   0.006   1.595  14.727
  100MPD1    H6 1897   4.700   1.576  14.755
  100MPD1    H7 1898   0.004   1.666  14.654
  101MPD1     C 1899   2.114   1.332   7.738
  101MPD1    C1 1900   2.239   1.367   7.773
  101MPD1    C2 1901   2.279   1.485   7.722
  101MPD1    C3 1902   2.203   1.583   7.656
  101MPD1    C4 1903   2.068   1.558   7.643
  101MPD1    C5 1904   2.035   1.437   7.699
  101MPD1     H 1905   2.385   1.505   7.736
  101MPD1    H1 1906   1.994   1.629   7.608
  101MPD1    H2 1907   2.066   1.242   7.773
  101MPD1    H3 1908   1.929   1.418   7.690
  101MPD1     N 1909   2.264   1.697   7.605
  101MPD1    H5 1910   2.354   1.722   7.644
  101MPD1    N1 1911   2.339   1.274   7.817
  101MPD1    H6 1912   2.309   1.200   7.880
  101MPD1    H7 1913   2.420   1.323   7.856
  102MPD1     C 1914   1.113   4.282   7.138
  102MPD1    C1 1915   1.154   4.364   7.243
  102MPD1    C2 1916   1.186   4.494   7.217
  102MPD1    C3 1917   1.182   4.550   7.091
  102MPD1    C4 1918   1.154   4.462   6.986
  102MPD1    C5 1919   1.131   4.324   7.008
  102MPD1     H 1920   1.204   4.557   7.304
  102MPD1    H1 1921   1.155   4.491   6.882
  102MPD1    H2 1922   1.088   4.177   7.144
  102MPD1    H3 1923   1.102   4.253   6.932
  102MPD1     N 1924   1.205   4.687   7.064
  102MPD1    H5 1925   1.190   4.718   6.968
  102MPD1    N1 1926   1.137   4.318   7.374
  102MPD1    H6 1927   1.217   4.353   7.425
  102MPD1    H7 1928   1.134   4.217   7.383
  103MPD1     C 1929   0.856   0.886   6.999
  103MPD1    C1 1930   0.942   0.845   7.097
  103MPD1    C2 1931   0.992   0.715   7.083
  103MPD1    C3 1932   0.973   0.636   6.972
  103MPD1    C4 1933   0.899   0.685   6.872
  103MPD1    C5 1934   0.831   0.810   6.883
  103MPD1     H 1935   1.068   0.680   7.152
  103MPD1    H1 1936   0.876   0.622   6.787
  103MPD1    H2 1937   0.804   0.981   7.002
  103MPD1    H3 1938   0.758   0.846   6.812
  103MPD1     N 1939   1.041   0.518   6.956
  103MPD1    H5 1940   1.035   0.467   6.869
  103MPD1    N1 1941   0.963   0.919   7.215
  103MPD1    H6 1942   0.956   1.018   7.194
  103MPD1    H7 1943   1.059   0.920   7.249
  104MPD1     C 1944   4.522   3.695  12.506
  104MPD1    C1 1945   4.483   3.761  12.393
  104MPD1    C2 1946   4.390   3.859  12.405
  104MPD1    C3 1947   4.356   3.915  12.527
  104MPD1    C4 1948   4.394   3.845  12.636
  104MPD1    C5 1949   4.474   3.735  12.629
  104MPD1     H 1950   4.361   3.910  12.314
  104MPD1    H1 1951   4.368   3.888  12.732
  104MPD1    H2 1952   4.596   3.616  12.500
  104MPD1    H3 1953   4.532   3.697  12.713
  104MPD1     N 1954   4.276   4.029  12.544
  104MPD1    H5 1955   4.251   4.054  12.639
  104MPD1    N1 1956   4.511   3.710  12.270
  104MPD1    H6 1957   4.609   3.682  12.269
  104MPD1    H7 1958   4.515   3.784  12.200
  105MPD1     C 1959   3.054   1.108  14.270
  105MPD1    C1 1960   3.109   1.029  14.168
  105MPD1    C2 1961   3.125   1.082  14.044
  105MPD1    C3 1962   3.092   1.213  14.019
  105MPD1    C4 1963   3.043   1.293  14.119
  105MPD1    C5 1964   3.017   1.236  14.243
  105MPD1     H 1965   3.164   1.016  13.968
  105MPD1    H1 1966   3.006   1.393  14.098
  105MPD1    H2 1967   3.030   1.059  14.364
  105MPD1    H3 1968   2.964   1.302  14.311
  105MPD1     N 1969   3.115   1.279  13.897
  105MPD1    H5 1970   3.108   1.380  13.901
  105MPD1    N1 1971   3.138   0.897  14.197
  105MPD1    H6 1972   3.211   0.864  14.134
  105MPD1    H7 1973   3.147   0.872  14.295
  106MPD1     C 1974   3.089   1.751   7.282
  106MPD1    C1 1975   3.171   1.639   7.288
  106MPD1    C2 1976   3.137   1.534   7.369
  106MPD1    C3 1977   3.012   1.533   7.424
  106MPD1    C4 1978   2.923   1.637   7.411
  106MPD1    C5 1979   2.967   1.750   7.344
  106MPD1     H 1980   3.198   1.445   7.379
  106MPD1    H1 1981   2.819   1.638   7.441
  106MPD1    H2 1982   3.119   1.840   7.227
  106MPD1    H3 1983   2.907   1.840   7.335
  106MPD1     N 1984   2.960   1.430   7.509
  106MPD1    H5 1985   2.861   1.436   7.529
  106MPD1    N1 1986   3.302   1.650   7.241
  106MPD1    H6 1987   3.290   1.697   7.151
  106MPD1    H7 1988   3.358   1.567   7.221
  107MPD1     C 1989   4.758   1.823  13.864
  107MPD1    C1 1990   4.770   1.955  13.909
  107MPD1    C2 1991   4.652   2.030  13.921
  107MPD1    C3 1992   4.536   1.984  13.864
  107MPD1    C4 1993   4.526   1.862  13.802
  107MPD1    C5 1994   4.640   1.779  13.808
  107MPD1     H 1995   4.659   2.125  13.974
  107MPD1    H1 1996   4.437   1.821  13.757
  107MPD1    H2 1997   0.055   1.758  13.855
  107MPD1    H3 1998   4.628   1.682  13.762
  107MPD1     N 1999   4.431   2.075  13.873
  107MPD1    H5 2000   4.454   2.169  13.904
  107MPD1    N1 2001   0.096   1.989  13.975
  107MPD1    H6 2002   0.092   2.090  13.966
  107MPD1    H7 2003   0.176   1.966  13.916
  108MPD1     C 2004   3.105   0.657  11.696
  108MPD1    C1 2005   3.232   0.698  11.659
  108MPD1    C2 2006   3.330   0.600  11.669
  108MPD1    C3 2007   3.299   0.467  11.701
  108MPD1    C4 2008   3.174   0.425  11.730
  108MPD1    C5 2009   3.082   0.528  11.742
  108MPD1     H 2010   3.432   0.631  11.652
  108MPD1    H1 2011   3.152   0.321  11.753
  108MPD1    H2 2012   3.021   0.726  11.696
  108MPD1    H3 2013   2.982   0.497  11.771
  108MPD1     N 2014   3.403   0.367  11.704
  108MPD1    H5 2015   3.373   0.277  11.740
  108MPD1    N1 2016   3.253   0.835  11.629
  108MPD1    H6 2017   3.176   0.873  11.575
  108MPD1    H7 2018   3.340   0.847  11.578
  109MPD1     C 2019   3.800   2.702   9.843
  109MPD1    C1 2020   3.863   2.711   9.724
  109MPD1    C2 2021   3.816   2.797   9.633
  109MPD1    C3 2022   3.733   2.897   9.664
  109MPD1    C4 2023   3.687   2.902   9.794
  109MPD1    C5 2024   3.712   2.800   9.881
  109MPD1     H 2025   3.833   2.786   9.527
  109MPD1    H1 2026   3.613   2.976   9.821
  109MPD1    H2 2027   3.810   2.627   9.921
  109MPD1    H3 2028   3.670   2.796   9.981
  109MPD1     N 2029   3.695   2.982   9.558
  109MPD1    H5 2030   3.744   2.969   9.470
  109MPD1    N1 2031   3.953   2.613   9.680
  109MPD1    H6 2032   3.997   2.563   9.757
  109MPD1    H7 2033   4.019   2.659   9.617
  110MPD1     C 2034   2.945   3.429   8.910
  110MPD1    C1 2035   2.931   3.413   9.046
  110MPD1    C2 2036   3.049   3.376   9.110
  110MPD1    C3 2037   3.175   3.360   9.044
  110MPD1    C4 2038   3.181   3.397   8.915
  110MPD1    C5 2039   3.069   3.429   8.851
  110MPD1     H 2040   3.044   3.361   9.217
  110MPD1    H1 2041   3.272   3.373   8.861
  110MPD1    H2 2042   2.859   3.449   8.847
  110MPD1    H3 2043   3.061   3.457   8.747
  110MPD1     N 2044   3.296   3.312   9.101
  110MPD1    H5 2045   3.381   3.331   9.049
  110MPD1    N1 2046   2.811   3.405   9.105
  110MPD1    H6 2047   2.735   3.459   9.063
  110MPD1    H7 2048   2.812   3.427   9.204
  111MPD1     C 2049   2.442   2.483  12.572
  111MPD1    C1 2050   2.535   2.522  12.474
  111MPD1    C2 2051   2.626   2.631  12.489
  111MPD1    C3 2052   2.622   2.698  12.613
  111MPD1    C4 2053   2.538   2.655  12.713
  111MPD1    C5 2054   2.445   2.553  12.692
  111MPD1     H 2055   2.685   2.663  12.404
  111MPD1    H1 2056   2.539   2.706  12.809
  111MPD1    H2 2057   2.372   2.401  12.564
  111MPD1    H3 2058   2.372   2.519  12.765
  111MPD1     N 2059   2.704   2.807  12.647
  111MPD1    H5 2060   2.714   2.844  12.741
  111MPD1    N1 2061   2.560   2.437  12.366
  111MPD1    H6 2062   2.576   2.499  12.287
  111MPD1    H7 2063   2.477   2.385  12.337
  112MPD1     C 2064   4.729   0.466  13.336
  112MPD1    C1 2065   4.666   0.408  13.446
  112MPD1    C2 2066   4.679   0.267  13.462
  112MPD1    C3 2067   4.781   0.203  13.394
  112MPD1    C4 2068   0.064   0.267  13.302
  112MPD1    C5 2069   0.031   0.397  13.268
  112MPD1     H 2070   4.615   0.215  13.532
  112MPD1    H1 2071   0.147   0.222  13.249
  112MPD1    H2 2072   4.712   0.571  13.314
  112MPD1    H3 2073   0.088   0.444  13.189
  112MPD1     N 2074   0.036   0.069  13.433
  112MPD1    H5 2075   0.126   0.048  13.391
  112MPD1    N1 2076   4.557   0.474  13.506
  112MPD1    H6 2077   4.539   0.431  13.596
  112MPD1    H7 2078   4.573   0.574  13.511
  113MPD1     C 2079   2.705   2.249  13.803
  113MPD1    C1 2080   2.692   2.204  13.933
  113MPD1    C2 2081   2.668   2.064  13.948
  113MPD1    C3 2082   2.681   1.976  13.843
  113MPD1    C4 2083   2.724   2.024  13.719
  113MPD1    C5 2084   2.721   2.160  13.702
  113MPD1     H 2085   2.641   2.026  14.046
  113MPD1    H1 2086   2.759   1.955  13.644
  113MPD1    H2 2087   2.723   2.355  13.789
  113MPD1    H3 2088   2.746   2.187  13.600
  113MPD1     N 2089   2.669   1.840  13.858
  113MPD1    H5 2090   2.704   1.778  13.785
  113MPD1    N1 2091   2.672   2.293  14.038
  113MPD1    H6 2092   2.688   2.244  14.126
  113MPD1    H7 2093   2.722   2.381  14.027
  114MPD1     C 2094   0.810   0.479  14.365
  114MPD1    C1 2095   0.913   0.482  14.273
  114MPD1    C2 2096   1.025   0.555  14.304
  114MPD1    C3 2097   1.032   0.634  14.420
  114MPD1    C4 2098   0.914   0.651  14.485
  114MPD1    C5 2099   0.813   0.566  14.466
  114MPD1     H 2100   1.114   0.541  14.243
  114MPD1    H1 2101   0.913   0.703  14.580
  114MPD1    H2 2102   0.722   0.416  14.360
  114MPD1    H3 2103   0.729   0.571  14.534
  114MPD1     N 2104   1.140   0.702  14.475
  114MPD1    H5 2105   1.131   0.750  14.564
  114MPD1    N1 2106   0.915   0.389  14.167
  114MPD1    H6 2107   0.829   0.342  14.139
  114MPD1    H7 2108   0.954   0.442  14.090
  115MPD1     C 2109   1.205   4.074  13.347
  115MPD1    C1 2110   1.200   4.195  13.288
  115MPD1    C2 2111   1.234   4.211  13.154
  115MPD1    C3 2112   1.293   4.106  13.084
  115MPD1    C4 2113   1.308   3.987  13.149
  115MPD1    C5 2114   1.258   3.969  13.273
  115MPD1     H 2115   1.223   4.306  13.103
  115MPD1    H1 2116   1.340   3.894  13.104
  115MPD1    H2 2117   1.179   4.061  13.451
  115MPD1    H3 2118   1.263   3.868  13.313
  115MPD1     N 2119   1.333   4.106  12.945
  115MPD1    H5 2120   1.369   4.021  12.903
  115MPD1    N1 2121   1.110   4.289  13.344
  115MPD1    H6 2122   1.115   4.378  13.295
  115MPD1    H7 2123   1.128   4.295  13.444
  116MPD1     C 2124   4.212   0.939  10.964
  116MPD1    C1 2125   4.155   1.053  10.913
  116MPD1    C2 2126   4.090   1.138  11.005
  116MPD1    C3 2127   4.107   1.125  11.141
  116MPD1    C4 2128   4.187   1.022  11.193
  116MPD1    C5 2129   4.240   0.934  11.103
  116MPD1     H 2130   4.021   1.210  10.964
  116MPD1    H1 2131   4.216   1.012  11.297
  116MPD1    H2 2132   4.245   0.855  10.904
  116MPD1    H3 2133   4.296   0.851  11.145
  116MPD1     N 2134   4.049   1.224  11.223
  116MPD1    H5 2135   3.996   1.297  11.176
  116MPD1    N1 2136   4.129   1.059  10.773
  116MPD1    H6 2137   4.124   1.154  10.738
  116MPD1    H7 2138   4.194   0.998  10.723
  117MPD1     C 2139   1.031   2.747   7.517
  117MPD1    C1 2140   1.042   2.623   7.444
  117MPD1    C2 2141   1.030   2.637   7.308
  117MPD1    C3 2142   1.027   2.757   7.246
  117MPD1    C4 2143   1.020   2.879   7.322
  117MPD1    C5 2144   1.016   2.872   7.454
  117MPD1     H 2145   1.042   2.548   7.248
  117MPD1    H1 2146   1.044   2.972   7.272
  117MPD1    H2 2147   1.042   2.748   7.625
  117MPD1    H3 2148   1.010   2.967   7.506
  117MPD1     N 2149   1.045   2.766   7.111
  117MPD1    H5 2150   1.072   2.860   7.083
  117MPD1    N1 2151   1.071   2.506   7.515
  117MPD1    H6 2152   1.015   2.428   7.480
  117MPD1    H7 2153   1.066   2.515   7.616
  118MPD1     C 2154   3.669   3.093  11.498
  118MPD1    C1 2155   3.718   3.111  11.368
  118MPD1    C2 2156   3.848   3.063  11.348
  118MPD1    C3 2157   3.922   3.000  11.446
  118MPD1    C4 2158   3.863   2.982  11.568
  118MPD1    C5 2159   3.735   3.022  11.595
  118MPD1     H 2160   3.897   3.090  11.255
  118MPD1    H1 2161   3.906   2.919  11.645
  118MPD1    H2 2162   3.574   3.143  11.513
  118MPD1    H3 2163   3.693   3.004  11.693
  118MPD1     N 2164   4.057   2.982  11.422
  118MPD1    H5 2165   4.093   2.981  11.327
  118MPD1    N1 2166   3.656   3.185  11.266
  118MPD1    H6 2167   3.565   3.221  11.292
  118MPD1    H7 2168   3.719   3.252  11.221
  119MPD1     C 2169   2.528   1.880   9.377
  119MPD1    C1 2170   2.653   1.866   9.431
  119MPD1    C2 2171   2.667   1.806   9.556
  119MPD1    C3 2172   2.552   1.759   9.620
  119MPD1    C4 2173   2.418   1.783   9.570
  119MPD1    C5 2174   2.409   1.842   9.445
  119MPD1     H 2175   2.764   1.786   9.600
  119MPD1    H1 2176   2.331   1.747   9.625
  119MPD1    H2 2177   2.524   1.910   9.273
  119MPD1    H3 2178   2.315   1.855   9.393
  119MPD1     N 2179   2.576   1.698   9.741
  119MPD1    H5 2180   2.672   1.680   9.770
  119MPD1    N1 2181   2.773   1.878   9.358
  119MPD1    H6 2182   2.762   1.950   9.287
  119MPD1    H7 2183   2.862   1.877   9.407
  120MPD1     C 2184   2.108   0.765   6.310
  120MPD1    C1 2185   2.008   0.765   6.405
  120MPD1    C2 2186   2.044   0.816   6.527
  120MPD1    C3 2187   2.163   0.877   6.556
  120MPD1    C4 2188   2.253   0.886   6.454
  120MPD1    C5 2189   2.230   0.824   6.332
  120MPD1     H 2190   1.960   0.812   6.595
  120MPD1    H1 2191   2.345   0.941   6.471
  120MPD1    H2 2192   2.083   0.720   6.215
  120MPD1    H3 2193   2.301   0.849   6.254
  120MPD1     N 2194   2.194   0.936   6.683
  120MPD1    H5 2195   2.276   0.995   6.687
  120MPD1    N1 2196   1.892   0.684   6.388
  120MPD1    H6 2197   1.866   0.680   6.290
  120MPD1    H7 2198   1.815   0.723   6.442
  121MPD1     C 2199   1.528   2.335   9.032
  121MPD1    C1 2200   1.444   2.234   9.018
  121MPD1    C2 2201   1.343   2.207   9.107
  121MPD1    C3 2202   1.326   2.286   9.215
  121MPD1    C4 2203   1.418   2.395   9.234
  121MPD1    C5 2204   1.509   2.420   9.135
  121MPD1     H 2205   1.288   2.116   9.087
  121MPD1    H1 2206   1.417   2.457   9.323
  121MPD1    H2 2207   1.614   2.344   8.967
  121MPD1    H3 2208   1.576   2.504   9.150
  121MPD1     N 2209   1.221   2.266   9.307
  121MPD1    H5 2210   1.166   2.183   9.286
  121MPD1    N1 2211   1.487   2.142   8.915
  121MPD1    H6 2212   1.407   2.090   8.880
  121MPD1    H7 2213   1.546   2.179   8.841
  122MPD1     C 2214   1.166   3.157  13.611
  122MPD1    C1 2215   1.149   3.068  13.506
  122MPD1    C2 2216   1.104   3.133  13.392
  122MPD1    C3 2217   1.040   3.258  13.397
  122MPD1    C4 2218   1.038   3.327  13.513
  122MPD1    C5 2219   1.108   3.278  13.620
  122MPD1     H 2220   1.090   3.074  13.302
  122MPD1    H1 2221   0.982   3.419  13.524
  122MPD1    H2 2222   1.207   3.129  13.707
  122MPD1    H3 2223   1.112   3.327  13.717
  122MPD1     N 2224   0.969   3.290  13.283
  122MPD1    H5 2225   1.001   3.250  13.196
  122MPD1    N1 2226   1.214   2.943  13.517
  122MPD1    H6 2227   1.199   2.915  13.614
  122MPD1    H7 2228   1.155   2.870  13.477
  123MPD1     C 2229   0.743   2.282  12.412
  123MPD1    C1 2230   0.697   2.182  12.497
  123MPD1    C2 2231   0.650   2.226  12.614
  123MPD1    C3 2232   0.637   2.359  12.646
  123MPD1    C4 2233   0.676   2.456  12.554
  123MPD1    C5 2234   0.739   2.416  12.439
  123MPD1     H 2235   0.645   2.151  12.692
  123MPD1    H1 2236   0.672   2.564  12.561
  123MPD1    H2 2237   0.778   2.259  12.312
  123MPD1    H3 2238   0.777   2.496  12.376
  123MPD1     N 2239   0.574   2.409  12.764
  123MPD1    H5 2240   0.576   2.509  12.781
  123MPD1    N1 2241   0.737   2.053  12.476
  123MPD1    H6 2242   0.676   1.987  12.524
  123MPD1    H7 2243   0.747   2.032  12.377
  124MPD1     C 2244   1.057   0.101  12.954
  124MPD1    C1 2245   0.992   0.155  13.060
  124MPD1    C2 2246   0.883   0.228  13.023
  124MPD1    C3 2247   0.817   0.229  12.904
  124MPD1    C4 2248   0.883   0.165  12.808
  124MPD1    C5 2249   0.999   0.105  12.824
  124MPD1     H 2250   0.836   0.290  13.098
  124MPD1    H1 2251   0.846   0.159  12.706
  124MPD1    H2 2252   1.154   0.055  12.971
  124MPD1    H3 2253   1.044   0.056  12.739
  124MPD1     N 2254   0.691   0.300  12.869
  124MPD1    H5 2255   0.664   0.313  12.772
  124MPD1    N1 2256   1.049   0.181  13.184
  124MPD1    H6 2257   1.097   0.096  13.213
  124MPD1    H7 2258   0.987   0.207  13.260
  125MPD1     C 2259   4.127   2.507   5.653
  125MPD1    C1 2260   4.122   2.642   5.635
  125MPD1    C2 2261   4.202   2.722   5.706
  125MPD1    C3 2262   4.281   2.672   5.807
  125MPD1    C4 2263   4.269   2.539   5.839
  125MPD1    C5 2264   4.199   2.457   5.751
  125MPD1     H 2265   4.203   2.829   5.690
  125MPD1    H1 2266   4.313   2.501   5.931
  125MPD1    H2 2267   4.071   2.434   5.595
  125MPD1    H3 2268   4.200   2.349   5.758
  125MPD1     N 2269   4.352   2.748   5.903
  125MPD1    H5 2270   4.400   2.706   5.982
  125MPD1    N1 2271   4.046   2.690   5.529
  125MPD1    H6 2272   3.970   2.624   5.513
  125MPD1    H7 2273   3.997   2.771   5.566
  126MPD1     C 2274   1.602   1.758  13.459
  126MPD1    C1 2275   1.578   1.621  13.493
  126MPD1    C2 2276   1.450   1.581  13.514
  126MPD1    C3 2277   1.337   1.664  13.495
  126MPD1    C4 2278   1.365   1.791  13.451
  126MPD1    C5 2279   1.489   1.838  13.428
  126MPD1     H 2280   1.425   1.480  13.544
  126MPD1    H1 2281   1.282   1.852  13.419
  126MPD1    H2 2282   1.700   1.798  13.438
  126MPD1    H3 2283   1.507   1.940  13.396
  126MPD1     N 2284   1.205   1.608  13.501
  126MPD1    H5 2285   1.193   1.521  13.552
  126MPD1    N1 2286   1.688   1.537  13.525
  126MPD1    H6 2287   1.663   1.439  13.536
  126MPD1    H7 2288   1.773   1.555  13.471
  127MPD1     C 2289   4.004   1.779   7.151
  127MPD1    C1 2290   4.028   1.850   7.266
  127MPD1    C2 2291   4.090   1.972   7.253
  127MPD1    C3 2292   4.143   2.014   7.133
  127MPD1    C4 2293   4.131   1.931   7.024
  127MPD1    C5 2294   4.066   1.810   7.038
  127MPD1     H 2295   4.098   2.038   7.339
  127MPD1    H1 2296   4.155   1.965   6.924
  127MPD1    H2 2297   3.933   1.697   7.158
  127MPD1    H3 2298   4.048   1.742   6.956
  127MPD1     N 2299   4.208   2.140   7.106
  127MPD1    H5 2300   4.236   2.157   7.010
  127MPD1    N1 2301   3.947   1.825   7.379
  127MPD1    H6 2302   3.941   1.724   7.390
  127MPD1    H7 2303   3.966   1.870   7.468
  128MPD1     C 2304   4.786   2.980   7.425
  128MPD1    C1 2305   4.681   2.923   7.497
  128MPD1    C2 2306   4.577   2.864   7.430
  128MPD1    C3 2307   4.591   2.829   7.295
  128MPD1    C4 2308   4.699   2.875   7.226
  128MPD1    C5 2309   0.002   2.957   7.288
  128MPD1     H 2310   4.498   2.825   7.494
  128MPD1    H1 2311   4.714   2.838   7.125
  128MPD1    H2 2312   0.075   3.039   7.471
  128MPD1    H3 2313   0.077   2.995   7.219
  128MPD1     N 2314   4.495   2.751   7.226
  128MPD1    H5 2315   4.521   2.740   7.128
  128MPD1    N1 2316   4.662   2.966   7.629
  128MPD1    H6 2317   4.598   2.905   7.680
  128MPD1    H7 2318   4.751   2.966   7.678
  129MPD1     C 2319   0.243   1.700  13.164
  129MPD1    C1 2320   0.173   1.814  13.122
  129MPD1    C2 2321   0.195   1.860  12.998
  129MPD1    C3 2322   0.288   1.802  12.907
  129MPD1    C4 2323   0.359   1.700  12.960
  129MPD1    C5 2324   0.339   1.647  13.081
  129MPD1     H 2325   0.143   1.946  12.957
  129MPD1    H1 2326   0.439   1.650  12.906
  129MPD1    H2 2327   0.222   1.645  13.255
  129MPD1    H3 2328   0.393   1.558  13.110
  129MPD1     N 2329   0.314   1.860  12.778
  129MPD1    H5 2330   0.278   1.953  12.760
  129MPD1    N1 2331   0.055   1.851  13.192
  129MPD1    H6 2332   0.066   1.838  13.292
  129MPD1    H7 2333   0.028   1.949  13.186
  130MPD1     C 2334   4.029   0.687  12.995
  130MPD1    C1 2335   4.119   0.635  12.902
  130MPD1    C2 2336   4.194   0.530  12.948
  130MPD1    C3 2337   4.181   0.481  13.080
  130MPD1    C4 2338   4.110   0.550  13.168
  130MPD1    C5 2339   4.025   0.651  13.129
  130MPD1     H 2340   4.255   0.473  12.878
  130MPD1    H1 2341   4.106   0.527  13.274
  130MPD1    H2 2342   3.952   0.759  12.970
  130MPD1    H3 2343   3.963   0.692  13.207
  130MPD1     N 2344   4.255   0.368  13.134
  130MPD1    H5 2345   4.249   0.346  13.233
  130MPD1    N1 2346   4.099   0.654  12.766
  130MPD1    H6 2347   4.186   0.647  12.714
  130MPD1    H7 2348   4.056   0.742  12.738
  131MPD1     C 2349   3.473   1.187  11.250
  131MPD1    C1 2350   3.384   1.270  11.191
  131MPD1    C2 2351   3.259   1.219  11.188
  131MPD1    C3 2352   3.213   1.118  11.269
  131MPD1    C4 2353   3.309   1.034  11.328
  131MPD1    C5 2354   3.440   1.071  11.319
  131MPD1     H 2355   3.182   1.287  11.152
  131MPD1    H1 2356   3.283   0.952  11.394
  131MPD1    H2 2357   3.577   1.217  11.244
  131MPD1    H3 2358   3.521   1.011  11.359
  131MPD1     N 2359   3.081   1.099  11.297
  131MPD1    H5 2360   3.016   1.161  11.249
  131MPD1    N1 2361   3.428   1.381  11.120
  131MPD1    H6 2362   3.351   1.448  11.112
  131MPD1    H7 2363   3.502   1.427  11.173
  132MPD1     C 2364   2.353   0.348  11.346
  132MPD1    C1 2365   2.374   0.415  11.228
  132MPD1    C2 2366   2.453   0.520  11.212
  132MPD1    C3 2367   2.502   0.585  11.322
  132MPD1    C4 2368   2.482   0.523  11.443
  132MPD1    C5 2369   2.411   0.407  11.453
  132MPD1     H 2370   2.467   0.555  11.110
  132MPD1    H1 2371   2.511   0.561  11.540
  132MPD1    H2 2372   2.283   0.266  11.357
  132MPD1    H3 2373   2.399   0.374  11.555
  132MPD1     N 2374   2.583   0.703  11.332
  132MPD1    H5 2375   2.607   0.721  11.429
  132MPD1    N1 2376   2.327   0.346  11.114
  132MPD1    H6 2377   2.332   0.391  11.023
  132MPD1    H7 2378   2.234   0.305  11.121
  133MPD1     C 2379   3.309   1.733   7.601
  133MPD1    C1 2380   3.405   1.818   7.548
  133MPD1    C2 2381   3.423   1.942   7.610
  133MPD1    C3 2382   3.364   1.970   7.733
  133MPD1    C4 2383   3.269   1.883   7.783
  133MPD1    C5 2384   3.241   1.770   7.716
  133MPD1     H 2385   3.499   2.006   7.566
  133MPD1    H1 2386   3.213   1.900   7.874
  133MPD1    H2 2387   3.288   1.637   7.555
  133MPD1    H3 2388   3.174   1.692   7.751
  133MPD1     N 2389   3.401   2.090   7.807
  133MPD1    H5 2390   3.474   2.143   7.761
  133MPD1    N1 2391   3.482   1.774   7.439
  133MPD1    H6 2392   3.498   1.856   7.381
  133MPD1    H7 2393   3.422   1.718   7.380
  134MPD1     C 2394   3.642   4.016  13.394
  134MPD1    C1 2395   3.772   4.060  13.367
  134MPD1    C2 2396   3.865   4.025  13.460
  134MPD1    C3 2397   3.832   3.965  13.577
  134MPD1    C4 2398   3.706   3.906  13.590
  134MPD1    C5 2399   3.609   3.934  13.500
  134MPD1     H 2400   3.958   4.081  13.457
  134MPD1    H1 2401   3.676   3.865  13.686
  134MPD1    H2 2402   3.557   4.038  13.330
  134MPD1    H3 2403   3.508   3.905  13.527
  134MPD1     N 2404   3.941   3.941  13.673
  134MPD1    H5 2405   4.036   3.975  13.660
  134MPD1    N1 2406   3.797   4.137  13.259
  134MPD1    H6 2407   3.895   4.162  13.245
  134MPD1    H7 2408   3.763   4.099  13.171
  135MPD1     C 2409   1.716   1.128   6.844
  135MPD1    C1 2410   1.638   1.180   6.944
  135MPD1    C2 2411   1.500   1.170   6.930
  135MPD1    C3 2412   1.444   1.115   6.811
  135MPD1    C4 2413   1.522   1.064   6.715
  135MPD1    C5 2414   1.658   1.069   6.735
  135MPD1     H 2415   1.430   1.206   7.005
  135MPD1    H1 2416   1.481   1.015   6.627
  135MPD1    H2 2417   1.824   1.123   6.845
  135MPD1    H3 2418   1.721   1.026   6.658
  135MPD1     N 2419   1.299   1.111   6.782
  135MPD1    H5 2420   1.280   1.075   6.689
  135MPD1    N1 2421   1.682   1.250   7.053
  135MPD1    H6 2422   1.780   1.229   7.071
  135MPD1    H7 2423   1.619   1.228   7.130
  136MPD1     C 2424   2.757   3.368   9.517
  136MPD1    C1 2425   2.877   3.410   9.453
  136MPD1    C2 2426   2.978   3.323   9.456
  136MPD1    C3 2427   2.967   3.198   9.514
  136MPD1    C4 2428   2.852   3.160   9.572
  136MPD1    C5 2429   2.746   3.249   9.581
  136MPD1     H 2430   3.072   3.347   9.407
  136MPD1    H1 2431   2.839   3.067   9.626
  136MPD1    H2 2432   2.671   3.434   9.524
  136MPD1    H3 2433   2.652   3.221   9.627
  136MPD1     N 2434   3.079   3.117   9.518
  136MPD1    H5 2435   3.154   3.161   9.465
  136MPD1    N1 2436   2.881   3.526   9.371
  136MPD1    H6 2437   2.832   3.608   9.406
  136MPD1    H7 2438   2.973   3.554   9.337
  137MPD1     C 2439   3.521   3.065   8.818
  137MPD1    C1 2440   3.619   3.025   8.913
  137MPD1    C2 2441   3.567   2.955   9.022
  137MPD1    C3 2442   3.430   2.944   9.049
  137MPD1    C4 2443   3.339   3.002   8.966
  137MPD1    C5 2444   3.383   3.051   8.843
  137MPD1     H 2445   3.633   2.912   9.097
  137MPD1    H1 2446   3.235   3.011   8.996
  137MPD1    H2 2447   3.559   3.114   8.729
  137MPD1    H3 2448   3.308   3.093   8.776
  137MPD1     N 2449   3.371   2.889   9.162
  137MPD1    H5 2450   3.270   2.883   9.165
  137MPD1    N1 2451   3.755   3.030   8.887
  137MPD1    H6 2452   3.807   3.025   8.975
  137MPD1    H7 2453   3.789   3.109   8.832
  138MPD1     C 2454   2.729   3.487   6.826
  138MPD1    C1 2455   2.645   3.434   6.925
  138MPD1    C2 2456   2.682   3.318   6.983
  138MPD1    C3 2457   2.809   3.268   6.962
  138MPD1    C4 2458   2.887   3.310   6.857
  138MPD1    C5 2459   2.848   3.425   6.795
  138MPD1     H 2460   2.619   3.285   7.065
  138MPD1    H1 2461   2.981   3.262   6.831
  138MPD1    H2 2462   2.711   3.582   6.778
  138MPD1    H3 2463   2.906   3.472   6.716
  138MPD1     N 2464   2.850   3.162   7.038
  138MPD1    H5 2465   2.787   3.118   7.105
  138MPD1    N1 2466   2.516   3.482   6.942
  138MPD1    H6 2467   2.502   3.578   6.910
  138MPD1    H7 2468   2.480   3.466   7.036
  139MPD1     C 2469   4.672   1.628  12.577
  139MPD1    C1 2470   4.727   1.570  12.460
  139MPD1    C2 2471   0.054   1.494  12.480
  139MPD1    C3 2472   0.123   1.488  12.600
  139MPD1    C4 2473   0.068   1.547  12.709
  139MPD1    C5 2474   4.734   1.613  12.699
  139MPD1     H 2475   0.095   1.457  12.387
  139MPD1    H1 2476   0.118   1.545  12.805
  139MPD1    H2 2477   4.579   1.683  12.564
  139MPD1    H3 2478   4.695   1.651  12.793
  139MPD1     N 2479   0.247   1.416  12.616
  139MPD1    H5 2480   0.277   1.400  12.712
  139MPD1    N1 2481   4.645   1.563  12.347
  139MPD1    H6 2482   4.695   1.556  12.259
  139MPD1    H7 2483   4.580   1.641  12.339
  140MPD1     C 2484   3.775   0.516  14.743
  140MPD1    C1 2485   3.875   0.487  14.653
  140MPD1    C2 2486   3.838   0.491  14.518
  140MPD1    C3 2487   3.712   0.551  14.479
  140MPD1    C4 2488   3.621   0.588  14.574
  140MPD1    C5 2489   3.656   0.570  14.706
  140MPD1     H 2490   3.910   0.461  14.442
  140MPD1    H1 2491   3.522   0.621  14.546
  140MPD1    H2 2492   3.792   0.494  14.848
  140MPD1    H3 2493   3.586   0.608  14.779
  140MPD1     N 2494   3.674   0.562  14.345
  140MPD1    H5 2495   3.587   0.613  14.337
  140MPD1    N1 2496   3.987   0.415  14.693
  140MPD1    H6 2497   4.021   0.440  14.785
  140MPD1    H7 2498   4.062   0.416  14.624
  141MPD1     C 2499   4.353   0.999  13.778
  141MPD1    C1 2500   4.349   0.863  13.807
  141MPD1    C2 2501   4.230   0.803  13.833
  141MPD1    C3 2502   4.111   0.873  13.836
  141MPD1    C4 2503   4.113   1.006  13.797
  141MPD1    C5 2504   4.237   1.068  13.774
  141MPD1     H 2505   4.218   0.698  13.858
  141MPD1    H1 2506   4.022   1.064  13.803
  141MPD1    H2 2507   4.449   1.046  13.760
  141MPD1    H3 2508   4.239   1.176  13.765
  141MPD1     N 2509   3.992   0.803  13.880
  141MPD1    H5 2510   3.988   0.709  13.919
  141MPD1    N1 2511   4.457   0.783  13.795
  141MPD1    H6 2512   4.444   0.706  13.860
  141MPD1    H7 2513   4.541   0.835  13.819
  142MPD1     C 2514   2.342   1.810   7.001
  142MPD1    C1 2515   2.367   1.897   6.897
  142MPD1    C2 2516   2.272   1.987   6.855
  142MPD1    C3 2517   2.157   2.004   6.934
  142MPD1    C4 2518   2.129   1.922   7.041
  142MPD1    C5 2519   2.223   1.826   7.065
  142MPD1     H 2520   2.295   2.052   6.771
  142MPD1    H1 2521   2.036   1.937   7.094
  142MPD1    H2 2522   2.408   1.728   7.028
  142MPD1    H3 2523   2.198   1.767   7.152
  142MPD1     N 2524   2.066   2.116   6.921
  142MPD1    H5 2525   1.988   2.128   6.984
  142MPD1    N1 2526   2.491   1.895   6.833
  142MPD1    H6 2527   2.487   1.931   6.738
  142MPD1    H7 2528   2.532   1.802   6.828
  143MPD1     C 2529   2.431   4.483   9.218
  143MPD1    C1 2530   2.531   4.402   9.174
  143MPD1    C2 2531   2.560   4.290   9.250
  143MPD1    C3 2532   2.492   4.262   9.365
  143MPD1    C4 2533   2.393   4.345   9.409
  143MPD1    C5 2534   2.357   4.452   9.325
  143MPD1     H 2535   2.637   4.223   9.213
  143MPD1    H1 2536   2.329   4.322   9.493
  143MPD1    H2 2537   2.407   4.572   9.161
  143MPD1    H3 2538   2.270   4.508   9.357
  143MPD1     N 2539   2.512   4.145   9.448
  143MPD1    H5 2540   2.457   4.136   9.533
  143MPD1    N1 2541   2.609   4.452   9.069
  143MPD1    H6 2542   2.544   4.474   8.993
  143MPD1    H7 2543   2.644   4.367   9.025
  144MPD1     C 2544   1.245   2.511   6.769
  144MPD1    C1 2545   1.310   2.574   6.671
  144MPD1    C2 2546   1.402   2.673   6.696
  144MPD1    C3 2547   1.456   2.692   6.824
  144MPD1    C4 2548   1.397   2.618   6.925
  144MPD1    C5 2549   1.291   2.533   6.898
  144MPD1     H 2550   1.457   2.719   6.615
  144MPD1    H1 2551   1.437   2.620   7.026
  144MPD1    H2 2552   1.167   2.439   6.750
  144MPD1    H3 2553   1.244   2.486   6.984
  144MPD1     N 2554   1.568   2.780   6.843
  144MPD1    H5 2555   1.599   2.816   6.753
  144MPD1    N1 2556   1.274   2.555   6.542
  144MPD1    H6 2557   1.263   2.455   6.528
  144MPD1    H7 2558   1.354   2.567   6.480
  145MPD1     C 2559   1.812   3.432   6.395
  145MPD1    C1 2560   1.705   3.353   6.430
  145MPD1    C2 2561   1.727   3.270   6.534
  145MPD1    C3 2562   1.838   3.272   6.615
  145MPD1    C4 2563   1.945   3.353   6.584
  145MPD1    C5 2564   1.921   3.442   6.481
  145MPD1     H 2565   1.644   3.208   6.565
  145MPD1    H1 2566   2.033   3.349   6.647
  145MPD1    H2 2567   1.804   3.496   6.308
  145MPD1    H3 2568   1.996   3.518   6.465
  145MPD1     N 2569   1.836   3.184   6.726
  145MPD1    H5 2570   1.751   3.129   6.731
  145MPD1    N1 2571   1.590   3.338   6.351
  145MPD1    H6 2572   1.511   3.299   6.402
  145MPD1    H7 2573   1.563   3.421   6.298
  146MPD1     C 2574   3.753   1.030   9.073
  146MPD1    C1 2575   3.636   1.006   9.008
  146MPD1    C2 2576   3.609   0.876   8.962
  146MPD1    C3 2577   3.687   0.769   9.005
  146MPD1    C4 2578   3.811   0.796   9.078
  146MPD1    C5 2579   3.841   0.927   9.099
  146MPD1     H 2580   3.522   0.848   8.904
  146MPD1    H1 2581   3.891   0.725   9.093
  146MPD1    H2 2582   3.779   1.131   9.103
  146MPD1    H3 2583   3.941   0.955   9.132
  146MPD1     N 2584   3.650   0.639   8.965
  146MPD1    H5 2585   3.555   0.637   8.930
  146MPD1    N1 2586   3.562   1.110   8.955
  146MPD1    H6 2587   3.549   1.180   9.028
  146MPD1    H7 2588   3.467   1.079   8.935
  147MPD1     C 2589   3.512   4.504  10.791
  147MPD1    C1 2590   3.456   4.531  10.914
  147MPD1    C2 2591   3.510   4.471  11.016
  147MPD1    C3 2592   3.630   4.394  11.009
  147MPD1    C4 2593   3.691   4.382  10.888
  147MPD1    C5 2594   3.630   4.433  10.784
  147MPD1     H 2595   3.453   4.479  11.108
  147MPD1    H1 2596   3.790   4.339  10.876
  147MPD1    H2 2597   3.454   4.536  10.705
  147MPD1    H3 2598   3.671   4.419  10.685
  147MPD1     N 2599   3.684   4.319  11.117
  147MPD1    H5 2600   3.770   4.269  11.096
  147MPD1    N1 2601   3.327   4.592  10.922
  147MPD1    H6 2602   3.296   4.626  11.013
  147MPD1    H7 2603   3.312   4.667  10.854
  148MPD1     C 2604   4.339   4.272  11.911
  148MPD1    C1 2605   4.266   4.157  11.920
  148MPD1    C2 2606   4.182   4.126  11.812
  148MPD1    C3 2607   4.156   4.216  11.709
  148MPD1    C4 2608   4.223   4.336  11.708
  148MPD1    C5 2609   4.318   4.356  11.805
  148MPD1     H 2610   4.129   4.031  11.818
  148MPD1    H1 2611   4.217   4.410  11.629
  148MPD1    H2 2612   4.410   4.306  11.986
  148MPD1    H3 2613   4.372   4.450  11.804
  148MPD1     N 2614   4.065   4.179  11.603
  148MPD1    H5 2615   4.034   4.083  11.611
  148MPD1    N1 2616   4.273   4.068  12.034
  148MPD1    H6 2617   4.286   4.114  12.124
  148MPD1    H7 2618   4.195   4.003  12.043
  149MPD1     C 2619   2.667   0.624  11.815
  149MPD1    C1 2620   2.527   0.628  11.823
  149MPD1    C2 2621   2.453   0.721  11.749
  149MPD1    C3 2622   2.523   0.829  11.692
  149MPD1    C4 2623   2.661   0.832  11.699
  149MPD1    C5 2624   2.733   0.727  11.754
  149MPD1     H 2625   2.345   0.708  11.743
  149MPD1    H1 2626   2.714   0.914  11.652
  149MPD1    H2 2627   2.720   0.545  11.867
  149MPD1    H3 2628   2.841   0.737  11.755
  149MPD1     N 2629   2.434   0.907  11.619
  149MPD1    H5 2630   2.334   0.890  11.616
  149MPD1    N1 2631   2.463   0.511  11.868
  149MPD1    H6 2632   2.504   0.456  11.943
  149MPD1    H7 2633   2.367   0.528  11.899
  150MPD1     C 2634   3.398   4.093  14.047
  150MPD1    C1 2635   3.416   4.049  13.918
  150MPD1    C2 2636   3.430   3.909  13.897
  150MPD1    C3 2637   3.398   3.823  13.999
  150MPD1    C4 2638   3.372   3.875  14.125
  150MPD1    C5 2639   3.378   4.006  14.149
  150MPD1     H 2640   3.449   3.865  13.800
  150MPD1    H1 2641   3.333   3.814  14.206
  150MPD1    H2 2642   3.400   4.194  14.087
  150MPD1    H3 2643   3.343   4.040  14.246
  150MPD1     N 2644   3.401   3.685  13.972
  150MPD1    H5 2645   3.448   3.663  13.885
  150MPD1    N1 2646   3.456   4.136  13.815
  150MPD1    H6 2647   3.426   4.085  13.732
  150MPD1    H7 2648   3.411   4.227  13.823
  151MPD1     C 2649   0.325   1.172  13.260
  151MPD1    C1 2650   0.310   1.090  13.368
  151MPD1    C2 2651   0.329   1.148  13.495
  151MPD1    C3 2652   0.355   1.284  13.509
  151MPD1    C4 2653   0.367   1.359  13.391
  151MPD1    C5 2654   0.347   1.306  13.270
  151MPD1     H 2655   0.334   1.083  13.581
  151MPD1    H1 2656   0.378   1.467  13.396
  151MPD1    H2 2657   0.304   1.135  13.160
  151MPD1    H3 2658   0.354   1.366  13.180
  151MPD1     N 2659   0.364   1.348  13.633
  151MPD1    H5 2660   0.396   1.444  13.636
  151MPD1    N1 2661   0.319   0.954  13.349
  151MPD1    H6 2662   0.276   0.929  13.260
  151MPD1    H7 2663   0.253   0.916  13.417
  152MPD1     C 2664   1.038   1.634   7.287
  152MPD1    C1 2665   0.936   1.579   7.208
  152MPD1    C2 2666   0.940   1.592   7.071
  152MPD1    C3 2667   1.036   1.677   7.018
  152MPD1    C4 2668   1.132   1.736   7.099
  152MPD1    C5 2669   1.128   1.712   7.234
  152MPD1     H 2670   0.868   1.543   7.006
  152MPD1    H1 2671   1.215   1.793   7.059
  152MPD1    H2 2672   1.045   1.608   7.392
  152MPD1    H3 2673   1.212   1.748   7.293
  152MPD1     N 2674   1.037   1.688   6.880
  152MPD1    H5 2675   0.958   1.657   6.825
  152MPD1    N1 2676   0.860   1.472   7.268
  152MPD1    H6 2677   0.769   1.469   7.222
  152MPD1    H7 2678   0.834   1.497   7.363
  153MPD1     C 2679   3.254   3.816   5.977
  153MPD1    C1 2680   3.274   3.756   6.099
  153MPD1    C2 2681   3.223   3.818   6.214
  153MPD1    C3 2682   3.174   3.949   6.199
  153MPD1    C4 2683   3.149   4.002   6.073
  153MPD1    C5 2684   3.186   3.933   5.961
  153MPD1     H 2685   3.228   3.772   6.312
  153MPD1    H1 2686   3.100   4.094   6.042
  153MPD1    H2 2687   3.294   3.774   5.886
  153MPD1    H3 2688   3.175   3.971   5.860
  153MPD1     N 2689   3.128   4.011   6.316
  153MPD1    H5 2690   3.138   3.958   6.402
  153MPD1    N1 2691   3.327   3.627   6.101
  153MPD1    H6 2692   3.391   3.595   6.028
  153MPD1    H7 2693   3.359   3.587   6.189
  154MPD1     C 2694   2.934   3.754   6.338
  154MPD1    C1 2695   2.869   3.856   6.410
  154MPD1    C2 2696   2.883   3.856   6.549
  154MPD1    C3 2697   2.958   3.768   6.620
  154MPD1    C4 2698   3.022   3.670   6.545
  154MPD1    C5 2699   3.004   3.658   6.404
  154MPD1     H 2700   2.826   3.931   6.603
  154MPD1    H1 2701   3.078   3.588   6.587
  154MPD1    H2 2702   2.924   3.737   6.231
  154MPD1    H3 2703   3.065   3.581   6.357
  154MPD1     N 2704   2.982   3.773   6.762
  154MPD1    H5 2705   3.035   3.694   6.797
  154MPD1    N1 2706   2.766   3.924   6.349
  154MPD1    H6 2707   2.803   3.940   6.255
  154MPD1    H7 2708   2.738   4.007   6.401
  155MPD1     C 2709   2.669   2.196  11.056
  155MPD1    C1 2710   2.664   2.224  11.190
  155MPD1    C2 2711   2.601   2.139  11.274
  155MPD1    C3 2712   2.550   2.020  11.220
  155MPD1    C4 2713   2.556   1.995  11.089
  155MPD1    C5 2714   2.620   2.082  11.007
  155MPD1     H 2715   2.604   2.152  11.382
  155MPD1    H1 2716   2.506   1.907  11.052
  155MPD1    H2 2717   2.724   2.259  10.987
  155MPD1    H3 2718   2.605   2.064  10.901
  155MPD1     N 2719   2.471   1.931  11.290
  155MPD1    H5 2720   2.414   1.868  11.235
  155MPD1    N1 2721   2.711   2.351  11.238
  155MPD1    H6 2722   2.795   2.376  11.186
  155MPD1    H7 2723   2.730   2.354  11.338
  156MPD1     C 2724   3.701   1.891  10.569
  156MPD1    C1 2725   3.585   1.869  10.504
  156MPD1    C2 2726   3.540   1.737  10.483
  156MPD1    C3 2727   3.615   1.634  10.534
  156MPD1    C4 2728   3.726   1.660  10.607
  156MPD1    C5 2729   3.762   1.791  10.638
  156MPD1     H 2730   3.455   1.708  10.423
  156MPD1    H1 2731   3.787   1.578  10.643
  156MPD1    H2 2732   3.741   1.992  10.576
  156MPD1    H3 2733   3.855   1.813  10.688
  156MPD1     N 2734   3.583   1.494  10.518
  156MPD1    H5 2735   3.643   1.430  10.569
  156MPD1    N1 2736   3.519   1.971  10.438
  156MPD1    H6 2737   3.434   1.927  10.403
  156MPD1    H7 2738   3.497   2.050  10.498
  157MPD1     C 2739   4.316   2.215  11.642
  157MPD1    C1 2740   4.259   2.341  11.642
  157MPD1    C2 2741   4.190   2.393  11.531
  157MPD1    C3 2742   4.186   2.315  11.413
  157MPD1    C4 2743   4.255   2.203  11.405
  157MPD1    C5 2744   4.318   2.155  11.517
  157MPD1     H 2745   4.141   2.489  11.537
  157MPD1    H1 2746   4.251   2.144  11.314
  157MPD1    H2 2747   4.373   2.179  11.727
  157MPD1    H3 2748   4.369   2.060  11.506
  157MPD1     N 2749   4.124   2.361  11.294
  157MPD1    H5 2750   4.143   2.308  11.209
  157MPD1    N1 2751   4.246   2.412  11.765
  157MPD1    H6 2752   4.264   2.512  11.756
  157MPD1    H7 2753   4.322   2.382  11.825
  158MPD1     C 2754   3.256   2.287  10.360
  158MPD1    C1 2755   3.167   2.185  10.334
  158MPD1    C2 2756   3.161   2.077  10.427
  158MPD1    C3 2757   3.232   2.080  10.543
  158MPD1    C4 2758   3.322   2.183  10.568
  158MPD1    C5 2759   3.329   2.283  10.470
  158MPD1     H 2760   3.100   1.990  10.407
  158MPD1    H1 2761   3.383   2.197  10.657
  158MPD1    H2 2762   3.265   2.374  10.296
  158MPD1    H3 2763   3.412   2.353  10.480
  158MPD1     N 2764   3.237   1.962  10.616
  158MPD1    H5 2765   3.198   1.883  10.565
  158MPD1    N1 2766   3.100   2.187  10.212
  158MPD1    H6 2767   3.087   2.282  10.177
  158MPD1    H7 2768   3.135   2.127  10.138
  159MPD1     C 2769   4.036   1.667  11.167
  159MPD1    C1 2770   4.005   1.580  11.073
  159MPD1    C2 2771   3.885   1.589  11.007
  159MPD1    C3 2772   3.790   1.689  11.038
  159MPD1    C4 2773   3.825   1.782  11.132
  159MPD1    C5 2774   3.948   1.770  11.191
  159MPD1     H 2775   3.862   1.522  10.925
  159MPD1    H1 2776   3.762   1.867  11.156
  159MPD1    H2 2777   4.133   1.669  11.215
  159MPD1    H3 2778   3.973   1.838  11.271
  159MPD1     N 2779   3.654   1.688  10.992
  159MPD1    H5 2780   3.596   1.765  11.025
  159MPD1    N1 2781   4.092   1.474  11.049
  159MPD1    H6 2782   4.084   1.434  10.956
  159MPD1    H7 2783   4.191   1.496  11.062
  160MPD1     C 2784   3.428   4.158  12.205
  160MPD1    C1 2785   3.329   4.244  12.188
  160MPD1    C2 2786   3.327   4.339  12.082
  160MPD1    C3 2787   3.449   4.359  12.015
  160MPD1    C4 2788   3.550   4.268  12.038
  160MPD1    C5 2789   3.540   4.169  12.125
  160MPD1     H 2790   3.239   4.392  12.048
  160MPD1    H1 2791   3.643   4.288  11.987
  160MPD1    H2 2792   3.426   4.083  12.283
  160MPD1    H3 2793   3.627   4.106  12.143
  160MPD1     N 2794   3.471   4.454  11.912
  160MPD1    H5 2795   3.570   4.469  11.893
  160MPD1    N1 2796   3.210   4.214  12.254
  160MPD1    H6 2797   3.225   4.170  12.344
  160MPD1    H7 2798   3.146   4.293  12.266
  161MPD1     C 2799   4.037   3.408  13.442
  161MPD1    C1 2800   4.107   3.422  13.555
  161MPD1    C2 2801   4.229   3.348  13.567
  161MPD1    C3 2802   4.258   3.246  13.474
  161MPD1    C4 2803   4.186   3.248  13.357
  161MPD1    C5 2804   4.080   3.328  13.340
  161MPD1     H 2805   4.288   3.363  13.656
  161MPD1    H1 2806   4.217   3.179  13.279
  161MPD1    H2 2807   3.949   3.471  13.434
  161MPD1    H3 2808   4.033   3.334  13.242
  161MPD1     N 2809   4.379   3.183  13.484
  161MPD1    H5 2810   4.441   3.216  13.558
  161MPD1    N1 2811   4.071   3.518  13.654
  161MPD1    H6 2812   4.096   3.493  13.750
  161MPD1    H7 2813   3.977   3.557  13.653
  162MPD1     C 2814   4.574   2.242  13.599
  162MPD1    C1 2815   4.468   2.323  13.570
  162MPD1    C2 2816   4.488   2.457  13.568
  162MPD1    C3 2817   4.614   2.525  13.578
  162MPD1    C4 2818   4.720   2.443  13.597
  162MPD1    C5 2819   4.701   2.306  13.610
  162MPD1     H 2820   4.401   2.522  13.564
  162MPD1    H1 2821   0.028   2.489  13.602
  162MPD1    H2 2822   4.569   2.134  13.609
  162MPD1    H3 2823   4.788   2.247  13.638
  162MPD1     N 2824   4.616   2.663  13.562
  162MPD1    H5 2825   4.530   2.715  13.551
  162MPD1    N1 2826   4.336   2.273  13.576
  162MPD1    H6 2827   4.330   2.178  13.541
  162MPD1    H7 2828   4.268   2.323  13.519
  163MPD1     C 2829   2.486   3.682   9.922
  163MPD1    C1 2830   2.593   3.769   9.922
  163MPD1    C2 2831   2.577   3.888   9.987
  163MPD1    C3 2832   2.458   3.932  10.036
  163MPD1    C4 2833   2.353   3.851  10.038
  163MPD1    C5 2834   2.368   3.727   9.976
  163MPD1     H 2835   2.664   3.953   9.983
  163MPD1    H1 2836   2.264   3.869  10.098
  163MPD1    H2 2837   2.491   3.582   9.879
  163MPD1    H3 2838   2.284   3.658   9.982
  163MPD1     N 2839   2.459   4.051  10.104
  163MPD1    H5 2840   2.550   4.093  10.119
  163MPD1    N1 2841   2.714   3.735   9.865
  163MPD1    H6 2842   2.742   3.809   9.800
  163MPD1    H7 2843   2.710   3.646   9.816
  164MPD1     C 2844   3.518   1.820   8.138
  164MPD1    C1 2845   3.631   1.843   8.071
  164MPD1    C2 2846   3.649   1.780   7.947
  164MPD1    C3 2847   3.564   1.673   7.909
  164MPD1    C4 2848   3.461   1.633   7.995
  164MPD1    C5 2849   3.435   1.713   8.104
  164MPD1     H 2850   3.742   1.792   7.892
  164MPD1    H1 2851   3.382   1.565   7.967
  164MPD1    H2 2852   3.497   1.877   8.228
  164MPD1    H3 2853   3.346   1.697   8.164
  164MPD1     N 2854   3.591   1.610   7.786
  164MPD1    H5 2855   3.661   1.646   7.721
  164MPD1    N1 2856   3.718   1.946   8.114
  164MPD1    H6 2857   3.727   1.957   8.215
  164MPD1    H7 2858   3.811   1.918   8.082
  165MPD1     C 2859   3.440   1.304   8.012
  165MPD1    C1 2860   3.325   1.230   7.993
  165MPD1    C2 2861   3.327   1.130   7.898
  165MPD1    C3 2862   3.444   1.102   7.821
  165MPD1    C4 2863   3.556   1.174   7.859
  165MPD1    C5 2864   3.554   1.276   7.955
  165MPD1     H 2865   3.243   1.064   7.876
  165MPD1    H1 2866   3.651   1.157   7.810
  165MPD1    H2 2867   3.430   1.394   8.072
  165MPD1    H3 2868   3.644   1.327   7.986
  165MPD1     N 2869   3.439   1.001   7.714
  165MPD1    H5 2870   3.354   0.951   7.692
  165MPD1    N1 2871   3.209   1.271   8.061
  165MPD1    H6 2872   3.224   1.326   8.146
  165MPD1    H7 2873   3.147   1.194   8.086
  166MPD1     C 2874   1.309   3.842  11.850
  166MPD1    C1 2875   1.247   3.895  11.745
  166MPD1    C2 2876   1.307   4.004  11.677
  166MPD1    C3 2877   1.422   4.057  11.734
  166MPD1    C4 2878   1.475   4.009  11.853
  166MPD1    C5 2879   1.426   3.893  11.902
  166MPD1     H 2880   1.249   4.037  11.591
  166MPD1    H1 2881   1.568   4.049  11.891
  166MPD1    H2 2882   1.273   3.755  11.904
  166MPD1    H3 2883   1.469   3.835  11.983
  166MPD1     N 2884   1.492   4.168  11.676
  166MPD1    H5 2885   1.571   4.204  11.728
  166MPD1    N1 2886   1.136   3.831  11.688
  166MPD1    H6 2887   1.077   3.780  11.754
  166MPD1    H7 2888   1.074   3.894  11.638
  167MPD1     C 2889   2.111   3.380  13.521
  167MPD1    C1 2890   2.095   3.244  13.516
  167MPD1    C2 2891   2.184   3.162  13.578
  167MPD1    C3 2892   2.275   3.221  13.666
  167MPD1    C4 2893   2.281   3.358  13.687
  167MPD1    C5 2894   2.201   3.437  13.605
  167MPD1     H 2895   2.181   3.055  13.562
  167MPD1    H1 2896   2.352   3.409  13.751
  167MPD1    H2 2897   2.047   3.446  13.463
  167MPD1    H3 2898   2.207   3.545  13.611
  167MPD1     N 2899   2.359   3.133  13.746
  167MPD1    H5 2900   2.351   3.035  13.722
  167MPD1    N1 2901   2.001   3.189  13.438
  167MPD1    H6 2902   1.921   3.251  13.423
  167MPD1    H7 2903   1.965   3.107  13.487
  168MPD1     C 2904   0.365   0.910  14.731
  168MPD1    C1 2905   0.476   0.952  14.810
  168MPD1    C2 2906   0.584   0.868  14.805
  168MPD1    C3 2907   0.578   0.741  14.749
  168MPD1    C4 2908   0.463   0.706  14.687
  168MPD1    C5 2909   0.353   0.791  14.673
  168MPD1     H 2910   0.674   0.905  14.853
  168MPD1    H1 2911   0.451   0.614  14.632
  168MPD1    H2 2912   0.278   0.973  14.716
  168MPD1    H3 2913   0.275   0.773  14.601
  168MPD1     N 2914   0.681   0.645  14.773
  168MPD1    H5 2915   0.668   0.552  14.734
  168MPD1    N1 2916   0.480   1.086  14.850
  168MPD1    H6 2917   0.391   1.128  14.876
  168MPD1    H7 2918   0.551   1.113  14.917
  169MPD1     C 2919   4.632   3.433   7.211
  169MPD1    C1 2920   4.703   3.340   7.289
  169MPD1    C2 2921   4.636   3.289   7.402
  169MPD1    C3 2922   4.511   3.335   7.444
  169MPD1    C4 2923   4.442   3.427   7.364
  169MPD1    C5 2924   4.504   3.472   7.250
  169MPD1     H 2925   4.690   3.212   7.457
  169MPD1    H1 2926   4.344   3.467   7.386
  169MPD1    H2 2927   4.685   3.468   7.123
  169MPD1    H3 2928   4.463   3.543   7.179
  169MPD1     N 2929   4.456   3.270   7.552
  169MPD1    H5 2930   4.512   3.195   7.591
  169MPD1    N1 2931   0.047   3.302   7.255
  169MPD1    H6 2932   0.106   3.381   7.229
  169MPD1    H7 2933   0.095   3.244   7.323
  170MPD2     C 2934   1.383   3.032  10.348
  170MPD2    C1 2935   1.328   2.912  10.307
  170MPD2    C2 2936   1.200   2.911  10.248
  170MPD2    C3 2937   1.139   3.029  10.219
  170MPD2    C4 2938   1.201   3.149  10.248
  170MPD2    C5 2939   1.322   3.149  10.314
  170MPD2     H 2940   1.167   2.815  10.211
  170MPD2    H1 2941   1.151   3.242  10.226
  170MPD2    H2 2942   1.482   3.047  10.389
  170MPD2    H3 2943   1.362   3.245  10.345
  170MPD2     N 2944   1.017   3.034  10.149
  170MPD2    H5 2945   0.991   3.124  10.111
  170MPD2    N1 2946   1.410   2.805  10.339
  170MPD2    H7 2947   1.500   2.832  10.378
  171MPD2     C 2948   0.398   2.529  10.110
  171MPD2    C1 2949   0.435   2.579   9.983
  171MPD2    C2 2950   0.377   2.527   9.870
  171MPD2    C3 2951   0.276   2.429   9.881
  171MPD2    C4 2952   0.247   2.375  10.007
  171MPD2    C5 2953   0.309   2.429  10.119
  171MPD2     H 2954   0.412   2.543   9.769
  171MPD2    H1 2955   0.165   2.304  10.010
  171MPD2    H2 2956   0.435   2.572  10.203
  171MPD2    H3 2957   0.283   2.396  10.219
  171MPD2     N 2958   0.219   2.366   9.770
  171MPD2    H5 2959   0.171   2.282   9.799
  171MPD2    N1 2960   0.537   2.675   9.975
  171MPD2    H7 2961   0.578   2.700  10.064
  172MPD2     C 2962   0.464   3.567  10.116
  172MPD2    C1 2963   0.417   3.439  10.101
  172MPD2    C2 2964   0.497   3.350  10.032
  172MPD2    C3 2965   0.614   3.391   9.970
  172MPD2    C4 2966   0.656   3.524   9.984
  172MPD2    C5 2967   0.578   3.609  10.049
  172MPD2     H 2968   0.464   3.247  10.039
  172MPD2    H1 2969   0.750   3.565   9.949
  172MPD2    H2 2970   0.415   3.646  10.173
  172MPD2    H3 2971   0.612   3.712  10.054
  172MPD2     N 2972   0.692   3.292   9.908
  172MPD2    H5 2973   0.788   3.314   9.884
  172MPD2    N1 2974   0.305   3.387  10.160
  172MPD2    H7 2975   0.287   3.287  10.155
  173MPD2     C 2976   1.579   4.470   6.781
  173MPD2    C1 2977   1.561   4.386   6.888
  173MPD2    C2 2978   1.542   4.256   6.865
  173MPD2    C3 2979   1.538   4.207   6.735
  173MPD2    C4 2980   1.555   4.295   6.631
  173MPD2    C5 2981   1.579   4.426   6.652
  173MPD2     H 2982   1.526   4.193   6.951
  173MPD2    H1 2983   1.553   4.255   6.530
  173MPD2    H2 2984   1.614   4.572   6.792
  173MPD2    H3 2985   1.593   4.502   6.576
  173MPD2     N 2986   1.505   4.071   6.718
  173MPD2    H5 2987   1.488   4.016   6.801
  173MPD2    N1 2988   1.573   4.437   7.022
  173MPD2    H7 2989   1.572   4.365   7.094
  174MPD2     C 2990   1.265   3.083   6.347
  174MPD2    C1 2991   1.252   3.087   6.479
  174MPD2    C2 2992   1.256   3.208   6.540
  174MPD2    C3 2993   1.265   3.326   6.468
  174MPD2    C4 2994   1.279   3.325   6.327
  174MPD2    C5 2995   1.278   3.198   6.275
  174MPD2     H 2996   1.247   3.222   6.647
  174MPD2    H1 2997   1.295   3.417   6.271
  174MPD2    H2 2998   1.251   2.991   6.291
  174MPD2    H3 2999   1.296   3.189   6.169
  174MPD2     N 3000   1.271   3.449   6.544
  174MPD2    H5 3001   1.253   3.442   6.644
  174MPD2    N1 3002   1.215   2.965   6.545
  174MPD2    H7 3003   1.187   2.891   6.482
  175MPD2     C 3004   2.146   3.016  12.326
  175MPD2    C1 3005   2.077   2.944  12.426
  175MPD2    C2 3006   1.937   2.946  12.421
  175MPD2    C3 3007   1.875   3.001  12.315
  175MPD2    C4 3008   1.942   3.067  12.212
  175MPD2    C5 3009   2.077   3.073  12.224
  175MPD2     H 3010   1.881   2.897  12.499
  175MPD2    H1 3011   1.889   3.107  12.127
  175MPD2    H2 3012   2.253   3.027  12.337
  175MPD2    H3 3013   2.136   3.116  12.144
  175MPD2     N 3014   1.736   2.983  12.295
  175MPD2    H5 3015   1.700   3.007  12.203
  175MPD2    N1 3016   2.161   2.874  12.519
  175MPD2    H7 3017   2.260   2.897  12.526
  176MPD2     C 3018   1.918   2.557  11.776
  176MPD2    C1 3019   1.808   2.590  11.844
  176MPD2    C2 3020   1.810   2.597  11.987
  176MPD2    C3 3021   1.926   2.552  12.058
  176MPD2    C4 3022   2.033   2.527  11.982
  176MPD2    C5 3023   2.029   2.520  11.843
  176MPD2     H 3024   1.722   2.626  12.044
  176MPD2    H1 3025   2.130   2.508  12.026
  176MPD2    H2 3026   1.923   2.570  11.668
  176MPD2    H3 3027   2.114   2.498  11.780
  176MPD2     N 3028   1.937   2.543  12.195
  176MPD2    H5 3029   2.034   2.534  12.224
  176MPD2    N1 3030   1.696   2.637  11.774
  176MPD2    H7 3031   1.629   2.683  11.834
  177MPD2     C 3032   1.855   2.271  13.225
  177MPD2    C1 3033   1.784   2.221  13.116
  177MPD2    C2 3034   1.781   2.290  12.996
  177MPD2    C3 3035   1.834   2.421  12.993
  177MPD2    C4 3036   1.893   2.471  13.101
  177MPD2    C5 3037   1.894   2.400  13.217
  177MPD2     H 3038   1.750   2.233  12.909
  177MPD2    H1 3039   1.935   2.571  13.098
  177MPD2    H2 3040   1.885   2.218  13.315
  177MPD2    H3 3041   1.944   2.449  13.300
  177MPD2     N 3042   1.846   2.487  12.870
  177MPD2    H5 3043   1.902   2.572  12.869
  177MPD2    N1 3044   1.727   2.098  13.143
  177MPD2    H7 3045   1.737   2.060  13.237
  178MPD2     C 3046   4.713   1.254   7.274
  178MPD2    C1 3047   4.724   1.359   7.365
  178MPD2    C2 3048   4.728   1.485   7.315
  178MPD2    C3 3049   4.721   1.512   7.187
  178MPD2    C4 3050   4.711   1.418   7.095
  178MPD2    C5 3051   4.701   1.290   7.139
  178MPD2     H 3052   4.746   1.566   7.385
  178MPD2    H1 3053   4.702   1.424   6.987
  178MPD2    H2 3054   4.717   1.150   7.303
  178MPD2    H3 3055   4.694   1.212   7.064
  178MPD2     N 3056   4.753   1.644   7.154
  178MPD2    H5 3057   4.786   1.712   7.222
  178MPD2    N1 3058   4.754   1.330   7.503
  178MPD2    H7 3059   4.748   1.409   7.566
  179MPD2     C 3060   0.283   0.749   7.916
  179MPD2    C1 3061   0.152   0.741   7.877
  179MPD2    C2 3062   0.100   0.615   7.846
  179MPD2    C3 3063   0.191   0.515   7.816
  179MPD2    C4 3064   0.326   0.520   7.847
  179MPD2    C5 3065   0.362   0.637   7.912
  179MPD2     H 3066   4.783   0.600   7.830
  179MPD2    H1 3067   0.393   0.437   7.865
  179MPD2    H2 3068   0.328   0.832   7.968
  179MPD2    H3 3069   0.453   0.641   7.971
  179MPD2     N 3070   0.137   0.394   7.762
  179MPD2    H5 3071   0.042   0.372   7.791
  179MPD2    N1 3072   0.086   0.870   7.872
  179MPD2    H7 3073   0.148   0.949   7.886
  180MPD2     C 3074   4.175   0.858   7.942
  180MPD2    C1 3075   4.274   0.883   7.849
  180MPD2    C2 3076   4.319   1.016   7.837
  180MPD2    C3 3077   4.288   1.103   7.941
  180MPD2    C4 3078   4.192   1.071   8.037
  180MPD2    C5 3079   4.129   0.948   8.032
  180MPD2     H 3080   4.363   1.051   7.745
  180MPD2    H1 3081   4.160   1.135   8.118
  180MPD2    H2 3082   4.132   0.759   7.955
  180MPD2    H3 3083   4.063   0.911   8.110
  180MPD2     N 3084   4.338   1.237   7.953
  180MPD2    H5 3085   4.279   1.293   8.013
  180MPD2    N1 3086   4.318   0.776   7.764
  180MPD2    H7 3087   4.287   0.684   7.792
  181MPD2     C 3088   4.345   2.921   9.916
  181MPD2    C1 3089   4.396   2.808   9.865
  181MPD2    C2 3090   4.350   2.679   9.904
  181MPD2    C3 3091   4.250   2.673   9.997
  181MPD2    C4 3092   4.199   2.785  10.053
  181MPD2    C5 3093   4.239   2.905   9.996
  181MPD2     H 3094   4.385   2.592   9.850
  181MPD2    H1 3095   4.116   2.792  10.122
  181MPD2    H2 3096   4.368   3.021   9.882
  181MPD2    H3 3097   4.195   2.998  10.031
  181MPD2     N 3098   4.196   2.549  10.034
  181MPD2    H5 3099   4.241   2.473   9.984
  181MPD2    N1 3100   4.474   2.839   9.750
  181MPD2    H7 3101   4.472   2.936   9.720
  182MPD2     C 3102   3.952   2.102  10.711
  182MPD2    C1 3103   4.041   2.062  10.620
  182MPD2    C2 3104   4.137   1.969  10.662
  182MPD2    C3 3105   4.159   1.926  10.795
  182MPD2    C4 3106   4.066   1.973  10.889
  182MPD2    C5 3107   3.973   2.066  10.843
  182MPD2     H 3108   4.206   1.944  10.582
  182MPD2    H1 3109   4.079   1.946  10.993
  182MPD2    H2 3110   3.881   2.182  10.696
  182MPD2    H3 3111   3.906   2.104  10.920
  182MPD2     N 3112   4.268   1.840  10.818
  182MPD2    H5 3113   4.318   1.810  10.735
  182MPD2    N1 3114   4.038   2.097  10.483
  182MPD2    H7 3115   4.105   2.044  10.428
  183MPD2     C 3116   2.856   3.269  14.286
  183MPD2    C1 3117   2.880   3.359  14.188
  183MPD2    C2 3118   2.870   3.323  14.057
  183MPD2    C3 3119   2.826   3.197  14.023
  183MPD2    C4 3120   2.800   3.110  14.123
  183MPD2    C5 3121   2.802   3.145  14.251
  183MPD2     H 3122   2.893   3.391  13.976
  183MPD2    H1 3123   2.747   3.017  14.107
  183MPD2    H2 3124   2.867   3.297  14.390
  183MPD2    H3 3125   2.774   3.075  14.329
  183MPD2     N 3126   2.813   3.161  13.888
  183MPD2    H5 3127   2.766   3.073  13.868
  183MPD2    N1 3128   2.900   3.494  14.238
  183MPD2    H7 3129   2.870   3.510  14.334
  184MPD2     C 3130   2.200   4.064  14.414
  184MPD2    C1 3131   2.292   4.022  14.505
  184MPD2    C2 3132   2.408   3.964  14.457
  184MPD2    C3 3133   2.438   3.943  14.319
  184MPD2    C4 3134   2.342   4.000  14.234
  184MPD2    C5 3135   2.226   4.059  14.285
  184MPD2     H 3136   2.485   3.926  14.523
  184MPD2    H1 3137   2.359   3.996  14.127
  184MPD2    H2 3138   2.108   4.114  14.442
  184MPD2    H3 3139   2.163   4.107  14.210
  184MPD2     N 3140   2.566   3.891  14.274
  184MPD2    H5 3141   2.613   3.841  14.349
  184MPD2    N1 3142   2.258   4.034  14.644
  184MPD2    H7 3143   2.175   4.086  14.670
  185MPD2     C 3144   3.237   3.690  13.517
  185MPD2    C1 3145   3.214   3.596  13.615
  185MPD2    C2 3146   3.145   3.634  13.729
  185MPD2    C3 3147   3.112   3.765  13.754
  185MPD2    C4 3148   3.144   3.857  13.660
  185MPD2    C5 3149   3.206   3.820  13.548
  185MPD2     H 3150   3.103   3.558  13.794
  185MPD2    H1 3151   3.101   3.956  13.669
  185MPD2    H2 3152   3.279   3.656  13.423
  185MPD2    H3 3153   3.219   3.900  13.476
  185MPD2     N 3154   3.053   3.798  13.876
  185MPD2    H5 3155   3.034   3.721  13.939
  185MPD2    N1 3156   3.225   3.455  13.580
  185MPD2    H7 3157   3.224   3.428  13.482
  186MPD2     C 3158   4.583   3.598   8.688
  186MPD2    C1 3159   4.646   3.505   8.767
  186MPD2    C2 3160   4.602   3.374   8.756
  186MPD2    C3 3161   4.507   3.328   8.668
  186MPD2    C4 3162   4.451   3.424   8.588
  186MPD2    C5 3163   4.487   3.559   8.598
  186MPD2     H 3164   4.667   3.304   8.808
  186MPD2    H1 3165   4.389   3.400   8.502
  186MPD2    H2 3166   4.595   3.705   8.698
  186MPD2    H3 3167   4.447   3.627   8.523
  186MPD2     N 3168   4.483   3.192   8.633
  186MPD2    H5 3169   4.431   3.175   8.547
  186MPD2    N1 3170   4.756   3.539   8.844
  186MPD2    H7 3171   0.009   3.474   8.910
  187MPD2     C 3172   0.078   2.279   8.894
  187MPD2    C1 3173   0.070   2.395   8.971
  187MPD2    C2 3174   0.007   2.503   8.917
  187MPD2    C3 3175   4.762   2.501   8.783
  187MPD2    C4 3176   4.772   2.390   8.705
  187MPD2    C5 3177   0.039   2.282   8.762
  187MPD2     H 3178   0.013   2.593   8.976
  187MPD2    H1 3179   4.735   2.374   8.604
  187MPD2    H2 3180   0.116   2.183   8.928
  187MPD2    H3 3181   0.038   2.184   8.715
  187MPD2     N 3182   4.712   2.625   8.725
  187MPD2    H5 3183   4.711   2.704   8.788
  187MPD2    N1 3184   0.102   2.397   9.109
  187MPD2    H7 3185   0.067   2.465   9.176
  188MPD2     C 3186   0.173   3.181   8.421
  188MPD2    C1 3187   0.046   3.220   8.371
  188MPD2    C2 3188   0.015   3.358   8.364
  188MPD2    C3 3189   0.099   3.453   8.412
  188MPD2    C4 3190   0.223   3.414   8.455
  188MPD2    C5 3191   0.263   3.282   8.455
  188MPD2     H 3192   4.703   3.383   8.337
  188MPD2    H1 3193   0.288   3.487   8.501
  188MPD2    H2 3194   0.199   3.076   8.427
  188MPD2    H3 3195   0.361   3.264   8.497
  188MPD2     N 3196   0.068   3.595   8.414
  188MPD2    H5 3197   0.149   3.652   8.433
  188MPD2    N1 3198   4.736   3.128   8.347
  188MPD2    H7 3199   4.646   3.174   8.335
  189MPD2     C 3200   1.372   2.961   8.753
  189MPD2    C1 3201   1.348   2.931   8.621
  189MPD2    C2 3202   1.325   3.032   8.530
  189MPD2    C3 3203   1.330   3.167   8.568
  189MPD2    C4 3204   1.357   3.196   8.703
  189MPD2    C5 3205   1.383   3.093   8.792
  189MPD2     H 3206   1.297   2.999   8.430
  189MPD2    H1 3207   1.369   3.296   8.743
  189MPD2    H2 3208   1.387   2.884   8.827
  189MPD2    H3 3209   1.410   3.125   8.892
  189MPD2     N 3210   1.314   3.272   8.475
  189MPD2    H5 3211   1.373   3.353   8.492
  189MPD2    N1 3212   1.368   2.803   8.578
  189MPD2    H7 3213   1.368   2.722   8.640
  190MPD2     C 3214   0.975   2.177   8.907
  190MPD2    C1 3215   0.961   2.161   8.778
  190MPD2    C2 3216   1.048   2.224   8.684
  190MPD2    C3 3217   1.151   2.302   8.730
  190MPD2    C4 3218   1.165   2.328   8.861
  190MPD2    C5 3219   1.071   2.272   8.948
  190MPD2     H 3220   1.029   2.217   8.577
  190MPD2    H1 3221   1.242   2.393   8.901
  190MPD2    H2 3222   0.900   2.138   8.975
  190MPD2    H3 3223   1.085   2.291   9.054
  190MPD2     N 3224   1.236   2.375   8.642
  190MPD2    H5 3225   1.296   2.448   8.679
  190MPD2    N1 3226   0.864   2.068   8.734
  190MPD2    H7 3227   0.821   2.013   8.807
  191MPD2     C 3228   1.979   2.345   8.351
  191MPD2    C1 3229   1.887   2.378   8.256
  191MPD2    C2 3230   1.930   2.406   8.126
  191MPD2    C3 3231   2.069   2.390   8.097
  191MPD2    C4 3232   2.154   2.333   8.191
  191MPD2    C5 3233   2.110   2.309   8.313
  191MPD2     H 3234   1.866   2.459   8.057
  191MPD2    H1 3235   2.259   2.321   8.167
  191MPD2    H2 3236   1.949   2.328   8.454
  191MPD2    H3 3237   2.182   2.281   8.389
  191MPD2     N 3238   2.106   2.433   7.967
  191MPD2    H5 3239   2.041   2.492   7.917
  191MPD2    N1 3240   1.758   2.399   8.297
  191MPD2    H7 3241   1.744   2.382   8.396
  192MPD2     C 3242   2.428   2.364  11.952
  192MPD2    C1 3243   2.509   2.463  11.897
  192MPD2    C2 3244   2.598   2.419  11.791
  192MPD2    C3 3245   2.611   2.282  11.762
  192MPD2    C4 3246   2.534   2.188  11.826
  192MPD2    C5 3247   2.437   2.233  11.914
  192MPD2     H 3248   2.651   2.499  11.741
  192MPD2    H1 3249   2.546   2.082  11.804
  192MPD2    H2 3250   2.344   2.396  12.013
  192MPD2    H3 3251   2.369   2.157  11.951
  192MPD2     N 3252   2.704   2.230  11.672
  192MPD2    H5 3253   2.729   2.133  11.688
  192MPD2    N1 3254   2.497   2.601  11.929
  192MPD2    H7 3255   2.553   2.663  11.872
  193MPD2     C 3256   2.507   3.184  12.609
  193MPD2    C1 3257   2.596   3.190  12.500
  193MPD2    C2 3258   2.704   3.278  12.506
  193MPD2    C3 3259   2.731   3.348  12.619
  193MPD2    C4 3260   2.638   3.356  12.723
  193MPD2    C5 3261   2.532   3.262  12.717
  193MPD2     H 3262   2.776   3.279  12.425
  193MPD2    H1 3263   2.649   3.418  12.811
  193MPD2    H2 3264   2.427   3.111  12.613
  193MPD2    H3 3265   2.449   3.279  12.785
  193MPD2     N 3266   2.850   3.435  12.634
  193MPD2    H5 3267   2.847   3.499  12.713
  193MPD2    N1 3268   2.588   3.112  12.385
  193MPD2    H7 3269   2.642   3.143  12.304
  194MPD2     C 3270   0.482   3.897  14.430
  194MPD2    C1 3271   0.398   3.809  14.489
  194MPD2    C2 3272   0.271   3.853  14.535
  194MPD2    C3 3273   0.242   3.987  14.526
  194MPD2    C4 3274   0.337   4.076  14.485
  194MPD2    C5 3275   0.454   4.033  14.434
  194MPD2     H 3276   0.196   3.777  14.554
  194MPD2    H1 3277   0.318   4.183  14.485
  194MPD2    H2 3278   0.584   3.878  14.399
  194MPD2    H3 3279   0.525   4.104  14.393
  194MPD2     N 3280   0.125   4.049  14.568
  194MPD2    H5 3281   0.119   4.149  14.586
  194MPD2    N1 3282   0.429   3.668  14.503
  194MPD2    H7 3283   0.382   3.613  14.574
  195MPD2     C 3284   4.002   3.908  14.633
  195MPD2    C1 3285   4.130   3.899  14.592
  195MPD2    C2 3286   4.164   3.836  14.473
  195MPD2    C3 3287   4.057   3.796  14.396
  195MPD2    C4 3288   3.925   3.802  14.440
  195MPD2    C5 3289   3.898   3.868  14.555
  195MPD2     H 3290   4.264   3.847  14.433
  195MPD2    H1 3291   3.842   3.766  14.381
  195MPD2    H2 3292   3.975   3.942  14.732
  195MPD2    H3 3293   3.794   3.870  14.585
  195MPD2     N 3294   4.069   3.761  14.260
  195MPD2    H5 3295   3.987   3.737  14.205
  195MPD2    N1 3296   4.235   3.948  14.672
  195MPD2    H7 3297   4.216   4.020  14.742
  196MPD2     C 3298   4.512   4.241  13.888
  196MPD2    C1 3299   4.609   4.329  13.939
  196MPD2    C2 3300   4.623   4.343  14.076
  196MPD2    C3 3301   4.551   4.263  14.156
  196MPD2    C4 3302   4.462   4.173  14.102
  196MPD2    C5 3303   4.430   4.163  13.969
  196MPD2     H 3304   4.690   4.421  14.111
  196MPD2    H1 3305   4.419   4.095  14.165
  196MPD2    H2 3306   4.501   4.225  13.781
  196MPD2    H3 3307   4.372   4.083  13.925
  196MPD2     N 3308   4.569   4.260  14.296
  196MPD2    H5 3309   4.655   4.303  14.328
  196MPD2    N1 3310   4.692   4.404  13.854
  196MPD2    H7 3311   4.738   4.479  13.904
  197MPD2     C 3312   0.855   2.105  11.800
  197MPD2    C1 3313   0.832   2.149  11.932
  197MPD2    C2 3314   0.932   2.143  12.032
  197MPD2    C3 3315   1.065   2.121  11.990
  197MPD2    C4 3316   1.083   2.091  11.856
  197MPD2    C5 3317   0.982   2.078  11.764
  197MPD2     H 3318   0.902   2.165  12.134
  197MPD2    H1 3319   1.181   2.079  11.812
  197MPD2    H2 3320   0.778   2.110  11.724
  197MPD2    H3 3321   1.003   2.052  11.661
  197MPD2     N 3322   1.171   2.132  12.084
  197MPD2    H5 3323   1.147   2.125  12.182
  197MPD2    N1 3324   0.701   2.197  11.950
  197MPD2    H7 3325   0.630   2.176  11.881
  198MPD2     C 3326   0.749   2.934  11.971
  198MPD2    C1 3327   0.616   2.914  11.976
  198MPD2    C2 3328   0.530   3.018  11.942
  198MPD2    C3 3329   0.583   3.148  11.909
  198MPD2    C4 3330   0.722   3.155  11.920
  198MPD2    C5 3331   0.806   3.051  11.937
  198MPD2     H 3332   0.425   2.996  11.924
  198MPD2    H1 3333   0.763   3.252  11.894
  198MPD2    H2 3334   0.823   2.858  11.993
  198MPD2    H3 3335   0.912   3.064  11.917
  198MPD2     N 3336   0.501   3.258  11.876
  198MPD2    H5 3337   0.400   3.248  11.880
  198MPD2    N1 3338   0.574   2.782  12.014
  198MPD2    H7 3339   0.646   2.711  12.026
  199MPD2     C 3340   4.703   2.386  11.735
  199MPD2    C1 3341   0.046   2.354  11.710
  199MPD2    C2 3342   0.075   2.288  11.589
  199MPD2    C3 3343   4.761   2.252  11.500
  199MPD2    C4 3344   4.627   2.282  11.535
  199MPD2    C5 3345   4.606   2.360  11.646
  199MPD2     H 3346   0.174   2.251  11.566
  199MPD2    H1 3347   4.544   2.256  11.471
  199MPD2    H2 3348   4.668   2.436  11.824
  199MPD2    H3 3349   4.507   2.398  11.669
  199MPD2     N 3350   4.780   2.171  11.380
  199MPD2    H5 3351   4.700   2.111  11.363
  199MPD2    N1 3352   0.135   2.380  11.809
  199MPD2    H7 3353   0.099   2.438  11.884
  200MPD2     C 3354   4.537   2.635  11.444
  200MPD2    C1 3355   4.668   2.615  11.417
  200MPD2    C2 3356   4.693   2.531  11.308
  200MPD2    C3 3357   4.600   2.457  11.243
  200MPD2    C4 3358   4.468   2.476  11.285
  200MPD2    C5 3359   4.445   2.560  11.387
  200MPD2     H 3360   0.004   2.531  11.268
  200MPD2    H1 3361   4.378   2.431  11.243
  200MPD2    H2 3362   4.499   2.683  11.533
  200MPD2    H3 3363   4.341   2.576  11.412
  200MPD2     N 3364   4.650   2.373  11.145
  200MPD2    H5 3365   4.730   2.411  11.096
  200MPD2    N1 3366   4.771   2.684  11.486
  200MPD2    H7 3367   4.756   2.769  11.540
  201MPD2     C 3368   4.596   2.728  10.621
  201MPD2    C1 3369   4.513   2.628  10.654
  201MPD2    C2 3370   4.378   2.653  10.656
  201MPD2    C3 3371   4.318   2.772  10.634
  201MPD2    C4 3372   4.403   2.880  10.623
  201MPD2    C5 3373   4.536   2.853  10.599
  201MPD2     H 3374   4.310   2.570  10.670
  201MPD2    H1 3375   4.363   2.981  10.627
  201MPD2    H2 3376   4.704   2.723  10.621
  201MPD2    H3 3377   4.599   2.939  10.583
  201MPD2     N 3378   4.182   2.792  10.645
  201MPD2    H5 3379   4.164   2.892  10.654
  201MPD2    N1 3380   4.556   2.500  10.698
  201MPD2    H7 3381   4.483   2.437  10.731
  202MPD2     C 3382   0.535   1.772  10.970
  202MPD2    C1 3383   0.493   1.839  11.084
  202MPD2    C2 3384   0.390   1.931  11.073
  202MPD2    C3 3385   0.338   1.959  10.949
  202MPD2    C4 3386   0.389   1.894  10.841
  202MPD2    C5 3387   0.482   1.802  10.847
  202MPD2     H 3388   0.341   1.984  11.154
  202MPD2    H1 3389   0.350   1.915  10.742
  202MPD2    H2 3390   0.608   1.692  10.971
  202MPD2    H3 3391   0.505   1.736  10.764
  202MPD2     N 3392   0.224   2.044  10.940
  202MPD2    H5 3393   0.179   2.068  11.028
  202MPD2    N1 3394   0.547   1.792  11.205
  202MPD2    H7 3395   0.612   1.716  11.189
  203MPD2     C 3396   1.230   1.648   8.667
  203MPD2    C1 3397   1.151   1.623   8.557
  203MPD2    C2 3398   1.205   1.596   8.429
  203MPD2    C3 3399   1.342   1.595   8.411
  203MPD2    C4 3400   1.420   1.602   8.526
  203MPD2    C5 3401   1.356   1.618   8.645
  203MPD2     H 3402   1.139   1.598   8.343
  203MPD2    H1 3403   1.526   1.581   8.518
  203MPD2    H2 3404   1.191   1.672   8.765
  203MPD2    H3 3405   1.421   1.612   8.731
  203MPD2     N 3406   1.403   1.581   8.287
  203MPD2    H5 3407   1.504   1.583   8.295
  203MPD2    N1 3408   1.017   1.637   8.588
  203MPD2    H7 3409   0.995   1.675   8.679
  204MPD2     C 3410   2.026   1.019   8.284
  204MPD2    C1 3411   1.939   1.095   8.359
  204MPD2    C2 3412   1.860   1.175   8.283
  204MPD2    C3 3413   1.856   1.187   8.150
  204MPD2    C4 3414   1.944   1.108   8.076
  204MPD2    C5 3415   2.036   1.034   8.146
  204MPD2     H 3416   1.803   1.248   8.339
  204MPD2    H1 3417   1.940   1.109   7.968
  204MPD2    H2 3418   2.097   0.962   8.343
  204MPD2    H3 3419   2.117   0.995   8.086
  204MPD2     N 3420   1.759   1.281   8.095
  204MPD2    H5 3421   1.704   1.335   8.162
  204MPD2    N1 3422   1.949   1.091   8.504
  204MPD2    H7 3423   2.000   1.010   8.538
  205MPD2     C 3424   1.045   1.919   7.626
  205MPD2    C1 3425   1.021   1.784   7.647
  205MPD2    C2 3426   1.127   1.692   7.655
  205MPD2    C3 3427   1.260   1.737   7.635
  205MPD2    C4 3428   1.279   1.876   7.600
  205MPD2    C5 3429   1.173   1.960   7.592
  205MPD2     H 3430   1.106   1.590   7.687
  205MPD2    H1 3431   1.377   1.917   7.580
  205MPD2    H2 3432   0.963   1.990   7.629
  205MPD2    H3 3433   1.207   2.062   7.578
  205MPD2     N 3434   1.379   1.663   7.669
  205MPD2    H5 3435   1.460   1.722   7.686
  205MPD2    N1 3436   0.886   1.752   7.673
  205MPD2    H7 3437   0.818   1.827   7.682
  206MPD2     C 3438   1.936   4.053  11.019
  206MPD2    C1 3439   1.921   4.063  11.156
  206MPD2    C2 3440   1.992   4.164  11.216
  206MPD2    C3 3441   2.073   4.253  11.153
  206MPD2    C4 3442   2.080   4.240  11.012
  206MPD2    C5 3443   2.010   4.138  10.949
  206MPD2     H 3444   1.987   4.175  11.324
  206MPD2    H1 3445   2.153   4.293  10.952
  206MPD2    H2 3446   1.889   3.979  10.955
  206MPD2    H3 3447   2.020   4.109  10.845
  206MPD2     N 3448   2.148   4.347  11.221
  206MPD2    H5 3449   2.143   4.357  11.322
  206MPD2    N1 3450   1.839   3.967  11.223
  206MPD2    H7 3451   1.801   3.894  11.163
  207MPD2     C 3452   1.402   3.539  11.013
  207MPD2    C1 3453   1.374   3.544  11.148
  207MPD2    C2 3454   1.267   3.468  11.196
  207MPD2    C3 3455   1.191   3.389  11.111
  207MPD2    C4 3456   1.218   3.389  10.978
  207MPD2    C5 3457   1.322   3.459  10.932
  207MPD2     H 3458   1.239   3.469  11.301
  207MPD2    H1 3459   1.175   3.320  10.906
  207MPD2    H2 3460   1.495   3.573  10.969
  207MPD2    H3 3461   1.337   3.447  10.825
  207MPD2     N 3462   1.092   3.315  11.181
  207MPD2    H5 3463   1.085   3.335  11.280
  207MPD2    N1 3464   1.441   3.642  11.222
  207MPD2    H7 3465   1.507   3.705  11.176
  208MPD2     C 3466   1.702   3.245  11.956
  208MPD2    C1 3467   1.618   3.228  11.847
  208MPD2    C2 3468   1.602   3.347  11.763
  208MPD2    C3 3469   1.649   3.469  11.800
  208MPD2    C4 3470   1.715   3.486  11.921
  208MPD2    C5 3471   1.739   3.369  11.993
  208MPD2     H 3472   1.538   3.334  11.676
  208MPD2    H1 3473   1.756   3.581  11.952
  208MPD2    H2 3474   1.727   3.163  12.022
  208MPD2    H3 3475   1.794   3.376  12.086
  208MPD2     N 3476   1.624   3.579  11.715
  208MPD2    H5 3477   1.591   3.553  11.623
  208MPD2    N1 3478   1.570   3.103  11.806
  208MPD2    H7 3479   1.612   3.023  11.851
  209MPD2     C 3480   2.654   1.927  10.378
  209MPD2    C1 3481   2.750   2.001  10.306
  209MPD2    C2 3482   2.829   1.935  10.212
  209MPD2    C3 3483   2.806   1.804  10.182
  209MPD2    C4 3484   2.724   1.729  10.262
  209MPD2    C5 3485   2.648   1.796  10.354
  209MPD2     H 3486   2.895   1.998  10.153
  209MPD2    H1 3487   2.705   1.623  10.251
  209MPD2    H2 3488   2.585   1.967  10.452
  209MPD2    H3 3489   2.579   1.732  10.407
  209MPD2     N 3490   2.878   1.756  10.069
  209MPD2    H5 3491   2.952   1.818  10.038
  209MPD2    N1 3492   2.764   2.141  10.322
  209MPD2    H7 3493   2.842   2.192  10.282
  210MPD2     C 3494   3.360   2.829  10.034
  210MPD2    C1 3495   3.271   2.905  10.102
  210MPD2    C2 3496   3.181   2.843  10.189
  210MPD2    C3 3497   3.150   2.709  10.183
  210MPD2    C4 3498   3.239   2.627  10.102
  210MPD2    C5 3499   3.344   2.692  10.035
  210MPD2     H 3500   3.114   2.902  10.250
  210MPD2    H1 3501   3.243   2.519  10.095
  210MPD2    H2 3502   3.435   2.868   9.966
  210MPD2    H3 3503   3.404   2.638   9.963
  210MPD2     N 3504   3.037   2.670  10.251
  210MPD2    H5 3505   2.999   2.739  10.314
  210MPD2    N1 3506   3.257   3.042  10.070
  210MPD2    H7 3507   3.317   3.074   9.995
  211MPD2     C 3508   2.265   2.808  10.374
  211MPD2    C1 3509   2.299   2.674  10.400
  211MPD2    C2 3510   2.210   2.574  10.409
  211MPD2    C3 3511   2.076   2.604  10.394
  211MPD2    C4 3512   2.039   2.736  10.376
  211MPD2    C5 3513   2.133   2.841  10.369
  211MPD2     H 3514   2.251   2.474  10.418
  211MPD2    H1 3515   1.932   2.751  10.377
  211MPD2    H2 3516   2.340   2.885  10.362
  211MPD2    H3 3517   2.098   2.943  10.377
  211MPD2     N 3518   1.977   2.505  10.395
  211MPD2    H5 3519   1.881   2.522  10.367
  211MPD2    N1 3520   2.429   2.630  10.418
  211MPD2    H7 3521   2.439   2.536  10.455
  212MPD2     C 3522   1.788   2.779  13.733
  212MPD2    C1 3523   1.675   2.771  13.653
  212MPD2    C2 3524   1.609   2.645  13.649
  212MPD2    C3 3525   1.648   2.542  13.730
  212MPD2    C4 3526   1.772   2.553  13.794
  212MPD2    C5 3527   1.841   2.667  13.798
  212MPD2     H 3528   1.516   2.644  13.593
  212MPD2    H1 3529   1.816   2.471  13.850
  212MPD2    H2 3530   1.855   2.864  13.726
  212MPD2    H3 3531   1.939   2.671  13.845
  212MPD2     N 3532   1.574   2.424  13.728
  212MPD2    H5 3533   1.482   2.441  13.690
  212MPD2    N1 3534   1.631   2.881  13.569
  212MPD2    H7 3535   1.558   2.866  13.500
  213MPD2     C 3536   1.855   1.782  13.688
  213MPD2    C1 3537   1.842   1.913  13.730
  213MPD2    C2 3538   1.930   2.008  13.682
  213MPD2    C3 3539   2.034   1.961  13.600
  213MPD2    C4 3540   2.045   1.831  13.558
  213MPD2    C5 3541   1.950   1.743  13.604
  213MPD2     H 3542   1.916   2.115  13.697
  213MPD2    H1 3543   2.123   1.799  13.490
  213MPD2    H2 3544   1.794   1.703  13.731
  213MPD2    H3 3545   1.958   1.638  13.577
  213MPD2     N 3546   2.134   2.048  13.553
  213MPD2    H5 3547   2.189   2.005  13.479
  213MPD2    N1 3548   1.728   1.968  13.790
  213MPD2    H7 3549   1.730   2.068  13.809
  214MPD2     C 3550   1.032   3.194  10.660
  214MPD2    C1 3551   0.976   3.180  10.542
  214MPD2    C2 3552   0.968   3.051  10.488
  214MPD2    C3 3553   0.984   2.937  10.571
  214MPD2    C4 3554   1.037   2.956  10.696
  214MPD2    C5 3555   1.068   3.084  10.734
  214MPD2     H 3556   0.931   3.045  10.386
  214MPD2    H1 3557   1.045   2.879  10.771
  214MPD2    H2 3558   1.054   3.290  10.706
  214MPD2    H3 3559   1.110   3.106  10.831
  214MPD2     N 3560   0.951   2.807  10.515
  214MPD2    H5 3561   0.953   2.804  10.414
  214MPD2    N1 3562   0.959   3.299  10.468
  214MPD2    H7 3563   0.998   3.383  10.510
  215MPD2     C 3564   0.651   2.337   9.798
  215MPD2    C1 3565   0.619   2.287   9.922
  215MPD2    C2 3566   0.688   2.342  10.032
  215MPD2    C3 3567   0.795   2.430  10.023
  215MPD2    C4 3568   0.837   2.467   9.893
  215MPD2    C5 3569   0.758   2.424   9.787
  215MPD2     H 3570   0.659   2.305  10.130
  215MPD2    H1 3571   0.920   2.530   9.862
  215MPD2    H2 3572   0.594   2.307   9.711
  215MPD2    H3 3573   0.791   2.458   9.690
  215MPD2     N 3574   0.865   2.456  10.141
  215MPD2    H5 3575   0.833   2.409  10.225
  215MPD2    N1 3576   0.530   2.178   9.919
  215MPD2    H7 3577   0.496   2.159   9.825
  216MPD2     C 3578   2.800   4.242  10.822
  216MPD2    C1 3579   2.705   4.197  10.917
  216MPD2    C2 3580   2.605   4.109  10.880
  216MPD2    C3 3581   2.606   4.053  10.752
  216MPD2    C4 3582   2.699   4.094  10.658
  216MPD2    C5 3583   2.796   4.186  10.694
  216MPD2     H 3584   2.527   4.086  10.952
  216MPD2    H1 3585   2.700   4.057  10.556
  216MPD2    H2 3586   2.875   4.316  10.844
  216MPD2    H3 3587   2.872   4.213  10.622
  216MPD2     N 3588   2.512   3.961  10.718
  216MPD2    H5 3589   2.476   3.911  10.798
  216MPD2    N1 3590   2.697   4.253  11.045
  216MPD2    H7 3591   2.632   4.203  11.104
  217MPD2     C 3592   2.730   0.257  11.321
  217MPD2    C1 3593   2.824   0.176  11.391
  217MPD2    C2 3594   2.944   0.239  11.434
  217MPD2    C3 3595   2.983   0.362  11.394
  217MPD2    C4 3596   2.897   0.435  11.319
  217MPD2    C5 3597   2.768   0.387  11.296
  217MPD2     H 3598   3.020   0.187  11.492
  217MPD2    H1 3599   2.915   0.538  11.289
  217MPD2    H2 3600   2.640   0.212  11.281
  217MPD2    H3 3601   2.703   0.443  11.230
  217MPD2     N 3602   3.115   0.414  11.402
  217MPD2    H5 3603   3.181   0.370  11.465
  217MPD2    N1 3604   2.800   0.034  11.401
  217MPD2    H7 3605   2.874   4.765  11.438
  218MPD2     C 3606   2.836   4.343  12.072
  218MPD2    C1 3607   2.766   4.257  11.984
  218MPD2    C2 3608   2.779   4.262  11.842
  218MPD2    C3 3609   2.860   4.358  11.783
  218MPD2    C4 3610   2.935   4.439  11.868
  218MPD2    C5 3611   2.913   4.439  12.007
  218MPD2     H 3612   2.718   4.198  11.778
  218MPD2    H1 3613   3.003   4.514  11.831
  218MPD2    H2 3614   2.817   4.347  12.179
  218MPD2    H3 3615   2.971   4.516  12.056
  218MPD2     N 3616   2.868   4.391  11.642
  218MPD2    H5 3617   2.930   4.466  11.615
  218MPD2    N1 3618   2.684   4.165  12.047
  218MPD2    H7 3619   2.645   4.199  12.135
  219MPD2     C 3620   1.912   3.997   8.208
  219MPD2    C1 3621   1.879   3.916   8.310
  219MPD2    C2 3622   1.801   3.808   8.280
  219MPD2    C3 3623   1.739   3.796   8.158
  219MPD2    C4 3624   1.757   3.892   8.058
  219MPD2    C5 3625   1.852   3.985   8.084
  219MPD2     H 3626   1.773   3.736   8.356
  219MPD2    H1 3627   1.713   3.879   7.960
  219MPD2    H2 3628   1.979   4.081   8.223
  219MPD2    H3 3629   1.879   4.044   7.997
  219MPD2     N 3630   1.642   3.689   8.134
  219MPD2    H5 3631   1.603   3.681   8.041
  219MPD2    N1 3632   1.939   3.927   8.437
  219MPD2    H7 3633   2.014   3.995   8.439
  220MPD2     C 3634   1.565   3.408   9.027
  220MPD2    C1 3635   1.689   3.469   9.001
  220MPD2    C2 3636   1.797   3.431   9.077
  220MPD2    C3 3637   1.781   3.351   9.183
  220MPD2    C4 3638   1.662   3.290   9.209
  220MPD2    C5 3639   1.559   3.320   9.129
  220MPD2     H 3640   1.887   3.489   9.064
  220MPD2    H1 3641   1.650   3.221   9.291
  220MPD2    H2 3642   1.480   3.426   8.963
  220MPD2    H3 3643   1.463   3.273   9.147
  220MPD2     N 3644   1.887   3.317   9.268
  220MPD2    H5 3645   1.867   3.267   9.354
  220MPD2    N1 3646   1.696   3.574   8.913
  220MPD2    H7 3647   1.780   3.630   8.923
  221MPD2     C 3648   1.310   4.178   8.923
  221MPD2    C1 3649   1.319   4.144   8.788
  221MPD2    C2 3650   1.261   4.230   8.696
  221MPD2    C3 3651   1.212   4.352   8.731
  221MPD2    C4 3652   1.218   4.387   8.862
  221MPD2    C5 3653   1.251   4.299   8.957
  221MPD2     H 3654   1.257   4.216   8.589
  221MPD2    H1 3655   1.195   4.491   8.884
  221MPD2    H2 3656   1.367   4.115   8.990
  221MPD2    H3 3657   1.260   4.326   9.062
  221MPD2     N 3658   1.169   4.461   8.638
  221MPD2    H5 3659   1.166   4.558   8.667
  221MPD2    N1 3660   1.400   4.036   8.749
  221MPD2    H7 3661   1.430   3.973   8.822
  222MPD2     C 3662   1.098   0.989  14.246
  222MPD2    C1 3663   0.969   1.019  14.275
  222MPD2    C2 3664   0.938   1.101  14.382
  222MPD2    C3 3665   1.045   1.154  14.455
  222MPD2    C4 3666   1.176   1.121  14.424
  222MPD2    C5 3667   1.206   1.040  14.318
  222MPD2     H 3668   0.833   1.122  14.400
  222MPD2    H1 3669   1.256   1.144  14.493
  222MPD2    H2 3670   1.126   0.929  14.161
  222MPD2    H3 3671   1.306   1.013  14.285
  222MPD2     N 3672   1.039   1.244  14.569
  222MPD2    H5 3673   1.122   1.299  14.591
  222MPD2    N1 3674   0.867   0.944  14.206
  222MPD2    H7 3675   0.774   0.947  14.246
  223MPD2     C 3676   0.308   1.916  14.836
  223MPD2    C1 3677   0.447   1.968  14.850
  223MPD2    C2 3678   0.554   1.878  14.846
  223MPD2    C3 3679   0.535   1.740  14.835
  223MPD2    C4 3680   0.407   1.691  14.814
  223MPD2    C5 3681   0.305   1.776  14.818
  223MPD2     H 3682   0.654   1.920  14.845
  223MPD2    H1 3683   0.397   1.585  14.794
  223MPD2    H2 3684   0.218   1.973  14.853
  223MPD2    H3 3685   0.207   1.731  14.814
  223MPD2     N 3686   0.642   1.652  14.818
  223MPD2    H5 3687   0.630   1.554  14.794
  223MPD2    N1 3688   0.479   2.103  14.866
  223MPD2    H7 3689   0.578   2.126  14.865
  224MPD2     C 3690   1.710   1.600  14.910
  224MPD2    C1 3691   1.636   1.582  15.024
  224MPD2    C2 3692   1.497   1.559  15.011
  224MPD2    C3 3693   1.441   1.541  14.883
  224MPD2    C4 3694   1.523   1.538  14.778
  224MPD2    C5 3695   1.657   1.571  14.788
  224MPD2     H 3696   1.441   1.545  15.103
  224MPD2    H1 3697   1.497   1.501  14.680
  224MPD2    H2 3698   1.815   1.627  14.914
  224MPD2    H3 3699   1.725   1.575  14.704
  224MPD2     N 3700   1.308   1.508  14.857
  224MPD2    H5 3701   1.288   1.479  14.762
  224MPD2    N1 3702   1.685   1.606  15.154
  224MPD2    H7 3703   1.786   1.609  15.141
  225MPD2     C 3704   2.178   1.655  11.206
  225MPD2    C1 3705   2.268   1.559  11.165
  225MPD2    C2 3706   2.339   1.585  11.049
  225MPD2    C3 3707   2.320   1.695  10.972
  225MPD2    C4 3708   2.229   1.788  11.010
  225MPD2    C5 3709   2.164   1.770  11.128
  225MPD2     H 3710   2.410   1.508  11.022
  225MPD2    H1 3711   2.199   1.873  10.950
  225MPD2    H2 3712   2.114   1.639  11.292
  225MPD2    H3 3713   2.088   1.840  11.161
  225MPD2     N 3714   2.391   1.700  10.857
  225MPD2    H5 3715   2.430   1.615  10.817
  225MPD2    N1 3716   2.289   1.434  11.231
  225MPD2    H7 3717   2.350   1.370  11.182
  226MPD2     C 3718   2.282   0.616  10.748
  226MPD2    C1 3719   2.416   0.651  10.758
  226MPD2    C2 3720   2.448   0.780  10.722
  226MPD2    C3 3721   2.354   0.868  10.663
  226MPD2    C4 3722   2.223   0.826  10.657
  226MPD2    C5 3723   2.192   0.699  10.698
  226MPD2     H 3724   2.544   0.827  10.742
  226MPD2    H1 3725   2.139   0.891  10.635
  226MPD2    H2 3726   2.254   0.518  10.784
  226MPD2    H3 3727   2.088   0.669  10.693
  226MPD2     N 3728   2.387   1.000  10.632
  226MPD2    H5 3729   2.476   1.022  10.675
  226MPD2    N1 3730   2.517   0.573  10.820
  226MPD2    H7 3731   2.610   0.613  10.825
  227MPD2     C 3732   3.179   1.128  10.621
  227MPD2    C1 3733   3.127   1.254  10.621
  227MPD2    C2 3734   2.997   1.282  10.581
  227MPD2    C3 3735   2.920   1.181  10.525
  227MPD2    C4 3736   2.975   1.050  10.522
  227MPD2    C5 3737   3.102   1.027  10.569
  227MPD2     H 3738   2.965   1.385  10.574
  227MPD2    H1 3739   2.920   0.963  10.488
  227MPD2    H2 3740   3.274   1.104  10.666
  227MPD2    H3 3741   3.151   0.931  10.575
  227MPD2     N 3742   2.786   1.193  10.483
  227MPD2    H5 3743   2.741   1.104  10.463
  227MPD2    N1 3744   3.206   1.355  10.685
  227MPD2    H7 3745   3.294   1.316  10.717
  228MPD2     C 3746   2.298   1.778  10.221
  228MPD2    C1 3747   2.277   1.731  10.353
  228MPD2    C2 3748   2.251   1.818  10.455
  228MPD2    C3 3749   2.251   1.955  10.434
  228MPD2    C4 3750   2.260   2.000  10.302
  228MPD2    C5 3751   2.286   1.914  10.196
  228MPD2     H 3752   2.240   1.780  10.556
  228MPD2    H1 3753   2.261   2.106  10.281
  228MPD2    H2 3754   2.337   1.714  10.142
  228MPD2    H3 3755   2.303   1.950  10.095
  228MPD2     N 3756   2.218   2.052  10.526
  228MPD2    H5 3757   2.254   2.145  10.509
  228MPD2    N1 3758   2.295   1.594  10.384
  228MPD2    H7 3759   2.275   1.581  10.483
  229MPD2     C 3760   1.601   0.146  13.562
  229MPD2    C1 3761   1.734   0.125  13.593
  229MPD2    C2 3762   1.802   0.223  13.660
  229MPD2    C3 3763   1.735   0.336  13.713
  229MPD2    C4 3764   1.605   0.345  13.689
  229MPD2    C5 3765   1.538   0.253  13.614
  229MPD2     H 3766   1.907   0.204  13.680
  229MPD2    H1 3767   1.556   0.432  13.731
  229MPD2    H2 3768   1.551   0.078  13.494
  229MPD2    H3 3769   1.435   0.277  13.589
  229MPD2     N 3770   1.799   0.450  13.780
  229MPD2    H5 3771   1.737   0.523  13.813
  229MPD2    N1 3772   1.807   0.011  13.543
  229MPD2    H7 3773   1.905   4.787  13.564
  230MPD2     C 3774   1.930   1.207  13.883
  230MPD2    C1 3775   2.023   1.133  13.955
  230MPD2    C2 3776   2.143   1.197  13.988
  230MPD2    C3 3777   2.162   1.336  13.968
  230MPD2    C4 3778   2.052   1.413  13.918
  230MPD2    C5 3779   1.940   1.346  13.865
  230MPD2     H 3780   2.220   1.131  14.025
  230MPD2    H1 3781   2.056   1.518  13.891
  230MPD2    H2 3782   1.839   1.158  13.850
  230MPD2    H3 3783   1.873   1.406  13.804
  230MPD2     N 3784   2.285   1.403  13.997
  230MPD2    H5 3785   2.300   1.497  13.962
  230MPD2    N1 3786   2.007   0.994  13.971
  230MPD2    H7 3787   2.072   0.940  14.027
  231MPD2     C 3788   1.605   0.505  14.416
  231MPD2    C1 3789   1.621   0.496  14.277
  231MPD2    C2 3790   1.523   0.433  14.201
  231MPD2    C3 3791   1.406   0.388  14.268
  231MPD2    C4 3792   1.399   0.381  14.402
  231MPD2    C5 3793   1.495   0.446  14.471
  231MPD2     H 3794   1.553   0.426  14.097
  231MPD2    H1 3795   1.310   0.336  14.444
  231MPD2    H2 3796   1.680   0.539  14.486
  231MPD2    H3 3797   1.493   0.436  14.579
  231MPD2     N 3798   1.311   0.304  14.203
  231MPD2    H5 3799   1.231   0.277  14.260
  231MPD2    N1 3800   1.737   0.532  14.211
  231MPD2    H7 3801   1.733   0.498  14.115
  232MPD2     C 3802   3.361   1.828   9.300
  232MPD2    C1 3803   3.469   1.892   9.238
  232MPD2    C2 3804   3.506   1.853   9.111
  232MPD2    C3 3805   3.441   1.746   9.055
  232MPD2    C4 3806   3.334   1.680   9.103
  232MPD2    C5 3807   3.296   1.730   9.228
  232MPD2     H 3808   3.599   1.895   9.074
  232MPD2    H1 3809   3.277   1.599   9.059
  232MPD2    H2 3810   3.322   1.853   9.398
  232MPD2    H3 3811   3.219   1.675   9.282
  232MPD2     N 3812   3.503   1.668   8.952
  232MPD2    H5 3813   3.476   1.571   8.936
  232MPD2    N1 3814   3.548   1.994   9.301
  232MPD2    H7 3815   3.634   2.026   9.259
  233MPD2     C 3816   4.230   2.009   9.427
  233MPD2    C1 3817   4.159   2.067   9.529
  233MPD2    C2 3818   4.232   2.101   9.640
  233MPD2    C3 3819   4.367   2.106   9.645
  233MPD2    C4 3820   4.435   2.070   9.528
  233MPD2    C5 3821   4.363   2.017   9.420
  233MPD2     H 3822   4.180   2.139   9.727
  233MPD2    H1 3823   4.542   2.081   9.513
  233MPD2    H2 3824   4.188   1.991   9.329
  233MPD2    H3 3825   4.416   2.001   9.327
  233MPD2     N 3826   4.431   2.157   9.761
  233MPD2    H5 3827   4.369   2.161   9.842
  233MPD2    N1 3828   4.017   2.084   9.516
  233MPD2    H7 3829   3.971   2.043   9.435
  234MPD2     C 3830   3.767   2.605   9.164
  234MPD2    C1 3831   3.852   2.566   9.263
  234MPD2    C2 3832   3.985   2.597   9.251
  234MPD2    C3 3833   4.042   2.661   9.142
  234MPD2    C4 3834   3.956   2.698   9.046
  234MPD2    C5 3835   3.820   2.678   9.058
  234MPD2     H 3836   4.057   2.569   9.327
  234MPD2    H1 3837   3.988   2.747   8.955
  234MPD2    H2 3838   3.661   2.584   9.168
  234MPD2    H3 3839   3.755   2.713   8.978
  234MPD2     N 3840   4.177   2.672   9.105
  234MPD2    H5 3841   4.187   2.712   9.012
  234MPD2    N1 3842   3.807   2.510   9.382
  234MPD2    H7 3843   3.870   2.495   9.460
  235MPD2     C 3844   3.311   0.858  14.913
  235MPD2    C1 3845   3.390   0.874  15.026
  235MPD2    C2 3846   3.529   0.889  15.019
  235MPD2    C3 3847   3.601   0.878  14.902
  235MPD2    C4 3848   3.514   0.860  14.788
  235MPD2    C5 3849   3.381   0.855  14.792
  235MPD2     H 3850   3.584   0.895  15.112
  235MPD2    H1 3851   3.561   0.831  14.694
  235MPD2    H2 3852   3.203   0.854  14.919
  235MPD2    H3 3853   3.325   0.827  14.703
  235MPD2     N 3854   3.745   0.891  14.901
  235MPD2    H5 3855   3.796   0.882  14.989
  235MPD2    N1 3856   3.327   0.872  15.154
  235MPD2    H7 3857   3.389   0.876  15.234
  236MPD2     C 3858   4.390   0.528  14.412
  236MPD2    C1 3859   4.289   0.615  14.444
  236MPD2    C2 3860   4.226   0.624  14.564
  236MPD2    C3 3861   4.285   0.549  14.665
  236MPD2    C4 3862   4.383   0.452  14.633
  236MPD2    C5 3863   4.432   0.438  14.505
  236MPD2     H 3864   4.139   0.687  14.579
  236MPD2    H1 3865   4.421   0.382  14.707
  236MPD2    H2 3866   4.427   0.517  14.311
  236MPD2    H3 3867   4.502   0.362  14.474
  236MPD2     N 3868   4.254   0.550  14.800
  236MPD2    H5 3869   4.310   0.478  14.846
  236MPD2    N1 3870   4.231   0.702  14.353
  236MPD2    H7 3871   4.152   0.752  14.392
  237MPD2     C 3872   4.271   1.323  14.504
  237MPD2    C1 3873   4.186   1.307  14.610
  237MPD2    C2 3874   4.117   1.423  14.642
  237MPD2    C3 3875   4.116   1.545  14.575
  237MPD2    C4 3876   4.201   1.553  14.476
  237MPD2    C5 3877   4.282   1.448  14.446
  237MPD2     H 3878   4.033   1.415  14.710
  237MPD2    H1 3879   4.229   1.647  14.430
  237MPD2    H2 3880   4.337   1.245  14.466
  237MPD2    H3 3881   4.354   1.465  14.367
  237MPD2     N 3882   4.028   1.654  14.605
  237MPD2    H5 3883   4.045   1.745  14.563
  237MPD2    N1 3884   4.169   1.187  14.689
  237MPD2    H7 3885   4.111   1.192  14.772
  238MPD2     C 3886   1.769   3.256  12.570
  238MPD2    C1 3887   1.758   3.396  12.559
  238MPD2    C2 3888   1.843   3.472  12.637
  238MPD2    C3 3889   1.941   3.418  12.720
  238MPD2    C4 3890   1.954   3.282  12.726
  238MPD2    C5 3891   1.859   3.207  12.661
  238MPD2     H 3892   1.830   3.579  12.632
  238MPD2    H1 3893   2.038   3.232  12.773
  238MPD2    H2 3894   1.701   3.183  12.528
  238MPD2    H3 3895   1.863   3.100  12.675
  238MPD2     N 3896   2.033   3.509  12.769
  238MPD2    H5 3897   2.017   3.608  12.751
  238MPD2    N1 3898   1.664   3.455  12.467
  238MPD2    H7 3899   1.647   3.555  12.467
  239MPD2     C 3900   0.822   3.469  12.373
  239MPD2    C1 3901   0.936   3.508  12.438
  239MPD2    C2 3902   0.925   3.574  12.562
  239MPD2    C3 3903   0.804   3.604  12.613
  239MPD2    C4 3904   0.693   3.571  12.545
  239MPD2    C5 3905   0.699   3.493  12.425
  239MPD2     H 3906   1.010   3.613  12.617
  239MPD2    H1 3907   0.593   3.591  12.582
  239MPD2    H2 3908   0.831   3.415  12.279
  239MPD2    H3 3909   0.605   3.467  12.379
  239MPD2     N 3910   0.797   3.665  12.740
  239MPD2    H5 3911   0.883   3.693  12.786
  239MPD2    N1 3912   1.058   3.499  12.368
  239MPD2    H7 3913   1.056   3.443  12.284
  240MPD2     C 3914   1.650   3.305   7.105
  240MPD2    C1 3915   1.783   3.323   7.130
  240MPD2    C2 3916   1.863   3.219   7.173
  240MPD2    C3 3917   1.807   3.098   7.202
  240MPD2    C4 3918   1.673   3.079   7.168
  240MPD2    C5 3919   1.599   3.181   7.111
  240MPD2     H 3920   1.971   3.230   7.177
  240MPD2    H1 3921   1.627   2.982   7.181
  240MPD2    H2 3922   1.591   3.389   7.070
  240MPD2    H3 3923   1.496   3.158   7.086
  240MPD2     N 3924   1.879   2.989   7.258
  240MPD2    H5 3925   1.831   2.905   7.287
  240MPD2    N1 3926   1.848   3.452   7.118
  240MPD2    H7 3927   1.945   3.447   7.147
  241MPD2     C 3928   2.857   2.737   7.655
  241MPD2    C1 3929   2.816   2.842   7.575
  241MPD2    C2 3930   2.687   2.862   7.547
  241MPD2    C3 3931   2.594   2.785   7.604
  241MPD2    C4 3932   2.628   2.681   7.688
  241MPD2    C5 3933   2.760   2.662   7.716
  241MPD2     H 3934   2.667   2.938   7.473
  241MPD2    H1 3935   2.549   2.614   7.720
  241MPD2    H2 3936   2.963   2.722   7.675
  241MPD2    H3 3937   2.784   2.596   7.799
  241MPD2     N 3938   2.455   2.796   7.579
  241MPD2    H5 3939   2.389   2.743   7.635
  241MPD2    N1 3940   2.915   2.937   7.546
  241MPD2    H7 3941   3.003   2.931   7.597
  242MPD2     C 3942   1.650   2.920   8.064
  242MPD2    C1 3943   1.646   3.027   7.981
  242MPD2    C2 3944   1.723   3.020   7.868
  242MPD2    C3 3945   1.806   2.912   7.853
  242MPD2    C4 3946   1.810   2.803   7.940
  242MPD2    C5 3947   1.725   2.804   8.045
  242MPD2     H 3948   1.720   3.097   7.792
  242MPD2    H1 3949   1.879   2.719   7.935
  242MPD2    H2 3950   1.585   2.927   8.150
  242MPD2    H3 3951   1.721   2.715   8.107
  242MPD2     N 3952   1.898   2.920   7.750
  242MPD2    H5 3953   1.894   3.002   7.690
  242MPD2    N1 3954   1.556   3.130   8.011
  242MPD2    H7 3955   1.521   3.137   8.106
  243MPD2     C 3956   4.289   3.055  14.386
  243MPD2    C1 3957   4.306   3.107  14.516
  243MPD2    C2 3958   4.225   3.217  14.550
  243MPD2    C3 3959   4.133   3.273  14.463
  243MPD2    C4 3960   4.128   3.221  14.334
  243MPD2    C5 3961   4.200   3.116  14.301
  243MPD2     H 3962   4.235   3.244  14.655
  243MPD2    H1 3963   4.063   3.270  14.263
  243MPD2    H2 3964   4.339   2.964  14.355
  243MPD2    H3 3965   4.195   3.083  14.198
  243MPD2     N 3966   4.046   3.383  14.499
  243MPD2    H5 3967   3.969   3.403  14.437
  243MPD2    N1 3968   4.407   3.064  14.608
  243MPD2    H7 3969   4.411   3.119  14.693
  244MPD2     C 3970   4.132   4.071  15.266
  244MPD2    C1 3971   4.012   4.086  15.188
  244MPD2    C2 3972   3.965   3.979  15.115
  244MPD2    C3 3973   4.047   3.867  15.092
  244MPD2    C4 3974   4.172   3.859  15.159
  244MPD2    C5 3975   4.209   3.958  15.247
  244MPD2     H 3976   3.868   3.982  15.066
  244MPD2    H1 3977   4.237   3.773  15.155
  244MPD2    H2 3978   4.176   4.144  15.334
  244MPD2    H3 3979   4.304   3.948  15.298
  244MPD2     N 3980   4.005   3.755  15.016
  244MPD2    H5 3981   4.069   3.680  14.992
  244MPD2    N1 3982   3.926   4.198  15.197
  244MPD2    H7 3983   3.832   4.194  15.160
  245MPD2     C 3984   3.328   3.627  14.512
  245MPD2    C1 3985   3.406   3.723  14.577
  245MPD2    C2 3986   3.362   3.854  14.584
  245MPD2    C3 3987   3.249   3.898  14.521
  245MPD2    C4 3988   3.175   3.801  14.461
  245MPD2    C5 3989   3.213   3.669  14.450
  245MPD2     H 3990   3.422   3.932  14.629
  245MPD2    H1 3991   3.078   3.826  14.419
  245MPD2    H2 3992   3.358   3.523  14.500
  245MPD2    H3 3993   3.148   3.593  14.408
  245MPD2     N 3994   3.220   4.039  14.518
  245MPD2    H5 3995   3.261   4.106  14.583
  245MPD2    N1 3996   3.531   3.687  14.631
  245MPD2    H7 3997   3.573   3.762  14.684
  246MPD2     C 3998   4.745   2.339   8.224
  246MPD2    C1 3999   4.762   2.350   8.089
  246MPD2    C2 4000   4.704   2.253   8.013
  246MPD2    C3 4001   4.612   2.164   8.055
  246MPD2    C4 4002   4.588   2.154   8.189
  246MPD2    C5 4003   4.652   2.246   8.271
  246MPD2     H 4004   4.717   2.251   7.905
  246MPD2    H1 4005   4.531   2.078   8.240
  246MPD2    H2 4006   0.009   2.405   8.291
  246MPD2    H3 4007   4.631   2.252   8.377
  246MPD2     N 4008   4.550   2.085   7.956
  246MPD2    H5 4009   4.564   2.110   7.859
  246MPD2    N1 4010   0.054   2.451   8.049
  246MPD2    H7 4011   0.103   2.499   8.124
  247MPD2     C 4012   0.257   2.722   7.323
  247MPD2    C1 4013   0.134   2.653   7.312
  247MPD2    C2 4014   0.086   2.610   7.196
  247MPD2    C3 4015   0.156   2.631   7.081
  247MPD2    C4 4016   0.283   2.684   7.091
  247MPD2    C5 4017   0.335   2.730   7.212
  247MPD2     H 4018   4.776   2.568   7.201
  247MPD2    H1 4019   0.344   2.686   7.001
  247MPD2    H2 4020   0.302   2.747   7.419
  247MPD2    H3 4021   0.434   2.774   7.216
  247MPD2     N 4022   0.122   2.575   6.956
  247MPD2    H5 4023   0.200   2.562   6.892
  247MPD2    N1 4024   0.079   2.616   7.441
  247MPD2    H7 4025   0.131   2.631   7.527
  248MPD2     C 4026   3.999   2.262   8.000
  248MPD2    C1 4027   4.052   2.226   7.875
  248MPD2    C2 4028   4.169   2.298   7.842
  248MPD2    C3 4029   4.227   2.388   7.931
  248MPD2    C4 4030   4.186   2.395   8.058
  248MPD2    C5 4031   4.066   2.334   8.094
  248MPD2     H 4032   4.206   2.284   7.741
  248MPD2    H1 4033   4.226   2.462   8.133
  248MPD2    H2 4034   3.899   2.226   8.021
  248MPD2    H3 4035   4.024   2.341   8.194
  248MPD2     N 4036   4.342   2.466   7.895
  248MPD2    H5 4037   4.388   2.528   7.961
  248MPD2    N1 4038   3.993   2.124   7.794
  248MPD2    H7 4039   3.893   2.110   7.798
  249MPD2     C 4040   3.066   4.513  11.155
  249MPD2    C1 4041   3.177   4.491  11.236
  249MPD2    C2 4042   3.234   4.583  11.320
  249MPD2    C3 4043   3.184   4.715  11.308
  249MPD2    C4 4044   3.084   4.742  11.215
  249MPD2    C5 4045   3.018   4.643  11.141
  249MPD2     H 4046   3.311   4.545  11.386
  249MPD2    H1 4047   3.036   0.049  11.206
  249MPD2    H2 4048   3.028   4.446  11.079
  249MPD2    H3 4049   2.942   4.665  11.066
  249MPD2     N 4050   3.211   0.032  11.398
  249MPD2    H5 4051   3.176   0.120  11.360
  249MPD2    N1 4052   3.239   4.368  11.219
  249MPD2    H7 4053   3.340   4.367  11.231
  250MPD2     C 4054   3.793   3.888  11.184
  250MPD2    C1 4055   3.697   3.871  11.089
  250MPD2    C2 4056   3.668   3.743  11.041
  250MPD2    C3 4057   3.750   3.633  11.078
  250MPD2    C4 4058   3.845   3.646  11.181
  250MPD2    C5 4059   3.862   3.771  11.233
  250MPD2     H 4060   3.592   3.722  10.966
  250MPD2    H1 4061   3.926   3.580  11.211
  250MPD2    H2 4062   3.810   3.989  11.220
  250MPD2    H3 4063   3.938   3.787  11.308
  250MPD2     N 4064   3.728   3.514  11.003
  250MPD2    H5 4065   3.665   3.513  10.924
  250MPD2    N1 4066   3.621   3.985  11.045
  250MPD2    H7 4067   3.653   4.076  11.078
  251MPD2     C 4068   3.068   4.578  10.625
  251MPD2    C1 4069   3.120   4.453  10.598
  251MPD2    C2 4070   3.123   4.412  10.461
  251MPD2    C3 4071   3.064   4.483  10.360
  251MPD2    C4 4072   3.015   4.609  10.388
  251MPD2    C5 4073   3.020   4.651  10.515
  251MPD2     H 4074   3.185   4.329  10.428
  251MPD2    H1 4075   2.966   4.677  10.318
  251MPD2    H2 4076   3.051   4.616  10.725
  251MPD2    H3 4077   2.990   4.754  10.529
  251MPD2     N 4078   3.052   4.440  10.225
  251MPD2    H5 4079   3.014   4.510  10.162
  251MPD2    N1 4080   3.177   4.375  10.706
  251MPD2    H7 4081   3.171   4.420  10.797
  252MPD2     C 4082   4.077   2.377  14.222
  252MPD2    C1 4083   4.129   2.502  14.259
  252MPD2    C2 4084   4.271   2.508  14.268
  252MPD2    C3 4085   4.349   2.394  14.271
  252MPD2    C4 4086   4.294   2.275  14.236
  252MPD2    C5 4087   4.156   2.265  14.200
  252MPD2     H 4088   4.311   2.603  14.303
  252MPD2    H1 4089   4.355   2.186  14.239
  252MPD2    H2 4090   3.973   2.356  14.198
  252MPD2    H3 4091   4.121   2.169  14.165
  252MPD2     N 4092   4.473   2.415  14.312
  252MPD2    H5 4093   4.504   2.511  14.326
  252MPD2    N1 4094   4.046   2.611  14.287
  252MPD2    H7 4095   4.091   2.695  14.321
  253MPD2     C 4096   0.413   2.391  13.601
  253MPD2    C1 4097   0.444   2.496  13.679
  253MPD2    C2 4098   0.382   2.519  13.798
  253MPD2    C3 4099   0.273   2.441  13.840
  253MPD2    C4 4100   0.244   2.333  13.763
  253MPD2    C5 4101   0.312   2.311  13.651
  253MPD2     H 4102   0.417   2.598  13.864
  253MPD2    H1 4103   0.164   2.263  13.784
  253MPD2    H2 4104   0.458   2.370  13.504
  253MPD2    H3 4105   0.276   2.230  13.588
  253MPD2     N 4106   0.218   2.463  13.965
  253MPD2    H5 4107   0.265   2.534  14.021
  253MPD2    N1 4108   0.544   2.590  13.645
  253MPD2    H7 4109   0.572   2.672  13.699
  254MPD2     C 4110   4.670   3.029  14.306
  254MPD2    C1 4111   0.003   2.982  14.270
  254MPD2    C2 4112   0.106   3.074  14.241
  254MPD2    C3 4113   0.081   3.209  14.245
  254MPD2    C4 4114   4.749   3.254  14.289
  254MPD2    C5 4115   4.647   3.162  14.321
  254MPD2     H 4116   0.204   3.034  14.217
  254MPD2    H1 4117   4.732   3.360  14.304
  254MPD2    H2 4118   4.590   2.963  14.338
  254MPD2    H3 4119   4.554   3.197  14.365
  254MPD2     N 4120   0.176   3.303  14.197
  254MPD2    H5 4121   0.169   3.395  14.239
  254MPD2    N1 4122   0.038   2.844  14.255
  254MPD2    H7 4123   0.134   2.812  14.254
  255MPD2     C 4124   0.309   2.497  12.474
  255MPD2    C1 4125   0.258   2.400  12.558
  255MPD2    C2 4126   0.211   2.447  12.681
  255MPD2    C3 4127   0.200   2.589  12.709
  255MPD2    C4 4128   0.245   2.680  12.613
  255MPD2    C5 4129   0.297   2.632  12.497
  255MPD2     H 4130   0.162   2.377  12.748
  255MPD2    H1 4131   0.232   2.786  12.630
  255MPD2    H2 4132   0.351   2.472  12.377
  255MPD2    H3 4133   0.330   2.703  12.422
  255MPD2     N 4134   0.119   2.641  12.818
  255MPD2    H5 4135   0.130   2.736  12.853
  255MPD2    N1 4136   0.254   2.258  12.535
  255MPD2    H7 4137   0.247   2.199  12.618
  256MPD2     C 4138   4.228   2.664  13.361
  256MPD2    C1 4139   4.208   2.745  13.251
  256MPD2    C2 4140   4.098   2.827  13.244
  256MPD2    C3 4141   4.020   2.850  13.360
  256MPD2    C4 4142   4.047   2.769  13.465
  256MPD2    C5 4143   4.143   2.677  13.466
  256MPD2     H 4144   4.074   2.885  13.155
  256MPD2    H1 4145   3.980   2.774  13.550
  256MPD2    H2 4146   4.312   2.596  13.354
  256MPD2    H3 4147   4.157   2.610  13.550
  256MPD2     N 4148   3.919   2.948  13.375
  256MPD2    H5 4149   3.873   2.960  13.464
  256MPD2    N1 4150   4.291   2.740  13.132
  256MPD2    H7 4151   4.278   2.812  13.062
  257MPD2     C 4152   0.028   2.975  12.352
  257MPD2    C1 4153   4.693   2.951  12.405
  257MPD2    C2 4154   4.670   2.958  12.543
  257MPD2    C3 4155   4.776   2.974  12.631
  257MPD2    C4 4156   0.116   3.000  12.581
  257MPD2    C5 4157   0.130   2.994  12.441
  257MPD2     H 4158   4.573   2.924  12.577
  257MPD2    H1 4159   0.202   3.010  12.646
  257MPD2    H2 4160   0.056   2.951  12.250
  257MPD2    H3 4161   0.227   3.009  12.395
  257MPD2     N 4162   4.761   2.952  12.774
  257MPD2    H5 4163   0.054   2.965  12.832
  257MPD2    N1 4164   4.586   2.908  12.316
  257MPD2    H7 4165   4.618   2.882  12.223
  258MPD2     C 4166   1.459   4.587  10.282
  258MPD2    C1 4167   1.476   4.452  10.273
  258MPD2    C2 4168   1.450   4.385  10.158
  258MPD2    C3 4169   1.409   4.446  10.046
  258MPD2    C4 4170   1.396   4.585  10.052
  258MPD2    C5 4171   1.424   4.650  10.162
  258MPD2     H 4172   1.443   4.277  10.161
  258MPD2    H1 4173   1.371   4.639   9.962
  258MPD2    H2 4174   1.489   4.646  10.368
  258MPD2    H3 4175   1.439   4.757  10.150
  258MPD2     N 4176   1.373   4.366   9.931
  258MPD2    H5 4177   1.397   4.268   9.945
  258MPD2    N1 4178   1.520   4.391  10.394
  258MPD2    H7 4179   1.517   4.448  10.478
  259MPD2     C 4180   1.618   4.643   9.411
  259MPD2    C1 4181   1.544   4.628   9.291
  259MPD2    C2 4182   1.466   4.512   9.273
  259MPD2    C3 4183   1.477   4.405   9.366
  259MPD2    C4 4184   1.562   4.419   9.476
  259MPD2    C5 4185   1.635   4.532   9.492
  259MPD2     H 4186   1.401   4.498   9.187
  259MPD2    H1 4187   1.575   4.341   9.550
  259MPD2    H2 4188   1.668   4.732   9.447
  259MPD2    H3 4189   1.701   4.536   9.578
  259MPD2     N 4190   1.413   4.284   9.329
  259MPD2    H5 4191   1.379   4.292   9.234
  259MPD2    N1 4192   1.526   4.733   9.197
  259MPD2    H7 4193   1.462   4.715   9.121
  260MPD2     C 4194   1.090   3.911  10.050
  260MPD2    C1 4195   1.164   3.896   9.935
  260MPD2    C2 4196   1.093   3.853   9.832
  260MPD2    C3 4197   0.962   3.831   9.834
  260MPD2    C4 4198   0.893   3.858   9.948
  260MPD2    C5 4199   0.961   3.894  10.050
  260MPD2     H 4200   1.146   3.855   9.738
  260MPD2    H1 4201   0.785   3.854   9.955
  260MPD2    H2 4202   1.138   3.938  10.144
  260MPD2    H3 4203   0.910   3.900  10.145
  260MPD2     N 4204   0.904   3.777   9.722
  260MPD2    H5 4205   0.966   3.759   9.644
  260MPD2    N1 4206   1.303   3.917   9.940
  260MPD2    H7 4207   1.350   3.897  10.028
  261MPD2     C 4208   1.295   3.888   8.359
  261MPD2    C1 4209   1.250   3.995   8.292
  261MPD2    C2 4210   1.116   4.008   8.254
  261MPD2    C3 4211   1.030   3.910   8.299
  261MPD2    C4 4212   1.075   3.817   8.382
  261MPD2    C5 4213   1.204   3.805   8.415
  261MPD2     H 4214   1.083   4.091   8.193
  261MPD2    H1 4215   1.008   3.739   8.416
  261MPD2    H2 4216   1.397   3.854   8.373
  261MPD2    H3 4217   1.232   3.721   8.477
  261MPD2     N 4218   0.889   3.920   8.276
  261MPD2    H5 4219   0.828   3.882   8.348
  261MPD2    N1 4220   1.349   4.093   8.266
  261MPD2    H7 4221   1.443   4.072   8.297
  262MPD2     C 4222   1.070   3.649   7.537
  262MPD2    C1 4223   0.963   3.727   7.555
  262MPD2    C2 4224   0.867   3.724   7.458
  262MPD2    C3 4225   0.869   3.636   7.347
  262MPD2    C4 4226   0.986   3.568   7.331
  262MPD2    C5 4227   1.080   3.574   7.427
  262MPD2     H 4228   0.775   3.782   7.462
  262MPD2    H1 4229   1.004   3.505   7.244
  262MPD2    H2 4230   1.149   3.641   7.611
  262MPD2    H3 4231   1.170   3.514   7.427
  262MPD2     N 4232   0.755   3.636   7.259
  262MPD2    H5 4233   0.694   3.715   7.277
  262MPD2    N1 4234   0.945   3.821   7.660
  262MPD2    H7 4235   0.860   3.876   7.651
  263MPD2     C 4236   1.390   4.228   7.677
  263MPD2    C1 4237   1.332   4.335   7.610
  263MPD2    C2 4238   1.201   4.369   7.646
  263MPD2    C3 4239   1.134   4.313   7.750
  263MPD2    C4 4240   1.192   4.206   7.821
  263MPD2    C5 4241   1.321   4.174   7.780
  263MPD2     H 4242   1.149   4.445   7.588
  263MPD2    H1 4243   1.146   4.167   7.911
  263MPD2    H2 4244   1.493   4.197   7.664
  263MPD2    H3 4245   1.384   4.107   7.838
  263MPD2     N 4246   1.001   4.356   7.752
  263MPD2    H5 4247   0.986   4.449   7.713
  263MPD2    N1 4248   1.408   4.425   7.530
  263MPD2    H7 4249   1.361   4.508   7.497
  264MPD2     C 4250   1.127   2.785  12.912
  264MPD2    C1 4251   1.152   2.746  13.044
  264MPD2    C2 4252   1.236   2.818  13.125
  264MPD2    C3 4253   1.314   2.925  13.077
  264MPD2    C4 4254   1.305   2.950  12.944
  264MPD2    C5 4255   1.201   2.893  12.869
  264MPD2     H 4256   1.251   2.788  13.228
  264MPD2    H1 4257   1.367   3.026  12.898
  264MPD2    H2 4258   1.070   2.733  12.835
  264MPD2    H3 4259   1.176   2.929  12.770
  264MPD2     N 4260   1.396   2.987  13.167
  264MPD2    H5 4261   1.403   2.935  13.254
  264MPD2    N1 4262   1.079   2.648  13.105
  264MPD2    H7 4263   1.099   2.638  13.204
  265MPD2     C 4264   1.254   3.650  13.594
  265MPD2    C1 4265   1.252   3.587  13.467
  265MPD2    C2 4266   1.150   3.625  13.381
  265MPD2    C3 4267   1.059   3.724  13.415
  265MPD2    C4 4268   1.075   3.785  13.543
  265MPD2    C5 4269   1.166   3.749  13.631
  265MPD2     H 4270   1.144   3.574  13.285
  265MPD2    H1 4271   1.018   3.869  13.582
  265MPD2    H2 4272   1.323   3.621  13.673
  265MPD2    H3 4273   1.184   3.808  13.720
  265MPD2     N 4274   0.955   3.772  13.326
  265MPD2    H5 4275   0.890   3.845  13.352
  265MPD2    N1 4276   1.340   3.478  13.433
  265MPD2    H7 4277   1.324   3.432  13.344
  266MPD2     C 4278   2.492   0.452   9.282
  266MPD2    C1 4279   2.558   0.568   9.236
  266MPD2    C2 4280   2.688   0.585   9.265
  266MPD2    C3 4281   2.761   0.493   9.336
  266MPD2    C4 4282   2.703   0.376   9.375
  266MPD2    C5 4283   2.567   0.359   9.349
  266MPD2     H 4284   2.726   0.683   9.240
  266MPD2    H1 4285   2.753   0.309   9.444
  266MPD2    H2 4286   2.388   0.429   9.264
  266MPD2    H3 4287   2.524   0.265   9.380
  266MPD2     N 4288   2.894   0.535   9.366
  266MPD2    H5 4289   2.910   0.632   9.342
  266MPD2    N1 4290   2.500   0.673   9.164
  266MPD2    H7 4291   2.563   0.743   9.127
  267MPD2     C 4292   3.166   1.316   9.097
  267MPD2    C1 4293   3.185   1.201   9.024
  267MPD2    C2 4294   3.227   1.081   9.084
  267MPD2    C3 4295   3.231   1.076   9.222
  267MPD2    C4 4296   3.195   1.191   9.295
  267MPD2    C5 4297   3.183   1.312   9.228
  267MPD2     H 4298   3.226   0.987   9.030
  267MPD2    H1 4299   3.197   1.190   9.403
  267MPD2    H2 4300   3.162   1.418   9.059
  267MPD2    H3 4301   3.189   1.401   9.289
  267MPD2     N 4302   3.249   0.949   9.282
  267MPD2    H5 4303   3.281   0.872   9.224
  267MPD2    N1 4304   3.152   1.202   8.890
  267MPD2    H7 4305   3.162   1.111   8.845
  268MPD2     C 4306   3.756   0.571   9.365
  268MPD2    C1 4307   3.699   0.546   9.487
  268MPD2    C2 4308   3.776   0.513   9.601
  268MPD2    C3 4309   3.912   0.525   9.598
  268MPD2    C4 4310   3.964   0.567   9.477
  268MPD2    C5 4311   3.894   0.589   9.363
  268MPD2     H 4312   3.720   0.471   9.684
  268MPD2    H1 4313   4.071   0.583   9.469
  268MPD2    H2 4314   3.704   0.576   9.270
  268MPD2    H3 4315   3.945   0.629   9.276
  268MPD2     N 4316   3.995   0.489   9.710
  268MPD2    H5 4317   3.945   0.461   9.794
  268MPD2    N1 4318   3.559   0.535   9.503
  268MPD2    H7 4319   3.525   0.522   9.598
  269MPD2     C 4320   2.934   2.344  12.078
  269MPD2    C1 4321   2.937   2.386  12.207
  269MPD2    C2 4322   2.901   2.516  12.241
  269MPD2    C3 4323   2.888   2.606  12.138
  269MPD2    C4 4324   2.892   2.570  12.006
  269MPD2    C5 4325   2.912   2.435  11.980
  269MPD2     H 4326   2.906   2.555  12.342
  269MPD2    H1 4327   2.875   2.645  11.929
  269MPD2    H2 4328   2.955   2.240  12.056
  269MPD2    H3 4329   2.919   2.392  11.881
  269MPD2     N 4330   2.868   2.741  12.181
  269MPD2    H5 4331   2.902   2.763  12.274
  269MPD2    N1 4332   2.965   2.288  12.308
  269MPD2    H7 4333   2.992   2.197  12.272
  270MPD2     C 4334   3.498   2.588  12.990
  270MPD2    C1 4335   3.543   2.477  12.918
  270MPD2    C2 4336   3.457   2.385  12.864
  270MPD2    C3 4337   3.322   2.388  12.894
  270MPD2    C4 4338   3.271   2.506  12.952
  270MPD2    C5 4339   3.361   2.597  13.004
  270MPD2     H 4340   3.493   2.301  12.807
  270MPD2    H1 4341   3.164   2.522  12.957
  270MPD2    H2 4342   3.558   2.671  13.024
  270MPD2    H3 4343   3.324   2.687  13.051
  270MPD2     N 4344   3.227   2.292  12.851
  270MPD2    H5 4345   3.132   2.313  12.881
  270MPD2    N1 4346   3.684   2.455  12.910
  270MPD2    H7 4347   3.719   2.379  12.853
  271MPD2     C 4348   3.385   1.393  12.475
  271MPD2    C1 4349   3.366   1.485  12.373
  271MPD2    C2 4350   3.297   1.603  12.398
  271MPD2    C3 4351   3.257   1.632  12.527
  271MPD2    C4 4352   3.279   1.542  12.630
  271MPD2    C5 4353   3.348   1.429  12.600
  271MPD2     H 4354   3.273   1.668  12.314
  271MPD2    H1 4355   3.256   1.563  12.734
  271MPD2    H2 4356   3.428   1.295  12.459
  271MPD2    H3 4357   3.364   1.357  12.679
  271MPD2     N 4358   3.198   1.754  12.566
  271MPD2    H5 4359   3.207   1.778  12.664
  271MPD2    N1 4360   3.398   1.454  12.236
  271MPD2    H7 4361   3.368   1.525  12.170
  272MPD2     C 4362   4.297   1.763  12.877
  272MPD2    C1 4363   4.214   1.834  12.965
  272MPD2    C2 4364   4.151   1.947  12.920
  272MPD2    C3 4365   4.188   2.001  12.798
  272MPD2    C4 4366   4.270   1.931  12.715
  272MPD2    C5 4367   4.318   1.811  12.756
  272MPD2     H 4368   4.094   1.999  12.997
  272MPD2    H1 4369   4.293   1.977  12.619
  272MPD2    H2 4370   4.347   1.672  12.908
  272MPD2    H3 4371   4.383   1.757  12.688
  272MPD2     N 4372   4.146   2.132  12.763
  272MPD2    H5 4373   4.194   2.182  12.689
  272MPD2    N1 4374   4.179   1.784  13.098
  272MPD2    H7 4375   4.094   1.825  13.135
  273MPD2     C 4376   4.385   2.105  13.269
  273MPD2    C1 4377   4.262   2.167  13.260
  273MPD2    C2 4378   4.158   2.124  13.348
  273MPD2    C3 4379   4.169   2.010  13.429
  273MPD2    C4 4380   4.294   1.960  13.439
  273MPD2    C5 4381   4.398   2.009  13.363
  273MPD2     H 4382   4.065   2.179  13.350
  273MPD2    H1 4383   4.311   1.878  13.507
  273MPD2    H2 4384   4.468   2.148  13.215
  273MPD2    H3 4385   4.497   1.965  13.367
  273MPD2     N 4386   4.058   1.962  13.507
  273MPD2    H5 4387   3.981   2.027  13.518
  273MPD2    N1 4388   4.246   2.272  13.167
  273MPD2    H7 4389   4.332   2.297  13.120
  274MPD2     C 4390   3.394   3.385  11.294
  274MPD2    C1 4391   3.283   3.352  11.217
  274MPD2    C2 4392   3.214   3.443  11.136
  274MPD2    C3 4393   3.254   3.571  11.130
  274MPD2    C4 4394   3.380   3.596  11.181
  274MPD2    C5 4395   3.445   3.510  11.264
  274MPD2     H 4396   3.117   3.412  11.098
  274MPD2    H1 4397   3.415   3.699  11.187
  274MPD2    H2 4398   3.440   3.314  11.361
  274MPD2    H3 4399   3.540   3.537  11.308
  274MPD2     N 4400   3.196   3.670  11.041
  274MPD2    H5 4401   3.242   3.759  11.054
  274MPD2    N1 4402   3.221   3.225  11.234
  274MPD2    H7 4403   3.131   3.206  11.192
  275MPD2     C 4404   2.737   3.693  10.308
  275MPD2    C1 4405   2.703   3.676  10.436
  275MPD2    C2 4406   2.636   3.560  10.470
  275MPD2    C3 4407   2.619   3.453  10.378
  275MPD2    C4 4408   2.672   3.469  10.252
  275MPD2    C5 4409   2.717   3.595  10.210
  275MPD2     H 4410   2.627   3.540  10.576
  275MPD2    H1 4411   2.689   3.389  10.181
  275MPD2    H2 4412   2.787   3.783  10.273
  275MPD2    H3 4413   2.750   3.605  10.107
  275MPD2     N 4414   2.579   3.325  10.435
  275MPD2    H5 4415   2.531   3.332  10.524
  275MPD2    N1 4416   2.766   3.759  10.535
  275MPD2    H7 4417   2.827   3.827  10.492
  276MPD2     C 4418   3.379   3.904  10.125
  276MPD2    C1 4419   3.445   3.937  10.244
  276MPD2    C2 4420   3.366   3.949  10.359
  276MPD2    C3 4421   3.227   3.921  10.361
  276MPD2    C4 4422   3.169   3.870  10.242
  276MPD2    C5 4423   3.246   3.867  10.128
  276MPD2     H 4424   3.415   3.970  10.453
  276MPD2    H1 4425   3.066   3.836  10.238
  276MPD2    H2 4426   3.428   3.891  10.029
  276MPD2    H3 4427   3.191   3.845  10.037
  276MPD2     N 4428   3.151   3.917  10.475
  276MPD2    H5 4429   3.051   3.922  10.457
  276MPD2    N1 4430   3.586   3.947  10.240
  276MPD2    H7 4431   3.626   3.911  10.154
  277MPD2     C 4432   3.454   4.528   9.886
  277MPD2    C1 4433   3.417   4.487  10.010
  277MPD2    C2 4434   3.440   4.350  10.041
  277MPD2    C3 4435   3.511   4.276   9.949
  277MPD2    C4 4436   3.554   4.323   9.824
  277MPD2    C5 4437   3.516   4.454   9.791
  277MPD2     H 4438   3.406   4.317  10.138
  277MPD2    H1 4439   3.607   4.264   9.750
  277MPD2    H2 4440   3.430   4.629   9.855
  277MPD2    H3 4441   3.536   4.499   9.694
  277MPD2     N 4442   3.543   4.149   9.995
  277MPD2    H5 4443   3.490   4.104  10.069
  277MPD2    N1 4444   3.370   4.591  10.094
  277MPD2    H7 4445   3.364   4.683  10.052
  278MPD2     C 4446   4.160   4.438  10.594
  278MPD2    C1 4447   4.161   4.578  10.571
  278MPD2    C2 4448   4.044   4.635  10.539
  278MPD2    C3 4449   3.927   4.571  10.524
  278MPD2    C4 4450   3.922   4.439  10.550
  278MPD2    C5 4451   4.039   4.383  10.594
  278MPD2     H 4452   4.048   4.741  10.518
  278MPD2    H1 4453   3.835   4.375  10.538
  278MPD2    H2 4454   4.244   4.371  10.610
  278MPD2    H3 4455   4.045   4.275  10.599
  278MPD2     N 4456   3.802   4.625  10.468
  278MPD2    H5 4457   3.730   4.555  10.451
  278MPD2    N1 4458   4.286   4.641  10.569
  278MPD2    H7 4459   4.290   4.740  10.546
  279MPD2     C 4460   3.421   0.508  10.046
  279MPD2    C1 4461   3.340   0.401  10.082
  279MPD2    C2 4462   3.207   0.426  10.118
  279MPD2    C3 4463   3.154   0.554  10.106
  279MPD2    C4 4464   3.241   0.661  10.083
  279MPD2    C5 4465   3.376   0.639  10.056
  279MPD2     H 4466   3.148   0.340  10.147
  279MPD2    H1 4467   3.209   0.764  10.080
  279MPD2    H2 4468   3.526   0.494  10.025
  279MPD2    H3 4469   3.437   0.726  10.035
  279MPD2     N 4470   3.018   0.586  10.134
  279MPD2    H5 4471   2.992   0.683  10.120
  279MPD2    N1 4472   3.392   0.279  10.122
  279MPD2    H7 4473   3.325   0.228  10.179
  280MPD2     C 4474   0.763   1.926   8.024
  280MPD2    C1 4475   0.831   1.840   8.107
  280MPD2    C2 4476   0.966   1.847   8.102
  280MPD2    C3 4477   1.033   1.928   8.011
  280MPD2    C4 4478   0.959   2.010   7.934
  280MPD2    C5 4479   0.824   2.012   7.939
  280MPD2     H 4480   1.024   1.773   8.155
  280MPD2    H1 4481   1.014   2.072   7.864
  280MPD2    H2 4482   0.655   1.934   8.028
  280MPD2    H3 4483   0.768   2.088   7.887
  280MPD2     N 4484   1.169   1.934   8.002
  280MPD2    H5 4485   1.203   2.001   7.933
  280MPD2    N1 4486   0.766   1.738   8.180
  280MPD2    H7 4487   0.819   1.683   8.246
  281MPD2     C 4488   0.325   2.322   8.072
  281MPD2    C1 4489   0.395   2.330   7.952
  281MPD2    C2 4490   0.416   2.209   7.878
  281MPD2    C3 4491   0.361   2.088   7.929
  281MPD2    C4 4492   0.280   2.092   8.045
  281MPD2    C5 4493   0.272   2.207   8.118
  281MPD2     H 4494   0.451   2.207   7.776
  281MPD2    H1 4495   0.225   2.006   8.081
  281MPD2    H2 4496   0.312   2.407   8.138
  281MPD2    H3 4497   0.210   2.216   8.207
  281MPD2     N 4498   0.380   1.960   7.870
  281MPD2    H5 4499   0.349   1.887   7.934
  281MPD2    N1 4500   0.437   2.457   7.910
  281MPD2    H7 4501   0.369   2.527   7.936
  282MPD2     C 4502   3.495   1.070  13.580
  282MPD2    C1 4503   3.437   1.026  13.460
  282MPD2    C2 4504   3.435   1.113  13.351
  282MPD2    C3 4505   3.473   1.247  13.374
  282MPD2    C4 4506   3.545   1.282  13.483
  282MPD2    C5 4507   3.549   1.197  13.590
  282MPD2     H 4508   3.395   1.093  13.252
  282MPD2    H1 4509   3.602   1.374  13.482
  282MPD2    H2 4510   3.514   1.007  13.666
  282MPD2    H3 4511   3.602   1.223  13.681
  282MPD2     N 4512   3.427   1.340  13.275
  282MPD2    H5 4513   3.400   1.296  13.188
  282MPD2    N1 4514   3.384   0.895  13.456
  282MPD2    H7 4515   3.369   0.859  13.550
  283MPD2     C 4516   2.815   1.155  13.605
  283MPD2    C1 4517   2.843   1.135  13.739
  283MPD2    C2 4518   2.897   1.013  13.777
  283MPD2    C3 4519   2.909   0.899  13.695
  283MPD2    C4 4520   2.871   0.926  13.566
  283MPD2    C5 4521   2.829   1.048  13.524
  283MPD2     H 4522   2.931   1.008  13.880
  283MPD2    H1 4523   2.848   0.844  13.498
  283MPD2    H2 4524   2.759   1.242  13.574
  283MPD2    H3 4525   2.795   1.066  13.423
  283MPD2     N 4526   2.953   0.776  13.746
  283MPD2    H5 4527   2.936   0.769  13.846
  283MPD2    N1 4528   2.807   1.230  13.833
  283MPD2    H7 4529   2.796   1.197  13.928
  284MPD2     C 4530   0.201   1.059   6.752
  284MPD2    C1 4531   0.156   0.934   6.776
  284MPD2    C2 4532   0.235   0.823   6.748
  284MPD2    C3 4533   0.364   0.849   6.692
  284MPD2    C4 4534   0.406   0.979   6.668
  284MPD2    C5 4535   0.325   1.082   6.694
  284MPD2     H 4536   0.197   0.724   6.770
  284MPD2    H1 4537   0.506   1.005   6.637
  284MPD2    H2 4538   0.137   1.143   6.774
  284MPD2    H3 4539   0.359   1.185   6.692
  284MPD2     N 4540   0.447   0.742   6.669
  284MPD2    H5 4541   0.410   0.649   6.684
  284MPD2    N1 4542   0.030   0.891   6.828
  284MPD2    H7 4543   0.013   0.791   6.833
  285MPD2     C 4544   0.233   4.635   6.542
  285MPD2    C1 4545   0.352   4.638   6.603
  285MPD2    C2 4546   0.427   4.751   6.598
  285MPD2    C3 4547   0.386   0.073   6.521
  285MPD2    C4 4548   0.269   0.064   6.447
  285MPD2    C5 4549   0.201   4.735   6.458
  285MPD2     H 4550   0.519   4.762   6.655
  285MPD2    H1 4551   0.220   0.145   6.394
  285MPD2    H2 4552   0.170   4.547   6.546
  285MPD2    H3 4553   0.118   4.724   6.390
  285MPD2     N 4554   0.474   0.184   6.514
  285MPD2    H5 4555   0.567   0.171   6.553
  285MPD2    N1 4556   0.395   4.527   6.683
  285MPD2    H7 4557   0.331   4.449   6.695
  286MPD2     C 4558   4.789   3.179   9.586
  286MPD2    C1 4559   0.023   3.292   9.511
  286MPD2    C2 4560   0.152   3.343   9.509
  286MPD2    C3 4561   0.254   3.295   9.589
  286MPD2    C4 4562   0.221   3.193   9.682
  286MPD2    C5 4563   0.101   3.130   9.663
  286MPD2     H 4564   0.175   3.428   9.446
  286MPD2    H1 4565   0.281   3.150   9.761
  286MPD2    H2 4566   4.702   3.115   9.587
  286MPD2    H3 4567   0.069   3.046   9.724
  286MPD2     N 4568   0.393   3.341   9.586
  286MPD2    H5 4569   0.452   3.299   9.657
  286MPD2    N1 4570   4.715   3.338   9.417
  286MPD2    H7 4571   4.742   3.418   9.361
  287MPD2     C 4572   4.284   3.890   9.731
  287MPD2    C1 4573   4.349   3.925   9.613
  287MPD2    C2 4574   4.335   3.840   9.510
  287MPD2    C3 4575   4.246   3.736   9.516
  287MPD2    C4 4576   4.193   3.693   9.639
  287MPD2    C5 4577   4.216   3.770   9.750
  287MPD2     H 4578   4.389   3.863   9.419
  287MPD2    H1 4579   4.135   3.603   9.657
  287MPD2    H2 4580   4.301   3.953   9.817
  287MPD2    H3 4581   4.189   3.740   9.851
  287MPD2     N 4582   4.249   3.655   9.399
  287MPD2    H5 4583   4.314   3.693   9.331
  287MPD2    N1 4584   4.452   4.021   9.592
  287MPD2    H7 4585   4.469   4.047   9.495
  288MPD2     C 4586   4.481   4.017   8.737
  288MPD2    C1 4587   4.565   4.010   8.842
  288MPD2    C2 4588   4.560   3.904   8.929
  288MPD2    C3 4589   4.460   3.810   8.912
  288MPD2    C4 4590   4.377   3.816   8.803
  288MPD2    C5 4591   4.388   3.917   8.714
  288MPD2     H 4592   4.623   3.894   9.017
  288MPD2    H1 4593   4.298   3.745   8.781
  288MPD2    H2 4594   4.486   4.097   8.665
  288MPD2    H3 4595   4.317   3.925   8.632
  288MPD2     N 4596   4.435   3.702   9.000
  288MPD2    H5 4597   4.357   3.640   8.982
  288MPD2    N1 4598   4.654   4.121   8.868
  288MPD2    H7 4599   4.731   4.116   8.934
  289MPD2     C 4600   4.232   0.523   8.065
  289MPD2    C1 4601   4.373   0.535   8.074
  289MPD2    C2 4602   4.454   0.447   7.999
  289MPD2    C3 4603   4.399   0.332   7.935
  289MPD2    C4 4604   4.259   0.319   7.931
  289MPD2    C5 4605   4.181   0.413   7.999
  289MPD2     H 4606   4.562   0.459   8.006
  289MPD2    H1 4607   4.215   0.228   7.892
  289MPD2    H2 4608   4.166   0.576   8.133
  289MPD2    H3 4609   4.076   0.391   8.011
  289MPD2     N 4610   4.471   0.224   7.900
  289MPD2    H5 4611   4.412   0.142   7.890
  289MPD2    N1 4612   4.441   0.629   8.151
  289MPD2    H7 4613   4.542   0.630   8.153
  290MPD2     C 4614   4.171   4.775   8.190
  290MPD2    C1 4615   4.278   4.687   8.185
  290MPD2    C2 4616   4.269   4.568   8.130
  290MPD2    C3 4617   4.142   4.525   8.085
  290MPD2    C4 4618   4.027   4.608   8.091
  290MPD2    C5 4619   4.046   4.731   8.152
  290MPD2     H 4620   4.351   4.498   8.119
  290MPD2    H1 4621   3.927   4.584   8.057
  290MPD2    H2 4622   4.173   0.077   8.248
  290MPD2    H3 4623   3.955   4.787   8.171
  290MPD2     N 4624   4.145   4.401   8.014
  290MPD2    H5 4625   4.233   4.351   8.005
  290MPD2    N1 4626   4.403   4.741   8.220
  290MPD2    H7 4627   4.399   0.053   8.216
  291MPD2     C 4628   0.369   0.301   8.190
  291MPD2    C1 4629   0.371   0.191   8.103
  291MPD2    C2 4630   0.484   0.159   8.023
  291MPD2    C3 4631   0.592   0.247   8.014
  291MPD2    C4 4632   0.585   0.362   8.095
  291MPD2    C5 4633   0.479   0.383   8.179
  291MPD2     H 4634   0.478   0.076   7.953
  291MPD2    H1 4635   0.663   0.438   8.098
  291MPD2    H2 4636   0.287   0.325   8.257
  291MPD2    H3 4637   0.471   0.475   8.236
  291MPD2     N 4638   0.690   0.214   7.920
  291MPD2    H5 4639   0.666   0.134   7.863
  291MPD2    N1 4640   0.263   0.102   8.099
  291MPD2    H7 4641   0.246   0.050   8.014
  292MPD2     C 4642   4.585   1.509  13.036
  292MPD2    C1 4643   4.535   1.418  12.945
  292MPD2    C2 4644   4.627   1.329  12.885
  292MPD2    C3 4645   4.757   1.324  12.920
  292MPD2    C4 4646   0.016   1.414  13.010
  292MPD2    C5 4647   4.722   1.507  13.063
  292MPD2     H 4648   4.587   1.253  12.819
  292MPD2    H1 4649   0.121   1.430  13.033
  292MPD2    H2 4650   4.527   1.587  13.084
  292MPD2    H3 4651   4.769   1.580  13.129
  292MPD2     N 4652   0.041   1.225  12.850
  292MPD2    H5 4653   4.783   1.166  12.782
  292MPD2    N1 4654   4.393   1.408  12.913
  292MPD2    H7 4655   4.340   1.456  12.985
  293MPD2     C 4656   3.734   0.598  12.582
  293MPD2    C1 4657   3.716   0.643  12.715
  293MPD2    C2 4658   3.767   0.761  12.759
  293MPD2    C3 4659   3.840   0.837  12.672
  293MPD2    C4 4660   3.867   0.797  12.546
  293MPD2    C5 4661   3.807   0.680  12.508
  293MPD2     H 4662   3.752   0.780  12.865
  293MPD2    H1 4663   3.935   0.853  12.484
  293MPD2    H2 4664   3.690   0.505  12.548
  293MPD2    H3 4665   3.814   0.647  12.405
  293MPD2     N 4666   3.895   0.951  12.730
  293MPD2    H5 4667   3.850   0.980  12.816
  293MPD2    N1 4668   3.652   0.564  12.817
  293MPD2    H7 4669   3.643   0.609  12.908
  294MPD2     C 4670   4.205   3.503  12.388
  294MPD2    C1 4671   4.137   3.500  12.505
  294MPD2    C2 4672   4.134   3.378  12.566
  294MPD2    C3 4673   4.193   3.270  12.505
  294MPD2    C4 4674   4.250   3.276  12.382
  294MPD2    C5 4675   4.256   3.398  12.328
  294MPD2     H 4676   4.085   3.359  12.661
  294MPD2    H1 4677   4.288   3.188  12.331
  294MPD2    H2 4678   4.211   3.601  12.342
  294MPD2    H3 4679   4.295   3.403  12.227
  294MPD2     N 4680   4.184   3.136  12.557
  294MPD2    H5 4681   4.236   3.065  12.505
  294MPD2    N1 4682   4.078   3.610  12.583
  294MPD2    H7 4683   4.104   3.607  12.681
  295MPD2     C 4684   3.478   3.427  12.138
  295MPD2    C1 4685   3.504   3.545  12.082
  295MPD2    C2 4686   3.411   3.593  11.994
  295MPD2    C3 4687   3.296   3.520  11.955
  295MPD2    C4 4688   3.280   3.392  12.003
  295MPD2    C5 4689   3.370   3.351  12.098
  295MPD2     H 4690   3.420   3.694  11.957
  295MPD2    H1 4691   3.203   3.326  11.965
  295MPD2    H2 4692   3.542   3.374  12.208
  295MPD2    H3 4693   3.361   3.256  12.149
  295MPD2     N 4694   3.207   3.584  11.871
  295MPD2    H5 4695   3.220   3.682  11.848
  295MPD2    N1 4696   3.617   3.615  12.120
  295MPD2    H7 4697   3.648   3.706  12.088
  296MPD2     C 4698   3.004   2.969  14.527
  296MPD2    C1 4699   3.058   3.095  14.559
  296MPD2    C2 4700   3.128   3.161  14.451
  296MPD2    C3 4701   3.165   3.101  14.330
  296MPD2    C4 4702   3.125   2.968  14.317
  296MPD2    C5 4703   3.050   2.905  14.415
  296MPD2     H 4704   3.163   3.261  14.474
  296MPD2    H1 4705   3.135   2.904  14.230
  296MPD2    H2 4706   2.932   2.921  14.592
  296MPD2    H3 4707   3.023   2.802  14.393
  296MPD2     N 4708   3.235   3.173  14.226
  296MPD2    H5 4709   3.263   3.266  14.254
  296MPD2    N1 4710   3.032   3.160  14.684
  296MPD2    H7 4711   3.014   3.099  14.763
  297MPD2     C 4712   3.931   3.194  14.784
  297MPD2    C1 4713   3.818   3.177  14.703
  297MPD2    C2 4714   3.698   3.239  14.727
  297MPD2    C3 4715   3.683   3.299  14.850
  297MPD2    C4 4716   3.794   3.312  14.931
  297MPD2    C5 4717   3.915   3.267  14.899
  297MPD2     H 4718   3.621   3.223  14.653
  297MPD2    H1 4719   3.774   3.362  15.025
  297MPD2    H2 4720   4.030   3.161  14.754
  297MPD2    H3 4721   4.000   3.291  14.962
  297MPD2     N 4722   3.559   3.344  14.905
  297MPD2    H5 4723   3.567   3.397  14.991
  297MPD2    N1 4724   3.823   3.088  14.591
  297MPD2    H7 4725   3.742   3.080  14.530
  298MPD2     C 4726   3.116   2.895  15.333
  298MPD2    C1 4727   3.087   2.895  15.195
  298MPD2    C2 4728   3.011   2.790  15.145
  298MPD2    C3 4729   2.978   2.677  15.222
  298MPD2    C4 4730   3.009   2.680  15.356
  298MPD2    C5 4731   3.082   2.784  15.405
  298MPD2     H 4732   2.989   2.788  15.039
  298MPD2    H1 4733   2.978   2.607  15.430
  298MPD2    H2 4734   3.157   2.981  15.386
  298MPD2    H3 4735   3.104   2.797  15.510
  298MPD2     N 4736   2.908   2.572  15.163
  298MPD2    H5 4737   2.885   2.570  15.064
  298MPD2    N1 4738   3.125   2.998  15.099
  298MPD2    H7 4739   3.107   2.989  15.000
  299MPD2     C 4740   4.259   4.695   7.285
  299MPD2    C1 4741   4.182   0.001   7.339
  299MPD2    C2 4742   4.232   0.096   7.429
  299MPD2    C3 4743   4.371   0.110   7.443
  299MPD2    C4 4744   4.453   0.022   7.379
  299MPD2    C5 4745   4.396   4.705   7.314
  299MPD2     H 4746   4.161   0.165   7.474
  299MPD2    H1 4747   4.561   0.032   7.381
  299MPD2    H2 4748   4.226   4.617   7.218
  299MPD2    H3 4749   4.458   4.636   7.258
  299MPD2     N 4750   4.439   0.215   7.511
  299MPD2    H5 4751   4.541   0.213   7.512
  299MPD2    N1 4752   4.045   0.020   7.300
  299MPD2    H7 4753   3.998   0.093   7.352
  300MPD2     C 4754   0.263   0.762   7.082
  300MPD2    C1 4755   0.259   0.633   7.135
  300MPD2    C2 4756   0.173   0.602   7.234
  300MPD2    C3 4757   0.107   0.699   7.304
  300MPD2    C4 4758   0.124   0.829   7.255
  300MPD2    C5 4759   0.193   0.859   7.144
  300MPD2     H 4760   0.166   0.495   7.252
  300MPD2    H1 4761   0.081   0.913   7.309
  300MPD2    H2 4762   0.335   0.782   7.003
  300MPD2    H3 4763   0.206   0.964   7.121
  300MPD2     N 4764   0.010   0.674   7.403
  300MPD2    H5 4765   4.733   0.749   7.414
  300MPD2    N1 4766   0.341   0.525   7.081
  300MPD2    H7 4767   0.328   0.435   7.127
  301MPD2     C 4768   2.532   3.425  13.221
  301MPD2    C1 4769   2.467   3.333  13.143
  301MPD2    C2 4770   2.546   3.245  13.064
  301MPD2    C3 4771   2.683   3.258  13.056
  301MPD2    C4 4772   2.742   3.359  13.129
  301MPD2    C5 4773   2.668   3.432  13.222
  301MPD2     H 4774   2.496   3.180  12.993
  301MPD2    H1 4775   2.848   3.382  13.127
  301MPD2    H2 4776   2.494   3.494  13.295
  301MPD2    H3 4777   2.715   3.511  13.280
  301MPD2     N 4778   2.756   3.177  12.974
  301MPD2    H5 4779   2.705   3.098  12.937
  301MPD2    N1 4780   2.329   3.337  13.134
  301MPD2    H7 4781   2.298   3.264  13.071
  302MPD2     C 4782   1.584   4.025  13.374
  302MPD2    C1 4783   1.705   4.056  13.329
  302MPD2    C2 4784   1.779   3.954  13.274
  302MPD2    C3 4785   1.735   3.820  13.276
  302MPD2    C4 4786   1.622   3.789  13.358
  302MPD2    C5 4787   1.543   3.899  13.396
  302MPD2     H 4788   1.875   3.974  13.228
  302MPD2    H1 4789   1.575   3.692  13.361
  302MPD2    H2 4790   1.514   4.101  13.406
  302MPD2    H3 4791   1.450   3.879  13.449
  302MPD2     N 4792   1.824   3.722  13.214
  302MPD2    H5 4793   1.913   3.752  13.175
  302MPD2    N1 4794   1.743   4.189  13.349
  302MPD2    H7 4795   1.673   4.255  13.380
  303MPD2     C 4796   1.772   2.688  13.296
  303MPD2    C1 4797   1.736   2.731  13.171
  303MPD2    C2 4798   1.776   2.854  13.141
  303MPD2    C3 4799   1.871   2.923  13.213
  303MPD2    C4 4800   1.921   2.869  13.333
  303MPD2    C5 4801   1.864   2.754  13.370
  303MPD2     H 4802   1.746   2.905  13.050
  303MPD2    H1 4803   1.991   2.919  13.398
  303MPD2    H2 4804   1.716   2.611  13.348
  303MPD2    H3 4805   1.888   2.716  13.469
  303MPD2     N 4806   1.911   3.053  13.184
  303MPD2    H5 4807   1.973   3.093  13.254
  303MPD2    N1 4808   1.636   2.657  13.100
  303MPD2    H7 4809   1.611   2.567  13.139
  304MPD2     C 4810   3.912   4.416   7.336
  304MPD2    C1 4811   3.789   4.396   7.276
  304MPD2    C2 4812   3.679   4.436   7.350
  304MPD2    C3 4813   3.690   4.482   7.479
  304MPD2    C4 4814   3.812   4.495   7.539
  304MPD2    C5 4815   3.920   4.472   7.459
  304MPD2     H 4816   3.582   4.425   7.303
  304MPD2    H1 4817   3.836   4.519   7.642
  304MPD2    H2 4818   4.006   4.400   7.285
  304MPD2    H3 4819   4.016   4.505   7.497
  304MPD2     N 4820   3.572   4.523   7.551
  304MPD2    H5 4821   3.584   4.565   7.642
  304MPD2    N1 4822   3.804   4.344   7.144
  304MPD2    H7 4823   3.899   4.351   7.108
  305MPD2     C 4824   3.532   3.504   7.409
  305MPD2    C1 4825   3.412   3.573   7.417
  305MPD2    C2 4826   3.413   3.700   7.376
  305MPD2    C3 4827   3.528   3.764   7.328
  305MPD2    C4 4828   3.647   3.692   7.329
  305MPD2    C5 4829   3.643   3.564   7.368
  305MPD2     H 4830   3.317   3.749   7.387
  305MPD2    H1 4831   3.742   3.737   7.301
  305MPD2    H2 4832   3.541   3.399   7.436
  305MPD2    H3 4833   3.741   3.521   7.383
  305MPD2     N 4834   3.525   3.899   7.274
  305MPD2    H5 4835   3.612   3.937   7.239
  305MPD2    N1 4836   3.287   3.512   7.464
  305MPD2    H7 4837   3.205   3.569   7.481
  306MPD2     C 4838   2.871   4.331   7.053
  306MPD2    C1 4839   2.995   4.396   7.049
  306MPD2    C2 4840   3.006   4.529   7.030
  306MPD2    C3 4841   2.887   4.596   7.023
  306MPD2    C4 4842   2.758   4.537   7.025
  306MPD2    C5 4843   2.754   4.402   7.038
  306MPD2     H 4844   3.103   4.577   7.018
  306MPD2    H1 4845   2.671   4.600   7.013
  306MPD2    H2 4846   2.858   4.224   7.067
  306MPD2    H3 4847   2.659   4.361   7.071
  306MPD2     N 4848   2.911   4.733   7.032
  306MPD2    H5 4849   3.010   4.755   7.030
  306MPD2    N1 4850   3.101   4.308   7.065
  306MPD2    H7 4851   3.084   4.229   7.127
  307MPD2     C 4852   2.690   4.731  10.286
  307MPD2    C1 4853   2.662   0.015  10.180
  307MPD2    C2 4854   2.579   0.122  10.181
  307MPD2    C3 4855   2.542   0.176  10.306
  307MPD2    C4 4856   2.579   0.109  10.419
  307MPD2    C5 4857   2.646   4.779  10.406
  307MPD2     H 4858   2.556   0.176  10.090
  307MPD2    H1 4859   2.565   0.161  10.513
  307MPD2    H2 4860   2.754   4.643  10.281
  307MPD2    H3 4861   2.680   4.725  10.493
  307MPD2     N 4862   2.504   0.306  10.307
  307MPD2    H5 4863   2.494   0.344  10.213
  307MPD2    N1 4864   2.715   4.782  10.052
  307MPD2    H7 4865   2.698   0.059   9.977
  308MPD2     C 4866   1.544   0.043   8.161
  308MPD2    C1 4867   1.528   4.760   8.274
  308MPD2    C2 4868   1.638   4.699   8.321
  308MPD2    C3 4869   1.763   4.741   8.277
  308MPD2    C4 4870   1.776   0.034   8.170
  308MPD2    C5 4871   1.665   0.064   8.101
  308MPD2     H 4872   1.634   4.631   8.405
  308MPD2    H1 4873   1.876   0.048   8.129
  308MPD2    H2 4874   1.469   0.099   8.107
  308MPD2    H3 4875   1.677   0.121   8.010
  308MPD2     N 4876   1.888   4.689   8.324
  308MPD2    H5 4877   1.972   4.712   8.271
  308MPD2    N1 4878   1.399   4.745   8.334
  308MPD2    H7 4879   1.395   4.680   8.412
  309MPD2     C 4880   1.516   0.451   8.605
  309MPD2    C1 4881   1.511   0.335   8.533
  309MPD2    C2 4882   1.432   0.328   8.418
  309MPD2    C3 4883   1.333   0.425   8.390
  309MPD2    C4 4884   1.328   0.536   8.466
  309MPD2    C5 4885   1.426   0.549   8.563
  309MPD2     H 4886   1.439   0.241   8.354
  309MPD2    H1 4887   1.254   0.615   8.463
  309MPD2    H2 4888   1.585   0.463   8.688
  309MPD2    H3 4889   1.422   0.638   8.625
  309MPD2     N 4890   1.253   0.417   8.271
  309MPD2    H5 4891   1.257   0.329   8.221
  309MPD2    N1 4892   1.598   0.226   8.568
  309MPD2    H7 4893   1.605   0.152   8.499
  310MPD2     C 4894   1.673   4.231   8.924
  310MPD2    C1 4895   1.720   4.350   8.975
  310MPD2    C2 4896   1.763   4.359   9.108
  310MPD2    C3 4897   1.755   4.243   9.191
  310MPD2    C4 4898   1.702   4.126   9.136
  310MPD2    C5 4899   1.663   4.120   9.003
  310MPD2     H 4900   1.812   4.453   9.131
  310MPD2    H1 4901   1.692   4.031   9.187
  310MPD2    H2 4902   1.654   4.219   8.818
  310MPD2    H3 4903   1.639   4.028   8.952
  310MPD2     N 4904   1.798   4.245   9.329
  310MPD2    H5 4905   1.837   4.332   9.364
  310MPD2    N1 4906   1.723   4.450   8.880
  310MPD2    H7 4907   1.690   4.417   8.790
  311MPD2     C 4908   0.609   2.649   7.411
  311MPD2    C1 4909   0.667   2.641   7.285
  311MPD2    C2 4910   0.701   2.763   7.225
  311MPD2    C3 4911   0.685   2.877   7.294
  311MPD2    C4 4912   0.629   2.888   7.418
  311MPD2    C5 4913   0.585   2.767   7.472
  311MPD2     H 4914   0.746   2.760   7.126
  311MPD2    H1 4915   0.628   2.982   7.471
  311MPD2    H2 4916   0.579   2.560   7.466
  311MPD2    H3 4917   0.553   2.761   7.575
  311MPD2     N 4918   0.727   2.990   7.224
  311MPD2    H5 4919   0.735   2.975   7.124
  311MPD2    N1 4920   0.697   2.522   7.217
  311MPD2    H7 4921   0.761   2.525   7.139
  312MPD2     C 4922   1.537   2.323   7.317
  312MPD2    C1 4923   1.497   2.317   7.184
  312MPD2    C2 4924   1.364   2.298   7.150
  312MPD2    C3 4925   1.265   2.297   7.253
  312MPD2    C4 4926   1.312   2.312   7.387
  312MPD2    C5 4927   1.442   2.315   7.418
  312MPD2     H 4928   1.325   2.302   7.049
  312MPD2    H1 4929   1.245   2.308   7.472
  312MPD2    H2 4930   1.637   2.351   7.348
  312MPD2    H3 4931   1.473   2.323   7.522
  312MPD2     N 4932   1.126   2.271   7.228
  312MPD2    H5 4933   1.065   2.273   7.309
  312MPD2    N1 4934   1.586   2.345   7.073
  312MPD2    H7 4935   1.542   2.358   6.983
  313MPD2     C 4936   3.711   0.434  15.086
  313MPD2    C1 4937   3.628   0.335  15.026
  313MPD2    C2 4938   3.658   0.200  15.031
  313MPD2    C3 4939   3.768   0.160  15.110
  313MPD2    C4 4940   3.837   0.259  15.176
  313MPD2    C5 4941   3.805   0.390  15.168
  313MPD2     H 4942   3.594   0.122  14.991
  313MPD2    H1 4943   3.907   0.238  15.256
  313MPD2    H2 4944   3.686   0.539  15.082
  313MPD2    H3 4945   3.861   0.463  15.225
  313MPD2     N 4946   3.768   0.023  15.138
  313MPD2    H5 4947   3.704   4.752  15.088
  313MPD2    N1 4948   3.502   0.377  14.980
  313MPD2    H7 4949   3.453   0.309  14.923
  314MPD2     C 4950   3.063   4.502  15.005
  314MPD2    C1 4951   3.181   4.480  14.934
  314MPD2    C2 4952   3.303   4.459  15.002
  314MPD2    C3 4953   3.303   4.484  15.145
  314MPD2    C4 4954   3.186   4.531  15.207
  314MPD2    C5 4955   3.066   4.529  15.139
  314MPD2     H 4956   3.386   4.426  14.941
  314MPD2    H1 4957   3.198   4.567  15.309
  314MPD2    H2 4958   2.969   4.521  14.954
  314MPD2    H3 4959   2.976   4.551  15.196
  314MPD2     N 4960   3.420   4.489  15.223
  314MPD2    H5 4961   3.416   4.538  15.312
  314MPD2    N1 4962   3.178   4.459  14.793
  314MPD2    H7 4963   3.267   4.428  14.756
  315MPD2     C 4964   1.647   1.885  10.004
  315MPD2    C1 4965   1.525   1.832  10.040
  315MPD2    C2 4966   1.409   1.871   9.973
  315MPD2    C3 4967   1.415   1.953   9.865
  315MPD2    C4 4968   1.537   2.013   9.832
  315MPD2    C5 4969   1.652   1.976   9.902
  315MPD2     H 4970   1.314   1.826   9.999
  315MPD2    H1 4971   1.546   2.084   9.751
  315MPD2    H2 4972   1.738   1.856  10.056
  315MPD2    H3 4973   1.741   2.026   9.867
  315MPD2     N 4974   1.294   1.981   9.790
  315MPD2    H5 4975   1.214   1.924   9.815
  315MPD2    N1 4976   1.522   1.728  10.136
  315MPD2    H7 4977   1.612   1.691  10.165
  316MPD2     C 4978   1.318   1.014  10.433
  316MPD2    C1 4979   1.215   1.085  10.366
  316MPD2    C2 4980   1.083   1.037  10.384
  316MPD2    C3 4981   1.061   0.912  10.446
  316MPD2    C4 4982   1.165   0.842  10.499
  316MPD2    C5 4983   1.287   0.898  10.499
  316MPD2     H 4984   0.999   1.087  10.337
  316MPD2    H1 4985   1.158   0.753  10.561
  316MPD2    H2 4986   1.416   1.060  10.438
  316MPD2    H3 4987   1.374   0.839  10.528
  316MPD2     N 4988   0.931   0.859  10.447
  316MPD2    H5 4989   0.857   0.927  10.433
  316MPD2    N1 4990   1.242   1.205  10.292
  316MPD2    H7 4991   1.339   1.235  10.293
  317MPD2     C 4992   1.421   1.832   9.464
  317MPD2    C1 4993   1.537   1.796   9.533
  317MPD2    C2 4994   1.523   1.706   9.633
  317MPD2    C3 4995   1.403   1.635   9.647
  317MPD2    C4 4996   1.306   1.643   9.554
  317MPD2    C5 4997   1.317   1.748   9.457
  317MPD2     H 4998   1.597   1.710   9.713
  317MPD2    H1 4999   1.215   1.585   9.560
  317MPD2    H2 5000   1.433   1.915   9.396
  317MPD2    H3 5001   1.237   1.759   9.385
  317MPD2     N 5002   1.399   1.540   9.760
  317MPD2    H5 5003   1.478   1.549   9.823
  317MPD2    N1 5004   1.658   1.869   9.524
  317MPD2    H7 5005   1.647   1.954   9.470
  318MPD2     C 5006   2.744   2.737   8.506
  318MPD2    C1 5007   2.700   2.855   8.555
  318MPD2    C2 5008   2.637   2.856   8.679
  318MPD2    C3 5009   2.621   2.745   8.758
  318MPD2    C4 5010   2.668   2.626   8.704
  318MPD2    C5 5011   2.716   2.620   8.578
  318MPD2     H 5012   2.583   2.945   8.708
  318MPD2    H1 5013   2.664   2.538   8.767
  318MPD2    H2 5014   2.793   2.735   8.409
  318MPD2    H3 5015   2.755   2.526   8.541
  318MPD2     N 5016   2.549   2.743   8.876
  318MPD2    H5 5017   2.538   2.649   8.912
  318MPD2    N1 5018   2.704   2.971   8.470
  318MPD2    H7 5019   2.749   2.966   8.379
  319MPD2     C 5020   1.840   2.327   9.388
  319MPD2    C1 5021   1.917   2.292   9.282
  319MPD2    C2 5022   2.033   2.361   9.259
  319MPD2    C3 5023   2.069   2.470   9.343
  319MPD2    C4 5024   1.980   2.504   9.450
  319MPD2    C5 5025   1.872   2.429   9.472
  319MPD2     H 5026   2.096   2.339   9.174
  319MPD2    H1 5027   1.999   2.580   9.525
  319MPD2    H2 5028   1.744   2.281   9.405
  319MPD2    H3 5029   1.803   2.448   9.554
  319MPD2     N 5030   2.186   2.547   9.321
  319MPD2    H5 5031   2.201   2.621   9.389
  319MPD2    N1 5032   1.860   2.189   9.197
  319MPD2    H7 5033   1.775   2.145   9.230
  320MPD2     C 5034   2.328   3.116   9.638
  320MPD2    C1 5035   2.393   3.158   9.518
  320MPD2    C2 5036   2.409   3.291   9.500
  320MPD2    C3 5037   2.359   3.383   9.593
  320MPD2    C4 5038   2.281   3.340   9.694
  320MPD2    C5 5039   2.271   3.205   9.724
  320MPD2     H 5040   2.460   3.340   9.418
  320MPD2    H1 5041   2.248   3.415   9.765
  320MPD2    H2 5042   2.308   3.012   9.663
  320MPD2    H3 5043   2.221   3.159   9.809
  320MPD2     N 5044   2.381   3.522   9.595
  320MPD2    H5 5045   2.328   3.573   9.665
  320MPD2    N1 5046   2.435   3.067   9.419
  320MPD2    H7 5047   2.464   3.102   9.328
  321MPD2     C 5048   0.558   1.043  13.960
  321MPD2    C1 5049   0.664   1.125  13.986
  321MPD2    C2 5050   0.734   1.173  13.875
  321MPD2    C3 5051   0.705   1.132  13.750
  321MPD2    C4 5052   0.607   1.041  13.730
  321MPD2    C5 5053   0.532   1.000  13.832
  321MPD2     H 5054   0.812   1.248  13.888
  321MPD2    H1 5055   0.579   1.015  13.628
  321MPD2    H2 5056   0.479   1.014  14.029
  321MPD2    H3 5057   0.446   0.938  13.809
  321MPD2     N 5058   0.783   1.183  13.643
  321MPD2    H5 5059   0.733   1.174  13.555
  321MPD2    N1 5060   0.669   1.187  14.109
  321MPD2    H7 5061   0.588   1.178  14.169
  322MPD2     C 5062   0.791   1.987  14.262
  322MPD2    C1 5063   0.810   1.846  14.259
  322MPD2    C2 5064   0.731   1.777  14.168
  322MPD2    C3 5065   0.639   1.842  14.082
  322MPD2    C4 5066   0.623   1.975  14.095
  322MPD2    C5 5067   0.696   2.047  14.184
  322MPD2     H 5068   0.744   1.670  14.154
  322MPD2    H1 5069   0.536   2.023  14.051
  322MPD2    H2 5070   0.837   2.053  14.335
  322MPD2    H3 5071   0.681   2.153  14.202
  322MPD2     N 5072   0.548   1.769  14.002
  322MPD2    H5 5073   0.469   1.818  13.960
  322MPD2    N1 5074   0.901   1.781  14.346
  322MPD2    H7 5075   0.967   1.840  14.394
  323MPD2     C 5076   1.964   0.381   8.952
  323MPD2    C1 5077   1.979   0.432   8.823
  323MPD2    C2 5078   1.948   0.563   8.797
  323MPD2    C3 5079   1.909   0.644   8.903
  323MPD2    C4 5080   1.895   0.596   9.029
  323MPD2    C5 5081   1.922   0.463   9.054
  323MPD2     H 5082   1.965   0.609   8.700
  323MPD2    H1 5083   1.856   0.657   9.110
  323MPD2    H2 5084   1.988   0.278   8.976
  323MPD2    H3 5085   1.907   0.419   9.152
  323MPD2     N 5086   1.892   0.778   8.878
  323MPD2    H5 5087   1.890   0.806   8.781
  323MPD2    N1 5088   2.044   0.351   8.731
  323MPD2    H7 5089   2.101   0.280   8.775
  324MPD2     C 5090   1.546   1.531   9.091
  324MPD2    C1 5091   1.511   1.436   8.998
  324MPD2    C2 5092   1.386   1.435   8.945
  324MPD2    C3 5093   1.285   1.516   8.999
  324MPD2    C4 5094   1.328   1.624   9.073
  324MPD2    C5 5095   1.455   1.630   9.124
  324MPD2     H 5096   1.372   1.372   8.858
  324MPD2    H1 5097   1.258   1.690   9.123
  324MPD2    H2 5098   1.637   1.521   9.148
  324MPD2    H3 5099   1.484   1.699   9.203
  324MPD2     N 5100   1.140   1.495   8.972
  324MPD2    H5 5101   1.082   1.577   8.987
  324MPD2    N1 5102   1.602   1.339   8.951
  324MPD2    H7 5103   1.585   1.290   8.864
  325MPD2     C 5104   2.475   4.482  12.627
  325MPD2    C1 5105   2.468   4.618  12.598
  325MPD2    C2 5106   2.386   4.699  12.676
  325MPD2    C3 5107   2.318   4.657  12.792
  325MPD2    C4 5108   2.307   4.519  12.800
  325MPD2    C5 5109   2.389   4.435  12.721
  325MPD2     H 5110   2.399   0.015  12.654
  325MPD2    H1 5111   2.263   4.465  12.883
  325MPD2    H2 5112   2.536   4.412  12.572
  325MPD2    H3 5113   2.404   4.333  12.756
  325MPD2     N 5114   2.225   4.740  12.872
  325MPD2    H5 5115   2.150   4.697  12.926
  325MPD2    N1 5116   2.542   4.683  12.501
  325MPD2    H7 5117   2.511   4.778  12.484
  326MPD2     C 5118   3.346   4.636  12.248
  326MPD2    C1 5119   3.264   4.629  12.361
  326MPD2    C2 5120   3.309   4.586  12.485
  326MPD2    C3 5121   3.444   4.553  12.495
  326MPD2    C4 5122   3.527   4.552  12.381
  326MPD2    C5 5123   3.473   4.586  12.260
  326MPD2     H 5124   3.243   4.572  12.570
  326MPD2    H1 5125   3.624   4.503  12.389
  326MPD2    H2 5126   3.309   4.659  12.149
  326MPD2    H3 5127   3.537   4.570  12.174
  326MPD2     N 5128   3.498   4.507  12.617
  326MPD2    H5 5129   3.586   4.457  12.615
  326MPD2    N1 5130   3.126   4.663  12.347
  326MPD2    H7 5131   3.068   4.636  12.425
  327MPD2     C 5132   2.889   0.582  12.123
  327MPD2    C1 5133   2.787   0.503  12.177
  327MPD2    C2 5134   2.661   0.566  12.195
  327MPD2    C3 5135   2.633   0.695  12.142
  327MPD2    C4 5136   2.737   0.762  12.090
  327MPD2    C5 5137   2.867   0.712  12.077
  327MPD2     H 5138   2.584   0.518  12.255
  327MPD2    H1 5139   2.735   0.863  12.050
  327MPD2    H2 5140   2.987   0.544  12.096
  327MPD2    H3 5141   2.944   0.770  12.028
  327MPD2     N 5142   2.509   0.746  12.159
  327MPD2    H5 5143   2.438   0.674  12.172
  327MPD2    N1 5144   2.814   0.366  12.199
  327MPD2    H7 5145   2.907   0.329  12.184
  328MPD2     C 5146   2.408   2.342   6.940
  328MPD2    C1 5147   2.341   2.338   7.059
  328MPD2    C2 5148   2.243   2.438   7.082
  328MPD2    C3 5149   2.227   2.542   6.985
  328MPD2    C4 5150   2.288   2.534   6.860
  328MPD2    C5 5151   2.379   2.430   6.835
  328MPD2     H 5152   2.165   2.432   7.157
  328MPD2    H1 5153   2.258   2.599   6.778
  328MPD2    H2 5154   2.486   2.268   6.924
  328MPD2    H3 5155   2.429   2.419   6.740
  328MPD2     N 5156   2.125   2.636   7.003
  328MPD2    H5 5157   2.058   2.622   7.078
  328MPD2    N1 5158   2.370   2.226   7.138
  328MPD2    H7 5159   2.448   2.166   7.111
  329MPD2     C 5160   2.696   1.401   7.023
  329MPD2    C1 5161   2.577   1.392   7.093
  329MPD2    C2 5162   2.553   1.501   7.173
  329MPD2    C3 5163   2.618   1.622   7.176
  329MPD2    C4 5164   2.728   1.629   7.097
  329MPD2    C5 5165   2.774   1.510   7.038
  329MPD2     H 5166   2.463   1.489   7.233
  329MPD2    H1 5167   2.785   1.721   7.085
  329MPD2    H2 5168   2.737   1.315   6.971
  329MPD2    H3 5169   2.875   1.512   6.999
  329MPD2     N 5170   2.575   1.714   7.276
  329MPD2    H5 5171   2.501   1.688   7.340
  329MPD2    N1 5172   2.495   1.282   7.098
  329MPD2    H7 5173   2.417   1.293   7.162
  330MPD2     C 5174   1.183   2.643   8.015
  330MPD2    C1 5175   1.050   2.657   8.045
  330MPD2    C2 5176   1.010   2.749   8.135
  330MPD2    C3 5177   1.102   2.832   8.187
  330MPD2    C4 5178   1.236   2.826   8.160
  330MPD2    C5 5179   1.280   2.726   8.078
  330MPD2     H 5180   0.906   2.774   8.155
  330MPD2    H1 5181   1.303   2.898   8.205
  330MPD2    H2 5182   1.223   2.568   7.947
  330MPD2    H3 5183   1.387   2.712   8.067
  330MPD2     N 5184   1.069   2.926   8.286
  330MPD2    H5 5185   1.133   3.004   8.299
  330MPD2    N1 5186   0.947   2.570   7.992
  330MPD2    H7 5187   0.852   2.577   8.027
  331MPD2     C 5188   0.852   2.002   7.324
  331MPD2    C1 5189   0.752   2.017   7.417
  331MPD2    C2 5190   0.650   1.924   7.411
  331MPD2    C3 5191   0.635   1.830   7.310
  331MPD2    C4 5192   0.733   1.831   7.215
  331MPD2    C5 5193   0.840   1.911   7.221
  331MPD2     H 5194   0.570   1.919   7.484
  331MPD2    H1 5195   0.737   1.761   7.132
  331MPD2    H2 5196   0.944   2.057   7.341
  331MPD2    H3 5197   0.920   1.903   7.148
  331MPD2     N 5198   0.532   1.726   7.302
  331MPD2    H5 5199   0.532   1.655   7.230
  331MPD2    N1 5200   0.751   2.112   7.520
  331MPD2    H7 5201   0.694   2.092   7.601
  332MPD2     C 5202   3.758   3.378  11.932
  332MPD2    C1 5203   3.720   3.244  11.923
  332MPD2    C2 5204   3.820   3.145  11.928
  332MPD2    C3 5205   3.956   3.174  11.967
  332MPD2    C4 5206   3.988   3.309  11.969
  332MPD2    C5 5207   3.892   3.409  11.958
  332MPD2     H 5208   3.791   3.043  11.906
  332MPD2    H1 5209   4.093   3.331  11.986
  332MPD2    H2 5210   3.690   3.462  11.938
  332MPD2    H3 5211   3.925   3.511  11.973
  332MPD2     N 5212   4.050   3.071  11.973
  332MPD2    H5 5213   4.026   2.976  11.948
  332MPD2    N1 5214   3.587   3.213  11.905
  332MPD2    H7 5215   3.532   3.297  11.888
  333MPD2     C 5216   3.189   2.528  11.793
  333MPD2    C1 5217   3.280   2.612  11.854
  333MPD2    C2 5218   3.404   2.555  11.866
  333MPD2    C3 5219   3.439   2.431  11.814
  333MPD2    C4 5220   3.348   2.354  11.743
  333MPD2    C5 5221   3.223   2.407  11.742
  333MPD2     H 5222   3.473   2.616  11.924
  333MPD2    H1 5223   3.370   2.259  11.696
  333MPD2    H2 5224   3.087   2.560  11.772
  333MPD2    H3 5225   3.149   2.351  11.685
  333MPD2     N 5226   3.577   2.398  11.836
  333MPD2    H5 5227   3.627   2.451  11.907
  333MPD2    N1 5228   3.262   2.749  11.887
  333MPD2    H7 5229   3.342   2.786  11.936
  334MPD2     C 5230   2.855   3.434  11.273
  334MPD2    C1 5231   2.954   3.499  11.351
  334MPD2    C2 5232   3.020   3.422  11.448
  334MPD2    C3 5233   2.995   3.289  11.460
  334MPD2    C4 5234   2.894   3.232  11.395
  334MPD2    C5 5235   2.833   3.302  11.293
  334MPD2     H 5236   3.105   3.470  11.495
  334MPD2    H1 5237   2.877   3.125  11.401
  334MPD2    H2 5238   2.810   3.475  11.183
  334MPD2    H3 5239   2.767   3.244  11.230
  334MPD2     N 5240   3.064   3.203  11.550
  334MPD2    H5 5241   3.028   3.109  11.563
  334MPD2    N1 5242   2.987   3.633  11.329
  334MPD2    H7 5243   2.962   3.674  11.240
  335MPD2     C 5244   0.214   0.553   9.753
  335MPD2    C1 5245   0.146   0.444   9.712
  335MPD2    C2 5246   0.061   0.379   9.797
  335MPD2    C3 5247   0.079   0.405   9.934
  335MPD2    C4 5248   0.149   0.512   9.974
  335MPD2    C5 5249   0.215   0.589   9.884
  335MPD2     H 5250   4.789   0.295   9.767
  335MPD2    H1 5251   0.152   0.534  10.080
  335MPD2    H2 5252   0.286   0.597   9.685
  335MPD2    H3 5253   0.283   0.667   9.918
  335MPD2     N 5254   0.038   0.320  10.036
  335MPD2    H5 5255   0.096   0.317  10.120
  335MPD2    N1 5256   0.161   0.397   9.582
  335MPD2    H7 5257   0.243   0.439   9.540
  336MPD2     C 5258   0.413   4.556   9.584
  336MPD2    C1 5259   0.382   4.680   9.627
  336MPD2    C2 5260   0.457   4.789   9.582
  336MPD2    C3 5261   0.564   4.765   9.488
  336MPD2    C4 5262   0.593   4.637   9.454
  336MPD2    C5 5263   0.523   4.530   9.506
  336MPD2     H 5264   0.434   0.103   9.602
  336MPD2    H1 5265   0.675   4.620   9.386
  336MPD2    H2 5266   0.361   4.471   9.626
  336MPD2    H3 5267   0.533   4.428   9.472
  336MPD2     N 5268   0.644   0.077   9.430
  336MPD2    H5 5269   0.714   0.053   9.361
  336MPD2    N1 5270   0.274   4.678   9.712
  336MPD2    H7 5271   0.232   4.586   9.724
  337MPD2     C 5272   4.294   4.323   9.591
  337MPD2    C1 5273   4.307   4.326   9.729
  337MPD2    C2 5274   4.415   4.391   9.788
  337MPD2    C3 5275   4.493   4.475   9.707
  337MPD2    C4 5276   4.475   4.478   9.574
  337MPD2    C5 5277   4.383   4.390   9.517
  337MPD2     H 5278   4.415   4.389   9.896
  337MPD2    H1 5279   4.535   4.540   9.509
  337MPD2    H2 5280   4.205   4.289   9.538
  337MPD2    H3 5281   4.365   4.393   9.410
  337MPD2     N 5282   4.579   4.573   9.758
  337MPD2    H5 5283   4.637   4.621   9.690
  337MPD2    N1 5284   4.210   4.266   9.816
  337MPD2    H7 5285   4.245   4.257   9.911
  338MPD2     C 5286   4.332   4.695  11.951
  338MPD2    C1 5287   4.332   4.661  12.081
  338MPD2    C2 5288   4.236   4.720  12.163
  338MPD2    C3 5289   4.147   0.024  12.118
  338MPD2    C4 5290   4.135   0.049  11.979
  338MPD2    C5 5291   4.231   4.771  11.901
  338MPD2     H 5292   4.244   4.701  12.269
  338MPD2    H1 5293   4.062   0.113  11.932
  338MPD2    H2 5294   4.396   4.656  11.873
  338MPD2    H3 5295   4.230   4.787  11.794
  338MPD2     N 5296   4.069   0.091  12.212
  338MPD2    H5 5297   4.082   0.072  12.311
  338MPD2    N1 5298   4.432   4.587  12.138
  338MPD2    H7 5299   4.424   4.570  12.238
  339MPD2     C 5300   3.988   0.171  13.025
  339MPD2    C1 5301   4.039   0.113  12.905
  339MPD2    C2 5302   4.106   4.783  12.913
  339MPD2    C3 5303   4.125   4.721  13.041
  339MPD2    C4 5304   4.086   4.783  13.157
  339MPD2    C5 5305   4.013   0.112  13.147
  339MPD2     H 5306   4.143   4.726  12.828
  339MPD2    H1 5307   4.117   4.741  13.252
  339MPD2    H2 5308   3.941   0.268  13.033
  339MPD2    H3 5309   3.990   0.162  13.241
  339MPD2     N 5310   4.183   4.593  13.057
  339MPD2    H5 5311   4.176   4.549  13.148
  339MPD2    N1 5312   4.024   0.188  12.789
  339MPD2    H7 5313   3.993   0.284  12.797
  340MPD2     C 5314   4.661   0.706  12.246
  340MPD2    C1 5315   4.550   0.747  12.170
  340MPD2    C2 5316   4.417   0.698  12.200
  340MPD2    C3 5317   4.411   0.598  12.299
  340MPD2    C4 5318   4.528   0.550  12.360
  340MPD2    C5 5319   4.654   0.605  12.337
  340MPD2     H 5320   4.332   0.729  12.141
  340MPD2    H1 5321   4.515   0.464  12.425
  340MPD2    H2 5322   4.757   0.756  12.240
  340MPD2    H3 5323   4.737   0.577  12.402
  340MPD2     N 5324   4.282   0.539  12.330
  340MPD2    H5 5325   4.201   0.561  12.273
  340MPD2    N1 5326   4.562   0.841  12.064
  340MPD2    H7 5327   4.479   0.870  12.014
  341MPD2     C 5328   0.295   4.031  12.090
  341MPD2    C1 5329   0.156   4.040  12.064
  341MPD2    C2 5330   0.094   3.926  12.022
  341MPD2    C3 5331   0.157   3.806  11.997
  341MPD2    C4 5332   0.293   3.798  12.027
  341MPD2    C5 5333   0.362   3.913  12.056
  341MPD2     H 5334   4.776   3.936  12.012
  341MPD2    H1 5335   0.357   3.711  12.038
  341MPD2    H2 5336   0.354   4.114  12.127
  341MPD2    H3 5337   0.469   3.906  12.073
  341MPD2     N 5338   0.070   3.705  11.952
  341MPD2    H5 5339   4.760   3.720  11.967
  341MPD2    N1 5340   0.084   4.156  12.097
  341MPD2    H7 5341   4.776   4.171  12.073
  342MPD2     C 5342   0.734   3.961  11.812
  342MPD2    C1 5343   0.611   3.956  11.748
  342MPD2    C2 5344   0.563   4.076  11.696
  342MPD2    C3 5345   0.649   4.189  11.693
  342MPD2    C4 5346   0.772   4.183  11.756
  342MPD2    C5 5347   0.816   4.063  11.813
  342MPD2     H 5348   0.467   4.080  11.646
  342MPD2    H1 5349   0.836   4.270  11.751
  342MPD2    H2 5350   0.785   3.878  11.859
  342MPD2    H3 5351   0.909   4.061  11.868
  342MPD2     N 5352   0.609   4.314  11.638
  342MPD2    H5 5353   0.670   4.392  11.659
  342MPD2    N1 5354   0.538   3.833  11.746
  342MPD2    H7 5355   0.579   3.754  11.795
  343MPD2     C 5356   0.203   4.388  10.934
  343MPD2    C1 5357   0.197   4.267  10.866
  343MPD2    C2 5358   0.075   4.236  10.812
  343MPD2    C3 5359   4.753   4.323  10.813
  343MPD2    C4 5360   4.760   4.430  10.898
  343MPD2    C5 5361   0.090   4.463  10.955
  343MPD2     H 5362   0.052   4.142  10.763
  343MPD2    H1 5363   4.675   4.496  10.908
  343MPD2    H2 5364   0.298   4.413  10.981
  343MPD2    H3 5365   0.101   4.546  11.023
  343MPD2     N 5366   4.640   4.301  10.730
  343MPD2    H5 5367   4.552   4.340  10.762
  343MPD2    N1 5368   0.311   4.195  10.842
  343MPD2    H7 5369   0.397   4.245  10.862
  344MPD2     C 5370   0.468   0.027  10.089
  344MPD2    C1 5371   0.466   4.685  10.042
  344MPD2    C2 5372   0.399   4.583  10.106
  344MPD2    C3 5373   0.329   4.611  10.224
  344MPD2    C4 5374   0.346   4.739  10.277
  344MPD2    C5 5375   0.409   0.050  10.210
  344MPD2     H 5376   0.400   4.485  10.060
  344MPD2    H1 5377   0.285   4.763  10.363
  344MPD2    H2 5378   0.518   0.110  10.041
  344MPD2    H3 5379   0.406   0.153  10.243
  344MPD2     N 5380   0.258   4.500  10.279
  344MPD2    H5 5381   0.238   4.419  10.222
  344MPD2    N1 5382   0.544   4.645   9.930
  344MPD2    H7 5383   0.542   4.548   9.902
  345MPD2     C 5384   0.341   3.534  10.511
  345MPD2    C1 5385   0.427   3.632  10.469
  345MPD2    C2 5386   0.389   3.761  10.464
  345MPD2    C3 5387   0.257   3.793  10.507
  345MPD2    C4 5388   0.173   3.698  10.549
  345MPD2    C5 5389   0.210   3.564  10.549
  345MPD2     H 5390   0.452   3.838  10.420
  345MPD2    H1 5391   0.068   3.713  10.573
  345MPD2    H2 5392   0.389   3.439  10.534
  345MPD2    H3 5393   0.136   3.490  10.580
  345MPD2     N 5394   0.193   3.916  10.486
  345MPD2    H5 5395   0.093   3.916  10.502
  345MPD2    N1 5396   0.555   3.591  10.427
  345MPD2    H7 5397   0.572   3.491  10.429
  346MPD2     C 5398   1.829   0.553   6.722
  346MPD2    C1 5399   1.754   0.608   6.825
  346MPD2    C2 5400   1.651   0.540   6.874
  346MPD2    C3 5401   1.619   0.412   6.818
  346MPD2    C4 5402   1.696   0.353   6.719
  346MPD2    C5 5403   1.797   0.431   6.669
  346MPD2     H 5404   1.595   0.564   6.964
  346MPD2    H1 5405   1.667   0.262   6.667
  346MPD2    H2 5406   1.918   0.607   6.691
  346MPD2    H3 5407   1.861   0.388   6.592
  346MPD2     N 5408   1.492   0.356   6.865
  346MPD2    H5 5409   1.428   0.413   6.918
  346MPD2    N1 5410   1.796   0.728   6.883
  346MPD2    H7 5411   1.887   0.765   6.858
  347MPD2     C 5412   1.449   0.056  12.317
  347MPD2    C1 5413   1.446   0.171  12.390
  347MPD2    C2 5414   1.563   0.251  12.390
  347MPD2    C3 5415   1.662   0.220  12.299
  347MPD2    C4 5416   1.665   0.108  12.221
  347MPD2    C5 5417   1.554   0.024  12.233
  347MPD2     H 5418   1.567   0.352  12.430
  347MPD2    H1 5419   1.745   0.074  12.156
  347MPD2    H2 5420   1.368   4.775  12.304
  347MPD2    H3 5421   1.553   4.724  12.172
  347MPD2     N 5422   1.761   0.317  12.296
  347MPD2    H5 5423   1.740   0.402  12.348
  347MPD2    N1 5424   1.329   0.212  12.462
  347MPD2    H7 5425   1.259   0.139  12.450
  348MPD2     C 5426   0.680   0.721  13.114
  348MPD2    C1 5427   0.691   0.756  12.985
  348MPD2    C2 5428   0.809   0.727  12.920
  348MPD2    C3 5429   0.912   0.658  12.976
  348MPD2    C4 5430   0.898   0.619  13.108
  348MPD2    C5 5431   0.783   0.656  13.174
  348MPD2     H 5432   0.813   0.760  12.817
  348MPD2    H1 5433   0.968   0.553  13.158
  348MPD2    H2 5434   0.591   0.736  13.174
  348MPD2    H3 5435   0.774   0.620  13.276
  348MPD2     N 5436   1.016   0.596  12.901
  348MPD2    H5 5437   1.070   0.520  12.940
  348MPD2    N1 5438   0.586   0.814  12.911
  348MPD2    H7 5439   0.593   0.823  12.810
  349MPD2     C 5440   1.045   0.858  12.091
  349MPD2    C1 5441   1.027   0.861  12.231
  349MPD2    C2 5442   1.026   0.745  12.308
  349MPD2    C3 5443   1.028   0.623  12.235
  349MPD2    C4 5444   1.059   0.618  12.100
  349MPD2    C5 5445   1.058   0.737  12.024
  349MPD2     H 5446   1.010   0.751  12.415
  349MPD2    H1 5447   1.067   0.524  12.047
  349MPD2    H2 5448   1.061   0.942  12.024
  349MPD2    H3 5449   1.076   0.731  11.917
  349MPD2     N 5450   1.029   0.508  12.309
  349MPD2    H5 5451   1.080   0.426  12.278
  349MPD2    N1 5452   1.017   0.979  12.299
  349MPD2    H7 5453   1.010   0.976  12.400
  350MPD2     C 5454   3.954   4.721   9.555
  350MPD2    C1 5455   4.034   4.654   9.472
  350MPD2    C2 5456   4.146   4.722   9.421
  350MPD2    C3 5457   4.149   0.072   9.441
  350MPD2    C4 5458   4.057   0.139   9.510
  350MPD2    C5 5459   3.958   0.067   9.573
  350MPD2     H 5460   4.223   4.662   9.375
  350MPD2    H1 5461   4.049   0.247   9.518
  350MPD2    H2 5462   3.879   4.672   9.616
  350MPD2    H3 5463   3.884   0.119   9.634
  350MPD2     N 5464   4.249   0.154   9.391
  350MPD2    H5 5465   4.233   0.253   9.378
  350MPD2    N1 5466   4.013   4.514   9.469
  350MPD2    H7 5467   3.948   4.472   9.534
  351MPD2     C 5468   0.105   0.428   9.090
  351MPD2    C1 5469   0.116   0.334   8.986
  351MPD2    C2 5470   0.176   0.365   8.870
  351MPD2    C3 5471   0.235   0.487   8.855
  351MPD2    C4 5472   0.214   0.581   8.952
  351MPD2    C5 5473   0.149   0.553   9.071
  351MPD2     H 5474   0.177   0.295   8.788
  351MPD2    H1 5475   0.256   0.680   8.938
  351MPD2    H2 5476   0.064   0.404   9.187
  351MPD2    H3 5477   0.124   0.633   9.140
  351MPD2     N 5478   0.290   0.536   8.738
  351MPD2    H5 5479   0.299   0.637   8.737
  351MPD2    N1 5480   0.053   0.203   9.008
  351MPD2    H7 5481   0.064   0.125   8.944
  352MPD2     C 5482   4.233   0.546   8.521
  352MPD2    C1 5483   4.220   0.608   8.643
  352MPD2    C2 5484   4.266   0.541   8.758
  352MPD2    C3 5485   4.347   0.426   8.742
  352MPD2    C4 5486   4.363   0.373   8.618
  352MPD2    C5 5487   4.301   0.427   8.516
  352MPD2     H 5488   4.241   0.585   8.854
  352MPD2    H1 5489   4.410   0.278   8.597
  352MPD2    H2 5490   4.183   0.582   8.432
  352MPD2    H3 5491   4.310   0.373   8.422
  352MPD2     N 5492   4.414   0.363   8.847
  352MPD2    H5 5493   4.485   0.294   8.822
  352MPD2    N1 5494   4.150   0.729   8.644
  352MPD2    H7 5495   4.105   0.765   8.560
  353MPD2     C 5496   0.019   2.863  11.910
  353MPD2    C1 5497   4.673   2.870  11.885
  353MPD2    C2 5498   4.614   2.992  11.878
  353MPD2    C3 5499   4.681   3.110  11.902
  353MPD2    C4 5500   0.026   3.102  11.927
  353MPD2    C5 5501   0.094   2.976  11.922
  353MPD2     H 5502   4.506   2.995  11.865
  353MPD2    H1 5503   0.087   3.190  11.947
  353MPD2    H2 5504   0.066   2.765  11.916
  353MPD2    H3 5505   0.201   2.962  11.929
  353MPD2     N 5506   4.612   3.234  11.906
  353MPD2    H5 5507   4.665   3.319  11.922
  353MPD2    N1 5508   4.601   2.751  11.875
  353MPD2    H7 5509   4.642   2.672  11.826
  354MPD2     C 5510   3.869   4.442  13.041
  354MPD2    C1 5511   3.855   4.505  12.917
  354MPD2    C2 5512   3.790   4.627  12.917
  354MPD2    C3 5513   3.751   4.680  13.040
  354MPD2    C4 5514   3.771   4.621  13.163
  354MPD2    C5 5515   3.837   4.500  13.159
  354MPD2     H 5516   3.781   4.682  12.824
  354MPD2    H1 5517   3.752   4.662  13.262
  354MPD2    H2 5518   3.917   4.345  13.047
  354MPD2    H3 5519   3.869   4.443  13.245
  354MPD2     N 5520   3.698   0.022  13.034
  354MPD2    H5 5521   3.693   0.059  12.940
  354MPD2    N1 5522   3.912   4.463  12.799
  354MPD2    H7 5523   3.910   4.530  12.722
  355MPD2     C 5524   4.601   0.165  12.619
  355MPD2    C1 5525   4.547   0.137  12.496
  355MPD2    C2 5526   4.442   0.045  12.486
  355MPD2    C3 5527   4.400   4.761  12.597
  355MPD2    C4 5528   4.454   0.008  12.721
  355MPD2    C5 5529   4.549   0.105  12.732
  355MPD2     H 5530   4.407   0.026  12.385
  355MPD2    H1 5531   4.434   4.739  12.810
  355MPD2    H2 5532   4.683   0.235  12.627
  355MPD2    H3 5533   4.589   0.141  12.826
  355MPD2     N 5534   4.317   4.649  12.594
  355MPD2    H5 5535   4.285   4.605  12.680
  355MPD2    N1 5536   4.599   0.205  12.382
  355MPD2    H7 5537   4.696   0.234  12.393
  356MPD2     C 5538   3.039   0.976  13.191
  356MPD2    C1 5539   3.003   1.111  13.193
  356MPD2    C2 5540   2.908   1.146  13.099
  356MPD2    C3 5541   2.870   1.052  13.002
  356MPD2    C4 5542   2.924   0.926  12.992
  356MPD2    C5 5543   3.012   0.893  13.090
  356MPD2     H 5544   2.859   1.242  13.109
  356MPD2    H1 5545   2.900   0.856  12.913
  356MPD2    H2 5546   3.109   0.946  13.268
  356MPD2    H3 5547   3.064   0.798  13.097
  356MPD2     N 5548   2.785   1.084  12.890
  356MPD2    H5 5549   2.776   1.006  12.825
  356MPD2    N1 5550   3.043   1.187  13.302
  356MPD2    H7 5551   3.113   1.153  13.367
  357MPD2     C 5552   3.535   2.017  13.689
  357MPD2    C1 5553   3.441   2.006  13.588
  357MPD2    C2 5554   3.369   1.887  13.571
  357MPD2    C3 5555   3.372   1.788  13.667
  357MPD2    C4 5556   3.455   1.805  13.771
  357MPD2    C5 5557   3.544   1.913  13.778
  357MPD2     H 5558   3.306   1.878  13.483
  357MPD2    H1 5559   3.457   1.730  13.849
  357MPD2    H2 5560   3.602   2.101  13.697
  357MPD2    H3 5561   3.619   1.926  13.856
  357MPD2     N 5562   3.286   1.674  13.670
  357MPD2    H5 5563   3.311   1.598  13.733
  357MPD2    N1 5564   3.433   2.104  13.484
  357MPD2    H7 5565   3.376   2.082  13.403
  358MPD2     C 5566   1.205   2.774   9.003
  358MPD2    C1 5567   1.115   2.854   9.070
  358MPD2    C2 5568   1.152   2.896   9.199
  358MPD2    C3 5569   1.265   2.842   9.263
  358MPD2    C4 5570   1.359   2.768   9.192
  358MPD2    C5 5571   1.328   2.740   9.061
  358MPD2     H 5572   1.079   2.945   9.263
  358MPD2    H1 5573   1.447   2.731   9.242
  358MPD2    H2 5574   1.194   2.739   8.901
  358MPD2    H3 5575   1.397   2.682   9.001
  358MPD2     N 5576   1.286   2.863   9.401
  358MPD2    H5 5577   1.381   2.851   9.435
  358MPD2    N1 5578   0.992   2.890   9.005
  358MPD2    H7 5579   0.975   2.842   8.917
  359MPD2     C 5580   0.369   2.898   9.486
  359MPD2    C1 5581   0.495   2.944   9.446
  359MPD2    C2 5582   0.508   3.040   9.355
  359MPD2    C3 5583   0.391   3.109   9.313
  359MPD2    C4 5584   0.275   3.069   9.352
  359MPD2    C5 5585   0.254   2.962   9.438
  359MPD2     H 5586   0.603   3.050   9.304
  359MPD2    H1 5587   0.186   3.115   9.310
  359MPD2    H2 5588   0.360   2.818   9.558
  359MPD2    H3 5589   0.154   2.931   9.467
  359MPD2     N 5590   0.394   3.193   9.195
  359MPD2    H5 5591   0.318   3.260   9.190
  359MPD2    N1 5592   0.605   2.876   9.493
  359MPD2    H7 5593   0.585   2.790   9.543
  360MPD2     C 5594   0.718   2.426   8.864
  360MPD2    C1 5595   0.827   2.515   8.856
  360MPD2    C2 5596   0.888   2.563   8.972
  360MPD2    C3 5597   0.861   2.505   9.091
  360MPD2    C4 5598   0.768   2.406   9.099
  360MPD2    C5 5599   0.691   2.378   8.990
  360MPD2     H 5600   0.969   2.634   8.979
  360MPD2    H1 5601   0.757   2.358   9.196
  360MPD2    H2 5602   0.667   2.389   8.776
  360MPD2    H3 5603   0.602   2.315   8.989
  360MPD2     N 5604   0.920   2.561   9.208
  360MPD2    H5 5605   0.977   2.641   9.182
  360MPD2    N1 5606   0.863   2.551   8.726
  360MPD2    H7 5607   0.805   2.519   8.649
  361MPD2     C 5608   0.325   0.992   8.166
  361MPD2    C1 5609   0.300   0.881   8.239
  361MPD2    C2 5610   0.407   0.812   8.281
  361MPD2    C3 5611   0.536   0.848   8.245
  361MPD2    C4 5612   0.553   0.946   8.156
  361MPD2    C5 5613   0.446   1.019   8.123
  361MPD2     H 5614   0.396   0.725   8.345
  361MPD2    H1 5615   0.648   0.986   8.122
  361MPD2    H2 5616   0.250   1.056   8.121
  361MPD2    H3 5617   0.465   1.103   8.058
  361MPD2     N 5618   0.645   0.796   8.315
  361MPD2    H5 5619   0.738   0.808   8.277
  361MPD2    N1 5620   0.170   0.844   8.286
  361MPD2    H7 5621   0.163   0.765   8.349
  362MPD2     C 5622   0.774   0.107   8.308
  362MPD2    C1 5623   0.837   0.127   8.427
  362MPD2    C2 5624   0.870   0.024   8.511
  362MPD2    C3 5625   0.807   4.693   8.485
  362MPD2    C4 5626   0.722   4.672   8.381
  362MPD2    C5 5627   0.707   4.777   8.291
  362MPD2     H 5628   0.937   0.038   8.595
  362MPD2    H1 5629   0.668   4.580   8.361
  362MPD2    H2 5630   0.754   0.185   8.236
  362MPD2    H3 5631   0.637   4.770   8.208
  362MPD2     N 5632   0.820   4.585   8.567
  362MPD2    H5 5633   0.770   4.507   8.525
  362MPD2    N1 5634   0.878   0.258   8.472
  362MPD2    H7 5635   0.918   0.267   8.565
  363MPD2     C 5636   0.768   0.766   9.116
  363MPD2    C1 5637   0.703   0.684   9.032
  363MPD2    C2 5638   0.602   0.598   9.075
  363MPD2    C3 5639   0.574   0.584   9.210
  363MPD2    C4 5640   0.650   0.654   9.301
  363MPD2    C5 5641   0.740   0.743   9.248
  363MPD2     H 5642   0.545   0.549   8.997
  363MPD2    H1 5643   0.622   0.636   9.404
  363MPD2    H2 5644   0.844   0.835   9.082
  363MPD2    H3 5645   0.796   0.801   9.320
  363MPD2     N 5646   0.480   0.492   9.254
  363MPD2    H5 5647   0.457   0.483   9.352
  363MPD2    N1 5648   0.728   0.697   8.895
  363MPD2    H7 5649   0.787   0.774   8.867
  364MPD2     C 5650   2.595   0.901   7.224
  364MPD2    C1 5651   2.720   0.876   7.278
  364MPD2    C2 5652   2.793   0.775   7.228
  364MPD2    C3 5653   2.747   0.704   7.116
  364MPD2    C4 5654   2.629   0.735   7.058
  364MPD2    C5 5655   2.549   0.826   7.116
  364MPD2     H 5656   2.888   0.758   7.277
  364MPD2    H1 5657   2.599   0.686   6.966
  364MPD2    H2 5658   2.532   0.979   7.265
  364MPD2    H3 5659   2.449   0.834   7.076
  364MPD2     N 5660   2.825   0.600   7.064
  364MPD2    H5 5661   2.905   0.587   7.126
  364MPD2    N1 5662   2.772   0.943   7.393
  364MPD2    H7 5663   2.865   0.923   7.428
  365MPD2     C 5664   3.241   0.643   7.644
  365MPD2    C1 5665   3.112   0.668   7.606
  365MPD2    C2 5666   3.057   0.588   7.509
  365MPD2    C3 5667   3.128   0.486   7.448
  365MPD2    C4 5668   3.255   0.460   7.486
  365MPD2    C5 5669   3.311   0.545   7.581
  365MPD2     H 5670   2.964   0.608   7.456
  365MPD2    H1 5671   3.319   0.386   7.438
  365MPD2    H2 5672   3.290   0.706   7.717
  365MPD2    H3 5673   3.411   0.530   7.620
  365MPD2     N 5674   3.064   0.421   7.338
  365MPD2    H5 5675   2.968   0.446   7.317
  365MPD2    N1 5676   3.027   0.770   7.640
  365MPD2    H7 5677   2.931   0.757   7.609
  366MPD2     C 5678   1.770   3.053   8.745
  366MPD2    C1 5679   1.904   3.079   8.714
  366MPD2    C2 5680   2.003   3.073   8.811
  366MPD2    C3 5681   1.969   3.027   8.940
  366MPD2    C4 5682   1.832   3.007   8.974
  366MPD2    C5 5683   1.737   3.021   8.875
  366MPD2     H 5684   2.101   3.106   8.780
  366MPD2    H1 5685   1.791   2.981   9.071
  366MPD2    H2 5686   1.689   3.056   8.673
  366MPD2    H3 5687   1.631   3.013   8.897
  366MPD2     N 5688   2.071   3.030   9.035
  366MPD2    H5 5689   2.159   3.072   9.008
  366MPD2    N1 5690   1.953   3.118   8.589
  366MPD2    H7 5691   2.050   3.095   8.569
  367MPD2     C 5692   1.999   3.645   8.088
  367MPD2    C1 5693   1.971   3.531   8.011
  367MPD2    C2 5694   1.970   3.543   7.872
  367MPD2    C3 5695   2.024   3.661   7.802
  367MPD2    C4 5696   2.088   3.753   7.886
  367MPD2    C5 5697   2.075   3.740   8.022
  367MPD2     H 5698   1.918   3.461   7.825
  367MPD2    H1 5699   2.138   3.840   7.845
  367MPD2    H2 5700   1.999   3.636   8.196
  367MPD2    H3 5701   2.110   3.820   8.087
  367MPD2     N 5702   2.019   3.694   7.664
  367MPD2    H5 5703   2.088   3.760   7.628
  367MPD2    N1 5704   1.937   3.411   8.078
  367MPD2    H7 5705   1.927   3.425   8.178
  368MPD2     C 5706   1.838   2.680   8.577
  368MPD2    C1 5707   1.959   2.624   8.571
  368MPD2    C2 5708   2.039   2.653   8.467
  368MPD2    C3 5709   2.007   2.738   8.364
  368MPD2    C4 5710   1.878   2.786   8.360
  368MPD2    C5 5711   1.800   2.756   8.468
  368MPD2     H 5712   2.141   2.617   8.462
  368MPD2    H1 5713   1.839   2.843   8.276
  368MPD2    H2 5714   1.771   2.674   8.662
  368MPD2    H3 5715   1.702   2.800   8.481
  368MPD2     N 5716   2.118   2.768   8.273
  368MPD2    H5 5717   2.203   2.715   8.289
  368MPD2    N1 5718   2.010   2.539   8.670
  368MPD2    H7 5719   2.110   2.526   8.659
  369MPD2     C 5720   1.855   0.278   7.141
  369MPD2    C1 5721   1.935   0.363   7.208
  369MPD2    C2 5722   2.034   0.315   7.286
  369MPD2    C3 5723   2.067   0.180   7.285
  369MPD2    C4 5724   1.993   0.100   7.205
  369MPD2    C5 5725   1.885   0.148   7.144
  369MPD2     H 5726   2.081   0.397   7.339
  369MPD2    H1 5727   2.006   4.783   7.194
  369MPD2    H2 5728   1.769   0.308   7.082
  369MPD2    H3 5729   1.821   0.084   7.084
  369MPD2     N 5730   2.172   0.133   7.355
  369MPD2    H5 5731   2.203   0.043   7.320
  369MPD2    N1 5732   1.909   0.498   7.195
  369MPD2    H7 5733   1.835   0.520   7.128
  370MPD2     C 5734   1.371   0.997   7.794
  370MPD2    C1 5735   1.396   0.863   7.771
  370MPD2    C2 5736   1.499   0.821   7.693
  370MPD2    C3 5737   1.562   0.920   7.614
  370MPD2    C4 5738   1.532   1.053   7.629
  370MPD2    C5 5739   1.441   1.090   7.719
  370MPD2     H 5740   1.535   0.719   7.684
  370MPD2    H1 5741   1.576   1.130   7.566
  370MPD2    H2 5742   1.287   1.042   7.846
  370MPD2    H3 5743   1.419   1.196   7.723
  370MPD2     N 5744   1.650   0.877   7.508
  370MPD2    H5 5745   1.666   0.777   7.509
  370MPD2    N1 5746   1.310   0.769   7.831
  370MPD2    H7 5747   1.224   0.808   7.867
  371MPD2     C 5748   0.597   3.491   8.163
  371MPD2    C1 5749   0.656   3.380   8.107
  371MPD2    C2 5750   0.790   3.390   8.084
  371MPD2    C3 5751   0.868   3.497   8.112
  371MPD2    C4 5752   0.809   3.599   8.177
  371MPD2    C5 5753   0.675   3.601   8.202
  371MPD2     H 5754   0.835   3.302   8.039
  371MPD2    H1 5755   0.868   3.684   8.208
  371MPD2    H2 5756   0.493   3.490   8.193
  371MPD2    H3 5757   0.634   3.685   8.258
  371MPD2     N 5758   1.001   3.502   8.078
  371MPD2    H5 5759   1.054   3.562   8.141
  371MPD2    N1 5760   0.594   3.263   8.057
  371MPD2    H7 5761   0.658   3.192   8.024
  372MPD2     C 5762   0.495   3.149   7.665
  372MPD2    C1 5763   0.525   3.287   7.665
  372MPD2    C2 5764   0.410   3.369   7.661
  372MPD2    C3 5765   0.279   3.317   7.658
  372MPD2    C4 5766   0.261   3.183   7.677
  372MPD2    C5 5767   0.367   3.097   7.667
  372MPD2     H 5768   0.429   3.476   7.663
  372MPD2    H1 5769   0.160   3.143   7.677
  372MPD2    H2 5770   0.572   3.073   7.668
  372MPD2    H3 5771   0.349   2.990   7.673
  372MPD2     N 5772   0.167   3.392   7.623
  372MPD2    H5 5773   0.073   3.354   7.624
  372MPD2    N1 5774   0.666   3.321   7.674
  372MPD2    H7 5775   0.734   3.246   7.669
  373MPD2     C 5776   1.260   3.057   7.117
  373MPD2    C1 5777   1.175   3.162   7.101
  373MPD2    C2 5778   1.129   3.221   7.213
  373MPD2    C3 5779   1.168   3.182   7.344
  373MPD2    C4 5780   1.265   3.085   7.355
  373MPD2    C5 5781   1.312   3.028   7.241
  373MPD2     H 5782   1.058   3.302   7.203
  373MPD2    H1 5783   1.308   3.052   7.449
  373MPD2    H2 5784   1.297   3.014   7.025
  373MPD2    H3 5785   1.377   2.942   7.253
  373MPD2     N 5786   1.095   3.236   7.454
  373MPD2    H5 5787   1.027   3.310   7.439
  373MPD2    N1 5788   1.131   3.188   6.975
  373MPD2    H7 5789   1.185   3.151   6.897
  374MPD2     C 5790   2.678   3.393   7.363
  374MPD2    C1 5791   2.654   3.500   7.279
  374MPD2    C2 5792   2.525   3.535   7.253
  374MPD2    C3 5793   2.413   3.471   7.312
  374MPD2    C4 5794   2.442   3.359   7.389
  374MPD2    C5 5795   2.569   3.318   7.409
  374MPD2     H 5796   2.508   3.624   7.193
  374MPD2    H1 5797   2.358   3.304   7.429
  374MPD2    H2 5798   2.780   3.365   7.385
  374MPD2    H3 5799   2.591   3.235   7.475
  374MPD2     N 5800   2.277   3.521   7.307
  374MPD2    H5 5801   2.201   3.478   7.359
  374MPD2    N1 5802   2.754   3.577   7.212
  374MPD2    H7 5803   2.724   3.656   7.157
  375MPD2     C 5804   2.062   0.628  11.198
  375MPD2    C1 5805   2.011   0.749  11.241
  375MPD2    C2 5806   1.877   0.766  11.252
  375MPD2    C3 5807   1.785   0.670  11.213
  375MPD2    C4 5808   1.837   0.551  11.158
  375MPD2    C5 5809   1.969   0.533  11.157
  375MPD2     H 5810   1.837   0.853  11.302
  375MPD2    H1 5811   1.772   0.472  11.124
  375MPD2    H2 5812   2.170   0.616  11.191
  375MPD2    H3 5813   2.006   0.442  11.110
  375MPD2     N 5814   1.650   0.679  11.211
  375MPD2    H5 5815   1.601   0.594  11.186
  375MPD2    N1 5816   2.103   0.854  11.264
  375MPD2    H7 5817   2.199   0.828  11.243
  376MPD2     C 5818   1.043   0.470  10.827
  376MPD2    C1 5819   1.157   0.512  10.889
  376MPD2    C2 5820   1.163   0.641  10.936
  376MPD2    C3 5821   1.051   0.724  10.935
  376MPD2    C4 5822   0.933   0.681  10.871
  376MPD2    C5 5823   0.938   0.552  10.818
  376MPD2     H 5824   1.259   0.680  10.968
  376MPD2    H1 5825   0.846   0.741  10.847
  376MPD2    H2 5826   1.039   0.370  10.784
  376MPD2    H3 5827   0.852   0.521  10.761
  376MPD2     N 5828   1.051   0.854  10.982
  376MPD2    H5 5829   0.983   0.917  10.941
  376MPD2    N1 5830   1.269   0.429  10.914
  376MPD2    H7 5831   1.339   0.461  10.980
  377MPD2     C 5832   1.124   0.003  11.449
  377MPD2    C1 5833   1.073   0.072  11.341
  377MPD2    C2 5834   1.118   0.198  11.310
  377MPD2    C3 5835   1.210   0.266  11.395
  377MPD2    C4 5836   1.274   0.192  11.499
  377MPD2    C5 5837   1.221   0.064  11.524
  377MPD2     H 5838   1.064   0.242  11.227
  377MPD2    H1 5839   1.352   0.235  11.561
  377MPD2    H2 5840   1.090   4.692  11.472
  377MPD2    H3 5841   1.257   4.789  11.604
  377MPD2     N 5842   1.251   0.401  11.374
  377MPD2    H5 5843   1.331   0.433  11.428
  377MPD2    N1 5844   0.992   0.008  11.251
  377MPD2    H7 5845   0.981   0.060  11.164
  378MPD2     C 5846   1.940   1.055  13.254
  378MPD2    C1 5847   1.837   0.971  13.221
  378MPD2    C2 5848   1.775   0.899  13.319
  378MPD2    C3 5849   1.798   0.933  13.454
  378MPD2    C4 5850   1.911   1.002  13.485
  378MPD2    C5 5851   1.983   1.054  13.384
  378MPD2     H 5852   1.700   0.825  13.295
  378MPD2    H1 5853   1.940   1.022  13.587
  378MPD2    H2 5854   2.010   1.095  13.182
  378MPD2    H3 5855   2.070   1.114  13.409
  378MPD2     N 5856   1.747   0.859  13.567
  378MPD2    H5 5857   1.801   0.871  13.652
  378MPD2    N1 5858   1.804   0.974  13.082
  378MPD2    H7 5859   1.845   1.049  13.027
  379MPD2     C 5860   1.049   1.287  13.242
  379MPD2    C1 5861   1.185   1.253  13.273
  379MPD2    C2 5862   1.287   1.339  13.226
  379MPD2    C3 5863   1.248   1.464  13.175
  379MPD2    C4 5864   1.113   1.489  13.138
  379MPD2    C5 5865   1.020   1.401  13.172
  379MPD2     H 5866   1.392   1.330  13.249
  379MPD2    H1 5867   1.080   1.575  13.081
  379MPD2    H2 5868   0.963   1.228  13.271
  379MPD2    H3 5869   0.918   1.416  13.137
  379MPD2     N 5870   1.354   1.544  13.135
  379MPD2    H5 5871   1.444   1.510  13.167
  379MPD2    N1 5872   1.218   1.137  13.351
  379MPD2    H7 5873   1.145   1.070  13.371
  380MPD2     C 5874   1.010   0.440  13.450
  380MPD2    C1 5875   1.007   0.577  13.472
  380MPD2    C2 5876   0.910   0.629  13.551
  380MPD2    C3 5877   0.821   0.550  13.615
  380MPD2    C4 5878   0.834   0.413  13.598
  380MPD2    C5 5879   0.915   0.364  13.502
  380MPD2     H 5880   0.906   0.737  13.563
  380MPD2    H1 5881   0.776   0.336  13.647
  380MPD2    H2 5882   1.079   0.389  13.385
  380MPD2    H3 5883   0.907   0.258  13.479
  380MPD2     N 5884   0.750   0.626  13.716
  380MPD2    H5 5885   0.769   0.726  13.722
  380MPD2    N1 5886   1.113   0.667  13.436
  380MPD2    H7 5887   1.093   0.765  13.455
  381MPD2     C 5888   4.301   2.796  13.762
  381MPD2    C1 5889   4.380   2.704  13.834
  381MPD2    C2 5890   4.506   2.745  13.868
  381MPD2    C3 5891   4.557   2.876  13.843
  381MPD2    C4 5892   4.480   2.958  13.766
  381MPD2    C5 5893   4.352   2.920  13.723
  381MPD2     H 5894   4.568   2.678  13.927
  381MPD2    H1 5895   4.526   3.047  13.726
  381MPD2    H2 5896   4.200   2.777  13.727
  381MPD2    H3 5897   4.282   2.985  13.673
  381MPD2     N 5898   4.683   2.906  13.889
  381MPD2    H5 5899   4.737   2.831  13.931
  381MPD2    N1 5900   4.333   2.576  13.870
  381MPD2    H7 5901   4.402   2.519  13.919
  382MPD2     C 5902   3.376   2.286  13.998
  382MPD2    C1 5903   3.449   2.171  14.000
  382MPD2    C2 5904   3.585   2.181  13.973
  382MPD2    C3 5905   3.633   2.296  13.921
  382MPD2    C4 5906   3.559   2.410  13.912
  382MPD2    C5 5907   3.431   2.401  13.954
  382MPD2     H 5908   3.643   2.090  13.984
  382MPD2    H1 5909   3.610   2.501  13.883
  382MPD2    H2 5910   3.270   2.295  14.017
  382MPD2    H3 5911   3.370   2.490  13.961
  382MPD2     N 5912   3.762   2.304  13.883
  382MPD2    H5 5913   3.786   2.382  13.823
  382MPD2    N1 5914   3.389   2.052  14.056
  382MPD2    H7 5915   3.290   2.058  14.077
  383MPD2     C 5916   3.042   1.004  12.574
  383MPD2    C1 5917   2.985   1.129  12.550
  383MPD2    C2 5918   3.012   1.239  12.637
  383MPD2    C3 5919   3.093   1.212  12.749
  383MPD2    C4 5920   3.140   1.083  12.771
  383MPD2    C5 5921   3.119   0.980  12.685
  383MPD2     H 5922   2.964   1.333  12.613
  383MPD2    H1 5923   3.195   1.052  12.859
  383MPD2    H2 5924   3.023   0.920  12.509
  383MPD2    H3 5925   3.169   0.885  12.700
  383MPD2     N 5926   3.122   1.323  12.839
  383MPD2    H5 5927   3.080   1.413  12.817
  383MPD2    N1 5928   2.885   1.140  12.448
  383MPD2    H7 5929   2.842   1.232  12.439
  384MPD2     C 5930   2.636   1.883  13.393
  384MPD2    C1 5931   2.639   1.745  13.401
  384MPD2    C2 5932   2.729   1.672  13.323
  384MPD2    C3 5933   2.828   1.737  13.253
  384MPD2    C4 5934   2.820   1.870  13.237
  384MPD2    C5 5935   2.723   1.943  13.305
  384MPD2     H 5936   2.736   1.565  13.340
  384MPD2    H1 5937   2.875   1.926  13.162
  384MPD2    H2 5938   2.554   1.932  13.443
  384MPD2    H3 5939   2.707   2.049  13.287
  384MPD2     N 5940   2.933   1.655  13.209
  384MPD2    H5 5941   2.935   1.554  13.220
  384MPD2    N1 5942   2.537   1.693  13.490
  384MPD2    H7 5943   2.465   1.756  13.524
  385MPD2     C 5944   0.877   4.125  14.449
  385MPD2    C1 5945   0.972   4.029  14.475
  385MPD2    C2 5946   1.006   3.933  14.383
  385MPD2    C3 5947   0.941   3.934  14.259
  385MPD2    C4 5948   0.838   4.030  14.243
  385MPD2    C5 5949   0.805   4.125  14.335
  385MPD2     H 5950   1.097   3.878  14.405
  385MPD2    H1 5951   0.789   4.026  14.147
  385MPD2    H2 5952   0.850   4.199  14.523
  385MPD2    H3 5953   0.722   4.192  14.317
  385MPD2     N 5954   0.997   3.878  14.151
  385MPD2    H5 5955   0.982   3.929  14.065
  385MPD2    N1 5956   1.043   4.024  14.594
  385MPD2    H7 5957   1.103   3.944  14.613
  386MPD2     C 5958   1.418   4.407  13.698
  386MPD2    C1 5959   1.328   4.398  13.803
  386MPD2    C2 5960   1.308   4.271  13.864
  386MPD2    C3 5961   1.363   4.159  13.806
  386MPD2    C4 5962   1.454   4.168  13.707
  386MPD2    C5 5963   1.480   4.292  13.652
  386MPD2     H 5964   1.251   4.267  13.956
  386MPD2    H1 5965   1.497   4.077  13.666
  386MPD2    H2 5966   1.436   4.507  13.660
  386MPD2    H3 5967   1.544   4.300  13.565
  386MPD2     N 5968   1.326   4.031  13.862
  386MPD2    H5 5969   1.253   4.031  13.932
  386MPD2    N1 5970   1.251   4.505  13.855
  386MPD2    H7 5971   1.180   4.477  13.921
  387MPD2     C 5972   1.888   3.474  14.398
  387MPD2    C1 5973   1.900   3.431  14.273
  387MPD2    C2 5974   1.791   3.444  14.184
  387MPD2    C3 5975   1.673   3.500  14.225
  387MPD2    C4 5976   1.669   3.550  14.355
  387MPD2    C5 5977   1.767   3.523  14.441
  387MPD2     H 5978   1.791   3.404  14.083
  387MPD2    H1 5979   1.583   3.595  14.403
  387MPD2    H2 5980   1.971   3.466  14.467
  387MPD2    H3 5981   1.752   3.561  14.541
  387MPD2     N 5982   1.570   3.528  14.128
  387MPD2    H5 5983   1.595   3.516  14.030
  387MPD2    N1 5984   2.017   3.366  14.239
  387MPD2    H7 5985   2.085   3.341  14.310
  388MPD2     C 5986   4.459   2.120  10.513
  388MPD2    C1 5987   4.409   2.237  10.463
  388MPD2    C2 5988   4.317   2.313  10.534
  388MPD2    C3 5989   4.293   2.280  10.666
  388MPD2    C4 5990   4.350   2.171  10.723
  388MPD2    C5 5991   4.431   2.092  10.646
  388MPD2     H 5992   4.263   2.393  10.485
  388MPD2    H1 5993   4.329   2.141  10.825
  388MPD2    H2 5994   4.527   2.058  10.456
  388MPD2    H3 5995   4.482   2.013  10.700
  388MPD2     N 5996   4.203   2.357  10.739
  388MPD2    H5 5997   4.135   2.414  10.690
  388MPD2    N1 5998   4.437   2.272  10.332
  388MPD2    H7 5999   4.419   2.369  10.308
  389MPD2     C 6000   0.135   2.783   9.845
  389MPD2    C1 6001   0.069   2.725   9.950
  389MPD2    C2 6002   0.121   2.736  10.077
  389MPD2    C3 6003   0.222   2.830  10.099
  389MPD2    C4 6004   0.284   2.899   9.998
  389MPD2    C5 6005   0.240   2.873   9.869
  389MPD2     H 6006   0.086   2.670  10.156
  389MPD2    H1 6007   0.365   2.970  10.009
  389MPD2    H2 6008   0.100   2.754   9.746
  389MPD2    H3 6009   0.298   2.906   9.784
  389MPD2     N 6010   0.265   2.836  10.235
  389MPD2    H5 6011   0.222   2.773  10.303
  389MPD2    N1 6012   4.747   2.642   9.925
  389MPD2    H7 6013   4.728   2.612   9.830
  390MPD2     C 6014   3.860   3.858  10.788
  390MPD2    C1 6015   3.938   3.747  10.777
  390MPD2    C2 6016   3.895   3.644  10.695
  390MPD2    C3 6017   3.771   3.644  10.642
  390MPD2    C4 6018   3.698   3.759  10.658
  390MPD2    C5 6019   3.742   3.860  10.727
  390MPD2     H 6020   3.962   3.560  10.681
  390MPD2    H1 6021   3.597   3.768  10.621
  390MPD2    H2 6022   3.877   3.945  10.851
  390MPD2    H3 6023   3.673   3.939  10.753
  390MPD2     N 6024   3.723   3.545  10.560
  390MPD2    H5 6025   3.647   3.565  10.496
  390MPD2    N1 6026   4.055   3.727  10.849
  390MPD2    H7 6027   4.100   3.637  10.835
  391MPD2     C 6028   4.689   3.401  11.602
  391MPD2    C1 6029   4.629   3.301  11.528
  391MPD2    C2 6030   4.518   3.329  11.452
  391MPD2    C3 6031   4.471   3.459  11.455
  391MPD2    C4 6032   4.532   3.564  11.532
  391MPD2    C5 6033   4.638   3.530  11.610
  391MPD2     H 6034   4.476   3.264  11.376
  391MPD2    H1 6035   4.496   3.666  11.531
  391MPD2    H2 6036   4.780   3.375  11.655
  391MPD2    H3 6037   4.698   3.605  11.660
  391MPD2     N 6038   4.357   3.481  11.379
  391MPD2    H5 6039   4.331   3.406  11.316
  391MPD2    N1 6040   4.694   3.173  11.530
  391MPD2    H7 6041   4.778   3.170  11.587
  392MPD2     C 6042   4.610   3.243  10.863
  392MPD2    C1 6043   4.504   3.225  10.948
  392MPD2    C2 6044   4.480   3.109  11.014
  392MPD2    C3 6045   4.551   2.994  10.987
  392MPD2    C4 6046   4.657   3.007  10.901
  392MPD2    C5 6047   4.681   3.127  10.842
  392MPD2     H 6048   4.390   3.093  11.073
  392MPD2    H1 6049   4.724   2.925  10.880
  392MPD2    H2 6050   4.646   3.329  10.808
  392MPD2    H3 6051   4.765   3.135  10.774
  392MPD2     N 6052   4.535   2.865  11.042
  392MPD2    H5 6053   4.594   2.789  11.010
  392MPD2    N1 6054   4.419   3.333  10.984
  392MPD2    H7 6055   4.353   3.329  11.061
  393MPD2     C 6056   3.460   0.215   6.358
  393MPD2    C1 6057   3.492   0.305   6.455
  393MPD2    C2 6058   3.386   0.377   6.509
  393MPD2    C3 6059   3.256   0.375   6.458
  393MPD2    C4 6060   3.222   0.286   6.353
  393MPD2    C5 6061   3.327   0.202   6.312
  393MPD2     H 6062   3.412   0.443   6.591
  393MPD2    H1 6063   3.126   0.272   6.305
  393MPD2    H2 6064   3.535   0.150   6.314
  393MPD2    H3 6065   3.303   0.138   6.228
  393MPD2     N 6066   3.161   0.481   6.493
  393MPD2    H5 6067   3.187   0.540   6.572
  393MPD2    N1 6068   3.620   0.315   6.519
  393MPD2    H7 6069   3.616   0.383   6.594
  394MPD2     C 6070   2.318   0.543   6.614
  394MPD2    C1 6071   2.420   0.508   6.705
  394MPD2    C2 6072   2.399   0.417   6.808
  394MPD2    C3 6073   2.275   0.361   6.822
  394MPD2    C4 6074   2.169   0.391   6.738
  394MPD2    C5 6075   2.198   0.481   6.635
  394MPD2     H 6076   2.479   0.384   6.873
  394MPD2    H1 6077   2.071   0.345   6.745
  394MPD2    H2 6078   2.340   0.605   6.527
  394MPD2    H3 6079   2.123   0.504   6.560
  394MPD2     N 6080   2.235   0.266   6.920
  394MPD2    H5 6081   2.157   0.206   6.897
  394MPD2    N1 6082   2.552   0.560   6.695
  394MPD2    H7 6083   2.622   0.535   6.764
  395MPD2     C 6084   3.063   1.097   7.226
  395MPD2    C1 6085   3.121   0.978   7.189
  395MPD2    C2 6086   3.078   0.913   7.074
  395MPD2    C3 6087   2.966   0.956   7.001
  395MPD2    C4 6088   2.904   1.069   7.046
  395MPD2    C5 6089   2.958   1.139   7.156
  395MPD2     H 6090   3.140   0.839   7.026
  395MPD2    H1 6091   2.817   1.112   6.997
  395MPD2    H2 6092   3.101   1.155   7.309
  395MPD2    H3 6093   2.903   1.227   7.187
  395MPD2     N 6094   2.913   0.882   6.888
  395MPD2    H5 6095   2.835   0.928   6.842
  395MPD2    N1 6096   3.229   0.932   7.268
  395MPD2    H7 6097   3.268   0.993   7.339
  396MPD2     C 6098   2.487   1.585  12.272
  396MPD2    C1 6099   2.499   1.600  12.410
  396MPD2    C2 6100   2.502   1.725  12.461
  396MPD2    C3 6101   2.471   1.840  12.386
  396MPD2    C4 6102   2.459   1.821  12.245
  396MPD2    C5 6103   2.476   1.699  12.192
  396MPD2     H 6104   2.520   1.727  12.568
  396MPD2    H1 6105   2.455   1.911  12.185
  396MPD2    H2 6106   2.510   1.495  12.216
  396MPD2    H3 6107   2.478   1.700  12.084
  396MPD2     N 6108   2.456   1.970  12.441
  396MPD2    H5 6109   2.484   2.054  12.391
  396MPD2    N1 6110   2.514   1.488  12.501
  396MPD2    H7 6111   2.529   1.491  12.601
  397MPD2     C 6112   1.918   0.716  12.675
  397MPD2    C1 6113   2.038   0.662  12.722
  397MPD2    C2 6114   2.152   0.744  12.708
  397MPD2    C3 6115   2.145   0.873  12.658
  397MPD2    C4 6116   2.025   0.923  12.621
  397MPD2    C5 6117   1.917   0.844  12.634
  397MPD2     H 6118   2.247   0.718  12.753
  397MPD2    H1 6119   2.016   1.030  12.608
  397MPD2    H2 6120   1.826   0.662  12.694
  397MPD2    H3 6121   1.815   0.878  12.619
  397MPD2     N 6122   2.247   0.969  12.650
  397MPD2    H5 6123   2.224   1.067  12.634
  397MPD2    N1 6124   2.042   0.532  12.782
  397MPD2    H7 6125   2.129   0.515  12.832
  398MPD2     C 6126   2.223   1.330  10.854
  398MPD2    C1 6127   2.101   1.288  10.801
  398MPD2    C2 6128   2.048   1.164  10.824
  398MPD2    C3 6129   2.113   1.077  10.905
  398MPD2    C4 6130   2.233   1.117  10.964
  398MPD2    C5 6131   2.284   1.238  10.932
  398MPD2     H 6132   1.959   1.134  10.770
  398MPD2    H1 6133   2.286   1.046  11.026
  398MPD2    H2 6134   2.256   1.433  10.842
  398MPD2    H3 6135   2.377   1.263  10.983
  398MPD2     N 6136   2.059   0.946  10.938
  398MPD2    H5 6137   2.093   0.897  11.020
  398MPD2    N1 6138   2.026   1.385  10.731
  398MPD2    H7 6139   1.928   1.361  10.741
  399MPD2     C 6140   1.887   1.589  11.409
  399MPD2    C1 6141   1.830   1.595  11.284
  399MPD2    C2 6142   1.804   1.474  11.216
  399MPD2    C3 6143   1.834   1.354  11.271
  399MPD2    C4 6144   1.894   1.350  11.394
  399MPD2    C5 6145   1.918   1.467  11.466
  399MPD2     H 6146   1.766   1.489  11.115
  399MPD2    H1 6147   1.916   1.259  11.448
  399MPD2    H2 6148   1.920   1.673  11.469
  399MPD2    H3 6149   1.956   1.457  11.567
  399MPD2     N 6150   1.802   1.231  11.204
  399MPD2    H5 6151   1.849   1.148  11.238
  399MPD2    N1 6152   1.791   1.726  11.239
  399MPD2    H7 6153   1.797   1.802  11.306
  400MPD2     C 6154   1.282   1.327  10.677
  400MPD2    C1 6155   1.419   1.297  10.689
  400MPD2    C2 6156   1.453   1.175  10.750
  400MPD2    C3 6157   1.353   1.079  10.775
  400MPD2    C4 6158   1.217   1.108  10.755
  400MPD2    C5 6159   1.184   1.235  10.718
  400MPD2     H 6160   1.557   1.150  10.735
  400MPD2    H1 6161   1.143   1.031  10.774
  400MPD2    H2 6162   1.252   1.426  10.643
  400MPD2    H3 6163   1.079   1.254  10.700
  400MPD2     N 6164   1.372   0.943  10.824
  400MPD2    H5 6165   1.285   0.897  10.849
  400MPD2    N1 6166   1.511   1.392  10.636
  400MPD2    H7 6167   1.471   1.474  10.591
  401MPD2     C 6168   4.427   3.923  10.780
  401MPD2    C1 6169   4.413   4.044  10.840
  401MPD2    C2 6170   4.510   4.082  10.931
  401MPD2    C3 6171   4.625   3.997  10.953
  401MPD2    C4 6172   4.644   3.879  10.885
  401MPD2    C5 6173   4.537   3.850  10.799
  401MPD2     H 6174   4.498   4.185  10.963
  401MPD2    H1 6175   4.726   3.809  10.899
  401MPD2    H2 6176   4.346   3.883  10.720
  401MPD2    H3 6177   4.549   3.756  10.746
  401MPD2     N 6178   4.716   4.036  11.053
  401MPD2    H5 6179   0.012   3.983  11.064
  401MPD2    N1 6180   4.279   4.093  10.832
  401MPD2    H7 6181   4.238   4.051  10.750
  402MPD2     C 6182   3.859   0.068  11.304
  402MPD2    C1 6183   3.846   4.736  11.365
  402MPD2    C2 6184   3.948   4.645  11.351
  402MPD2    C3 6185   4.067   4.672  11.280
  402MPD2    C4 6186   4.076   0.005  11.210
  402MPD2    C5 6187   3.977   0.100  11.232
  402MPD2     H 6188   3.939   4.550  11.403
  402MPD2    H1 6189   4.158   0.038  11.147
  402MPD2    H2 6190   3.784   0.146  11.313
  402MPD2    H3 6191   3.996   0.194  11.181
  402MPD2     N 6192   4.149   4.563  11.257
  402MPD2    H5 6193   4.128   4.477  11.307
  402MPD2    N1 6194   3.729   4.710  11.422
  402MPD2    H7 6195   3.663   4.784  11.398
  403MPD2     C 6196   4.595   4.164  11.631
  403MPD2    C1 6197   4.501   4.094  11.560
  403MPD2    C2 6198   4.467   3.965  11.600
  403MPD2    C3 6199   4.522   3.916  11.722
  403MPD2    C4 6200   4.634   3.977  11.775
  403MPD2    C5 6201   4.672   4.094  11.721
  403MPD2     H 6202   4.382   3.912  11.557
  403MPD2    H1 6203   4.707   3.927  11.838
  403MPD2    H2 6204   4.618   4.263  11.594
  403MPD2    H3 6205   4.752   4.152  11.767
  403MPD2     N 6206   4.463   3.803  11.781
  403MPD2    H5 6207   4.383   3.772  11.727
  403MPD2    N1 6208   4.434   4.171  11.457
  403MPD2    H7 6209   4.459   4.269  11.449
  404MPD2     C 6210   0.698   2.419   6.424
  404MPD2    C1 6211   0.672   2.478   6.545
  404MPD2    C2 6212   0.556   2.445   6.611
  404MPD2    C3 6213   0.455   2.375   6.552
  404MPD2    C4 6214   0.485   2.310   6.433
  404MPD2    C5 6215   0.604   2.338   6.371
  404MPD2     H 6216   0.544   2.477   6.714
  404MPD2    H1 6217   0.414   2.253   6.374
  404MPD2    H2 6218   0.788   2.436   6.365
  404MPD2    H3 6219   0.614   2.281   6.279
  404MPD2     N 6220   0.336   2.347   6.625
  404MPD2    H5 6221   0.334   2.380   6.721
  404MPD2    N1 6222   0.759   2.564   6.618
  404MPD2    H7 6223   0.728   2.601   6.707
  405MPD2     C 6224   4.456   1.813   7.217
  405MPD2    C1 6225   4.474   1.944   7.260
  405MPD2    C2 6226   4.516   2.035   7.164
  405MPD2    C3 6227   4.552   2.002   7.037
  405MPD2    C4 6228   4.514   1.877   6.989
  405MPD2    C5 6229   4.471   1.783   7.083
  405MPD2     H 6230   4.531   2.134   7.207
  405MPD2    H1 6231   4.523   1.838   6.888
  405MPD2    H2 6232   4.404   1.738   7.275
  405MPD2    H3 6233   4.437   1.682   7.062
  405MPD2     N 6234   4.605   2.109   6.960
  405MPD2    H5 6235   4.640   2.185   7.017
  405MPD2    N1 6236   4.441   1.991   7.391
  405MPD2    H7 6237   4.433   2.092   7.402
  406MPD2     C 6238   0.995   1.589   9.343
  406MPD2    C1 6239   0.956   1.714   9.306
  406MPD2    C2 6240   0.889   1.735   9.184
  406MPD2    C3 6241   0.851   1.626   9.098
  406MPD2    C4 6242   0.874   1.504   9.142
  406MPD2    C5 6243   0.946   1.492   9.257
  406MPD2     H 6244   0.875   1.836   9.146
  406MPD2    H1 6245   0.849   1.407   9.100
  406MPD2    H2 6246   1.047   1.562   9.434
  406MPD2    H3 6247   0.964   1.395   9.301
  406MPD2     N 6248   0.807   1.641   8.965
  406MPD2    H5 6249   0.778   1.557   8.916
  406MPD2    N1 6250   0.977   1.822   9.389
  406MPD2    H7 6251   0.980   1.803   9.489
  407MPD2     C 6252   0.812   2.612  14.042
  407MPD2    C1 6253   0.824   2.720  13.952
  407MPD2    C2 6254   0.713   2.801  13.932
  407MPD2    C3 6255   0.595   2.781  13.995
  407MPD2    C4 6256   0.583   2.674  14.075
  407MPD2    C5 6257   0.693   2.607  14.112
  407MPD2     H 6258   0.726   2.889  13.871
  407MPD2    H1 6259   0.489   2.653  14.126
  407MPD2    H2 6260   0.883   2.532  14.059
  407MPD2    H3 6261   0.678   2.535  14.191
  407MPD2     N 6262   0.494   2.866  13.961
  407MPD2    H5 6263   0.515   2.935  13.889
  407MPD2    N1 6264   0.941   2.736  13.872
  407MPD2    H7 6265   1.024   2.693  13.911
  408MPD2     C 6266   3.032   2.490   9.815
  408MPD2    C1 6267   3.164   2.490   9.767
  408MPD2    C2 6268   3.236   2.377   9.794
  408MPD2    C3 6269   3.190   2.261   9.861
  408MPD2    C4 6270   3.058   2.268   9.900
  408MPD2    C5 6271   2.980   2.379   9.866
  408MPD2     H 6272   3.343   2.379   9.775
  408MPD2    H1 6273   3.017   2.181   9.950
  408MPD2    H2 6274   2.972   2.581   9.815
  408MPD2    H3 6275   2.876   2.373   9.896
  408MPD2     N 6276   3.272   2.147   9.904
  408MPD2    H5 6277   3.229   2.075   9.961
  408MPD2    N1 6278   3.228   2.613   9.717
  408MPD2    H7 6279   3.181   2.702   9.727
  409MPD2     C 6280   3.477   1.438   9.359
  409MPD2    C1 6281   3.573   1.529   9.342
  409MPD2    C2 6282   3.596   1.620   9.447
  409MPD2    C3 6283   3.532   1.622   9.574
  409MPD2    C4 6284   3.445   1.517   9.591
  409MPD2    C5 6285   3.415   1.435   9.481
  409MPD2     H 6286   3.663   1.701   9.418
  409MPD2    H1 6287   3.401   1.489   9.686
  409MPD2    H2 6288   3.439   1.378   9.277
  409MPD2    H3 6289   3.340   1.361   9.507
  409MPD2     N 6290   3.571   1.716   9.676
  409MPD2    H5 6291   3.641   1.788   9.661
  409MPD2    N1 6292   3.652   1.534   9.218
  409MPD2    H7 6293   3.718   1.611   9.213
  410MPD2     C 6294   3.050   1.394  10.211
  410MPD2    C1 6295   3.121   1.386  10.087
  410MPD2    C2 6296   3.219   1.478  10.059
  410MPD2    C3 6297   3.248   1.581  10.147
  410MPD2    C4 6298   3.168   1.598  10.259
  410MPD2    C5 6299   3.069   1.507  10.291
  410MPD2     H 6300   3.284   1.475   9.972
  410MPD2    H1 6301   3.175   1.681  10.329
  410MPD2    H2 6302   2.984   1.310  10.232
  410MPD2    H3 6303   3.004   1.522  10.377
  410MPD2     N 6304   3.343   1.674  10.109
  410MPD2    H5 6305   3.401   1.640  10.033
  410MPD2    N1 6306   3.092   1.279   9.993
  410MPD2    H7 6307   3.058   1.189  10.025
  411MPD2     C 6308   0.384   3.515  10.902
  411MPD2    C1 6309   0.501   3.437  10.885
  411MPD2    C2 6310   0.485   3.310  10.836
  411MPD2    C3 6311   0.360   3.261  10.806
  411MPD2    C4 6312   0.247   3.334  10.841
  411MPD2    C5 6313   0.262   3.462  10.885
  411MPD2     H 6314   0.570   3.243  10.825
  411MPD2    H1 6315   0.145   3.303  10.823
  411MPD2    H2 6316   0.382   3.621  10.925
  411MPD2    H3 6317   0.177   3.527  10.901
  411MPD2     N 6318   0.332   3.133  10.752
  411MPD2    H5 6319   0.237   3.111  10.724
  411MPD2    N1 6320   0.628   3.486  10.900
  411MPD2    H7 6321   0.703   3.419  10.887
  412MPD2     C 6322   0.719   2.320  10.966
  412MPD2    C1 6323   0.774   2.405  10.870
  412MPD2    C2 6324   0.700   2.484  10.785
  412MPD2    C3 6325   0.561   2.471  10.793
  412MPD2    C4 6326   0.504   2.375  10.873
  412MPD2    C5 6327   0.581   2.299  10.958
  412MPD2     H 6328   0.751   2.550  10.716
  412MPD2    H1 6329   0.397   2.357  10.870
  412MPD2    H2 6330   0.775   2.265  11.041
  412MPD2    H3 6331   0.541   2.226  11.027
  412MPD2     N 6332   0.477   2.535  10.709
  412MPD2    H5 6333   0.381   2.548  10.740
  412MPD2    N1 6334   0.908   2.432  10.876
  412MPD2    H7 6335   0.935   2.508  10.814
  413MPD2     C 6336   2.292   4.759   9.605
  413MPD2    C1 6337   2.250   4.773   9.475
  413MPD2    C2 6338   2.338   4.788   9.373
  413MPD2    C3 6339   2.468   4.777   9.392
  413MPD2    C4 6340   2.518   4.756   9.520
  413MPD2    C5 6341   2.431   4.742   9.627
  413MPD2     H 6342   2.294   0.021   9.277
  413MPD2    H1 6343   2.624   4.752   9.543
  413MPD2    H2 6344   2.228   4.755   9.692
  413MPD2    H3 6345   2.474   4.730   9.726
  413MPD2     N 6346   2.564   0.007   9.295
  413MPD2    H5 6347   2.662   0.006   9.320
  413MPD2    N1 6348   2.113   0.002   9.456
  413MPD2    H7 6349   2.059   0.006   9.542
  414MPD2     C 6350   2.156   0.758   9.531
  414MPD2    C1 6351   2.059   0.756   9.433
  414MPD2    C2 6352   1.987   0.637   9.419
  414MPD2    C3 6353   2.007   0.532   9.504
  414MPD2    C4 6354   2.106   0.536   9.600
  414MPD2    C5 6355   2.176   0.652   9.619
  414MPD2     H 6356   1.902   0.645   9.352
  414MPD2    H1 6357   2.130   0.444   9.651
  414MPD2    H2 6358   2.215   0.848   9.544
  414MPD2    H3 6359   2.259   0.655   9.689
  414MPD2     N 6360   1.931   0.416   9.506
  414MPD2    H5 6361   1.961   0.334   9.558
  414MPD2    N1 6362   2.041   0.864   9.345
  414MPD2    H7 6363   1.986   0.851   9.260
  415MPD2     C 6364   2.461   0.307  15.145
  415MPD2    C1 6365   2.465   0.409  15.051
  415MPD2    C2 6366   2.586   0.471  15.017
  415MPD2    C3 6367   2.707   0.417  15.068
  415MPD2    C4 6368   2.692   0.319  15.165
  415MPD2    C5 6369   2.577   0.262  15.195
  415MPD2     H 6370   2.608   0.557  14.954
  415MPD2    H1 6371   2.776   0.257  15.193
  415MPD2    H2 6372   2.364   0.268  15.175
  415MPD2    H3 6373   2.585   0.172  15.255
  415MPD2     N 6374   2.836   0.450  15.006
  415MPD2    H5 6375   2.830   0.519  14.932
  415MPD2    N1 6376   2.355   0.451  14.977
  415MPD2    H7 6377   2.372   0.521  14.906
  416MPD2     C 6378   3.166   0.532  14.377
  416MPD2    C1 6379   3.254   0.438  14.428
  416MPD2    C2 6380   3.348   0.379  14.350
  416MPD2    C3 6381   3.356   0.412  14.213
  416MPD2    C4 6382   3.262   0.497  14.163
  416MPD2    C5 6383   3.175   0.557  14.242
  416MPD2     H 6384   3.417   0.306  14.390
  416MPD2    H1 6385   3.260   0.518  14.057
  416MPD2    H2 6386   3.098   0.590  14.439
  416MPD2    H3 6387   3.110   0.628  14.192
  416MPD2     N 6388   3.455   0.354  14.126
  416MPD2    H5 6389   3.425   0.359  14.029
  416MPD2    N1 6390   3.253   0.404  14.567
  416MPD2    H7 6391   3.334   0.356  14.605
  417MPD2     C 6392   2.982   3.992  12.406
  417MPD2    C1 6393   3.058   3.916  12.497
  417MPD2    C2 6394   3.025   3.933  12.631
  417MPD2    C3 6395   2.920   4.022  12.667
  417MPD2    C4 6396   2.841   4.090  12.575
  417MPD2    C5 6397   2.884   4.077  12.445
  417MPD2     H 6398   3.080   3.878  12.707
  417MPD2    H1 6399   2.752   4.145  12.605
  417MPD2    H2 6400   2.994   3.969  12.301
  417MPD2    H3 6401   2.818   4.110  12.365
  417MPD2     N 6402   2.865   4.030  12.798
  417MPD2    H5 6403   2.780   4.081  12.819
  417MPD2    N1 6404   3.159   3.830  12.445
  417MPD2    H7 6405   3.132   3.798  12.352
  418MPD2     C 6406   2.420   4.665  13.139
  418MPD2    C1 6407   2.364   4.547  13.188
  418MPD2    C2 6408   2.449   4.433  13.187
  418MPD2    C3 6409   2.579   4.440  13.152
  418MPD2    C4 6410   2.623   4.547  13.083
  418MPD2    C5 6411   2.544   4.661  13.082
  418MPD2     H 6412   2.406   4.335  13.206
  418MPD2    H1 6413   2.726   4.557  13.051
  418MPD2    H2 6414   2.371   4.762  13.133
  418MPD2    H3 6415   2.579   4.755  13.041
  418MPD2     N 6416   2.663   4.332  13.157
  418MPD2    H5 6417   2.756   4.336  13.117
  418MPD2    N1 6418   2.228   4.532  13.237
  418MPD2    H7 6419   2.204   4.446  13.285
  419MPD2     C 6420   2.827   3.654  13.609
  419MPD2    C1 6421   2.712   3.699  13.548
  419MPD2    C2 6422   2.598   3.701  13.625
  419MPD2    C3 6423   2.594   3.664  13.755
  419MPD2    C4 6424   2.708   3.615  13.812
  419MPD2    C5 6425   2.823   3.610  13.739
  419MPD2     H 6426   2.511   3.749  13.583
  419MPD2    H1 6427   2.722   3.594  13.917
  419MPD2    H2 6428   2.922   3.656  13.558
  419MPD2    H3 6429   2.919   3.581  13.780
  419MPD2     N 6430   2.473   3.671  13.828
  419MPD2    H5 6431   2.394   3.706  13.776
  419MPD2    N1 6432   2.706   3.765  13.428
  419MPD2    H7 6433   2.614   3.793  13.395
  420MPD2     C 6434   1.856   0.521  11.557
  420MPD2    C1 6435   1.716   0.516  11.528
  420MPD2    C2 6436   1.672   0.417  11.440
  420MPD2    C3 6437   1.755   0.331  11.363
  420MPD2    C4 6438   1.891   0.336  11.390
  420MPD2    C5 6439   1.939   0.430  11.483
  420MPD2     H 6440   1.565   0.403  11.429
  420MPD2    H1 6441   1.964   0.282  11.331
  420MPD2    H2 6442   1.894   0.595  11.627
  420MPD2    H3 6443   2.047   0.440  11.484
  420MPD2     N 6444   1.699   0.249  11.264
  420MPD2    H5 6445   1.754   0.168  11.238
  420MPD2    N1 6446   1.631   0.613  11.587
  420MPD2    H7 6447   1.678   0.691  11.631
  421MPD2     C 6448   0.843   0.998  11.766
  421MPD2    C1 6449   0.911   1.065  11.669
  421MPD2    C2 6450   0.846   1.173  11.619
  421MPD2    C3 6451   0.724   1.224  11.662
  421MPD2    C4 6452   0.657   1.150  11.758
  421MPD2    C5 6453   0.723   1.043  11.815
  421MPD2     H 6454   0.898   1.226  11.540
  421MPD2    H1 6455   0.560   1.179  11.796
  421MPD2    H2 6456   0.883   0.909  11.813
  421MPD2    H3 6457   0.679   0.985  11.896
  421MPD2     N 6458   0.658   1.338  11.619
  421MPD2    H5 6459   0.579   1.364  11.677
  421MPD2    N1 6460   1.038   1.020  11.622
  421MPD2    H7 6461   1.096   1.088  11.573
  422MPD2     C 6462   1.446   1.409  11.422
  422MPD2    C1 6463   1.511   1.325  11.502
  422MPD2    C2 6464   1.591   1.380  11.603
  422MPD2    C3 6465   1.615   1.520  11.600
  422MPD2    C4 6466   1.552   1.601  11.510
  422MPD2    C5 6467   1.460   1.543  11.434
  422MPD2     H 6468   1.633   1.325  11.686
  422MPD2    H1 6469   1.557   1.709  11.510
  422MPD2    H2 6470   1.381   1.368  11.346
  422MPD2    H3 6471   1.405   1.602  11.362
  422MPD2     N 6472   1.687   1.591  11.701
  422MPD2    H5 6473   1.686   1.692  11.691
  422MPD2    N1 6474   1.482   1.196  11.497
  422MPD2    H7 6475   1.408   1.165  11.435
  423MPD2     C 6476   2.360   1.245  13.210
  423MPD2    C1 6477   2.268   1.344  13.233
  423MPD2    C2 6478   2.244   1.440  13.139
  423MPD2    C3 6479   2.318   1.455  13.030
  423MPD2    C4 6480   2.402   1.349  12.999
  423MPD2    C5 6481   2.426   1.247  13.092
  423MPD2     H 6482   2.168   1.515  13.159
  423MPD2    H1 6483   2.476   1.360  12.921
  423MPD2    H2 6484   2.372   1.159  13.275
  423MPD2    H3 6485   2.497   1.171  13.061
  423MPD2     N 6486   2.294   1.566  12.947
  423MPD2    H5 6487   2.226   1.635  12.976
  423MPD2    N1 6488   2.219   1.348  13.365
  423MPD2    H7 6489   2.266   1.290  13.433
  424MPD2     C 6490   2.606   0.773  13.769
  424MPD2    C1 6491   2.541   0.813  13.653
  424MPD2    C2 6492   2.462   0.924  13.656
  424MPD2    C3 6493   2.461   1.006  13.769
  424MPD2    C4 6494   2.520   0.961  13.884
  424MPD2    C5 6495   2.589   0.842  13.887
  424MPD2     H 6496   2.425   0.962  13.561
  424MPD2    H1 6497   2.541   1.028  13.967
  424MPD2    H2 6498   2.669   0.685  13.763
  424MPD2    H3 6499   2.645   0.813  13.975
  424MPD2     N 6500   2.408   1.137  13.768
  424MPD2    H5 6501   2.419   1.193  13.852
  424MPD2    N1 6502   2.542   0.735  13.532
  424MPD2    H7 6503   2.485   0.769  13.455
  425MPD2     C 6504   4.455   1.921   8.806
  425MPD2    C1 6505   4.388   1.852   8.706
  425MPD2    C2 6506   4.266   1.797   8.729
  425MPD2    C3 6507   4.216   1.796   8.862
  425MPD2    C4 6508   4.286   1.853   8.959
  425MPD2    C5 6509   4.401   1.912   8.933
  425MPD2     H 6510   4.202   1.747   8.657
  425MPD2    H1 6511   4.251   1.840   9.061
  425MPD2    H2 6512   4.545   1.978   8.788
  425MPD2    H3 6513   4.456   1.958   9.014
  425MPD2     N 6514   4.088   1.734   8.876
  425MPD2    H5 6515   4.060   1.681   8.794
  425MPD2    N1 6516   4.446   1.844   8.575
  425MPD2    H7 6517   4.390   1.834   8.491
  426MPD2     C 6518   2.617   3.965   8.038
  426MPD2    C1 6519   2.573   4.080   8.096
  426MPD2    C2 6520   2.492   4.167   8.025
  426MPD2    C3 6521   2.467   4.139   7.889
  426MPD2    C4 6522   2.516   4.020   7.832
  426MPD2    C5 6523   2.585   3.930   7.912
  426MPD2     H 6524   2.478   4.266   8.067
  426MPD2    H1 6525   2.496   3.997   7.728
  426MPD2    H2 6526   2.682   3.894   8.088
  426MPD2    H3 6527   2.632   3.844   7.865
  426MPD2     N 6528   2.394   4.227   7.801
  426MPD2    H5 6529   2.385   4.197   7.704
  426MPD2    N1 6530   2.616   4.118   8.226
  426MPD2    H7 6531   2.577   4.202   8.268
  427MPD2     C 6532   2.454   0.268   7.796
  427MPD2    C1 6533   2.341   0.197   7.830
  427MPD2    C2 6534   2.289   0.227   7.958
  427MPD2    C3 6535   2.360   0.310   8.046
  427MPD2    C4 6536   2.469   0.375   8.000
  427MPD2    C5 6537   2.523   0.355   7.878
  427MPD2     H 6538   2.203   0.179   8.003
  427MPD2    H1 6539   2.529   0.442   8.061
  427MPD2    H2 6540   2.490   0.250   7.695
  427MPD2    H3 6541   2.620   0.392   7.846
  427MPD2     N 6542   2.326   0.322   8.180
  427MPD2    H5 6543   2.230   0.293   8.198
  427MPD2    N1 6544   2.303   0.092   7.743
  427MPD2    H7 6545   2.352   0.080   7.655
  428MPD2     C 6546   2.344   4.421   7.124
  428MPD2    C1 6547   2.413   4.350   7.229
  428MPD2    C2 6548   2.471   4.223   7.200
  428MPD2    C3 6549   2.483   4.172   7.077
  428MPD2    C4 6550   2.425   4.253   6.974
  428MPD2    C5 6551   2.355   4.371   6.999
  428MPD2     H 6552   2.516   4.167   7.282
  428MPD2    H1 6553   2.418   4.211   6.874
  428MPD2    H2 6554   2.299   4.517   7.145
  428MPD2    H3 6555   2.298   4.423   6.923
  428MPD2     N 6556   2.531   4.044   7.035
  428MPD2    H5 6557   2.556   4.030   6.938
  428MPD2    N1 6558   2.420   4.401   7.364
  428MPD2    H7 6559   2.448   4.334   7.436
  429MPD2     C 6560   4.190   0.310  11.453
  429MPD2    C1 6561   4.136   0.269  11.573
  429MPD2    C2 6562   4.219   0.251  11.682
  429MPD2    C3 6563   4.358   0.254  11.669
  429MPD2    C4 6564   4.411   0.294  11.547
  429MPD2    C5 6565   4.321   0.316  11.441
  429MPD2     H 6566   4.186   0.217  11.779
  429MPD2    H1 6567   4.515   0.296  11.518
  429MPD2    H2 6568   4.132   0.331  11.364
  429MPD2    H3 6569   4.361   0.350  11.346
  429MPD2     N 6570   4.439   0.243  11.788
  429MPD2    H5 6571   4.393   0.235  11.878
  429MPD2    N1 6572   3.998   0.241  11.577
  429MPD2    H7 6573   3.939   0.276  11.502
  430MPD2     C 6574   3.452   0.320  12.397
  430MPD2    C1 6575   3.478   0.415  12.301
  430MPD2    C2 6576   3.531   0.380  12.179
  430MPD2    C3 6577   3.558   0.251  12.152
  430MPD2    C4 6578   3.523   0.154  12.244
  430MPD2    C5 6579   3.468   0.194  12.364
  430MPD2     H 6580   3.556   0.459  12.109
  430MPD2    H1 6581   3.540   0.048  12.230
  430MPD2    H2 6582   3.424   0.363  12.492
  430MPD2    H3 6583   3.455   0.116  12.438
  430MPD2     N 6584   3.617   0.216  12.032
  430MPD2    H5 6585   3.634   0.288  11.962
  430MPD2    N1 6586   3.478   0.545  12.339
  430MPD2    H7 6587   3.446   0.561  12.434
  431MPD2     C 6588   4.271   3.186   9.008
  431MPD2    C1 6589   4.238   3.102   9.114
  431MPD2    C2 6590   4.108   3.097   9.163
  431MPD2    C3 6591   4.011   3.179   9.110
  431MPD2    C4 6592   4.044   3.262   9.001
  431MPD2    C5 6593   4.176   3.276   8.961
  431MPD2     H 6594   4.073   3.023   9.233
  431MPD2    H1 6595   3.972   3.332   8.961
  431MPD2    H2 6596   4.373   3.201   8.976
  431MPD2    H3 6597   4.202   3.341   8.878
  431MPD2     N 6598   3.884   3.160   9.164
  431MPD2    H5 6599   3.877   3.081   9.227
  431MPD2    N1 6600   4.341   3.029   9.176
  431MPD2    H7 6601   4.428   3.044   9.127
  432MPD2     C 6602   1.155   2.464  12.138
  432MPD2    C1 6603   1.280   2.521  12.159
  432MPD2    C2 6604   1.321   2.525  12.290
  432MPD2    C3 6605   1.238   2.486  12.395
  432MPD2    C4 6606   1.117   2.432  12.369
  432MPD2    C5 6607   1.076   2.411  12.239
  432MPD2     H 6608   1.411   2.578  12.320
  432MPD2    H1 6609   1.058   2.389  12.449
  432MPD2    H2 6610   1.108   2.455  12.041
  432MPD2    H3 6611   0.980   2.369  12.213
  432MPD2     N 6612   1.273   2.492  12.530
  432MPD2    H5 6613   1.210   2.452  12.599
  432MPD2    N1 6614   1.346   2.579  12.046
  432MPD2    H7 6615   1.330   2.539  11.954
  433MPD2     C 6616   0.902   3.061  12.331
  433MPD2    C1 6617   1.002   3.082  12.427
  433MPD2    C2 6618   0.972   3.139  12.553
  433MPD2    C3 6619   0.838   3.175  12.575
  433MPD2    C4 6620   0.746   3.158  12.473
  433MPD2    C5 6621   0.773   3.098  12.355
  433MPD2     H 6622   1.054   3.148  12.624
  433MPD2    H1 6623   0.643   3.187  12.490
  433MPD2    H2 6624   0.916   3.012  12.235
  433MPD2    H3 6625   0.704   3.095  12.271
  433MPD2     N 6626   0.795   3.227  12.699
  433MPD2    H5 6627   0.696   3.249  12.698
  433MPD2    N1 6628   1.129   3.026  12.407
  433MPD2    H7 6629   1.187   3.004  12.488
  434MPD2     C 6630   3.691   3.610  11.532
  434MPD2    C1 6631   3.769   3.708  11.589
  434MPD2    C2 6632   3.889   3.670  11.646
  434MPD2    C3 6633   3.925   3.541  11.650
  434MPD2    C4 6634   3.844   3.439  11.601
  434MPD2    C5 6635   3.725   3.473  11.551
  434MPD2     H 6636   3.938   3.758  11.686
  434MPD2    H1 6637   3.875   3.335  11.607
  434MPD2    H2 6638   3.599   3.648  11.489
  434MPD2    H3 6639   3.659   3.401  11.505
  434MPD2     N 6640   4.048   3.507  11.705
  434MPD2    H5 6641   4.061   3.407  11.714
  434MPD2    N1 6642   3.746   3.853  11.582
  434MPD2    H7 6643   3.806   3.923  11.625
  435MPD2     C 6644   1.430   4.724  12.813
  435MPD2    C1 6645   1.508   4.687  12.708
  435MPD2    C2 6646   1.600   4.776  12.653
  435MPD2    C3 6647   1.627   0.109  12.715
  435MPD2    C4 6648   1.547   0.148  12.820
  435MPD2    C5 6649   1.458   0.058  12.873
  435MPD2     H 6650   1.649   4.753  12.559
  435MPD2    H1 6651   1.554   0.238  12.879
  435MPD2    H2 6652   1.368   4.653  12.867
  435MPD2    H3 6653   1.396   0.080  12.959
  435MPD2     N 6654   1.729   0.198  12.673
  435MPD2    H5 6655   1.730   0.289  12.718
  435MPD2    N1 6656   1.497   4.553  12.673
  435MPD2    H7 6657   1.443   4.494  12.735
  436MPD2     C 6658   1.896   4.293  12.902
  436MPD2    C1 6659   1.988   4.303  12.800
  436MPD2    C2 6660   2.055   4.194  12.749
  436MPD2    C3 6661   2.046   4.073  12.818
  436MPD2    C4 6662   1.947   4.056  12.918
  436MPD2    C5 6663   1.879   4.165  12.953
  436MPD2     H 6664   2.115   4.206  12.660
  436MPD2    H1 6665   1.936   3.964  12.974
  436MPD2    H2 6666   1.821   4.368  12.923
  436MPD2    H3 6667   1.803   4.155  13.030
  436MPD2     N 6668   2.115   3.954  12.782
  436MPD2    H5 6669   2.086   3.873  12.837
  436MPD2    N1 6670   1.996   4.424  12.722
  436MPD2    H7 6671   2.019   4.414  12.624
  437MPD2     C 6672   2.051   4.541  11.833
  437MPD2    C1 6673   2.098   4.464  11.935
  437MPD2    C2 6674   2.096   4.515  12.058
  437MPD2    C3 6675   2.040   4.636  12.089
  437MPD2    C4 6676   2.003   4.722  11.983
  437MPD2    C5 6677   1.998   4.665  11.859
  437MPD2     H 6678   2.132   4.451  12.138
  437MPD2    H1 6679   1.978   0.038  11.989
  437MPD2    H2 6680   2.055   4.504  11.731
  437MPD2    H3 6681   1.967   4.725  11.774
  437MPD2     N 6682   2.027   4.687  12.219
  437MPD2    H5 6683   1.993   4.782  12.226
  437MPD2    N1 6684   2.157   4.341  11.903
  437MPD2    H7 6685   2.194   4.326  11.810
  438MPD2     C 6686   3.597   2.597  12.588
  438MPD2    C1 6687   3.612   2.713  12.658
  438MPD2    C2 6688   3.504   2.796  12.684
  438MPD2    C3 6689   3.379   2.757  12.641
  438MPD2    C4 6690   3.355   2.640  12.572
  438MPD2    C5 6691   3.470   2.559  12.550
  438MPD2     H 6692   3.516   2.891  12.735
  438MPD2    H1 6693   3.265   2.590  12.538
  438MPD2    H2 6694   3.674   2.523  12.569
  438MPD2    H3 6695   3.458   2.458  12.511
  438MPD2     N 6696   3.260   2.830  12.663
  438MPD2    H5 6697   3.171   2.790  12.637
  438MPD2    N1 6698   3.743   2.754  12.687
  438MPD2    H7 6699   3.756   2.828  12.755
  439MPD2     C 6700   2.060   4.276   8.449
  439MPD2    C1 6701   2.033   4.319   8.323
  439MPD2    C2 6702   2.142   4.359   8.250
  439MPD2    C3 6703   2.267   4.358   8.302
  439MPD2    C4 6704   2.295   4.312   8.430
  439MPD2    C5 6705   2.189   4.281   8.504
  439MPD2     H 6706   2.123   4.413   8.158
  439MPD2    H1 6707   2.389   4.320   8.484
  439MPD2    H2 6708   1.985   4.218   8.501
  439MPD2    H3 6709   2.219   4.255   8.605
  439MPD2     N 6710   2.364   4.437   8.227
  439MPD2    H5 6711   2.331   4.488   8.146
  439MPD2    N1 6712   1.906   4.329   8.258
  439MPD2    H7 6713   1.904   4.368   8.164
  440MPD2     C 6714   3.122   0.430   8.301
  440MPD2    C1 6715   3.142   0.295   8.326
  440MPD2    C2 6716   3.025   0.208   8.333
  440MPD2    C3 6717   2.895   0.274   8.306
  440MPD2    C4 6718   2.883   0.409   8.278
  440MPD2    C5 6719   2.998   0.483   8.274
  440MPD2     H 6720   3.040   0.102   8.350
  440MPD2    H1 6721   2.795   0.458   8.238
  440MPD2    H2 6722   3.211   0.491   8.297
  440MPD2    H3 6723   2.979   0.585   8.242
  440MPD2     N 6724   2.780   0.195   8.293
  440MPD2    H5 6725   2.696   0.238   8.255
  440MPD2    N1 6726   3.273   0.254   8.341
  440MPD2    H7 6727   3.346   0.324   8.333
  441MPD2     C 6728   2.887   0.112   7.740
  441MPD2    C1 6729   2.756   0.076   7.741
  441MPD2    C2 6730   2.684   0.099   7.629
  441MPD2    C3 6731   2.733   0.174   7.519
  441MPD2    C4 6732   2.861   0.204   7.516
  441MPD2    C5 6733   2.933   0.182   7.633
  441MPD2     H 6734   2.582   0.063   7.637
  441MPD2    H1 6735   2.904   0.253   7.429
  441MPD2    H2 6736   2.947   0.083   7.826
  441MPD2    H3 6737   3.034   0.220   7.641
  441MPD2     N 6738   2.642   0.220   7.422
  441MPD2    H5 6739   2.543   0.201   7.432
  441MPD2    N1 6740   2.704   0.024   7.860
  441MPD2    H7 6741   2.774   0.018   7.934
  442MPD2     C 6742   0.509   4.347  12.936
  442MPD2    C1 6743   0.491   4.257  13.042
  442MPD2    C2 6744   0.409   4.291  13.149
  442MPD2    C3 6745   0.364   4.424  13.166
  442MPD2    C4 6746   0.394   4.516  13.068
  442MPD2    C5 6747   0.466   4.473  12.957
  442MPD2     H 6748   0.382   4.225  13.230
  442MPD2    H1 6749   0.367   4.621  13.077
  442MPD2    H2 6750   0.554   4.312  12.844
  442MPD2    H3 6751   0.465   4.547  12.878
  442MPD2     N 6752   0.285   4.467  13.271
  442MPD2    H5 6753   0.275   4.566  13.293
  442MPD2    N1 6754   0.548   4.127  13.031
  442MPD2    H7 6755   0.596   4.111  12.943
  443MPD2     C 6756   1.513   3.291  10.589
  443MPD2    C1 6757   1.631   3.236  10.568
  443MPD2    C2 6758   1.659   3.113  10.630
  443MPD2    C3 6759   1.563   3.046  10.699
  443MPD2    C4 6760   1.437   3.105  10.719
  443MPD2    C5 6761   1.418   3.228  10.668
  443MPD2     H 6762   1.761   3.078  10.621
  443MPD2    H1 6763   1.368   3.062  10.790
  443MPD2    H2 6764   1.483   3.378  10.531
  443MPD2    H3 6765   1.322   3.275  10.684
  443MPD2     N 6766   1.583   2.911  10.754
  443MPD2    H5 6767   1.503   2.868  10.798
  443MPD2    N1 6768   1.721   3.308  10.488
  443MPD2    H7 6769   1.716   3.409  10.486
  444MPD2     C 6770   2.334   3.094  10.734
  444MPD2    C1 6771   2.211   3.101  10.666
  444MPD2    C2 6772   2.122   2.992  10.687
  444MPD2    C3 6773   2.158   2.886  10.763
  444MPD2    C4 6774   2.285   2.876  10.825
  444MPD2    C5 6775   2.369   2.985  10.806
  444MPD2     H 6776   2.017   2.995  10.659
  444MPD2    H1 6777   2.324   2.791  10.879
  444MPD2    H2 6778   2.409   3.172  10.738
  444MPD2    H3 6779   2.461   2.982  10.863
  444MPD2     N 6780   2.057   2.784  10.791
  444MPD2    H5 6781   1.968   2.782  10.741
  444MPD2    N1 6782   2.160   3.213  10.597
  444MPD2    H7 6783   2.082   3.195  10.535
  445MPD2     C 6784   2.593   2.994   9.919
  445MPD2    C1 6785   2.618   3.124   9.952
  445MPD2    C2 6786   2.527   3.202  10.019
  445MPD2    C3 6787   2.406   3.144  10.063
  445MPD2    C4 6788   2.384   3.011  10.035
  445MPD2    C5 6789   2.473   2.946   9.958
  445MPD2     H 6790   2.551   3.305  10.043
  445MPD2    H1 6791   2.289   2.965  10.062
  445MPD2    H2 6792   2.673   2.936   9.875
  445MPD2    H3 6793   2.448   2.842   9.938
  445MPD2     N 6794   2.323   3.229  10.146
  445MPD2    H5 6795   2.359   3.324  10.151
  445MPD2    N1 6796   2.751   3.171   9.925
  445MPD2    H7 6797   2.826   3.103   9.920
  446MPD2     C 6798   3.708   1.342  14.652
  446MPD2    C1 6799   3.582   1.309  14.646
  446MPD2    C2 6800   3.510   1.366  14.545
  446MPD2    C3 6801   3.570   1.449  14.449
  446MPD2    C4 6802   3.707   1.447  14.437
  446MPD2    C5 6803   3.778   1.394  14.544
  446MPD2     H 6804   3.403   1.352  14.549
  446MPD2    H1 6805   3.755   1.512  14.364
  446MPD2    H2 6806   3.777   1.293  14.719
  446MPD2    H3 6807   3.884   1.416  14.552
  446MPD2     N 6808   3.500   1.522  14.354
  446MPD2    H5 6809   3.559   1.579  14.295
  446MPD2    N1 6810   3.529   1.259  14.764
  446MPD2    H7 6811   3.590   1.231  14.840
  447MPD2     C 6812   3.295   1.908  14.692
  447MPD2    C1 6813   3.226   1.889  14.812
  447MPD2    C2 6814   3.266   1.791  14.902
  447MPD2    C3 6815   3.384   1.717  14.884
  447MPD2    C4 6816   3.453   1.736  14.767
  447MPD2    C5 6817   3.407   1.828  14.679
  447MPD2     H 6818   3.200   1.779  14.988
  447MPD2    H1 6819   3.530   1.665  14.740
  447MPD2    H2 6820   3.275   1.978  14.612
  447MPD2    H3 6821   3.454   1.846  14.583
  447MPD2     N 6822   3.411   1.604  14.958
  447MPD2    H5 6823   3.485   1.542  14.929
  447MPD2    N1 6824   3.106   1.953  14.842
  447MPD2    H7 6825   3.063   1.928  14.930
  448MPD2     C 6826   2.567   1.358  15.205
  448MPD2    C1 6827   2.634   1.372  15.087
  448MPD2    C2 6828   2.764   1.329  15.076
  448MPD2    C3 6829   2.835   1.284  15.185
  448MPD2    C4 6830   2.766   1.276  15.302
  448MPD2    C5 6831   2.633   1.310  15.311
  448MPD2     H 6832   2.824   1.357  14.990
  448MPD2    H1 6833   2.816   1.235  15.389
  448MPD2    H2 6834   2.460   1.376  15.211
  448MPD2    H3 6835   2.596   1.311  15.413
  448MPD2     N 6836   2.972   1.243  15.176
  448MPD2    H5 6837   3.027   1.234  15.261
  448MPD2    N1 6838   2.561   1.436  14.980
  448MPD2    H7 6839   2.463   1.456  14.994
  449MPD2     C 6840   0.517   4.347   8.517
  449MPD2    C1 6841   0.516   4.219   8.460
  449MPD2    C2 6842   0.502   4.104   8.542
  449MPD2    C3 6843   0.476   4.114   8.681
  449MPD2    C4 6844   0.483   4.247   8.729
  449MPD2    C5 6845   0.508   4.355   8.654
  449MPD2     H 6846   0.490   4.008   8.492
  449MPD2    H1 6847   0.483   4.274   8.834
  449MPD2    H2 6848   0.517   4.441   8.464
  449MPD2    H3 6849   0.505   4.455   8.695
  449MPD2     N 6850   0.437   4.017   8.775
  449MPD2    H5 6851   0.401   4.057   8.861
  449MPD2    N1 6852   0.509   4.199   8.319
  449MPD2    H7 6853   0.503   4.103   8.285
  450MPD2     C 6854   0.630   3.845   9.314
  450MPD2    C1 6855   0.529   3.799   9.238
  450MPD2    C2 6856   0.558   3.699   9.146
  450MPD2    C3 6857   0.681   3.638   9.149
  450MPD2    C4 6858   0.780   3.675   9.235
  450MPD2    C5 6859   0.755   3.787   9.316
  450MPD2     H 6860   0.482   3.665   9.077
  450MPD2    H1 6861   0.876   3.628   9.253
  450MPD2    H2 6862   0.605   3.930   9.377
  450MPD2    H3 6863   0.825   3.815   9.394
  450MPD2     N 6864   0.702   3.534   9.055
  450MPD2    H5 6865   0.620   3.503   9.004
  450MPD2    N1 6866   0.398   3.855   9.257
  450MPD2    H7 6867   0.393   3.912   9.341
  451MPD2     C 6868   3.465   3.104  12.444
  451MPD2    C1 6869   3.351   3.182  12.459
  451MPD2    C2 6870   3.348   3.261  12.569
  451MPD2    C3 6871   3.450   3.279  12.657
  451MPD2    C4 6872   3.567   3.204  12.634
  451MPD2    C5 6873   3.576   3.115  12.532
  451MPD2     H 6874   3.246   3.297  12.580
  451MPD2    H1 6875   3.651   3.200  12.702
  451MPD2    H2 6876   3.482   3.037  12.361
  451MPD2    H3 6877   3.656   3.043  12.518
  451MPD2     N 6878   3.447   3.356  12.774
  451MPD2    H5 6879   3.518   3.318  12.836
  451MPD2    N1 6880   3.238   3.178  12.379
  451MPD2    H7 6881   3.160   3.235  12.408
  452MPD2     C 6882   0.051   2.908   8.904
  452MPD2    C1 6883   0.084   2.831   9.013
  452MPD2    C2 6884   0.202   2.757   9.005
  452MPD2    C3 6885   0.288   2.769   8.896
  452MPD2    C4 6886   0.244   2.835   8.783
  452MPD2    C5 6887   0.129   2.912   8.788
  452MPD2     H 6888   0.242   2.693   9.083
  452MPD2    H1 6889   0.303   2.836   8.692
  452MPD2    H2 6890   4.755   2.975   8.904
  452MPD2    H3 6891   0.095   2.983   8.714
  452MPD2     N 6892   0.430   2.744   8.899
  452MPD2    H5 6893   0.475   2.801   8.828
  452MPD2    N1 6894   4.778   2.840   9.117
  452MPD2    H7 6895   4.718   2.919   9.098
  453MPD2     C 6896   2.368   0.866   7.540
  453MPD2    C1 6897   2.310   0.824   7.420
  453MPD2    C2 6898   2.225   0.914   7.356
  453MPD2    C3 6899   2.187   1.034   7.406
  453MPD2    C4 6900   2.230   1.063   7.534
  453MPD2    C5 6901   2.316   0.978   7.597
  453MPD2     H 6902   2.189   0.890   7.257
  453MPD2    H1 6903   2.206   1.156   7.584
  453MPD2    H2 6904   2.447   0.810   7.590
  453MPD2    H3 6905   2.356   1.014   7.691
  453MPD2     N 6906   2.097   1.125   7.346
  453MPD2    H5 6907   2.060   1.206   7.395
  453MPD2    N1 6908   2.355   0.699   7.370
  453MPD2    H7 6909   2.404   0.635   7.431
  454MPD2     C 6910   2.655   4.656  15.395
  454MPD2    C1 6911   2.669   4.635  15.258
  454MPD2    C2 6912   2.587   4.540  15.194
  454MPD2    C3 6913   2.492   4.468  15.268
  454MPD2    C4 6914   2.472   4.501  15.397
  454MPD2    C5 6915   2.551   4.600  15.458
  454MPD2     H 6916   2.589   4.518  15.088
  454MPD2    H1 6917   2.398   4.444  15.452
  454MPD2    H2 6918   2.725   4.719  15.448
  454MPD2    H3 6919   2.553   4.595  15.566
  454MPD2     N 6920   2.420   4.360  15.212
  454MPD2    H5 6921   2.333   4.332  15.257
  454MPD2    N1 6922   2.761   4.722  15.184
  454MPD2    H7 6923   2.813   4.789  15.240
  455MPD2     C 6924   3.429   0.178  15.259
  455MPD2    C1 6925   3.291   0.211  15.264
  455MPD2    C2 6926   3.249   0.305  15.354
  455MPD2    C3 6927   3.334   0.381  15.432
  455MPD2    C4 6928   3.472   0.348  15.420
  455MPD2    C5 6929   3.519   0.254  15.329
  455MPD2     H 6930   3.145   0.335  15.352
  455MPD2    H1 6931   3.544   0.417  15.463
  455MPD2    H2 6932   3.459   0.089  15.205
  455MPD2    H3 6933   3.624   0.229  15.319
  455MPD2     N 6934   3.300   0.509  15.495
  455MPD2    H5 6935   3.375   0.571  15.523
  455MPD2    N1 6936   3.192   0.158  15.176
  455MPD2    H7 6937   3.095   0.183  15.192
  456MPD2     C 6938   3.154   0.025  14.381
  456MPD2    C1 6939   3.045   0.076  14.442
  456MPD2    C2 6940   2.951   0.150  14.369
  456MPD2    C3 6941   2.970   0.184  14.239
  456MPD2    C4 6942   3.079   0.121  14.179
  456MPD2    C5 6943   3.173   0.050  14.252
  456MPD2     H 6944   2.856   0.187  14.406
  456MPD2    H1 6945   3.104   0.129  14.074
  456MPD2    H2 6946   3.241   4.774  14.432
  456MPD2    H3 6947   3.265   0.016  14.206
  456MPD2     N 6948   2.882   0.269  14.178
  456MPD2    H5 6949   2.821   0.328  14.234
  456MPD2    N1 6950   3.047   0.069  14.583
  456MPD2    H7 6951   3.128   0.025  14.627
  457MPD2     C 6952   4.594   4.147  12.525
  457MPD2    C1 6953   4.613   4.117  12.657
  457MPD2    C2 6954   4.727   4.036  12.685
  457MPD2    C3 6955   0.014   3.981  12.581
  457MPD2    C4 6956   4.777   4.017  12.451
  457MPD2    C5 6957   4.668   4.094  12.422
  457MPD2     H 6958   4.752   4.019  12.789
  457MPD2    H1 6959   0.045   3.995  12.362
  457MPD2    H2 6960   4.502   4.195  12.494
  457MPD2    H3 6961   4.630   4.104  12.321
  457MPD2     N 6962   0.119   3.902  12.626
  457MPD2    H5 6963   0.125   3.887  12.726
  457MPD2    N1 6964   4.528   4.169  12.757
  457MPD2    H7 6965   4.447   4.223  12.728
  458MPD2     C 6966   0.252   3.455  13.437
  458MPD2    C1 6967   0.183   3.378  13.345
  458MPD2    C2 6968   0.192   3.414  13.209
  458MPD2    C3 6969   0.280   3.514  13.168
  458MPD2    C4 6970   0.349   3.588  13.265
  458MPD2    C5 6971   0.327   3.565  13.396
  458MPD2     H 6972   0.126   3.367  13.137
  458MPD2    H1 6973   0.430   3.650  13.230
  458MPD2    H2 6974   0.260   3.430  13.542
  458MPD2    H3 6975   0.384   3.623  13.468
  458MPD2     N 6976   0.292   3.528  13.029
  458MPD2    H5 6977   0.270   3.454  12.963
  458MPD2    N1 6978   0.090   3.273  13.382
  458MPD2    H7 6979   0.036   3.240  13.302
  459MPD2     C 6980   0.093   3.317  12.311
  459MPD2    C1 6981   0.133   3.333  12.441
  459MPD2    C2 6982   0.034   3.349  12.539
  459MPD2    C3 6983   4.689   3.320  12.505
  459MPD2    C4 6984   4.657   3.303  12.369
  459MPD2    C5 6985   4.757   3.294  12.278
  459MPD2     H 6986   0.057   3.356  12.645
  459MPD2    H1 6987   4.556   3.284  12.336
  459MPD2    H2 6988   0.163   3.319  12.228
  459MPD2    H3 6989   4.735   3.272  12.174
  459MPD2     N 6990   4.590   3.305  12.603
  459MPD2    H5 6991   4.507   3.261  12.565
  459MPD2    N1 6992   0.276   3.348  12.466
  459MPD2    H7 6993   0.343   3.339  12.390
  460MPD2     C 6994   1.327   2.307   9.992
  460MPD2    C1 6995   1.324   2.226  10.102
  460MPD2    C2 6996   1.201   2.161  10.128
  460MPD2    C3 6997   1.087   2.180  10.046
  460MPD2    C4 6998   1.096   2.262   9.935
  460MPD2    C5 6999   1.212   2.325   9.907
  460MPD2     H 7000   1.193   2.091  10.210
  460MPD2    H1 7001   1.014   2.266   9.864
  460MPD2    H2 7002   1.419   2.351   9.956
  460MPD2    H3 7003   1.214   2.398   9.827
  460MPD2     N 7004   0.965   2.115  10.077
  460MPD2    H5 7005   0.891   2.130  10.009
  460MPD2    N1 7006   1.440   2.214  10.191
  460MPD2    H7 7007   1.439   2.137  10.257
  461MPD2     C 7008   0.438   1.642  10.533
  461MPD2    C1 7009   0.358   1.756  10.517
  461MPD2    C2 7010   0.228   1.755  10.575
  461MPD2    C3 7011   0.193   1.657  10.662
  461MPD2    C4 7012   0.282   1.557  10.692
  461MPD2    C5 7013   0.397   1.548  10.626
  461MPD2     H 7014   0.171   1.846  10.556
  461MPD2    H1 7015   0.250   1.470  10.748
  461MPD2    H2 7016   0.538   1.626  10.494
  461MPD2    H3 7017   0.469   1.471  10.650
  461MPD2     N 7018   0.077   1.656  10.736
  461MPD2    H5 7019   0.072   1.575  10.798
  461MPD2    N1 7020   0.413   1.864  10.444
  461MPD2    H7 7021   0.345   1.937  10.423
  462MPD2     C 7022   4.531   0.857   9.134
  462MPD2    C1 7023   4.664   0.864   9.102
  462MPD2    C2 7024   4.693   0.897   8.972
  462MPD2    C3 7025   4.597   0.909   8.869
  462MPD2    C4 7026   4.465   0.900   8.905
  462MPD2    C5 7027   4.440   0.869   9.033
  462MPD2     H 7028   0.006   0.913   8.942
  462MPD2    H1 7029   4.386   0.910   8.832
  462MPD2    H2 7030   4.496   0.846   9.236
  462MPD2    H3 7031   4.336   0.862   9.064
  462MPD2     N 7032   4.643   0.916   8.733
  462MPD2    H5 7033   4.740   0.891   8.718
  462MPD2    N1 7034   4.753   0.868   9.207
  462MPD2    H7 7035   4.719   0.848   9.301
  463MPD2     C 7036   1.365   0.939  15.102
  463MPD2    C1 7037   1.294   0.861  15.016
  463MPD2    C2 7038   1.164   0.826  15.055
  463MPD2    C3 7039   1.108   0.871  15.172
  463MPD2    C4 7040   1.179   0.960  15.254
  463MPD2    C5 7041   1.313   0.985  15.223
  463MPD2     H 7042   1.100   0.774  14.985
  463MPD2    H1 7043   1.141   0.997  15.349
  463MPD2    H2 7044   1.468   0.961  15.076
  463MPD2    H3 7045   1.377   1.057  15.274
  463MPD2     N 7046   0.975   0.838  15.209
  463MPD2    H5 7047   0.941   0.762  15.151
  463MPD2    N1 7048   1.344   0.794  14.900
  463MPD2    H7 7049   1.291   0.722  14.853
  464MPD2     C 7050   2.078   1.236  14.376
  464MPD2    C1 7051   1.948   1.275  14.387
  464MPD2    C2 7052   1.854   1.173  14.411
  464MPD2    C3 7053   1.884   1.040  14.430
  464MPD2    C4 7054   2.022   1.006  14.432
  464MPD2    C5 7055   2.114   1.104  14.398
  464MPD2     H 7056   1.750   1.199  14.395
  464MPD2    H1 7057   2.066   0.911  14.461
  464MPD2    H2 7058   2.161   1.304  14.358
  464MPD2    H3 7059   2.220   1.083  14.408
  464MPD2     N 7060   1.792   0.936  14.471
  464MPD2    H5 7061   1.837   0.846  14.485
  464MPD2    N1 7062   1.919   1.413  14.370
  464MPD2    H7 7063   1.995   1.479  14.381
  465MPD2     C 7064   1.587   1.493  12.464
  465MPD2    C1 7065   1.686   1.409  12.522
  465MPD2    C2 7066   1.819   1.457  12.525
  465MPD2    C3 7067   1.848   1.580  12.490
  465MPD2    C4 7068   1.751   1.665  12.439
  465MPD2    C5 7069   1.624   1.622  12.424
  465MPD2     H 7070   1.898   1.388  12.551
  465MPD2    H1 7071   1.782   1.766  12.413
  465MPD2    H2 7072   1.485   1.457  12.460
  465MPD2    H3 7073   1.550   1.687  12.378
  465MPD2     N 7074   1.983   1.634  12.528
  465MPD2    H5 7075   2.048   1.561  12.556
  465MPD2    N1 7076   1.646   1.290  12.580
  465MPD2    H7 7077   1.545   1.287  12.582
  466MPD2     C 7078   3.265   0.320  10.822
  466MPD2    C1 7079   3.215   0.312  10.948
  466MPD2    C2 7080   3.299   0.282  11.053
  466MPD2    C3 7081   3.425   0.226  11.030
  466MPD2    C4 7082   3.469   0.214  10.902
  466MPD2    C5 7083   3.389   0.268  10.810
  466MPD2     H 7084   3.260   0.284  11.154
  466MPD2    H1 7085   3.557   0.160  10.871
  466MPD2    H2 7086   3.213   0.351  10.732
  466MPD2    H3 7087   3.429   0.250  10.711
  466MPD2     N 7088   3.505   0.177  11.141
  466MPD2    H5 7089   3.577   0.107  11.124
  466MPD2    N1 7090   3.082   0.340  10.982
  466MPD2    H7 7091   3.055   0.338  11.080
  467MPD2     C 7092   2.525   4.414  10.690
  467MPD2    C1 7093   2.638   4.476  10.651
  467MPD2    C2 7094   2.673   4.584  10.732
  467MPD2    C3 7095   2.589   4.618  10.839
  467MPD2    C4 7096   2.468   4.566  10.852
  467MPD2    C5 7097   2.438   4.452  10.782
  467MPD2     H 7098   2.754   4.645  10.694
  467MPD2    H1 7099   2.394   4.608  10.919
  467MPD2    H2 7100   2.494   4.329  10.630
  467MPD2    H3 7101   2.344   4.400  10.799
  467MPD2     N 7102   2.618   4.736  10.911
  467MPD2    H5 7103   2.543   4.777  10.966
  467MPD2    N1 7104   2.718   4.442  10.536
  467MPD2    H7 7105   2.813   4.477  10.529
  468MPD2     C 7106   2.277   4.590   8.853
  468MPD2    C1 7107   2.356   4.633   8.751
  468MPD2    C2 7108   2.456   4.547   8.698
  468MPD2    C3 7109   2.468   4.419   8.744
  468MPD2    C4 7110   2.386   4.375   8.851
  468MPD2    C5 7111   2.292   4.462   8.898
  468MPD2     H 7112   2.515   4.564   8.608
  468MPD2    H1 7113   2.377   4.275   8.892
  468MPD2    H2 7114   2.195   4.657   8.875
  468MPD2    H3 7115   2.233   4.416   8.976
  468MPD2     N 7116   2.567   4.338   8.684
  468MPD2    H5 7117   2.611   4.372   8.599
  468MPD2    N1 7118   2.332   4.768   8.706
  468MPD2    H7 7119   2.268   0.030   8.765
  469MPD2     C 7120   3.267   4.374   8.418
  469MPD2    C1 7121   3.231   4.307   8.532
  469MPD2    C2 7122   3.317   4.304   8.638
  469MPD2    C3 7123   3.449   4.346   8.635
  469MPD2    C4 7124   3.480   4.412   8.518
  469MPD2    C5 7125   3.393   4.432   8.419
  469MPD2     H 7126   3.283   4.241   8.719
  469MPD2    H1 7127   3.579   4.447   8.490
  469MPD2    H2 7128   3.198   4.388   8.335
  469MPD2    H3 7129   3.430   4.483   8.330
  469MPD2     N 7130   3.539   4.305   8.735
  469MPD2    H5 7131   3.497   4.262   8.816
  469MPD2    N1 7132   3.102   4.248   8.536
  469MPD2    H7 7133   3.030   4.276   8.470
  470MPD2     C 7134   1.496   1.128  12.294
  470MPD2    C1 7135   1.626   1.170  12.266
  470MPD2    C2 7136   1.728   1.075  12.277
  470MPD2    C3 7137   1.701   0.943  12.321
  470MPD2    C4 7138   1.573   0.916  12.378
  470MPD2    C5 7139   1.476   1.013  12.368
  470MPD2     H 7140   1.830   1.105  12.254
  470MPD2    H1 7141   1.546   0.820  12.422
  470MPD2    H2 7142   1.416   1.201  12.290
  470MPD2    H3 7143   1.375   0.993  12.403
  470MPD2     N 7144   1.811   0.859  12.337
  470MPD2    H5 7145   1.897   0.886  12.290
  470MPD2    N1 7146   1.640   1.303  12.223
  470MPD2    H7 7147   1.552   1.349  12.200
  471MPD2     C 7148   1.247   1.707  11.818
  471MPD2    C1 7149   1.352   1.796  11.811
  471MPD2    C2 7150   1.375   1.858  11.689
  471MPD2    C3 7151   1.299   1.830  11.572
  471MPD2    C4 7152   1.195   1.743  11.584
  471MPD2    C5 7153   1.166   1.684  11.706
  471MPD2     H 7154   1.467   1.916  11.687
  471MPD2    H1 7155   1.148   1.706  11.494
  471MPD2    H2 7156   1.222   1.641  11.901
  471MPD2    H3 7157   1.091   1.607  11.717
  471MPD2     N 7158   1.338   1.877  11.444
  471MPD2    H5 7159   1.288   1.837  11.365
  471MPD2    N1 7160   1.455   1.807  11.914
  471MPD2    H7 7161   1.534   1.868  11.894
  472MPD2     C 7162   2.667   0.518   9.857
  472MPD2    C1 7163   2.782   0.486   9.796
  472MPD2    C2 7164   2.876   0.584   9.791
  472MPD2    C3 7165   2.847   0.715   9.833
  472MPD2    C4 7166   2.732   0.742   9.895
  472MPD2    C5 7167   2.643   0.647   9.907
  472MPD2     H 7168   2.968   0.551   9.744
  472MPD2    H1 7169   2.707   0.834   9.947
  472MPD2    H2 7170   2.585   0.450   9.876
  472MPD2    H3 7171   2.546   0.670   9.949
  472MPD2     N 7172   2.943   0.814   9.820
  472MPD2    H5 7173   2.923   0.903   9.865
  472MPD2    N1 7174   2.809   0.358   9.750
  472MPD2    H7 7175   2.892   0.349   9.692
  473MPD2     C 7176   3.694   0.809   9.722
  473MPD2    C1 7177   3.590   0.903   9.727
  473MPD2    C2 7178   3.557   0.957   9.853
  473MPD2    C3 7179   3.614   0.908   9.969
  473MPD2    C4 7180   3.703   0.803   9.960
  473MPD2    C5 7181   3.744   0.759   9.837
  473MPD2     H 7182   3.497   1.047   9.861
  473MPD2    H1 7183   3.730   0.753  10.052
  473MPD2    H2 7184   3.739   0.775   9.629
  473MPD2    H3 7185   3.817   0.680   9.831
  473MPD2     N 7186   3.569   0.951  10.101
  473MPD2    H5 7187   3.633   0.943  10.179
  473MPD2    N1 7188   3.533   0.950   9.604
  473MPD2    H7 7189   3.594   0.927   9.527
  474MPD2     C 7190   1.149   4.608  14.773
  474MPD2    C1 7191   1.213   4.537  14.675
  474MPD2    C2 7192   1.184   4.565  14.543
  474MPD2    C3 7193   1.091   4.664  14.503
  474MPD2    C4 7194   1.033   4.735  14.604
  474MPD2    C5 7195   1.057   4.706  14.733
  474MPD2     H 7196   1.238   4.505  14.471
  474MPD2    H1 7197   0.969   0.031  14.587
  474MPD2    H2 7198   1.168   4.606  14.880
  474MPD2    H3 7199   1.017   4.761  14.818
  474MPD2     N 7200   1.085   4.716  14.374
  474MPD2    H5 7201   1.034   0.012  14.356
  474MPD2    N1 7202   1.317   4.454  14.721
  474MPD2    H7 7203   1.345   4.451  14.819
  475MPD2     C 7204   2.120   2.502   9.901
  475MPD2    C1 7205   2.003   2.440   9.873
  475MPD2    C2 7206   1.885   2.484   9.929
  475MPD2    C3 7207   1.871   2.599  10.003
  475MPD2    C4 7208   1.991   2.660  10.036
  475MPD2    C5 7209   2.110   2.615   9.980
  475MPD2     H 7210   1.795   2.426   9.909
  475MPD2    H1 7211   1.984   2.756  10.087
  475MPD2    H2 7212   2.218   2.469   9.870
  475MPD2    H3 7213   2.202   2.658  10.017
  475MPD2     N 7214   1.748   2.642  10.057
  475MPD2    H5 7215   1.664   2.588  10.040
  475MPD2    N1 7216   2.012   2.325   9.794
  475MPD2    H7 7217   2.099   2.302   9.746
  476MPD2     C 7218   2.024   1.511   9.809
  476MPD2    C1 7219   2.051   1.631   9.865
  476MPD2    C2 7220   2.027   1.667   9.998
  476MPD2    C3 7221   1.964   1.571  10.072
  476MPD2    C4 7222   1.945   1.445  10.019
  476MPD2    C5 7223   1.977   1.411   9.888
  476MPD2     H 7224   2.049   1.761  10.047
  476MPD2    H1 7225   1.902   1.368  10.081
  476MPD2    H2 7226   2.044   1.484   9.706
  476MPD2    H3 7227   1.951   1.312   9.852
  476MPD2     N 7228   1.936   1.599  10.211
  476MPD2    H5 7229   1.981   1.672  10.265
  476MPD2    N1 7230   2.101   1.733   9.779
  476MPD2    H7 7231   2.107   1.706   9.681
  477MPD2     C 7232   2.071   3.768  12.351
  477MPD2    C1 7233   2.069   3.891  12.294
  477MPD2    C2 7234   1.983   3.982  12.350
  477MPD2    C3 7235   1.905   3.953  12.461
  477MPD2    C4 7236   1.915   3.824  12.509
  477MPD2    C5 7237   1.998   3.739  12.454
  477MPD2     H 7238   1.973   4.082  12.310
  477MPD2    H1 7239   1.852   3.786  12.588
  477MPD2    H2 7240   2.121   3.692  12.291
  477MPD2    H3 7241   1.995   3.634  12.481
  477MPD2     N 7242   1.815   4.051  12.519
  477MPD2    H5 7243   1.814   4.144  12.478
  477MPD2    N1 7244   2.145   3.921  12.182
  477MPD2    H7 7245   2.146   4.019  12.154
  478MPD2     C 7246   1.934   1.822  12.947
  478MPD2    C1 7247   1.983   1.780  13.072
  478MPD2    C2 7248   2.091   1.850  13.125
  478MPD2    C3 7249   2.151   1.958  13.062
  478MPD2    C4 7250   2.114   1.987  12.931
  478MPD2    C5 7251   2.004   1.915  12.874
  478MPD2     H 7252   2.120   1.823  13.226
  478MPD2    H1 7253   2.153   2.073  12.878
  478MPD2    H2 7254   1.861   1.769  12.887
  478MPD2    H3 7255   1.961   1.941  12.778
  478MPD2     N 7256   2.245   2.043  13.131
  478MPD2    H5 7257   2.276   2.125  13.081
  478MPD2    N1 7258   1.931   1.675  13.155
  478MPD2    H7 7259   1.999   1.647  13.226
  479MPD2     C 7260   2.195   2.767  13.199
  479MPD2    C1 7261   2.271   2.718  13.307
  479MPD2    C2 7262   2.358   2.805  13.370
  479MPD2    C3 7263   2.375   2.939  13.341
  479MPD2    C4 7264   2.290   2.982  13.244
  479MPD2    C5 7265   2.206   2.900  13.170
  479MPD2     H 7266   2.425   2.761  13.443
  479MPD2    H1 7267   2.302   3.084  13.210
  479MPD2    H2 7268   2.128   2.707  13.139
  479MPD2    H3 7269   2.162   2.935  13.077
  479MPD2     N 7270   2.472   3.027  13.400
  479MPD2    H5 7271   2.474   3.118  13.356
  479MPD2    N1 7272   2.275   2.587  13.338
  479MPD2    H7 7273   2.292   2.571  13.437
  480MPD2     C 7274   3.407   3.284   8.094
  480MPD2    C1 7275   3.283   3.226   8.052
  480MPD2    C2 7276   3.225   3.130   8.128
  480MPD2    C3 7277   3.284   3.103   8.249
  480MPD2    C4 7278   3.396   3.166   8.299
  480MPD2    C5 7279   3.455   3.255   8.219
  480MPD2     H 7280   3.129   3.087   8.104
  480MPD2    H1 7281   3.438   3.143   8.396
  480MPD2    H2 7282   3.463   3.358   8.039
  480MPD2    H3 7283   3.544   3.300   8.260
  480MPD2     N 7284   3.233   3.000   8.338
  480MPD2    H5 7285   3.279   2.996   8.428
  480MPD2    N1 7286   3.236   3.266   7.925
  480MPD2    H7 7287   3.305   3.320   7.875
  481MPD2     C 7288   2.659   0.012  13.964
  481MPD2    C1 7289   2.787   4.753  13.938
  481MPD2    C2 7290   2.859   4.690  14.035
  481MPD2    C3 7291   2.800   4.650  14.155
  481MPD2    C4 7292   2.676   4.709  14.186
  481MPD2    C5 7293   2.611   4.779  14.091
  481MPD2     H 7294   2.957   4.653  14.007
  481MPD2    H1 7295   2.629   4.683  14.280
  481MPD2    H2 7296   2.602   0.064  13.888
  481MPD2    H3 7297   2.518   0.036  14.121
  481MPD2     N 7298   2.867   4.579  14.254
  481MPD2    H5 7299   2.818   4.580  14.343
  481MPD2    N1 7300   2.843   4.786  13.811
  481MPD2    H7 7301   2.780   0.038  13.744
  482MPD2     C 7302   2.538   4.731  13.446
  482MPD2    C1 7303   2.655   0.012  13.420
  482MPD2    C2 7304   2.681   0.129  13.487
  482MPD2    C3 7305   2.594   0.170  13.592
  482MPD2    C4 7306   2.467   0.097  13.605
  482MPD2    C5 7307   2.449   4.765  13.541
  482MPD2     H 7308   2.771   0.188  13.472
  482MPD2    H1 7309   2.391   0.126  13.676
  482MPD2    H2 7310   2.522   4.634  13.399
  482MPD2    H3 7311   2.365   4.703  13.572
  482MPD2     N 7312   2.629   0.287  13.674
  482MPD2    H5 7313   2.719   0.329  13.653
  482MPD2    N1 7314   2.735   4.747  13.323
  482MPD2    H7 7315   2.692   4.676  13.264
  483MPD2     C 7316   3.564   0.611  13.562
  483MPD2    C1 7317   3.548   0.546  13.445
  483MPD2    C2 7318   3.457   0.441  13.438
  483MPD2    C3 7319   3.387   0.408  13.548
  483MPD2    C4 7320   3.405   0.474  13.666
  483MPD2    C5 7321   3.502   0.573  13.672
  483MPD2     H 7322   3.432   0.396  13.342
  483MPD2    H1 7323   3.366   0.447  13.763
  483MPD2    H2 7324   3.625   0.699  13.577
  483MPD2    H3 7325   3.536   0.621  13.763
  483MPD2     N 7326   3.283   0.305  13.545
  483MPD2    H5 7327   3.234   0.296  13.633
  483MPD2    N1 7328   3.618   0.606  13.334
  483MPD2    H7 7329   3.676   0.682  13.366
  484MPD2     C 7330   1.432   2.170  10.651
  484MPD2    C1 7331   1.345   2.104  10.731
  484MPD2    C2 7332   1.216   2.112  10.699
  484MPD2    C3 7333   1.160   2.179  10.590
  484MPD2    C4 7334   1.252   2.246  10.510
  484MPD2    C5 7335   1.380   2.232  10.541
  484MPD2     H 7336   1.148   2.069  10.772
  484MPD2    H1 7337   1.220   2.307  10.426
  484MPD2    H2 7338   1.537   2.173  10.677
  484MPD2    H3 7339   1.452   2.299  10.496
  484MPD2     N 7340   1.022   2.203  10.562
  484MPD2    H5 7341   0.999   2.282  10.503
  484MPD2    N1 7342   1.403   2.035  10.843
  484MPD2    H7 7343   1.504   2.046  10.851
  485MPD2     C 7344   3.841   1.965  11.645
  485MPD2    C1 7345   3.902   1.859  11.595
  485MPD2    C2 7346   3.835   1.771  11.524
  485MPD2    C3 7347   3.701   1.780  11.482
  485MPD2    C4 7348   3.636   1.887  11.531
  485MPD2    C5 7349   3.707   1.975  11.619
  485MPD2     H 7350   3.894   1.696  11.472
  485MPD2    H1 7351   3.529   1.901  11.519
  485MPD2    H2 7352   3.891   2.042  11.702
  485MPD2    H3 7353   3.657   2.063  11.657
  485MPD2     N 7354   3.627   1.687  11.404
  485MPD2    H5 7355   3.547   1.727  11.356
  485MPD2    N1 7356   4.039   1.848  11.622
  485MPD2    H7 7357   4.090   1.931  11.649
  486MPD2     C 7358   3.817   1.493  12.054
  486MPD2    C1 7359   3.868   1.569  11.953
  486MPD2    C2 7360   3.887   1.704  11.981
  486MPD2    C3 7361   3.875   1.748  12.113
  486MPD2    C4 7362   3.836   1.672  12.212
  486MPD2    C5 7363   3.811   1.541  12.179
  486MPD2     H 7364   3.922   1.767  11.900
  486MPD2    H1 7365   3.819   1.702  12.315
  486MPD2    H2 7366   3.768   1.399  12.031
  486MPD2    H3 7367   3.774   1.473  12.255
  486MPD2     N 7368   3.919   1.880  12.125
  486MPD2    H5 7369   3.957   1.918  12.039
  486MPD2    N1 7370   3.872   1.528  11.819
  486MPD2    H7 7371   3.928   1.580  11.752
  487MPD2     C 7372   1.976   4.334   7.694
  487MPD2    C1 7373   1.994   4.347   7.559
  487MPD2    C2 7374   2.055   4.250   7.483
  487MPD2    C3 7375   2.100   4.137   7.535
  487MPD2    C4 7376   2.078   4.120   7.670
  487MPD2    C5 7377   2.012   4.214   7.747
  487MPD2     H 7378   2.081   4.277   7.381
  487MPD2    H1 7379   2.116   4.036   7.727
  487MPD2    H2 7380   1.927   4.404   7.761
  487MPD2    H3 7381   2.011   4.201   7.855
  487MPD2     N 7382   2.187   4.060   7.451
  487MPD2    H5 7383   2.208   4.095   7.358
  487MPD2    N1 7384   1.941   4.465   7.512
  487MPD2    H7 7385   1.902   4.528   7.581
  488MPD2     C 7386   2.627   3.431   7.747
  488MPD2    C1 7387   2.674   3.551   7.719
  488MPD2    C2 7388   2.785   3.596   7.785
  488MPD2    C3 7389   2.841   3.531   7.891
  488MPD2    C4 7390   2.792   3.408   7.926
  488MPD2    C5 7391   2.682   3.363   7.858
  488MPD2     H 7392   2.835   3.687   7.754
  488MPD2    H1 7393   2.840   3.350   8.004
  488MPD2    H2 7394   2.544   3.381   7.699
  488MPD2    H3 7395   2.646   3.262   7.872
  488MPD2     N 7396   2.942   3.587   7.980
  488MPD2    H5 7397   2.960   3.547   8.071
  488MPD2    N1 7398   2.599   3.629   7.625
  488MPD2    H7 7399   2.500   3.610   7.612
  489MPD2     C 7400   1.016   2.541  11.725
  489MPD2    C1 7401   1.014   2.672  11.691
  489MPD2    C2 7402   0.897   2.735  11.692
  489MPD2    C3 7403   0.773   2.667  11.709
  489MPD2    C4 7404   0.790   2.539  11.745
  489MPD2    C5 7405   0.904   2.468  11.741
  489MPD2     H 7406   0.901   2.838  11.659
  489MPD2    H1 7407   0.706   2.476  11.774
  489MPD2    H2 7408   1.111   2.490  11.728
  489MPD2    H3 7409   0.895   2.363  11.767
  489MPD2     N 7410   0.651   2.725  11.693
  489MPD2    H5 7411   0.659   2.818  11.653
  489MPD2    N1 7412   1.126   2.742  11.649
  489MPD2    H7 7413   1.135   2.841  11.668
  490MPD2     C 7414   3.551   2.998  13.830
  490MPD2    C1 7415   3.636   3.065  13.907
  490MPD2    C2 7416   3.697   3.179  13.848
  490MPD2    C3 7417   3.665   3.218  13.720
  490MPD2    C4 7418   3.561   3.160  13.653
  490MPD2    C5 7419   3.517   3.042  13.708
  490MPD2     H 7420   3.776   3.235  13.896
  490MPD2    H1 7421   3.510   3.203  13.567
  490MPD2    H2 7422   3.497   2.910  13.863
  490MPD2    H3 7423   3.443   2.986  13.653
  490MPD2     N 7424   3.733   3.336  13.683
  490MPD2    H5 7425   3.764   3.389  13.764
  490MPD2    N1 7426   3.683   3.008  14.029
  490MPD2    H7 7427   3.651   2.912  14.037
  491MPD2     C 7428   3.776   3.851  12.885
  491MPD2    C1 7429   3.661   3.873  12.959
  491MPD2    C2 7430   3.614   3.764  13.043
  491MPD2    C3 7431   3.674   3.639  13.022
  491MPD2    C4 7432   3.773   3.621  12.932
  491MPD2    C5 7433   3.819   3.727  12.857
  491MPD2     H 7434   3.528   3.781  13.107
  491MPD2    H1 7435   3.817   3.527  12.901
  491MPD2    H2 7436   3.822   3.929  12.826
  491MPD2    H3 7437   3.902   3.708  12.790
  491MPD2     N 7438   3.634   3.537  13.103
  491MPD2    H5 7439   3.597   3.571  13.191
  491MPD2    N1 7440   3.607   4.000  12.971
  491MPD2    H7 7441   3.535   4.009  13.043
  492MPD2     C 7442   0.610   1.728  12.321
  492MPD2    C1 7443   0.635   1.614  12.248
  492MPD2    C2 7444   0.608   1.602  12.119
  492MPD2    C3 7445   0.564   1.714  12.050
  492MPD2    C4 7446   0.577   1.838  12.110
  492MPD2    C5 7447   0.594   1.843  12.247
  492MPD2     H 7448   0.617   1.504  12.074
  492MPD2    H1 7449   0.557   1.933  12.061
  492MPD2    H2 7450   0.624   1.736  12.428
  492MPD2    H3 7451   0.586   1.942  12.291
  492MPD2     N 7452   0.550   1.694  11.910
  492MPD2    H5 7453   0.541   1.603  11.867
  492MPD2    N1 7454   0.689   1.496  12.306
  492MPD2    H7 7455   0.699   1.416  12.244
  493MPD2     C 7456   1.346   1.603  12.681
  493MPD2    C1 7457   1.267   1.628  12.573
  493MPD2    C2 7458   1.255   1.753  12.511
  493MPD2    C3 7459   1.331   1.854  12.556
  493MPD2    C4 7460   1.419   1.830  12.666
  493MPD2    C5 7461   1.425   1.704  12.726
  493MPD2     H 7462   1.189   1.764  12.426
  493MPD2    H1 7463   1.487   1.907  12.700
  493MPD2    H2 7464   1.377   1.503  12.707
  493MPD2    H3 7465   1.491   1.684  12.809
  493MPD2     N 7466   1.339   1.972  12.483
  493MPD2    H5 7467   1.302   1.968  12.388
  493MPD2    N1 7468   1.180   1.531  12.529
  493MPD2    H7 7469   1.117   1.556  12.454
  494MPD2     C 7470   3.243   2.490  11.053
  494MPD2    C1 7471   3.308   2.409  11.141
  494MPD2    C2 7472   3.447   2.395  11.139
  494MPD2    C3 7473   3.518   2.444  11.031
  494MPD2    C4 7474   3.451   2.518  10.933
  494MPD2    C5 7475   3.314   2.549  10.945
  494MPD2     H 7476   3.501   2.337  11.213
  494MPD2    H1 7477   3.512   2.571  10.861
  494MPD2    H2 7478   3.135   2.493  11.057
  494MPD2    H3 7479   3.270   2.621  10.876
  494MPD2     N 7480   3.658   2.441  11.031
  494MPD2    H5 7481   3.692   2.412  11.122
  494MPD2    N1 7482   3.248   2.335  11.242
  494MPD2    H7 7483   3.311   2.291  11.308
  495MPD2     C 7484   2.673   1.536  11.158
  495MPD2    C1 7485   2.710   1.508  11.287
  495MPD2    C2 7486   2.776   1.606  11.359
  495MPD2    C3 7487   2.798   1.736  11.302
  495MPD2    C4 7488   2.766   1.762  11.170
  495MPD2    C5 7489   2.695   1.664  11.103
  495MPD2     H 7490   2.800   1.587  11.463
  495MPD2    H1 7491   2.783   1.854  11.116
  495MPD2    H2 7492   2.636   1.457  11.093
  495MPD2    H3 7493   2.667   1.687  11.001
  495MPD2     N 7494   2.864   1.831  11.386
  495MPD2    H5 7495   2.874   1.813  11.485
  495MPD2    N1 7496   2.696   1.377  11.342
  495MPD2    H7 7497   2.745   1.360  11.429
  496MPD2     C 7498   2.756   1.144   9.371
  496MPD2    C1 7499   2.626   1.128   9.404
  496MPD2    C2 7500   2.577   1.146   9.531
  496MPD2    C3 7501   2.668   1.174   9.634
  496MPD2    C4 7502   2.800   1.193   9.596
  496MPD2    C5 7503   2.844   1.193   9.465
  496MPD2     H 7504   2.469   1.142   9.536
  496MPD2    H1 7505   2.873   1.229   9.668
  496MPD2    H2 7506   2.783   1.146   9.266
  496MPD2    H3 7507   2.947   1.215   9.438
  496MPD2     N 7508   2.624   1.207   9.763
  496MPD2    H5 7509   2.524   1.215   9.778
  496MPD2    N1 7510   2.533   1.100   9.307
  496MPD2    H7 7511   2.434   1.099   9.329
  497MPD2     C 7512   4.487   1.690   9.255
  497MPD2    C1 7513   4.471   1.631   9.131
  497MPD2    C2 7514   4.361   1.554   9.113
  497MPD2    C3 7515   4.266   1.528   9.214
  497MPD2    C4 7516   4.285   1.595   9.335
  497MPD2    C5 7517   4.394   1.672   9.348
  497MPD2     H 7518   4.344   1.506   9.017
  497MPD2    H1 7519   4.222   1.581   9.422
  497MPD2    H2 7520   4.574   1.748   9.284
  497MPD2    H3 7521   4.417   1.714   9.445
  497MPD2     N 7522   4.183   1.417   9.201
  497MPD2    H5 7523   4.202   1.356   9.122
  497MPD2    N1 7524   4.574   1.661   9.038
  497MPD2    H7 7525   4.639   1.737   9.056
  498MPD2     C 7526   3.661   1.274   9.717
  498MPD2    C1 7527   3.763   1.187   9.718
  498MPD2    C2 7528   3.823   1.158   9.846
  498MPD2    C3 7529   3.795   1.237   9.956
  498MPD2    C4 7530   3.681   1.315   9.947
  498MPD2    C5 7531   3.628   1.344   9.829
  498MPD2     H 7532   3.894   1.077   9.853
  498MPD2    H1 7533   3.650   1.365  10.038
  498MPD2    H2 7534   3.618   1.295   9.620
  498MPD2    H3 7535   3.556   1.425   9.836
  498MPD2     N 7536   3.885   1.230  10.063
  498MPD2    H5 7537   3.960   1.166  10.039
  498MPD2    N1 7538   3.817   1.137   9.596
  498MPD2    H7 7539   3.770   1.173   9.513
  499MPD2     C 7540   4.567   1.412   9.593
  499MPD2    C1 7541   4.455   1.338   9.632
  499MPD2    C2 7542   4.421   1.226   9.554
  499MPD2    C3 7543   4.476   1.209   9.424
  499MPD2    C4 7544   4.577   1.297   9.380
  499MPD2    C5 7545   4.626   1.387   9.469
  499MPD2     H 7546   4.353   1.147   9.585
  499MPD2    H1 7547   4.619   1.277   9.282
  499MPD2    H2 7548   4.610   1.494   9.649
  499MPD2    H3 7549   4.705   1.452   9.432
  499MPD2     N 7550   4.426   1.114   9.338
  499MPD2    H5 7551   4.438   1.144   9.242
  499MPD2    N1 7552   4.397   1.362   9.761
  499MPD2    H7 7553   4.438   1.431   9.824
  500MPD2     C 7554   2.033   3.326  11.794
  500MPD2    C1 7555   1.998   3.223  11.712
  500MPD2    C2 7556   1.948   3.250  11.589
  500MPD2    C3 7557   1.909   3.377  11.552
  500MPD2    C4 7558   1.943   3.485  11.638
  500MPD2    C5 7559   2.006   3.457  11.756
  500MPD2     H 7560   1.925   3.170  11.520
  500MPD2    H1 7561   1.931   3.587  11.603
  500MPD2    H2 7562   2.090   3.312  11.885
  500MPD2    H3 7563   2.031   3.539  11.822
  500MPD2     N 7564   1.859   3.390  11.420
  500MPD2    H5 7565   1.834   3.301  11.378
  500MPD2    N1 7566   2.046   3.092  11.728
  500MPD2    H7 7567   2.135   3.080  11.775
  501MPD2     C 7568   2.679   3.002  11.665
  501MPD2    C1 7569   2.586   3.081  11.597
  501MPD2    C2 7570   2.610   3.215  11.598
  501MPD2    C3 7571   2.718   3.268  11.666
  501MPD2    C4 7572   2.798   3.194  11.747
  501MPD2    C5 7573   2.781   3.061  11.741
  501MPD2     H 7574   2.541   3.284  11.549
  501MPD2    H1 7575   2.871   3.236  11.814
  501MPD2    H2 7576   2.672   2.894  11.670
  501MPD2    H3 7577   2.838   2.996  11.807
  501MPD2     N 7578   2.762   3.403  11.674
  501MPD2    H5 7579   2.841   3.415  11.737
  501MPD2    N1 7580   2.472   3.024  11.541
  501MPD2    H7 7581   2.396   3.075  11.497
  502MPD2     C 7582   1.811   2.415  11.324
  502MPD2    C1 7583   1.948   2.432  11.359
  502MPD2    C2 7584   2.022   2.317  11.381
  502MPD2    C3 7585   1.960   2.192  11.374
  502MPD2    C4 7586   1.837   2.177  11.321
  502MPD2    C5 7587   1.758   2.290  11.301
  502MPD2     H 7588   2.118   2.321  11.432
  502MPD2    H1 7589   1.784   2.084  11.307
  502MPD2    H2 7590   1.754   2.506  11.306
  502MPD2    H3 7591   1.653   2.273  11.279
  502MPD2     N 7592   2.044   2.082  11.416
  502MPD2    H5 7593   2.143   2.102  11.428
  502MPD2    N1 7594   1.981   2.561  11.397
  502MPD2    H7 7595   1.912   2.635  11.399
  503MPD2     C 7596   3.332   3.098  10.841
  503MPD2    C1 7597   3.445   3.107  10.762
  503MPD2    C2 7598   3.566   3.060  10.815
  503MPD2    C3 7599   3.576   3.013  10.949
  503MPD2    C4 7600   3.462   3.008  11.028
  503MPD2    C5 7601   3.342   3.053  10.972
  503MPD2     H 7602   3.646   3.073  10.743
  503MPD2    H1 7603   3.463   2.988  11.134
  503MPD2    H2 7604   3.235   3.127  10.803
  503MPD2    H3 7605   3.247   3.052  11.025
  503MPD2     N 7606   3.691   2.963  11.008
  503MPD2    H5 7607   3.698   2.984  11.107
  503MPD2    N1 7608   3.430   3.150  10.628
  503MPD2    H7 7609   3.341   3.190  10.601
  504MPD2     C 7610   3.332   2.580  10.598
  504MPD2    C1 7611   3.374   2.709  10.588
  504MPD2    C2 7612   3.292   2.813  10.571
  504MPD2    C3 7613   3.155   2.794  10.571
  504MPD2    C4 7614   3.110   2.662  10.551
  504MPD2    C5 7615   3.198   2.561  10.574
  504MPD2     H 7616   3.332   2.913  10.566
  504MPD2    H1 7617   3.004   2.641  10.549
  504MPD2    H2 7618   3.389   2.492  10.626
  504MPD2    H3 7619   3.164   2.458  10.569
  504MPD2     N 7620   3.071   2.908  10.594
  504MPD2    H5 7621   3.119   2.997  10.593
  504MPD2    N1 7622   3.511   2.737  10.610
  504MPD2    H7 7623   3.538   2.834  10.623
  505MPD2     C 7624   4.353   0.843  12.642
  505MPD2    C1 7625   4.412   0.905  12.539
  505MPD2    C2 7626   4.548   0.905  12.521
  505MPD2    C3 7627   4.634   0.835  12.611
  505MPD2    C4 7628   4.564   0.779  12.722
  505MPD2    C5 7629   4.429   0.783  12.737
  505MPD2     H 7630   4.587   0.959  12.435
  505MPD2    H1 7631   4.621   0.726  12.797
  505MPD2    H2 7632   4.247   0.843  12.663
  505MPD2    H3 7633   4.381   0.735  12.822
  505MPD2     N 7634   4.775   0.841  12.604
  505MPD2    H5 7635   0.020   0.915  12.543
  505MPD2    N1 7636   4.319   0.978  12.451
  505MPD2    H7 7637   4.227   0.981  12.494
  506MPD2     C 7638   0.827   2.222  11.421
  506MPD2    C1 7639   0.736   2.161  11.339
  506MPD2    C2 7640   0.774   2.063  11.252
  506MPD2    C3 7641   0.909   2.043  11.224
  506MPD2    C4 7642   0.997   2.113  11.298
  506MPD2    C5 7643   0.959   2.193  11.398
  506MPD2     H 7644   0.700   2.016  11.188
  506MPD2    H1 7645   1.103   2.109  11.277
  506MPD2    H2 7646   0.796   2.304  11.485
  506MPD2    H3 7647   1.032   2.248  11.456
  506MPD2     N 7648   0.950   1.987  11.100
  506MPD2    H5 7649   1.036   2.011  11.051
  506MPD2    N1 7650   0.601   2.199  11.333
  506MPD2    H7 7651   0.529   2.133  11.306
  507MPD2     C 7652   0.138   2.810  11.111
  507MPD2    C1 7653   0.268   2.766  11.107
  507MPD2    C2 7654   0.373   2.854  11.122
  507MPD2    C3 7655   0.346   2.987  11.139
  507MPD2    C4 7656   0.217   3.036  11.137
  507MPD2    C5 7657   0.116   2.944  11.125
  507MPD2     H 7658   0.472   2.810  11.123
  507MPD2    H1 7659   0.192   3.141  11.144
  507MPD2    H2 7660   0.048   2.749  11.117
  507MPD2    H3 7661   0.015   2.984  11.119
  507MPD2     N 7662   0.445   3.083  11.147
  507MPD2    H5 7663   0.412   3.179  11.153
  507MPD2    N1 7664   0.308   2.633  11.096
  507MPD2    H7 7665   0.403   2.614  11.125
  508MPD2     C 7666   1.649   0.133  14.821
  508MPD2    C1 7667   1.635   0.267  14.819
  508MPD2    C2 7668   1.505   0.314  14.830
  508MPD2    C3 7669   1.394   0.230  14.833
  508MPD2    C4 7670   1.414   0.097  14.828
  508MPD2    C5 7671   1.543   0.045  14.819
  508MPD2     H 7672   1.490   0.421  14.830
  508MPD2    H1 7673   1.334   0.025  14.838
  508MPD2    H2 7674   1.742   0.078  14.829
  508MPD2    H3 7675   1.565   4.729  14.818
  508MPD2     N 7676   1.258   0.269  14.842
  508MPD2    H5 7677   1.189   0.195  14.849
  508MPD2    N1 7678   1.755   0.345  14.829
  508MPD2    H7 7679   1.846   0.301  14.820
  509MPD2     C 7680   1.820   1.126  14.840
  509MPD2    C1 7681   1.943   1.078  14.846
  509MPD2    C2 7682   2.049   1.154  14.795
  509MPD2    C3 7683   2.036   1.281  14.746
  509MPD2    C4 7684   1.906   1.324  14.726
  509MPD2    C5 7685   1.802   1.250  14.775
  509MPD2     H 7686   2.149   1.116  14.812
  509MPD2    H1 7687   1.891   1.419  14.677
  509MPD2    H2 7688   1.730   1.086  14.886
  509MPD2    H3 7689   1.701   1.287  14.760
  509MPD2     N 7690   2.156   1.351  14.725
  509MPD2    H5 7691   2.241   1.300  14.745
  509MPD2    N1 7692   1.958   0.949  14.902
  509MPD2    H7 7693   1.878   0.905  14.946
  510MPD2     C 7694   0.401   2.759  14.436
  510MPD2    C1 7695   0.371   2.894  14.455
  510MPD2    C2 7696   0.459   2.989  14.417
  510MPD2    C3 7697   0.588   2.953  14.377
  510MPD2    C4 7698   0.620   2.818  14.372
  510MPD2    C5 7699   0.526   2.727  14.392
  510MPD2     H 7700   0.418   3.089  14.427
  510MPD2    H1 7701   0.715   2.779  14.337
  510MPD2    H2 7702   0.336   2.682  14.477
  510MPD2    H3 7703   0.553   2.623  14.376
  510MPD2     N 7704   0.685   3.040  14.322
  510MPD2    H5 7705   0.762   2.997  14.272
  510MPD2    N1 7706   0.256   2.936  14.512
  510MPD2    H7 7707   0.244   3.035  14.530
  511MPD2     C 7708   0.890   3.121  15.155
  511MPD2    C1 7709   0.911   3.047  15.042
  511MPD2    C2 7710   0.839   3.078  14.929
  511MPD2    C3 7711   0.751   3.185  14.931
  511MPD2    C4 7712   0.713   3.248  15.048
  511MPD2    C5 7713   0.782   3.206  15.156
  511MPD2     H 7714   0.868   3.039  14.832
  511MPD2    H1 7715   0.630   3.318  15.042
  511MPD2    H2 7716   0.944   3.099  15.247
  511MPD2    H3 7717   0.771   3.264  15.247
  511MPD2     N 7718   0.702   3.214  14.805
  511MPD2    H5 7719   0.740   3.155  14.731
  511MPD2    N1 7720   1.014   2.953  15.037
  511MPD2    H7 7721   1.032   2.907  14.948
  512MPD2     C 7722   4.586   1.704  10.270
  512MPD2    C1 7723   4.594   1.576  10.245
  512MPD2    C2 7724   4.717   1.520  10.245
  512MPD2    C3 7725   0.047   1.594  10.263
  512MPD2    C4 7726   0.040   1.726  10.287
  512MPD2    C5 7727   4.706   1.779  10.293
  512MPD2     H 7728   4.746   1.416  10.241
  512MPD2    H1 7729   0.129   1.786  10.301
  512MPD2    H2 7730   4.491   1.755  10.278
  512MPD2    H3 7731   4.702   1.886  10.307
  512MPD2     N 7732   0.180   1.543  10.250
  512MPD2    H5 7733   0.247   1.614  10.279
  512MPD2    N1 7734   4.480   1.494  10.220
  512MPD2    H7 7735   4.492   1.403  10.177
  513MPD2     C 7736   0.341   3.511  11.349
  513MPD2    C1 7737   0.464   3.461  11.369
  513MPD2    C2 7738   0.470   3.348  11.453
  513MPD2    C3 7739   0.360   3.275  11.484
  513MPD2    C4 7740   0.234   3.329  11.465
  513MPD2    C5 7741   0.232   3.448  11.403
  513MPD2     H 7742   0.568   3.307  11.473
  513MPD2    H1 7743   0.133   3.297  11.488
  513MPD2    H2 7744   0.334   3.605  11.295
  513MPD2    H3 7745   0.131   3.484  11.384
  513MPD2     N 7746   0.380   3.144  11.533
  513MPD2    H5 7747   0.469   3.096  11.524
  513MPD2    N1 7748   0.568   3.528  11.311
  513MPD2    H7 7749   0.551   3.621  11.274
  514MPD2     C 7750   1.798   4.407  15.239
  514MPD2    C1 7751   1.821   4.290  15.167
  514MPD2    C2 7752   1.712   4.213  15.136
  514MPD2    C3 7753   1.583   4.259  15.159
  514MPD2    C4 7754   1.562   4.376  15.226
  514MPD2    C5 7755   1.674   4.442  15.271
  514MPD2     H 7756   1.714   4.121  15.078
  514MPD2    H1 7757   1.461   4.408  15.248
  514MPD2    H2 7758   1.883   4.468  15.266
  514MPD2    H3 7759   1.662   4.538  15.320
  514MPD2     N 7760   1.476   4.177  15.105
  514MPD2    H5 7761   1.503   4.091  15.059
  514MPD2    N1 7762   1.953   4.262  15.126
  514MPD2    H7 7763   2.019   4.333  15.157
  515MPD2     C 7764   3.688   0.481   7.745
  515MPD2    C1 7765   3.706   0.612   7.783
  515MPD2    C2 7766   3.596   0.669   7.852
  515MPD2    C3 7767   3.488   0.590   7.888
  515MPD2    C4 7768   3.478   0.460   7.850
  515MPD2    C5 7769   3.581   0.407   7.782
  515MPD2     H 7770   3.593   0.776   7.870
  515MPD2    H1 7771   3.401   0.391   7.884
  515MPD2    H2 7772   3.770   0.425   7.703
  515MPD2    H3 7773   3.578   0.304   7.749
  515MPD2     N 7774   3.383   0.649   7.959
  515MPD2    H5 7775   3.385   0.748   7.982
  515MPD2    N1 7776   3.821   0.680   7.731
  515MPD2    H7 7777   3.876   0.633   7.660
  516MPD2     C 7778   3.264   1.181   8.404
  516MPD2    C1 7779   3.318   1.056   8.389
  516MPD2    C2 7780   3.435   1.029   8.453
  516MPD2    C3 7781   3.495   1.127   8.535
  516MPD2    C4 7782   3.441   1.252   8.534
  516MPD2    C5 7783   3.325   1.280   8.470
  516MPD2     H 7784   3.474   0.928   8.444
  516MPD2    H1 7785   3.472   1.328   8.604
  516MPD2    H2 7786   3.179   1.214   8.346
  516MPD2    H3 7787   3.283   1.380   8.474
  516MPD2     N 7788   3.622   1.111   8.601
  516MPD2    H5 7789   3.652   1.192   8.655
  516MPD2    N1 7790   3.252   0.962   8.315
  516MPD2    H7 7791   3.296   0.871   8.307
  517MPD2     C 7792   2.305   0.872   7.928
  517MPD2    C1 7793   2.375   0.767   7.873
  517MPD2    C2 7794   2.508   0.749   7.885
  517MPD2    C3 7795   2.585   0.851   7.947
  517MPD2    C4 7796   2.520   0.961   7.992
  517MPD2    C5 7797   2.385   0.970   7.986
  517MPD2     H 7798   2.556   0.663   7.840
  517MPD2    H1 7799   2.575   1.050   8.021
  517MPD2    H2 7800   2.198   0.878   7.915
  517MPD2    H3 7801   2.347   1.065   8.023
  517MPD2     N 7802   2.727   0.847   7.976
  517MPD2    H5 7803   2.765   0.939   7.997
  517MPD2    N1 7804   2.293   0.681   7.792
  517MPD2    H7 7805   2.196   0.708   7.807
  518MPD2     C 7806   0.337   2.864  13.420
  518MPD2    C1 7807   0.341   2.853  13.283
  518MPD2    C2 7808   0.376   2.968  13.209
  518MPD2    C3 7809   0.426   3.078  13.276
  518MPD2    C4 7810   0.423   3.080  13.415
  518MPD2    C5 7811   0.367   2.976  13.492
  518MPD2     H 7812   0.397   2.953  13.104
  518MPD2    H1 7813   0.460   3.165  13.471
  518MPD2    H2 7814   0.290   2.789  13.482
  518MPD2    H3 7815   0.363   2.980  13.600
  518MPD2     N 7816   0.487   3.189  13.209
  518MPD2    H5 7817   0.540   3.247  13.274
  518MPD2    N1 7818   0.322   2.721  13.230
  518MPD2    H7 7819   0.323   2.639  13.289
  519MPD2     C 7820   0.378   1.789  13.514
  519MPD2    C1 7821   0.492   1.818  13.432
  519MPD2    C2 7822   0.497   1.940  13.360
  519MPD2    C3 7823   0.401   2.033  13.376
  519MPD2    C4 7824   0.290   2.011  13.457
  519MPD2    C5 7825   0.284   1.890  13.524
  519MPD2     H 7826   0.585   1.964  13.302
  519MPD2    H1 7827   0.206   2.079  13.463
  519MPD2    H2 7828   0.352   1.694  13.559
  519MPD2    H3 7829   0.191   1.868  13.576
  519MPD2     N 7830   0.414   2.147  13.297
  519MPD2    H5 7831   0.499   2.143  13.241
  519MPD2    N1 7832   0.598   1.731  13.426
  519MPD2    H7 7833   0.671   1.742  13.356
  520MPD2     C 7834   1.098   2.081  12.779
  520MPD2    C1 7835   1.137   2.133  12.898
  520MPD2    C2 7836   1.055   2.135  13.013
  520MPD2    C3 7837   0.923   2.094  13.003
  520MPD2    C4 7838   0.880   2.043  12.877
  520MPD2    C5 7839   0.967   2.042  12.775
  520MPD2     H 7840   1.104   2.164  13.105
  520MPD2    H1 7841   0.775   2.020  12.865
  520MPD2    H2 7842   1.151   2.074  12.685
  520MPD2    H3 7843   0.931   2.017  12.676
  520MPD2     N 7844   0.834   2.097  13.114
  520MPD2    H5 7845   0.751   2.040  13.102
  520MPD2    N1 7846   1.260   2.198  12.898
  520MPD2    H7 7847   1.317   2.175  12.818
  521MPD2     C 7848   1.094   3.889   9.090
  521MPD2    C1 7849   1.225   3.836   9.066
  521MPD2    C2 7850   1.246   3.736   8.966
  521MPD2    C3 7851   1.155   3.712   8.868
  521MPD2    C4 7852   1.029   3.768   8.887
  521MPD2    C5 7853   0.999   3.853   8.998
  521MPD2     H 7854   1.334   3.673   8.972
  521MPD2    H1 7855   0.954   3.755   8.809
  521MPD2    H2 7856   1.075   3.966   9.164
  521MPD2    H3 7857   0.904   3.905   9.002
  521MPD2     N 7858   1.190   3.625   8.768
  521MPD2    H5 7859   1.286   3.595   8.756
  521MPD2    N1 7860   1.328   3.854   9.158
  521MPD2    H7 7861   1.312   3.916   9.237
  522MPD2     C 7862   2.012   4.007   9.256
  522MPD2    C1 7863   1.981   3.893   9.327
  522MPD2    C2 7864   2.040   3.868   9.447
  522MPD2    C3 7865   2.127   3.957   9.499
  522MPD2    C4 7866   2.159   4.072   9.427
  522MPD2    C5 7867   2.099   4.100   9.309
  522MPD2     H 7868   2.009   3.786   9.510
  522MPD2    H1 7869   2.226   4.154   9.453
  522MPD2    H2 7870   1.972   4.019   9.156
  522MPD2    H3 7871   2.128   4.194   9.263
  522MPD2     N 7872   2.205   3.924   9.609
  522MPD2    H5 7873   2.195   3.829   9.644
  522MPD2    N1 7874   1.888   3.799   9.275
  522MPD2    H7 7875   1.838   3.837   9.196
  523MPD2     C 7876   1.355   3.416  10.024
  523MPD2    C1 7877   1.434   3.338   9.949
  523MPD2    C2 7878   1.476   3.386   9.828
  523MPD2    C3 7879   1.435   3.508   9.772
  523MPD2    C4 7880   1.351   3.576   9.851
  523MPD2    C5 7881   1.309   3.538   9.974
  523MPD2     H 7882   1.543   3.320   9.774
  523MPD2    H1 7883   1.305   3.663   9.804
  523MPD2    H2 7884   1.305   3.387  10.116
  523MPD2    H3 7885   1.228   3.592  10.022
  523MPD2     N 7886   1.480   3.541   9.640
  523MPD2    H5 7887   1.535   3.473   9.590
  523MPD2    N1 7888   1.473   3.212   9.999
  523MPD2    H7 7889   1.443   3.201  10.095
  524MPD2     C 7890   4.767   1.808   9.818
  524MPD2    C1 7891   0.013   1.840   9.690
  524MPD2    C2 7892   0.076   1.738   9.616
  524MPD2    C3 7893   0.089   1.608   9.672
  524MPD2    C4 7894   0.035   1.579   9.799
  524MPD2    C5 7895   4.776   1.683   9.878
  524MPD2     H 7896   0.123   1.769   9.523
  524MPD2    H1 7897   0.040   1.475   9.829
  524MPD2    H2 7898   4.712   1.878   9.880
  524MPD2    H3 7899   4.736   1.665   9.977
  524MPD2     N 7900   0.173   1.514   9.608
  524MPD2    H5 7901   0.153   1.417   9.632
  524MPD2    N1 7902   0.008   1.971   9.637
  524MPD2    H7 7903   4.781   2.048   9.701
  525MPD2     C 7904   0.008   1.366   8.744
  525MPD2    C1 7905   0.134   1.423   8.755
  525MPD2    C2 7906   0.220   1.390   8.858
  525MPD2    C3 7907   0.166   1.309   8.969
  525MPD2    C4 7908   0.036   1.247   8.952
  525MPD2    C5 7909   4.758   1.268   8.831
  525MPD2     H 7910   0.320   1.432   8.865
  525MPD2    H1 7911   0.001   1.171   9.021
  525MPD2    H2 7912   4.727   1.393   8.667
  525MPD2    H3 7913   4.670   1.206   8.820
  525MPD2     N 7914   0.248   1.296   9.084
  525MPD2    H5 7915   0.328   1.358   9.080
  525MPD2    N1 7916   0.177   1.511   8.656
  525MPD2    H7 7917   0.115   1.528   8.577
  526MPD2     C 7918   0.555   1.853   9.170
  526MPD2    C1 7919   0.512   1.724   9.135
  526MPD2    C2 7920   0.419   1.709   9.036
  526MPD2    C3 7921   0.363   1.818   8.975
  526MPD2    C4 7922   0.413   1.948   9.004
  526MPD2    C5 7923   0.511   1.958   9.095
  526MPD2     H 7924   0.376   1.611   9.017
  526MPD2    H1 7925   0.364   2.034   8.960
  526MPD2    H2 7926   0.620   1.872   9.255
  526MPD2    H3 7927   0.547   2.059   9.112
  526MPD2     N 7928   0.250   1.791   8.901
  526MPD2    H5 7929   0.206   1.700   8.910
  526MPD2    N1 7930   0.558   1.617   9.214
  526MPD2    H7 7931   0.599   1.631   9.306
  527MPD2     C 7932   2.271   4.539   9.892
  527MPD2    C1 7933   2.305   4.431   9.822
  527MPD2    C2 7934   2.430   4.377   9.823
  527MPD2    C3 7935   2.522   4.441   9.905
  527MPD2    C4 7936   2.483   4.540   9.984
  527MPD2    C5 7937   2.357   4.594   9.974
  527MPD2     H 7938   2.447   4.296   9.754
  527MPD2    H1 7939   2.548   4.590  10.055
  527MPD2    H2 7940   2.168   4.572   9.897
  527MPD2    H3 7941   2.318   4.668  10.044
  527MPD2     N 7942   2.654   4.400   9.928
  527MPD2    H5 7943   2.702   4.427  10.013
  527MPD2    N1 7944   2.204   4.358   9.760
  527MPD2    H7 7945   2.236   4.268   9.725
  528MPD2     C 7946   3.584   3.834   9.690
  528MPD2    C1 7947   3.587   3.967   9.646
  528MPD2    C2 7948   3.473   4.050   9.665
  528MPD2    C3 7949   3.357   4.003   9.726
  528MPD2    C4 7950   3.360   3.876   9.776
  528MPD2    C5 7951   3.466   3.791   9.750
  528MPD2     H 7952   3.462   4.148   9.621
  528MPD2    H1 7953   3.276   3.835   9.830
  528MPD2    H2 7954   3.668   3.768   9.671
  528MPD2    H3 7955   3.458   3.690   9.788
  528MPD2     N 7956   3.258   4.095   9.758
  528MPD2    H5 7957   3.276   4.193   9.739
  528MPD2    N1 7958   3.702   3.999   9.569
  528MPD2    H7 7959   3.775   3.929   9.568
  529MPD2     C 7960   0.149   1.202  10.500
  529MPD2    C1 7961   0.093   1.081  10.540
  529MPD2    C2 7962   0.174   0.984  10.605
  529MPD2    C3 7963   0.307   1.014  10.638
  529MPD2    C4 7964   0.358   1.137  10.603
  529MPD2    C5 7965   0.277   1.227  10.541
  529MPD2     H 7966   0.123   0.889  10.616
  529MPD2    H1 7967   0.460   1.165  10.626
  529MPD2    H2 7968   0.093   1.275  10.443
  529MPD2    H3 7969   0.319   1.321  10.507
  529MPD2     N 7970   0.379   0.904  10.683
  529MPD2    H5 7971   0.333   0.815  10.698
  529MPD2    N1 7972   4.750   1.044  10.507
  529MPD2    H7 7973   4.712   0.960  10.549
  530MPD2     C 7974   4.282   0.917   9.939
  530MPD2    C1 7975   4.308   1.019  10.023
  530MPD2    C2 7976   4.430   1.092  10.009
  530MPD2    C3 7977   4.508   1.068   9.907
  530MPD2    C4 7978   4.477   0.966   9.821
  530MPD2    C5 7979   4.370   0.884   9.844
  530MPD2     H 7980   4.459   1.165  10.084
  530MPD2    H1 7981   4.543   0.935   9.741
  530MPD2    H2 7982   4.190   0.860   9.943
  530MPD2    H3 7983   4.352   0.801   9.776
  530MPD2     N 7984   4.635   1.136   9.887
  530MPD2    H5 7985   4.703   1.086   9.831
  530MPD2    N1 7986   4.217   1.041  10.126
  530MPD2    H7 7987   4.125   1.005  10.104
  531MPD2     C 7988   4.353   1.331  10.934
  531MPD2    C1 7989   4.463   1.356  10.854
  531MPD2    C2 7990   4.589   1.383  10.900
  531MPD2    C3 7991   4.617   1.348  11.037
  531MPD2    C4 7992   4.509   1.327  11.117
  531MPD2    C5 7993   4.381   1.315  11.067
  531MPD2     H 7994   4.667   1.391  10.825
  531MPD2    H1 7995   4.523   1.293  11.219
  531MPD2    H2 7996   4.252   1.318  10.897
  531MPD2    H3 7997   4.309   1.278  11.140
  531MPD2     N 7998   4.747   1.325  11.082
  531MPD2    H5 7999   4.745   1.274  11.170
  531MPD2    N1 8000   4.456   1.349  10.719
  531MPD2    H7 8001   4.546   1.359  10.672
  532MPD2     C 8002   1.704   0.401   7.953
  532MPD2    C1 8003   1.712   0.319   7.844
  532MPD2    C2 8004   1.592   0.256   7.806
  532MPD2    C3 8005   1.474   0.263   7.887
  532MPD2    C4 8006   1.486   0.342   7.996
  532MPD2    C5 8007   1.596   0.412   8.029
  532MPD2     H 8008   1.601   0.195   7.717
  532MPD2    H1 8009   1.404   0.353   8.067
  532MPD2    H2 8010   1.779   0.470   7.990
  532MPD2    H3 8011   1.586   0.470   8.120
  532MPD2     N 8012   1.364   0.177   7.855
  532MPD2    H5 8013   1.385   0.098   7.794
  532MPD2    N1 8014   1.823   0.307   7.759
  532MPD2    H7 8015   1.814   0.287   7.660
  533MPD2     C 8016   0.499   0.019  10.980
  533MPD2    C1 8017   0.379   4.766  11.031
  533MPD2    C2 8018   0.262   4.782  10.964
  533MPD2    C3 8019   0.261   0.032  10.833
  533MPD2    C4 8020   0.383   0.075  10.786
  533MPD2    C5 8021   0.502   0.071  10.858
  533MPD2     H 8022   0.174   4.756  11.022
  533MPD2    H1 8023   0.393   0.123  10.689
  533MPD2    H2 8024   0.591   0.021  11.038
  533MPD2    H3 8025   0.592   0.097  10.804
  533MPD2     N 8026   0.148   0.028  10.753
  533MPD2    H5 8027   0.167   0.040  10.654
  533MPD2    N1 8028   0.371   4.717  11.164
  533MPD2    H7 8029   0.276   4.697  11.193
  534MPD2     C 8030   0.898   0.084  11.726
  534MPD2    C1 8031   0.839   4.748  11.749
  534MPD2    C2 8032   0.922   4.651  11.803
  534MPD2    C3 8033   1.048   4.674  11.850
  534MPD2    C4 8034   1.099   0.011  11.827
  534MPD2    C5 8035   1.019   0.106  11.765
  534MPD2     H 8036   0.879   4.552  11.816
  534MPD2    H1 8037   1.203   0.024  11.856
  534MPD2    H2 8038   0.845   0.162  11.673
  534MPD2    H3 8039   1.064   0.200  11.737
  534MPD2     N 8040   1.123   4.566  11.902
  534MPD2    H5 8041   1.082   4.473  11.906
  534MPD2    N1 8042   0.707   4.710  11.711
  534MPD2    H7 8043   0.675   4.618  11.741
  535MPD2     C 8044   4.114   1.473   7.705
  535MPD2    C1 8045   4.030   1.387   7.775
  535MPD2    C2 8046   3.954   1.434   7.878
  535MPD2    C3 8047   3.981   1.559   7.943
  535MPD2    C4 8048   4.072   1.640   7.877
  535MPD2    C5 8049   4.132   1.599   7.761
  535MPD2     H 8050   3.892   1.368   7.937
  535MPD2    H1 8051   4.098   1.732   7.927
  535MPD2    H2 8052   4.181   1.444   7.625
  535MPD2    H3 8053   4.202   1.668   7.716
  535MPD2     N 8054   3.931   1.583   8.065
  535MPD2    H5 8055   3.886   1.505   8.113
  535MPD2    N1 8056   4.023   1.247   7.736
  535MPD2    H7 8057   3.944   1.199   7.777
  536MPD2     C 8058   4.228   0.361   7.123
  536MPD2    C1 8059   4.127   0.432   7.068
  536MPD2    C2 8060   4.071   0.535   7.143
  536MPD2    C3 8061   4.129   0.569   7.268
  536MPD2    C4 8062   4.229   0.499   7.320
  536MPD2    C5 8063   4.283   0.396   7.243
  536MPD2     H 8064   3.983   0.590   7.111
  536MPD2    H1 8065   4.277   0.518   7.416
  536MPD2    H2 8066   4.285   0.285   7.071
  536MPD2    H3 8067   4.367   0.341   7.285
  536MPD2     N 8068   4.081   0.692   7.325
  536MPD2    H5 8069   3.988   0.726   7.301
  536MPD2    N1 8070   4.087   0.379   6.938
  536MPD2    H7 8071   4.135   0.301   6.895
  537MPD2     C 8072   1.536   4.698   7.705
  537MPD2    C1 8073   1.435   4.650   7.786
  537MPD2    C2 8074   1.302   4.685   7.744
  537MPD2    C3 8075   1.284   4.760   7.627
  537MPD2    C4 8076   1.393   0.016   7.552
  537MPD2    C5 8077   1.513   4.773   7.594
  537MPD2     H 8078   1.216   4.650   7.801
  537MPD2    H1 8079   1.380   0.062   7.455
  537MPD2    H2 8080   1.641   4.696   7.732
  537MPD2    H3 8081   1.601   0.006   7.536
  537MPD2     N 8082   1.154   0.017   7.586
  537MPD2    H5 8083   1.157   0.092   7.517
  537MPD2    N1 8084   1.456   4.575   7.900
  537MPD2    H7 8085   1.372   4.535   7.941
  538MPD2     C 8086   4.090   3.778   8.517
  538MPD2    C1 8087   4.085   3.912   8.516
  538MPD2    C2 8088   4.129   3.974   8.403
  538MPD2    C3 8089   4.182   3.906   8.294
  538MPD2    C4 8090   4.200   3.770   8.291
  538MPD2    C5 8091   4.143   3.707   8.406
  538MPD2     H 8092   4.119   4.082   8.405
  538MPD2    H1 8093   4.244   3.709   8.213
  538MPD2    H2 8094   4.054   3.712   8.595
  538MPD2    H3 8095   4.143   3.599   8.403
  538MPD2     N 8096   4.207   3.985   8.187
  538MPD2    H5 8097   4.198   4.085   8.199
  538MPD2    N1 8098   4.023   3.994   8.614
  538MPD2    H7 8099   4.031   4.095   8.605
  539MPD2     C 8100   4.728   4.209   7.420
  539MPD2    C1 8101   4.745   4.130   7.535
  539MPD2    C2 8102   4.634   4.089   7.606
  539MPD2    C3 8103   4.510   4.129   7.561
  539MPD2    C4 8104   4.497   4.203   7.448
  539MPD2    C5 8105   4.602   4.245   7.379
  539MPD2     H 8106   4.640   4.025   7.693
  539MPD2    H1 8107   4.403   4.237   7.406
  539MPD2    H2 8108   0.021   4.242   7.358
  539MPD2    H3 8109   4.582   4.291   7.283
  539MPD2     N 8110   4.396   4.096   7.643
  539MPD2    H5 8111   4.423   4.059   7.733
  539MPD2    N1 8112   0.084   4.075   7.551
  539MPD2    H7 8113   0.157   4.105   7.486
  540MPD2     C 8114   0.367   0.642  12.429
  540MPD2    C1 8115   0.394   0.524  12.364
  540MPD2    C2 8116   0.330   0.497  12.243
  540MPD2    C3 8117   0.249   0.594  12.191
  540MPD2    C4 8118   0.225   0.712  12.256
  540MPD2    C5 8119   0.281   0.730  12.375
  540MPD2     H 8120   0.353   0.402  12.196
  540MPD2    H1 8121   0.173   0.791  12.204
  540MPD2    H2 8122   0.403   0.676  12.526
  540MPD2    H3 8123   0.258   0.819  12.432
  540MPD2     N 8124   0.181   0.579  12.061
  540MPD2    H5 8125   0.119   0.657  12.041
  540MPD2    N1 8126   0.478   0.421  12.416
  540MPD2    H7 8127   0.502   0.346  12.352
  541MPD2     C 8128   0.297   4.740  12.734
  541MPD2    C1 8129   0.367   0.048  12.666
  541MPD2    C2 8130   0.434   0.016  12.546
  541MPD2    C3 8131   0.444   4.676  12.497
  541MPD2    C4 8132   0.379   4.582  12.570
  541MPD2    C5 8133   0.303   4.613  12.680
  541MPD2     H 8134   0.481   0.094  12.486
  541MPD2    H1 8135   0.369   4.479  12.536
  541MPD2    H2 8136   0.232   4.757  12.819
  541MPD2    H3 8137   0.250   4.528  12.721
  541MPD2     N 8138   0.523   4.655  12.377
  541MPD2    H5 8139   0.543   4.743  12.330
  541MPD2    N1 8140   0.353   0.181  12.695
  541MPD2    H7 8141   0.411   0.245  12.642
  542MPD2     C 8142   3.000   1.223  11.808
  542MPD2    C1 8143   3.047   1.303  11.915
  542MPD2    C2 8144   3.115   1.237  12.018
  542MPD2    C3 8145   3.122   1.100  12.029
  542MPD2    C4 8146   3.083   1.020  11.919
  542MPD2    C5 8147   3.015   1.086  11.815
  542MPD2     H 8148   3.150   1.298  12.100
  542MPD2    H1 8149   3.078   0.912  11.928
  542MPD2    H2 8150   2.978   1.254  11.707
  542MPD2    H3 8151   2.982   1.026  11.731
  542MPD2     N 8152   3.198   1.036  12.131
  542MPD2    H5 8153   3.201   0.935  12.123
  542MPD2    N1 8154   3.036   1.443  11.902
  542MPD2    H7 8155   2.981   1.473  11.822
  543MPD2     C 8156   3.396   2.073  11.978
  543MPD2    C1 8157   3.315   1.986  11.909
  543MPD2    C2 8158   3.370   1.873  11.855
  543MPD2    C3 8159   3.503   1.839  11.878
  543MPD2    C4 8160   3.583   1.924  11.943
  543MPD2    C5 8161   3.534   2.043  11.996
  543MPD2     H 8162   3.313   1.804  11.794
  543MPD2    H1 8163   3.690   1.905  11.946
  543MPD2    H2 8164   3.353   2.159  12.028
  543MPD2    H3 8165   3.598   2.116  12.044
  543MPD2     N 8166   3.555   1.712  11.849
  543MPD2    H5 8167   3.636   1.691  11.906
  543MPD2    N1 8168   3.177   1.974  11.934
  543MPD2    H7 8169   3.134   1.893  11.889
  544MPD2     C 8170   2.568   1.620  11.639
  544MPD2    C1 8171   2.635   1.673  11.753
  544MPD2    C2 8172   2.636   1.600  11.868
  544MPD2    C3 8173   2.599   1.468  11.867
  544MPD2    C4 8174   2.537   1.417  11.755
  544MPD2    C5 8175   2.512   1.498  11.645
  544MPD2     H 8176   2.672   1.636  11.964
  544MPD2    H1 8177   2.493   1.319  11.738
  544MPD2    H2 8178   2.552   1.687  11.556
  544MPD2    H3 8179   2.481   1.466  11.546
  544MPD2     N 8180   2.638   1.382  11.978
  544MPD2    H5 8181   2.661   1.423  12.068
  544MPD2    N1 8182   2.682   1.808  11.740
  544MPD2    H7 8183   2.641   1.852  11.659
  545MPD2     C 8184   0.026   3.316   6.452
  545MPD2    C1 8185   4.739   3.336   6.344
  545MPD2    C2 8186   4.736   3.457   6.294
  545MPD2    C3 8187   0.018   3.568   6.340
  545MPD2    C4 8188   0.093   3.545   6.458
  545MPD2    C5 8189   0.099   3.414   6.510
  545MPD2     H 8190   4.666   3.479   6.214
  545MPD2    H1 8191   0.126   3.629   6.517
  545MPD2    H2 8192   0.010   3.218   6.495
  545MPD2    H3 8193   0.164   3.389   6.593
  545MPD2     N 8194   0.014   3.704   6.294
  545MPD2    H5 8195   0.077   3.774   6.333
  545MPD2    N1 8196   4.672   3.224   6.298
  545MPD2    H7 8197   4.680   3.140   6.355
  546MPD2     C 8198   4.468   2.316   6.580
  546MPD2    C1 8199   4.422   2.438   6.622
  546MPD2    C2 8200   4.449   2.550   6.541
  546MPD2    C3 8201   4.507   2.540   6.413
  546MPD2    C4 8202   4.532   2.410   6.370
  546MPD2    C5 8203   4.525   2.303   6.456
  546MPD2     H 8204   4.420   2.645   6.585
  546MPD2    H1 8205   4.586   2.389   6.279
  546MPD2    H2 8206   4.454   2.229   6.642
  546MPD2    H3 8207   4.556   2.205   6.423
  546MPD2     N 8208   4.523   2.650   6.324
  546MPD2    H5 8209   4.548   2.627   6.228
  546MPD2    N1 8210   4.372   2.431   6.757
  546MPD2    H7 8211   4.352   2.343   6.803
  547MPD2     C 8212   0.676   4.101  11.336
  547MPD2    C1 8213   0.576   4.023  11.290
  547MPD2    C2 8214   0.596   3.963  11.168
  547MPD2    C3 8215   0.701   3.990  11.087
  547MPD2    C4 8216   0.808   4.062  11.139
  547MPD2    C5 8217   0.793   4.121  11.259
  547MPD2     H 8218   0.523   3.904  11.115
  547MPD2    H1 8219   0.900   4.065  11.081
  547MPD2    H2 8220   0.675   4.153  11.431
  547MPD2    H3 8221   0.871   4.181  11.305
  547MPD2     N 8222   0.688   3.937  10.959
  547MPD2    H5 8223   0.600   3.893  10.934
  547MPD2    N1 8224   0.453   4.012  11.364
  547MPD2    H7 8225   0.447   4.087  11.432
  548MPD2     C 8226   0.623   4.592  10.475
  548MPD2    C1 8227   0.648   4.464  10.428
  548MPD2    C2 8228   0.703   4.453  10.304
  548MPD2    C3 8229   0.750   4.567  10.234
  548MPD2    C4 8230   0.735   4.693  10.284
  548MPD2    C5 8231   0.663   4.698  10.402
  548MPD2     H 8232   0.723   4.358  10.257
  548MPD2    H1 8233   0.752   0.001  10.241
  548MPD2    H2 8234   0.575   4.609  10.570
  548MPD2    H3 8235   0.645   0.004  10.449
  548MPD2     N 8236   0.823   4.543  10.112
  548MPD2    H5 8237   0.839   4.450  10.074
  548MPD2    N1 8238   0.632   4.362  10.522
  548MPD2    H7 8239   0.588   4.390  10.609
  549MPD2     C 8240   4.585   1.355  13.734
  549MPD2    C1 8241   4.459   1.388  13.769
  549MPD2    C2 8242   4.416   1.337  13.891
  549MPD2    C3 8243   4.490   1.259  13.977
  549MPD2    C4 8244   4.614   1.235  13.944
  549MPD2    C5 8245   4.666   1.288  13.824
  549MPD2     H 8246   4.311   1.358  13.905
  549MPD2    H1 8247   4.672   1.170  14.009
  549MPD2    H2 8248   4.623   1.365  13.633
  549MPD2    H3 8249   4.763   1.253  13.791
  549MPD2     N 8250   4.436   1.197  14.089
  549MPD2    H5 8251   4.497   1.134  14.140
  549MPD2    N1 8252   4.366   1.451  13.680
  549MPD2    H7 8253   4.267   1.439  13.698
  550MPD2     C 8254   3.499   1.225  14.046
  550MPD2    C1 8255   3.521   1.100  14.088
  550MPD2    C2 8256   3.640   1.082  14.150
  550MPD2    C3 8257   3.741   1.172  14.158
  550MPD2    C4 8258   3.721   1.299  14.119
  550MPD2    C5 8259   3.597   1.324  14.061
  550MPD2     H 8260   3.656   0.982  14.190
  550MPD2    H1 8261   3.785   1.384  14.139
  550MPD2    H2 8262   3.418   1.247  13.978
  550MPD2    H3 8263   3.588   1.427  14.028
  550MPD2     N 8264   3.869   1.154  14.218
  550MPD2    H5 8265   3.939   1.226  14.204
  550MPD2    N1 8266   3.426   1.004  14.064
  550MPD2    H7 8267   3.334   1.046  14.055
  551MPD2     C 8268   3.260   3.961   9.411
  551MPD2    C1 8269   3.240   4.056   9.319
  551MPD2    C2 8270   3.331   4.067   9.217
  551MPD2    C3 8271   3.453   4.012   9.223
  551MPD2    C4 8272   3.476   3.923   9.320
  551MPD2    C5 8273   3.371   3.885   9.399
  551MPD2     H 8274   3.302   4.130   9.134
  551MPD2    H1 8275   3.568   3.866   9.325
  551MPD2    H2 8276   3.195   3.942   9.496
  551MPD2    H3 8277   3.373   3.801   9.467
  551MPD2     N 8278   3.549   4.055   9.122
  551MPD2    H5 8279   3.520   4.131   9.061
  551MPD2    N1 8280   3.115   4.110   9.303
  551MPD2    H7 8281   3.084   4.136   9.210
  552MPD2     C 8282   1.154   3.494  15.041
  552MPD2    C1 8283   1.174   3.549  14.917
  552MPD2    C2 8284   1.193   3.466  14.810
  552MPD2    C3 8285   1.180   3.329  14.827
  552MPD2    C4 8286   1.164   3.273  14.952
  552MPD2    C5 8287   1.144   3.359  15.057
  552MPD2     H 8288   1.221   3.487  14.707
  552MPD2    H1 8289   1.155   3.165  14.961
  552MPD2    H2 8290   1.141   3.560  15.126
  552MPD2    H3 8291   1.122   3.320  15.156
  552MPD2     N 8292   1.200   3.258  14.709
  552MPD2    H5 8293   1.244   3.302  14.629
  552MPD2    N1 8294   1.182   3.688  14.898
  552MPD2    H7 8295   1.175   3.726  14.804
  553MPD2     C 8296   1.703   2.732   9.395
  553MPD2    C1 8297   1.728   2.842   9.470
  553MPD2    C2 8298   1.654   2.859   9.576
  553MPD2    C3 8299   1.561   2.770   9.618
  553MPD2    C4 8300   1.532   2.657   9.543
  553MPD2    C5 8301   1.608   2.643   9.432
  553MPD2     H 8302   1.679   2.933   9.652
  553MPD2    H1 8303   1.462   2.580   9.575
  553MPD2    H2 8304   1.759   2.713   9.304
  553MPD2    H3 8305   1.608   2.554   9.370
  553MPD2     N 8306   1.491   2.800   9.731
  553MPD2    H5 8307   1.493   2.894   9.769
  553MPD2    N1 8308   1.847   2.918   9.440
  553MPD2    H7 8309   1.892   2.895   9.352
  554MPD2     C 8310   3.691   2.722  11.315
  554MPD2    C1 8311   3.680   2.692  11.453
  554MPD2    C2 8312   3.555   2.667  11.502
  554MPD2    C3 8313   3.441   2.669  11.418
  554MPD2    C4 8314   3.458   2.698  11.285
  554MPD2    C5 8315   3.581   2.725  11.239
  554MPD2     H 8316   3.541   2.632  11.604
  554MPD2    H1 8317   3.375   2.689  11.216
  554MPD2    H2 8318   3.791   2.736  11.276
  554MPD2    H3 8319   3.585   2.734  11.131
  554MPD2     N 8320   3.321   2.625  11.474
  554MPD2    H5 8321   3.334   2.580  11.564
  554MPD2    N1 8322   3.797   2.667  11.524
  554MPD2    H7 8323   3.885   2.651  11.475
  555MPD2     C 8324   4.331   2.453  12.102
  555MPD2    C1 8325   4.203   2.495  12.127
  555MPD2    C2 8326   4.170   2.547  12.252
  555MPD2    C3 8327   4.266   2.561  12.350
  555MPD2    C4 8328   4.394   2.525  12.318
  555MPD2    C5 8329   4.427   2.472  12.198
  555MPD2     H 8330   4.067   2.567  12.278
  555MPD2    H1 8331   4.481   2.548  12.378
  555MPD2    H2 8332   4.356   2.407  12.007
  555MPD2    H3 8333   4.531   2.446  12.183
  555MPD2     N 8334   4.226   2.623  12.467
  555MPD2    H5 8335   4.127   2.640  12.480
  555MPD2    N1 8336   4.109   2.476  12.023
  555MPD2    H7 8337   4.141   2.449  11.930
  556MPD2     C 8338   3.425   2.988  13.338
  556MPD2    C1 8339   3.311   2.908  13.345
  556MPD2    C2 8340   3.188   2.974  13.332
  556MPD2    C3 8341   3.176   3.117  13.325
  556MPD2    C4 8342   3.290   3.189  13.324
  556MPD2    C5 8343   3.413   3.124  13.323
  556MPD2     H 8344   3.098   2.917  13.352
  556MPD2    H1 8345   3.287   3.297  13.320
  556MPD2    H2 8346   3.524   2.943  13.341
  556MPD2    H3 8347   3.501   3.186  13.306
  556MPD2     N 8348   3.059   3.184  13.355
  556MPD2    H5 8349   3.057   3.284  13.369
  556MPD2    N1 8350   3.304   2.764  13.359
  556MPD2    H7 8351   3.211   2.725  13.371
  557MPD2     C 8352   4.588   2.032  12.473
  557MPD2    C1 8353   4.576   2.029  12.337
  557MPD2    C2 8354   4.663   1.962  12.253
  557MPD2    C3 8355   4.776   1.905  12.306
  557MPD2    C4 8356   4.783   1.909  12.447
  557MPD2    C5 8357   4.695   1.974  12.532
  557MPD2     H 8358   4.660   1.963  12.145
  557MPD2    H1 8359   0.067   1.842  12.491
  557MPD2    H2 8360   4.510   2.065  12.540
  557MPD2    H3 8361   4.704   1.964  12.640
  557MPD2     N 8362   0.074   1.837  12.219
  557MPD2    H5 8363   0.048   1.834  12.121
  557MPD2    N1 8364   4.447   2.060  12.275
  557MPD2    H7 8365   4.431   2.030  12.179
  558MPD2     C 8366   2.343   1.862  14.913
  558MPD2    C1 8367   2.368   1.918  14.796
  558MPD2    C2 8368   2.266   1.926  14.701
  558MPD2    C3 8369   2.147   1.868  14.719
  558MPD2    C4 8370   2.120   1.821  14.848
  558MPD2    C5 8371   2.218   1.821  14.940
  558MPD2     H 8372   2.285   1.970  14.604
  558MPD2    H1 8373   2.029   1.769  14.877
  558MPD2    H2 8374   2.410   1.880  14.996
  558MPD2    H3 8375   2.188   1.783  15.037
  558MPD2     N 8376   2.054   1.856  14.607
  558MPD2    H5 8377   2.096   1.880  14.518
  558MPD2    N1 8378   2.492   1.975  14.760
  558MPD2    H7 8379   2.501   2.027  14.674
  559MPD2     C 8380   1.190   1.870  14.903
  559MPD2    C1 8381   1.321   1.895  14.940
  559MPD2    C2 8382   1.418   1.881  14.844
  559MPD2    C3 8383   1.385   1.840  14.715
  559MPD2    C4 8384   1.255   1.810  14.680
  559MPD2    C5 8385   1.156   1.825  14.777
  559MPD2     H 8386   1.525   1.897  14.856
  559MPD2    H1 8387   1.222   1.765  14.587
  559MPD2    H2 8388   1.110   1.897  14.971
  559MPD2    H3 8389   1.050   1.809  14.759
  559MPD2     N 8390   1.497   1.817  14.626
  559MPD2    H5 8391   1.589   1.834  14.664
  559MPD2    N1 8392   1.338   1.947  15.074
  559MPD2    H7 8393   1.255   1.935  15.132
  560MPD2     C 8394   2.003   0.918  11.927
  560MPD2    C1 8395   2.039   0.781  11.946
  560MPD2    C2 8396   1.938   0.687  11.928
  560MPD2    C3 8397   1.807   0.718  11.900
  560MPD2    C4 8398   1.773   0.851  11.886
  560MPD2    C5 8399   1.870   0.942  11.890
  560MPD2     H 8400   1.952   0.580  11.932
  560MPD2    H1 8401   1.676   0.888  11.855
  560MPD2    H2 8402   2.068   1.005  11.935
  560MPD2    H3 8403   1.844   1.044  11.864
  560MPD2     N 8404   1.716   0.610  11.902
  560MPD2    H5 8405   1.758   0.517  11.899
  560MPD2    N1 8406   2.164   0.746  11.999
  560MPD2    H7 8407   2.243   0.809  11.988
  561MPD2     C 8408   3.201   3.303   8.572
  561MPD2    C1 8409   3.147   3.351   8.453
  561MPD2    C2 8410   3.232   3.429   8.375
  561MPD2    C3 8411   3.354   3.480   8.415
  561MPD2    C4 8412   3.398   3.437   8.539
  561MPD2    C5 8413   3.330   3.341   8.609
  561MPD2     H 8414   3.203   3.440   8.271
  561MPD2    H1 8415   3.499   3.460   8.570
  561MPD2    H2 8416   3.144   3.240   8.639
  561MPD2    H3 8417   3.373   3.303   8.701
  561MPD2     N 8418   3.446   3.549   8.326
  561MPD2    H5 8419   3.540   3.557   8.364
  561MPD2    N1 8420   3.020   3.310   8.413
  561MPD2    H7 8421   2.976   3.248   8.481
  562MPD2     C 8422   2.715   3.861   8.817
  562MPD2    C1 8423   2.821   3.789   8.772
  562MPD2    C2 8424   2.813   3.701   8.658
  562MPD2    C3 8425   2.691   3.686   8.594
  562MPD2    C4 8426   2.579   3.747   8.655
  562MPD2    C5 8427   2.593   3.829   8.763
  562MPD2     H 8428   2.899   3.644   8.625
  562MPD2    H1 8429   2.476   3.728   8.626
  562MPD2    H2 8430   2.729   3.933   8.897
  562MPD2    H3 8431   2.511   3.888   8.802
  562MPD2     N 8432   2.687   3.587   8.493
  562MPD2    H5 8433   2.778   3.555   8.460
  562MPD2    N1 8434   2.953   3.803   8.818
  562MPD2    H7 8435   3.029   3.766   8.763
  563MPD2     C 8436   0.746   1.262  10.601
  563MPD2    C1 8437   0.702   1.325  10.718
  563MPD2    C2 8438   0.770   1.445  10.744
  563MPD2    C3 8439   0.882   1.490  10.679
  563MPD2    C4 8440   0.931   1.414  10.572
  563MPD2    C5 8441   0.856   1.304  10.533
  563MPD2     H 8442   0.728   1.512  10.818
  563MPD2    H1 8443   1.014   1.429  10.503
  563MPD2    H2 8444   0.699   1.172  10.562
  563MPD2    H3 8445   0.890   1.254  10.443
  563MPD2     N 8446   0.940   1.605  10.722
  563MPD2    H5 8447   0.900   1.644  10.807
  563MPD2    N1 8448   0.599   1.265  10.799
  563MPD2    H7 8449   0.563   1.172  10.778
  564MPD2     C 8450   0.000   4.463  13.020
  564MPD2    C1 8451   4.729   4.571  12.958
  564MPD2    C2 8452   4.722   4.573  12.818
  564MPD2    C3 8453   4.772   4.463  12.745
  564MPD2    C4 8454   0.041   4.358  12.810
  564MPD2    C5 8455   0.047   4.355  12.946
  564MPD2     H 8456   4.675   4.657  12.768
  564MPD2    H1 8457   0.087   4.274  12.759
  564MPD2    H2 8458   4.774   4.446  13.126
  564MPD2    H3 8459   0.068   4.263  12.999
  564MPD2     N 8460   4.772   4.447  12.603
  564MPD2    H5 8461   0.019   4.359  12.568
  564MPD2    N1 8462   4.666   4.676  13.028
  564MPD2    H7 8463   4.620   4.752  12.978
  565MPD2     C 8464   4.215   4.727  13.941
  565MPD2    C1 8465   4.137   4.773  13.843
  565MPD2    C2 8466   4.188   0.002  13.719
  565MPD2    C3 8467   4.323   4.764  13.699
  565MPD2    C4 8468   4.401   4.709  13.801
  565MPD2    C5 8469   4.341   4.684  13.924
  565MPD2     H 8470   4.119   0.041  13.646
  565MPD2    H1 8471   4.506   4.684  13.789
  565MPD2    H2 8472   4.176   4.724  14.042
  565MPD2    H3 8473   4.391   4.628  14.002
  565MPD2     N 8474   4.389   0.008  13.583
  565MPD2    H5 8475   4.489   4.786  13.570
  565MPD2    N1 8476   4.005   0.026  13.865
  565MPD2    H7 8477   3.971   0.073  13.781
  566MPD2     C 8478   2.856   3.675  12.147
  566MPD2    C1 8479   2.802   3.556  12.194
  566MPD2    C2 8480   2.688   3.555  12.275
  566MPD2    C3 8481   2.633   3.676  12.315
  566MPD2    C4 8482   2.696   3.790  12.272
  566MPD2    C5 8483   2.801   3.797  12.186
  566MPD2     H 8484   2.660   3.456  12.308
  566MPD2    H1 8485   2.661   3.883  12.314
  566MPD2    H2 8486   2.941   3.671  12.080
  566MPD2    H3 8487   2.845   3.893  12.161
  566MPD2     N 8488   2.523   3.691  12.399
  566MPD2    H5 8489   2.490   3.784  12.422
  566MPD2    N1 8490   2.870   3.438  12.155
  566MPD2    H7 8491   2.963   3.457  12.119
  567MPD2     C 8492   3.392   2.658   8.747
  567MPD2    C1 8493   3.374   2.523   8.736
  567MPD2    C2 8494   3.402   2.463   8.609
  567MPD2    C3 8495   3.457   2.536   8.509
  567MPD2    C4 8496   3.478   2.669   8.529
  567MPD2    C5 8497   3.438   2.736   8.641
  567MPD2     H 8498   3.396   2.355   8.596
  567MPD2    H1 8499   3.504   2.724   8.440
  567MPD2    H2 8500   3.360   2.725   8.826
  567MPD2    H3 8501   3.435   2.844   8.642
  567MPD2     N 8502   3.488   2.488   8.378
  567MPD2    H5 8503   3.498   2.553   8.301
  567MPD2    N1 8504   3.324   2.443   8.838
  567MPD2    H7 8505   3.332   2.343   8.824
  568MPD2     C 8506   3.529   2.841   7.476
  568MPD2    C1 8507   3.411   2.771   7.497
  568MPD2    C2 8508   3.402   2.681   7.598
  568MPD2    C3 8509   3.514   2.661   7.679
  568MPD2    C4 8510   3.631   2.731   7.661
  568MPD2    C5 8511   3.636   2.823   7.561
  568MPD2     H 8512   3.308   2.628   7.609
  568MPD2    H1 8513   3.729   2.712   7.703
  568MPD2    H2 8514   3.535   2.913   7.395
  568MPD2    H3 8515   3.721   2.885   7.533
  568MPD2     N 8516   3.497   2.570   7.783
  568MPD2    H5 8517   3.405   2.528   7.788
  568MPD2    N1 8518   3.296   2.776   7.420
  568MPD2    H7 8519   3.209   2.731   7.447
  569MPD2     C 8520   3.724   1.336  12.630
  569MPD2    C1 8521   3.720   1.227  12.547
  569MPD2    C2 8522   3.632   1.126  12.572
  569MPD2    C3 8523   3.550   1.118  12.686
  569MPD2    C4 8524   3.565   1.224  12.773
  569MPD2    C5 8525   3.650   1.329  12.744
  569MPD2     H 8526   3.642   1.037  12.512
  569MPD2    H1 8527   3.512   1.223  12.868
  569MPD2    H2 8528   3.788   1.420  12.606
  569MPD2    H3 8529   3.660   1.411  12.815
  569MPD2     N 8530   3.477   1.003  12.736
  569MPD2    H5 8531   3.453   1.002  12.835
  569MPD2    N1 8532   3.818   1.209  12.444
  569MPD2    H7 8533   3.809   1.126  12.386
  570MPD2     C 8534   4.602   3.628  13.578
  570MPD2    C1 8535   4.462   3.626  13.557
  570MPD2    C2 8536   4.412   3.560  13.443
  570MPD2    C3 8537   4.498   3.500  13.354
  570MPD2    C4 8538   4.631   3.516  13.375
  570MPD2    C5 8539   4.682   3.575  13.481
  570MPD2     H 8540   4.305   3.558  13.428
  570MPD2    H1 8541   4.699   3.472  13.303
  570MPD2    H2 8542   4.646   3.665  13.670
  570MPD2    H3 8543   4.789   3.582  13.498
  570MPD2     N 8544   4.445   3.438  13.238
  570MPD2    H5 8545   4.346   3.433  13.218
  570MPD2    N1 8546   4.370   3.665  13.655
  570MPD2    H7 8547   4.272   3.641  13.648
  571MPD2     C 8548   2.981   2.225   8.686
  571MPD2    C1 8549   2.937   2.343   8.738
  571MPD2    C2 8550   2.864   2.354   8.854
  571MPD2    C3 8551   2.844   2.241   8.930
  571MPD2    C4 8552   2.879   2.112   8.878
  571MPD2    C5 8553   2.951   2.106   8.760
  571MPD2     H 8554   2.853   2.455   8.893
  571MPD2    H1 8555   2.866   2.026   8.943
  571MPD2    H2 8556   3.052   2.216   8.605
  571MPD2    H3 8557   2.971   2.004   8.728
  571MPD2     N 8558   2.783   2.262   9.057
  571MPD2    H5 8559   2.762   2.358   9.082
  571MPD2    N1 8560   2.977   2.467   8.678
  571MPD2    H7 8561   2.975   2.545   8.743
  572MPD2     C 8562   2.834   2.910   9.259
  572MPD2    C1 8563   2.816   2.786   9.201
  572MPD2    C2 8564   2.865   2.777   9.071
  572MPD2    C3 8565   2.929   2.873   9.001
  572MPD2    C4 8566   2.950   2.987   9.063
  572MPD2    C5 8567   2.901   3.012   9.189
  572MPD2     H 8568   2.860   2.684   9.015
  572MPD2    H1 8569   3.001   3.069   9.014
  572MPD2    H2 8570   2.795   2.926   9.359
  572MPD2    H3 8571   2.912   3.108   9.238
  572MPD2     N 8572   2.986   2.842   8.876
  572MPD2    H5 8573   2.957   2.752   8.840
  572MPD2    N1 8574   2.749   2.681   9.268
  572MPD2    H7 8575   2.735   2.695   9.368
  573MPD2     C 8576   0.406   1.599   6.512
  573MPD2    C1 8577   0.433   1.586   6.646
  573MPD2    C2 8578   0.533   1.499   6.694
  573MPD2    C3 8579   0.605   1.424   6.599
  573MPD2    C4 8580   0.578   1.448   6.465
  573MPD2    C5 8581   0.474   1.527   6.426
  573MPD2     H 8582   0.545   1.487   6.801
  573MPD2    H1 8583   0.633   1.405   6.382
  573MPD2    H2 8584   0.319   1.660   6.490
  573MPD2    H3 8585   0.462   1.544   6.320
  573MPD2     N 8586   0.706   1.329   6.629
  573MPD2    H5 8587   0.760   1.290   6.552
  573MPD2    N1 8588   0.366   1.680   6.723
  573MPD2    H7 8589   0.305   1.749   6.679
  574MPD2     C 8590   0.784   1.069   6.197
  574MPD2    C1 8591   0.849   1.072   6.327
  574MPD2    C2 8592   0.921   1.185   6.356
  574MPD2    C3 8593   0.896   1.308   6.290
  574MPD2    C4 8594   0.825   1.298   6.171
  574MPD2    C5 8595   0.786   1.179   6.123
  574MPD2     H 8596   0.994   1.189   6.436
  574MPD2    H1 8597   0.816   1.388   6.111
  574MPD2    H2 8598   0.734   0.978   6.165
  574MPD2    H3 8599   0.723   1.183   6.035
  574MPD2     N 8600   0.936   1.435   6.339
  574MPD2    H5 8601   0.921   1.518   6.283
  574MPD2    N1 8602   0.864   0.951   6.400
  574MPD2    H7 8603   0.835   0.869   6.348
  575MPD2     C 8604   2.718   2.236   7.410
  575MPD2    C1 8605   2.646   2.349   7.407
  575MPD2    C2 8606   2.695   2.468   7.356
  575MPD2    C3 8607   2.824   2.470   7.301
  575MPD2    C4 8608   2.896   2.353   7.288
  575MPD2    C5 8609   2.840   2.238   7.345
  575MPD2     H 8610   2.640   2.561   7.369
  575MPD2    H1 8611   2.994   2.354   7.241
  575MPD2    H2 8612   2.674   2.141   7.439
  575MPD2    H3 8613   2.894   2.144   7.340
  575MPD2     N 8614   2.883   2.587   7.248
  575MPD2    H5 8615   2.980   2.583   7.219
  575MPD2    N1 8616   2.528   2.355   7.474
  575MPD2    H7 8617   2.508   2.274   7.532
  576MPD2     C 8618   0.821   3.796  12.237
  576MPD2    C1 8619   0.805   3.935  12.225
  576MPD2    C2 8620   0.901   4.004  12.149
  576MPD2    C3 8621   1.014   3.941  12.100
  576MPD2    C4 8622   1.023   3.805  12.105
  576MPD2    C5 8623   0.929   3.733  12.180
  576MPD2     H 8624   0.890   4.111  12.141
  576MPD2    H1 8625   1.109   3.753  12.065
  576MPD2    H2 8626   0.741   3.745  12.289
  576MPD2    H3 8627   0.941   3.625  12.183
  576MPD2     N 8628   1.119   4.019  12.035
  576MPD2    H5 8629   1.208   3.974  12.015
  576MPD2    N1 8630   0.692   3.991  12.287
  576MPD2    H7 8631   0.648   3.953  12.370
  577MPD2     C 8632   1.270   4.014  12.530
  577MPD2    C1 8633   1.244   4.127  12.455
  577MPD2    C2 8634   1.122   4.184  12.479
  577MPD2    C3 8635   1.026   4.129  12.562
  577MPD2    C4 8636   1.055   4.016  12.637
  577MPD2    C5 8637   1.181   3.964  12.618
  577MPD2     H 8638   1.087   4.265  12.416
  577MPD2    H1 8639   0.989   3.957  12.700
  577MPD2    H2 8640   1.355   3.950  12.509
  577MPD2    H3 8641   1.209   3.876  12.676
  577MPD2     N 8642   0.896   4.183  12.575
  577MPD2    H5 8643   0.827   4.133  12.630
  577MPD2    N1 8644   1.331   4.172  12.354
  577MPD2    H7 8645   1.398   4.106  12.315
  578MPD2     C 8646   1.048   0.972  13.050
  578MPD2    C1 8647   1.095   1.019  12.933
  578MPD2    C2 8648   1.014   1.097  12.853
  578MPD2    C3 8649   0.881   1.127  12.900
  578MPD2    C4 8650   0.833   1.068  13.017
  578MPD2    C5 8651   0.922   0.993  13.089
  578MPD2     H 8652   1.046   1.128  12.754
  578MPD2    H1 8653   0.727   1.063  13.041
  578MPD2    H2 8654   1.116   0.907  13.104
  578MPD2    H3 8655   0.872   0.932  13.164
  578MPD2     N 8656   0.796   1.185  12.803
  578MPD2    H5 8657   0.832   1.190  12.708
  578MPD2    N1 8658   1.233   0.997  12.905
  578MPD2    H7 8659   1.289   0.955  12.979
  579MPD2     C 8660   0.682   0.768  12.230
  579MPD2    C1 8661   0.580   0.854  12.223
  579MPD2    C2 8662   0.508   0.851  12.102
  579MPD2    C3 8663   0.540   0.760  12.003
  579MPD2    C4 8664   0.643   0.676  12.022
  579MPD2    C5 8665   0.704   0.677  12.139
  579MPD2     H 8666   0.428   0.921  12.082
  579MPD2    H1 8667   0.665   0.603  11.945
  579MPD2    H2 8668   0.738   0.752  12.322
  579MPD2    H3 8669   0.776   0.599  12.159
  579MPD2     N 8670   0.492   0.764  11.873
  579MPD2    H5 8671   0.535   0.708  11.800
  579MPD2    N1 8672   0.543   0.954  12.313
  579MPD2    H7 8673   0.464   1.013  12.288
  580MPD2     C 8674   4.030   3.315  10.262
  580MPD2    C1 8675   4.107   3.429  10.292
  580MPD2    C2 8676   4.242   3.413  10.300
  580MPD2    C3 8677   4.304   3.290  10.286
  580MPD2    C4 8678   4.228   3.180  10.250
  580MPD2    C5 8679   4.095   3.199  10.229
  580MPD2     H 8680   4.303   3.500  10.324
  580MPD2    H1 8681   4.264   3.078  10.240
  580MPD2    H2 8682   3.922   3.311  10.266
  580MPD2    H3 8683   4.036   3.115  10.195
  580MPD2     N 8684   4.445   3.264  10.291
  580MPD2    H5 8685   4.496   3.182  10.258
  580MPD2    N1 8686   4.061   3.563  10.323
  580MPD2    H7 8687   4.129   3.625  10.366
  581MPD2     C 8688   4.277   4.235  10.258
  581MPD2    C1 8689   4.232   4.106  10.295
  581MPD2    C2 8690   4.293   3.997  10.242
  581MPD2    C3 8691   4.395   4.009  10.147
  581MPD2    C4 8692   4.439   4.134  10.108
  581MPD2    C5 8693   4.379   4.245  10.165
  581MPD2     H 8694   4.251   3.901  10.269
  581MPD2    H1 8695   4.526   4.150  10.046
  581MPD2    H2 8696   4.233   4.327  10.295
  581MPD2    H3 8697   4.414   4.347  10.151
  581MPD2     N 8698   4.459   3.905  10.065
  581MPD2    H5 8699   4.514   3.931   9.983
  581MPD2    N1 8700   4.129   4.096  10.383
  581MPD2    H7 8701   4.053   4.161  10.364
  582MPD2     C 8702   0.102   0.687  10.295
  582MPD2    C1 8703   0.030   0.755  10.203
  582MPD2    C2 8704   4.695   0.701  10.162
  582MPD2    C3 8705   4.652   0.574  10.206
  582MPD2    C4 8706   4.720   0.522  10.307
  582MPD2    C5 8707   0.049   0.577  10.347
  582MPD2     H 8708   4.639   0.756  10.088
  582MPD2    H1 8709   4.692   0.432  10.361
  582MPD2    H2 8710   0.191   0.734  10.336
  582MPD2    H3 8711   0.098   0.529  10.431
  582MPD2     N 8712   4.529   0.518  10.156
  582MPD2    H5 8713   4.499   0.434  10.204
  582MPD2    N1 8714   0.058   0.884  10.151
  582MPD2    H7 8715   4.788   0.920  10.077
  583MPD2     C 8716   0.535   0.857   7.683
  583MPD2    C1 8717   0.465   0.839   7.565
  583MPD2    C2 8718   0.390   0.945   7.515
  583MPD2    C3 8719   0.380   1.065   7.578
  583MPD2    C4 8720   0.452   1.088   7.693
  583MPD2    C5 8721   0.516   0.979   7.750
  583MPD2     H 8722   0.345   0.920   7.420
  583MPD2    H1 8723   0.448   1.183   7.744
  583MPD2    H2 8724   0.597   0.778   7.724
  583MPD2    H3 8725   0.578   1.004   7.836
  583MPD2     N 8726   0.306   1.167   7.512
  583MPD2    H5 8727   0.250   1.136   7.433
  583MPD2    N1 8728   0.445   0.709   7.517
  583MPD2    H7 8729   0.370   0.691   7.452
  584MPD2     C 8730   0.849   4.725   7.090
  584MPD2    C1 8731   0.807   0.058   7.046
  584MPD2    C2 8732   0.752   0.136   7.147
  584MPD2    C3 8733   0.715   0.073   7.266
  584MPD2    C4 8734   0.751   4.734   7.303
  584MPD2    C5 8735   0.824   4.663   7.210
  584MPD2     H 8736   0.733   0.242   7.137
  584MPD2    H1 8737   0.740   4.693   7.403
  584MPD2    H2 8738   0.919   4.665   7.032
  584MPD2    H3 8739   0.854   4.560   7.221
  584MPD2     N 8740   0.666   0.164   7.365
  584MPD2    H5 8741   0.665   0.260   7.331
  584MPD2    N1 8742   0.854   0.112   6.922
  584MPD2    H7 8743   0.933   0.067   6.878
  585MPD2     C 8744   3.549   0.803  11.862
  585MPD2    C1 8745   3.556   0.938  11.847
  585MPD2    C2 8746   3.667   1.005  11.896
  585MPD2    C3 8747   3.770   0.934  11.945
  585MPD2    C4 8748   3.764   0.796  11.955
  585MPD2    C5 8749   3.650   0.732  11.910
  585MPD2     H 8750   3.683   1.112  11.896
  585MPD2    H1 8751   3.842   0.737  12.002
  585MPD2    H2 8752   3.465   0.748  11.822
  585MPD2    H3 8753   3.636   0.625  11.917
  585MPD2     N 8754   3.879   1.012  12.001
  585MPD2    H5 8755   3.864   1.112  12.003
  585MPD2    N1 8756   3.455   1.003  11.765
  585MPD2    H7 8757   3.385   0.947  11.717
  586MPD2     C 8758   2.736   2.831  10.850
  586MPD2    C1 8759   2.733   2.760  10.972
  586MPD2    C2 8760   2.652   2.647  10.980
  586MPD2    C3 8761   2.567   2.609  10.876
  586MPD2    C4 8762   2.569   2.691  10.767
  586MPD2    C5 8763   2.651   2.795  10.757
  586MPD2     H 8764   2.656   2.579  11.065
  586MPD2    H1 8765   2.505   2.668  10.682
  586MPD2    H2 8766   2.789   2.925  10.835
  586MPD2    H3 8767   2.651   2.848  10.662
  586MPD2     N 8768   2.493   2.489  10.897
  586MPD2    H5 8769   2.478   2.455  10.991
  586MPD2    N1 8770   2.819   2.788  11.077
  586MPD2    H7 8771   2.811   2.726  11.157
  587MPD2     C 8772   4.359   1.154  11.537
  587MPD2    C1 8773   4.463   1.245  11.548
  587MPD2    C2 8774   4.592   1.203  11.525
  587MPD2    C3 8775   4.628   1.076  11.509
  587MPD2    C4 8776   4.527   0.976  11.505
  587MPD2    C5 8777   4.391   1.016  11.523
  587MPD2     H 8778   4.671   1.278  11.520
  587MPD2    H1 8779   4.550   0.871  11.490
  587MPD2    H2 8780   4.255   1.173  11.559
  587MPD2    H3 8781   4.316   0.938  11.526
  587MPD2     N 8782   4.766   1.043  11.508
  587MPD2    H5 8783   0.033   1.126  11.490
  587MPD2    N1 8784   4.425   1.371  11.590
  587MPD2    H7 8785   4.324   1.378  11.598
  588MPD2     C 8786   0.085   1.810  11.434
  588MPD2    C1 8787   4.738   1.810  11.419
  588MPD2    C2 8788   4.668   1.850  11.529
  588MPD2    C3 8789   4.721   1.900  11.647
  588MPD2    C4 8790   0.067   1.924  11.642
  588MPD2    C5 8791   0.146   1.879  11.540
  588MPD2     H 8792   4.561   1.867  11.521
  588MPD2    H1 8793   0.123   1.974  11.720
  588MPD2    H2 8794   0.147   1.792  11.347
  588MPD2    H3 8795   0.253   1.894  11.548
  588MPD2     N 8796   4.650   1.945  11.764
  588MPD2    H5 8797   4.712   2.001  11.822
  588MPD2    N1 8798   4.667   1.768  11.302
  588MPD2    H7 8799   4.568   1.791  11.302
  589MPD2     C 8800   4.057   3.838  13.244
  589MPD2    C1 8801   4.122   3.855  13.126
  589MPD2    C2 8802   4.146   3.751  13.037
  589MPD2    C3 8803   4.075   3.631  13.055
  589MPD2    C4 8804   3.990   3.623  13.164
  589MPD2    C5 8805   3.981   3.725  13.259
  589MPD2     H 8806   4.217   3.768  12.956
  589MPD2    H1 8807   3.941   3.529  13.186
  589MPD2    H2 8808   4.045   3.925  13.308
  589MPD2    H3 8809   3.917   3.707  13.345
  589MPD2     N 8810   4.111   3.515  12.977
  589MPD2    H5 8811   4.064   3.430  13.007
  589MPD2    N1 8812   4.181   3.979  13.100
  589MPD2    H7 8813   4.239   3.980  13.017
  590MPD2     C 8814   1.612   2.225   6.309
  590MPD2    C1 8815   1.606   2.193   6.442
  590MPD2    C2 8816   1.539   2.079   6.487
  590MPD2    C3 8817   1.462   2.011   6.394
  590MPD2    C4 8818   1.468   2.036   6.258
  590MPD2    C5 8819   1.549   2.135   6.217
  590MPD2     H 8820   1.537   2.050   6.591
  590MPD2    H1 8821   1.421   1.985   6.175
  590MPD2    H2 8822   1.664   2.317   6.286
  590MPD2    H3 8823   1.566   2.163   6.114
  590MPD2     N 8824   1.374   1.906   6.441
  590MPD2    H5 8825   1.388   1.869   6.534
  590MPD2    N1 8826   1.670   2.282   6.533
  590MPD2    H7 8827   1.735   2.349   6.495
  591MPD2     C 8828   1.233   2.601  13.699
  591MPD2    C1 8829   1.150   2.484  13.694
  591MPD2    C2 8830   1.156   2.404  13.808
  591MPD2    C3 8831   1.250   2.435  13.908
  591MPD2    C4 8832   1.339   2.534  13.891
  591MPD2    C5 8833   1.323   2.626  13.797
  591MPD2     H 8834   1.084   2.325  13.822
  591MPD2    H1 8835   1.420   2.566  13.955
  591MPD2    H2 8836   1.233   2.669  13.614
  591MPD2    H3 8837   1.384   2.715  13.785
  591MPD2     N 8838   1.271   2.356  14.023
  591MPD2    H5 8839   1.351   2.387  14.078
  591MPD2    N1 8840   1.044   2.462  13.593
  591MPD2    H7 8841   0.972   2.392  13.608
  592MPD2     C 8842   2.979   0.419   8.686
  592MPD2    C1 8843   3.090   0.488   8.721
  592MPD2    C2 8844   3.095   0.624   8.695
  592MPD2    C3 8845   3.006   0.689   8.619
  592MPD2    C4 8846   2.901   0.616   8.564
  592MPD2    C5 8847   2.885   0.486   8.609
  592MPD2     H 8848   3.179   0.679   8.737
  592MPD2    H1 8849   2.832   0.653   8.489
  592MPD2    H2 8850   2.971   0.312   8.699
  592MPD2    H3 8851   2.796   0.438   8.570
  592MPD2     N 8852   3.014   0.828   8.619
  592MPD2    H5 8853   3.082   0.876   8.678
  592MPD2    N1 8854   3.198   0.418   8.779
  592MPD2    H7 8855   3.184   0.318   8.784
  593MPD2     C 8856   3.474   0.099   9.716
  593MPD2    C1 8857   3.364   0.118   9.636
  593MPD2    C2 8858   3.383   0.150   9.499
  593MPD2    C3 8859   3.504   0.174   9.442
  593MPD2    C4 8860   3.609   0.153   9.524
  593MPD2    C5 8861   3.591   0.122   9.655
  593MPD2     H 8862   3.289   0.160   9.445
  593MPD2    H1 8863   3.708   0.180   9.490
  593MPD2    H2 8864   3.478   0.071   9.821
  593MPD2    H3 8865   3.675   0.113   9.723
  593MPD2     N 8866   3.526   0.210   9.308
  593MPD2    H5 8867   3.618   0.244   9.283
  593MPD2    N1 8868   3.232   0.102   9.693
  593MPD2    H7 8869   3.153   0.128   9.636
  594MPD2     C 8870   1.228   0.636   7.408
  594MPD2    C1 8871   1.117   0.631   7.489
  594MPD2    C2 8872   1.079   0.746   7.553
  594MPD2    C3 8873   1.134   0.872   7.526
  594MPD2    C4 8874   1.239   0.872   7.435
  594MPD2    C5 8875   1.289   0.756   7.381
  594MPD2     H 8876   0.997   0.740   7.623
  594MPD2    H1 8877   1.298   0.961   7.413
  594MPD2    H2 8878   1.269   0.548   7.359
  594MPD2    H3 8879   1.385   0.756   7.330
  594MPD2     N 8880   1.075   0.982   7.588
  594MPD2    H5 8881   0.998   0.957   7.649
  594MPD2    N1 8882   1.030   0.523   7.515
  594MPD2    H7 8883   0.950   0.548   7.573
  595MPD2     C 8884   3.337   4.668  13.600
  595MPD2    C1 8885   3.451   4.726  13.549
  595MPD2    C2 8886   3.497   4.676  13.426
  595MPD2    C3 8887   3.424   4.580  13.359
  595MPD2    C4 8888   3.305   4.537  13.413
  595MPD2    C5 8889   3.260   4.577  13.536
  595MPD2     H 8890   3.599   4.707  13.409
  595MPD2    H1 8891   3.238   4.465  13.366
  595MPD2    H2 8892   3.296   4.700  13.695
  595MPD2    H3 8893   3.164   4.544  13.575
  595MPD2     N 8894   3.467   4.521  13.238
  595MPD2    H5 8895   3.552   4.563  13.202
  595MPD2    N1 8896   3.536   0.019  13.618
  595MPD2    H7 8897   3.629   0.033  13.579
  596MPD2     C 8898   0.257   4.521  11.988
  596MPD2    C1 8899   0.160   4.567  11.903
  596MPD2    C2 8900   0.135   4.493  11.789
  596MPD2    C3 8901   0.217   4.386  11.759
  596MPD2    C4 8902   0.314   4.339  11.842
  596MPD2    C5 8903   0.330   4.412  11.958
  596MPD2     H 8904   0.055   4.531  11.727
  596MPD2    H1 8905   0.381   4.258  11.818
  596MPD2    H2 8906   0.285   4.561  12.085
  596MPD2    H3 8907   0.413   4.382  12.022
  596MPD2     N 8908   0.199   4.310  11.642
  596MPD2    H5 8909   0.256   4.229  11.621
  596MPD2    N1 8910   0.073   4.678  11.924
  596MPD2    H7 8911   0.008   4.699  11.849
  597MPD2     C 8912   3.585   3.527   9.418
  597MPD2    C1 8913   3.451   3.541   9.397
  597MPD2    C2 8914   3.362   3.494   9.497
  597MPD2    C3 8915   3.411   3.435   9.615
  597MPD2    C4 8916   3.546   3.426   9.635
  597MPD2    C5 8917   3.631   3.467   9.538
  597MPD2     H 8918   3.255   3.507   9.489
  597MPD2    H1 8919   3.597   3.379   9.718
  597MPD2    H2 8920   3.656   3.552   9.340
  597MPD2    H3 8921   3.737   3.455   9.558
  597MPD2     N 8922   3.330   3.387   9.717
  597MPD2    H5 8923   3.371   3.318   9.779
  597MPD2    N1 8924   3.408   3.597   9.276
  597MPD2    H7 8925   3.473   3.625   9.203
  598MPD2     C 8926   3.630   3.983   8.381
  598MPD2    C1 8927   3.649   3.853   8.419
  598MPD2    C2 8928   3.599   3.796   8.533
  598MPD2    C3 8929   3.492   3.870   8.590
  598MPD2    C4 8930   3.453   3.982   8.534
  598MPD2    C5 8931   3.521   4.050   8.435
  598MPD2     H 8932   3.638   3.705   8.578
  598MPD2    H1 8933   3.378   4.047   8.576
  598MPD2    H2 8934   3.675   4.033   8.296
  598MPD2    H3 8935   3.501   4.151   8.402
  598MPD2     N 8936   3.412   3.837   8.704
  598MPD2    H5 8937   3.335   3.897   8.733
  598MPD2    N1 8938   3.733   3.781   8.333
  598MPD2    H7 8939   3.755   3.820   8.242
  599MPD2     C 8940   2.599   2.416  13.435
  599MPD2    C1 8941   2.683   2.479  13.519
  599MPD2    C2 8942   2.821   2.471  13.499
  599MPD2    C3 8943   2.871   2.400  13.394
  599MPD2    C4 8944   2.783   2.328  13.310
  599MPD2    C5 8945   2.648   2.338  13.331
  599MPD2     H 8946   2.892   2.514  13.570
  599MPD2    H1 8947   2.812   2.272  13.222
  599MPD2    H2 8948   2.493   2.435  13.442
  599MPD2    H3 8949   2.584   2.283  13.263
  599MPD2     N 8950   3.008   2.402  13.374
  599MPD2    H5 8951   3.064   2.460  13.437
  599MPD2    N1 8952   2.637   2.562  13.625
  599MPD2    H7 8953   2.538   2.561  13.646
  600MPD2     C 8954   0.136   0.356  14.480
  600MPD2    C1 8955   0.126   0.491  14.448
  600MPD2    C2 8956   0.230   0.543  14.370
  600MPD2    C3 8957   0.334   0.462  14.331
  600MPD2    C4 8958   0.333   0.328  14.357
  600MPD2    C5 8959   0.237   0.270  14.434
  600MPD2     H 8960   0.235   0.649  14.348
  600MPD2    H1 8961   0.410   0.261  14.320
  600MPD2    H2 8962   0.071   0.307  14.551
  600MPD2    H3 8963   0.229   0.162  14.444
  600MPD2     N 8964   0.448   0.506  14.265
  600MPD2    H5 8965   0.504   0.432  14.224
  600MPD2    N1 8966   0.020   0.569  14.497
  600MPD2    H7 8967   4.747   0.524  14.563
  601MPD2     C 8968   0.598   1.012   7.240
  601MPD2    C1 8969   0.595   1.146   7.282
  601MPD2    C2 8970   0.520   1.241   7.209
  601MPD2    C3 8971   0.441   1.200   7.102
  601MPD2    C4 8972   0.460   1.073   7.058
  601MPD2    C5 8973   0.535   0.981   7.122
  601MPD2     H 8974   0.525   1.343   7.246
  601MPD2    H1 8975   0.408   1.034   6.971
  601MPD2    H2 8976   0.661   0.940   7.290
  601MPD2    H3 8977   0.559   0.884   7.080
  601MPD2     N 8978   0.348   1.274   7.031
  601MPD2    H5 8979   0.320   1.236   6.941
  601MPD2    N1 8980   0.671   1.171   7.400
  601MPD2    H7 8981   0.723   1.094   7.441
  602MPD2     C 8982   0.554   0.701  11.202
  602MPD2    C1 8983   0.429   0.762  11.207
  602MPD2    C2 8984   0.329   0.701  11.291
  602MPD2    C3 8985   0.364   0.593  11.372
  602MPD2    C4 8986   0.487   0.529  11.353
  602MPD2    C5 8987   0.581   0.591  11.270
  602MPD2     H 8988   0.234   0.751  11.304
  602MPD2    H1 8989   0.518   0.439  11.404
  602MPD2    H2 8990   0.638   0.739  11.145
  602MPD2    H3 8991   0.680   0.548  11.261
  602MPD2     N 8992   0.280   0.535  11.475
  602MPD2    H5 8993   0.321   0.462  11.532
  602MPD2    N1 8994   0.415   0.880  11.138
  602MPD2    H7 8995   0.502   0.913  11.098
  603MPD2     C 8996   3.145   3.484  10.375
  603MPD2    C1 8997   3.194   3.526  10.496
  603MPD2    C2 8998   3.122   3.514  10.609
  603MPD2    C3 8999   3.004   3.438  10.612
  603MPD2    C4 9000   2.955   3.394  10.493
  603MPD2    C5 9001   3.024   3.413  10.372
  603MPD2     H 9002   3.173   3.546  10.699
  603MPD2    H1 9003   2.856   3.351  10.480
  603MPD2    H2 9004   3.200   3.501  10.283
  603MPD2    H3 9005   2.967   3.380  10.286
  603MPD2     N 9006   2.940   3.414  10.734
  603MPD2    H5 9007   2.973   3.468  10.814
  603MPD2    N1 9008   3.322   3.587  10.499
  603MPD2    H7 9009   3.356   3.637  10.581
  604MPD2     C 9010   4.050   3.243   9.805
  604MPD2    C1 9011   4.069   3.343   9.901
  604MPD2    C2 9012   3.957   3.388   9.970
  604MPD2    C3 9013   3.836   3.324   9.957
  604MPD2    C4 9014   3.819   3.229   9.852
  604MPD2    C5 9015   3.928   3.191   9.778
  604MPD2     H 9016   3.968   3.459  10.051
  604MPD2    H1 9017   3.726   3.178   9.827
  604MPD2    H2 9018   4.126   3.192   9.746
  604MPD2    H3 9019   3.921   3.111   9.706
  604MPD2     N 9020   3.744   3.350  10.062
  604MPD2    H5 9021   3.766   3.420  10.132
  604MPD2    N1 9022   4.192   3.408   9.918
  604MPD2    H7 9023   4.199   3.474   9.995
  605MPD2     C 9024   2.190   1.958   8.436
  605MPD2    C1 9025   2.078   1.994   8.501
  605MPD2    C2 9026   1.955   1.987   8.431
  605MPD2    C3 9027   1.956   1.947   8.297
  605MPD2    C4 9028   2.076   1.924   8.237
  605MPD2    C5 9029   2.191   1.923   8.308
  605MPD2     H 9030   1.862   2.015   8.479
  605MPD2    H1 9031   2.082   1.910   8.130
  605MPD2    H2 9032   2.287   1.979   8.481
  605MPD2    H3 9033   2.284   1.907   8.254
  605MPD2     N 9034   1.838   1.957   8.210
  605MPD2    H5 9035   1.843   1.917   8.117
  605MPD2    N1 9036   2.077   2.043   8.633
  605MPD2    H7 9037   1.989   2.048   8.683
  606MPD2     C 9038   3.083   2.452  14.430
  606MPD2    C1 9039   2.948   2.448  14.461
  606MPD2    C2 9040   2.861   2.519  14.372
  606MPD2    C3 9041   2.915   2.596  14.266
  606MPD2    C4 9042   3.051   2.601  14.239
  606MPD2    C5 9043   3.129   2.528  14.324
  606MPD2     H 9044   2.756   2.525  14.397
  606MPD2    H1 9045   3.093   2.675  14.171
  606MPD2    H2 9046   3.152   2.405  14.499
  606MPD2    H3 9047   3.235   2.550  14.320
  606MPD2     N 9048   2.831   2.669  14.173
  606MPD2    H5 9049   2.878   2.715  14.096
  606MPD2    N1 9050   2.907   2.359  14.560
  606MPD2    H7 9051   2.973   2.302  14.613
  607MPD2     C 9052   0.474   2.459   8.626
  607MPD2    C1 9053   0.519   2.406   8.505
  607MPD2    C2 9054   0.502   2.270   8.481
  607MPD2    C3 9055   0.440   2.180   8.574
  607MPD2    C4 9056   0.405   2.236   8.691
  607MPD2    C5 9057   0.417   2.368   8.713
  607MPD2     H 9058   0.526   2.241   8.379
  607MPD2    H1 9059   0.353   2.175   8.763
  607MPD2    H2 9060   0.486   2.560   8.662
  607MPD2    H3 9061   0.380   2.410   8.806
  607MPD2     N 9062   0.426   2.043   8.551
  607MPD2    H5 9063   0.369   1.992   8.617
  607MPD2    N1 9064   0.600   2.484   8.419
  607MPD2    H7 9065   0.646   2.440   8.340
  608MPD2     C 9066   0.116   1.456  11.506
  608MPD2    C1 9067   0.161   1.354  11.590
  608MPD2    C2 9068   0.270   1.277  11.565
  608MPD2    C3 9069   0.324   1.280  11.437
  608MPD2    C4 9070   0.293   1.391  11.359
  608MPD2    C5 9071   0.192   1.480  11.394
  608MPD2     H 9072   0.310   1.204  11.634
  608MPD2    H1 9073   0.334   1.400  11.259
  608MPD2    H2 9074   0.030   1.520  11.524
  608MPD2    H3 9075   0.178   1.572  11.338
  608MPD2     N 9076   0.428   1.189  11.389
  608MPD2    H5 9077   0.491   1.213  11.313
  608MPD2    N1 9078   0.079   1.323  11.696
  608MPD2    H7 9079   4.778   1.368  11.701
  609MPD2     C 9080   1.936   1.998  12.221
  609MPD2    C1 9081   1.871   2.041  12.113
  609MPD2    C2 9082   1.912   1.997  11.990
  609MPD2    C3 9083   2.027   1.917  11.975
  609MPD2    C4 9084   2.097   1.879  12.088
  609MPD2    C5 9085   2.055   1.927  12.210
  609MPD2     H 9086   1.858   2.034  11.903
  609MPD2    H1 9087   2.189   1.821  12.090
  609MPD2    H2 9088   1.909   2.034  12.320
  609MPD2    H3 9089   2.111   1.904  12.300
  609MPD2     N 9090   2.072   1.878  11.846
  609MPD2    H5 9091   2.005   1.903  11.774
  609MPD2    N1 9092   1.755   2.122  12.132
  609MPD2    H7 9093   1.699   2.126  12.047
  610MPD2     C 9094   3.698   0.924  11.069
  610MPD2    C1 9095   3.601   0.860  10.989
  610MPD2    C2 9096   3.575   0.907  10.865
  610MPD2    C3 9097   3.648   1.011  10.809
  610MPD2    C4 9098   3.747   1.069  10.884
  610MPD2    C5 9099   3.771   1.025  11.011
  610MPD2     H 9100   3.495   0.858  10.810
  610MPD2    H1 9101   3.810   1.146  10.841
  610MPD2    H2 9102   3.717   0.891  11.171
  610MPD2    H3 9103   3.840   1.086  11.068
  610MPD2     N 9104   3.618   1.063  10.681
  610MPD2    H5 9105   3.657   1.153  10.654
  610MPD2    N1 9106   3.536   0.745  11.032
  610MPD2    H7 9107   3.465   0.701  10.974
  611MPD2     C 9108   1.733   0.394  13.357
  611MPD2    C1 9109   1.810   0.311  13.276
  611MPD2    C2 9110   1.948   0.333  13.268
  611MPD2    C3 9111   2.008   0.441  13.335
  611MPD2    C4 9112   1.922   0.511  13.417
  611MPD2    C5 9113   1.787   0.494  13.428
  611MPD2     H 9114   2.018   0.266  13.218
  611MPD2    H1 9115   1.970   0.587  13.478
  611MPD2    H2 9116   1.626   0.378  13.369
  611MPD2    H3 9117   1.733   0.541  13.509
  611MPD2     N 9118   2.150   0.463  13.330
  611MPD2    H5 9119   2.186   0.516  13.409
  611MPD2    N1 9120   1.757   0.190  13.222
  611MPD2    H7 9121   1.668   0.159  13.261
  612MPD2     C 9122   2.337   4.130  11.586
  612MPD2    C1 9123   2.327   4.263  11.575
  612MPD2    C2 9124   2.193   4.311  11.583
  612MPD2    C3 9125   2.085   4.221  11.574
  612MPD2    C4 9126   2.106   4.087  11.566
  612MPD2    C5 9127   2.234   4.044  11.582
  612MPD2     H 9128   2.167   4.414  11.604
  612MPD2    H1 9129   2.020   4.021  11.567
  612MPD2    H2 9130   2.437   4.089  11.590
  612MPD2    H3 9131   2.260   3.939  11.587
  612MPD2     N 9132   1.953   4.268  11.580
  612MPD2    H5 9133   1.881   4.200  11.558
  612MPD2    N1 9134   2.439   4.342  11.595
  612MPD2    H7 9135   2.528   4.303  11.626
  613MPD2     C 9136   1.600   0.015  11.546
  613MPD2    C1 9137   1.700   0.089  11.605
  613MPD2    C2 9138   1.832   0.076  11.560
  613MPD2    C3 9139   1.857   0.003  11.447
  613MPD2    C4 9140   1.749   4.733  11.382
  613MPD2    C5 9141   1.621   4.741  11.431
  613MPD2     H 9142   1.914   0.123  11.612
  613MPD2    H1 9143   1.750   4.677  11.289
  613MPD2    H2 9144   1.497   0.020  11.578
  613MPD2    H3 9145   1.536   4.698  11.379
  613MPD2     N 9146   1.989   4.770  11.400
  613MPD2    H5 9147   1.994   4.709  11.319
  613MPD2    N1 9148   1.672   0.168  11.720
  613MPD2    H7 9149   1.745   0.229  11.756
  614MPD2     C 9150   1.726   1.994   7.517
  614MPD2    C1 9151   1.724   2.096   7.614
  614MPD2    C2 9152   1.806   2.202   7.588
  614MPD2    C3 9153   1.886   2.216   7.475
  614MPD2    C4 9154   1.889   2.112   7.384
  614MPD2    C5 9155   1.800   2.011   7.405
  614MPD2     H 9156   1.830   2.274   7.665
  614MPD2    H1 9157   1.951   2.112   7.295
  614MPD2    H2 9158   1.674   1.900   7.530
  614MPD2    H3 9159   1.799   1.931   7.331
  614MPD2     N 9160   1.978   2.329   7.460
  614MPD2    H5 9161   2.058   2.321   7.399
  614MPD2    N1 9162   1.655   2.077   7.733
  614MPD2    H7 9163   1.661   2.159   7.792
  615MPD2     C 9164   0.498   4.158   9.433
  615MPD2    C1 9165   0.376   4.216   9.468
  615MPD2    C2 9166   0.312   4.306   9.384
  615MPD2    C3 9167   0.351   4.302   9.250
  615MPD2    C4 9168   0.462   4.229   9.216
  615MPD2    C5 9169   0.537   4.164   9.307
  615MPD2     H 9170   0.219   4.351   9.417
  615MPD2    H1 9171   0.499   4.222   9.114
  615MPD2    H2 9172   0.556   4.098   9.503
  615MPD2    H3 9173   0.616   4.102   9.267
  615MPD2     N 9174   0.268   4.354   9.150
  615MPD2    H5 9175   0.193   4.412   9.185
  615MPD2    N1 9176   0.322   4.177   9.599
  615MPD2    H7 9177   0.390   4.136   9.662
  616MPD2     C 9178   4.569   4.527   9.168
  616MPD2    C1 9179   4.538   4.395   9.143
  616MPD2    C2 9180   4.429   4.370   9.062
  616MPD2    C3 9181   4.358   4.474   9.002
  616MPD2    C4 9182   4.387   4.610   9.030
  616MPD2    C5 9183   4.496   4.627   9.114
  616MPD2     H 9184   4.400   4.266   9.048
  616MPD2    H1 9185   4.336   4.700   8.996
  616MPD2    H2 9186   4.645   4.560   9.238
  616MPD2    H3 9187   4.520   4.730   9.138
  616MPD2     N 9188   4.256   4.425   8.917
  616MPD2    H5 9189   4.222   4.331   8.935
  616MPD2    N1 9190   4.601   4.285   9.201
  616MPD2    H7 9191   4.562   4.192   9.192
  617MPD2     C 9192   4.616   1.440  14.482
  617MPD2    C1 9193   4.654   1.326  14.420
  617MPD2    C2 9194   4.742   1.335  14.316
  617MPD2    C3 9195   4.778   1.456  14.253
  617MPD2    C4 9196   4.723   1.569  14.310
  617MPD2    C5 9197   4.638   1.558  14.417
  617MPD2     H 9198   0.001   1.243  14.284
  617MPD2    H1 9199   4.730   1.667  14.265
  617MPD2    H2 9200   4.574   1.443  14.582
  617MPD2    H3 9201   4.594   1.652  14.449
  617MPD2     N 9202   0.069   1.453  14.138
  617MPD2    H5 9203   0.110   1.363  14.116
  617MPD2    N1 9204   4.631   1.204  14.487
  617MPD2    H7 9205   4.579   1.209  14.574
  618MPD2     C 9206   2.028   2.921  13.969
  618MPD2    C1 9207   2.126   2.913  14.064
  618MPD2    C2 9208   2.092   2.947  14.192
  618MPD2    C3 9209   1.974   3.010  14.226
  618MPD2    C4 9210   1.883   3.026  14.131
  618MPD2    C5 9211   1.910   2.982  14.006
  618MPD2     H 9212   2.174   2.925  14.259
  618MPD2    H1 9213   1.783   3.061  14.151
  618MPD2    H2 9214   2.038   2.900  13.863
  618MPD2    H3 9215   1.828   2.996  13.936
  618MPD2     N 9216   1.961   3.052  14.361
  618MPD2    H5 9217   1.876   3.101  14.387
  618MPD2    N1 9218   2.257   2.870  14.035
  618MPD2    H7 9219   2.328   2.855  14.106
  619MPD2     C 9220   3.821   4.580  10.085
  619MPD2    C1 9221   3.949   4.581  10.142
  619MPD2    C2 9222   4.017   4.705  10.128
  619MPD2    C3 9223   3.966   0.027  10.053
  619MPD2    C4 9224   3.841   0.010   9.992
  619MPD2    C5 9225   3.775   4.682  10.003
  619MPD2     H 9226   4.108   4.711  10.187
  619MPD2    H1 9227   3.805   0.093   9.933
  619MPD2    H2 9228   3.746   4.506  10.110
  619MPD2    H3 9229   3.679   4.678   9.953
  619MPD2     N 9230   4.041   0.142  10.025
  619MPD2    H5 9231   3.992   0.221   9.984
  619MPD2    N1 9232   3.999   4.482  10.225
  619MPD2    H7 9233   4.066   4.503  10.299
  620MPD2     C 9234   1.387   2.215  14.851
  620MPD2    C1 9235   1.492   2.283  14.907
  620MPD2    C2 9236   1.462   2.351  15.023
  620MPD2    C3 9237   1.340   2.383  15.074
  620MPD2    C4 9238   1.232   2.336  15.002
  620MPD2    C5 9239   1.259   2.243  14.899
  620MPD2     H 9240   1.551   2.396  15.067
  620MPD2    H1 9241   1.129   2.362  15.022
  620MPD2    H2 9242   1.394   2.151  14.763
  620MPD2    H3 9243   1.171   2.198  14.854
  620MPD2     N 9244   1.319   2.482  15.177
  620MPD2    H5 9245   1.222   2.511  15.187
  620MPD2    N1 9246   1.628   2.263  14.866
  620MPD2    H7 9247   1.693   2.327  14.910
  621MPD2     C 9248   1.726   2.456  14.531
  621MPD2    C1 9249   1.592   2.445  14.559
  621MPD2    C2 9250   1.533   2.522  14.664
  621MPD2    C3 9251   1.609   2.613  14.735
  621MPD2    C4 9252   1.742   2.609  14.714
  621MPD2    C5 9253   1.802   2.536  14.610
  621MPD2     H 9254   1.427   2.520  14.685
  621MPD2    H1 9255   1.810   2.664  14.777
  621MPD2    H2 9256   1.777   2.392  14.460
  621MPD2    H3 9257   1.910   2.535  14.602
  621MPD2     N 9258   1.562   2.696  14.830
  621MPD2    H5 9259   1.611   2.734  14.911
  621MPD2    N1 9260   1.509   2.351  14.495
  621MPD2    H7 9261   1.414   2.338  14.530
  622MPD2     C 9262   1.377   0.857   9.482
  622MPD2    C1 9263   1.279   0.894   9.387
  622MPD2    C2 9264   1.160   0.822   9.387
  622MPD2    C3 9265   1.134   0.721   9.471
  622MPD2    C4 9266   1.225   0.700   9.573
  622MPD2    C5 9267   1.349   0.760   9.574
  622MPD2     H 9268   1.084   0.852   9.315
  622MPD2    H1 9269   1.218   0.609   9.631
  622MPD2    H2 9270   1.470   0.910   9.499
  622MPD2    H3 9271   1.422   0.714   9.640
  622MPD2     N 9272   1.013   0.649   9.451
  622MPD2    H5 9273   0.968   0.670   9.363
  622MPD2    N1 9274   1.317   0.984   9.285
  622MPD2    H7 9275   1.417   0.998   9.279
  623MPD2     C 9276   1.163   0.385   8.952
  623MPD2    C1 9277   1.053   0.467   8.968
  623MPD2    C2 9278   1.058   0.605   8.932
  623MPD2    C3 9279   1.180   0.658   8.894
  623MPD2    C4 9280   1.285   0.570   8.873
  623MPD2    C5 9281   1.280   0.438   8.909
  623MPD2     H 9282   0.979   0.673   8.963
  623MPD2    H1 9283   1.384   0.599   8.839
  623MPD2    H2 9284   1.165   0.282   8.985
  623MPD2    H3 9285   1.365   0.374   8.889
  623MPD2     N 9286   1.213   0.791   8.865
  623MPD2    H5 9287   1.311   0.815   8.874
  623MPD2    N1 9288   0.943   0.425   9.030
  623MPD2    H7 9289   0.871   0.496   9.041
  624MPD2     C 9290   3.274   3.849   6.941
  624MPD2    C1 9291   3.304   3.958   6.863
  624MPD2    C2 9292   3.437   3.996   6.841
  624MPD2    C3 9293   3.537   3.915   6.892
  624MPD2    C4 9294   3.508   3.805   6.972
  624MPD2    C5 9295   3.378   3.769   6.987
  624MPD2     H 9296   3.472   4.074   6.774
  624MPD2    H1 9297   3.580   3.738   7.018
  624MPD2    H2 9298   3.172   3.825   6.968
  624MPD2    H3 9299   3.367   3.673   7.036
  624MPD2     N 9300   3.671   3.958   6.879
  624MPD2    H5 9301   3.715   4.012   6.806
  624MPD2    N1 9302   3.200   4.036   6.804
  624MPD2    H7 9303   3.106   3.998   6.801
  625MPD2     C 9304   3.597   4.785   6.700
  625MPD2    C1 9305   3.538   4.737   6.814
  625MPD2    C2 9306   3.423   4.659   6.798
  625MPD2    C3 9307   3.366   4.637   6.666
  625MPD2    C4 9308   3.433   4.690   6.559
  625MPD2    C5 9309   3.547   4.762   6.579
  625MPD2     H 9310   3.372   4.615   6.883
  625MPD2    H1 9311   3.402   4.658   6.460
  625MPD2    H2 9312   3.689   0.051   6.714
  625MPD2    H3 9313   3.606   4.777   6.489
  625MPD2     N 9314   3.247   4.556   6.665
  625MPD2    H5 9315   3.221   4.523   6.757
  625MPD2    N1 9316   3.592   4.761   6.938
  625MPD2    H7 9317   3.687   0.007   6.943
  626MPD2     C 9318   2.910   4.222   7.773
  626MPD2    C1 9319   2.956   4.273   7.657
  626MPD2    C2 9320   2.958   4.196   7.544
  626MPD2    C3 9321   2.915   4.066   7.543
  626MPD2    C4 9322   2.860   4.018   7.663
  626MPD2    C5 9323   2.862   4.093   7.776
  626MPD2     H 9324   3.010   4.241   7.460
  626MPD2    H1 9325   2.819   3.918   7.661
  626MPD2    H2 9326   2.903   4.280   7.864
  626MPD2    H3 9327   2.834   4.049   7.871
  626MPD2     N 9328   2.916   3.990   7.425
  626MPD2    H5 9329   2.876   3.898   7.442
  626MPD2    N1 9330   3.009   4.410   7.649
  626MPD2    H7 9331   3.022   4.440   7.553
  627MPD2     C 9332   2.857   2.044   9.717
  627MPD2    C1 9333   2.815   2.149   9.640
  627MPD2    C2 9334   2.902   2.224   9.559
  627MPD2    C3 9335   3.025   2.164   9.538
  627MPD2    C4 9336   3.053   2.044   9.601
  627MPD2    C5 9337   2.980   1.989   9.698
  627MPD2     H 9338   2.875   2.316   9.508
  627MPD2    H1 9339   3.134   1.980   9.568
  627MPD2    H2 9340   2.794   2.004   9.796
  627MPD2    H3 9341   3.001   1.897   9.751
  627MPD2     N 9342   3.112   2.200   9.437
  627MPD2    H5 9343   3.202   2.153   9.435
  627MPD2    N1 9344   2.677   2.188   9.656
  627MPD2    H7 9345   2.615   2.137   9.718
  628MPD2     C 9346   3.181   1.788   8.780
  628MPD2    C1 9347   3.265   1.894   8.763
  628MPD2    C2 9348   3.366   1.890   8.672
  628MPD2    C3 9349   3.395   1.778   8.599
  628MPD2    C4 9350   3.296   1.683   8.592
  628MPD2    C5 9351   3.197   1.688   8.690
  628MPD2     H 9352   3.434   1.974   8.665
  628MPD2    H1 9353   3.306   1.599   8.525
  628MPD2    H2 9354   3.103   1.780   8.854
  628MPD2    H3 9355   3.119   1.612   8.684
  628MPD2     N 9356   3.517   1.783   8.529
  628MPD2    H5 9357   3.572   1.868   8.524
  628MPD2    N1 9358   3.268   2.000   8.853
  628MPD2    H7 9359   3.341   2.070   8.849
  629MPD2     C 9360   4.760   1.191  15.063
  629MPD2    C1 9361   0.010   1.077  15.001
  629MPD2    C2 9362   0.132   1.016  15.033
  629MPD2    C3 9363   0.210   1.069  15.122
  629MPD2    C4 9364   0.177   1.191  15.184
  629MPD2    C5 9365   0.054   1.243  15.158
  629MPD2     H 9366   0.172   0.938  14.969
  629MPD2    H1 9367   0.233   1.248  15.258
  629MPD2    H2 9368   4.671   1.251  15.048
  629MPD2    H3 9369   0.030   1.333  15.214
  629MPD2     N 9370   0.338   1.009  15.136
  629MPD2    H5 9371   0.348   0.926  15.079
  629MPD2    N1 9372   4.715   1.027  14.897
  629MPD2    H7 9373   4.633   1.079  14.868
  630MPD2     C 9374   4.230   2.145   8.363
  630MPD2    C1 9375   4.155   2.100   8.472
  630MPD2    C2 9376   4.184   2.148   8.594
  630MPD2    C3 9377   4.284   2.249   8.614
  630MPD2    C4 9378   4.355   2.292   8.508
  630MPD2    C5 9379   4.334   2.234   8.389
  630MPD2     H 9380   4.130   2.111   8.681
  630MPD2    H1 9381   4.438   2.359   8.527
  630MPD2    H2 9382   4.211   2.128   8.258
  630MPD2    H3 9383   4.402   2.260   8.309
  630MPD2     N 9384   4.309   2.297   8.744
  630MPD2    H5 9385   4.262   2.259   8.825
  630MPD2    N1 9386   4.061   1.999   8.446
  630MPD2    H7 9387   4.066   1.967   8.350
  631MPD2     C 9388   1.034   2.514  14.330
  631MPD2    C1 9389   1.008   2.613  14.426
  631MPD2    C2 9390   0.893   2.598  14.510
  631MPD2    C3 9391   0.808   2.491  14.492
  631MPD2    C4 9392   0.841   2.394  14.397
  631MPD2    C5 9393   0.949   2.411  14.318
  631MPD2     H 9394   0.865   2.678  14.578
  631MPD2    H1 9395   0.774   2.310  14.379
  631MPD2    H2 9396   1.119   2.513  14.263
  631MPD2    H3 9397   0.954   2.335  14.241
  631MPD2     N 9398   0.698   2.462  14.569
  631MPD2    H5 9399   0.649   2.376  14.546
  631MPD2    N1 9400   1.097   2.719  14.458
  631MPD2    H7 9401   1.063   2.798  14.512
  632MPD2     C 9402   4.564   2.459  14.701
  632MPD2    C1 9403   4.642   2.352  14.700
  632MPD2    C2 9404   4.772   2.364  14.744
  632MPD2    C3 9405   0.023   2.481  14.798
  632MPD2    C4 9406   4.731   2.594  14.804
  632MPD2    C5 9407   4.602   2.577  14.759
  632MPD2     H 9408   0.059   2.288  14.742
  632MPD2    H1 9409   4.753   2.688  14.853
  632MPD2    H2 9410   4.459   2.455  14.675
  632MPD2    H3 9411   4.540   2.666  14.755
  632MPD2     N 9412   0.161   2.482  14.825
  632MPD2    H5 9413   0.210   2.393  14.819
  632MPD2    N1 9414   4.581   2.227  14.660
  632MPD2    H7 9415   4.485   2.233  14.629
  633MPD2     C 9416   2.249   0.005  10.615
  633MPD2    C1 9417   2.250   4.754  10.484
  633MPD2    C2 9418   2.209   0.044  10.383
  633MPD2    C3 9419   2.193   0.184  10.409
  633MPD2    C4 9420   2.185   0.226  10.541
  633MPD2    C5 9421   2.213   0.137  10.645
  633MPD2     H 9422   2.224   0.013  10.280
  633MPD2    H1 9423   2.172   0.330  10.568
  633MPD2    H2 9424   2.262   4.728  10.699
  633MPD2    H3 9425   2.211   0.169  10.748
  633MPD2     N 9426   2.164   0.274  10.300
  633MPD2    H5 9427   2.212   0.361  10.323
  633MPD2    N1 9428   2.290   4.626  10.453
  633MPD2    H7 9429   2.338   4.581  10.531
  634MPD2     C 9430   3.863   4.395   8.339
  634MPD2    C1 9431   3.774   4.452   8.253
  634MPD2    C2 9432   3.723   4.376   8.151
  634MPD2    C3 9433   3.773   4.251   8.127
  634MPD2    C4 9434   3.857   4.189   8.225
  634MPD2    C5 9435   3.904   4.267   8.326
  634MPD2     H 9436   3.650   4.418   8.083
  634MPD2    H1 9437   3.891   4.086   8.224
  634MPD2    H2 9438   3.911   4.449   8.420
  634MPD2    H3 9439   3.964   4.223   8.405
  634MPD2     N 9440   3.724   4.188   8.015
  634MPD2    H5 9441   3.675   4.256   7.958
  634MPD2    N1 9442   3.715   4.581   8.278
  634MPD2    H7 9443   3.655   4.619   8.206
  635MPD2     C 9444   1.969   3.804  14.792
  635MPD2    C1 9445   1.908   3.870  14.687
  635MPD2    C2 9446   1.947   3.836  14.561
  635MPD2    C3 9447   2.049   3.752  14.527
  635MPD2    C4 9448   2.110   3.685  14.634
  635MPD2    C5 9449   2.066   3.708  14.758
  635MPD2     H 9450   1.904   3.894  14.480
  635MPD2    H1 9451   2.187   3.609  14.629
  635MPD2    H2 9452   1.943   3.805  14.897
  635MPD2    H3 9453   2.117   3.652  14.836
  635MPD2     N 9454   2.076   3.729  14.391
  635MPD2    H5 9455   2.040   3.790  14.318
  635MPD2    N1 9456   1.818   3.970  14.717
  635MPD2    H7 9457   1.827   4.008  14.811
  636MPD2     C 9458   1.288   0.556  10.045
  636MPD2    C1 9459   1.405   0.562   9.972
  636MPD2    C2 9460   1.404   0.503   9.849
  636MPD2    C3 9461   1.287   0.436   9.805
  636MPD2    C4 9462   1.174   0.428   9.890
  636MPD2    C5 9463   1.174   0.493  10.014
  636MPD2     H 9464   1.490   0.504   9.783
  636MPD2    H1 9465   1.086   0.378   9.851
  636MPD2    H2 9466   1.291   0.615  10.136
  636MPD2    H3 9467   1.090   0.501  10.082
  636MPD2     N 9468   1.295   0.348   9.696
  636MPD2    H5 9469   1.218   0.283   9.692
  636MPD2    N1 9470   1.530   0.617  10.019
  636MPD2    H7 9471   1.596   0.634   9.944
  637MPD2     C 9472   1.976   3.612  10.114
  637MPD2    C1 9473   1.921   3.695  10.211
  637MPD2    C2 9474   1.791   3.739  10.202
  637MPD2    C3 9475   1.716   3.718  10.090
  637MPD2    C4 9476   1.761   3.626   9.996
  637MPD2    C5 9477   1.893   3.584  10.001
  637MPD2     H 9478   1.752   3.792  10.288
  637MPD2    H1 9479   1.698   3.602   9.911
  637MPD2    H2 9480   2.074   3.565  10.110
  637MPD2    H3 9481   1.930   3.511   9.930
  637MPD2     N 9482   1.591   3.764  10.076
  637MPD2    H5 9483   1.528   3.704  10.024
  637MPD2    N1 9484   1.987   3.727  10.329
  637MPD2    H7 9485   1.926   3.781  10.389
  638MPD2     C 9486   1.172   4.788  10.340
  638MPD2    C1 9487   1.163   0.102  10.432
  638MPD2    C2 9488   1.082   0.085  10.542
  638MPD2    C3 9489   1.005   4.756  10.553
  638MPD2    C4 9490   1.010   4.662  10.453
  638MPD2    C5 9491   1.100   4.672  10.351
  638MPD2     H 9492   1.074   0.157  10.622
  638MPD2    H1 9493   0.946   4.575  10.454
  638MPD2    H2 9494   1.243   0.003  10.258
  638MPD2    H3 9495   1.115   4.592  10.280
  638MPD2     N 9496   0.925   4.722  10.664
  638MPD2    H5 9497   0.922   4.621  10.677
  638MPD2    N1 9498   1.244   0.213  10.427
  638MPD2    H7 9499   1.237   0.274  10.508
  639MPD2     C 9500   2.131   2.528  15.103
  639MPD2    C1 9501   2.101   2.526  14.968
  639MPD2    C2 9502   2.079   2.640  14.891
  639MPD2    C3 9503   2.081   2.760  14.951
  639MPD2    C4 9504   2.099   2.763  15.087
  639MPD2    C5 9505   2.121   2.650  15.165
  639MPD2     H 9506   2.065   2.630  14.784
  639MPD2    H1 9507   2.106   2.862  15.132
  639MPD2    H2 9508   2.146   2.443  15.168
  639MPD2    H3 9509   2.109   2.654  15.273
  639MPD2     N 9510   2.065   2.876  14.874
  639MPD2    H5 9511   2.070   2.869  14.773
  639MPD2    N1 9512   2.085   2.406  14.895
  639MPD2    H7 9513   2.073   2.417  14.795
  640MPD2     C 9514   4.514   2.713   8.087
  640MPD2    C1 9515   4.385   2.759   8.096
  640MPD2    C2 9516   4.309   2.723   8.214
  640MPD2    C3 9517   4.357   2.633   8.310
  640MPD2    C4 9518   4.484   2.574   8.291
  640MPD2    C5 9519   4.561   2.617   8.186
  640MPD2     H 9520   4.210   2.766   8.210
  640MPD2    H1 9521   4.520   2.500   8.362
  640MPD2    H2 9522   4.569   2.732   7.996
  640MPD2    H3 9523   4.662   2.577   8.179
  640MPD2     N 9524   4.280   2.606   8.427
  640MPD2    H5 9525   4.330   2.577   8.510
  640MPD2    N1 9526   4.330   2.867   8.018
  640MPD2    H7 9527   4.240   2.909   8.039
  641MPD2     C 9528   4.741   4.215   6.973
  641MPD2    C1 9529   0.056   4.155   7.040
  641MPD2    C2 9530   0.034   4.060   7.137
  641MPD2    C3 9531   4.702   4.016   7.161
  641MPD2    C4 9532   4.590   4.079   7.104
  641MPD2    C5 9533   4.617   4.173   7.006
  641MPD2     H 9534   0.125   4.019   7.180
  641MPD2    H1 9535   4.488   4.052   7.130
  641MPD2    H2 9536   4.752   4.298   6.904
  641MPD2    H3 9537   4.532   4.221   6.958
  641MPD2     N 9538   4.680   3.901   7.243
  641MPD2    H5 9539   4.585   3.866   7.251
  641MPD2    N1 9540   0.180   4.206   7.006
  641MPD2    H7 9541   0.169   4.280   6.938
  642MPD2     C 9542   4.123   1.459   7.257
  642MPD2    C1 9543   4.063   1.338   7.276
  642MPD2    C2 9544   4.130   1.211   7.238
  642MPD2    C3 9545   4.256   1.222   7.180
  642MPD2    C4 9546   4.322   1.339   7.177
  642MPD2    C5 9547   4.252   1.454   7.212
  642MPD2     H 9548   4.078   1.117   7.226
  642MPD2    H1 9549   4.426   1.347   7.148
  642MPD2    H2 9550   4.079   1.555   7.280
  642MPD2    H3 9551   4.310   1.546   7.210
  642MPD2     N 9552   4.332   1.112   7.134
  642MPD2    H5 9553   4.431   1.132   7.125
  642MPD2    N1 9554   3.932   1.332   7.333
  642MPD2    H7 9555   3.900   1.238   7.355
  643MPD2     C 9556   0.216   4.556   8.454
  643MPD2    C1 9557   0.171   4.679   8.503
  643MPD2    C2 9558   0.035   4.696   8.530
  643MPD2    C3 9559   4.734   4.591   8.511
  643MPD2    C4 9560   4.776   4.469   8.464
  643MPD2    C5 9561   0.120   4.455   8.430
  643MPD2     H 9562   0.008   4.786   8.585
  643MPD2    H1 9563   4.710   4.387   8.437
  643MPD2    H2 9564   0.320   4.541   8.428
  643MPD2    H3 9565   0.155   4.363   8.386
  643MPD2     N 9566   4.604   4.587   8.548
  643MPD2    H5 9567   4.546   4.505   8.536
  643MPD2    N1 9568   0.254   0.002   8.522
  643MPD2    H7 9569   0.205   0.089   8.542
  644MPD2     C 9570   1.017   4.414   9.557
  644MPD2    C1 9571   1.076   4.506   9.472
  644MPD2    C2 9572   1.046   4.493   9.339
  644MPD2    C3 9573   0.963   4.395   9.296
  644MPD2    C4 9574   0.916   4.297   9.381
  644MPD2    C5 9575   0.939   4.311   9.515
  644MPD2     H 9576   1.080   4.571   9.271
  644MPD2    H1 9577   0.873   4.203   9.348
  644MPD2    H2 9578   1.032   4.422   9.664
  644MPD2    H3 9579   0.904   4.238   9.586
  644MPD2     N 9580   0.940   4.391   9.152
  644MPD2    H5 9581   0.979   4.469   9.099
  644MPD2    N1 9582   1.161   4.606   9.529
  644MPD2    H7 9583   1.191   4.599   9.626
  645MPD2     C 9584   4.089   4.119   6.163
  645MPD2    C1 9585   4.198   4.107   6.250
  645MPD2    C2 9586   4.166   4.112   6.385
  645MPD2    C3 9587   4.035   4.113   6.430
  645MPD2    C4 9588   3.932   4.115   6.345
  645MPD2    C5 9589   3.961   4.124   6.212
  645MPD2     H 9590   4.249   4.100   6.454
  645MPD2    H1 9591   3.833   4.121   6.390
  645MPD2    H2 9592   4.113   4.125   6.057
  645MPD2    H3 9593   3.883   4.150   6.142
  645MPD2     N 9594   3.998   4.100   6.568
  645MPD2    H5 9595   3.900   4.083   6.590
  645MPD2    N1 9596   4.331   4.105   6.197
  645MPD2    H7 9597   4.348   4.086   6.099
  646MPD2     C 9598   2.343   1.679  15.418
  646MPD2    C1 9599   2.260   1.773  15.365
  646MPD2    C2 9600   2.311   1.882  15.296
  646MPD2    C3 9601   2.451   1.894  15.276
  646MPD2    C4 9602   2.531   1.789  15.317
  646MPD2    C5 9603   2.475   1.688  15.397
  646MPD2     H 9604   2.247   1.958  15.254
  646MPD2    H1 9605   2.639   1.791  15.306
  646MPD2    H2 9606   2.296   1.595  15.469
  646MPD2    H3 9607   2.543   1.625  15.453
  646MPD2     N 9608   2.505   2.019  15.227
  646MPD2    H5 9609   2.440   2.097  15.220
  646MPD2    N1 9610   2.119   1.772  15.378
  646MPD2    H7 9611   2.059   1.826  15.316
  647MPD2     C 9612   3.913   1.924  14.153
  647MPD2    C1 9613   3.876   1.941  14.285
  647MPD2    C2 9614   3.985   1.961  14.373
  647MPD2    C3 9615   4.114   1.933  14.328
  647MPD2    C4 9616   4.144   1.904  14.200
  647MPD2    C5 9617   4.042   1.908  14.107
  647MPD2     H 9618   3.963   1.992  14.475
  647MPD2    H1 9619   4.243   1.885  14.160
  647MPD2    H2 9620   3.842   1.914  14.071
  647MPD2    H3 9621   4.055   1.896  14.000
  647MPD2     N 9622   4.232   1.929  14.417
  647MPD2    H5 9623   4.323   1.917  14.373
  647MPD2    N1 9624   3.740   1.970  14.314
  647MPD2    H7 9625   3.684   1.968  14.229
  648MPD2     C 9626   1.129   2.926  11.239
  648MPD2    C1 9627   1.214   2.904  11.136
  648MPD2    C2 9628   1.317   2.998  11.123
  648MPD2    C3 9629   1.344   3.087  11.226
  648MPD2    C4 9630   1.252   3.106  11.330
  648MPD2    C5 9631   1.150   3.015  11.338
  648MPD2     H 9632   1.368   3.008  11.028
  648MPD2    H1 9633   1.258   3.183  11.406
  648MPD2    H2 9634   1.044   2.862  11.258
  648MPD2    H3 9635   1.066   3.028  11.405
  648MPD2     N 9636   1.444   3.196  11.208
  648MPD2    H5 9637   1.462   3.261  11.284
  648MPD2    N1 9638   1.204   2.788  11.056
  648MPD2    H7 9639   1.129   2.722  11.071
  649MPD2     C 9640   3.054   4.528   8.788
  649MPD2    C1 9641   2.952   4.564   8.865
  649MPD2    C2 9642   2.878   4.675   8.821
  649MPD2    C3 9643   2.915   4.747   8.717
  649MPD2    C4 9644   3.025   4.706   8.646
  649MPD2    C5 9645   3.094   4.602   8.686
  649MPD2     H 9646   2.789   4.689   8.881
  649MPD2    H1 9647   3.059   4.767   8.563
  649MPD2    H2 9648   3.112   4.443   8.822
  649MPD2    H3 9649   3.177   4.562   8.630
  649MPD2     N 9650   2.834   0.062   8.671
  649MPD2    H5 9651   2.838   0.073   8.570
  649MPD2    N1 9652   2.914   4.484   8.974
  649MPD2    H7 9653   2.829   4.505   9.026
  650MPD2     C 9654   3.687   2.813   8.170
  650MPD2    C1 9655   3.738   2.887   8.274
  650MPD2    C2 9656   3.760   3.017   8.249
  650MPD2    C3 9657   3.737   3.080   8.134
  650MPD2    C4 9658   3.676   3.014   8.031
  650MPD2    C5 9659   3.650   2.882   8.056
  650MPD2     H 9660   3.814   3.074   8.324
  650MPD2    H1 9661   3.659   3.060   7.934
  650MPD2    H2 9662   3.678   2.706   8.181
  650MPD2    H3 9663   3.593   2.825   7.983
  650MPD2     N 9664   3.772   3.212   8.137
  650MPD2    H5 9665   3.830   3.252   8.210
  650MPD2    N1 9666   3.784   2.821   8.388
  650MPD2    H7 9667   3.793   2.721   8.371
  651TMC3    C1 9668   0.680   2.837   9.893
  651TMC3    C2 9669   0.646   2.952   9.835
  651TMC3    C3 9670   0.708   3.068   9.881
  651TMC3    C4 9671   0.764   2.825  10.000
  651TMC3    C5 9672   0.817   2.942  10.049
  651TMC3    C6 9673   0.801   3.060   9.980
  651TMC3     C 9674   0.582   2.733   9.862
  651TMC3     O 9675   0.538   2.740   9.750
  651TMC3     H 9676   0.562   2.958   9.766
  651TMC3    H1 9677   0.784   2.723  10.030
  651TMC3    H2 9678   0.829   3.148  10.037
  651TMC3    C7 9679   0.932   2.924  10.143
  651TMC3    C8 9680   0.627   3.185   9.855
  651TMC3    O1 9681   0.929   2.828  10.217
  651TMC3    O2 9682   0.514   3.183   9.806
  652TMC3    C1 9683   1.244   3.791   6.769
  652TMC3    C2 9684   1.322   3.899   6.745
  652TMC3    C3 9685   1.398   3.894   6.631
  652TMC3    C4 9686   1.247   3.678   6.698
  652TMC3    C5 9687   1.330   3.671   6.586
  652TMC3    C6 9688   1.404   3.784   6.556
  652TMC3     C 9689   1.160   3.799   6.886
  652TMC3     O 9690   1.051   3.745   6.886
  652TMC3     H 9691   1.297   3.994   6.791
  652TMC3    H1 9692   1.170   3.606   6.720
  652TMC3    H2 9693   1.467   3.791   6.468
  652TMC3    C7 9694   1.325   3.563   6.488
  652TMC3    C8 9695   1.485   4.006   6.603
  652TMC3    O1 9696   1.374   3.588   6.381
  652TMC3    O2 9697   1.513   4.041   6.487
  653TMC3    C1 9698   1.900   2.546  12.423
  653TMC3    C2 9699   1.995   2.637  12.454
  653TMC3    C3 9700   2.004   2.696  12.575
  653TMC3    C4 9701   1.808   2.513  12.521
  653TMC3    C5 9702   1.833   2.549  12.653
  653TMC3    C6 9703   1.931   2.643  12.676
  653TMC3     C 9704   1.838   2.553  12.287
  653TMC3     O 9705   1.713   2.548  12.269
  653TMC3     H 9706   2.058   2.676  12.375
  653TMC3    H1 9707   1.717   2.458  12.503
  653TMC3    H2 9708   1.957   2.685  12.773
  653TMC3    C7 9709   1.781   2.455  12.756
  653TMC3    C8 9710   2.123   2.775  12.606
  653TMC3    O1 9711   1.714   2.358  12.721
  653TMC3    O2 9712   2.187   2.745  12.706
  654TMC3    C1 9713   4.724   1.038   7.854
  654TMC3    C2 9714   0.007   1.096   7.758
  654TMC3    C3 9715   4.746   1.212   7.701
  654TMC3    C4 9716   4.611   1.098   7.905
  654TMC3    C5 9717   4.565   1.215   7.854
  654TMC3    C6 9718   4.629   1.268   7.748
  654TMC3     C 9719   4.741   0.892   7.873
  654TMC3     O 9720   4.645   0.818   7.893
  654TMC3     H 9721   0.094   1.051   7.713
  654TMC3    H1 9722   4.548   1.048   7.977
  654TMC3    H2 9723   4.595   1.359   7.701
  654TMC3    C7 9724   4.452   1.296   7.897
  654TMC3    C8 9725   4.763   1.203   7.561
  654TMC3    O1 9726   4.476   1.416   7.893
  654TMC3    O2 9727   4.783   1.092   7.508
  655TMC3    C1 9728   4.089   2.387  10.150
  655TMC3    C2 9729   4.117   2.297  10.055
  655TMC3    C3 9730   4.085   2.165  10.080
  655TMC3    C4 9731   4.029   2.350  10.270
  655TMC3    C5 9732   3.983   2.221  10.287
  655TMC3    C6 9733   4.011   2.126  10.193
  655TMC3     C 9734   4.114   2.524  10.139
  655TMC3     O 9735   4.080   2.599  10.231
  655TMC3     H 9736   4.166   2.325   9.963
  655TMC3    H1 9737   4.017   2.422  10.350
  655TMC3    H2 9738   4.001   2.020  10.212
  655TMC3    C7 9739   3.950   2.191  10.428
  655TMC3    C8 9740   4.150   2.063  10.002
  655TMC3    O1 9741   3.879   2.275  10.484
  655TMC3    O2 9742   4.261   2.103   9.970
  656TMC3    C1 9743   2.758   3.858  14.141
  656TMC3    C2 9744   2.838   3.942  14.068
  656TMC3    C3 9745   2.969   3.909  14.061
  656TMC3    C4 9746   2.805   3.757  14.218
  656TMC3    C5 9747   2.939   3.729  14.204
  656TMC3    C6 9748   3.027   3.807  14.133
  656TMC3     C 9749   2.620   3.900  14.150
  656TMC3     O 9750   2.577   3.970  14.061
  656TMC3     H 9751   2.801   4.025  14.009
  656TMC3    H1 9752   2.739   3.683  14.262
  656TMC3    H2 9753   3.127   3.770  14.117
  656TMC3    C7 9754   2.949   3.595  14.152
  656TMC3    C8 9755   3.024   3.919  13.927
  656TMC3    O1 9756   2.961   3.596  14.027
  656TMC3    O2 9757   2.999   4.019  13.868
  657TMC3    C1 9758   4.644   2.769   8.551
  657TMC3    C2 9759   4.662   2.797   8.419
  657TMC3    C3 9760   4.622   2.920   8.381
  657TMC3    C4 9761   4.581   2.846   8.649
  657TMC3    C5 9762   4.532   2.966   8.605
  657TMC3    C6 9763   4.545   2.994   8.468
  657TMC3     C 9764   4.688   2.639   8.589
  657TMC3     O 9765   4.718   2.573   8.492
  657TMC3     H 9766   4.719   2.742   8.345
  657TMC3    H1 9767   4.568   2.819   8.753
  657TMC3    H2 9768   4.506   3.088   8.431
  657TMC3    C7 9769   4.540   3.080   8.695
  657TMC3    C8 9770   4.744   2.991   8.330
  657TMC3    O1 9771   4.588   3.068   8.807
  657TMC3    O2 9772   0.056   2.930   8.306
  658TMC3    C1 9773   1.374   2.414   8.458
  658TMC3    C2 9774   1.466   2.360   8.379
  658TMC3    C3 9775   1.544   2.456   8.315
  658TMC3    C4 9776   1.358   2.545   8.489
  658TMC3    C5 9777   1.452   2.634   8.437
  658TMC3    C6 9778   1.541   2.588   8.345
  658TMC3     C 9779   1.280   2.325   8.522
  658TMC3     O 9780   1.261   2.213   8.482
  658TMC3     H 9781   1.485   2.256   8.357
  658TMC3    H1 9782   1.271   2.574   8.547
  658TMC3    H2 9783   1.596   2.662   8.287
  658TMC3    C7 9784   1.437   2.774   8.459
  658TMC3    C8 9785   1.654   2.426   8.220
  658TMC3    O1 9786   1.488   2.851   8.380
  658TMC3    O2 9787   1.651   2.476   8.103
  659TMC3    C1 9788   2.480   2.795  12.073
  659TMC3    C2 9789   2.498   2.828  12.204
  659TMC3    C3 9790   2.506   2.961  12.234
  659TMC3    C4 9791   2.453   2.889  11.978
  659TMC3    C5 9792   2.447   3.018  12.018
  659TMC3    C6 9793   2.484   3.061  12.145
  659TMC3     C 9794   2.449   2.655  12.050
  659TMC3     O 9795   2.415   2.594  12.151
  659TMC3     H 9796   2.547   2.756  12.269
  659TMC3    H1 9797   2.428   2.857  11.877
  659TMC3    H2 9798   2.482   3.166  12.171
  659TMC3    C7 9799   2.397   3.115  11.922
  659TMC3    C8 9800   2.515   3.000  12.372
  659TMC3    O1 9801   2.313   3.086  11.835
  659TMC3    O2 9802   2.451   2.931  12.454
  660TMC3    C1 9803   4.453   4.037  14.683
  660TMC3    C2 9804   4.424   4.147  14.604
  660TMC3    C3 9805   4.520   4.208  14.525
  660TMC3    C4 9806   4.584   3.993  14.697
  660TMC3    C5 9807   4.680   4.059  14.626
  660TMC3    C6 9808   4.650   4.162  14.539
  660TMC3     C 9809   4.369   3.926  14.650
  660TMC3     O 9810   4.417   3.829  14.597
  660TMC3     H 9811   4.320   4.177  14.597
  660TMC3    H1 9812   4.587   3.897  14.747
  660TMC3    H2 9813   4.733   4.192  14.476
  660TMC3    C7 9814   0.016   3.978  14.613
  660TMC3    C8 9815   4.477   4.214  14.388
  660TMC3    O1 9816   4.785   3.863  14.642
  660TMC3    O2 9817   4.355   4.216  14.377
  661TMC3    C1 9818   0.442   2.571  12.015
  661TMC3    C2 9819   0.326   2.513  11.971
  661TMC3    C3 9820   0.326   2.379  11.944
  661TMC3    C4 9821   0.550   2.497  12.048
  661TMC3    C5 9822   0.547   2.364  12.020
  661TMC3    C6 9823   0.435   2.300  11.968
  661TMC3     C 9824   0.449   2.723  12.005
  661TMC3     O 9825   0.345   2.780  11.977
  661TMC3     H 9826   0.239   2.566  11.934
  661TMC3    H1 9827   0.642   2.553  12.063
  661TMC3    H2 9828   0.441   2.196  11.938
  661TMC3    C7 9829   0.673   2.298  12.045
  661TMC3    C8 9830   0.265   2.334  11.821
  661TMC3    O1 9831   0.761   2.364  12.097
  661TMC3    O2 9832   0.322   2.272  11.735
  662TMC3    C1 9833   4.695   2.325  10.764
  662TMC3    C2 9834   0.013   2.245  10.749
  662TMC3    C3 9835   0.038   2.148  10.846
  662TMC3    C4 9836   4.615   2.319  10.880
  662TMC3    C5 9837   4.646   2.222  10.972
  662TMC3    C6 9838   4.747   2.130  10.960
  662TMC3     C 9839   4.677   2.440  10.676
  662TMC3     O 9840   4.773   2.482  10.616
  662TMC3     H 9841   0.067   2.253  10.655
  662TMC3    H1 9842   4.532   2.385  10.905
  662TMC3    H2 9843   4.745   2.047  11.030
  662TMC3    C7 9844   4.594   2.251  11.103
  662TMC3    C8 9845   0.152   2.070  10.817
  662TMC3    O1 9846   4.526   2.178  11.169
  662TMC3    O2 9847   0.182   2.060  10.700
  663TMC3    C1 9848   1.604   1.392   7.962
  663TMC3    C2 9849   1.563   1.440   7.842
  663TMC3    C3 9850   1.468   1.533   7.831
  663TMC3    C4 9851   1.548   1.449   8.070
  663TMC3    C5 9852   1.446   1.541   8.060
  663TMC3    C6 9853   1.409   1.591   7.937
  663TMC3     C 9854   1.725   1.306   7.962
  663TMC3     O 9855   1.757   1.239   7.864
  663TMC3     H 9856   1.593   1.402   7.745
  663TMC3    H1 9857   1.568   1.412   8.170
  663TMC3    H2 9858   1.327   1.662   7.928
  663TMC3    C7 9859   1.344   1.560   8.163
  663TMC3    C8 9860   1.381   1.536   7.720
  663TMC3    O1 9861   1.226   1.542   8.129
  663TMC3    O2 9862   1.301   1.443   7.709
  664TMC3    C1 9863   1.529   3.747  11.412
  664TMC3    C2 9864   1.539   3.734  11.546
  664TMC3    C3 9865   1.642   3.788  11.614
  664TMC3    C4 9866   1.623   3.813  11.346
  664TMC3    C5 9867   1.730   3.862  11.417
  664TMC3    C6 9868   1.751   3.844  11.549
  664TMC3     C 9869   1.420   3.671  11.359
  664TMC3     O 9870   1.359   3.600  11.440
  664TMC3     H 9871   1.449   3.702  11.597
  664TMC3    H1 9872   1.610   3.843  11.243
  664TMC3    H2 9873   1.822   3.896  11.613
  664TMC3    C7 9874   1.790   3.978  11.351
  664TMC3    C8 9875   1.667   3.713  11.739
  664TMC3    O1 9876   1.813   4.068  11.433
  664TMC3    O2 9877   1.744   3.754  11.826
  665TMC3    C1 9878   2.878   2.515  10.332
  665TMC3    C2 9879   2.777   2.609  10.339
  665TMC3    C3 9880   2.646   2.572  10.370
  665TMC3    C4 9881   2.835   2.388  10.338
  665TMC3    C5 9882   2.709   2.359  10.379
  665TMC3    C6 9883   2.613   2.444  10.405
  665TMC3     C 9884   2.988   2.542  10.248
  665TMC3     O 9885   3.019   2.445  10.184
  665TMC3     H 9886   2.799   2.713  10.317
  665TMC3    H1 9887   2.912   2.312  10.341
  665TMC3    H2 9888   2.511   2.419  10.430
  665TMC3    C7 9889   2.681   2.224  10.393
  665TMC3    C8 9890   2.549   2.680  10.383
  665TMC3    O1 9891   2.599   2.189  10.478
  665TMC3    O2 9892   2.573   2.776  10.313
  666TMC3    C1 9893   1.507   1.979  13.884
  666TMC3    C2 9894   1.554   2.109  13.896
  666TMC3    C3 9895   1.505   2.211  13.816
  666TMC3    C4 9896   1.406   1.962  13.795
  666TMC3    C5 9897   1.356   2.061  13.720
  666TMC3    C6 9898   1.408   2.181  13.721
  666TMC3     C 9899   1.618   1.898  13.830
  666TMC3     O 9900   1.602   1.779  13.832
  666TMC3     H 9901   1.638   2.123  13.962
  666TMC3    H1 9902   1.385   1.860  13.765
  666TMC3    H2 9903   1.368   2.254  13.651
  666TMC3    C7 9904   1.219   2.054  13.659
  666TMC3    C8 9905   1.612   2.310  13.791
  666TMC3    O1 9906   1.190   2.127  13.564
  666TMC3    O2 9907   1.722   2.280  13.831
  667TMC3    C1 9908   1.046   2.609  10.478
  667TMC3    C2 9909   1.177   2.646  10.476
  667TMC3    C3 9910   1.247   2.624  10.354
  667TMC3    C4 9911   0.981   2.542  10.381
  667TMC3    C5 9912   1.059   2.508  10.270
  667TMC3    C6 9913   1.195   2.540  10.260
  667TMC3     C 9914   0.974   2.690  10.578
  667TMC3     O 9915   0.997   2.667  10.698
  667TMC3     H 9916   1.216   2.715  10.549
  667TMC3    H1 9917   0.873   2.530  10.386
  667TMC3    H2 9918   1.255   2.502  10.179
  667TMC3    C7 9919   0.990   2.508  10.142
  667TMC3    C8 9920   1.379   2.667  10.342
  667TMC3    O1 9921   1.050   2.563  10.051
  667TMC3    O2 9922   1.465   2.582  10.336
  668TMC3    C1 9923   2.701   4.414  11.214
  668TMC3    C2 9924   2.700   4.554  11.220
  668TMC3    C3 9925   2.737   4.613  11.336
  668TMC3    C4 9926   2.748   4.346  11.319
  668TMC3    C5 9927   2.790   4.414  11.424
  668TMC3    C6 9928   2.785   4.547  11.440
  668TMC3     C 9929   2.740   4.373  11.082
  668TMC3     O 9930   2.795   4.456  11.011
  668TMC3     H 9931   2.660   4.617  11.142
  668TMC3    H1 9932   2.766   4.240  11.306
  668TMC3    H2 9933   2.797   4.599  11.535
  668TMC3    C7 9934   2.794   4.330  11.544
  668TMC3    C8 9935   2.691   4.748  11.346
  668TMC3    O1 9936   2.700   4.253  11.560
  668TMC3    O2 9937   2.597   4.788  11.276
  669TMC3    C1 9938   1.632   3.730   8.747
  669TMC3    C2 9939   1.756   3.742   8.687
  669TMC3    C3 9940   1.770   3.826   8.581
  669TMC3    C4 9941   1.524   3.807   8.713
  669TMC3    C5 9942   1.556   3.910   8.634
  669TMC3    C6 9943   1.676   3.926   8.564
  669TMC3     C 9944   1.596   3.618   8.821
  669TMC3     O 9945   1.480   3.584   8.806
  669TMC3     H 9946   1.834   3.675   8.721
  669TMC3    H1 9947   1.424   3.787   8.749
  669TMC3    H2 9948   1.696   4.007   8.495
  669TMC3    C7 9949   1.467   4.021   8.627
  669TMC3    C8 9950   1.905   3.860   8.551
  669TMC3    O1 9951   1.490   4.108   8.543
  669TMC3    O2 9952   1.984   3.838   8.637
  670TMC3    C1 9953   0.856   1.547  14.871
  670TMC3    C2 9954   0.850   1.465  14.768
  670TMC3    C3 9955   0.950   1.385  14.731
  670TMC3    C4 9956   0.974   1.562  14.935
  670TMC3    C5 9957   1.078   1.486  14.894
  670TMC3    C6 9958   1.068   1.394  14.796
  670TMC3     C 9959   0.768   1.667  14.871
  670TMC3     O 9960   0.813   1.766  14.921
  670TMC3     H 9961   0.765   1.458  14.700
  670TMC3    H1 9962   0.989   1.647  15.000
  670TMC3    H2 9963   1.145   1.319  14.781
  670TMC3    C7 9964   1.205   1.517  14.951
  670TMC3    C8 9965   0.923   1.280  14.629
  670TMC3    O1 9966   1.215   1.537  15.071
  670TMC3    O2 9967   0.812   1.246  14.595
  671TMC3    C1 9968   2.664   1.621  10.674
  671TMC3    C2 9969   2.533   1.672  10.659
  671TMC3    C3 9970   2.508   1.801  10.684
  671TMC3    C4 9971   2.765   1.709  10.697
  671TMC3    C5 9972   2.737   1.846  10.695
  671TMC3    C6 9973   2.610   1.891  10.692
  671TMC3     C 9974   2.656   1.495  10.754
  671TMC3     O 9975   2.544   1.462  10.786
  671TMC3     H 9976   2.447   1.606  10.647
  671TMC3    H1 9977   2.872   1.690  10.696
  671TMC3    H2 9978   2.580   1.994  10.707
  671TMC3    C7 9979   2.842   1.933  10.743
  671TMC3    C8 9980   2.407   1.819  10.783
  671TMC3    O1 9981   2.943   1.881  10.785
  671TMC3    O2 9982   2.387   1.935  10.815
  672TMC3    C1 9983   2.580   1.299  10.455
  672TMC3    C2 9984   2.516   1.392  10.377
  672TMC3    C3 9985   2.376   1.383  10.372
  672TMC3    C4 9986   2.508   1.214  10.530
  672TMC3    C5 9987   2.373   1.212  10.537
  672TMC3    C6 9988   2.306   1.306  10.458
  672TMC3     C 9989   2.721   1.312  10.472
  672TMC3     O 9990   2.768   1.426  10.473
  672TMC3     H 9991   2.569   1.472  10.326
  672TMC3    H1 9992   2.573   1.149  10.588
  672TMC3    H2 9993   2.198   1.313  10.470
  672TMC3    C7 9994   2.308   1.092  10.565
  672TMC3    C8 9995   2.322   1.491  10.300
  672TMC3    O1 9996   2.202   1.077  10.505
  672TMC3    O2 9997   2.350   1.489  10.183
  673TMC3    C1 9998   1.920   0.772  13.974
  673TMC3    C2 9999   1.905   0.674  13.882
  673TMC3    C310000   1.922   0.550  13.931
  673TMC3    C410001   1.950   0.755  14.108
  673TMC3    C510002   1.940   0.626  14.157
  673TMC3    C610003   1.933   0.526  14.063
  673TMC3     C10004   1.907   0.910  13.923
  673TMC3     O10005   1.836   0.922  13.824
  673TMC3     H10006   1.891   0.693  13.776
  673TMC3    H110007   1.954   0.842  14.173
  673TMC3    H210008   1.943   0.421  14.089
  673TMC3    C710009   1.835   0.616  14.257
  673TMC3    C810010   1.915   0.439  13.847
  673TMC3    O110011   1.851   0.650  14.375
  673TMC3    O210012   1.990   0.343  13.853
  674TMC3    C110013   3.814   2.204   9.546
  674TMC3    C210014   3.776   2.335   9.568
  674TMC3    C310015   3.657   2.382   9.513
  674TMC3    C410016   3.732   2.117   9.488
  674TMC3    C510017   3.603   2.159   9.454
  674TMC3    C610018   3.563   2.291   9.479
  674TMC3     C10019   3.945   2.170   9.600
  674TMC3     O10020   3.986   2.252   9.679
  674TMC3     H10021   3.852   2.405   9.600
  674TMC3    H110022   3.754   2.011   9.482
  674TMC3    H210023   3.459   2.316   9.464
  674TMC3    C710024   3.499   2.064   9.408
  674TMC3    C810025   3.681   2.471   9.402
  674TMC3    O110026   3.377   2.086   9.431
  674TMC3    O210027   3.583   2.462   9.325
  675TMC3    C110028   4.132   0.762  14.826
  675TMC3    C210029   4.222   0.850  14.772
  675TMC3    C310030   4.161   0.967  14.729
  675TMC3    C410031   4.007   0.795  14.868
  675TMC3    C510032   3.955   0.907  14.815
  675TMC3    C610033   4.028   0.995  14.744
  675TMC3     C10034   4.179   0.636  14.884
  675TMC3     O10035   4.127   0.605  14.988
  675TMC3     H10036   4.327   0.832  14.754
  675TMC3    H110037   3.941   0.718  14.906
  675TMC3    H210038   3.973   1.064  14.682
  675TMC3    C710039   3.817   0.909  14.785
  675TMC3    C810040   4.232   1.069  14.653
  675TMC3    O110041   3.782   0.947  14.672
  675TMC3    O210042   4.317   1.042  14.571
  676TMC3    C110043   1.500   3.465  12.308
  676TMC3    C210044   1.559   3.584  12.268
  676TMC3    C310045   1.473   3.693  12.254
  676TMC3    C410046   1.363   3.450  12.329
  676TMC3    C510047   1.282   3.551  12.295
  676TMC3    C610048   1.336   3.679  12.269
  676TMC3     C10049   1.581   3.376  12.390
  676TMC3     O10050   1.546   3.261  12.396
  676TMC3     H10051   1.667   3.589  12.269
  676TMC3    H110052   1.322   3.363  12.378
  676TMC3    H210053   1.281   3.772  12.267
  676TMC3    C710054   1.178   3.556  12.397
  676TMC3    C810055   1.534   3.823  12.260
  676TMC3    O110056   1.223   3.587  12.507
  676TMC3    O210057   1.452   3.920  12.280
  677TMC3    C110058   2.255   2.849   7.483
  677TMC3    C210059   2.185   2.886   7.373
  677TMC3    C310060   2.048   2.898   7.384
  677TMC3    C410061   2.206   2.828   7.600
  677TMC3    C510062   2.072   2.858   7.615
  677TMC3    C610063   1.987   2.885   7.503
  677TMC3     C10064   2.401   2.862   7.478
  677TMC3     O10065   2.455   2.911   7.378
  677TMC3     H10066   2.233   2.898   7.277
  677TMC3    H110067   2.258   2.803   7.692
  677TMC3    H210068   1.882   2.910   7.509
  677TMC3    C710069   2.009   2.840   7.743
  677TMC3    C810070   2.005   3.008   7.307
  677TMC3    O110071   2.057   2.749   7.807
  677TMC3    O210072   2.094   3.083   7.272
  678TMC3    C110073   3.864   3.657  14.843
  678TMC3    C210074   3.980   3.606  14.780
  678TMC3    C310075   3.962   3.549  14.656
  678TMC3    C410076   3.738   3.641  14.787
  678TMC3    C510077   3.734   3.576  14.670
  678TMC3    C610078   3.840   3.527  14.603
  678TMC3     C10079   3.876   3.736  14.970
  678TMC3     O10080   3.778   3.804  14.998
  678TMC3     H10081   4.080   3.616  14.821
  678TMC3    H110082   3.652   3.627  14.851
  678TMC3    H210083   3.817   3.485  14.506
  678TMC3    C710084   3.611   3.581  14.603
  678TMC3    C810085   4.069   3.467  14.607
  678TMC3    O110086   3.602   3.505  14.509
  678TMC3    O210087   4.175   3.480  14.664
  679TMC3    C110088   4.710   2.538   7.606
  679TMC3    C210089   4.579   2.550   7.634
  679TMC3    C310090   4.537   2.518   7.759
  679TMC3    C410091   0.015   2.493   7.697
  679TMC3    C510092   4.756   2.473   7.826
  679TMC3    C610093   4.625   2.488   7.860
  679TMC3     C10094   4.746   2.559   7.468
  679TMC3     O10095   4.657   2.514   7.400
  679TMC3     H10096   4.500   2.583   7.567
  679TMC3    H110097   0.117   2.467   7.671
  679TMC3    H210098   4.596   2.477   7.964
  679TMC3    C710099   0.073   2.493   7.921
  679TMC3    C810100   4.399   2.473   7.762
  679TMC3    O110101   0.160   2.574   7.884
  679TMC3    O210102   4.367   2.409   7.662
  680TMC3    C110103   3.284   4.213  10.825
  680TMC3    C210104   3.399   4.133  10.836
  680TMC3    C310105   3.446   4.114  10.959
  680TMC3    C410106   3.205   4.240  10.938
  680TMC3    C510107   3.251   4.207  11.062
  680TMC3    C610108   3.374   4.147  11.075
  680TMC3     C10109   3.247   4.258  10.696
  680TMC3     O10110   3.303   4.208  10.597
  680TMC3     H10111   3.456   4.104  10.749
  680TMC3    H110112   3.130   4.318  10.943
  680TMC3    H210113   3.400   4.102  11.170
  680TMC3    C710114   3.169   4.258  11.169
  680TMC3    C810115   3.503   3.978  10.970
  680TMC3    O110116   3.048   4.236  11.174
  680TMC3    O210117   3.448   3.883  10.913
  681TMC3    C110118   0.074   2.430  14.157
  681TMC3    C210119   0.005   2.341  14.234
  681TMC3    C310120   4.707   2.396  14.320
  681TMC3    C410121   0.077   2.567  14.187
  681TMC3    C510122   4.787   2.611  14.283
  681TMC3    C610123   4.699   2.529  14.339
  681TMC3     C10124   0.120   2.385  14.029
  681TMC3     O10125   0.054   2.294  13.984
  681TMC3     H10126   0.009   2.236  14.206
  681TMC3    H110127   0.131   2.632  14.119
  681TMC3    H210128   4.639   2.573  14.418
  681TMC3    C710129   4.734   2.742  14.264
  681TMC3    C810130   4.575   2.333  14.310
  681TMC3    O110131   4.614   2.747  14.230
  681TMC3    O210132   4.576   2.216  14.282
  682TMC3    C110133   4.507   2.688  13.023
  682TMC3    C210134   4.609   2.604  13.005
  682TMC3    C310135   4.734   2.654  12.976
  682TMC3    C410136   4.522   2.825  13.002
  682TMC3    C510137   4.647   2.866  12.964
  682TMC3    C610138   4.748   2.779  12.965
  682TMC3     C10139   4.400   2.649  13.109
  682TMC3     O10140   4.411   2.537  13.161
  682TMC3     H10141   4.603   2.496  13.012
  682TMC3    H110142   4.439   2.895  13.008
  682TMC3    H210143   0.059   2.819  12.959
  682TMC3    C710144   4.640   2.950  12.841
  682TMC3    C810145   0.026   2.571  12.898
  682TMC3    O110146   4.528   2.972  12.804
  682TMC3    O210147   4.770   2.457  12.888
  683TMC3    C110148   1.366   4.188   9.558
  683TMC3    C210149   1.364   4.065   9.621
  683TMC3    C310150   1.315   4.059   9.747
  683TMC3    C410151   1.312   4.300   9.617
  683TMC3    C510152   1.267   4.293   9.746
  683TMC3    C610153   1.271   4.169   9.812
  683TMC3     C10154   1.371   4.176   9.412
  683TMC3     O10155   1.300   4.084   9.374
  683TMC3     H10156   1.389   3.974   9.568
  683TMC3    H110157   1.307   4.397   9.568
  683TMC3    H210158   1.245   4.169   9.917
  683TMC3    C710159   1.290   4.406   9.827
  683TMC3    C810160   1.380   3.963   9.837
  683TMC3    O110161   1.253   4.512   9.782
  683TMC3    O210162   1.497   3.989   9.848
  684TMC3    C110163   0.955   3.949   7.850
  684TMC3    C210164   0.936   3.928   7.984
  684TMC3    C310165   0.884   4.031   8.056
  684TMC3    C410166   0.931   4.066   7.789
  684TMC3    C510167   0.887   4.169   7.864
  684TMC3    C610168   0.867   4.155   7.997
  684TMC3     C10169   1.022   3.841   7.776
  684TMC3     O10170   1.112   3.773   7.819
  684TMC3     H10171   0.956   3.835   8.036
  684TMC3    H110172   0.938   4.070   7.681
  684TMC3    H210173   0.833   4.233   8.064
  684TMC3    C710174   0.896   4.314   7.826
  684TMC3    C810175   0.829   4.012   8.192
  684TMC3    O110176   0.792   4.375   7.845
  684TMC3    O210177   0.708   4.032   8.193
  685TMC3    C110178   1.502   3.153  13.285
  685TMC3    C210179   1.562   3.055  13.361
  685TMC3    C310180   1.583   3.097  13.493
  685TMC3    C410181   1.474   3.280  13.322
  685TMC3    C510182   1.502   3.314  13.453
  685TMC3    C610183   1.550   3.219  13.540
  685TMC3     C10184   1.443   3.116  13.156
  685TMC3     O10185   1.403   3.202  13.075
  685TMC3     H10186   1.588   2.963  13.309
  685TMC3    H110187   1.442   3.350  13.245
  685TMC3    H210188   1.583   3.245  13.640
  685TMC3    C710189   1.434   3.428  13.512
  685TMC3    C810190   1.667   3.013  13.584
  685TMC3    O110191   1.458   3.454  13.627
  685TMC3    O210192   1.736   3.063  13.667
  686TMC3    C110193   3.197   0.763   9.414
  686TMC3    C210194   3.091   0.686   9.443
  686TMC3    C310195   3.105   0.549   9.470
  686TMC3    C410196   3.326   0.718   9.419
  686TMC3    C510197   3.339   0.584   9.454
  686TMC3    C610198   3.231   0.500   9.470
  686TMC3     C10199   3.172   0.906   9.389
  686TMC3     O10200   3.074   0.960   9.432
  686TMC3     H10201   2.998   0.736   9.469
  686TMC3    H110202   3.411   0.781   9.396
  686TMC3    H210203   3.242   0.392   9.476
  686TMC3    C710204   3.462   0.529   9.407
  686TMC3    C810205   2.991   0.465   9.435
  686TMC3    O110206   3.471   0.534   9.284
  686TMC3    O210207   2.983   0.349   9.473
  687TMC3    C110208   3.135   2.127  12.719
  687TMC3    C210209   3.056   2.217  12.653
  687TMC3    C310210   3.017   2.193  12.526
  687TMC3    C410211   3.167   2.012  12.655
  687TMC3    C510212   3.120   1.981  12.532
  687TMC3    C610213   3.038   2.070  12.466
  687TMC3     C10214   3.246   2.179  12.787
  687TMC3     O10215   3.359   2.128  12.776
  687TMC3     H10216   3.037   2.320  12.683
  687TMC3    H110217   3.238   1.951  12.711
  687TMC3    H210218   3.014   2.050  12.362
  687TMC3    C710219   3.160   1.854  12.475
  687TMC3    C810220   2.959   2.310  12.449
  687TMC3    O110221   3.119   1.836  12.359
  687TMC3    O210222   2.940   2.411  12.510
  688TMC3    C110223   3.920   2.488  12.936
  688TMC3    C210224   3.941   2.405  12.832
  688TMC3    C310225   4.063   2.339  12.822
  688TMC3    C410226   4.009   2.511  13.039
  688TMC3    C510227   4.121   2.426  13.037
  688TMC3    C610228   4.160   2.359  12.922
  688TMC3     C10229   3.785   2.532  12.966
  688TMC3     O10230   3.777   2.633  13.037
  688TMC3     H10231   3.876   2.396  12.745
  688TMC3    H110232   3.991   2.573  13.126
  688TMC3    H210233   4.256   2.309  12.920
  688TMC3    C710234   4.136   2.356  13.166
  688TMC3    C810235   4.044   2.197  12.824
  688TMC3    O110236   4.041   2.380  13.245
  688TMC3    O210237   3.956   2.160  12.901
  689TMC3    C110238   2.869   3.814  10.736
  689TMC3    C210239   2.910   3.757  10.860
  689TMC3    C310240   3.040   3.769  10.903
  689TMC3    C410241   2.961   3.877  10.658
  689TMC3    C510242   3.094   3.880  10.701
  689TMC3    C610243   3.133   3.832  10.824
  689TMC3     C10244   2.754   3.743  10.671
  689TMC3     O10245   2.671   3.681  10.736
  689TMC3     H10246   2.833   3.705  10.916
  689TMC3    H110247   2.925   3.938  10.576
  689TMC3    H210248   3.235   3.795  10.834
  689TMC3    C710249   3.200   3.899  10.601
  689TMC3    C810250   3.079   3.660  10.977
  689TMC3    O110251   3.314   3.862  10.638
  689TMC3    O210252   3.023   3.556  10.944
  690TMC3    C110253   3.649   4.780  10.360
  690TMC3    C210254   3.645   0.105  10.288
  690TMC3    C310255   3.530   0.124  10.212
  690TMC3    C410256   3.545   4.691  10.365
  690TMC3    C510257   3.435   4.709  10.289
  690TMC3    C610258   3.429   0.027  10.204
  690TMC3     C10259   3.774   4.761  10.435
  690TMC3     O10260   3.855   0.060  10.452
  690TMC3     H10261   3.714   0.189  10.292
  690TMC3    H110262   3.567   4.603  10.424
  690TMC3    H210263   3.351   0.044  10.131
  690TMC3    C710264   3.393   4.590  10.230
  690TMC3    C810265   3.526   0.236  10.127
  690TMC3    O110266   3.424   4.490  10.291
  690TMC3    O210267   3.618   0.286  10.064
  691TMC3    C110268   0.613   1.662   7.998
  691TMC3    C210269   0.528   1.753   7.954
  691TMC3    C310270   0.534   1.792   7.823
  691TMC3    C410271   0.704   1.596   7.920
  691TMC3    C510272   0.709   1.639   7.792
  691TMC3    C610273   0.630   1.737   7.741
  691TMC3     C10274   0.649   1.667   8.137
  691TMC3     O10275   0.598   1.580   8.206
  691TMC3     H10276   0.477   1.799   8.038
  691TMC3    H110277   0.771   1.523   7.964
  691TMC3    H210278   0.636   1.766   7.637
  691TMC3    C710279   0.847   1.635   7.741
  691TMC3    C810280   0.481   1.923   7.789
  691TMC3    O110281   0.910   1.541   7.776
  691TMC3    O210282   0.558   1.991   7.718
  692TMC3    C110283   3.217   0.749  13.395
  692TMC3    C210284   3.136   0.775  13.506
  692TMC3    C310285   3.041   0.683  13.531
  692TMC3    C410286   3.182   0.657  13.302
  692TMC3    C510287   3.087   0.567  13.332
  692TMC3    C610288   3.025   0.576  13.450
  692TMC3     C10289   3.326   0.835  13.356
  692TMC3     O10290   3.335   0.850  13.234
  692TMC3     H10291   3.156   0.855  13.576
  692TMC3    H110292   3.248   0.645  13.216
  692TMC3    H210293   2.949   0.503  13.476
  692TMC3    C710294   3.048   0.457  13.253
  692TMC3    C810295   2.981   0.665  13.671
  692TMC3    O110296   2.966   0.375  13.294
  692TMC3    O210297   2.974   0.548  13.707
  693TMC3    C110298   0.613   0.613   6.565
  693TMC3    C210299   0.517   0.530   6.521
  693TMC3    C310300   0.544   0.405   6.475
  693TMC3    C410301   0.747   0.590   6.545
  693TMC3    C510302   0.771   0.459   6.502
  693TMC3    C610303   0.677   0.368   6.473
  693TMC3     C10304   0.570   0.745   6.614
  693TMC3     O10305   0.643   0.839   6.584
  693TMC3     H10306   0.410   0.548   6.529
  693TMC3    H110307   0.822   0.655   6.590
  693TMC3    H210308   0.704   0.272   6.430
  693TMC3    C710309   0.905   0.411   6.479
  693TMC3    C810310   0.434   0.311   6.472
  693TMC3    O110311   0.926   0.293   6.445
  693TMC3    O210312   0.315   0.345   6.464
  694TMC3    C110313   4.279   3.452   9.297
  694TMC3    C210314   4.324   3.534   9.195
  694TMC3    C310315   4.455   3.535   9.152
  694TMC3    C410316   4.367   3.366   9.361
  694TMC3    C510317   4.499   3.369   9.319
  694TMC3    C610318   4.545   3.455   9.223
  694TMC3     C10319   4.201   3.530   9.390
  694TMC3     O10320   4.133   3.465   9.468
  694TMC3     H10321   4.253   3.600   9.146
  694TMC3    H110322   4.354   3.316   9.456
  694TMC3    H210323   4.645   3.460   9.183
  694TMC3    C710324   4.587   3.289   9.402
  694TMC3    C810325   4.514   3.660   9.105
  694TMC3    O110326   4.543   3.184   9.448
  694TMC3    O210327   4.630   3.684   9.137
  695TMC3    C110328   4.616   4.770   8.148
  695TMC3    C210329   4.743   4.782   8.196
  695TMC3    C310330   0.037   0.055   8.115
  695TMC3    C410331   4.581   0.031   8.031
  695TMC3    C510332   4.665   0.101   7.956
  695TMC3    C610333   0.004   0.113   7.996
  695TMC3     C10334   4.526   4.677   8.214
  695TMC3     O10335   4.562   4.559   8.214
  695TMC3     H10336   4.774   4.733   8.288
  695TMC3    H110337   4.484   4.787   7.997
  695TMC3    H210338   0.080   0.177   7.953
  695TMC3    C710339   4.609   0.222   7.886
  695TMC3    C810340   0.152   0.106   8.183
  695TMC3    O110341   4.687   0.309   7.868
  695TMC3    O210342   0.132   0.159   8.290
  696TMC3    C110343   4.092   1.160  13.023
  696TMC3    C210344   4.024   1.091  12.918
  696TMC3    C310345   4.048   1.119  12.789
  696TMC3    C410346   4.166   1.271  12.986
  696TMC3    C510347   4.200   1.285  12.849
  696TMC3    C610348   4.142   1.208  12.749
  696TMC3     C10349   4.173   1.063  13.088
  696TMC3     O10350   4.118   0.964  13.139
  696TMC3     H10351   3.963   1.008  12.952
  696TMC3    H110352   4.223   1.323  13.062
  696TMC3    H210353   4.153   1.242  12.647
  696TMC3    C710354   4.327   1.335  12.812
  696TMC3    C810355   4.010   1.023  12.691
  696TMC3    O110356   4.371   1.289  12.710
  696TMC3    O210357   4.087   1.008  12.593
  697TMC3    C110358   4.000   3.732  12.385
  697TMC3    C210359   4.018   3.848  12.311
  697TMC3    C310360   3.928   3.874  12.204
  697TMC3    C410361   3.900   3.641  12.352
  697TMC3    C510362   3.824   3.667  12.241
  697TMC3    C610363   3.842   3.776  12.159
  697TMC3     C10364   4.038   3.729  12.529
  697TMC3     O10365   4.022   3.834  12.589
  697TMC3     H10366   4.100   3.911  12.342
  697TMC3    H110367   3.881   3.559  12.421
  697TMC3    H210368   3.791   3.795  12.065
  697TMC3    C710369   3.707   3.575  12.219
  697TMC3    C810370   3.928   4.003  12.141
  697TMC3    O110371   3.708   3.479  12.292
  697TMC3    O210372   3.933   4.007  12.019
  698TMC3    C110373   3.319   3.373  14.922
  698TMC3    C210374   3.214   3.398  14.846
  698TMC3    C310375   3.104   3.316  14.840
  698TMC3    C410376   3.305   3.290  15.033
  698TMC3    C510377   3.197   3.203  15.025
  698TMC3    C610378   3.094   3.212  14.932
  698TMC3     C10379   3.439   3.353  14.837
  698TMC3     O10380   3.423   3.329  14.722
  698TMC3     H10381   3.234   3.468  14.766
  698TMC3    H110382   3.392   3.259  15.089
  698TMC3    H210383   2.997   3.166  14.947
  698TMC3    C710384   3.194   3.114  15.136
  698TMC3    C810385   3.066   3.290  14.708
  698TMC3    O110386   3.271   3.129  15.228
  698TMC3    O210387   3.080   3.383  14.631
  699TMC3    C110388   4.494   0.658   7.659
  699TMC3    C210389   4.424   0.539   7.676
  699TMC3    C310390   4.473   0.430   7.607
  699TMC3    C410391   4.605   0.664   7.584
  699TMC3    C510392   4.661   0.545   7.544
  699TMC3    C610393   4.603   0.421   7.553
  699TMC3     C10394   4.425   0.784   7.674
  699TMC3     O10395   4.474   0.883   7.622
  699TMC3     H10396   4.332   0.533   7.732
  699TMC3    H110397   4.665   0.754   7.584
  699TMC3    H210398   4.648   0.342   7.494
  699TMC3    C710399   4.783   0.554   7.462
  699TMC3    C810400   4.379   0.322   7.572
  699TMC3    O110401   0.065   0.458   7.452
  699TMC3    O210402   4.265   0.324   7.611
  700TMC3    C110403   1.886   3.505  13.121
  700TMC3    C210404   2.020   3.525  13.155
  700TMC3    C310405   2.105   3.421  13.141
  700TMC3    C410406   1.837   3.382  13.074
  700TMC3    C510407   1.917   3.274  13.093
  700TMC3    C610408   2.053   3.298  13.124
  700TMC3     C10409   1.783   3.592  13.190
  700TMC3     O10410   1.677   3.543  13.225
  700TMC3     H10411   2.066   3.622  13.171
  700TMC3    H110412   1.730   3.378  13.057
  700TMC3    H210413   2.119   3.215  13.145
  700TMC3    C710414   1.859   3.141  13.088
  700TMC3    C810415   2.250   3.442  13.167
  700TMC3    O110416   1.758   3.125  13.019
  700TMC3    O210417   2.287   3.550  13.210
  701TMC3    C110418   3.439   4.116   7.222
  701TMC3    C210419   3.570   4.157   7.193
  701TMC3    C310420   3.580   4.264   7.107
  701TMC3    C410421   3.322   4.170   7.168
  701TMC3    C510422   3.341   4.269   7.078
  701TMC3    C610423   3.467   4.315   7.045
  701TMC3     C10424   3.415   3.985   7.284
  701TMC3     O10425   3.302   3.959   7.314
  701TMC3     H10426   3.655   4.113   7.244
  701TMC3    H110427   3.226   4.128   7.195
  701TMC3    H210428   3.479   4.376   6.956
  701TMC3    C710429   3.228   4.342   7.028
  701TMC3    C810430   3.709   4.291   7.054
  701TMC3    O110431   3.250   4.425   6.939
  701TMC3    O210432   3.738   4.251   6.940
  702TMC3    C110433   2.602   0.509  10.355
  702TMC3    C210434   2.687   0.491  10.247
  702TMC3    C310435   2.808   0.551  10.244
  702TMC3    C410436   2.642   0.587  10.457
  702TMC3    C510437   2.756   0.655  10.449
  702TMC3    C610438   2.839   0.638  10.340
  702TMC3     C10439   2.527   0.396  10.405
  702TMC3     O10440   2.544   0.377  10.526
  702TMC3     H10441   2.672   0.410  10.176
  702TMC3    H110442   2.575   0.598  10.542
  702TMC3    H210443   2.927   0.701  10.345
  702TMC3    C710444   2.817   0.682  10.579
  702TMC3    C810445   2.917   0.490  10.174
  702TMC3    O110446   2.739   0.734  10.658
  702TMC3    O210447   2.925   0.369  10.187
  703TMC3    C110448   1.722   0.076   8.696
  703TMC3    C210449   1.714   4.787   8.803
  703TMC3    C310450   1.763   4.664   8.786
  703TMC3    C410451   1.788   0.040   8.581
  703TMC3    C510452   1.833   4.704   8.564
  703TMC3    C610453   1.817   4.618   8.670
  703TMC3     C10454   1.639   0.198   8.692
  703TMC3     O10455   1.600   0.247   8.797
  703TMC3     H10456   1.676   0.037   8.897
  703TMC3    H110457   1.814   0.106   8.499
  703TMC3    H210458   1.869   4.523   8.668
  703TMC3    C710459   1.924   4.661   8.458
  703TMC3    C810460   1.746   4.583   8.900
  703TMC3    O110461   2.035   4.621   8.483
  703TMC3    O210462   1.748   4.638   9.008
  704TMC3    C110463   0.724   2.302   7.187
  704TMC3    C210464   0.860   2.321   7.180
  704TMC3    C310465   0.926   2.245   7.091
  704TMC3    C410466   0.662   2.205   7.118
  704TMC3    C510467   0.730   2.146   7.020
  704TMC3    C610468   0.862   2.174   6.997
  704TMC3     C10469   0.647   2.398   7.254
  704TMC3     O10470   0.562   2.365   7.338
  704TMC3     H10471   0.905   2.390   7.251
  704TMC3    H110472   0.556   2.189   7.135
  704TMC3    H210473   0.924   2.125   6.923
  704TMC3    C710474   0.655   2.090   6.909
  704TMC3    C810475   1.072   2.240   7.106
  704TMC3    O110476   0.543   2.137   6.899
  704TMC3    O210477   1.126   2.204   7.007
  705TMC3    C110478   3.812   4.636  15.272
  705TMC3    C210479   3.678   4.603  15.293
  705TMC3    C310480   3.644   4.471  15.288
  705TMC3    C410481   3.909   4.542  15.247
  705TMC3    C510482   3.868   4.417  15.248
  705TMC3    C610483   3.742   4.381  15.269
  705TMC3     C10484   3.855   4.765  15.234
  705TMC3     O10485   3.960   0.024  15.271
  705TMC3     H10486   3.608   4.683  15.313
  705TMC3    H110487   4.009   4.577  15.223
  705TMC3    H210488   3.707   4.279  15.284
  705TMC3    C710489   3.972   4.323  15.235
  705TMC3    C810490   3.540   4.425  15.198
  705TMC3    O110491   4.092   4.356  15.248
  705TMC3    O210492   3.580   4.373  15.092
  706TMC3    C110493   1.209   1.383  10.148
  706TMC3    C210494   1.198   1.389  10.014
  706TMC3    C310495   1.300   1.458   9.949
  706TMC3    C410496   1.307   1.455  10.215
  706TMC3    C510497   1.408   1.523  10.155
  706TMC3    C610498   1.412   1.494  10.022
  706TMC3     C10499   1.141   1.280  10.224
  706TMC3     O10500   1.020   1.269  10.200
  706TMC3     H10501   1.112   1.343   9.966
  706TMC3    H110502   1.295   1.467  10.322
  706TMC3    H210503   1.503   1.534   9.978
  706TMC3    C710504   1.409   1.665  10.177
  706TMC3    C810505   1.287   1.482   9.809
  706TMC3    O110506   1.298   1.721  10.189
  706TMC3    O210507   1.182   1.463   9.751
  707TMC3    C110508   2.357   2.651   9.220
  707TMC3    C210509   2.402   2.695   9.098
  707TMC3    C310510   2.456   2.817   9.085
  707TMC3    C410511   2.380   2.723   9.333
  707TMC3    C510512   2.428   2.852   9.313
  707TMC3    C610513   2.471   2.896   9.196
  707TMC3     C10514   2.275   2.540   9.213
  707TMC3     O10515   2.276   2.474   9.114
  707TMC3     H10516   2.395   2.632   9.010
  707TMC3    H110517   2.357   2.673   9.426
  707TMC3    H210518   2.533   2.985   9.201
  707TMC3    C710519   2.436   2.933   9.433
  707TMC3    C810520   2.520   2.853   8.958
  707TMC3    O110521   2.436   2.866   9.539
  707TMC3    O210522   2.556   2.967   8.957
  708TMC3    C110523   0.815   1.559  14.354
  708TMC3    C210524   0.838   1.438  14.297
  708TMC3    C310525   0.730   1.360  14.263
  708TMC3    C410526   0.693   1.595  14.412
  708TMC3    C510527   0.589   1.514  14.378
  708TMC3    C610528   0.602   1.394  14.309
  708TMC3     C10529   0.927   1.644  14.359
  708TMC3     O10530   1.031   1.600  14.411
  708TMC3     H10531   0.940   1.434  14.261
  708TMC3    H110532   0.680   1.689  14.464
  708TMC3    H210533   0.517   1.348  14.260
  708TMC3    C710534   0.457   1.538  14.439
  708TMC3    C810535   0.764   1.273  14.154
  708TMC3    O110536   0.428   1.651  14.475
  708TMC3    O210537   0.878   1.291  14.107
  709TMC3    C110538   1.807   1.220   8.942
  709TMC3    C210539   1.845   1.107   9.007
  709TMC3    C310540   1.890   1.012   8.918
  709TMC3    C410541   1.824   1.248   8.813
  709TMC3    C510542   1.883   1.153   8.732
  709TMC3    C610543   1.919   1.032   8.783
  709TMC3     C10544   1.725   1.316   9.015
  709TMC3     O10545   1.751   1.336   9.136
  709TMC3     H10546   1.787   1.083   9.095
  709TMC3    H110547   1.794   1.346   8.777
  709TMC3    H210548   1.954   0.955   8.715
  709TMC3    C710549   1.883   1.181   8.585
  709TMC3    C810550   1.883   0.877   8.976
  709TMC3    O110551   1.841   1.291   8.544
  709TMC3    O210552   1.908   0.877   9.096
  710TMC3    C110553   2.924   4.754  12.259
  710TMC3    C210554   2.840   4.659  12.320
  710TMC3    C310555   2.715   4.710  12.348
  710TMC3    C410556   2.885   0.090  12.218
  710TMC3    C510557   2.766   0.138  12.266
  710TMC3    C610558   2.675   0.050  12.326
  710TMC3     C10559   3.062   4.711  12.233
  710TMC3     O10560   3.106   4.736  12.120
  710TMC3     H10561   2.881   4.565  12.355
  710TMC3    H110562   2.949   0.152  12.156
  710TMC3    H210563   2.575   0.086  12.346
  710TMC3    C710564   2.720   0.275  12.247
  710TMC3    C810565   2.633   4.620  12.425
  710TMC3    O110566   2.615   0.309  12.295
  710TMC3    O210567   2.682   4.507  12.435
  711TMC3    C110568   2.300   1.880   7.454
  711TMC3    C210569   2.431   1.841   7.441
  711TMC3    C310570   2.516   1.915   7.362
  711TMC3    C410571   2.251   1.992   7.393
  711TMC3    C510572   2.336   2.064   7.309
  711TMC3    C610573   2.466   2.029   7.299
  711TMC3     C10574   2.199   1.793   7.521
  711TMC3     O10575   2.085   1.795   7.475
  711TMC3     H10576   2.480   1.765   7.501
  711TMC3    H110577   2.149   2.027   7.402
  711TMC3    H210578   2.544   2.096   7.266
  711TMC3    C710579   2.286   2.183   7.235
  711TMC3    C810580   2.610   1.844   7.277
  711TMC3    O110581   2.174   2.225   7.267
  711TMC3    O210582   2.696   1.911   7.217
  712TMC3    C110583   0.634   2.390   7.794
  712TMC3    C210584   0.658   2.336   7.671
  712TMC3    C310585   0.791   2.299   7.642
  712TMC3    C410586   0.737   2.425   7.876
  712TMC3    C510587   0.869   2.401   7.843
  712TMC3    C610588   0.894   2.334   7.720
  712TMC3     C10589   0.520   2.478   7.802
  712TMC3     O10590   0.542   2.590   7.764
  712TMC3     H10591   0.577   2.324   7.599
  712TMC3    H110592   0.706   2.469   7.970
  712TMC3    H210593   0.985   2.278   7.699
  712TMC3    C710594   0.978   2.479   7.892
  712TMC3    C810595   0.817   2.231   7.520
  712TMC3    O110596   1.079   2.467   7.827
  712TMC3    O210597   0.911   2.279   7.457
  713TMC3    C110598   3.189   2.963  11.873
  713TMC3    C210599   3.134   3.038  11.779
  713TMC3    C310600   3.222   3.131  11.714
  713TMC3    C410601   3.313   2.980  11.925
  713TMC3    C510602   3.387   3.087  11.870
  713TMC3    C610603   3.352   3.148  11.756
  713TMC3     C10604   3.154   2.826  11.852
  713TMC3     O10605   3.054   2.800  11.790
  713TMC3     H10606   3.030   3.022  11.754
  713TMC3    H110607   3.352   2.937  12.016
  713TMC3    H210608   3.418   3.224  11.715
  713TMC3    C710609   3.528   3.092  11.905
  713TMC3    C810610   3.175   3.234  11.619
  713TMC3    O110611   3.573   2.979  11.926
  713TMC3    O210612   3.247   3.338  11.618
  714TMC3    C110613   0.130   4.767   9.876
  714TMC3    C210614   0.025   4.690   9.842
  714TMC3    C310615   4.701   4.696   9.915
  714TMC3    C410616   0.124   0.072   9.977
  714TMC3    C510617   0.001   0.089  10.040
  714TMC3    C610618   4.687   4.785  10.023
  714TMC3     C10619   0.239   4.785   9.782
  714TMC3     O10620   0.289   0.108   9.773
  714TMC3     H10621   0.031   4.624   9.756
  714TMC3    H110622   0.213   0.133   9.986
  714TMC3    H210623   4.592   0.025  10.066
  714TMC3    C710624   4.738   0.219  10.019
  714TMC3    C810625   4.599   4.604   9.889
  714TMC3    O110626   4.642   0.220   9.946
  714TMC3    O210627   4.530   4.577   9.984
  715TMC3    C110628   4.116   0.425  12.462
  715TMC3    C210629   4.096   0.345  12.572
  715TMC3    C310630   4.026   0.231  12.555
  715TMC3    C410631   4.063   0.393  12.341
  715TMC3    C510632   3.989   0.275  12.325
  715TMC3    C610633   3.979   0.192  12.433
  715TMC3     C10634   4.256   0.477  12.454
  715TMC3     O10635   4.315   0.484  12.564
  715TMC3     H10636   4.135   0.375  12.669
  715TMC3    H110637   4.090   0.453  12.254
  715TMC3    H210638   3.925   0.099  12.419
  715TMC3    C710639   4.004   0.208  12.194
  715TMC3    C810640   4.034   0.132  12.661
  715TMC3    O110641   4.010   0.279  12.093
  715TMC3    O210642   4.036   0.015  12.622
  716TMC3    C110643   0.433   3.476  11.798
  716TMC3    C210644   0.309   3.464  11.857
  716TMC3    C310645   0.228   3.568  11.839
  716TMC3    C410646   0.473   3.581  11.726
  716TMC3    C510647   0.376   3.679  11.697
  716TMC3    C610648   0.246   3.673  11.747
  716TMC3     C10649   0.539   3.379  11.816
  716TMC3     O10650   0.652   3.410  11.785
  716TMC3     H10651   0.272   3.377  11.910
  716TMC3    H110652   0.573   3.587  11.684
  716TMC3    H210653   0.175   3.754  11.736
  716TMC3    C710654   0.418   3.814  11.673
  716TMC3    C810655   0.107   3.578  11.922
  716TMC3    O110656   0.339   3.897  11.626
  716TMC3    O210657   0.042   3.477  11.947
  717TMC3    C110658   0.140   4.373  10.435
  717TMC3    C210659   0.017   4.362  10.487
  717TMC3    C310660   4.758   4.242  10.522
  717TMC3    C410661   0.219   4.268  10.408
  717TMC3    C510662   0.168   4.145  10.440
  717TMC3    C610663   0.039   4.130  10.496
  717TMC3     C10664   0.193   4.503  10.403
  717TMC3     O10665   0.179   4.587  10.489
  717TMC3     H10666   4.753   4.452  10.517
  717TMC3    H110667   0.317   4.286  10.365
  717TMC3    H210668   0.004   4.040  10.546
  717TMC3    C710669   0.249   4.027  10.428
  717TMC3    C810670   4.637   4.236  10.606
  717TMC3    O110671   0.365   4.048  10.389
  717TMC3    O210672   4.544   4.170  10.561
  718TMC3    C110673   1.239   0.122   7.088
  718TMC3    C210674   1.308   0.106   6.967
  718TMC3    C310675   1.312   0.213   6.885
  718TMC3    C410676   1.155   0.226   7.111
  718TMC3    C510677   1.149   0.324   7.019
  718TMC3    C610678   1.222   0.320   6.902
  718TMC3     C10679   1.210   4.788   7.158
  718TMC3     O10680   1.175   0.002   7.276
  718TMC3     H10681   1.386   0.032   6.959
  718TMC3    H110682   1.102   0.237   7.205
  718TMC3    H210683   1.218   0.406   6.836
  718TMC3    C710684   1.096   0.448   7.057
  718TMC3    C810685   1.447   0.231   6.831
  718TMC3    O110686   1.052   0.454   7.168
  718TMC3    O210687   1.501   0.133   6.779
  719TMC3    C110688   1.038   0.474  12.725
  719TMC3    C210689   1.162   0.426  12.699
  719TMC3    C310690   1.188   0.341  12.594
  719TMC3    C410691   0.945   0.442  12.634
  719TMC3    C510692   0.979   0.388  12.513
  719TMC3    C610693   1.099   0.332  12.489
  719TMC3     C10694   1.029   0.605  12.768
  719TMC3     O10695   0.988   0.691  12.689
  719TMC3     H10696   1.246   0.453  12.763
  719TMC3    H110697   0.853   0.497  12.650
  719TMC3    H210698   1.121   0.292  12.391
  719TMC3    C710699   0.942   0.489  12.413
  719TMC3    C810700   1.326   0.309  12.556
  719TMC3    O110701   0.848   0.559  12.445
  719TMC3    O210702   1.410   0.387  12.601
  720TMC3    C110703   4.456   0.192   9.275
  720TMC3    C210704   4.382   0.255   9.178
  720TMC3    C310705   4.453   0.304   9.074
  720TMC3    C410706   4.593   0.181   9.277
  720TMC3    C510707   4.657   0.232   9.164
  720TMC3    C610708   4.587   0.288   9.064
  720TMC3     C10709   4.376   0.105   9.362
  720TMC3     O10710   4.436   0.007   9.406
  720TMC3     H10711   4.274   0.245   9.171
  720TMC3    H110712   4.633   0.110   9.348
  720TMC3    H210713   4.646   0.341   8.991
  720TMC3    C710714   4.777   0.162   9.124
  720TMC3    C810715   4.378   0.381   8.974
  720TMC3    O110716   4.788   0.052   9.178
  720TMC3    O210717   4.278   0.433   9.025
  721TMC3    C110718   4.380   2.873  12.232
  721TMC3    C210719   4.277   2.959  12.201
  721TMC3    C310720   4.221   2.954  12.082
  721TMC3    C410721   4.457   2.810  12.134
  721TMC3    C510722   4.409   2.826  12.007
  721TMC3    C610723   4.291   2.896  11.985
  721TMC3     C10724   4.453   2.913  12.351
  721TMC3     O10725   4.400   2.996  12.426
  721TMC3     H10726   4.228   3.028  12.269
  721TMC3    H110727   4.535   2.738  12.158
  721TMC3    H210728   4.243   2.880  11.889
  721TMC3    C710729   4.458   2.745  11.899
  721TMC3    C810730   4.169   3.083  12.035
  721TMC3    O110731   4.385   2.656  11.851
  721TMC3    O210732   4.211   3.180  12.095
  722TMC3    C110733   4.174   4.241  12.489
  722TMC3    C210734   4.107   4.239  12.607
  722TMC3    C310735   4.069   4.355  12.657
  722TMC3    C410736   4.221   4.354  12.434
  722TMC3    C510737   4.200   4.464  12.502
  722TMC3    C610738   4.120   4.475  12.611
  722TMC3     C10739   4.243   4.117  12.442
  722TMC3     O10740   4.289   4.115  12.328
  722TMC3     H10741   4.056   4.151  12.643
  722TMC3    H110742   4.292   4.353  12.352
  722TMC3    H210743   4.095   4.568  12.661
  722TMC3    C710744   4.306   4.568  12.486
  722TMC3    C810745   3.996   4.355  12.784
  722TMC3    O110746   4.370   4.561  12.387
  722TMC3    O210747   4.026   4.260  12.861
  723TMC3    C110748   3.111   1.534  13.604
  723TMC3    C210749   3.082   1.492  13.483
  723TMC3    C310750   3.068   1.358  13.461
  723TMC3    C410751   3.164   1.446  13.689
  723TMC3    C510752   3.161   1.312  13.664
  723TMC3    C610753   3.113   1.264  13.543
  723TMC3     C10754   3.171   1.663  13.600
  723TMC3     O10755   3.115   1.748  13.529
  723TMC3     H10756   3.064   1.560  13.400
  723TMC3    H110757   3.192   1.479  13.788
  723TMC3    H210758   3.089   1.159  13.529
  723TMC3    C710759   3.165   1.221  13.779
  723TMC3    C810760   3.023   1.321  13.328
  723TMC3    O110761   3.195   1.107  13.756
  723TMC3    O210762   2.935   1.393  13.278
  724TMC3    C110763   1.061   2.817   9.484
  724TMC3    C210764   1.043   2.693   9.422
  724TMC3    C310765   0.919   2.640   9.428
  724TMC3    C410766   0.960   2.888   9.543
  724TMC3    C510767   0.831   2.832   9.523
  724TMC3    C610768   0.810   2.710   9.464
  724TMC3     C10769   1.186   2.896   9.486
  724TMC3     O10770   1.185   2.984   9.569
  724TMC3     H10771   1.124   2.647   9.367
  724TMC3    H110772   0.978   2.986   9.586
  724TMC3    H210773   0.719   2.662   9.431
  724TMC3    C710774   0.727   2.933   9.505
  724TMC3    C810775   0.901   2.525   9.338
  724TMC3    O110776   0.755   3.053   9.494
  724TMC3    O210777   0.862   2.420   9.381
  725TMC3    C110778   0.849   0.492   8.488
  725TMC3    C210779   0.808   0.608   8.421
  725TMC3    C310780   0.760   0.707   8.492
  725TMC3    C410781   0.840   0.488   8.625
  725TMC3    C510782   0.805   0.603   8.690
  725TMC3    C610783   0.766   0.710   8.624
  725TMC3     C10784   0.850   0.375   8.407
  725TMC3     O10785   0.822   0.404   8.291
  725TMC3     H10786   0.799   0.615   8.313
  725TMC3    H110787   0.876   0.402   8.680
  725TMC3    H210788   0.722   0.794   8.676
  725TMC3    C710789   0.730   0.586   8.810
  725TMC3    C810790   0.633   0.756   8.442
  725TMC3    O110791   0.710   0.469   8.848
  725TMC3    O210792   0.543   0.763   8.529
  726TMC3    C110793   2.784   1.075   7.573
  726TMC3    C210794   2.843   1.195   7.558
  726TMC3    C310795   2.970   1.222   7.603
  726TMC3    C410796   2.860   0.971   7.626
  726TMC3    C510797   2.978   1.001   7.688
  726TMC3    C610798   3.042   1.124   7.676
  726TMC3     C10799   2.711   1.039   7.462
  726TMC3     O10800   2.607   1.098   7.430
  726TMC3     H10801   2.782   1.269   7.506
  726TMC3    H110802   2.815   0.875   7.647
  726TMC3    H210803   3.143   1.139   7.712
  726TMC3    C710804   3.072   0.885   7.701
  726TMC3    C810805   3.040   1.339   7.575
  726TMC3    O110806   3.188   0.906   7.739
  726TMC3    O210807   3.162   1.326   7.568
  727TMC3    C110808   1.939   3.179   8.122
  727TMC3    C210809   2.024   3.073   8.097
  727TMC3    C310810   2.052   2.989   8.206
  727TMC3    C410811   1.899   3.208   8.253
  727TMC3    C510812   1.955   3.141   8.356
  727TMC3    C610813   2.039   3.034   8.335
  727TMC3     C10814   1.942   3.284   8.026
  727TMC3     O10815   1.976   3.253   7.912
  727TMC3     H10816   2.052   3.046   7.996
  727TMC3    H110817   1.826   3.285   8.276
  727TMC3    H210818   2.068   2.967   8.415
  727TMC3    C710819   1.880   3.144   8.479
  727TMC3    C810820   2.124   2.870   8.182
  727TMC3    O110821   1.766   3.184   8.477
  727TMC3    O210822   2.216   2.890   8.106
  728TMC3    C110823   1.770   0.875   7.308
  728TMC3    C210824   1.764   0.916   7.175
  728TMC3    C310825   1.831   0.835   7.078
  728TMC3    C410826   1.855   0.783   7.350
  728TMC3    C510827   1.929   0.724   7.255
  728TMC3    C610828   1.922   0.741   7.120
  728TMC3     C10829   1.699   0.952   7.406
  728TMC3     O10830   1.694   1.071   7.390
  728TMC3     H10831   1.688   0.988   7.148
  728TMC3    H110832   1.866   0.764   7.456
  728TMC3    H210833   1.988   0.687   7.054
  728TMC3    C710834   1.968   0.593   7.283
  728TMC3    C810835   1.735   0.781   6.990
  728TMC3    O110836   1.987   0.566   7.400
  728TMC3    O210837   1.623   0.776   7.033
  729TMC3    C110838   0.859   3.438   7.676
  729TMC3    C210839   0.918   3.337   7.607
  729TMC3    C310840   1.024   3.279   7.659
  729TMC3    C410841   0.900   3.469   7.804
  729TMC3    C510842   0.997   3.388   7.859
  729TMC3    C610843   1.060   3.295   7.788
  729TMC3     C10844   0.714   3.447   7.659
  729TMC3     O10845   0.647   3.550   7.669
  729TMC3     H10846   0.867   3.317   7.513
  729TMC3    H110847   0.862   3.555   7.858
  729TMC3    H210848   1.149   3.253   7.834
  729TMC3    C710849   1.067   3.433   7.979
  729TMC3    C810850   1.123   3.208   7.582
  729TMC3    O110851   1.188   3.431   7.964
  729TMC3    O210852   1.221   3.151   7.632
  730TMC3    C110853   1.958   3.677   7.449
  730TMC3    C210854   2.086   3.665   7.397
  730TMC3    C310855   2.111   3.659   7.267
  730TMC3    C410856   1.852   3.675   7.360
  730TMC3    C510857   1.878   3.658   7.221
  730TMC3    C610858   2.006   3.647   7.180
  730TMC3     C10859   1.933   3.626   7.580
  730TMC3     O10860   1.846   3.540   7.594
  730TMC3     H10861   2.173   3.690   7.456
  730TMC3    H110862   1.753   3.678   7.405
  730TMC3    H210863   2.032   3.621   7.078
  730TMC3    C710864   1.788   3.569   7.151
  730TMC3    C810865   2.245   3.626   7.227
  730TMC3    O110866   1.671   3.601   7.152
  730TMC3    O210867   2.296   3.666   7.123
  731TMC3    C110868   1.212   0.822  11.161
  731TMC3    C210869   1.154   0.715  11.231
  731TMC3    C310870   1.241   0.622  11.286
  731TMC3    C410871   1.351   0.847  11.159
  731TMC3    C510872   1.430   0.752  11.219
  731TMC3    C610873   1.380   0.630  11.278
  731TMC3     C10874   1.139   0.909  11.072
  731TMC3     O10875   1.178   1.023  11.070
  731TMC3     H10876   1.047   0.698  11.226
  731TMC3    H110877   1.389   0.925  11.094
  731TMC3    H210878   1.460   0.565  11.313
  731TMC3    C710879   1.566   0.786  11.243
  731TMC3    C810880   1.186   0.489  11.291
  731TMC3    O110881   1.594   0.900  11.281
  731TMC3    O210882   1.080   0.475  11.231
  732TMC3    C110883   1.365   0.969  13.438
  732TMC3    C210884   1.495   0.931  13.466
  732TMC3    C310885   1.534   0.802  13.471
  732TMC3    C410886   1.284   0.869  13.400
  732TMC3    C510887   1.332   0.739  13.394
  732TMC3    C610888   1.456   0.700  13.434
  732TMC3     C10889   1.346   1.107  13.399
  732TMC3     O10890   1.449   1.172  13.395
  732TMC3     H10891   1.557   1.013  13.500
  732TMC3    H110892   1.182   0.894  13.374
  732TMC3    H210893   1.478   0.594  13.445
  732TMC3    C710894   1.235   0.629  13.379
  732TMC3    C810895   1.638   0.774  13.570
  732TMC3    O110896   1.279   0.518  13.353
  732TMC3    O210897   1.616   0.700  13.666
  733TMC3    C110898   4.169   2.400  13.904
  733TMC3    C210899   4.262   2.300  13.877
  733TMC3    C310900   4.217   2.176  13.848
  733TMC3    C410901   4.033   2.376  13.898
  733TMC3    C510902   3.991   2.245  13.867
  733TMC3    C610903   4.083   2.148  13.829
  733TMC3     C10904   4.199   2.538  13.857
  733TMC3     O10905   4.090   2.598  13.835
  733TMC3     H10906   4.368   2.314  13.860
  733TMC3    H110907   3.963   2.451  13.931
  733TMC3    H210908   4.038   2.050  13.817
  733TMC3    C710909   3.854   2.201  13.883
  733TMC3    C810910   4.300   2.059  13.838
  733TMC3    O110911   3.841   2.083  13.918
  733TMC3    O210912   4.248   1.958  13.792
  734TMC3    C110913   3.366   1.534  13.176
  734TMC3    C210914   3.356   1.452  13.066
  734TMC3    C310915   3.236   1.438  13.005
  734TMC3    C410916   3.264   1.623  13.204
  734TMC3    C510917   3.154   1.612  13.129
  734TMC3    C610918   3.131   1.510  13.043
  734TMC3     C10919   3.407   1.471  13.301
  734TMC3     O10920   3.383   1.526  13.410
  734TMC3     H10921   3.436   1.385  13.035
  734TMC3    H110922   3.273   1.698  13.282
  734TMC3    H210923   3.037   1.500  12.990
  734TMC3    C710924   3.053   1.713  13.156
  734TMC3    C810925   3.204   1.307  12.950
  734TMC3    O110926   3.095   1.825  13.162
  734TMC3    O210927   3.270   1.214  12.992
  735TMC3    C110928   1.327   3.808  13.931
  735TMC3    C210929   1.202   3.819  13.980
  735TMC3    C310930   1.153   3.721  14.056
  735TMC3    C410931   1.414   3.711  13.973
  735TMC3    C510932   1.361   3.614  14.053
  735TMC3    C610933   1.226   3.603  14.080
  735TMC3     C10934   1.388   3.913  13.851
  735TMC3     O10935   1.499   3.890  13.813
  735TMC3     H10936   1.132   3.895  13.945
  735TMC3    H110937   1.519   3.720  13.946
  735TMC3    H210938   1.197   3.521  14.145
  735TMC3    C710939   1.442   3.552  14.163
  735TMC3    C810940   1.065   3.758  14.162
  735TMC3    O110941   1.380   3.552  14.268
  735TMC3    O210942   1.045   3.672  14.251
  736TMC3    C110943   4.601   2.480  10.003
  736TMC3    C210944   4.562   2.415  10.121
  736TMC3    C310945   4.532   2.281  10.114
  736TMC3    C410946   4.626   2.404   9.891
  736TMC3    C510947   4.590   2.269   9.894
  736TMC3    C610948   4.554   2.206  10.004
  736TMC3     C10949   4.667   2.604  10.029
  736TMC3     O10950   4.648   2.656  10.138
  736TMC3     H10951   4.555   2.462  10.218
  736TMC3    H110952   4.682   2.426   9.801
  736TMC3    H210953   4.512   2.106   9.997
  736TMC3    C710954   4.554   2.208   9.768
  736TMC3    C810955   4.500   2.202  10.234
  736TMC3    O110956   4.627   2.230   9.676
  736TMC3    O210957   4.537   2.088  10.236
  737TMC3    C110958   4.294   3.618  11.211
  737TMC3    C210959   4.209   3.713  11.148
  737TMC3    C310960   4.205   3.715  11.014
  737TMC3    C410961   4.379   3.550  11.132
  737TMC3    C510962   4.368   3.558  10.997
  737TMC3    C610963   4.279   3.636  10.935
  737TMC3     C10964   4.312   3.607  11.355
  737TMC3     O10965   4.318   3.709  11.418
  737TMC3     H10966   4.147   3.786  11.199
  737TMC3    H110967   4.452   3.490  11.185
  737TMC3    H210968   4.296   3.661  10.831
  737TMC3    C710969   4.419   3.450  10.913
  737TMC3    C810970   4.107   3.801  10.952
  737TMC3    O110971   4.471   3.491  10.810
  737TMC3    O210972   4.059   3.900  11.009
  738TMC3    C110973   2.740   0.631   6.594
  738TMC3    C210974   2.782   0.706   6.696
  738TMC3    C310975   2.915   0.725   6.704
  738TMC3    C410976   2.818   0.566   6.503
  738TMC3    C510977   2.946   0.576   6.521
  738TMC3    C610978   2.998   0.644   6.631
  738TMC3     C10979   2.600   0.607   6.580
  738TMC3     O10980   2.558   0.603   6.466
  738TMC3     H10981   2.713   0.764   6.755
  738TMC3    H110982   2.771   0.510   6.423
  738TMC3    H210983   3.100   0.681   6.641
  738TMC3    C710984   3.037   0.494   6.443
  738TMC3    C810985   2.972   0.771   6.826
  738TMC3    O110986   2.988   0.452   6.341
  738TMC3    O210987   3.062   0.702   6.866
  739TMC3    C110988   2.457   1.061  12.669
  739TMC3    C210989   2.558   1.077  12.761
  739TMC3    C310990   2.633   1.189  12.752
  739TMC3    C410991   2.438   1.148  12.568
  739TMC3    C510992   2.503   1.263  12.573
  739TMC3    C610993   2.601   1.291  12.670
  739TMC3     C10994   2.377   0.942  12.690
  739TMC3     O10995   2.431   0.847  12.743
  739TMC3     H10996   2.590   0.991  12.818
  739TMC3    H110997   2.364   1.134  12.490
  739TMC3    H210998   2.656   1.384  12.673
  739TMC3    C710999   2.485   1.358  12.468
  739TMC3    C811000   2.749   1.206  12.843
  739TMC3    O111001   2.437   1.318  12.362
  739TMC3    O211002   2.786   1.314  12.884
  740TMC3    C111003   1.697   1.086  11.053
  740TMC3    C211004   1.589   1.045  10.983
  740TMC3    C311005   1.601   0.939  10.899
  740TMC3    C411006   1.820   1.025  11.040
  740TMC3    C511007   1.829   0.919  10.957
  740TMC3    C611008   1.719   0.877  10.881
  740TMC3     C11009   1.699   1.217  11.110
  740TMC3     O11010   1.604   1.292  11.087
  740TMC3     H11011   1.494   1.095  11.001
  740TMC3    H111012   1.907   1.081  11.073
  740TMC3    H211013   1.729   0.790  10.817
  740TMC3    C711014   1.944   0.905  10.871
  740TMC3    C811015   1.483   0.869  10.845
  740TMC3    O111016   1.924   0.912  10.748
  740TMC3    O211017   1.485   0.750  10.865
  741TMC3    C111018   4.301   4.423  11.162
  741TMC3    C211019   4.306   4.352  11.274
  741TMC3    C311020   4.289   4.216  11.266
  741TMC3    C411021   4.286   4.369  11.036
  741TMC3    C511022   4.266   4.233  11.030
  741TMC3    C611023   4.263   4.159  11.146
  741TMC3     C11024   4.257   4.559  11.168
  741TMC3     O11025   4.293   4.636  11.081
  741TMC3     H11026   4.340   4.398  11.366
  741TMC3    H111027   4.278   4.434  10.949
  741TMC3    H211028   4.253   4.053  11.126
  741TMC3    C711029   4.213   4.193  10.902
  741TMC3    C811030   4.343   4.117  11.363
  741TMC3    O111031   4.094   4.221  10.888
  741TMC3    O211032   4.320   3.998  11.336
  742TMC3    C111033   4.787   2.431   6.816
  742TMC3    C211034   0.107   2.416   6.735
  742TMC3    C311035   0.114   2.300   6.665
  742TMC3    C411036   4.694   2.332   6.835
  742TMC3    C511037   4.714   2.215   6.773
  742TMC3    C611038   0.026   2.195   6.682
  742TMC3     C11039   4.785   2.527   6.925
  742TMC3     O11040   4.679   2.545   6.978
  742TMC3     H11041   0.171   2.501   6.714
  742TMC3    H111042   4.604   2.342   6.894
  742TMC3    H211043   0.037   2.101   6.629
  742TMC3    C711044   4.645   2.096   6.824
  742TMC3    C811045   0.230   2.272   6.582
  742TMC3    O111046   4.648   1.994   6.756
  742TMC3    O211047   0.222   2.191   6.487
  743TMC3    C111048   0.803   1.695   8.568
  743TMC3    C211049   0.785   1.659   8.695
  743TMC3    C311050   0.731   1.753   8.776
  743TMC3    C411051   0.785   1.823   8.519
  743TMC3    C511052   0.738   1.918   8.600
  743TMC3    C611053   0.698   1.880   8.726
  743TMC3     C11054   0.914   1.635   8.501
  743TMC3     O11055   0.915   1.622   8.384
  743TMC3     H11056   0.822   1.566   8.737
  743TMC3    H111057   0.819   1.858   8.422
  743TMC3    H211058   0.645   1.947   8.794
  743TMC3    C711059   0.826   2.034   8.603
  743TMC3    C811060   0.778   1.764   8.911
  743TMC3    O111061   0.857   2.088   8.495
  743TMC3    O211062   0.800   1.878   8.945
  744TMC3    C111063   0.302   2.968  13.941
  744TMC3    C211064   0.179   2.945  13.890
  744TMC3    C311065   0.095   3.048  13.903
  744TMC3    C411066   0.341   3.091  13.988
  744TMC3    C511067   0.255   3.196  14.001
  744TMC3    C611068   0.131   3.172  13.953
  744TMC3     C11069   0.368   2.859  14.003
  744TMC3     O11070   0.307   2.776  14.073
  744TMC3     H11071   0.139   2.849  13.859
  744TMC3    H111072   0.443   3.109  14.020
  744TMC3    H211073   0.051   3.243  13.971
  744TMC3    C711074   0.285   3.283  14.117
  744TMC3    C811075   4.740   3.035  13.881
  744TMC3    O111076   0.396   3.335  14.109
  744TMC3    O211077   4.687   3.141  13.851
  745TMC3    C111078   3.576   1.808   9.890
  745TMC3    C211079   3.556   1.773  10.022
  745TMC3    C311080   3.483   1.861  10.100
  745TMC3    C411081   3.533   1.936   9.851
  745TMC3    C511082   3.469   2.020   9.936
  745TMC3    C611083   3.448   1.985  10.064
  745TMC3     C11084   3.522   1.708   9.807
  745TMC3     O11085   3.445   1.634   9.867
  745TMC3     H11086   3.577   1.670  10.049
  745TMC3    H111087   3.551   1.966   9.748
  745TMC3    H211088   3.389   2.053  10.125
  745TMC3    C711089   3.406   2.133   9.872
  745TMC3    C811090   3.367   1.792  10.165
  745TMC3    O111091   3.472   2.190   9.786
  745TMC3    O211092   3.291   1.853  10.243
  746TMC3    C111093   0.387   2.888  10.420
  746TMC3    C211094   0.409   2.758  10.449
  746TMC3    C311095   0.416   2.720  10.581
  746TMC3    C411096   0.375   2.981  10.519
  746TMC3    C511097   0.383   2.936  10.647
  746TMC3    C611098   0.398   2.808  10.681
  746TMC3     C11099   0.348   2.932  10.289
  746TMC3     O11100   0.342   3.051  10.263
  746TMC3     H11101   0.418   2.680  10.375
  746TMC3    H111102   0.356   3.086  10.499
  746TMC3    H211103   0.417   2.786  10.786
  746TMC3    C711104   0.419   3.033  10.740
  746TMC3    C811105   0.512   2.618  10.606
  746TMC3    O111106   0.526   3.010  10.798
  746TMC3    O211107   0.606   2.611  10.530
  747TMC3    C111108   1.915   0.051   9.362
  747TMC3    C211109   1.916   0.166   9.420
  747TMC3    C311110   1.802   0.256   9.415
  747TMC3    C411111   1.814   0.018   9.273
  747TMC3    C511112   1.700   0.099   9.279
  747TMC3    C611113   1.694   0.219   9.338
  747TMC3     C11114   2.044   0.003   9.337
  747TMC3     O11115   2.072   4.743   9.227
  747TMC3     H11116   2.010   0.208   9.452
  747TMC3    H111117   1.812   4.711   9.224
  747TMC3    H211118   1.604   0.279   9.342
  747TMC3    C711119   1.588   0.072   9.185
  747TMC3    C811120   1.826   0.401   9.420
  747TMC3    O111121   1.559   0.173   9.126
  747TMC3    O211122   1.748   0.473   9.361
  748TMC3    C111123   3.169   0.410  14.784
  748TMC3    C211124   3.292   0.435  14.839
  748TMC3    C311125   3.297   0.465  14.973
  748TMC3    C411126   3.056   0.434  14.857
  748TMC3    C511127   3.071   0.471  14.987
  748TMC3    C611128   3.189   0.484  15.051
  748TMC3     C11129   3.147   0.432  14.647
  748TMC3     O11130   3.037   0.478  14.616
  748TMC3     H11131   3.377   0.436  14.772
  748TMC3    H111132   2.959   0.401  14.822
  748TMC3    H211133   3.210   0.495  15.157
  748TMC3    C711134   2.956   0.415  15.067
  748TMC3    C811135   3.425   0.481  15.030
  748TMC3    O111136   2.979   0.371  15.176
  748TMC3    O211137   3.438   0.549  15.130
  749TMC3    C111138   2.727   4.104  13.194
  749TMC3    C211139   2.787   4.093  13.074
  749TMC3    C311140   2.841   3.976  13.030
  749TMC3    C411141   2.715   4.002  13.277
  749TMC3    C511142   2.777   3.886  13.241
  749TMC3    C611143   2.830   3.864  13.116
  749TMC3     C11144   2.640   4.222  13.230
  749TMC3     O11145   2.561   4.205  13.322
  749TMC3     H11146   2.801   4.177  13.008
  749TMC3    H111147   2.684   4.020  13.379
  749TMC3    H211148   2.852   3.764  13.081
  749TMC3    C711149   2.811   3.794  13.349
  749TMC3    C811150   2.920   3.962  12.907
  749TMC3    O111151   2.915   3.730  13.330
  749TMC3    O211152   3.013   3.885  12.924
  750TMC3    C111153   1.238   0.881  11.617
  750TMC3    C211154   1.299   0.754  11.623
  750TMC3    C311155   1.435   0.738  11.604
  750TMC3    C411156   1.316   0.992  11.593
  750TMC3    C511157   1.448   0.972  11.570
  750TMC3    C611158   1.506   0.847  11.584
  750TMC3     C11159   1.093   0.894  11.659
  750TMC3     O11160   1.039   0.794  11.708
  750TMC3     H11161   1.239   0.671  11.657
  750TMC3    H111162   1.265   1.088  11.601
  750TMC3    H211163   1.614   0.850  11.579
  750TMC3    C711164   1.536   1.095  11.573
  750TMC3    C811165   1.496   0.609  11.587
  750TMC3    O111166   1.624   1.090  11.657
  750TMC3    O211167   1.421   0.515  11.564
  751TMC3    C111168   2.307   1.325  13.678
  751TMC3    C211169   2.193   1.356  13.618
  751TMC3    C311170   2.184   1.479  13.549
  751TMC3    C411171   2.413   1.407  13.674
  751TMC3    C511172   2.409   1.530  13.609
  751TMC3    C611173   2.292   1.567  13.547
  751TMC3     C11174   2.340   1.188  13.662
  751TMC3     O11175   2.310   1.149  13.550
  751TMC3     H11176   2.105   1.293  13.627
  751TMC3    H111177   2.511   1.378  13.711
  751TMC3    H211178   2.292   1.640  13.467
  751TMC3    C711179   2.527   1.562  13.530
  751TMC3    C811180   2.150   1.454  13.410
  751TMC3    O111181   2.600   1.473  13.498
  751TMC3    O211182   2.103   1.551  13.349
  752TMC3    C111183   3.705   1.618   8.834
  752TMC3    C211184   3.827   1.677   8.849
  752TMC3    C311185   3.892   1.642   8.964
  752TMC3    C411186   3.681   1.505   8.904
  752TMC3    C511187   3.748   1.479   9.021
  752TMC3    C611188   3.850   1.555   9.053
  752TMC3     C11189   3.602   1.721   8.873
  752TMC3     O11190   3.645   1.834   8.861
  752TMC3     H11191   3.860   1.763   8.793
  752TMC3    H111192   3.604   1.435   8.872
  752TMC3    H211193   3.917   1.526   9.133
  752TMC3    C711194   3.657   1.434   9.126
  752TMC3    C811195   4.014   1.720   8.984
  752TMC3    O111196   3.583   1.344   9.100
  752TMC3    O211197   4.049   1.753   9.098
  753TMC3    C111198   2.232   4.658   7.713
  753TMC3    C211199   2.287   4.658   7.586
  753TMC3    C311200   2.333   4.538   7.542
  753TMC3    C411201   2.233   4.547   7.793
  753TMC3    C511202   2.283   4.427   7.742
  753TMC3    C611203   2.328   4.415   7.612
  753TMC3     C11204   2.224   4.773   7.792
  753TMC3     O11205   2.146   4.766   7.885
  753TMC3     H11206   2.306   4.749   7.531
  753TMC3    H111207   2.188   4.549   7.892
  753TMC3    H211208   2.345   4.315   7.575
  753TMC3    C711209   2.318   4.336   7.845
  753TMC3    C811210   2.364   4.524   7.402
  753TMC3    O111211   2.311   4.375   7.960
  753TMC3    O211212   2.341   4.625   7.339
  754TMC3    C111213   3.816   0.150  11.699
  754TMC3    C211214   3.737   0.246  11.645
  754TMC3    C311215   3.604   0.252  11.688
  754TMC3    C411216   3.773   0.070  11.800
  754TMC3    C511217   3.644   0.086  11.845
  754TMC3    C611218   3.553   0.173  11.786
  754TMC3     C11219   3.956   0.143  11.660
  754TMC3     O11220   4.023   0.052  11.708
  754TMC3     H11221   3.763   0.309  11.561
  754TMC3    H111222   3.847   0.011  11.852
  754TMC3    H211223   3.461   0.186  11.842
  754TMC3    C711224   3.639   0.089  11.981
  754TMC3    C811225   3.539   0.381  11.680
  754TMC3    O111226   3.670   4.779  12.042
  754TMC3    O211227   3.603   0.481  11.651
  755TMC3    C111228   3.582   3.154   9.436
  755TMC3    C211229   3.457   3.176   9.391
  755TMC3    C311230   3.439   3.239   9.271
  755TMC3    C411231   3.686   3.170   9.356
  755TMC3    C511232   3.667   3.215   9.228
  755TMC3    C611233   3.544   3.257   9.186
  755TMC3     C11234   3.602   3.077   9.566
  755TMC3     O11235   3.514   3.102   9.649
  755TMC3     H11236   3.375   3.161   9.460
  755TMC3    H111237   3.787   3.136   9.376
  755TMC3    H211238   3.536   3.269   9.079
  755TMC3    C711239   3.783   3.249   9.148
  755TMC3    C811240   3.301   3.251   9.225
  755TMC3    O111241   3.777   3.344   9.071
  755TMC3    O211242   3.213   3.216   9.299
  756TMC3    C111243   1.286   2.889  12.302
  756TMC3    C211244   1.402   2.936  12.367
  756TMC3    C311245   1.523   2.914  12.312
  756TMC3    C411246   1.297   2.817  12.194
  756TMC3    C511247   1.420   2.777  12.154
  756TMC3    C611248   1.536   2.834  12.197
  756TMC3     C11249   1.170   2.980  12.288
  756TMC3     O11250   1.122   2.994  12.177
  756TMC3     H11251   1.399   3.002  12.453
  756TMC3    H111252   1.210   2.766  12.153
  756TMC3    H211253   1.631   2.787  12.172
  756TMC3    C711254   1.431   2.692  12.033
  756TMC3    C811255   1.642   2.947  12.383
  756TMC3    O111256   1.496   2.738  11.940
  756TMC3    O211257   1.654   2.933  12.507
  757TMC3    C111258   4.231   3.539  11.844
  757TMC3    C211259   4.299   3.639  11.905
  757TMC3    C311260   4.426   3.621  11.922
  757TMC3    C411261   4.294   3.411  11.824
  757TMC3    C511262   4.426   3.394  11.862
  757TMC3    C611263   4.498   3.503  11.904
  757TMC3     C11264   4.148   3.592  11.737
  757TMC3     O11265   4.158   3.715  11.713
  757TMC3     H11266   4.244   3.726  11.938
  757TMC3    H111267   4.227   3.330  11.797
  757TMC3    H211268   4.604   3.509  11.927
  757TMC3    C711269   4.485   3.259  11.847
  757TMC3    C811270   4.505   3.744  11.901
  757TMC3    O111271   4.392   3.191  11.805
  757TMC3    O211272   4.603   3.770  11.970
  758TMC3    C111273   1.989   4.645  12.678
  758TMC3    C211274   2.063   4.610  12.566
  758TMC3    C311275   2.046   4.691  12.457
  758TMC3    C411276   1.921   4.762  12.685
  758TMC3    C511277   1.893   0.040  12.572
  758TMC3    C611278   1.963   0.011  12.458
  758TMC3     C11279   1.973   4.551  12.783
  758TMC3     O11280   1.942   4.583  12.899
  758TMC3     H11281   2.131   4.526  12.561
  758TMC3    H111282   1.860   4.782  12.772
  758TMC3    H211283   1.970   0.081  12.375
  758TMC3    C711284   1.843   0.178  12.594
  758TMC3    C811285   2.080   4.628  12.330
  758TMC3    O111286   1.916   0.269  12.550
  758TMC3    O211287   2.142   4.521  12.340
  759TMC3    C111288   2.929   3.092  12.828
  759TMC3    C211289   2.839   3.029  12.748
  759TMC3    C311290   2.888   2.955  12.644
  759TMC3    C411291   3.062   3.076  12.815
  759TMC3    C511292   3.106   2.998  12.712
  759TMC3    C611293   3.021   2.942  12.622
  759TMC3     C11294   2.889   3.189  12.933
  759TMC3     O11295   2.975   3.267  12.967
  759TMC3     H11296   2.732   3.041  12.756
  759TMC3    H111297   3.131   3.137  12.872
  759TMC3    H211298   3.050   2.906  12.524
  759TMC3    C711299   3.244   2.949  12.724
  759TMC3    C811300   2.800   2.871  12.561
  759TMC3    O111301   3.316   3.013  12.790
  759TMC3    O211302   2.846   2.851  12.449
  760TMC3    C111303   2.524   4.593   8.202
  760TMC3    C211304   2.495   4.621   8.073
  760TMC3    C311305   2.554   4.733   8.022
  760TMC3    C411306   2.603   4.669   8.279
  760TMC3    C511307   2.645   4.782   8.228
  760TMC3    C611308   2.615   0.036   8.100
  760TMC3     C11309   2.497   4.463   8.263
  760TMC3     O11310   2.559   4.425   8.362
  760TMC3     H11311   2.453   4.553   8.000
  760TMC3    H111312   2.632   4.642   8.380
  760TMC3    H211313   2.663   0.126   8.064
  760TMC3    C711314   2.769   0.056   8.294
  760TMC3    C811315   2.590   4.738   7.880
  760TMC3    O111316   2.840   4.769   8.351
  760TMC3    O211317   2.518   4.684   7.798
  761TMC3    C111318   0.051   4.650  13.552
  761TMC3    C211319   0.015   4.582  13.664
  761TMC3    C311320   0.043   4.445  13.669
  761TMC3    C411321   0.113   4.588  13.447
  761TMC3    C511322   0.140   4.459  13.456
  761TMC3    C611323   0.113   4.384  13.567
  761TMC3     C11324   4.769   4.772  13.524
  761TMC3     O11325   4.668   4.788  13.594
  761TMC3     H11326   4.738   4.620  13.741
  761TMC3    H111327   0.139   4.648  13.361
  761TMC3    H211328   0.144   4.280  13.575
  761TMC3    C711329   0.218   4.379  13.353
  761TMC3    C811330   4.725   4.369  13.722
  761TMC3    O111331   0.209   4.256  13.361
  761TMC3    O211332   4.692   4.274  13.653
  762TMC3    C111333   2.149   3.398  10.480
  762TMC3    C211334   2.010   3.400  10.480
  762TMC3    C311335   1.931   3.352  10.375
  762TMC3    C411336   2.211   3.347  10.374
  762TMC3    C511337   2.137   3.295  10.275
  762TMC3    C611338   2.004   3.291  10.272
  762TMC3     C11339   2.209   3.337  10.596
  762TMC3     O11340   2.324   3.364  10.630
  762TMC3     H11341   1.962   3.419  10.575
  762TMC3    H111342   2.319   3.336  10.376
  762TMC3    H211343   1.956   3.211  10.217
  762TMC3    C711344   2.198   3.197  10.187
  762TMC3    C811345   1.824   3.253  10.416
  762TMC3    O111346   2.141   3.092  10.173
  762TMC3    O211347   1.870   3.138  10.424
  763TMC3    C111348   3.337   1.415  15.072
  763TMC3    C211349   3.224   1.356  15.124
  763TMC3    C311350   3.180   1.235  15.076
  763TMC3    C411351   3.418   1.339  14.996
  763TMC3    C511352   3.373   1.227  14.938
  763TMC3    C611353   3.253   1.175  14.981
  763TMC3     C11354   3.329   1.562  15.062
  763TMC3     O11355   3.244   1.615  15.130
  763TMC3     H11356   3.149   1.417  15.173
  763TMC3    H111357   3.518   1.370  14.970
  763TMC3    H211358   3.208   1.094  14.926
  763TMC3    C711359   3.397   1.228  14.795
  763TMC3    C811360   3.038   1.217  15.064
  763TMC3    O111361   3.297   1.228  14.725
  763TMC3    O211362   2.998   1.214  14.948
  764TMC3    C111363   0.271   3.788   9.055
  764TMC3    C211364   0.174   3.701   9.018
  764TMC3    C311365   0.167   3.665   8.885
  764TMC3    C411366   0.354   3.849   8.967
  764TMC3    C511367   0.350   3.807   8.836
  764TMC3    C611368   0.257   3.711   8.796
  764TMC3     C11369   0.273   3.831   9.195
  764TMC3     O11370   0.165   3.842   9.246
  764TMC3     H11371   0.092   3.677   9.085
  764TMC3    H111372   0.429   3.916   9.008
  764TMC3    H211373   0.250   3.689   8.690
  764TMC3    C711374   0.416   3.887   8.736
  764TMC3    C811375   0.040   3.654   8.826
  764TMC3    O111376   0.437   3.834   8.625
  764TMC3    O211377   0.029   3.739   8.736
  765TMC3    C111378   3.270   3.498  12.708
  765TMC3    C211379   3.329   3.565  12.602
  765TMC3    C311380   3.250   3.620  12.504
  765TMC3    C411381   3.140   3.468  12.694
  765TMC3    C511382   3.072   3.501  12.585
  765TMC3    C611383   3.129   3.571  12.478
  765TMC3     C11384   3.348   3.437  12.816
  765TMC3     O11385   3.316   3.462  12.929
  765TMC3     H11386   3.435   3.587  12.607
  765TMC3    H111387   3.076   3.419  12.767
  765TMC3    H211388   3.058   3.607  12.405
  765TMC3    C711389   2.963   3.414  12.559
  765TMC3    C811390   3.244   3.763  12.529
  765TMC3    O111391   2.983   3.329  12.475
  765TMC3    O211392   3.300   3.803  12.629
  766TMC3    C111393   0.715   3.792  12.916
  766TMC3    C211394   0.628   3.888  12.964
  766TMC3    C311395   0.639   3.921  13.089
  766TMC3    C411396   0.809   3.731  12.996
  766TMC3    C511397   0.830   3.783  13.125
  766TMC3    C611398   0.734   3.866  13.174
  766TMC3     C11399   0.683   3.728  12.791
  766TMC3     O11400   0.574   3.751  12.743
  766TMC3     H11401   0.561   3.934  12.892
  766TMC3    H111402   0.862   3.641  12.967
  766TMC3    H211403   0.717   3.884  13.280
  766TMC3    C711404   0.941   3.723  13.198
  766TMC3    C811405   0.556   4.033  13.128
  766TMC3    O111406   1.011   3.653  13.129
  766TMC3    O211407   0.518   4.033  13.242
  767TMC3    C111408   4.465   2.917   9.342
  767TMC3    C211409   4.571   2.895   9.264
  767TMC3    C311410   4.664   2.811   9.321
  767TMC3    C411411   4.457   2.886   9.476
  767TMC3    C511412   4.564   2.818   9.535
  767TMC3    C611413   4.665   2.768   9.451
  767TMC3     C11414   4.337   2.956   9.288
  767TMC3     O11415   4.242   2.939   9.363
  767TMC3     H11416   4.558   2.935   9.164
  767TMC3    H111417   4.378   2.916   9.544
  767TMC3    H211418   4.749   2.710   9.489
  767TMC3    C711419   4.532   2.750   9.662
  767TMC3    C811420   4.767   2.760   9.229
  767TMC3    O111421   4.569   2.635   9.684
  767TMC3    O211422   0.032   2.658   9.256
  768TMC3    C111423   2.556   0.366   7.259
  768TMC3    C211424   2.507   0.274   7.169
  768TMC3    C311425   2.390   0.310   7.106
  768TMC3    C411426   2.513   0.491   7.283
  768TMC3    C511427   2.393   0.512   7.227
  768TMC3    C611428   2.335   0.438   7.130
  768TMC3     C11429   2.673   0.319   7.333
  768TMC3     O11430   2.771   0.391   7.325
  768TMC3     H11431   2.534   0.169   7.175
  768TMC3    H111432   2.576   0.556   7.343
  768TMC3    H211433   2.249   0.469   7.072
  768TMC3    C711434   2.319   0.636   7.249
  768TMC3    C811435   2.319   0.212   7.022
  768TMC3    O111436   2.239   0.676   7.165
  768TMC3    O211437   2.319   0.093   7.052
  769TMC3    C111438   2.608   1.632  13.970
  769TMC3    C211439   2.507   1.564  14.038
  769TMC3    C311440   2.511   1.427  14.049
  769TMC3    C411441   2.713   1.567  13.926
  769TMC3    C511442   2.722   1.430  13.935
  769TMC3    C611443   2.613   1.363  13.994
  769TMC3     C11444   2.610   1.779  13.965
  769TMC3     O11445   2.541   1.821  14.054
  769TMC3     H11446   2.424   1.626  14.071
  769TMC3    H111447   2.797   1.624  13.887
  769TMC3    H211448   2.608   1.255  13.986
  769TMC3    C711449   2.777   1.363  13.812
  769TMC3    C811450   2.393   1.343  14.054
  769TMC3    O111451   2.790   1.429  13.711
  769TMC3    O211452   2.417   1.228  14.088
  770TMC3    C111453   3.092   0.052  14.998
  770TMC3    C211454   2.982   0.037  15.075
  770TMC3    C311455   2.865   0.048  15.005
  770TMC3    C411456   3.089   0.084  14.859
  770TMC3    C511457   2.968   0.109  14.798
  770TMC3    C611458   2.854   0.091  14.871
  770TMC3     C11459   3.216   0.094  15.057
  770TMC3     O11460   3.321   0.098  14.997
  770TMC3     H11461   2.987   0.009  15.180
  770TMC3    H111462   3.183   0.096  14.806
  770TMC3    H211463   2.756   0.109  14.827
  770TMC3    C711464   2.941   0.116  14.657
  770TMC3    C811465   2.755   4.747  15.045
  770TMC3    O111466   2.823   0.123  14.628
  770TMC3    O211467   2.682   4.706  14.958
  771TMC3    C111468   0.331   3.635  12.824
  771TMC3    C211469   0.287   3.743  12.751
  771TMC3    C311470   0.261   3.724  12.619
  771TMC3    C411471   0.314   3.510  12.771
  771TMC3    C511472   0.277   3.497  12.645
  771TMC3    C611473   0.252   3.600  12.560
  771TMC3     C11474   0.329   3.650  12.970
  771TMC3     O11475   0.335   3.756  13.027
  771TMC3     H11476   0.288   3.845  12.789
  771TMC3    H111477   0.360   3.425  12.820
  771TMC3    H211478   0.217   3.578  12.460
  771TMC3    C711479   0.327   3.375  12.588
  771TMC3    C811480   0.202   3.833  12.540
  771TMC3    O111481   0.444   3.358  12.625
  771TMC3    O211482   0.210   3.825  12.417
  772TMC3    C111483   0.785   2.014  10.195
  772TMC3    C211484   0.699   2.054  10.096
  772TMC3    C311485   0.565   2.074  10.128
  772TMC3    C411486   0.736   1.972  10.315
  772TMC3    C511487   0.598   1.967  10.336
  772TMC3    C611488   0.512   2.021  10.243
  772TMC3     C11489   0.931   2.040  10.188
  772TMC3     O11490   0.992   2.005  10.289
  772TMC3     H11491   0.738   2.067   9.996
  772TMC3    H111492   0.804   1.923  10.384
  772TMC3    H211493   0.405   2.027  10.257
  772TMC3    C711494   0.552   1.881  10.446
  772TMC3    C811495   0.486   2.097  10.013
  772TMC3    O111496   0.638   1.828  10.516
  772TMC3    O211497   0.379   2.039  10.027
  773TMC3    C111498   4.495   0.812   8.288
  773TMC3    C211499   4.621   0.810   8.236
  773TMC3    C311500   4.728   0.841   8.316
  773TMC3    C411501   4.480   0.854   8.419
  773TMC3    C511502   4.589   0.880   8.495
  773TMC3    C611503   4.716   0.859   8.456
  773TMC3     C11504   4.388   0.728   8.231
  773TMC3     O11505   4.274   0.751   8.266
  773TMC3     H11506   4.640   0.795   8.130
  773TMC3    H111507   4.381   0.847   8.463
  773TMC3    H211508   0.009   0.882   8.522
  773TMC3    C711509   4.551   0.937   8.630
  773TMC3    C811510   0.051   0.894   8.246
  773TMC3    O111511   4.440   0.988   8.642
  773TMC3    O211512   0.026   0.983   8.166
  774TMC3    C111513   1.368   0.758  14.502
  774TMC3    C211514   1.482   0.800  14.446
  774TMC3    C311515   1.588   0.836  14.518
  774TMC3    C411516   1.369   0.731  14.641
  774TMC3    C511517   1.480   0.771  14.713
  774TMC3    C611518   1.589   0.825  14.653
  774TMC3     C11519   1.265   0.709  14.413
  774TMC3     O11520   1.290   0.689  14.294
  774TMC3     H11521   1.474   0.824  14.341
  774TMC3    H111522   1.276   0.689  14.677
  774TMC3    H211523   1.668   0.866  14.714
  774TMC3    C711524   1.471   0.814  14.851
  774TMC3    C811525   1.662   0.952  14.466
  774TMC3    O111526   1.562   0.877  14.898
  774TMC3    O211527   1.601   1.048  14.426
  775TMC3    C111528   2.295   1.721  12.777
  775TMC3    C211529   2.177   1.697  12.714
  775TMC3    C311530   2.143   1.777  12.601
  775TMC3    C411531   2.377   1.815  12.727
  775TMC3    C511532   2.328   1.902  12.637
  775TMC3    C611533   2.216   1.891  12.570
  775TMC3     C11534   2.357   1.602  12.833
  775TMC3     O11535   2.460   1.562  12.786
  775TMC3     H11536   2.114   1.614  12.746
  775TMC3    H111537   2.476   1.829  12.769
  775TMC3    H211538   2.200   1.947  12.479
  775TMC3    C711539   2.428   1.995  12.576
  775TMC3    C811540   2.016   1.762  12.536
  775TMC3    O111541   2.428   2.109  12.625
  775TMC3    O211542   1.959   1.872  12.514
  776TMC3    C111543   2.720   0.156  10.962
  776TMC3    C211544   2.616   0.232  10.913
  776TMC3    C311545   2.629   0.365  10.883
  776TMC3    C411546   2.836   0.223  10.994
  776TMC3    C511547   2.853   0.348  10.943
  776TMC3    C611548   2.752   0.426  10.896
  776TMC3     C11549   2.740   0.014  10.921
  776TMC3     O11550   2.850   4.775  10.884
  776TMC3     H11551   2.530   0.176  10.878
  776TMC3    H111552   2.919   0.155  11.013
  776TMC3    H211553   2.758   0.530  10.866
  776TMC3    C711554   2.985   0.358  10.882
  776TMC3    C811555   2.510   0.435  10.850
  776TMC3    O111556   2.985   0.370  10.758
  776TMC3    O211557   2.418   0.360  10.829
  777TMC3    C111558   0.917   3.290   7.015
  777TMC3    C211559   0.878   3.416   7.027
  777TMC3    C311560   0.803   3.436   7.139
  777TMC3    C411561   0.869   3.181   7.084
  777TMC3    C511562   0.783   3.210   7.192
  777TMC3    C611563   0.752   3.340   7.224
  777TMC3     C11564   1.035   3.275   6.932
  777TMC3     O11565   1.047   3.337   6.828
  777TMC3     H11566   0.898   3.494   6.955
  777TMC3    H111567   0.913   3.083   7.071
  777TMC3    H211568   0.677   3.366   7.298
  777TMC3    C711569   0.750   3.112   7.282
  777TMC3    C811570   0.721   3.556   7.148
  777TMC3    O111571   0.748   3.150   7.398
  777TMC3    O211572   0.651   3.587   7.051
  778TMC3    C111573   2.924   4.114   8.591
  778TMC3    C211574   2.892   4.112   8.457
  778TMC3    C311575   2.760   4.124   8.420
  778TMC3    C411576   2.831   4.138   8.690
  778TMC3    C511577   2.702   4.157   8.644
  778TMC3    C611578   2.666   4.157   8.508
  778TMC3     C11579   3.067   4.141   8.615
  778TMC3     O11580   3.125   4.070   8.692
  778TMC3     H11581   2.963   4.069   8.386
  778TMC3    H111582   2.855   4.140   8.796
  778TMC3    H211583   2.559   4.146   8.494
  778TMC3    C711584   2.617   4.223   8.736
  778TMC3    C811585   2.725   4.067   8.294
  778TMC3    O111586   2.607   4.180   8.851
  778TMC3    O211587   2.802   3.981   8.252
  779TMC3    C111588   1.800   1.613  11.911
  779TMC3    C211589   1.691   1.687  11.930
  779TMC3    C311590   1.602   1.659  12.030
  779TMC3    C411591   1.826   1.521  12.011
  779TMC3    C511592   1.740   1.489  12.116
  779TMC3    C611593   1.620   1.551  12.113
  779TMC3     C11594   1.782   1.536  11.785
  779TMC3     O11595   1.832   1.425  11.774
  779TMC3     H11596   1.686   1.766  11.857
  779TMC3    H111597   1.904   1.447  11.994
  779TMC3    H211598   1.551   1.548  12.197
  779TMC3    C711599   1.755   1.364  12.180
  779TMC3    C811600   1.462   1.704  12.014
  779TMC3    O111601   1.863   1.308  12.164
  779TMC3    O211602   1.373   1.639  12.075
  780TMC3    C111603   3.317   1.038   9.688
  780TMC3    C211604   3.263   0.920   9.742
  780TMC3    C311605   3.148   0.930   9.813
  780TMC3    C411606   3.253   1.157   9.712
  780TMC3    C511607   3.139   1.164   9.786
  780TMC3    C611608   3.082   1.052   9.840
  780TMC3     C11609   3.437   1.049   9.597
  780TMC3     O11610   3.425   1.122   9.497
  780TMC3     H11611   3.314   0.826   9.726
  780TMC3    H111612   3.305   1.245   9.676
  780TMC3    H211613   2.991   1.056   9.898
  780TMC3    C711614   3.126   1.288   9.862
  780TMC3    C811615   3.078   0.807   9.790
  780TMC3    O111616   3.168   1.382   9.798
  780TMC3    O211617   3.147   0.710   9.761
  781TMC3    C111618   1.191   4.723  13.922
  781TMC3    C211619   1.244   0.064  13.938
  781TMC3    C311620   1.249   0.128  14.056
  781TMC3    C411621   1.135   4.666  14.029
  781TMC3    C511622   1.132   4.736  14.145
  781TMC3    C611623   1.186   0.069  14.165
  781TMC3     C11624   1.255   4.638  13.824
  781TMC3     O11625   1.317   4.687  13.738
  781TMC3     H11626   1.287   0.112  13.851
  781TMC3    H111627   1.079   4.573  14.024
  781TMC3    H211628   1.200   0.110  14.264
  781TMC3    C711629   1.133   4.651  14.260
  781TMC3    C811630   1.339   0.247  14.079
  781TMC3    O111631   1.203   4.555  14.245
  781TMC3    O211632   1.426   0.261  13.997
  782TMC3    C111633   0.569   2.847   9.038
  782TMC3    C211634   0.492   2.955   9.061
  782TMC3    C311635   0.559   3.071   9.072
  782TMC3    C411636   0.702   2.853   9.003
  782TMC3    C511637   0.766   2.979   9.001
  782TMC3    C611638   0.693   3.088   9.040
  782TMC3     C11639   0.498   2.725   9.013
  782TMC3     O11640   0.469   2.655   9.107
  782TMC3     H11641   0.384   2.959   9.072
  782TMC3    H111642   0.745   2.756   8.983
  782TMC3    H211643   0.738   3.186   9.033
  782TMC3    C711644   0.906   2.985   9.051
  782TMC3    C811645   0.486   3.189   9.096
  782TMC3    O111646   0.933   3.082   9.121
  782TMC3    O211647   0.512   3.275   9.012
  783TMC3    C111648   1.943   2.118   9.682
  783TMC3    C211649   1.852   2.049   9.607
  783TMC3    C311650   1.893   1.923   9.569
  783TMC3    C411651   2.062   2.069   9.724
  783TMC3    C511652   2.091   1.941   9.692
  783TMC3    C611653   2.011   1.874   9.604
  783TMC3     C11654   1.902   2.251   9.743
  783TMC3     O11655   1.781   2.267   9.758
  783TMC3     H11656   1.757   2.098   9.592
  783TMC3    H111657   2.125   2.131   9.787
  783TMC3    H211658   2.030   1.777   9.560
  783TMC3    C711659   2.124   1.861   9.805
  783TMC3    C811660   1.789   1.822   9.563
  783TMC3    O111661   2.135   1.930   9.907
  783TMC3    O211662   1.817   1.718   9.615
  784TMC3    C111663   1.636   4.138  12.655
  784TMC3    C211664   1.647   4.256  12.580
  784TMC3    C311665   1.542   4.344  12.592
  784TMC3    C411666   1.527   4.105  12.734
  784TMC3    C511667   1.429   4.202  12.749
  784TMC3    C611668   1.432   4.314  12.664
  784TMC3     C11669   1.732   4.027  12.625
  784TMC3     O11670   1.721   3.924  12.691
  784TMC3     H11671   1.744   4.276  12.536
  784TMC3    H111672   1.526   4.015  12.795
  784TMC3    H211673   1.342   4.372  12.651
  784TMC3    C711674   1.349   4.214  12.868
  784TMC3    C811675   1.573   4.487  12.578
  784TMC3    O111676   1.317   4.331  12.890
  784TMC3    O211677   1.666   4.523  12.504
  785TMC3    C111678   2.276   2.352  13.307
  785TMC3    C211679   2.339   2.252  13.232
  785TMC3    C311680   2.367   2.137  13.301
  785TMC3    C411681   2.229   2.342  13.440
  785TMC3    C511682   2.267   2.231  13.501
  785TMC3    C611683   2.344   2.137  13.439
  785TMC3     C11684   2.262   2.483  13.247
  785TMC3     O11685   2.268   2.497  13.121
  785TMC3     H11686   2.370   2.273  13.130
  785TMC3    H111687   2.168   2.411  13.496
  785TMC3    H211688   2.371   2.043  13.486
  785TMC3    C711689   2.153   2.184  13.583
  785TMC3    C811690   2.310   2.018  13.243
  785TMC3    O111691   2.083   2.257  13.651
  785TMC3    O211692   2.296   1.923  13.320
  786TMC3    C111693   3.074   3.262   7.738
  786TMC3    C211694   3.006   3.158   7.675
  786TMC3    C311695   3.008   3.147   7.538
  786TMC3    C411696   3.147   3.347   7.660
  786TMC3    C511697   3.148   3.336   7.523
  786TMC3    C611698   3.077   3.233   7.459
  786TMC3     C11699   3.110   3.239   7.878
  786TMC3     O11700   3.020   3.188   7.947
  786TMC3     H11701   2.945   3.092   7.735
  786TMC3    H111702   3.207   3.419   7.715
  786TMC3    H211703   3.060   3.233   7.352
  786TMC3    C711704   3.264   3.381   7.455
  786TMC3    C811705   2.905   3.057   7.485
  786TMC3    O111706   3.331   3.294   7.403
  786TMC3    O211707   2.829   3.107   7.400
  787TMC3    C111708   2.961   0.008  13.414
  787TMC3    C211709   2.923   4.775  13.544
  787TMC3    C311710   2.994   0.047  13.636
  787TMC3    C411711   3.076   0.072  13.376
  787TMC3    C511712   3.138   0.138  13.476
  787TMC3    C611713   3.099   0.122  13.605
  787TMC3     C11714   2.870   4.761  13.299
  787TMC3     O11715   2.923   4.715  13.198
  787TMC3     H11716   2.841   4.709  13.570
  787TMC3    H111717   3.104   0.094  13.274
  787TMC3    H211718   3.144   0.166  13.694
  787TMC3    C711719   3.254   0.220  13.445
  787TMC3    C811720   2.973   4.786  13.769
  787TMC3    O111721   3.290   0.217  13.327
  787TMC3    O211722   3.074   4.761  13.830
  788TMC3    C111723   1.642   1.884  11.129
  788TMC3    C211724   1.551   1.886  11.023
  788TMC3    C311725   1.422   1.935  11.047
  788TMC3    C411726   1.608   1.927  11.256
  788TMC3    C511727   1.482   1.972  11.283
  788TMC3    C611728   1.390   1.979  11.180
  788TMC3     C11729   1.723   1.763  11.123
  788TMC3     O11730   1.712   1.694  11.026
  788TMC3     H11731   1.583   1.851  10.925
  788TMC3    H111732   1.669   1.906  11.343
  788TMC3    H211733   1.289   2.008  11.207
  788TMC3    C711734   1.450   1.960  11.424
  788TMC3    C811735   1.339   1.972  10.945
  788TMC3    O111736   1.537   2.005  11.500
  788TMC3    O211737   1.220   1.977  10.982
  789TMC3    C111738   3.778   1.479  11.424
  789TMC3    C211739   3.850   1.397  11.347
  789TMC3    C311740   3.938   1.314  11.422
  789TMC3    C411741   3.772   1.477  11.562
  789TMC3    C511742   3.852   1.392  11.631
  789TMC3    C611743   3.928   1.306  11.561
  789TMC3     C11744   3.680   1.564  11.353
  789TMC3     O11745   3.624   1.496  11.267
  789TMC3     H11746   3.853   1.410  11.239
  789TMC3    H111747   3.707   1.547  11.614
  789TMC3    H211748   3.994   1.248  11.625
  789TMC3    C711749   3.856   1.396  11.778
  789TMC3    C811750   4.024   1.209  11.360
  789TMC3    O111751   3.845   1.294  11.845
  789TMC3    O211752   4.069   1.123  11.434
  790TMC3    C111753   0.949   2.684   6.665
  790TMC3    C211754   0.934   2.657   6.795
  790TMC3    C311755   1.004   2.726   6.884
  790TMC3    C411756   1.049   2.765   6.621
  790TMC3    C511757   1.122   2.839   6.720
  790TMC3    C611758   1.087   2.829   6.851
  790TMC3     C11759   0.878   2.603   6.565
  790TMC3     O11760   0.929   2.579   6.458
  790TMC3     H11761   0.896   2.558   6.818
  790TMC3    H111762   1.036   2.777   6.514
  790TMC3    H211763   1.168   2.872   6.908
  790TMC3    C711764   1.206   2.949   6.677
  790TMC3    C811765   0.991   2.680   7.019
  790TMC3    O111766   1.242   3.029   6.762
  790TMC3    O211767   0.936   2.576   7.039
  791TMC3    C111768   2.362   3.903   7.430
  791TMC3    C211769   2.391   3.953   7.304
  791TMC3    C311770   2.510   3.912   7.257
  791TMC3    C411771   2.441   3.811   7.499
  791TMC3    C511772   2.561   3.789   7.452
  791TMC3    C611773   2.596   3.849   7.340
  791TMC3     C11774   2.248   3.951   7.504
  791TMC3     O11775   2.217   3.874   7.597
  791TMC3     H11776   2.329   4.019   7.244
  791TMC3    H111777   2.412   3.780   7.599
  791TMC3    H211778   2.689   3.828   7.289
  791TMC3    C711779   2.656   3.714   7.529
  791TMC3    C811780   2.558   3.927   7.117
  791TMC3    O111781   2.773   3.740   7.510
  791TMC3    O211782   2.617   3.829   7.074
  792TMC3    C111783   1.583   2.730  11.603
  792TMC3    C211784   1.593   2.843  11.675
  792TMC3    C311785   1.483   2.929  11.660
  792TMC3    C411786   1.468   2.703  11.537
  792TMC3    C511787   1.350   2.764  11.557
  792TMC3    C611788   1.360   2.888  11.609
  792TMC3     C11789   1.681   2.634  11.643
  792TMC3     O11790   1.713   2.539  11.568
  792TMC3     H11791   1.692   2.879  11.702
  792TMC3    H111792   1.468   2.605  11.490
  792TMC3    H211793   1.277   2.957  11.612
  792TMC3    C711794   1.234   2.683  11.583
  792TMC3    C811795   1.491   3.071  11.693
  792TMC3    O111796   1.233   2.568  11.536
  792TMC3    O211797   1.411   3.145  11.636
  793TMC3    C111798   3.689   3.332  13.213
  793TMC3    C211799   3.734   3.202  13.199
  793TMC3    C311800   3.785   3.137  13.310
  793TMC3    C411801   3.681   3.396  13.333
  793TMC3    C511802   3.720   3.328  13.442
  793TMC3    C611803   3.787   3.206  13.427
  793TMC3     C11804   3.679   3.409  13.094
  793TMC3     O11805   3.733   3.353  12.999
  793TMC3     H11806   3.732   3.158  13.100
  793TMC3    H111807   3.630   3.491  13.347
  793TMC3    H211808   3.837   3.166  13.515
  793TMC3    C711809   3.724   3.406  13.563
  793TMC3    C811810   3.881   3.034  13.275
  793TMC3    O111811   3.741   3.524  13.538
  793TMC3    O211812   3.905   3.025  13.153
  794TMC3    C111813   4.203   2.018   7.726
  794TMC3    C211814   4.252   1.970   7.844
  794TMC3    C311815   4.389   1.951   7.847
  794TMC3    C411816   4.271   2.021   7.609
  794TMC3    C511817   4.399   1.977   7.618
  794TMC3    C611818   4.462   1.947   7.733
  794TMC3     C11819   4.063   2.053   7.698
  794TMC3     O11820   4.016   2.003   7.596
  794TMC3     H11821   4.196   1.993   7.934
  794TMC3    H111822   4.228   2.062   7.518
  794TMC3    H211823   4.565   1.913   7.737
  794TMC3    C711824   4.445   1.910   7.499
  794TMC3    C811825   4.442   1.999   7.976
  794TMC3    O111826   4.501   1.802   7.504
  794TMC3    O211827   4.373   1.975   8.077
  795TMC3    C111828   4.288   2.961  11.444
  795TMC3    C211829   4.301   2.906  11.312
  795TMC3    C311830   4.418   2.917  11.248
  795TMC3    C411831   4.396   3.026  11.503
  795TMC3    C511832   4.512   3.038  11.428
  795TMC3    C611833   4.527   2.984  11.299
  795TMC3     C11834   4.160   2.951  11.509
  795TMC3     O11835   4.157   2.945  11.636
  795TMC3     H11836   4.221   2.848  11.267
  795TMC3    H111837   4.397   3.063  11.605
  795TMC3    H211838   4.623   2.989  11.249
  795TMC3    C711839   4.641   3.052  11.502
  795TMC3    C811840   4.428   2.832  11.128
  795TMC3    O111841   4.689   2.946  11.540
  795TMC3    O211842   4.359   2.730  11.119
  796TMC3    C111843   0.970   1.205  12.349
  796TMC3    C211844   1.077   1.218  12.436
  796TMC3    C311845   1.071   1.324  12.519
  796TMC3    C411846   0.864   1.289  12.340
  796TMC3    C511847   0.864   1.395  12.429
  796TMC3    C611848   0.964   1.410  12.521
  796TMC3     C11849   0.975   1.100  12.252
  796TMC3     O11850   0.945   1.140  12.139
  796TMC3     H11851   1.156   1.143  12.433
  796TMC3    H111852   0.796   1.280  12.256
  796TMC3    H211853   0.968   1.494  12.590
  796TMC3    C711854   0.764   1.504  12.417
  796TMC3    C811855   1.197   1.393  12.541
  796TMC3    O111856   0.775   1.586  12.509
  796TMC3    O211857   1.296   1.326  12.556
  797TMC3    C111858   3.071   2.254  11.378
  797TMC3    C211859   2.967   2.308  11.452
  797TMC3    C311860   2.883   2.219  11.517
  797TMC3    C411861   3.081   2.116  11.359
  797TMC3    C511862   2.987   2.031  11.419
  797TMC3    C611863   2.894   2.080  11.503
  797TMC3     C11864   3.110   2.340  11.272
  797TMC3     O11865   3.024   2.425  11.241
  797TMC3     H11866   2.968   2.412  11.483
  797TMC3    H111867   3.136   2.083  11.272
  797TMC3    H211868   2.810   2.016  11.528
  797TMC3    C711869   2.944   1.927  11.328
  797TMC3    C811870   2.781   2.295  11.586
  797TMC3    O111871   2.970   1.946  11.209
  797TMC3    O211872   2.770   2.413  11.559
  798TMC3    C111873   2.541   1.553   9.916
  798TMC3    C211874   2.641   1.626   9.985
  798TMC3    C311875   2.755   1.558  10.021
  798TMC3    C411876   2.552   1.415   9.893
  798TMC3    C511877   2.668   1.356   9.938
  798TMC3    C611878   2.769   1.424   9.996
  798TMC3     C11879   2.476   1.626   9.811
  798TMC3     O11880   2.363   1.595   9.776
  798TMC3     H11881   2.641   1.734   9.986
  798TMC3    H111882   2.462   1.369   9.854
  798TMC3    H211883   2.864   1.382  10.026
  798TMC3    C711884   2.709   1.235   9.868
  798TMC3    C811885   2.876   1.637  10.009
  798TMC3    O111886   2.820   1.198   9.894
  798TMC3    O211887   2.948   1.598   9.919
  799TMC3    C111888   3.993   1.068   9.448
  799TMC3    C211889   3.970   1.182   9.372
  799TMC3    C311890   4.072   1.224   9.294
  799TMC3    C411891   4.107   0.994   9.428
  799TMC3    C511892   4.199   1.027   9.330
  799TMC3    C611893   4.181   1.142   9.266
  799TMC3     C11894   3.932   1.061   9.584
  799TMC3     O11895   3.993   0.995   9.665
  799TMC3     H11896   3.889   1.252   9.391
  799TMC3    H111897   4.138   0.910   9.489
  799TMC3    H211898   4.245   1.168   9.182
  799TMC3    C711899   4.341   1.009   9.370
  799TMC3    C811900   4.108   1.366   9.306
  799TMC3    O111901   4.376   0.937   9.465
  799TMC3    O211902   4.049   1.429   9.389
  800TMC3    C111903   2.309   2.874  11.506
  800TMC3    C211904   2.222   2.954  11.580
  800TMC3    C311905   2.095   2.900  11.599
  800TMC3    C411906   2.276   2.750  11.467
  800TMC3    C511907   2.146   2.713  11.475
  800TMC3    C611908   2.053   2.787  11.536
  800TMC3     C11909   2.447   2.892  11.527
  800TMC3     O11910   2.516   2.795  11.560
  800TMC3     H11911   2.255   3.044  11.631
  800TMC3    H111912   2.346   2.688  11.411
  800TMC3    H211913   1.947   2.765  11.542
  800TMC3    C711914   2.115   2.591  11.400
  800TMC3    C811915   1.990   2.979  11.663
  800TMC3    O111916   2.205   2.528  11.355
  800TMC3    O211917   1.872   2.962  11.644
  801TMC3    C111918   1.826   4.609  13.403
  801TMC3    C211919   1.934   4.665  13.344
  801TMC3    C311920   2.013   4.574  13.280
  801TMC3    C411921   1.793   4.476  13.401
  801TMC3    C511922   1.873   4.391  13.330
  801TMC3    C611923   1.977   4.445  13.261
  801TMC3     C11924   1.739   4.698  13.477
  801TMC3     O11925   1.628   4.658  13.501
  801TMC3     H11926   1.960   4.770  13.348
  801TMC3    H111927   1.711   4.437  13.461
  801TMC3    H211928   2.035   4.374  13.203
  801TMC3    C711929   1.866   4.245  13.333
  801TMC3    C811930   2.136   4.629  13.234
  801TMC3    O111931   1.968   4.182  13.297
  801TMC3    O211932   2.148   4.751  13.215
  802TMC3    C111933   3.800   2.850  10.814
  802TMC3    C211934   3.928   2.834  10.759
  802TMC3    C311935   3.953   2.753  10.654
  802TMC3    C411936   3.697   2.786  10.764
  802TMC3    C511937   3.725   2.704  10.658
  802TMC3    C611938   3.848   2.677  10.607
  802TMC3     C11939   3.804   2.912  10.949
  802TMC3     O11940   3.910   2.891  11.008
  802TMC3     H11941   4.014   2.876  10.810
  802TMC3    H111942   3.600   2.796  10.810
  802TMC3    H211943   3.863   2.591  10.543
  802TMC3    C711944   3.617   2.656  10.584
  802TMC3    C811945   4.083   2.699  10.645
  802TMC3    O111946   3.622   2.555  10.518
  802TMC3    O211947   4.088   2.577  10.613
  803TMC3    C111948   0.234   1.079  12.820
  803TMC3    C211949   0.342   1.027  12.889
  803TMC3    C311950   0.371   0.900  12.856
  803TMC3    C411951   0.170   1.008  12.718
  803TMC3    C511952   0.198   0.871  12.708
  803TMC3    C611953   0.304   0.823  12.778
  803TMC3     C11954   0.178   1.202  12.873
  803TMC3     O11955   0.246   1.270  12.949
  803TMC3     H11956   0.382   1.072  12.979
  803TMC3    H111957   0.086   1.055  12.667
  803TMC3    H211958   0.329   0.718  12.767
  803TMC3    C711959   0.077   0.788  12.697
  803TMC3    C811960   0.465   0.843  12.959
  803TMC3    O111961   0.061   0.697  12.778
  803TMC3    O211962   0.417   0.838  13.073
  804TMC3    C111963   2.153   1.080   7.117
  804TMC3    C211964   2.100   1.039   7.005
  804TMC3    C311965   2.183   0.992   6.912
  804TMC3    C411966   2.282   1.128   7.131
  804TMC3    C511967   2.364   1.100   7.027
  804TMC3    C611968   2.319   1.031   6.913
  804TMC3     C11969   2.056   1.125   7.215
  804TMC3     O11970   1.957   1.175   7.173
  804TMC3     H11971   1.995   1.015   6.990
  804TMC3    H111972   2.323   1.167   7.223
  804TMC3    H211973   2.399   0.997   6.848
  804TMC3    C711974   2.476   1.189   6.999
  804TMC3    C811975   2.116   0.935   6.798
  804TMC3    O111976   2.543   1.168   6.895
  804TMC3    O211977   2.027   0.855   6.824
  805TMC3    C111978   0.277   2.422  11.170
  805TMC3    C211979   0.180   2.335  11.203
  805TMC3    C311980   0.203   2.249  11.304
  805TMC3    C411981   0.393   2.434  11.243
  805TMC3    C511982   0.421   2.333  11.329
  805TMC3    C611983   0.334   2.238  11.352
  805TMC3     C11984   0.222   2.529  11.094
  805TMC3     O11985   0.104   2.526  11.053
  805TMC3     H11986   0.089   2.323  11.146
  805TMC3    H111987   0.470   2.508  11.224
  805TMC3    H211988   0.364   2.150  11.408
  805TMC3    C711989   0.556   2.318  11.374
  805TMC3    C811990   0.114   2.139  11.328
  805TMC3    O111991   0.607   2.423  11.413
  805TMC3    O211992   0.131   2.058  11.240
  806TMC3    C111993   2.133   0.511  14.928
  806TMC3    C211994   2.153   0.644  14.905
  806TMC3    C311995   2.046   0.726  14.869
  806TMC3    C411996   2.004   0.465  14.920
  806TMC3    C511997   1.897   0.539  14.873
  806TMC3    C611998   1.915   0.678  14.842
  806TMC3     C11999   2.221   0.427  15.013
  806TMC3     O12000   2.177   0.340  15.091
  806TMC3     H12001   2.248   0.690  14.931
  806TMC3    H112002   1.985   0.361  14.946
  806TMC3    H212003   1.835   0.748  14.822
  806TMC3    C712004   1.761   0.485  14.850
  806TMC3    C812005   2.071   0.870  14.876
  806TMC3    O112006   1.669   0.565  14.835
  806TMC3    O212007   2.186   0.902  14.839
  807TMC3    C112008   0.549   3.471  14.448
  807TMC3    C212009   0.547   3.442  14.582
  807TMC3    C312010   0.584   3.318  14.625
  807TMC3    C412011   0.582   3.377  14.359
  807TMC3    C512012   0.608   3.251  14.402
  807TMC3    C612013   0.625   3.224  14.532
  807TMC3     C12014   0.519   3.605  14.414
  807TMC3     O12015   0.549   3.641  14.299
  807TMC3     H12016   0.534   3.510  14.665
  807TMC3    H112017   0.582   3.412  14.256
  807TMC3    H212018   0.641   3.124  14.572
  807TMC3    C712019   0.675   3.173  14.300
  807TMC3    C812020   0.612   3.305  14.769
  807TMC3    O112021   0.722   3.223  14.203
  807TMC3    O212022   0.563   3.392  14.842
  808TMC3    C112023   4.236   1.358   9.938
  808TMC3    C212024   4.102   1.342   9.963
  808TMC3    C312025   4.056   1.387  10.088
  808TMC3    C412026   4.317   1.426  10.025
  808TMC3    C512027   4.261   1.483  10.136
  808TMC3    C612028   4.132   1.452  10.177
  808TMC3     C12029   4.277   1.305   9.805
  808TMC3     O12030   4.194   1.240   9.745
  808TMC3     H12031   4.034   1.298   9.890
  808TMC3    H112032   4.415   1.454   9.988
  808TMC3    H212033   4.095   1.484  10.274
  808TMC3    C712034   4.352   1.546  10.226
  808TMC3    C812035   3.922   1.344  10.126
  808TMC3    O112036   4.297   1.633  10.298
  808TMC3    O212037   3.858   1.434  10.173
  809TMC3    C112038   0.670   3.164  11.154
  809TMC3    C212039   0.636   3.290  11.193
  809TMC3    C312040   0.724   3.364  11.270
  809TMC3    C412041   0.803   3.121  11.166
  809TMC3    C512042   0.896   3.201  11.228
  809TMC3    C612043   0.852   3.317  11.289
  809TMC3     C12044   0.582   3.055  11.154
  809TMC3     O12045   0.638   2.949  11.171
  809TMC3     H12046   0.537   3.328  11.169
  809TMC3    H112047   0.841   3.032  11.117
  809TMC3    H212048   0.920   3.391  11.329
  809TMC3    C712049   0.996   3.233  11.126
  809TMC3    C812050   0.697   3.499  11.318
  809TMC3    O112051   0.985   3.207  11.006
  809TMC3    O212052   0.788   3.578  11.335
  810TMC3    C112053   2.360   4.194  15.047
  810TMC3    C212054   2.400   4.107  14.949
  810TMC3    C312055   2.297   4.054  14.868
  810TMC3    C412056   2.230   4.216  15.080
  810TMC3    C512057   2.130   4.152  15.004
  810TMC3    C612058   2.164   4.086  14.889
  810TMC3     C12059   2.461   4.295  15.094
  810TMC3     O12060   2.579   4.281  15.061
  810TMC3     H12061   2.503   4.113  14.916
  810TMC3    H112062   2.202   4.278  15.164
  810TMC3    H212063   2.081   4.052  14.828
  810TMC3    C712064   1.989   4.157  15.042
  810TMC3    C812065   2.345   3.995  14.744
  810TMC3    O112066   1.914   4.094  14.970
  810TMC3    O212067   2.465   3.977  14.740
  811TMC3    C112068   1.601   1.909  13.118
  811TMC3    C212069   1.703   1.826  13.147
  811TMC3    C312070   1.695   1.697  13.117
  811TMC3    C412071   1.485   1.862  13.066
  811TMC3    C512072   1.473   1.726  13.061
  811TMC3    C612073   1.579   1.645  13.075
  811TMC3     C12074   1.642   2.032  13.065
  811TMC3     O12075   1.580   2.075  12.972
  811TMC3     H12076   1.796   1.875  13.173
  811TMC3    H112077   1.406   1.936  13.065
  811TMC3    H212078   1.571   1.541  13.045
  811TMC3    C712079   1.341   1.665  13.067
  811TMC3    C812080   1.811   1.610  13.142
  811TMC3    O112081   1.243   1.721  13.022
  811TMC3    O212082   1.788   1.492  13.163
  812TMC3    C112083   3.091   0.852   8.174
  812TMC3    C212084   3.194   0.781   8.122
  812TMC3    C312085   3.163   0.694   8.026
  812TMC3    C412086   2.957   0.848   8.136
  812TMC3    C512087   2.933   0.755   8.041
  812TMC3    C612088   3.036   0.681   7.990
  812TMC3     C12089   3.128   0.974   8.247
  812TMC3     O12090   3.047   1.062   8.243
  812TMC3     H12091   3.298   0.795   8.150
  812TMC3    H112092   2.884   0.923   8.166
  812TMC3    H212093   3.013   0.601   7.920
  812TMC3    C712094   2.804   0.735   7.975
  812TMC3    C812095   3.256   0.595   7.987
  812TMC3    O112096   2.786   0.622   7.928
  812TMC3    O212097   3.207   0.490   7.954
  813TMC3    C112098   2.350   0.182   8.593
  813TMC3    C212099   2.413   0.243   8.488
  813TMC3    C312100   2.342   0.320   8.407
  813TMC3    C412101   2.215   0.203   8.620
  813TMC3    C512102   2.153   0.290   8.543
  813TMC3    C612103   2.207   0.337   8.428
  813TMC3     C12104   2.407   0.051   8.617
  813TMC3     O12105   2.472   4.787   8.530
  813TMC3     H12106   2.518   0.227   8.467
  813TMC3    H112107   2.157   0.157   8.699
  813TMC3    H212108   2.154   0.402   8.359
  813TMC3    C712109   2.066   0.378   8.600
  813TMC3    C812110   2.409   0.368   8.282
  813TMC3    O112111   2.021   0.462   8.524
  813TMC3    O212112   2.531   0.374   8.287
  814TMC3    C112113   1.159   2.098   9.635
  814TMC3    C212114   1.090   2.000   9.563
  814TMC3    C312115   1.028   2.043   9.448
  814TMC3    C412116   1.151   2.234   9.605
  814TMC3    C512117   1.088   2.270   9.491
  814TMC3    C612118   1.026   2.176   9.413
  814TMC3     C12119   1.290   2.054   9.673
  814TMC3     O12120   1.381   2.093   9.600
  814TMC3     H12121   1.087   1.895   9.590
  814TMC3    H112122   1.232   2.296   9.640
  814TMC3    H212123   0.969   2.208   9.326
  814TMC3    C712124   1.192   2.341   9.416
  814TMC3    C812125   1.007   1.950   9.344
  814TMC3    O112126   1.236   2.454   9.455
  814TMC3    O212127   1.035   1.991   9.231
  815TMC3    C112128   0.794   3.302  12.923
  815TMC3    C212129   0.659   3.284  12.931
  815TMC3    C312130   0.598   3.320  13.045
  815TMC3    C412131   0.867   3.343  13.032
  815TMC3    C512132   0.803   3.370  13.148
  815TMC3    C612133   0.665   3.366  13.155
  815TMC3     C12134   0.871   3.248  12.814
  815TMC3     O12135   0.983   3.224  12.842
  815TMC3     H12136   0.596   3.262  12.845
  815TMC3    H112137   0.974   3.360  13.027
  815TMC3    H212138   0.613   3.407  13.240
  815TMC3    C712139   0.866   3.376  13.276
  815TMC3    C812140   0.496   3.214  13.074
  815TMC3    O112141   0.811   3.435  13.368
  815TMC3    O212142   0.438   3.165  12.975
  816TMC3    C112143   0.331   2.546  13.074
  816TMC3    C212144   0.426   2.514  12.972
  816TMC3    C312145   0.481   2.391  12.987
  816TMC3    C412146   0.292   2.458  13.177
  816TMC3    C512147   0.359   2.341  13.184
  816TMC3    C612148   0.445   2.308  13.088
  816TMC3     C12149   0.312   2.690  13.092
  816TMC3     O12150   0.315   2.760  12.991
  816TMC3     H12151   0.421   2.575  12.883
  816TMC3    H112152   0.208   2.468  13.245
  816TMC3    H212153   0.470   2.204  13.073
  816TMC3    C712154   0.323   2.249  13.281
  816TMC3    C812155   0.514   2.327  12.864
  816TMC3    O112156   0.220   2.274  13.341
  816TMC3    O212157   0.463   2.217  12.853
  817TMC3    C112158   1.493   2.600  12.925
  817TMC3    C212159   1.454   2.484  12.984
  817TMC3    C312160   1.390   2.394  12.907
  817TMC3    C412161   1.487   2.614  12.786
  817TMC3    C512162   1.415   2.519  12.716
  817TMC3    C612163   1.367   2.406  12.770
  817TMC3     C12164   1.581   2.702  12.982
  817TMC3     O12165   1.593   2.805  12.916
  817TMC3     H12166   1.462   2.457  13.089
  817TMC3    H112167   1.529   2.699  12.733
  817TMC3    H212168   1.309   2.332  12.717
  817TMC3    C712169   1.377   2.563  12.584
  817TMC3    C812170   1.299   2.302  12.977
  817TMC3    O112171   1.444   2.652  12.529
  817TMC3    O212172   1.265   2.338  13.091
  818TMC3    C112173   1.703   3.648   9.303
  818TMC3    C212174   1.636   3.622   9.418
  818TMC3    C312175   1.508   3.673   9.443
  818TMC3    C412176   1.648   3.737   9.214
  818TMC3    C512177   1.534   3.806   9.244
  818TMC3    C612178   1.465   3.773   9.361
  818TMC3     C12179   1.838   3.687   9.341
  818TMC3     O12180   1.902   3.610   9.411
  818TMC3     H12181   1.683   3.556   9.489
  818TMC3    H112182   1.683   3.737   9.111
  818TMC3    H212183   1.382   3.833   9.396
  818TMC3    C712184   1.454   3.840   9.131
  818TMC3    C812185   1.436   3.653   9.564
  818TMC3    O112186   1.503   3.849   9.019
  818TMC3    O212187   1.353   3.736   9.591
  819TMC3    C112188   0.312   1.272   9.307
  819TMC3    C212189   0.260   1.338   9.416
  819TMC3    C312190   0.340   1.435   9.463
  819TMC3    C412191   0.438   1.288   9.251
  819TMC3    C512192   0.505   1.396   9.289
  819TMC3    C612193   0.459   1.464   9.399
  819TMC3     C12194   0.216   1.232   9.202
  819TMC3     O12195   0.101   1.195   9.231
  819TMC3     H12196   0.153   1.330   9.431
  819TMC3    H112197   0.464   1.229   9.164
  819TMC3    H212198   0.510   1.544   9.452
  819TMC3    C712199   0.531   1.482   9.181
  819TMC3    C812200   0.268   1.549   9.522
  819TMC3    O112201   0.492   1.442   9.072
  819TMC3    O212202   0.324   1.659   9.509
  820TMC3    C112203   2.842   4.270   9.898
  820TMC3    C212204   2.923   4.202   9.802
  820TMC3    C312205   3.058   4.185   9.832
  820TMC3    C412206   2.898   4.315  10.016
  820TMC3    C512207   3.023   4.296  10.038
  820TMC3    C612208   3.111   4.239   9.949
  820TMC3     C12209   2.714   4.307   9.849
  820TMC3     O12210   2.681   4.263   9.737
  820TMC3     H12211   2.872   4.165   9.713
  820TMC3    H112212   2.836   4.352  10.097
  820TMC3    H212213   3.201   4.192   9.988
  820TMC3    C712214   3.074   4.314  10.175
  820TMC3    C812215   3.132   4.069   9.796
  820TMC3    O112216   3.088   4.209  10.238
  820TMC3    O212217   3.073   3.964   9.819
  821TMC3    C112218   4.398   1.233  10.529
  821TMC3    C212219   4.319   1.240  10.417
  821TMC3    C312220   4.350   1.159  10.302
  821TMC3    C412221   4.512   1.160  10.536
  821TMC3    C512222   4.533   1.078  10.434
  821TMC3    C612223   4.462   1.077  10.316
  821TMC3     C12224   4.354   1.306  10.643
  821TMC3     O12225   4.233   1.319  10.664
  821TMC3     H12226   4.242   1.316  10.414
  821TMC3    H112227   4.576   1.170  10.623
  821TMC3    H212228   4.466   0.999  10.241
  821TMC3    C712229   4.677   1.097  10.410
  821TMC3    C812230   4.228   1.114  10.238
  821TMC3    O112231   4.699   1.188  10.333
  821TMC3    O212232   4.125   1.156  10.285
  822TMC3    C112233   1.130   0.482   8.093
  822TMC3    C212234   1.170   0.576   7.999
  822TMC3    C312235   1.209   0.543   7.873
  822TMC3    C412236   1.139   0.348   8.061
  822TMC3    C512237   1.200   0.317   7.939
  822TMC3    C612238   1.217   0.413   7.841
  822TMC3     C12239   1.172   0.518   8.227
  822TMC3     O12240   1.141   0.629   8.270
  822TMC3     H12241   1.176   0.679   8.032
  822TMC3    H112242   1.104   0.269   8.126
  822TMC3    H212243   1.250   0.378   7.744
  822TMC3    C712244   1.242   0.185   7.913
  822TMC3    C812245   1.312   0.629   7.811
  822TMC3    O112246   1.152   0.103   7.925
  822TMC3    O212247   1.378   0.562   7.735
  823TMC3    C112248   0.419   4.638  11.370
  823TMC3    C212249   0.442   4.735  11.469
  823TMC3    C312250   0.497   4.700  11.593
  823TMC3    C412251   0.432   4.507  11.399
  823TMC3    C512252   0.478   4.477  11.525
  823TMC3    C612253   0.520   4.563  11.623
  823TMC3     C12254   0.468   4.681  11.246
  823TMC3     O12255   0.583   4.652  11.232
  823TMC3     H12256   0.431   0.050  11.444
  823TMC3    H112257   0.415   4.427  11.327
  823TMC3    H212258   0.542   4.530  11.724
  823TMC3    C712259   0.514   4.332  11.538
  823TMC3    C812260   0.612   4.784  11.639
  823TMC3    O112261   0.434   4.255  11.487
  823TMC3    O212262   0.621   0.113  11.607
  824TMC3    C112263   4.079   1.044   7.625
  824TMC3    C212264   4.143   0.977   7.521
  824TMC3    C312265   4.088   0.855   7.489
  824TMC3    C412266   3.972   0.993   7.688
  824TMC3    C512267   3.948   0.859   7.669
  824TMC3    C612268   3.998   0.790   7.564
  824TMC3     C12269   4.101   1.185   7.640
  824TMC3     O12270   4.201   1.221   7.583
  824TMC3     H12271   4.218   1.023   7.457
  824TMC3    H112272   3.935   1.041   7.778
  824TMC3    H212273   3.991   0.683   7.549
  824TMC3    C712274   3.845   0.807   7.759
  824TMC3    C812275   4.166   0.768   7.400
  824TMC3    O112276   3.813   0.875   7.856
  824TMC3    O212277   4.285   0.785   7.386
  825TMC3    C112278   1.802   4.589   7.363
  825TMC3    C212279   1.770   4.601   7.233
  825TMC3    C312280   1.638   4.573   7.199
  825TMC3    C412281   1.704   4.562   7.456
  825TMC3    C512282   1.582   4.516   7.410
  825TMC3    C612283   1.546   4.522   7.282
  825TMC3     C12284   1.923   4.502   7.380
  825TMC3     O12285   1.950   4.441   7.277
  825TMC3     H12286   1.846   4.625   7.159
  825TMC3    H112287   1.724   4.540   7.560
  825TMC3    H212288   1.453   4.479   7.247
  825TMC3    C712289   1.539   4.410   7.490
  825TMC3    C812290   1.605   4.565   7.058
  825TMC3    O112291   1.616   4.311   7.494
  825TMC3    O212292   1.613   4.664   6.990
  826TMC3    C112293   1.572   4.452   8.057
  826TMC3    C212294   1.675   4.440   8.150
  826TMC3    C312295   1.667   4.347   8.248
  826TMC3    C412296   1.458   4.376   8.078
  826TMC3    C512297   1.455   4.292   8.184
  826TMC3    C612298   1.560   4.265   8.264
  826TMC3     C12299   1.578   4.548   7.950
  826TMC3     O12300   1.688   4.586   7.911
  826TMC3     H12301   1.754   4.514   8.149
  826TMC3    H112302   1.392   4.357   7.995
  826TMC3    H212303   1.563   4.188   8.340
  826TMC3    C712304   1.331   4.216   8.205
  826TMC3    C812305   1.787   4.317   8.328
  826TMC3    O112306   1.235   4.254   8.138
  826TMC3    O212307   1.766   4.279   8.443
  827TMC3    C112308   4.175   4.097   7.727
  827TMC3    C212309   4.238   4.020   7.822
  827TMC3    C312310   4.210   4.045   7.955
  827TMC3    C412311   4.100   4.205   7.759
  827TMC3    C512312   4.069   4.223   7.896
  827TMC3    C612313   4.122   4.141   7.991
  827TMC3     C12314   4.262   4.126   7.617
  827TMC3     O12315   4.208   4.190   7.526
  827TMC3     H12316   4.302   3.938   7.792
  827TMC3    H112317   4.048   4.273   7.693
  827TMC3    H212318   4.104   4.165   8.095
  827TMC3    C712319   4.049   4.362   7.926
  827TMC3    C812320   4.243   3.941   8.057
  827TMC3    O112321   3.950   4.416   7.888
  827TMC3    O212322   4.271   3.827   8.016
  828TMC3    C112323   0.518   0.452  12.891
  828TMC3    C212324   0.553   0.496  12.764
  828TMC3    C312325   0.467   0.483  12.656
  828TMC3    C412326   0.398   0.399  12.918
  828TMC3    C512327   0.318   0.373  12.810
  828TMC3    C612328   0.344   0.423  12.684
  828TMC3     C12329   0.622   0.377  12.960
  828TMC3     O12330   0.616   0.366  13.081
  828TMC3     H12331   0.651   0.533  12.736
  828TMC3    H112332   0.374   0.356  13.015
  828TMC3    H212333   0.280   0.394  12.602
  828TMC3    C712334   0.300   0.232  12.811
  828TMC3    C812335   0.535   0.424  12.543
  828TMC3    O112336   0.269   0.173  12.916
  828TMC3    O212337   0.615   0.348  12.589
  829TMC3    C112338   3.025   1.896  12.065
  829TMC3    C212339   2.906   1.917  12.009
  829TMC3    C312340   2.843   1.823  11.932
  829TMC3    C412341   3.086   1.774  12.045
  829TMC3    C512342   3.039   1.676  11.955
  829TMC3    C612343   2.912   1.705  11.903
  829TMC3     C12344   3.114   2.009  12.051
  829TMC3     O12345   3.137   2.087  12.140
  829TMC3     H12346   2.867   2.018  12.013
  829TMC3    H112347   3.182   1.758  12.093
  829TMC3    H212348   2.878   1.653  11.814
  829TMC3    C712349   3.096   1.542  11.973
  829TMC3    C812350   2.771   1.880  11.820
  829TMC3    O112351   3.196   1.551  12.043
  829TMC3    O212352   2.807   1.989  11.791
  830TMC3    C112353   4.526   3.084   6.175
  830TMC3    C212354   4.549   2.991   6.275
  830TMC3    C312355   4.507   2.867   6.245
  830TMC3    C412356   4.466   3.058   6.058
  830TMC3    C512357   4.420   2.931   6.037
  830TMC3    C612358   4.445   2.834   6.129
  830TMC3     C12359   4.585   3.216   6.192
  830TMC3     O12360   4.555   3.302   6.109
  830TMC3     H12361   4.604   3.005   6.368
  830TMC3    H112362   4.444   3.143   5.995
  830TMC3    H212363   4.395   2.738   6.127
  830TMC3    C712364   4.356   2.886   5.909
  830TMC3    C812365   4.505   2.780   6.360
  830TMC3    O112366   4.321   2.974   5.834
  830TMC3    O212367   4.488   2.836   6.468
  831TMC3    C112368   0.458   4.061  10.725
  831TMC3    C212369   0.510   4.160  10.652
  831TMC3    C312370   0.633   4.147  10.605
  831TMC3    C412371   0.539   3.960  10.770
  831TMC3    C512372   0.673   3.958  10.735
  831TMC3    C612373   0.720   4.042  10.636
  831TMC3     C12374   0.326   4.069  10.788
  831TMC3     O12375   0.258   3.968  10.801
  831TMC3     H12376   0.434   4.227  10.612
  831TMC3    H112377   0.503   3.880  10.833
  831TMC3    H212378   0.819   4.029  10.594
  831TMC3    C712379   0.765   3.954  10.848
  831TMC3    C812380   0.678   4.239  10.509
  831TMC3    O112381   0.869   4.015  10.833
  831TMC3    O212382   0.777   4.210  10.448
  832TMC3    C112383   2.536   0.983  12.182
  832TMC3    C212384   2.636   0.970  12.277
  832TMC3    C312385   2.718   1.076  12.290
  832TMC3    C412386   2.521   1.085  12.101
  832TMC3    C512387   2.613   1.184  12.108
  832TMC3    C612388   2.708   1.184  12.206
  832TMC3     C12389   2.456   0.870  12.145
  832TMC3     O12390   2.334   0.896  12.138
  832TMC3     H12391   2.653   0.869  12.313
  832TMC3    H112392   2.463   1.076  12.010
  832TMC3    H212393   2.789   1.254  12.193
  832TMC3    C712394   2.631   1.242  11.980
  832TMC3    C812395   2.843   1.045  12.354
  832TMC3    O112396   2.609   1.166  11.886
  832TMC3    O212397   2.882   0.931  12.328
  833TMC3    C112398   2.301   3.910  12.009
  833TMC3    C212399   2.227   4.016  11.960
  833TMC3    C312400   2.283   4.137  11.931
  833TMC3    C412401   2.436   3.923  12.016
  833TMC3    C512402   2.487   4.050  12.000
  833TMC3    C612403   2.417   4.160  11.962
  833TMC3     C12404   2.244   3.844  12.115
  833TMC3     O12405   2.269   3.723  12.122
  833TMC3     H12406   2.120   4.004  11.947
  833TMC3    H112407   2.507   3.847  12.046
  833TMC3    H212408   2.472   4.251  11.941
  833TMC3    C712409   2.628   4.060  11.973
  833TMC3    C812410   2.196   4.242  11.986
  833TMC3    O112411   2.689   3.987  11.893
  833TMC3    O212412   2.166   4.219  12.101
  834TMC3    C112413   4.057   1.022  14.265
  834TMC3    C212414   4.133   1.134  14.260
  834TMC3    C312415   4.265   1.118  14.233
  834TMC3    C412416   4.103   0.896  14.231
  834TMC3    C512417   4.228   0.879  14.198
  834TMC3    C612418   4.310   0.989  14.195
  834TMC3     C12419   3.910   1.039  14.278
  834TMC3     O12420   3.842   0.947  14.303
  834TMC3     H12421   4.090   1.233  14.271
  834TMC3    H112422   4.034   0.813  14.241
  834TMC3    H212423   4.411   0.974  14.160
  834TMC3    C712424   4.285   0.752  14.234
  834TMC3    C812425   4.315   1.221  14.141
  834TMC3    O112426   4.395   0.728  14.181
  834TMC3    O212427   4.240   1.314  14.128
  835TMC3    C112428   0.874   1.371  13.541
  835TMC3    C212429   0.745   1.426  13.530
  835TMC3    C312430   0.740   1.554  13.482
  835TMC3    C412431   0.987   1.444  13.516
  835TMC3    C512432   0.971   1.578  13.477
  835TMC3    C612433   0.848   1.629  13.453
  835TMC3     C12434   0.883   1.277  13.653
  835TMC3     O12435   0.988   1.278  13.722
  835TMC3     H12436   0.654   1.382  13.569
  835TMC3    H112437   1.086   1.402  13.526
  835TMC3    H212438   0.839   1.735  13.473
  835TMC3    C712439   1.085   1.665  13.456
  835TMC3    C812440   0.615   1.620  13.508
  835TMC3    O112441   1.054   1.772  13.407
  835TMC3    O212442   0.543   1.574  13.594
  836TMC3    C112443   4.349   2.583   7.194
  836TMC3    C212444   4.318   2.458   7.236
  836TMC3    C312445   4.289   2.365   7.144
  836TMC3    C412446   4.355   2.615   7.063
  836TMC3    C512447   4.329   2.516   6.971
  836TMC3    C612448   4.283   2.389   7.011
  836TMC3     C12449   4.393   2.682   7.281
  836TMC3     O12450   4.353   2.674   7.395
  836TMC3     H12451   4.339   2.432   7.339
  836TMC3    H112452   4.373   2.715   7.025
  836TMC3    H212453   4.242   2.317   6.941
  836TMC3    C712454   4.367   2.542   6.831
  836TMC3    C812455   4.237   2.243   7.196
  836TMC3    O112456   4.423   2.651   6.818
  836TMC3    O212457   4.215   2.233   7.317
  837TMC3    C112458   3.747   4.071   8.987
  837TMC3    C212459   3.859   4.008   8.939
  837TMC3    C312460   3.912   4.048   8.817
  837TMC3    C412461   3.691   4.184   8.926
  837TMC3    C512462   3.757   4.227   8.812
  837TMC3    C612463   3.862   4.160   8.759
  837TMC3     C12464   3.672   4.005   9.096
  837TMC3     O12465   3.734   3.917   9.158
  837TMC3     H12466   3.892   3.911   8.974
  837TMC3    H112467   3.599   4.233   8.957
  837TMC3    H212468   3.905   4.193   8.665
  837TMC3    C712469   3.675   4.312   8.720
  837TMC3    C812470   3.971   3.943   8.732
  837TMC3    O112471   3.733   4.343   8.620
  837TMC3    O212472   3.979   3.828   8.783
  838TMC3    C112473   1.104   4.077  14.827
  838TMC3    C212474   1.177   4.174  14.899
  838TMC3    C312475   1.270   4.135  14.987
  838TMC3    C412476   1.107   3.941  14.856
  838TMC3    C512477   1.193   3.913  14.956
  838TMC3    C612478   1.268   4.008  15.024
  838TMC3     C12479   1.038   4.115  14.700
  838TMC3     O12480   1.002   4.228  14.692
  838TMC3     H12481   1.170   4.278  14.869
  838TMC3    H112482   1.037   3.870  14.813
  838TMC3    H212483   1.343   3.971  15.093
  838TMC3    C712484   1.206   3.774  14.999
  838TMC3    C812485   1.354   4.229  15.062
  838TMC3    O112486   1.260   3.758  15.110
  838TMC3    O212487   1.341   4.349  15.039
  839TMC3    C112488   2.099   3.247   9.315
  839TMC3    C212489   2.156   3.152   9.231
  839TMC3    C312490   2.137   3.020   9.259
  839TMC3    C412491   2.033   3.214   9.430
  839TMC3    C512492   2.021   3.076   9.449
  839TMC3    C612493   2.076   2.980   9.376
  839TMC3     C12494   2.021   3.343   9.240
  839TMC3     O12495   2.075   3.389   9.135
  839TMC3     H12496   2.194   3.191   9.137
  839TMC3    H112497   1.974   3.282   9.490
  839TMC3    H212498   2.080   2.878   9.414
  839TMC3    C712499   1.894   3.030   9.509
  839TMC3    C812500   2.059   2.961   9.153
  839TMC3    O112501   1.836   3.091   9.595
  839TMC3    O212502   1.970   2.890   9.200
  840TMC3    C112503   3.905   2.555  11.697
  840TMC3    C212504   3.946   2.573  11.818
  840TMC3    C312505   3.911   2.481  11.910
  840TMC3    C412506   3.847   2.430  11.658
  840TMC3    C512507   3.789   2.359  11.759
  840TMC3    C612508   3.816   2.387  11.890
  840TMC3     C12509   3.809   2.660  11.662
  840TMC3     O12510   3.724   2.667  11.751
  840TMC3     H12511   4.002   2.662  11.844
  840TMC3    H112512   3.795   2.425  11.563
  840TMC3    H212513   3.788   2.326  11.975
  840TMC3    C712514   3.650   2.334  11.738
  840TMC3    C812515   3.972   2.487  12.036
  840TMC3    O112516   3.610   2.298  11.628
  840TMC3    O212517   3.904   2.462  12.138
  841TMC3    C112518   3.628   0.244  13.089
  841TMC3    C212519   3.617   0.342  13.179
  841TMC3    C312520   3.553   0.460  13.153
  841TMC3    C412521   3.597   0.266  12.956
  841TMC3    C512522   3.553   0.386  12.925
  841TMC3    C612523   3.533   0.488  13.015
  841TMC3     C12524   3.666   0.109  13.131
  841TMC3     O12525   3.683   0.090  13.251
  841TMC3     H12526   3.654   0.312  13.277
  841TMC3    H112527   3.615   0.193  12.878
  841TMC3    H212528   3.493   0.585  12.989
  841TMC3    C712529   3.598   0.439  12.796
  841TMC3    C812530   3.628   0.570  13.200
  841TMC3    O112531   3.591   0.370  12.695
  841TMC3    O212532   3.696   0.622  13.112
  842TMC3    C112533   2.825   3.188  13.645
  842TMC3    C212534   2.721   3.107  13.634
  842TMC3    C312535   2.668   3.082  13.512
  842TMC3    C412536   2.877   3.248  13.535
  842TMC3    C512537   2.838   3.207  13.409
  842TMC3    C612538   2.720   3.137  13.394
  842TMC3     C12539   2.866   3.230  13.779
  842TMC3     O12540   2.944   3.324  13.778
  842TMC3     H12541   2.679   3.056  13.720
  842TMC3    H112542   2.963   3.311  13.555
  842TMC3    H212543   2.691   3.103  13.295
  842TMC3    C712544   2.936   3.133  13.342
  842TMC3    C812545   2.560   2.992  13.497
  842TMC3    O112546   2.900   3.026  13.297
  842TMC3    O212547   2.559   2.885  13.562
  843TMC3    C112548   0.276   1.857  12.342
  843TMC3    C212549   0.277   1.991  12.325
  843TMC3    C312550   0.313   2.065  12.434
  843TMC3    C412551   0.330   1.796  12.452
  843TMC3    C512552   0.375   1.875  12.558
  843TMC3    C612553   0.353   2.012  12.551
  843TMC3     C12554   0.194   1.780  12.246
  843TMC3     O12555   0.270   1.721  12.166
  843TMC3     H12556   0.245   2.029  12.229
  843TMC3    H112557   0.314   1.690  12.466
  843TMC3    H212558   0.379   2.071  12.638
  843TMC3    C712559   0.395   1.803  12.685
  843TMC3    C812560   0.285   2.203  12.415
  843TMC3    O112561   0.447   1.694  12.682
  843TMC3    O212562   0.258   2.239  12.304
  844TMC3    C112563   2.889   0.397   6.990
  844TMC3    C212564   2.830   0.277   6.984
  844TMC3    C312565   2.886   0.175   7.052
  844TMC3    C412566   2.999   0.419   7.075
  844TMC3    C512567   3.058   0.310   7.133
  844TMC3    C612568   3.000   0.189   7.133
  844TMC3     C12569   2.793   0.504   6.973
  844TMC3     O12570   2.690   0.484   6.911
  844TMC3     H12571   2.740   0.268   6.924
  844TMC3    H112572   3.055   0.510   7.057
  844TMC3    H212573   3.046   0.113   7.194
  844TMC3    C712574   3.118   0.322   7.264
  844TMC3    C812575   2.824   0.044   7.046
  844TMC3    O112576   3.193   0.239   7.308
  844TMC3    O212577   2.701   0.041   7.052
  845TMC3    C112578   1.629   1.768  14.444
  845TMC3    C212579   1.723   1.839  14.516
  845TMC3    C312580   1.852   1.800  14.494
  845TMC3    C412581   1.657   1.656  14.367
  845TMC3    C512582   1.782   1.614  14.364
  845TMC3    C612583   1.886   1.688  14.422
  845TMC3     C12584   1.489   1.774  14.494
  845TMC3     O12585   1.401   1.719  14.435
  845TMC3     H12586   1.703   1.933  14.567
  845TMC3    H112587   1.577   1.601  14.320
  845TMC3    H212588   1.984   1.642  14.426
  845TMC3    C712589   1.793   1.465  14.369
  845TMC3    C812590   1.922   1.822  14.619
  845TMC3    O112591   1.684   1.405  14.372
  845TMC3    O212592   1.849   1.802  14.715
  846TMC3    C112593   1.965   0.422  12.267
  846TMC3    C212594   2.058   0.457  12.175
  846TMC3    C312595   2.075   0.593  12.162
  846TMC3    C412596   1.902   0.510  12.352
  846TMC3    C512597   1.921   0.640  12.325
  846TMC3    C612598   2.004   0.685  12.227
  846TMC3     C12599   1.882   0.306  12.237
  846TMC3     O12600   1.934   0.210  12.179
  846TMC3     H12601   2.093   0.384  12.102
  846TMC3    H112602   1.851   0.484  12.444
  846TMC3    H212603   2.014   0.788  12.196
  846TMC3    C712604   1.803   0.723  12.368
  846TMC3    C812605   2.185   0.634  12.077
  846TMC3    O112606   1.706   0.657  12.406
  846TMC3    O212607   2.284   0.563  12.095
  847TMC3    C112608   2.655   3.199   8.414
  847TMC3    C212609   2.568   3.305   8.422
  847TMC3    C312610   2.609   3.425   8.359
  847TMC3    C412611   2.777   3.210   8.354
  847TMC3    C512612   2.813   3.329   8.302
  847TMC3    C612613   2.727   3.437   8.290
  847TMC3     C12614   2.636   3.088   8.506
  847TMC3     O12615   2.544   3.108   8.580
  847TMC3     H12616   2.478   3.305   8.483
  847TMC3    H112617   2.854   3.133   8.359
  847TMC3    H212618   2.758   3.534   8.253
  847TMC3    C712619   2.954   3.360   8.304
  847TMC3    C812620   2.573   3.538   8.437
  847TMC3    O112621   2.980   3.468   8.249
  847TMC3    O212622   2.454   3.569   8.439
  848TMC3    C112623   1.042   1.803  10.725
  848TMC3    C212624   1.016   1.904  10.634
  848TMC3    C312625   0.944   2.010  10.683
  848TMC3    C412626   0.993   1.795  10.848
  848TMC3    C512627   0.913   1.903  10.887
  848TMC3    C612628   0.888   2.011  10.807
  848TMC3     C12629   1.038   1.674  10.662
  848TMC3     O12630   1.111   1.657  10.563
  848TMC3     H12631   1.053   1.899  10.532
  848TMC3    H112632   1.022   1.720  10.921
  848TMC3    H212633   0.844   2.101  10.848
  848TMC3    C712634   0.871   1.898  11.026
  848TMC3    C812635   0.916   2.133  10.605
  848TMC3    O112636   0.819   1.792  11.062
  848TMC3    O212637   0.801   2.171  10.601
  849TMC3    C112638   4.527   4.777  13.185
  849TMC3    C212639   4.492   4.774  13.316
  849TMC3    C312640   4.428   0.092  13.370
  849TMC3    C412641   4.498   0.100  13.101
  849TMC3    C512642   4.422   0.203  13.159
  849TMC3    C612643   4.395   0.204  13.294
  849TMC3     C12644   4.628   4.679  13.155
  849TMC3     O12645   4.658   4.606  13.243
  849TMC3     H12646   4.493   4.683  13.376
  849TMC3    H112647   4.516   0.106  12.994
  849TMC3    H212648   4.323   0.271  13.341
  849TMC3    C712649   4.362   0.300  13.069
  849TMC3    C812650   4.331   0.062  13.469
  849TMC3    O112651   4.402   0.312  12.957
  849TMC3    O212652   4.215   0.096  13.448
  850TMC3    C112653   2.880   1.024  11.363
  850TMC3    C212654   2.831   1.145  11.324
  850TMC3    C312655   2.706   1.149  11.272
  850TMC3    C412656   2.824   0.896  11.338
  850TMC3    C512657   2.700   0.904  11.285
  850TMC3    C612658   2.642   1.028  11.254
  850TMC3     C12659   3.024   1.008  11.381
  850TMC3     O12660   3.070   0.917  11.445
  850TMC3     H12661   2.877   1.233  11.366
  850TMC3    H112662   2.871   0.805  11.374
  850TMC3    H212663   2.547   1.021  11.202
  850TMC3    C712664   2.622   0.791  11.234
  850TMC3    C812665   2.631   1.273  11.266
  850TMC3    O112666   2.592   0.802  11.116
  850TMC3    O212667   2.526   1.279  11.205
  851TMC3    C112668   2.354   3.631  12.542
  851TMC3    C212669   2.318   3.532  12.633
  851TMC3    C312670   2.254   3.572  12.745
  851TMC3    C412671   2.305   3.761  12.559
  851TMC3    C512672   2.248   3.795  12.673
  851TMC3    C612673   2.220   3.702  12.771
  851TMC3     C12674   2.442   3.589  12.435
  851TMC3     O12675   2.435   3.474  12.392
  851TMC3     H12676   2.353   3.431  12.617
  851TMC3    H112677   2.334   3.836  12.486
  851TMC3    H212678   2.177   3.725  12.868
  851TMC3    C712679   2.203   3.934  12.680
  851TMC3    C812680   2.166   3.470  12.790
  851TMC3    O112681   2.235   4.014  12.592
  851TMC3    O212682   2.220   3.359  12.800
  852TMC3    C112683   4.287   1.575  13.504
  852TMC3    C212684   4.186   1.641  13.569
  852TMC3    C312685   4.106   1.724  13.496
  852TMC3    C412686   4.303   1.584  13.368
  852TMC3    C512687   4.207   1.650  13.297
  852TMC3    C612688   4.112   1.725  13.361
  852TMC3     C12689   4.403   1.522  13.572
  852TMC3     O12690   4.515   1.544  13.522
  852TMC3     H12691   4.167   1.643  13.676
  852TMC3    H112692   4.381   1.528  13.317
  852TMC3    H212693   4.042   1.779  13.298
  852TMC3    C712694   4.239   1.666  13.153
  852TMC3    C812695   4.051   1.839  13.568
  852TMC3    O112696   4.297   1.572  13.105
  852TMC3    O212697   3.987   1.803  13.668
  853TMC3    C112698   3.425   2.234   7.999
  853TMC3    C212699   3.432   2.244   8.136
  853TMC3    C312700   3.492   2.353   8.189
  853TMC3    C412701   3.489   2.323   7.911
  853TMC3    C512702   3.540   2.432   7.971
  853TMC3    C612703   3.546   2.449   8.109
  853TMC3     C12704   3.364   2.116   7.939
  853TMC3     O12705   3.293   2.051   8.012
  853TMC3     H12706   3.383   2.170   8.198
  853TMC3    H112707   3.453   2.321   7.809
  853TMC3    H212708   3.609   2.529   8.147
  853TMC3    C712709   3.584   2.539   7.884
  853TMC3    C812710   3.491   2.356   8.337
  853TMC3    O112711   3.679   2.600   7.925
  853TMC3    O212712   3.499   2.253   8.405
  854TMC3    C112713   3.428   0.768  12.324
  854TMC3    C212714   3.459   0.781  12.452
  854TMC3    C312715   3.429   0.898  12.521
  854TMC3    C412716   3.353   0.855  12.253
  854TMC3    C512717   3.319   0.975  12.321
  854TMC3    C612718   3.353   0.996  12.457
  854TMC3     C12719   3.472   0.645  12.251
  854TMC3     O12720   3.457   0.645  12.130
  854TMC3     H12721   3.530   0.714  12.499
  854TMC3    H112722   3.332   0.836  12.148
  854TMC3    H212723   3.308   1.074  12.517
  854TMC3    C712724   3.242   1.081  12.251
  854TMC3    C812725   3.448   0.889  12.667
  854TMC3    O112726   3.227   1.190  12.305
  854TMC3    O212727   3.424   0.781  12.721
  855TMC3    C112728   4.068   3.847  13.857
  855TMC3    C212729   4.067   3.807  13.990
  855TMC3    C312730   4.179   3.751  14.048
  855TMC3    C412731   4.180   3.821  13.781
  855TMC3    C512732   4.290   3.776  13.844
  855TMC3    C612733   4.296   3.745  13.977
  855TMC3     C12734   3.937   3.862  13.789
  855TMC3     O12735   3.842   3.800  13.840
  855TMC3     H12736   3.969   3.819  14.036
  855TMC3    H112737   4.186   3.833  13.673
  855TMC3    H212738   4.385   3.694  14.012
  855TMC3    C712739   4.406   3.727  13.776
  855TMC3    C812740   4.193   3.763  14.195
  855TMC3    O112741   4.517   3.748  13.824
  855TMC3    O212742   4.309   3.765  14.233
  856TMC3    C112743   3.089   2.631   8.562
  856TMC3    C212744   3.076   2.705   8.683
  856TMC3    C312745   3.096   2.843   8.673
  856TMC3    C412746   3.112   2.692   8.442
  856TMC3    C512747   3.125   2.830   8.440
  856TMC3    C612748   3.106   2.910   8.552
  856TMC3     C12749   3.048   2.492   8.566
  856TMC3     O12750   3.047   2.432   8.462
  856TMC3     H12751   3.091   2.652   8.776
  856TMC3    H112752   3.144   2.634   8.357
  856TMC3    H212753   3.115   3.018   8.557
  856TMC3    C712754   3.148   2.891   8.314
  856TMC3    C812755   3.043   2.926   8.780
  856TMC3    O112756   3.078   2.869   8.219
  856TMC3    O212757   3.050   3.047   8.766
  857TMC3    C112758   0.846   1.187   6.752
  857TMC3    C212759   0.837   1.103   6.645
  857TMC3    C312760   0.947   1.029   6.615
  857TMC3    C412761   0.957   1.210   6.830
  857TMC3    C512762   1.062   1.131   6.794
  857TMC3    C612763   1.060   1.040   6.690
  857TMC3     C12764   0.743   1.288   6.752
  857TMC3     O12765   0.735   1.347   6.862
  857TMC3     H12766   0.743   1.088   6.592
  857TMC3    H112767   0.958   1.290   6.903
  857TMC3    H212768   1.132   0.962   6.670
  857TMC3    C712769   1.190   1.145   6.864
  857TMC3    C812770   0.941   0.927   6.512
  857TMC3    O112771   1.198   1.194   6.973
  857TMC3    O212772   0.991   0.816   6.540
  858TMC3    C112773   3.203   2.922   9.534
  858TMC3    C212774   3.262   2.846   9.627
  858TMC3    C312775   3.365   2.753   9.606
  858TMC3    C412776   3.250   2.907   9.403
  858TMC3    C512777   3.363   2.831   9.390
  858TMC3    C612778   3.421   2.758   9.483
  858TMC3     C12779   3.090   2.995   9.579
  858TMC3     O12780   3.028   2.937   9.665
  858TMC3     H12781   3.247   2.863   9.733
  858TMC3    H112782   3.208   2.976   9.331
  858TMC3    H212783   3.510   2.703   9.453
  858TMC3    C712784   3.448   2.848   9.272
  858TMC3    C812785   3.347   2.619   9.655
  858TMC3    O112786   3.570   2.843   9.287
  858TMC3    O212787   3.437   2.542   9.633
  859TMC3    C112788   2.932   2.814   7.229
  859TMC3    C212789   3.055   2.786   7.285
  859TMC3    C312790   3.148   2.877   7.271
  859TMC3    C412791   2.899   2.915   7.147
  859TMC3    C512792   2.995   3.005   7.136
  859TMC3    C612793   3.117   2.992   7.192
  859TMC3     C12794   2.831   2.714   7.250
  859TMC3     O12795   2.714   2.749   7.248
  859TMC3     H12796   3.066   2.704   7.355
  859TMC3    H112797   2.803   2.926   7.098
  859TMC3    H212798   3.187   3.074   7.178
  859TMC3    C712799   2.979   3.122   7.045
  859TMC3    C812800   3.286   2.856   7.312
  859TMC3    O112801   3.081   3.169   7.002
  859TMC3    O212802   3.369   2.939   7.272
  860TMC3    C112803   1.384   4.294  12.157
  860TMC3    C212804   1.336   4.188  12.083
  860TMC3    C312805   1.241   4.206  11.988
  860TMC3    C412806   1.364   4.420  12.110
  860TMC3    C512807   1.278   4.431  12.005
  860TMC3    C612808   1.227   4.326  11.930
  860TMC3     C12809   1.329   4.295  12.290
  860TMC3     O12810   1.276   4.395  12.338
  860TMC3     H12811   1.342   4.086  12.118
  860TMC3    H112812   1.394   4.509  12.164
  860TMC3    H212813   1.171   4.346  11.839
  860TMC3    C712814   1.252   4.566  11.957
  860TMC3    C812815   1.113   4.156  12.019
  860TMC3    O112816   1.337   4.654  11.970
  860TMC3    O212817   1.025   4.240  12.012
  861TMC3    C112818   0.582   1.111  12.484
  861TMC3    C212819   0.647   1.118  12.605
  861TMC3    C312820   0.592   1.212  12.694
  861TMC3    C412821   0.468   1.177  12.465
  861TMC3    C512822   0.415   1.259  12.564
  861TMC3    C612823   0.474   1.275  12.684
  861TMC3     C12824   0.635   1.004  12.401
  861TMC3     O12825   0.750   0.969  12.431
  861TMC3     H12826   0.729   1.054  12.636
  861TMC3    H112827   0.420   1.161  12.369
  861TMC3    H212828   0.438   1.345  12.758
  861TMC3    C712829   0.318   1.354  12.516
  861TMC3    C812830   0.662   1.211  12.820
  861TMC3    O112831   0.303   1.359  12.392
  861TMC3    O212832   0.602   1.216  12.929
  862TMC3    C112833   3.796   3.942  10.344
  862TMC3    C212834   3.810   3.805  10.310
  862TMC3    C312835   3.922   3.749  10.359
  862TMC3    C412836   3.889   4.004  10.433
  862TMC3    C512837   3.994   3.929  10.482
  862TMC3    C612838   4.010   3.801  10.445
  862TMC3     C12839   3.660   3.992  10.343
  862TMC3     O12840   3.623   4.065  10.433
  862TMC3     H12841   3.730   3.748  10.264
  862TMC3    H112842   3.874   4.108  10.459
  862TMC3    H212843   4.097   3.743  10.474
  862TMC3    C712844   4.121   3.994  10.474
  862TMC3    C812845   3.941   3.617  10.295
  862TMC3    O112846   4.211   3.937  10.537
  862TMC3    O212847   3.855   3.575  10.219
  863TMC3    C112848   0.170   1.079  10.110
  863TMC3    C212849   0.077   1.092  10.011
  863TMC3    C312850   0.036   1.220   9.981
  863TMC3    C412851   0.206   1.181  10.192
  863TMC3    C512852   0.156   1.306  10.168
  863TMC3    C612853   0.078   1.325  10.055
  863TMC3     C12854   0.165   0.961  10.185
  863TMC3     O12855   0.260   0.945  10.263
  863TMC3     H12856   0.054   1.006   9.948
  863TMC3    H112857   0.266   1.159  10.279
  863TMC3    H212858   0.044   1.424  10.026
  863TMC3    C712859   0.229   1.417  10.235
  863TMC3    C812860   4.682   1.242   9.955
  863TMC3    O112861   0.349   1.388  10.261
  863TMC3    O212862   4.621   1.340  10.002
  864TMC3    C112863   0.479   0.474   7.508
  864TMC3    C212864   0.361   0.446   7.566
  864TMC3    C312865   0.330   0.323   7.629
  864TMC3    C412866   0.572   0.374   7.505
  864TMC3    C512867   0.536   0.248   7.552
  864TMC3    C612868   0.413   0.219   7.606
  864TMC3     C12869   0.535   0.606   7.538
  864TMC3     O12870   0.653   0.606   7.569
  864TMC3     H12871   0.284   0.521   7.572
  864TMC3    H112872   0.673   0.410   7.491
  864TMC3    H212873   0.389   0.119   7.641
  864TMC3    C712874   0.597   0.135   7.482
  864TMC3    C812875   0.204   0.287   7.706
  864TMC3    O112876   0.558   0.027   7.520
  864TMC3    O212877   0.166   0.172   7.708
  865TMC3    C112878   4.054   1.067  12.147
  865TMC3    C212879   4.183   1.044  12.185
  865TMC3    C312880   4.226   1.104  12.297
  865TMC3    C412881   3.973   1.160  12.211
  865TMC3    C512882   4.026   1.225  12.321
  865TMC3    C612883   4.160   1.204  12.352
  865TMC3     C12884   3.982   0.963  12.071
  865TMC3     O12885   4.047   0.869  12.037
  865TMC3     H12886   4.242   0.962  12.144
  865TMC3    H112887   3.866   1.167  12.195
  865TMC3    H212888   4.211   1.266  12.425
  865TMC3    C712889   3.933   1.283  12.425
  865TMC3    C812890   4.351   1.057  12.350
  865TMC3    O112891   3.979   1.382  12.481
  865TMC3    O212892   4.448   1.058  12.270
  866TMC3    C112893   3.882   2.773  14.279
  866TMC3    C212894   3.921   2.823  14.404
  866TMC3    C312895   3.895   2.953  14.424
  866TMC3    C412896   3.808   2.847  14.192
  866TMC3    C512897   3.784   2.979  14.220
  866TMC3    C612898   3.834   3.038  14.332
  866TMC3     C12899   3.922   2.637  14.241
  866TMC3     O12900   3.846   2.568  14.169
  866TMC3     H12901   3.956   2.762  14.487
  866TMC3    H112902   3.768   2.796  14.105
  866TMC3    H212903   3.844   3.145  14.343
  866TMC3    C712904   3.758   3.072  14.114
  866TMC3    C812905   3.924   3.001  14.563
  866TMC3    O112906   3.793   3.189  14.118
  866TMC3    O212907   3.997   2.943  14.644
  867TMC3    C112908   3.007   2.873  11.201
  867TMC3    C212909   3.048   2.756  11.250
  867TMC3    C312910   3.160   2.757  11.331
  867TMC3    C412911   3.067   2.993  11.222
  867TMC3    C512912   3.169   3.000  11.306
  867TMC3    C612913   3.212   2.883  11.362
  867TMC3     C12914   2.923   2.873  11.077
  867TMC3     O12915   2.949   2.957  10.993
  867TMC3     H12916   2.984   2.670  11.234
  867TMC3    H112917   3.020   3.084  11.187
  867TMC3    H212918   3.287   2.888  11.440
  867TMC3    C712919   3.264   3.115  11.306
  867TMC3    C812920   3.192   2.646  11.424
  867TMC3    O112921   3.365   3.113  11.374
  867TMC3    O212922   3.089   2.613  11.480
  868TMC3    C112923   1.436   0.999  12.788
  868TMC3    C212924   1.504   1.085  12.701
  868TMC3    C312925   1.636   1.105  12.718
  868TMC3    C412926   1.496   0.938  12.894
  868TMC3    C512927   1.629   0.969  12.911
  868TMC3    C612928   1.701   1.048  12.822
  868TMC3     C12929   1.297   1.014  12.785
  868TMC3     O12930   1.251   1.041  12.676
  868TMC3     H12931   1.451   1.141  12.624
  868TMC3    H112932   1.439   0.880  12.966
  868TMC3    H212933   1.809   1.051  12.829
  868TMC3    C712934   1.694   0.912  13.033
  868TMC3    C812935   1.721   1.192  12.631
  868TMC3    O112936   1.643   0.809  13.072
  868TMC3    O212937   1.843   1.190  12.642
  869TMC3    C112938   4.423   1.584  11.680
  869TMC3    C212939   4.295   1.604  11.641
  869TMC3    C312940   4.242   1.732  11.644
  869TMC3    C412941   4.497   1.681  11.745
  869TMC3    C512942   4.442   1.810  11.743
  869TMC3    C612943   4.318   1.836  11.693
  869TMC3     C12944   4.500   1.473  11.631
  869TMC3     O12945   4.620   1.463  11.655
  869TMC3     H12946   4.239   1.525  11.593
  869TMC3    H112947   4.598   1.663  11.780
  869TMC3    H212948   4.280   1.937  11.698
  869TMC3    C712949   4.518   1.924  11.795
  869TMC3    C812950   4.106   1.730  11.619
  869TMC3    O112951   4.454   1.994  11.874
  869TMC3    O212952   4.055   1.617  11.612
  870TMC3    C112953   4.265   4.192  13.125
  870TMC3    C212954   4.374   4.139  13.067
  870TMC3    C312955   4.430   4.199  12.961
  870TMC3    C412956   4.226   4.319  13.095
  870TMC3    C512957   4.293   4.384  13.001
  870TMC3    C612958   4.397   4.329  12.929
  870TMC3     C12959   4.161   4.103  13.163
  870TMC3     O12960   4.081   4.132  13.253
  870TMC3     H12961   4.411   4.044  13.104
  870TMC3    H112962   4.138   4.362  13.142
  870TMC3    H212963   4.461   4.392  12.868
  870TMC3    C712964   4.254   4.522  12.963
  870TMC3    C812965   4.534   4.132  12.887
  870TMC3    O112966   4.271   4.551  12.846
  870TMC3    O212967   4.593   4.034  12.930
  871TMC3    C112968   3.559   0.806  14.039
  871TMC3    C212969   3.585   0.709  14.135
  871TMC3    C312970   3.708   0.651  14.130
  871TMC3    C412971   3.640   0.838  13.936
  871TMC3    C512972   3.765   0.784  13.942
  871TMC3    C612973   3.802   0.688  14.034
  871TMC3     C12974   3.434   0.870  14.054
  871TMC3     O12975   3.335   0.808  14.023
  871TMC3     H12976   3.503   0.689  14.204
  871TMC3    H112977   3.603   0.913  13.867
  871TMC3    H212978   3.889   0.623  14.030
  871TMC3    C712979   3.867   0.851  13.863
  871TMC3    C812980   3.768   0.581  14.243
  871TMC3    O112981   3.827   0.949  13.803
  871TMC3    O212982   3.887   0.557  14.244
  872TMC3    C112983   0.555   4.419  12.390
  872TMC3    C212984   0.654   4.419  12.484
  872TMC3    C312985   0.710   4.297  12.527
  872TMC3    C412986   0.530   4.300  12.326
  872TMC3    C512987   0.588   4.185  12.369
  872TMC3    C612988   0.657   4.183  12.482
  872TMC3     C12989   0.536   4.535  12.307
  872TMC3     O12990   0.542   4.523  12.189
  872TMC3     H12991   0.691   4.513  12.524
  872TMC3    H112992   0.473   4.291  12.234
  872TMC3    H212993   0.704   4.089  12.508
  872TMC3    C712994   0.649   4.114  12.258
  872TMC3    C812995   0.851   4.301  12.524
  872TMC3    O112996   0.668   4.186  12.159
  872TMC3    O212997   0.903   4.401  12.470
  873TMC3    C112998   0.312   2.927  11.590
  873TMC3    C212999   0.426   2.879  11.644
  873TMC3    C313000   0.427   2.742  11.642
  873TMC3    C413001   0.201   2.852  11.552
  873TMC3    C513002   0.206   2.719  11.563
  873TMC3    C613003   0.321   2.662  11.608
  873TMC3     C13004   0.281   3.070  11.595
  873TMC3     O13005   0.165   3.096  11.627
  873TMC3     H13006   0.509   2.937  11.682
  873TMC3    H113007   0.112   2.899  11.512
  873TMC3    H213008   0.324   2.554  11.617
  873TMC3    C713009   0.117   2.644  11.482
  873TMC3    C813010   0.531   2.662  11.698
  873TMC3    O113011   0.171   2.547  11.427
  873TMC3    O213012   0.499   2.553  11.732
  874TMC3    C113013   1.790   2.388   6.962
  874TMC3    C213014   1.919   2.339   6.954
  874TMC3    C313015   1.967   2.302   6.830
  874TMC3    C413016   1.716   2.416   6.853
  874TMC3    C513017   1.754   2.363   6.734
  874TMC3    C613018   1.883   2.318   6.719
  874TMC3     C13019   1.721   2.361   7.087
  874TMC3     O13020   1.793   2.356   7.189
  874TMC3     H13021   1.979   2.337   7.044
  874TMC3    H113022   1.617   2.459   6.863
  874TMC3    H213023   1.902   2.250   6.637
  874TMC3    C713024   1.657   2.277   6.666
  874TMC3    C813025   2.061   2.199   6.817
  874TMC3    O113026   1.562   2.243   6.735
  874TMC3    O213027   2.122   2.201   6.712
  875TMC3    C113028   2.417   3.910   9.685
  875TMC3    C213029   2.532   3.973   9.638
  875TMC3    C313030   2.595   3.936   9.519
  875TMC3    C413031   2.391   3.788   9.636
  875TMC3    C513032   2.472   3.739   9.539
  875TMC3    C613033   2.573   3.806   9.474
  875TMC3     C13034   2.304   3.996   9.662
  875TMC3     O13035   2.328   4.114   9.655
  875TMC3     H13036   2.563   4.069   9.677
  875TMC3    H113037   2.338   3.726   9.707
  875TMC3    H213038   2.607   3.775   9.376
  875TMC3    C713039   2.460   3.596   9.506
  875TMC3    C813040   2.589   4.034   9.410
  875TMC3    O113041   2.515   3.566   9.400
  875TMC3    O213042   2.620   4.008   9.294
  876TMC3    C113043   0.928   2.477  13.378
  876TMC3    C213044   0.916   2.564  13.276
  876TMC3    C313045   0.906   2.502  13.152
  876TMC3    C413046   0.936   2.339  13.365
  876TMC3    C513047   0.913   2.282  13.243
  876TMC3    C613048   0.895   2.368  13.134
  876TMC3     C13049   1.029   2.533  13.472
  876TMC3     O13050   1.088   2.633  13.435
  876TMC3     H13051   0.900   2.669  13.298
  876TMC3    H113052   0.954   2.279  13.454
  876TMC3    H213053   0.891   2.324  13.035
  876TMC3    C713054   0.848   2.157  13.242
  876TMC3    C813055   0.986   2.565  13.046
  876TMC3    O113056   0.779   2.143  13.336
  876TMC3    O213057   0.968   2.536  12.930
  877TMC3    C113058   2.003   2.833   6.983
  877TMC3    C213059   2.009   2.966   6.947
  877TMC3    C313060   1.909   3.023   6.889
  877TMC3    C413061   1.885   2.765   6.980
  877TMC3    C513062   1.784   2.829   6.920
  877TMC3    C613063   1.789   2.955   6.872
  877TMC3     C13064   2.120   2.763   6.948
  877TMC3     O13065   2.209   2.813   6.881
  877TMC3     H13066   2.105   3.016   6.954
  877TMC3    H113067   1.876   2.657   6.986
  877TMC3    H213068   1.699   3.010   6.847
  877TMC3    C713069   1.650   2.780   6.953
  877TMC3    C813070   1.939   3.143   6.812
  877TMC3    O113071   1.639   2.741   7.070
  877TMC3    O213072   2.048   3.194   6.823
  878TMC3    C113073   0.549   1.755  11.449
  878TMC3    C213074   0.518   1.804  11.571
  878TMC3    C313075   0.551   1.726  11.682
  878TMC3    C413076   0.614   1.636  11.428
  878TMC3    C513077   0.634   1.556  11.536
  878TMC3    C613078   0.599   1.591  11.670
  878TMC3     C13079   0.502   1.825  11.330
  878TMC3     O13080   0.432   1.922  11.355
  878TMC3     H13081   0.461   1.893  11.593
  878TMC3    H113082   0.638   1.603  11.327
  878TMC3    H213083   0.633   1.528  11.751
  878TMC3    C713084   0.701   1.431  11.521
  878TMC3    C813085   0.545   1.786  11.814
  878TMC3    O113086   0.788   1.408  11.440
  878TMC3    O213087   0.538   1.908  11.825
  879TMC3    C113088   4.734   4.496  12.378
  879TMC3    C213089   0.026   4.393  12.345
  879TMC3    C313090   0.026   4.349  12.221
  879TMC3    C413091   4.652   4.558  12.290
  879TMC3    C513092   4.643   4.496  12.166
  879TMC3    C613093   4.725   4.390  12.129
  879TMC3     C13094   4.723   4.538  12.516
  879TMC3     O13095   4.681   4.654  12.527
  879TMC3     H13096   0.100   4.350  12.411
  879TMC3    H113097   4.588   4.638  12.326
  879TMC3    H213098   4.712   4.354  12.027
  879TMC3    C713099   4.544   4.550  12.073
  879TMC3    C813100   0.125   4.249  12.195
  879TMC3    O113101   4.567   4.540  11.954
  879TMC3    O213102   0.229   4.251  12.260
  880TMC3    C113103   3.406   0.377   8.877
  880TMC3    C213104   3.531   0.431   8.868
  880TMC3    C313105   3.627   0.405   8.960
  880TMC3    C413106   3.379   0.299   8.988
  880TMC3    C513107   3.472   0.274   9.082
  880TMC3    C613108   3.600   0.328   9.074
  880TMC3     C13109   3.311   0.471   8.835
  880TMC3     O13110   3.340   0.586   8.866
  880TMC3     H13111   3.551   0.487   8.777
  880TMC3    H113112   3.277   0.264   8.999
  880TMC3    H213113   3.681   0.294   9.137
  880TMC3    C713114   3.427   0.216   9.210
  880TMC3    C813115   3.717   0.520   8.985
  880TMC3    O113116   3.313   0.170   9.208
  880TMC3    O213117   3.807   0.494   9.066
  881TMC3    C113118   1.589   2.803  10.094
  881TMC3    C213119   1.504   2.714  10.029
  881TMC3    C313120   1.413   2.763   9.939
  881TMC3    C413121   1.579   2.940  10.068
  881TMC3    C513122   1.482   2.981   9.989
  881TMC3    C613123   1.398   2.898   9.923
  881TMC3     C13124   1.723   2.758  10.122
  881TMC3     O13125   1.797   2.839  10.174
  881TMC3     H13126   1.505   2.608  10.052
  881TMC3    H113127   1.641   3.016  10.114
  881TMC3    H213128   1.337   2.942   9.845
  881TMC3    C713129   1.501   3.109   9.919
  881TMC3    C813130   1.439   2.708   9.811
  881TMC3    O113131   1.491   3.091   9.798
  881TMC3    O213132   1.437   2.584   9.798
  882TMC3    C113133   0.857   0.240   7.751
  882TMC3    C213134   0.896   0.337   7.664
  882TMC3    C313135   0.952   0.301   7.542
  882TMC3    C413136   0.873   0.109   7.713
  882TMC3    C513137   0.931   0.075   7.598
  882TMC3    C613138   0.970   0.171   7.516
  882TMC3     C13139   0.781   0.301   7.861
  882TMC3     O13140   0.805   0.419   7.890
  882TMC3     H13141   0.892   0.440   7.696
  882TMC3    H113142   0.874   0.031   7.788
  882TMC3    H213143   1.023   0.145   7.425
  882TMC3    C713144   1.030   4.759   7.621
  882TMC3    C813145   1.046   0.392   7.471
  882TMC3    O113146   0.990   4.659   7.681
  882TMC3    O213147   1.143   0.330   7.424
  883TMC3    C113148   3.497   4.370  13.066
  883TMC3    C213149   3.476   4.472  12.976
  883TMC3    C313150   3.492   4.436  12.844
  883TMC3    C413151   3.535   4.243  13.040
  883TMC3    C513152   3.564   4.213  12.909
  883TMC3    C613153   3.531   4.305  12.814
  883TMC3     C13154   3.444   4.391  13.193
  883TMC3     O13155   3.389   4.297  13.253
  883TMC3     H13156   3.452   4.573  13.006
  883TMC3    H113157   3.577   4.183  13.120
  883TMC3    H213158   3.533   4.283  12.708
  883TMC3    C713159   3.617   4.088  12.867
  883TMC3    C813160   3.426   4.510  12.739
  883TMC3    O113161   3.670   4.082  12.755
  883TMC3    O213162   3.330   4.580  12.773
  884TMC3    C113163   4.775   0.077  12.033
  884TMC3    C213164   4.726   0.126  12.151
  884TMC3    C313165   4.636   0.229  12.150
  884TMC3    C413166   4.736   0.125  11.915
  884TMC3    C513167   4.628   0.211  11.921
  884TMC3    C613168   4.582   0.272  12.032
  884TMC3     C13169   0.074   4.754  12.038
  884TMC3     O13170   0.135   4.727  12.141
  884TMC3     H13171   4.748   0.061  12.235
  884TMC3    H113172   4.772   0.103  11.815
  884TMC3    H213173   4.505   0.348  12.031
  884TMC3    C713174   4.579   0.249  11.788
  884TMC3    C813175   4.541   0.221  12.261
  884TMC3    O113176   4.656   0.239  11.693
  884TMC3    O213177   4.429   0.189  12.234
  885TMC3    C113178   3.705   4.060  11.488
  885TMC3    C213179   3.839   4.085  11.510
  885TMC3    C313180   3.900   4.186  11.436
  885TMC3    C413181   3.635   4.138  11.394
  885TMC3    C513182   3.706   4.222  11.319
  885TMC3    C613183   3.838   4.254  11.337
  885TMC3     C13184   3.654   3.919  11.503
  885TMC3     O13185   3.560   3.873  11.434
  885TMC3     H13186   3.897   4.030  11.583
  885TMC3    H113187   3.530   4.120  11.373
  885TMC3    H213188   3.881   4.347  11.302
  885TMC3    C713189   3.625   4.315  11.242
  885TMC3    C813190   4.023   4.253  11.492
  885TMC3    O113191   3.519   4.367  11.286
  885TMC3    O213192   4.060   4.361  11.454
  886TMC3    C113193   0.215   4.038  11.345
  886TMC3    C213194   0.201   4.119  11.450
  886TMC3    C313195   0.115   4.227  11.440
  886TMC3    C413196   0.126   4.039  11.238
  886TMC3    C513197   0.031   4.141  11.235
  886TMC3    C613198   0.035   4.239  11.331
  886TMC3     C13199   0.337   3.958  11.310
  886TMC3     O13200   0.322   3.868  11.225
  886TMC3     H13201   0.263   4.101  11.537
  886TMC3    H113202   0.143   3.974  11.153
  886TMC3    H213203   4.742   4.308  11.336
  886TMC3    C713204   4.707   4.138  11.144
  886TMC3    C813205   0.107   4.329  11.542
  886TMC3    O113206   4.621   4.220  11.160
  886TMC3    O213207   0.012   4.405  11.535
  887TMC3    C113208   3.250   3.676   9.103
  887TMC3    C213209   3.349   3.674   9.008
  887TMC3    C313210   3.328   3.732   8.885
  887TMC3    C413211   3.140   3.759   9.086
  887TMC3    C513212   3.124   3.819   8.967
  887TMC3    C613213   3.214   3.806   8.864
  887TMC3     C13214   3.273   3.628   9.237
  887TMC3     O13215   3.168   3.627   9.302
  887TMC3     H13216   3.439   3.616   9.025
  887TMC3    H113217   3.072   3.780   9.168
  887TMC3    H213218   3.182   3.853   8.771
  887TMC3    C713219   2.988   3.862   8.938
  887TMC3    C813220   3.431   3.724   8.780
  887TMC3    O113221   2.909   3.895   9.026
  887TMC3    O213222   3.521   3.644   8.790
  888TMC3    C113223   3.376   2.548  13.353
  888TMC3    C213224   3.258   2.509  13.294
  888TMC3    C313225   3.226   2.375  13.290
  888TMC3    C413226   3.473   2.457  13.383
  888TMC3    C513227   3.429   2.324  13.379
  888TMC3    C613228   3.313   2.279  13.327
  888TMC3     C13229   3.414   2.686  13.365
  888TMC3     O13230   3.530   2.716  13.370
  888TMC3     H13231   3.178   2.578  13.271
  888TMC3    H113232   3.570   2.478  13.426
  888TMC3    H213233   3.272   2.179  13.326
  888TMC3    C713234   3.482   2.233  13.484
  888TMC3    C813235   3.085   2.336  13.279
  888TMC3    O113236   3.562   2.283  13.565
  888TMC3    O213237   3.061   2.238  13.204
  889TMC3    C113238   0.646   0.664  13.917
  889TMC3    C213239   0.745   0.754  13.942
  889TMC3    C313240   0.745   0.799  14.070
  889TMC3    C413241   0.591   0.595  14.019
  889TMC3    C513242   0.605   0.635  14.154
  889TMC3    C613243   0.683   0.746  14.177
  889TMC3     C13244   0.658   0.581  13.804
  889TMC3     O13245   0.609   0.470  13.804
  889TMC3     H13246   0.799   0.811  13.867
  889TMC3    H113247   0.524   0.512  14.000
  889TMC3    H213248   0.697   0.776  14.280
  889TMC3    C713249   0.497   0.633  14.251
  889TMC3    C813250   0.871   0.857  14.095
  889TMC3    O113251   0.459   0.743  14.291
  889TMC3    O213252   0.957   0.837  14.005
  890TMC3    C113253   0.285   1.388   7.441
  890TMC3    C213254   0.323   1.515   7.474
  890TMC3    C313255   0.355   1.593   7.365
  890TMC3    C413256   0.265   1.344   7.313
  890TMC3    C513257   0.293   1.429   7.210
  890TMC3    C613258   0.345   1.554   7.234
  890TMC3     C13259   0.294   1.292   7.552
  890TMC3     O13260   0.287   1.334   7.667
  890TMC3     H13261   0.348   1.543   7.576
  890TMC3    H113262   0.242   1.241   7.290
  890TMC3    H213263   0.361   1.626   7.155
  890TMC3    C713264   0.292   1.394   7.067
  890TMC3    C813265   0.432   1.712   7.396
  890TMC3    O113266   0.239   1.474   6.999
  890TMC3    O213267   0.394   1.767   7.497
  891TMC3    C113268   2.197   1.047  11.326
  891TMC3    C213269   2.179   1.185  11.319
  891TMC3    C313270   2.267   1.267  11.384
  891TMC3    C413271   2.301   0.992  11.388
  891TMC3    C513272   2.374   1.073  11.467
  891TMC3    C613273   2.359   1.208  11.467
  891TMC3     C13274   2.075   0.980  11.302
  891TMC3     O13275   1.971   1.038  11.318
  891TMC3     H13276   2.097   1.218  11.257
  891TMC3    H113277   2.313   0.886  11.407
  891TMC3    H213278   2.427   1.264  11.530
  891TMC3    C713279   2.469   1.027  11.564
  891TMC3    C813280   2.267   1.412  11.368
  891TMC3    O113281   2.573   1.092  11.568
  891TMC3    O213282   2.222   1.483  11.458
  892TMC3    C113283   0.302   1.079  11.049
  892TMC3    C213284   0.193   1.159  11.071
  892TMC3    C313285   0.201   1.291  11.045
  892TMC3    C413286   0.417   1.128  10.987
  892TMC3    C513287   0.417   1.263  10.956
  892TMC3    C613288   0.312   1.340  10.983
  892TMC3     C13289   0.294   0.950  11.117
  892TMC3     O13290   0.189   0.915  11.169
  892TMC3     H13291   0.095   1.126  11.104
  892TMC3    H113292   0.512   1.076  10.978
  892TMC3    H213293   0.307   1.438  10.937
  892TMC3    C713294   0.535   1.333  10.903
  892TMC3    C813295   0.075   1.359  11.012
  892TMC3    O113296   0.554   1.449  10.945
  892TMC3    O213297   0.079   1.434  10.915
  893TMC3    C113298   3.563   3.309  10.211
  893TMC3    C213299   3.539   3.198  10.292
  893TMC3    C313300   3.479   3.218  10.412
  893TMC3    C413301   3.526   3.439  10.244
  893TMC3    C513302   3.453   3.450  10.355
  893TMC3    C613303   3.439   3.345  10.447
  893TMC3     C13304   3.622   3.281  10.083
  893TMC3     O13305   3.559   3.205  10.010
  893TMC3     H13306   3.582   3.101  10.271
  893TMC3    H113307   3.535   3.518  10.171
  893TMC3    H213308   3.393   3.363  10.544
  893TMC3    C713309   3.422   3.587  10.401
  893TMC3    C813310   3.508   3.126  10.520
  893TMC3    O113311   3.526   3.655  10.398
  893TMC3    O213312   3.597   3.038  10.511
  894TMC3    C113313   3.096   4.435  14.574
  894TMC3    C213314   3.157   4.316  14.556
  894TMC3    C313315   3.138   4.247  14.442
  894TMC3    C413316   3.030   4.495  14.468
  894TMC3    C513317   3.025   4.427  14.348
  894TMC3    C613318   3.081   4.304  14.333
  894TMC3     C13319   3.075   4.479  14.706
  894TMC3     O13320   2.981   4.560  14.727
  894TMC3     H13321   3.196   4.267  14.644
  894TMC3    H113322   2.987   4.593  14.484
  894TMC3    H213323   3.087   4.257  14.236
  894TMC3    C713324   2.974   4.496  14.231
  894TMC3    C813325   3.138   4.101  14.431
  894TMC3    O113326   3.032   4.473  14.124
  894TMC3    O213327   3.080   4.057  14.333
  895TMC3    C113328   3.265   3.354  13.809
  895TMC3    C213329   3.239   3.244  13.883
  895TMC3    C313330   3.288   3.242  14.011
  895TMC3    C413331   3.350   3.455  13.852
  895TMC3    C513332   3.380   3.459  13.984
  895TMC3    C613333   3.344   3.354  14.063
  895TMC3     C13334   3.222   3.339  13.666
  895TMC3     O13335   3.210   3.224  13.637
  895TMC3     H13336   3.171   3.168  13.847
  895TMC3    H113337   3.382   3.532  13.783
  895TMC3    H213338   3.372   3.377  14.165
  895TMC3    C713339   3.367   3.587  14.056
  895TMC3    C813340   3.214   3.150  14.094
  895TMC3    O113341   3.320   3.585  14.171
  895TMC3    O213342   3.156   3.056  14.038
  896TMC3    C113343   2.141   2.186   8.806
  896TMC3    C213344   2.081   2.131   8.912
  896TMC3    C313345   2.002   2.211   8.995
  896TMC3    C413346   2.105   2.314   8.763
  896TMC3    C513347   2.021   2.385   8.844
  896TMC3    C613348   1.972   2.332   8.952
  896TMC3     C13349   2.182   2.107   8.692
  896TMC3     O13350   2.294   2.133   8.653
  896TMC3     H13351   2.111   2.032   8.944
  896TMC3    H113352   2.134   2.345   8.663
  896TMC3    H213353   1.899   2.379   9.017
  896TMC3    C713354   1.941   2.481   8.774
  896TMC3    C813355   1.904   2.141   9.073
  896TMC3    O113356   1.825   2.503   8.808
  896TMC3    O213357   1.843   2.053   9.010
  897TMC3    C113358   2.711   2.040  14.784
  897TMC3    C213359   2.686   2.158  14.718
  897TMC3    C313360   2.784   2.248  14.720
  897TMC3    C413361   2.831   2.008  14.840
  897TMC3    C513362   2.930   2.106  14.837
  897TMC3    C613363   2.906   2.228  14.783
  897TMC3     C13364   2.607   1.957  14.832
  897TMC3     O13365   2.620   1.884  14.927
  897TMC3     H13366   2.592   2.188  14.674
  897TMC3    H113367   2.844   1.910  14.885
  897TMC3    H213368   2.988   2.298  14.787
  897TMC3    C713369   3.057   2.062  14.776
  897TMC3    C813370   2.780   2.350  14.611
  897TMC3    O113371   3.099   2.130  14.682
  897TMC3    O213372   2.675   2.410  14.588
  898TMC3    C113373   2.847   0.127   9.764
  898TMC3    C213374   2.984   0.160   9.764
  898TMC3    C313375   3.063   0.084   9.846
  898TMC3    C413376   2.795   0.024   9.835
  898TMC3    C513377   2.880   4.740   9.913
  898TMC3    C613378   3.015   4.770   9.921
  898TMC3     C13379   2.756   0.235   9.790
  898TMC3     O13380   2.668   0.211   9.871
  898TMC3     H13381   3.030   0.232   9.698
  898TMC3    H113382   2.709   4.762   9.795
  898TMC3    H213383   3.077   4.734  10.002
  898TMC3    C713384   2.822   4.702  10.030
  898TMC3    C813385   3.203   0.074   9.824
  898TMC3    O113386   2.887   4.621  10.095
  898TMC3    O213387   3.268   0.034   9.917
  899TMC3    C113388   0.891   2.833   8.407
  899TMC3    C213389   0.773   2.783   8.362
  899TMC3    C313390   0.756   2.650   8.395
  899TMC3    C413391   0.983   2.778   8.488
  899TMC3    C513392   0.950   2.654   8.536
  899TMC3    C613393   0.840   2.586   8.481
  899TMC3     C13394   0.939   2.948   8.334
  899TMC3     O13395   0.899   3.054   8.381
  899TMC3     H13396   0.710   2.841   8.295
  899TMC3    H113397   1.064   2.841   8.523
  899TMC3    H213398   0.828   2.479   8.492
  899TMC3    C713399   0.962   2.631   8.682
  899TMC3    C813400   0.615   2.617   8.425
  899TMC3    O113401   1.025   2.719   8.744
  899TMC3    O213402   0.560   2.700   8.494
  900TMC3    C113403   3.492   1.349  12.042
  900TMC3    C213404   3.510   1.469  11.992
  900TMC3    C313405   3.495   1.484  11.856
  900TMC3    C413406   3.474   1.239  11.965
  900TMC3    C513407   3.486   1.254  11.830
  900TMC3    C613408   3.473   1.378  11.775
  900TMC3     C13409   3.461   1.338  12.181
  900TMC3     O13410   3.514   1.240  12.236
  900TMC3     H13411   3.529   1.563  12.042
  900TMC3    H113412   3.430   1.151  12.011
  900TMC3    H213413   3.472   1.389  11.667
  900TMC3    C713414   3.443   1.141  11.737
  900TMC3    C813415   3.485   1.609  11.791
  900TMC3    O113416   3.363   1.181  11.654
  900TMC3    O213417   3.417   1.614  11.690
  901TMC3    C113418   0.385   0.988  11.515
  901TMC3    C213419   0.245   0.991  11.491
  901TMC3    C313420   0.159   0.930  11.581
  901TMC3    C413421   0.434   0.897  11.611
  901TMC3    C513422   0.345   0.832  11.692
  901TMC3    C613423   0.209   0.854  11.678
  901TMC3     C13424   0.481   1.082  11.457
  901TMC3     O13425   0.588   1.031  11.438
  901TMC3     H13426   0.212   1.053  11.408
  901TMC3    H113427   0.540   0.877  11.622
  901TMC3    H213428   0.133   0.810  11.741
  901TMC3    C713429   0.378   0.831  11.832
  901TMC3    C813430   0.017   0.930  11.570
  901TMC3    O113431   0.288   0.872  11.903
  901TMC3    O213432   4.741   0.835  11.615
  902TMC3    C113433   3.803   0.101  13.949
  902TMC3    C213434   3.746   0.165  14.054
  902TMC3    C313435   3.624   0.221  14.037
  902TMC3    C413436   3.736   0.092  13.828
  902TMC3    C513437   3.612   0.144  13.810
  902TMC3    C613438   3.553   0.216  13.917
  902TMC3     C13439   3.932   0.039  13.978
  902TMC3     O13440   3.966   0.013  14.089
  902TMC3     H13441   3.796   0.173  14.150
  902TMC3    H113442   3.784   0.030  13.753
  902TMC3    H213443   3.455   0.258  13.898
  902TMC3    C713444   3.504   0.070  13.743
  902TMC3    C813445   3.555   0.268  14.161
  902TMC3    O113446   3.404   0.062  13.811
  902TMC3    O213447   3.607   0.245  14.270
  903TMC3    C113448   1.586   2.242  12.258
  903TMC3    C213449   1.513   2.214  12.147
  903TMC3    C313450   1.390   2.153  12.164
  903TMC3    C413451   1.547   2.222  12.390
  903TMC3    C513452   1.423   2.169  12.400
  903TMC3    C613453   1.342   2.151  12.292
  903TMC3     C13454   1.728   2.203  12.242
  903TMC3     O13455   1.800   2.228  12.340
  903TMC3     H13456   1.552   2.245  12.051
  903TMC3    H113457   1.609   2.235  12.478
  903TMC3    H213458   1.237   2.135  12.313
  903TMC3    C713459   1.400   2.089  12.523
  903TMC3    C813460   1.305   2.131  12.051
  903TMC3    O113461   1.426   2.133  12.634
  903TMC3    O213462   1.359   2.142  11.943
  904TMC3    C113463   2.906   3.202  12.120
  904TMC3    C213464   3.026   3.208  12.181
  904TMC3    C313465   3.085   3.091  12.216
  904TMC3    C413466   2.836   3.080  12.107
  904TMC3    C513467   2.908   2.968  12.139
  904TMC3    C613468   3.032   2.974  12.183
  904TMC3     C13469   2.811   3.314  12.151
  904TMC3     O13470   2.691   3.277  12.156
  904TMC3     H13471   3.072   3.304  12.204
  904TMC3    H113472   2.735   3.072  12.068
  904TMC3    H213473   3.086   2.885  12.215
  904TMC3    C713474   2.847   2.843  12.097
  904TMC3    C813475   3.217   3.084  12.280
  904TMC3    O113476   2.771   2.849  12.001
  904TMC3    O213477   3.287   2.988  12.246
  905TMC3    C113478   2.237   0.486   7.659
  905TMC3    C213479   2.118   0.477   7.724
  905TMC3    C313480   2.036   0.377   7.695
  905TMC3    C413481   2.270   0.398   7.565
  905TMC3    C513482   2.187   0.297   7.540
  905TMC3    C613483   2.061   0.281   7.599
  905TMC3     C13484   2.335   0.576   7.710
  905TMC3     O13485   2.443   0.558   7.658
  905TMC3     H13486   2.086   0.553   7.794
  905TMC3    H113487   2.364   0.413   7.513
  905TMC3    H213488   2.004   0.191   7.582
  905TMC3    C713489   2.247   0.203   7.445
  905TMC3    C813490   1.953   0.337   7.802
  905TMC3    O113491   2.367   0.183   7.453
  905TMC3    O213492   1.977   0.362   7.920
  906TMC3    C113493   2.858   3.034  10.577
  906TMC3    C213494   2.747   3.037  10.500
  906TMC3    C313495   2.656   3.137  10.525
  906TMC3    C413496   2.893   3.129  10.664
  906TMC3    C513497   2.805   3.229  10.684
  906TMC3    C613498   2.682   3.231  10.619
  906TMC3     C13499   2.930   2.910  10.578
  906TMC3     O13500   2.866   2.817  10.528
  906TMC3     H13501   2.718   2.962  10.428
  906TMC3    H113502   2.988   3.135  10.715
  906TMC3    H213503   2.609   3.305  10.649
  906TMC3    C713504   2.838   3.333  10.775
  906TMC3    C813505   2.629   3.202  10.401
  906TMC3    O113506   2.809   3.310  10.891
  906TMC3    O213507   2.703   3.165  10.309
  907TMC3    C113508   3.313   0.519  11.338
  907TMC3    C213509   3.369   0.602  11.242
  907TMC3    C313510   3.483   0.570  11.180
  907TMC3    C413511   3.379   0.400  11.367
  907TMC3    C513512   3.485   0.365  11.282
  907TMC3    C613513   3.546   0.448  11.201
  907TMC3     C13514   3.168   0.520  11.329
  907TMC3     O13515   3.118   0.574  11.233
  907TMC3     H13516   3.324   0.698  11.218
  907TMC3    H113517   3.329   0.321  11.422
  907TMC3    H213518   3.637   0.422  11.148
  907TMC3    C713519   3.500   0.218  11.274
  907TMC3    C813520   3.572   0.679  11.147
  907TMC3    O113521   3.542   0.165  11.373
  907TMC3    O213522   3.679   0.685  11.205
  908TMC3    C113523   3.127   3.351   9.837
  908TMC3    C213524   3.194   3.277   9.936
  908TMC3    C313525   3.116   3.230  10.036
  908TMC3    C413526   2.990   3.370   9.839
  908TMC3    C513527   2.918   3.318   9.948
  908TMC3    C613528   2.982   3.249  10.047
  908TMC3     C13529   3.198   3.428   9.737
  908TMC3     O13530   3.123   3.491   9.669
  908TMC3     H13531   3.302   3.270   9.932
  908TMC3    H113532   2.939   3.407   9.751
  908TMC3    H213533   2.921   3.195  10.118
  908TMC3    C713534   2.783   3.299   9.922
  908TMC3    C813535   3.173   3.134  10.132
  908TMC3    O113536   2.708   3.393   9.901
  908TMC3    O213537   3.109   3.123  10.239
  909TMC3    C113538   1.975   0.346  12.895
  909TMC3    C213539   2.088   0.277  12.852
  909TMC3    C313540   2.109   0.148  12.905
  909TMC3    C413541   1.882   0.292  12.976
  909TMC3    C513542   1.907   0.167  13.021
  909TMC3    C613543   2.013   0.088  12.987
  909TMC3     C13544   1.938   0.458  12.818
  909TMC3     O13545   1.820   0.470  12.797
  909TMC3     H13546   2.153   0.311  12.773
  909TMC3    H113547   1.800   0.350  13.018
  909TMC3    H213548   2.030   4.780  13.032
  909TMC3    C713549   1.809   0.111  13.115
  909TMC3    C813550   2.227   0.081  12.863
  909TMC3    O113551   1.771   4.787  13.099
  909TMC3    O213552   2.316   0.155  12.829
  910TMC3    C113553   2.352   4.543  11.475
  910TMC3    C213554   2.330   4.478  11.357
  910TMC3    C313555   2.260   4.542  11.261
  910TMC3    C413556   2.302   4.670  11.498
  910TMC3    C513557   2.223   4.728  11.407
  910TMC3    C613558   2.198   4.667  11.284
  910TMC3     C13559   2.445   4.479  11.575
  910TMC3     O13560   2.512   4.559  11.637
  910TMC3     H13561   2.383   4.386  11.335
  910TMC3    H113562   2.319   4.711  11.597
  910TMC3    H213563   2.154   4.726  11.204
  910TMC3    C713564   2.110   0.012  11.460
  910TMC3    C813565   2.208   4.454  11.157
  910TMC3    O113566   2.125   0.088  11.552
  910TMC3    O213567   2.191   4.499  11.042
  911TMC3    C113568   2.095   2.495   7.579
  911TMC3    C213569   2.105   2.469   7.711
  911TMC3    C313570   2.227   2.447   7.762
  911TMC3    C413571   2.197   2.463   7.499
  911TMC3    C513572   2.320   2.423   7.546
  911TMC3    C613573   2.337   2.417   7.683
  911TMC3     C13574   1.966   2.453   7.533
  911TMC3     O13575   1.868   2.497   7.588
  911TMC3     H13576   2.010   2.458   7.761
  911TMC3    H113577   2.185   2.481   7.393
  911TMC3    H213578   2.435   2.413   7.728
  911TMC3    C713579   2.425   2.437   7.450
  911TMC3    C813580   2.228   2.413   7.905
  911TMC3    O113581   2.411   2.526   7.366
  911TMC3    O213582   2.337   2.370   7.945
  912TMC3    C113583   4.712   4.187   9.389
  912TMC3    C213584   0.048   4.168   9.445
  912TMC3    C313585   0.066   4.182   9.584
  912TMC3    C413586   4.602   4.173   9.470
  912TMC3    C513587   4.622   4.163   9.608
  912TMC3    C613588   4.748   4.171   9.658
  912TMC3     C13589   4.703   4.294   9.292
  912TMC3     O13590   0.001   4.378   9.304
  912TMC3     H13591   0.134   4.141   9.385
  912TMC3    H113592   4.506   4.192   9.424
  912TMC3    H213593   4.762   4.165   9.765
  912TMC3    C713594   4.523   4.088   9.686
  912TMC3    C813595   0.191   4.171   9.657
  912TMC3    O113596   4.542   4.068   9.806
  912TMC3    O213597   0.182   4.137   9.775
  913TMC3    C113598   3.981   2.772  12.702
  913TMC3    C213599   4.088   2.691  12.685
  913TMC3    C313600   4.213   2.742  12.667
  913TMC3    C413601   3.999   2.908  12.690
  913TMC3    C513602   4.127   2.964  12.693
  913TMC3    C613603   4.230   2.881  12.666
  913TMC3     C13604   3.864   2.706  12.642
  913TMC3     O13605   3.886   2.609  12.572
  913TMC3     H13606   4.083   2.583  12.683
  913TMC3    H113607   3.921   2.980  12.668
  913TMC3    H213608   4.332   2.916  12.668
  913TMC3    C713609   4.113   3.102  12.672
  913TMC3    C813610   4.302   2.668  12.572
  913TMC3    O113611   4.040   3.170  12.741
  913TMC3    O213612   4.424   2.672  12.584
  914TMC3    C113613   0.440   1.574  13.927
  914TMC3    C213614   0.446   1.447  13.865
  914TMC3    C313615   0.332   1.377  13.858
  914TMC3    C413616   0.323   1.630  13.969
  914TMC3    C513617   0.212   1.547  13.965
  914TMC3    C613618   0.219   1.422  13.908
  914TMC3     C13619   0.565   1.634  13.966
  914TMC3     O13620   0.666   1.569  13.980
  914TMC3     H13621   0.536   1.408  13.819
  914TMC3    H113622   0.310   1.726  14.018
  914TMC3    H213623   0.132   1.358  13.899
  914TMC3    C713624   0.126   1.567  14.080
  914TMC3    C813625   0.313   1.289  13.740
  914TMC3    O113626   0.129   1.674  14.137
  914TMC3    O213627   0.244   1.191  13.749
  915TMC3    C113628   1.951   1.577  10.635
  915TMC3    C213629   1.949   1.588  10.495
  915TMC3    C313630   1.836   1.556  10.422
  915TMC3    C413631   1.842   1.528  10.696
  915TMC3    C513632   1.717   1.508  10.621
  915TMC3    C613633   1.722   1.515  10.484
  915TMC3     C13634   2.072   1.510  10.684
  915TMC3     O13635   2.186   1.537  10.636
  915TMC3     H13636   2.041   1.609  10.441
  915TMC3    H113637   1.841   1.521  10.804
  915TMC3    H213638   1.633   1.495  10.426
  915TMC3    C713639   1.642   1.390  10.667
  915TMC3    C813640   1.837   1.531  10.278
  915TMC3    O113641   1.713   1.310  10.730
  915TMC3    O213642   1.756   1.448  10.234
  916TMC3    C113643   2.442   2.782  13.938
  916TMC3    C213644   2.501   2.730  13.824
  916TMC3    C313645   2.635   2.685  13.822
  916TMC3    C413646   2.517   2.786  14.054
  916TMC3    C513647   2.648   2.735  14.049
  916TMC3    C613648   2.709   2.687  13.937
  916TMC3     C13649   2.314   2.841  13.915
  916TMC3     O13650   2.261   2.854  13.801
  916TMC3     H13651   2.449   2.732  13.729
  916TMC3    H113652   2.489   2.827  14.151
  916TMC3    H213653   2.813   2.656  13.931
  916TMC3    C713654   2.697   2.678  14.175
  916TMC3    C813655   2.706   2.649  13.702
  916TMC3    O113656   2.624   2.652  14.273
  916TMC3    O213657   2.830   2.678  13.705
  917TMC3    C113658   2.794   3.633  11.659
  917TMC3    C213659   2.875   3.603  11.763
  917TMC3    C313660   3.007   3.633  11.755
  917TMC3    C413661   2.850   3.695  11.546
  917TMC3    C513662   2.982   3.717  11.542
  917TMC3    C613663   3.066   3.704  11.654
  917TMC3     C13664   2.708   3.519  11.617
  917TMC3     O13665   2.645   3.540  11.514
  917TMC3     H13666   2.829   3.557  11.850
  917TMC3    H113667   2.794   3.704  11.453
  917TMC3    H213668   3.174   3.700  11.653
  917TMC3    C713669   3.051   3.717  11.414
  917TMC3    C813670   3.083   3.530  11.837
  917TMC3    O113671   3.124   3.815  11.390
  917TMC3    O213672   3.013   3.437  11.873
  918TMC3    C113673   4.211   0.297   9.999
  918TMC3    C213674   4.311   0.367  10.056
  918TMC3    C313675   4.351   0.484  10.002
  918TMC3    C413676   4.139   0.340   9.889
  918TMC3    C513677   4.180   0.460   9.841
  918TMC3    C613678   4.288   0.528   9.889
  918TMC3     C13679   4.168   0.177  10.072
  918TMC3     O13680   4.255   0.109  10.130
  918TMC3     H13681   4.361   0.329  10.145
  918TMC3    H113682   4.080   0.279   9.822
  918TMC3    H213683   4.321   0.617   9.836
  918TMC3    C713684   4.131   0.502   9.716
  918TMC3    C813685   4.481   0.548  10.033
  918TMC3    O113686   4.213   0.540   9.633
  918TMC3    O213687   4.527   0.620   9.946
  919TMC3    C113688   1.208   2.826  15.109
  919TMC3    C213689   1.271   2.838  14.987
  919TMC3    C313690   1.395   2.775  14.978
  919TMC3    C413691   1.260   2.754  15.212
  919TMC3    C513692   1.382   2.700  15.201
  919TMC3    C613693   1.449   2.711  15.084
  919TMC3     C13694   1.094   2.910  15.142
  919TMC3     O13695   1.092   2.936  15.262
  919TMC3     H13696   1.237   2.892  14.899
  919TMC3    H113697   1.204   2.747  15.305
  919TMC3    H213698   1.545   2.661  15.078
  919TMC3    C713699   1.413   2.558  15.243
  919TMC3    C813700   1.425   2.722  14.847
  919TMC3    O113701   1.531   2.531  15.255
  919TMC3    O213702   1.335   2.716  14.768
  920TMC3    C113703   1.181   1.776   6.456
  920TMC3    C213704   1.114   1.666   6.407
  920TMC3    C313705   1.035   1.588   6.492
  920TMC3    C413706   1.179   1.810   6.587
  920TMC3    C513707   1.098   1.739   6.663
  920TMC3    C613708   1.038   1.619   6.625
  920TMC3     C13709   1.269   1.843   6.369
  920TMC3     O13710   1.238   1.849   6.251
  920TMC3     H13711   1.123   1.630   6.305
  920TMC3    H113712   1.231   1.888   6.641
  920TMC3    H213713   1.007   1.545   6.698
  920TMC3    C713714   1.118   1.767   6.804
  920TMC3    C813715   1.000   1.455   6.460
  920TMC3    O113716   1.170   1.872   6.840
  920TMC3    O213717   1.007   1.380   6.555
  921TMC3    C113718   1.276   1.118   9.102
  921TMC3    C213719   1.224   1.233   9.077
  921TMC3    C313720   1.147   1.250   8.967
  921TMC3    C413721   1.279   1.018   9.009
  921TMC3    C513722   1.191   1.019   8.904
  921TMC3    C613723   1.121   1.140   8.887
  921TMC3     C13724   1.232   1.075   9.227
  921TMC3     O13725   1.114   1.092   9.259
  921TMC3     H13726   1.228   1.312   9.152
  921TMC3    H113727   1.332   0.928   9.038
  921TMC3    H213728   1.052   1.145   8.803
  921TMC3    C713729   1.121   0.894   8.884
  921TMC3    C813730   1.088   1.373   8.926
  921TMC3    O113731   0.997   0.894   8.880
  921TMC3    O213732   0.984   1.355   8.866
  922TMC3    C113733   4.450   1.746  10.936
  922TMC3    C213734   4.530   1.750  10.828
  922TMC3    C313735   4.666   1.724  10.841
  922TMC3    C413736   4.510   1.729  11.066
  922TMC3    C513737   4.648   1.705  11.071
  922TMC3    C613738   4.727   1.704  10.960
  922TMC3     C13739   4.316   1.800  10.941
  922TMC3     O13740   4.274   1.845  11.044
  922TMC3     H13741   4.494   1.757  10.726
  922TMC3    H113742   4.441   1.739  11.149
  922TMC3    H213743   0.045   1.709  10.975
  922TMC3    C713744   4.724   1.712  11.195
  922TMC3    C813745   4.753   1.735  10.720
  922TMC3    O113746   0.046   1.668  11.179
  922TMC3    O213747   4.713   1.805  10.628
  923TMC3    C113748   2.328   0.806   9.075
  923TMC3    C213749   2.207   0.839   9.134
  923TMC3    C313750   2.201   0.958   9.201
  923TMC3    C413751   2.432   0.887   9.070
  923TMC3    C513752   2.423   1.010   9.126
  923TMC3    C613753   2.310   1.037   9.198
  923TMC3     C13754   2.368   0.675   9.129
  923TMC3     O13755   2.273   0.600   9.140
  923TMC3     H13756   2.122   0.771   9.135
  923TMC3    H113757   2.511   0.865   8.999
  923TMC3    H213758   2.304   1.138   9.236
  923TMC3    C713759   2.547   1.062   9.174
  923TMC3    C813760   2.133   0.964   9.332
  923TMC3    O113761   2.653   1.029   9.126
  923TMC3    O213762   2.203   1.023   9.413
  924TMC3    C113763   3.074   4.208   6.452
  924TMC3    C213764   3.064   4.344   6.452
  924TMC3    C313765   3.082   4.410   6.570
  924TMC3    C413766   3.086   4.137   6.570
  924TMC3    C513767   3.095   4.206   6.682
  924TMC3    C613768   3.093   4.340   6.686
  924TMC3     C13769   3.079   4.145   6.318
  924TMC3     O13770   3.073   4.224   6.222
  924TMC3     H13771   3.086   4.400   6.362
  924TMC3    H113772   3.091   4.029   6.573
  924TMC3    H213773   3.097   4.387   6.784
  924TMC3    C713774   3.213   4.165   6.750
  924TMC3    C813775   3.170   4.525   6.556
  924TMC3    O113776   3.303   4.247   6.761
  924TMC3    O213777   3.186   4.576   6.445
  925TMC3    C113778   0.184   2.323   9.537
  925TMC3    C213779   0.202   2.365   9.407
  925TMC3    C313780   0.145   2.282   9.314
  925TMC3    C413781   0.126   2.200   9.572
  925TMC3    C513782   0.074   2.123   9.471
  925TMC3    C613783   0.089   2.163   9.343
  925TMC3     C13784   0.222   2.416   9.643
  925TMC3     O13785   0.250   2.530   9.610
  925TMC3     H13786   0.252   2.458   9.380
  925TMC3    H113787   0.103   2.183   9.676
  925TMC3    H213788   0.061   2.095   9.263
  925TMC3    C713789   0.019   1.993   9.502
  925TMC3    C813790   0.175   2.296   9.168
  925TMC3    O113791   4.760   1.924   9.413
  925TMC3    O213792   0.235   2.200   9.117
  926TMC3    C113793   2.952   3.677   7.168
  926TMC3    C213794   2.966   3.780   7.255
  926TMC3    C313795   2.950   3.909   7.203
  926TMC3    C413796   2.926   3.709   7.035
  926TMC3    C513797   2.929   3.832   6.988
  926TMC3    C613798   2.949   3.936   7.073
  926TMC3     C13799   2.889   3.558   7.226
  926TMC3     O13800   2.952   3.475   7.294
  926TMC3     H13801   2.964   3.768   7.363
  926TMC3    H113802   2.898   3.626   6.971
  926TMC3    H213803   2.938   4.040   7.043
  926TMC3    C713804   2.929   3.863   6.848
  926TMC3    C813805   2.952   4.024   7.299
  926TMC3    O113806   2.918   3.980   6.817
  926TMC3    O213807   2.991   4.134   7.260
  927TMC3    C113808   2.216   1.805  11.672
  927TMC3    C213809   2.340   1.846  11.627
  927TMC3    C313810   2.347   1.890  11.495
  927TMC3    C413811   2.107   1.813  11.591
  927TMC3    C513812   2.123   1.872  11.469
  927TMC3    C613813   2.236   1.916  11.419
  927TMC3     C13814   2.195   1.825  11.815
  927TMC3     O13815   2.290   1.807  11.884
  927TMC3     H13816   2.432   1.837  11.683
  927TMC3    H113817   2.016   1.764  11.623
  927TMC3    H213818   2.233   1.963  11.322
  927TMC3    C713819   2.002   1.950  11.426
  927TMC3    C813820   2.472   1.933  11.433
  927TMC3    O113821   1.888   1.904  11.435
  927TMC3    O213822   2.567   1.950  11.511
  928TMC3    C113823   4.483   3.300  12.813
  928TMC3    C213824   4.522   3.264  12.942
  928TMC3    C313825   4.441   3.292  13.052
  928TMC3    C413826   4.364   3.367  12.795
  928TMC3    C513827   4.281   3.382  12.898
  928TMC3    C613828   4.317   3.348  13.026
  928TMC3     C13829   4.595   3.350  12.735
  928TMC3     O13830   4.694   3.398  12.795
  928TMC3     H13831   4.627   3.236  12.945
  928TMC3    H113832   4.356   3.433  12.709
  928TMC3    H213833   4.246   3.368  13.105
  928TMC3    C713834   4.216   3.505  12.890
  928TMC3    C813835   4.521   3.357  13.155
  928TMC3    O113836   4.263   3.601  12.827
  928TMC3    O213837   4.635   3.313  13.171
  929TMC3    C113838   4.683   1.660   8.825
  929TMC3    C213839   0.003   1.729   8.878
  929TMC3    C313840   0.044   1.835   8.802
  929TMC3    C413841   4.635   1.682   8.701
  929TMC3    C513842   4.669   1.798   8.641
  929TMC3    C613843   4.779   1.868   8.678
  929TMC3     C13844   4.584   1.610   8.910
  929TMC3     O13845   4.516   1.520   8.864
  929TMC3     H13846   0.036   1.716   8.981
  929TMC3    H113847   4.541   1.632   8.681
  929TMC3    H213848   0.011   1.968   8.643
  929TMC3    C713849   4.579   1.866   8.548
  929TMC3    C813850   0.174   1.887   8.833
  929TMC3    O113851   4.626   1.892   8.440
  929TMC3    O213852   0.227   1.972   8.762
  930TMC3    C113853   0.745   0.290   9.412
  930TMC3    C213854   0.775   0.266   9.282
  930TMC3    C313855   0.871   0.352   9.237
  930TMC3    C413856   0.804   0.377   9.499
  930TMC3    C513857   0.905   0.446   9.446
  930TMC3    C613858   0.941   0.438   9.314
  930TMC3     C13859   0.645   0.206   9.482
  930TMC3     O13860   0.610   0.237   9.596
  930TMC3     H13861   0.731   0.193   9.215
  930TMC3    H113862   0.778   0.387   9.604
  930TMC3    H213863   1.038   0.478   9.287
  930TMC3    C713864   0.974   0.543   9.530
  930TMC3    C813865   0.935   0.314   9.109
  930TMC3    O113866   0.993   0.519   9.647
  930TMC3    O213867   0.969   0.200   9.089
  931TMC3    C113868   2.628   2.475   9.277
  931TMC3    C213869   2.602   2.366   9.196
  931TMC3    C313870   2.641   2.242   9.238
  931TMC3    C413871   2.639   2.457   9.414
  931TMC3    C513872   2.635   2.327   9.458
  931TMC3    C613873   2.658   2.219   9.373
  931TMC3     C13874   2.710   2.564   9.206
  931TMC3     O13875   2.714   2.542   9.087
  931TMC3     H13876   2.565   2.382   9.095
  931TMC3    H113877   2.641   2.545   9.477
  931TMC3    H213878   2.667   2.120   9.417
  931TMC3    C713879   2.620   2.305   9.603
  931TMC3    C813880   2.732   2.172   9.150
  931TMC3    O113881   2.527   2.373   9.644
  931TMC3    O213882   2.709   2.053   9.133
  932TMC3    C113883   3.192   2.271   9.234
  932TMC3    C213884   3.207   2.378   9.153
  932TMC3    C313885   3.232   2.364   9.020
  932TMC3    C413886   3.186   2.150   9.176
  932TMC3    C513887   3.199   2.132   9.037
  932TMC3    C613888   3.229   2.245   8.959
  932TMC3     C13889   3.092   2.288   9.336
  932TMC3     O13890   3.001   2.368   9.319
  932TMC3     H13891   3.214   2.474   9.203
  932TMC3    H113892   3.151   2.060   9.225
  932TMC3    H213893   3.233   2.219   8.854
  932TMC3    C713894   3.198   2.002   8.973
  932TMC3    C813895   3.254   2.482   8.947
  932TMC3    O113896   3.133   1.923   9.032
  932TMC3    O213897   3.225   2.591   8.991
  933TMC3    C113898   3.519   1.086  10.477
  933TMC3    C213899   3.523   1.031  10.351
  933TMC3    C313900   3.503   1.118  10.247
  933TMC3    C413901   3.535   1.217  10.495
  933TMC3    C513902   3.521   1.299  10.390
  933TMC3    C613903   3.493   1.248  10.268
  933TMC3     C13904   3.536   1.001  10.591
  933TMC3     O13905   3.503   0.884  10.587
  933TMC3     H13906   3.529   0.924  10.333
  933TMC3    H113907   3.527   1.264  10.592
  933TMC3    H213908   3.472   1.308  10.180
  933TMC3    C713909   3.533   1.446  10.402
  933TMC3    C813910   3.483   1.061  10.116
  933TMC3    O113911   3.528   1.518  10.301
  933TMC3    O213912   3.377   1.079  10.059
  934TMC3    C113913   3.874   2.477  10.971
  934TMC3    C213914   3.904   2.512  11.103
  934TMC3    C313915   4.031   2.515  11.139
  934TMC3    C413916   3.981   2.451  10.877
  934TMC3    C513917   4.109   2.459  10.925
  934TMC3    C613918   4.133   2.494  11.054
  934TMC3     C13919   3.740   2.463  10.924
  934TMC3     O13920   3.718   2.454  10.801
  934TMC3     H13921   3.831   2.527  11.181
  934TMC3    H113922   3.952   2.405  10.783
  934TMC3    H213923   4.232   2.522  11.087
  934TMC3    C713924   4.214   2.378  10.871
  934TMC3    C813925   4.056   2.486  11.283
  934TMC3    O113926   4.294   2.344  10.952
  934TMC3    O213927   4.016   2.561  11.374
  935TMC3    C113928   3.311   1.808  10.784
  935TMC3    C213929   3.241   1.708  10.714
  935TMC3    C313930   3.268   1.578  10.741
  935TMC3    C413931   3.424   1.778  10.863
  935TMC3    C513932   3.452   1.643  10.885
  935TMC3    C613933   3.375   1.548  10.822
  935TMC3     C13934   3.301   1.946  10.735
  935TMC3     O13935   3.357   2.030  10.807
  935TMC3     H13936   3.155   1.736  10.655
  935TMC3    H113937   3.483   1.856  10.909
  935TMC3    H213938   3.388   1.445  10.855
  935TMC3    C713939   3.596   1.600  10.900
  935TMC3    C813940   3.163   1.486  10.721
  935TMC3    O113941   3.631   1.498  10.841
  935TMC3    O213942   3.051   1.533  10.717
  936TMC3    C113943   3.436   4.630  11.762
  936TMC3    C213944   3.342   4.705  11.696
  936TMC3    C313945   3.363   4.732  11.566
  936TMC3    C413946   3.550   4.583  11.695
  936TMC3    C513947   3.564   4.607  11.558
  936TMC3    C613948   3.477   4.691  11.490
  936TMC3     C13949   3.383   4.545  11.857
  936TMC3     O13950   3.261   4.543  11.869
  936TMC3     H13951   3.252   4.742  11.744
  936TMC3    H113952   3.633   4.529  11.739
  936TMC3    H213953   3.474   4.695  11.382
  936TMC3    C713954   3.699   4.596  11.500
  936TMC3    C813955   3.285   0.048  11.512
  936TMC3    O113956   3.772   4.514  11.554
  936TMC3    O213957   3.272   0.149  11.581
  937TMC3    C113958   4.645   0.878  14.719
  937TMC3    C213959   4.672   0.756  14.665
  937TMC3    C313960   4.660   0.742  14.523
  937TMC3    C413961   4.618   0.988  14.640
  937TMC3    C513962   4.597   0.966  14.508
  937TMC3    C613963   4.609   0.845  14.454
  937TMC3     C13964   4.722   0.908  14.845
  937TMC3     O13965   0.002   0.818  14.880
  937TMC3     H13966   4.722   0.677  14.721
  937TMC3    H113967   4.606   1.084  14.689
  937TMC3    H213968   4.590   0.831  14.348
  937TMC3    C713969   4.621   1.084  14.421
  937TMC3    C813970   4.775   0.690  14.452
  937TMC3    O113971   4.622   1.060  14.303
  937TMC3    O213972   0.020   0.749  14.353
  938TMC3    C113973   3.924   4.299  10.088
  938TMC3    C213974   4.028   4.276  10.006
  938TMC3    C313975   4.015   4.182   9.904
  938TMC3    C413976   3.800   4.243  10.071
  938TMC3    C513977   3.781   4.171   9.953
  938TMC3    C613978   3.885   4.137   9.872
  938TMC3     C13979   3.948   4.356  10.219
  938TMC3     O13980   3.943   4.270  10.304
  938TMC3     H13981   4.124   4.320  10.030
  938TMC3    H113982   3.721   4.260  10.144
  938TMC3    H213983   3.862   4.062   9.797
  938TMC3    C713984   3.662   4.084   9.955
  938TMC3    C813985   4.094   4.201   9.785
  938TMC3    O113986   3.694   3.969   9.971
  938TMC3    O213987   4.043   4.176   9.673
  939TMC3    C113988   1.610   1.983   8.136
  939TMC3    C213989   1.644   2.007   8.007
  939TMC3    C313990   1.543   1.994   7.916
  939TMC3    C413991   1.480   1.955   8.176
  939TMC3    C513992   1.387   1.939   8.074
  939TMC3    C613993   1.417   1.948   7.939
  939TMC3     C13994   1.707   1.979   8.241
  939TMC3     O13995   1.663   2.007   8.346
  939TMC3     H13996   1.739   2.050   7.976
  939TMC3    H113997   1.444   1.941   8.277
  939TMC3    H213998   1.345   1.936   7.859
  939TMC3    C713999   1.254   1.909   8.105
  939TMC3    C814000   1.588   1.969   7.781
  939TMC3    O114001   1.231   1.866   8.218
  939TMC3    O214002   1.566   1.859   7.725
  940TMC3    C114003   3.892   1.701   8.266
  940TMC3    C214004   3.774   1.646   8.311
  940TMC3    C314005   3.716   1.703   8.427
  940TMC3    C414006   3.954   1.796   8.340
  940TMC3    C514007   3.899   1.840   8.456
  940TMC3    C614008   3.776   1.801   8.498
  940TMC3     C14009   3.923   1.704   8.127
  940TMC3     O14010   3.960   1.818   8.091
  940TMC3     H14011   3.706   1.589   8.249
  940TMC3    H114012   4.050   1.826   8.300
  940TMC3    H214013   3.734   1.863   8.577
  940TMC3    C714014   3.957   1.958   8.527
  940TMC3    C814015   3.578   1.680   8.458
  940TMC3    O114016   3.921   1.997   8.636
  940TMC3    O214017   3.544   1.566   8.432
  941TMC3    C114018   0.368   2.550  14.873
  941TMC3    C214019   0.381   2.429  14.928
  941TMC3    C314020   0.465   2.338  14.876
  941TMC3    C414021   0.441   2.578  14.763
  941TMC3    C514022   0.527   2.485  14.712
  941TMC3    C614023   0.534   2.359  14.763
  941TMC3     C14024   0.235   2.594  14.861
  941TMC3     O14025   0.206   2.711  14.850
  941TMC3     H14026   0.327   2.403  15.019
  941TMC3    H114027   0.444   2.677  14.719
  941TMC3    H214028   0.599   2.287  14.715
  941TMC3    C714029   0.649   2.546  14.662
  941TMC3    C814030   0.396   2.206  14.885
  941TMC3    O114031   0.674   2.666  14.673
  941TMC3    O214032   0.269   2.204  14.880
  942TMC3    C114033   1.486   3.524   8.178
  942TMC3    C214034   1.403   3.465   8.273
  942TMC3    C314035   1.350   3.338   8.247
  942TMC3    C414036   1.516   3.463   8.059
  942TMC3    C514037   1.467   3.337   8.040
  942TMC3    C614038   1.384   3.276   8.131
  942TMC3     C14039   1.580   3.620   8.232
  942TMC3     O14040   1.563   3.654   8.346
  942TMC3     H14041   1.367   3.523   8.358
  942TMC3    H114042   1.591   3.508   7.994
  942TMC3    H214043   1.350   3.176   8.106
  942TMC3    C714044   1.549   3.249   7.953
  942TMC3    C814045   1.278   3.252   8.345
  942TMC3    O114046   1.597   3.281   7.844
  942TMC3    O214047   1.200   3.168   8.298
  943TMC3    C114048   4.771   3.106  13.513
  943TMC3    C214049   0.016   2.975  13.543
  943TMC3    C314050   4.707   2.879  13.509
  943TMC3    C414051   4.656   3.143  13.460
  943TMC3    C514052   4.563   3.044  13.436
  943TMC3    C614053   4.589   2.913  13.452
  943TMC3     C14054   0.080   3.213  13.504
  943TMC3     O14055   0.144   3.235  13.609
  943TMC3     H14056   0.109   2.950  13.593
  943TMC3    H114057   4.634   3.247  13.440
  943TMC3    H214058   4.507   2.843  13.444
  943TMC3    C714059   4.427   3.079  13.395
  943TMC3    C814060   4.730   2.739  13.556
  943TMC3    O114061   4.378   3.028  13.296
  943TMC3    O214062   0.052   2.711  13.595
  944TMC3    C114063   2.353   4.448  10.327
  944TMC3    C214064   2.469   4.462  10.389
  944TMC3    C314065   2.546   4.346  10.385
  944TMC3    C414066   2.315   4.336  10.257
  944TMC3    C514067   2.398   4.226  10.253
  944TMC3    C614068   2.514   4.231  10.320
  944TMC3     C14069   2.272   4.560  10.334
  944TMC3     O14070   2.191   4.574  10.241
  944TMC3     H14071   2.509   4.555  10.428
  944TMC3    H114072   2.220   4.325  10.205
  944TMC3    H214073   2.576   4.142  10.324
  944TMC3    C714074   2.354   4.110  10.171
  944TMC3    C814075   2.687   4.354  10.436
  944TMC3    O114076   2.234   4.080  10.173
  944TMC3    O214077   2.774   4.295  10.369
    1TMC1    C114078   1.595   4.138  10.840
    1TMC1    C214079   1.693   4.135  10.738
    1TMC1    C314080   1.735   4.014  10.697
    1TMC1    C414081   1.551   4.020  10.900
    1TMC1    C514082   1.593   3.903  10.844
    1TMC1    C614083   1.683   3.900  10.745
    1TMC1     C14084   1.499   4.241  10.828
    1TMC1     O14085   1.381   4.203  10.833
    1TMC1     H14086   1.725   4.222  10.683
    1TMC1    H114087   1.476   4.016  10.978
    1TMC1    H214088   1.717   3.803  10.710
    1TMC1    C714089   1.611   3.804  10.945
    1TMC1    C814090   1.820   3.994  10.586
    1TMC1    O114091   1.540   3.813  11.044
    1TMC1    O214092   1.827   3.891  10.524
    1TMC1    O314093   1.745   3.793  10.956
    1TMC1    H314094   1.797   3.802  10.874
    1TMC1    O514095   1.899   4.108  10.577
    1TMC1    H514096   1.956   4.102  10.498
    2TMC2    C114097   1.720   0.191  10.688
    2TMC2    C214098   1.821   0.250  10.757
    2TMC2    C314099   1.875   0.358  10.695
    2TMC2    C414100   1.693   0.220  10.555
    2TMC2    C514101   1.767   0.321  10.495
    2TMC2    C614102   1.856   0.395  10.565
    2TMC2     C14103   1.671   0.064  10.742
    2TMC2     O14104   1.744   4.783  10.811
    2TMC2     H14105   1.834   0.233  10.863
    2TMC2    H114106   1.625   0.165  10.491
    2TMC2    H214107   1.914   0.476  10.521
    2TMC2    C714108   1.764   0.312  10.350
    2TMC2    C814109   1.932   0.452  10.789
    2TMC2    O114110   1.737   0.202  10.299
    2TMC2    O214111   1.994   0.418  10.890
    2TMC2    O514112   1.865   0.563  10.765
    2TMC2    H514113   1.788   0.565  10.704
    3TMC2    C114114   2.036   0.942  10.178
    3TMC2    C214115   2.151   0.991  10.231
    3TMC2    C314116   2.257   0.907  10.223
    3TMC2    C414117   2.021   0.820  10.120
    3TMC2    C514118   2.133   0.735  10.107
    3TMC2    C614119   2.250   0.787  10.160
    3TMC2     C14120   1.934   1.042  10.162
    3TMC2     O14121   1.977   1.157  10.141
    3TMC2     H14122   2.169   1.088  10.277
    3TMC2    H114123   1.930   0.794  10.066
    3TMC2    H214124   2.347   0.738  10.153
    3TMC2    C714125   2.152   0.680   9.978
    3TMC2    C814126   2.393   0.955  10.249
    3TMC2    O114127   2.268   0.682   9.930
    3TMC2    O214128   2.480   0.873  10.274
    3TMC2    O514129   2.398   1.076  10.195
    3TMC2    H514130   2.310   1.112  10.170
    4MPD1     C14131   0.880   1.634  10.244
    4MPD1    C114132   0.902   1.688  10.122
    4MPD1    C214133   0.792   1.717  10.048
    4MPD1    C314134   0.663   1.695  10.085
    4MPD1    C414135   0.636   1.638  10.205
    4MPD1    C514136   0.752   1.611  10.285
    4MPD1     H14137   0.805   1.759   9.949
    4MPD1    H114138   0.537   1.616  10.242
    4MPD1    H214139   0.961   1.611  10.312
    4MPD1    H314140   0.735   1.584  10.389
    4MPD1     N14141   0.560   1.731   9.989
    4MPD1    H514142   0.469   1.687   9.998
    4MPD1    N114143   1.031   1.670  10.068
    4MPD1    H614144   1.057   1.727   9.988
    4MPD1    H714145   1.096   1.690  10.143
    5MPD2     C14146   0.827   1.097   9.512
    5MPD2    C114147   0.928   1.104   9.603
    5MPD2    C214148   0.966   1.232   9.641
    5MPD2    C314149   0.896   1.342   9.601
    5MPD2    C414150   0.788   1.335   9.515
    5MPD2    C514151   0.761   1.209   9.465
    5MPD2     H14152   1.035   1.240   9.724
    5MPD2    H114153   0.739   1.418   9.465
    5MPD2    H214154   0.797   0.998   9.479
    5MPD2    H314155   0.682   1.182   9.396
    5MPD2     N14156   0.939   1.471   9.641
    5MPD2    H514157   1.033   1.478   9.679
    5MPD2    N114158   0.974   0.984   9.660
    5MPD2    H714159   0.926   0.899   9.634
    6MPD2     C14160   0.426   1.067   9.887
    6MPD2    C114161   0.545   1.126   9.929
    6MPD2    C214162   0.652   1.049   9.976
    6MPD2    C314163   0.630   0.913   9.963
    6MPD2    C414164   0.515   0.857   9.918
    6MPD2    C514165   0.410   0.933   9.881
    6MPD2     H14166   0.735   1.106  10.017
    6MPD2    H114167   0.497   0.751   9.933
    6MPD2    H214168   0.334   1.117   9.859
    6MPD2    H314169   0.311   0.892   9.865
    6MPD2     N14170   0.724   0.815   9.996
    6MPD2    H514171   0.726   0.723   9.953
    6MPD2    N114172   0.570   1.262   9.909
    6MPD2    H714173   0.669   1.282   9.918
    7MPD2     C14174   1.496   1.181   9.946
    7MPD2    C114175   1.467   1.068  10.023
    7MPD2    C214176   1.577   1.007  10.086
    7MPD2    C314177   1.702   1.059  10.076
    7MPD2    C414178   1.728   1.164   9.989
    7MPD2    C514179   1.622   1.226   9.928
    7MPD2     H14180   1.561   0.922  10.151
    7MPD2    H114181   1.830   1.199   9.976
    7MPD2    H214182   1.419   1.231   9.889
    7MPD2    H314183   1.645   1.292   9.845
    7MPD2     N14184   1.801   0.998  10.148
    7MPD2    H514185   1.788   0.902  10.177
    7MPD2    N114186   1.340   1.013  10.011
    7MPD2    H714187   1.278   1.045   9.938
    8MPD2     C14188   1.745   0.372  10.055
    8MPD2    C114189   1.843   0.418  10.144
    8MPD2    C214190   1.933   0.505  10.097
    8MPD2    C314191   1.945   0.536   9.958
    8MPD2    C414192   1.849   0.480   9.871
    8MPD2    C514193   1.748   0.404   9.924
    8MPD2     H14194   2.000   0.543  10.174
    8MPD2    H114195   1.849   0.498   9.764
    8MPD2    H214196   1.669   0.302  10.088
    8MPD2    H314197   1.670   0.365   9.859
    8MPD2     N14198   2.046   0.624   9.908
    8MPD2    H514199   2.065   0.616   9.809
    8MPD2    N114200   1.826   0.414  10.282
    8MPD2    H714201   1.868   0.491  10.333
    9MPD2     C14202   1.370   4.676  10.630
    9MPD2    C114203   1.496   4.697  10.678
    9MPD2    C214204   1.556   4.582  10.724
    9MPD2    C314205   1.486   4.462  10.734
    9MPD2    C414206   1.358   4.447  10.681
    9MPD2    C514207   1.310   4.556  10.626
    9MPD2     H14208   1.659   4.586  10.759
    9MPD2    H114209   1.315   4.348  10.676
    9MPD2    H214210   1.314   4.758  10.588
    9MPD2    H314211   1.210   4.546  10.586
    9MPD2     N14212   1.555   4.359  10.793
    9MPD2    H514213   1.650   4.375  10.825
    9MPD2    N114214   1.553   0.032  10.683
    9MPD2    H714215   1.503   0.111  10.643
   10TMC3    C114216   0.966   0.797  10.006
   10TMC3    C214217   1.077   0.828  10.079
   10TMC3    C314218   1.194   0.846  10.013
   10TMC3    C414219   0.975   0.811   9.873
   10TMC3    C514220   1.089   0.847   9.810
   10TMC3    C614221   1.203   0.850   9.877
   10TMC3     C14222   0.841   0.846  10.059
   10TMC3     O14223   0.851   0.929  10.153
   10TMC3     H14224   1.068   0.821  10.187
   10TMC3    H114225   0.885   0.799   9.814
   10TMC3    H214226   1.299   0.856   9.826
   10TMC3    C714227   1.078   0.972   9.741
   10TMC3    C814228   1.297   0.908  10.089
   10TMC3    O114229   1.164   1.055   9.766
   10TMC3    O214230   1.358   0.846  10.177
   11TMC3    C114231   0.539   1.704   9.767
   11TMC3    C214232   0.647   1.689   9.680
   11TMC3    C314233   0.717   1.568   9.687
   11TMC3    C414234   0.482   1.596   9.826
   11TMC3    C514235   0.555   1.480   9.834
   11TMC3    C614236   0.680   1.472   9.775
   11TMC3     C14237   0.572   1.798   9.870
   11TMC3     O14238   0.643   1.895   9.845
   11TMC3     H14239   0.685   1.778   9.631
   11TMC3    H114240   0.381   1.604   9.865
   11TMC3    H214241   0.722   1.372   9.776
   11TMC3    C714242   0.484   1.358   9.873
   11TMC3    C814243   0.863   1.588   9.646
   11TMC3    O114244   0.362   1.361   9.871
   11TMC3    O214245   0.907   1.704   9.653
    1MPD1     C14246   3.648   1.687  13.109
    1MPD1    C114247   3.686   1.711  13.239
    1MPD1    C214248   3.762   1.603  13.300
    1MPD1    C314249   3.781   1.486  13.232
    1MPD1    C414250   3.740   1.475  13.105
    1MPD1    C514251   3.674   1.573  13.047
    1MPD1     H14252   3.804   1.617  13.399
    1MPD1    H114253   3.759   1.387  13.045
    1MPD1    H214254   3.610   1.761  13.039
    1MPD1    H314255   3.635   1.561  12.947
    1MPD1     N14256   3.831   1.383  13.305
    1MPD1    H514257   3.867   1.409  13.396
    1MPD1    N114258   3.677   1.840  13.302
    1MPD1    H614259   3.587   1.887  13.291
    1MPD1    H714260   3.687   1.829  13.403
    2MPD1     C14261   4.775   1.221  13.429
    2MPD1    C114262   4.740   1.121  13.519
    2MPD1    C214263   4.610   1.085  13.516
    2MPD1    C314264   4.510   1.153  13.447
    2MPD1    C414265   4.552   1.249  13.355
    2MPD1    C514266   4.686   1.273  13.352
    2MPD1     H14267   4.575   1.009  13.585
    2MPD1    H114268   4.484   1.278  13.276
    2MPD1    H214269   0.091   1.242  13.414
    2MPD1    H314270   4.712   1.356  13.287
    2MPD1     N14271   4.376   1.118  13.459
    2MPD1    H514272   4.351   1.043  13.523
    2MPD1    N114273   0.045   1.052  13.597
    2MPD1    H614274   4.781   1.013  13.674
    2MPD1    H714275   0.127   1.103  13.630
    3MPD1     C14276   4.014   0.326  13.588
    3MPD1    C114277   3.897   0.393  13.543
    3MPD1    C214278   3.910   0.528  13.522
    3MPD1    C314279   4.035   0.589  13.517
    3MPD1    C414280   4.145   0.518  13.544
    3MPD1    C514281   4.134   0.387  13.583
    3MPD1     H14282   3.825   0.589  13.496
    3MPD1    H114283   4.246   0.553  13.525
    3MPD1    H214284   4.015   0.221  13.614
    3MPD1    H314285   4.228   0.339  13.608
    3MPD1     N14286   4.052   0.727  13.484
    3MPD1    H514287   4.147   0.756  13.466
    3MPD1    N114288   3.773   0.335  13.566
    3MPD1    H614289   3.695   0.393  13.534
    3MPD1    H714290   3.759   0.239  13.537
    4TMC3    C114291   4.132   1.141  13.449
    4TMC3    C214292   4.023   1.220  13.403
    4TMC3    C314293   3.901   1.169  13.380
    4TMC3    C414294   4.106   1.006  13.472
    4TMC3    C514295   3.984   0.957  13.437
    4TMC3    C614296   3.891   1.036  13.387
    4TMC3     C14297   4.270   1.187  13.405
    4TMC3     O14298   4.274   1.295  13.342
    4TMC3     H14299   4.040   1.326  13.388
    4TMC3    H114300   4.192   0.943  13.492
    4TMC3    H214301   3.800   0.986  13.356
    4TMC3    C714302   3.950   0.816  13.450
    4TMC3    C814303   3.832   1.247  13.273
    4TMC3    O114304   3.837   0.791  13.420
    4TMC3    O214305   3.780   1.187  13.180
    1TMC1    C114306   0.517   1.117   8.585
    1TMC1    C214307   0.465   1.172   8.471
    1TMC1    C314308   0.331   1.165   8.456
    1TMC1    C414309   0.446   1.048   8.679
    1TMC1    C514310   0.310   1.042   8.662
    1TMC1    C614311   0.248   1.099   8.549
    1TMC1     C14312   0.661   1.082   8.590
    1TMC1     O14313   0.698   1.020   8.691
    1TMC1     H14314   0.522   1.196   8.382
    1TMC1    H114315   0.483   1.001   8.770
    1TMC1    H214316   0.149   1.062   8.524
    1TMC1    C714317   0.249   0.925   8.716
    1TMC1    C814318   0.271   1.253   8.354
    1TMC1    O114319   0.126   0.921   8.713
    1TMC1    O214320   0.325   1.352   8.312
    1TMC1    O314321   0.325   0.826   8.670
    1TMC1    H314322   0.417   0.855   8.651
    1TMC1    O514323   0.140   1.248   8.377
    1TMC1    H514324   0.094   1.304   8.311
    2MPD1     C14325   1.120   0.973   8.387
    2MPD1    C114326   1.048   1.033   8.293
    2MPD1    C214327   0.924   1.085   8.325
    2MPD1    C314328   0.871   1.065   8.452
    2MPD1    C414329   0.944   1.000   8.548
    2MPD1    C514330   1.065   0.958   8.508
    2MPD1     H14331   0.876   1.156   8.258
    2MPD1    H114332   0.927   0.990   8.655
    2MPD1    H214333   1.215   0.923   8.373
    2MPD1    H314334   1.124   0.897   8.576
    2MPD1     N14335   0.735   1.111   8.476
    2MPD1    H514336   0.683   1.147   8.396
    2MPD1    N114337   1.089   1.041   8.156
    2MPD1    H614338   1.055   1.128   8.115
    2MPD1    H714339   1.191   1.037   8.152
    1TMC1    C114340   3.915   2.306  14.920
    1TMC1    C214341   3.830   2.316  14.809
    1TMC1    C314342   3.886   2.294  14.685
    1TMC1    C414343   4.048   2.277  14.913
    1TMC1    C514344   4.091   2.243  14.785
    1TMC1    C614345   4.012   2.246  14.670
    1TMC1     C14346   3.862   2.335  15.051
    1TMC1     O14347   3.944   2.349  15.143
    1TMC1     H14348   3.732   2.358  14.827
    1TMC1    H114349   4.108   2.282  15.003
    1TMC1    H214350   4.049   2.210  14.575
    1TMC1    C714351   4.236   2.229  14.773
    1TMC1    C814352   3.795   2.313  14.575
    1TMC1    O114353   4.301   2.172  14.856
    1TMC1    O214354   3.688   2.368  14.588
    1TMC1    O314355   4.278   2.287  14.661
    1TMC1    H314356   4.217   2.354  14.625
    1TMC1    O514357   3.861   2.267  14.466
    1TMC1    H514358   3.810   2.285  14.384
    2MPD1     C14359   3.487   2.338  15.399
    2MPD1    C114360   3.421   2.327  15.274
    2MPD1    C214361   3.508   2.316  15.165
    2MPD1    C314362   3.646   2.323  15.174
    2MPD1    C414363   3.708   2.334  15.304
    2MPD1    C514364   3.621   2.324  15.415
    2MPD1     H14365   3.459   2.303  15.069
    2MPD1    H114366   3.815   2.328  15.321
    2MPD1    H214367   3.430   2.348  15.490
    2MPD1    H314368   3.652   2.320  15.519
    2MPD1     N14369   3.726   2.320  15.054
    2MPD1    H514370   3.689   2.287  14.965
    2MPD1    N114371   3.288   2.366  15.268
    2MPD1    H614372   3.246   2.338  15.180
    2MPD1    H714373   3.232   2.345  15.351
    1MPD1     C14374   1.402   1.180   9.556
    1MPD1    C114375   1.384   1.293   9.479
    1MPD1    C214376   1.496   1.367   9.447
    1MPD1    C314377   1.619   1.329   9.505
    1MPD1    C414378   1.631   1.210   9.574
    1MPD1    C514379   1.523   1.137   9.606
    1MPD1     H14380   1.484   1.457   9.388
    1MPD1    H114381   1.724   1.166   9.608
    1MPD1    H214382   1.323   1.116   9.595
    1MPD1    H314383   1.527   1.045   9.663
    1MPD1     N14384   1.737   1.405   9.465
    1MPD1    H514385   1.727   1.475   9.392
    1MPD1    N114386   1.262   1.321   9.417
    1MPD1    H614387   1.243   1.418   9.393
    1MPD1    H714388   1.174   1.277   9.443
    2MPD1     C14389   1.637   1.815   8.804
    2MPD1    C114390   1.597   1.846   8.678
    2MPD1    C214391   1.669   1.783   8.577
    2MPD1    C314392   1.757   1.679   8.599
    2MPD1    C414393   1.798   1.657   8.726
    2MPD1    C514394   1.730   1.717   8.827
    2MPD1     H14395   1.644   1.804   8.474
    2MPD1    H114396   1.882   1.593   8.752
    2MPD1    H214397   1.605   1.877   8.887
    2MPD1    H314398   1.762   1.696   8.928
    2MPD1     N14399   1.828   1.632   8.488
    2MPD1    H514400   1.911   1.578   8.508
    2MPD1    N114401   1.512   1.947   8.645
    2MPD1    H614402   1.440   1.963   8.715
    2MPD1    H714403   1.466   1.931   8.556
    3MPD1     C14404   2.211   2.076   7.755
    3MPD1    C114405   2.295   1.996   7.832
    3MPD1    C214406   2.250   1.881   7.898
    3MPD1    C314407   2.126   1.843   7.882
    3MPD1    C414408   2.035   1.920   7.810
    3MPD1    C514409   2.076   2.036   7.749
    3MPD1     H14410   2.318   1.820   7.956
    3MPD1    H114411   1.940   1.875   7.786
    3MPD1    H214412   2.241   2.170   7.709
    3MPD1    H314413   2.004   2.099   7.698
    3MPD1     N14414   2.090   1.720   7.938
    3MPD1    H514415   2.156   1.663   7.990
    3MPD1    N114416   2.421   2.036   7.854
    3MPD1    H614417   2.413   2.093   7.938
    3MPD1    H714418   2.474   1.954   7.884
    4MPD2     C14419   2.160   1.978   9.203
    4MPD2    C114420   2.168   1.870   9.125
    4MPD2    C214421   2.273   1.855   9.035
    4MPD2    C314422   2.373   1.954   9.027
    4MPD2    C414423   2.367   2.064   9.111
    4MPD2    C514424   2.261   2.073   9.201
    4MPD2     H14425   2.269   1.765   8.975
    4MPD2    H114426   2.433   2.150   9.103
    4MPD2    H214427   2.071   1.994   9.262
    4MPD2    H314428   2.245   2.164   9.257
    4MPD2     N14429   2.492   1.930   8.960
    4MPD2    H514430   2.568   1.997   8.971
    4MPD2    N114431   2.076   1.765   9.115
    4MPD2    H714432   2.085   1.709   9.031
    5MPD2     C14433   2.716   1.538   9.307
    5MPD2    C114434   2.662   1.519   9.182
    5MPD2    C214435   2.530   1.462   9.167
    5MPD2    C314436   2.456   1.437   9.280
    5MPD2    C414437   2.515   1.448   9.407
    5MPD2    C514438   2.645   1.489   9.413
    5MPD2     H14439   2.490   1.441   9.068
    5MPD2    H114440   2.463   1.408   9.493
    5MPD2    H214441   2.818   1.572   9.322
    5MPD2    H314442   2.689   1.493   9.512
    5MPD2     N14443   2.317   1.392   9.286
    5MPD2    H514444   2.279   1.413   9.378
    5MPD2    N114445   2.752   1.553   9.077
    5MPD2    H714446   2.835   1.608   9.097
    6MPD2     C14447   2.472   1.263   8.635
    6MPD2    C114448   2.496   1.370   8.553
    6MPD2    C214449   2.413   1.391   8.445
    6MPD2    C314450   2.300   1.318   8.425
    6MPD2    C414451   2.270   1.222   8.515
    6MPD2    C514452   2.361   1.189   8.611
    6MPD2     H14453   2.419   1.483   8.387
    6MPD2    H114454   2.183   1.162   8.494
    6MPD2    H214455   2.528   1.241   8.725
    6MPD2    H314456   2.340   1.107   8.678
    6MPD2     N14457   2.197   1.348   8.330
    6MPD2    H514458   2.104   1.314   8.351
    6MPD2    N114459   2.593   1.458   8.595
    6MPD2    H714460   2.631   1.435   8.686
    7TMC3    C114461   1.944   1.598   9.210
    7TMC3    C214462   2.043   1.515   9.151
    7TMC3    C314463   2.100   1.411   9.215
    7TMC3    C414464   1.892   1.548   9.320
    7TMC3    C514465   1.945   1.438   9.384
    7TMC3    C614466   2.053   1.372   9.337
    7TMC3     C14467   1.986   1.740   9.214
    7TMC3     O14468   1.975   1.799   9.321
    7TMC3     H14469   2.093   1.541   9.059
    7TMC3    H114470   1.838   1.618   9.384
    7TMC3    H214471   2.091   1.282   9.384
    7TMC3    C714472   1.867   1.373   9.484
    7TMC3    C814473   2.235   1.391   9.177
    7TMC3    O114474   1.912   1.283   9.554
    7TMC3    O214475   2.266   1.406   9.058
    8TMC3    C114476   1.875   1.570   8.262
    8TMC3    C214477   1.848   1.596   8.128
    8TMC3    C314478   1.940   1.570   8.030
    8TMC3    C414479   1.994   1.506   8.309
    8TMC3    C514480   2.081   1.487   8.204
    8TMC3    C614481   2.060   1.521   8.069
    8TMC3     C14482   1.781   1.625   8.358
    8TMC3     O14483   1.673   1.654   8.307
    8TMC3     H14484   1.755   1.644   8.099
    8TMC3    H114485   2.013   1.486   8.414
    8TMC3    H214486   2.128   1.483   7.993
    8TMC3    C714487   2.214   1.443   8.231
    8TMC3    C814488   1.958   1.682   7.941
    8TMC3    O114489   2.315   1.464   8.167
    8TMC3    O214490   1.854   1.741   7.919
    9TMC3    C114491   2.781   1.636   8.857
    9TMC3    C214492   2.763   1.585   8.734
    9TMC3    C314493   2.696   1.656   8.642
    9TMC3    C414494   2.727   1.753   8.899
    9TMC3    C514495   2.644   1.810   8.814
    9TMC3    C614496   2.631   1.768   8.685
    9TMC3     C14497   2.742   1.524   8.943
    9TMC3     O14498   2.686   1.426   8.893
    9TMC3     H14499   2.811   1.494   8.701
    9TMC3    H114500   2.706   1.773   9.004
    9TMC3    H214501   2.554   1.808   8.620
    9TMC3    C714502   2.512   1.826   8.869
    9TMC3    C814503   2.618   1.586   8.546
    9TMC3    O114504   2.428   1.747   8.830
    9TMC3    O214505   2.566   1.649   8.453
    1TMC2    C114506   2.340   0.339  12.516
    1TMC2    C214507   2.290   0.461  12.497
    1TMC2    C314508   2.360   0.565  12.549
    1TMC2    C414509   2.456   0.316  12.584
    1TMC2    C514510   2.521   0.421  12.643
    1TMC2    C614511   2.466   0.542  12.632
    1TMC2     C14512   2.315   0.230  12.424
    1TMC2     O14513   2.331   0.121  12.468
    1TMC2     H14514   2.205   0.475  12.432
    1TMC2    H114515   2.492   0.214  12.583
    1TMC2    H214516   2.509   0.627  12.684
    1TMC2    C714517   2.653   0.434  12.609
    1TMC2    C814518   2.368   0.686  12.479
    1TMC2    O114519   2.684   0.548  12.574
    1TMC2    O214520   2.272   0.732  12.407
    1TMC2    O514521   2.502   0.719  12.466
    1TMC2    H514522   2.548   0.656  12.526
    2MPD1     C14523   2.392   0.024  11.958
    2MPD1    C114524   2.384   0.156  11.950
    2MPD1    C214525   2.337   0.230  12.055
    2MPD1    C314526   2.318   0.173  12.180
    2MPD1    C414527   2.333   0.037  12.196
    2MPD1    C514528   2.363   4.758  12.083
    2MPD1     H14529   2.332   0.338  12.048
    2MPD1    H114530   2.310   4.780  12.291
    2MPD1    H214531   2.415   4.753  11.871
    2MPD1    H314532   2.361   4.650  12.084
    2MPD1     N14533   2.311   0.267  12.289
    2MPD1    H514534   2.301   0.361  12.253
    2MPD1    N114535   2.392   0.215  11.821
    2MPD1    H614536   2.452   0.163  11.758
    2MPD1    H714537   2.424   0.312  11.818
    3MPD1     C14538   3.106   0.228  12.458
    3MPD1    C114539   3.058   0.362  12.446
    3MPD1    C214540   2.936   0.388  12.502
    3MPD1    C314541   2.856   0.296  12.570
    3MPD1    C414542   2.909   0.168  12.588
    3MPD1    C514543   3.033   0.138  12.534
    3MPD1     H14544   2.897   0.487  12.482
    3MPD1    H114545   2.861   0.092  12.649
    3MPD1    H214546   3.203   0.192  12.426
    3MPD1    H314547   3.064   0.037  12.557
    3MPD1     N14548   2.727   0.318  12.625
    3MPD1    H514549   2.683   0.241  12.674
    3MPD1    N114550   3.132   0.454  12.366
    3MPD1    H614551   3.113   0.550  12.393
    3MPD1    H714552   3.233   0.444  12.366
    1TMC1    C114553   0.416   4.005   9.949
    1TMC1    C214554   0.327   4.078  10.033
    1TMC1    C314555   0.203   4.031  10.047
    1TMC1    C414556   0.374   3.889   9.879
    1TMC1    C514557   0.247   3.842   9.907
    1TMC1    C614558   0.162   3.914   9.996
    1TMC1     C14559   0.531   4.074   9.903
    1TMC1     O14560   0.535   4.119   9.787
    1TMC1     H14561   0.363   4.165  10.087
    1TMC1    H114562   0.452   3.847   9.817
    1TMC1    H214563   0.061   3.883  10.020
    1TMC1    C714564   0.194   3.716   9.856
    1TMC1    C814565   0.112   4.133  10.083
    1TMC1    O114566   0.076   3.680   9.873
    1TMC1    O214567   0.142   4.252  10.076
    1TMC1    O314568   0.297   3.634   9.854
    1TMC1    H314569   0.385   3.673   9.870
    1TMC1    O514570   0.016   4.089  10.165
    1TMC1    H514571   0.017   3.994  10.190
    2TMC1    C114572   1.136   4.218  10.431
    2TMC1    C214573   1.207   4.110  10.476
    2TMC1    C314574   1.194   4.073  10.605
    2TMC1    C414575   1.049   4.286  10.510
    2TMC1    C514576   1.036   4.238  10.640
    2TMC1    C614577   1.105   4.131  10.688
    2TMC1     C14578   1.111   4.228  10.291
    2TMC1     O14579   1.201   4.183  10.221
    2TMC1     H14580   1.263   4.054  10.402
    2TMC1    H114581   0.990   4.370  10.475
    2TMC1    H214582   1.103   4.103  10.793
    2TMC1    C714583   0.992   4.330  10.734
    2TMC1    C814584   1.281   3.980  10.675
    2TMC1    O114585   0.983   4.447  10.708
    2TMC1    O214586   1.247   3.903  10.761
    2TMC1    O314587   0.946   4.273  10.846
    2TMC1    H314588   0.934   4.177  10.831
    2TMC1    O514589   1.390   3.971  10.597
    2TMC1    H514590   1.406   4.063  10.567
    3MPD2     C14591   0.801   4.199   9.880
    3MPD2    C114592   0.745   4.147   9.998
    3MPD2    C214593   0.804   4.168  10.118
    3MPD2    C314594   0.929   4.225  10.121
    3MPD2    C414595   0.990   4.273  10.009
    3MPD2    C514596   0.925   4.257   9.887
    3MPD2     H14597   0.759   4.138  10.212
    3MPD2    H114598   1.087   4.322  10.007
    3MPD2    H214599   0.758   4.176   9.783
    3MPD2    H314600   0.980   4.277   9.796
    3MPD2     N14601   0.980   4.246  10.251
    3MPD2    H514602   0.908   4.229  10.320
    3MPD2    N114603   0.622   4.081  10.006
    3MPD2    H714604   0.607   4.035  10.095
    1TMC1    C114605   4.644   0.740  10.842
    1TMC1    C214606   4.590   0.757  10.967
    1TMC1    C314607   4.665   0.738  11.082
    1TMC1    C414608   4.777   0.713  10.834
    1TMC1    C514609   0.057   0.675  10.948
    1TMC1    C614610   0.005   0.687  11.076
    1TMC1     C14611   4.572   0.779  10.721
    1TMC1     O14612   4.631   0.846  10.636
    1TMC1     H14613   4.497   0.813  10.975
    1TMC1    H114614   0.035   0.708  10.737
    1TMC1    H214615   0.062   0.667  11.166
    1TMC1    C714616   0.196   0.644  10.929
    1TMC1    C814617   4.619   0.795  11.207
    1TMC1    O114618   0.254   0.695  10.835
    1TMC1    O214619   4.497   0.796  11.234
    1TMC1    O314620   0.255   0.570  11.023
    1TMC1    H314621   0.196   0.540  11.095
    1TMC1    O514622   4.700   0.892  11.237
    1TMC1    H514623   4.788   0.875  11.197
    2TMC2    C114624   4.471   0.174  10.882
    2TMC2    C214625   4.480   0.088  10.992
    2TMC2    C314626   4.500   0.138  11.109
    2TMC2    C414627   4.484   0.311  10.890
    2TMC2    C514628   4.497   0.356  11.020
    2TMC2    C614629   4.493   0.269  11.128
    2TMC2     C14630   4.358   0.145  10.801
    2TMC2     O14631   4.325   0.228  10.718
    2TMC2     H14632   4.481   4.770  10.983
    2TMC2    H114633   4.487   0.375  10.802
    2TMC2    H214634   4.527   0.301  11.226
    2TMC2    C714635   4.418   0.475  11.027
    2TMC2    C814636   4.593   0.075  11.201
    2TMC2    O114637   4.380   0.539  10.928
    2TMC2    O214638   4.579   0.078  11.322
    2TMC2    O514639   4.707   0.049  11.131
    2TMC2    H514640   4.700   0.051  11.033
    3MPD2     C14641   4.391   0.774  10.491
    3MPD2    C114642   4.363   0.727  10.612
    3MPD2    C214643   4.236   0.692  10.646
    3MPD2    C314644   4.125   0.697  10.562
    3MPD2    C414645   4.153   0.745  10.437
    3MPD2    C514646   4.282   0.788  10.408
    3MPD2     H14647   4.218   0.639  10.739
    3MPD2    H114648   4.080   0.757  10.357
    3MPD2    H214649   4.491   0.807  10.464
    3MPD2    H314650   4.292   0.830  10.308
    3MPD2     N14651   3.995   0.665  10.614
    3MPD2    H514652   3.989   0.647  10.714
    3MPD2    N114653   4.450   0.717  10.717
    3MPD2    H714654   4.411   0.671  10.798
    4MPD2     C14655   4.025   0.682  11.280
    4MPD2    C114656   4.039   0.631  11.152
    4MPD2    C214657   4.152   0.572  11.108
    4MPD2    C314658   4.269   0.578  11.190
    4MPD2    C414659   4.253   0.619  11.320
    4MPD2    C514660   4.133   0.671  11.361
    4MPD2     H14661   4.164   0.538  11.006
    4MPD2    H114662   4.343   0.627  11.380
    4MPD2    H214663   3.934   0.736  11.303
    4MPD2    H314664   4.119   0.714  11.459
    4MPD2     N14665   4.392   0.515  11.157
    4MPD2    H514666   4.454   0.487  11.233
    4MPD2    N114667   3.926   0.643  11.069
    4MPD2    H714668   3.842   0.681  11.112
    5MPD2     C14669   4.061   4.724  10.844
    5MPD2    C114670   4.132   0.054  10.839
    5MPD2    C214671   4.063   0.171  10.823
    5MPD2    C314672   3.934   0.176  10.786
    5MPD2    C414673   3.874   0.050  10.755
    5MPD2    C514674   3.931   4.725  10.805
    5MPD2     H14675   4.116   0.263  10.845
    5MPD2    H114676   3.770   0.045  10.724
    5MPD2    H214677   4.110   4.632  10.874
    5MPD2    H314678   3.876   4.632  10.813
    5MPD2     N14679   3.869   0.302  10.761
    5MPD2    H514680   3.914   0.388  10.792
    5MPD2    N114681   4.269   0.060  10.867
    5MPD2    H714682   4.312   4.778  10.925
    6TMC3    C114683   3.790   0.621  10.880
    6TMC3    C214684   3.731   0.504  10.860
    6TMC3    C314685   3.698   0.455  10.727
    6TMC3    C414686   3.807   0.705  10.773
    6TMC3    C514687   3.774   0.658  10.646
    6TMC3    C614688   3.720   0.534  10.615
    6TMC3     C14689   3.916   0.593  10.940
    6TMC3     O14690   3.996   0.542  10.861
    6TMC3     H14691   3.719   0.440  10.946
    6TMC3    H114692   3.864   0.797  10.782
    6TMC3    H214693   3.722   0.496  10.514
    6TMC3    C714694   3.879   0.688  10.552
    6TMC3    C814695   3.745   0.319  10.702
    6TMC3    O114696   3.856   0.687  10.431
    6TMC3    O214697   3.673   0.244  10.640
  958TMC0    C114698   3.088   1.855  15.293
  958TMC0    C214699   2.980   1.795  15.350
  958TMC0    C314700   3.008   1.720  15.461
  958TMC0    C414701   3.220   1.828  15.324
  958TMC0    C514702   3.241   1.744  15.427
  958TMC0    C614703   3.138   1.687  15.491
  958TMC0     C14704   3.070   1.957  15.189
  958TMC0     O14705   3.154   2.041  15.175
  958TMC0     H14706   2.882   1.831  15.321
  958TMC0    H114707   3.307   1.875  15.280
  958TMC0    H214708   3.158   1.613  15.568
  958TMC0    C714709   3.374   1.693  15.442
  958TMC0    C814710   2.900   1.639  15.514
  958TMC0    O114711   3.393   1.574  15.445
  958TMC0    O214712   2.918   1.523  15.558
  958TMC0    O314713   3.444   1.783  15.508
  958TMC0    H314714   3.429   1.877  15.483
  958TMC0    O414715   2.986   1.899  15.088
  958TMC0    H414716   2.939   1.816  15.111
  958TMC0    O514717   2.799   1.727  15.541
  958TMC0    H514718   2.819   1.822  15.529
  959TMC0    C114719   3.586   0.636   6.322
  959TMC0    C214720   3.586   0.528   6.236
  959TMC0    C314721   3.471   0.503   6.158
  959TMC0    C414722   3.467   0.695   6.354
  959TMC0    C514723   3.356   0.655   6.283
  959TMC0    C614724   3.360   0.574   6.172
  959TMC0     C14725   3.695   0.647   6.408
  959TMC0     O14726   3.791   0.573   6.418
  959TMC0     H14727   3.676   0.473   6.213
  959TMC0    H114728   3.460   0.781   6.420
  959TMC0    H214729   3.268   0.543   6.123
  959TMC0    C714730   3.243   0.751   6.284
  959TMC0    C814731   3.496   0.426   6.034
  959TMC0    O114732   3.156   0.755   6.200
  959TMC0    O214733   3.591   0.351   6.036
  959TMC0    O314734   3.226   0.791   6.413
  959TMC0    H314735   3.294   0.770   6.480
  959TMC0    O414736   3.716   0.783   6.429
  959TMC0    H414737   3.659   0.853   6.391
  959TMC0    O514738   3.423   0.470   5.928
  959TMC0    H514739   3.359   0.545   5.932
  960TMC0    C114740   3.593   4.647   9.167
  960TMC0    C214741   3.626   4.688   9.044
  960TMC0    C314742   3.523   4.706   8.951
  960TMC0    C414743   3.469   4.653   9.214
  960TMC0    C514744   3.371   4.690   9.124
  960TMC0    C614745   3.393   4.701   8.991
  960TMC0     C14746   3.698   4.611   9.260
  960TMC0     O14747   3.811   4.643   9.239
  960TMC0     H14748   3.731   4.694   9.018
  960TMC0    H114749   3.439   4.629   9.315
  960TMC0    H214750   3.311   4.737   8.931
  960TMC0    C714751   3.243   4.631   9.159
  960TMC0    C814752   3.536   4.751   8.807
  960TMC0    O114753   3.224   4.512   9.164
  960TMC0    O214754   3.451   0.033   8.758
  960TMC0    O314755   3.212   4.717   9.259
  960TMC0    H314756   3.249   0.016   9.237
  960TMC0    O414757   3.660   4.493   9.310
  960TMC0    H414758   3.570   4.458   9.292
  960TMC0    O514759   3.669   4.773   8.789
  960TMC0    H514760   3.726   4.700   8.820
  961SOL     OW14761   1.168   1.536   3.604
  961SOL    HW114762   1.182   1.619   3.559
  961SOL    HW214763   1.234   1.477   3.567
  962SOL     OW14764   4.161   2.310  20.282
  962SOL    HW114765   4.203   2.241  20.333
  962SOL    HW214766   4.073   2.276  20.264
  963SOL     OW14767   2.451   2.047   4.058
  963SOL    HW114768   2.442   2.115   3.991
  963SOL    HW214769   2.387   2.070   4.125
  964SOL     OW14770   2.705   3.408   4.868
  964SOL    HW114771   2.738   3.336   4.814
  964SOL    HW214772   2.684   3.477   4.805
  965SOL     OW14773   2.284   3.204  17.004
  965SOL    HW114774   2.260   3.292  17.033
  965SOL    HW214775   2.333   3.167  17.077
  966SOL     OW14776   0.444   1.584  15.600
  966SOL    HW114777   0.424   1.514  15.538
  966SOL    HW214778   0.463   1.539  15.682
  967SOL     OW14779   0.790   0.422   2.819
  967SOL    HW114780   0.827   0.506   2.792
  967SOL    HW214781   0.778   0.373   2.738
  968SOL     OW14782   2.571   3.884  12.713
  968SOL    HW114783   2.613   3.892  12.627
  968SOL    HW214784   2.575   3.972  12.750
  969SOL     OW14785   2.491   4.002   5.981
  969SOL    HW114786   2.462   3.948   5.908
  969SOL    HW214787   2.425   4.071   5.987
  970SOL     OW14788   1.639   1.264  13.567
  970SOL    HW114789   1.557   1.250  13.520
  970SOL    HW214790   1.656   1.180  13.610
  971SOL     OW14791   3.159   1.798  19.485
  971SOL    HW114792   3.244   1.794  19.529
  971SOL    HW214793   3.157   1.720  19.430
  972SOL     OW14794   3.252   2.400   7.196
  972SOL    HW114795   3.342   2.398   7.164
  972SOL    HW214796   3.255   2.354   7.280
  973SOL     OW14797   4.104   2.083   2.432
  973SOL    HW114798   4.176   2.042   2.481
  973SOL    HW214799   4.058   2.136   2.497
  974SOL     OW14800   1.273   4.460   6.657
  974SOL    HW114801   1.354   4.416   6.683
  974SOL    HW214802   1.293   4.553   6.665
  975SOL     OW14803   1.850   3.652   4.989
  975SOL    HW114804   1.788   3.625   5.056
  975SOL    HW214805   1.798   3.706   4.929
  976SOL     OW14806   0.889   1.100   3.178
  976SOL    HW114807   0.892   1.039   3.104
  976SOL    HW214808   0.974   1.144   3.176
  977SOL     OW14809   2.351   0.639   3.235
  977SOL    HW114810   2.377   0.725   3.268
  977SOL    HW214811   2.308   0.596   3.309
  978SOL     OW14812   1.988   3.413  15.524
  978SOL    HW114813   2.080   3.402  15.499
  978SOL    HW214814   1.988   3.402  15.619
  979SOL     OW14815   2.867   4.442   1.863
  979SOL    HW114816   2.859   4.388   1.784
  979SOL    HW214817   2.837   4.386   1.934
  980SOL     OW14818   4.754   0.235  16.533
  980SOL    HW114819   0.025   0.231  16.459
  980SOL    HW214820   0.020   0.227  16.611
  981SOL     OW14821   4.153   3.464  17.045
  981SOL    HW114822   4.076   3.464  16.989
  981SOL    HW214823   4.139   3.390  17.104
  982SOL     OW14824   3.820   4.516  18.788
  982SOL    HW114825   3.822   4.471  18.873
  982SOL    HW214826   3.807   4.446  18.724
  983SOL     OW14827   1.691   1.496  20.756
  983SOL    HW114828   1.728   1.461  20.675
  983SOL    HW214829   1.639   1.424  20.791
  984SOL     OW14830   0.925   0.041  20.063
  984SOL    HW114831   0.954   0.118  20.112
  984SOL    HW214832   0.835   0.061  20.037
  985SOL     OW14833   2.505   1.378   1.848
  985SOL    HW114834   2.494   1.422   1.932
  985SOL    HW214835   2.417   1.376   1.811
  986SOL     OW14836   1.003   0.255  21.058
  986SOL    HW114837   1.016   0.281  21.149
  986SOL    HW214838   1.075   0.194  21.040
  987SOL     OW14839   2.734   3.711  17.718
  987SOL    HW114840   2.823   3.721  17.753
  987SOL    HW214841   2.724   3.786  17.659
  988SOL     OW14842   2.553   2.868  17.029
  988SOL    HW114843   2.497   2.807  16.982
  988SOL    HW214844   2.605   2.910  16.961
  989SOL     OW14845   4.580   3.158  15.348
  989SOL    HW114846   4.632   3.214  15.406
  989SOL    HW214847   4.494   3.201  15.344
  990SOL     OW14848   4.563   4.737  20.788
  990SOL    HW114849   4.610   4.663  20.749
  990SOL    HW214850   4.478   4.701  20.813
  991SOL     OW14851   2.866   1.176   2.611
  991SOL    HW114852   2.774   1.157   2.629
  991SOL    HW214853   2.895   1.228   2.686
  992SOL     OW14854   0.245   3.438  19.436
  992SOL    HW114855   0.158   3.450  19.473
  992SOL    HW214856   0.231   3.381  19.360
  993SOL     OW14857   0.415   3.051  21.072
  993SOL    HW114858   0.348   2.991  21.105
  993SOL    HW214859   0.471   3.069  21.148
  994SOL     OW14860   1.382   3.134  19.745
  994SOL    HW114861   1.347   3.107  19.660
  994SOL    HW214862   1.308   3.126  19.805
  995SOL     OW14863   1.744   0.036   1.974
  995SOL    HW114864   1.786   4.774   1.906
  995SOL    HW214865   1.695   4.762   2.026
  996SOL     OW14866   2.238   1.448  16.263
  996SOL    HW114867   2.218   1.401  16.182
  996SOL    HW214868   2.176   1.414  16.327
  997SOL     OW14869   2.362   0.312  19.066
  997SOL    HW114870   2.389   0.221  19.057
  997SOL    HW214871   2.267   0.310  19.051
  998SOL     OW14872   2.365   1.647  19.082
  998SOL    HW114873   2.282   1.660  19.128
  998SOL    HW214874   2.422   1.606  19.147
  999SOL     OW14875   2.337   2.415  15.339
  999SOL    HW114876   2.427   2.408  15.372
  999SOL    HW214877   2.282   2.393  15.414
 1000SOL     OW14878   4.630   4.639  18.982
 1000SOL    HW114879   4.615   4.693  18.904
 1000SOL    HW214880   4.589   4.688  19.053
 1001SOL     OW14881   4.278   1.746  15.801
 1001SOL    HW114882   4.188   1.732  15.772
 1001SOL    HW214883   4.285   1.695  15.882
 1002SOL     OW14884   2.706   2.069  17.205
 1002SOL    HW114885   2.672   2.101  17.122
 1002SOL    HW214886   2.756   1.991  17.182
 1003SOL     OW14887   1.286   4.704  17.854
 1003SOL    HW114888   1.369   4.670  17.820
 1003SOL    HW214889   1.304   0.007  17.872
 1004SOL     OW14890   4.657   0.727  18.854
 1004SOL    HW114891   4.712   0.791  18.899
 1004SOL    HW214892   4.688   0.729  18.763
 1005SOL     OW14893   0.263   4.323   3.659
 1005SOL    HW114894   0.213   4.311   3.740
 1005SOL    HW214895   0.232   4.253   3.601
 1006SOL     OW14896   3.332   1.345  19.941
 1006SOL    HW114897   3.249   1.379  19.973
 1006SOL    HW214898   3.314   1.253  19.922
 1007SOL     OW14899   0.319   2.386  19.555
 1007SOL    HW114900   0.230   2.351  19.565
 1007SOL    HW214901   0.326   2.406  19.462
 1008SOL     OW14902   2.726   2.113   3.442
 1008SOL    HW114903   2.661   2.049   3.471
 1008SOL    HW214904   2.678   2.171   3.383
 1009SOL     OW14905   2.288   3.014  20.118
 1009SOL    HW114906   2.212   2.962  20.092
 1009SOL    HW214907   2.251   3.098  20.146
 1010SOL     OW14908   1.159   2.817   1.570
 1010SOL    HW114909   1.169   2.723   1.554
 1010SOL    HW214910   1.242   2.855   1.541
 1011SOL     OW14911   4.560   1.668   3.685
 1011SOL    HW114912   4.621   1.702   3.750
 1011SOL    HW214913   4.557   1.574   3.702
 1012SOL     OW14914   2.691   4.017   5.370
 1012SOL    HW114915   2.779   3.995   5.400
 1012SOL    HW214916   2.678   4.108   5.398
 1013SOL     OW14917   2.221   0.457   0.764
 1013SOL    HW114918   2.136   0.491   0.791
 1013SOL    HW214919   2.274   0.458   0.844
 1014SOL     OW14920   4.314   1.823   1.707
 1014SOL    HW114921   4.242   1.867   1.662
 1014SOL    HW214922   4.275   1.788   1.787
 1015SOL     OW14923   1.375   4.629   0.385
 1015SOL    HW114924   1.353   4.599   0.473
 1015SOL    HW214925   1.467   4.654   0.391
 1016SOL     OW14926   0.923   0.687   3.712
 1016SOL    HW114927   0.959   0.774   3.694
 1016SOL    HW214928   0.830   0.703   3.730
 1017SOL     OW14929   3.475   4.095  16.017
 1017SOL    HW114930   3.443   4.081  16.106
 1017SOL    HW214931   3.467   4.189  16.003
 1018SOL     OW14932   0.153   3.390  19.184
 1018SOL    HW114933   0.070   3.438  19.178
 1018SOL    HW214934   0.201   3.415  19.105
 1019SOL     OW14935   1.258   4.394  17.635
 1019SOL    HW114936   1.334   4.363  17.684
 1019SOL    HW214937   1.289   4.473  17.590
 1020SOL     OW14938   3.269   4.774   5.293
 1020SOL    HW114939   3.294   4.683   5.312
 1020SOL    HW214940   3.344   0.020   5.246
 1021SOL     OW14941   4.769   2.484   0.320
 1021SOL    HW114942   4.771   2.573   0.286
 1021SOL    HW214943   4.704   2.486   0.391
 1022SOL     OW14944   1.698   2.803   4.435
 1022SOL    HW114945   1.614   2.803   4.390
 1022SOL    HW214946   1.691   2.732   4.499
 1023SOL     OW14947   1.545   1.376  18.769
 1023SOL    HW114948   1.494   1.411  18.842
 1023SOL    HW214949   1.571   1.453  18.719
 1024SOL     OW14950   1.644   0.258  17.026
 1024SOL    HW114951   1.614   0.174  16.991
 1024SOL    HW214952   1.583   0.322  16.990
 1025SOL     OW14953   3.902   0.892  21.142
 1025SOL    HW114954   3.956   0.830  21.093
 1025SOL    HW214955   3.812   0.867  21.122
 1026SOL     OW14956   3.475   4.012  19.647
 1026SOL    HW114957   3.466   3.934  19.592
 1026SOL    HW214958   3.385   4.037  19.668
 1027SOL     OW14959   2.207   1.672   6.112
 1027SOL    HW114960   2.250   1.718   6.184
 1027SOL    HW214961   2.275   1.663   6.045
 1028SOL     OW14962   0.335   3.267   3.518
 1028SOL    HW114963   0.269   3.201   3.539
 1028SOL    HW214964   0.334   3.327   3.593
 1029SOL     OW14965   4.103   0.145   4.620
 1029SOL    HW114966   4.098   0.180   4.531
 1029SOL    HW214967   4.049   0.204   4.672
 1030SOL     OW14968   1.712   3.692  20.432
 1030SOL    HW114969   1.677   3.629  20.369
 1030SOL    HW214970   1.807   3.686  20.421
 1031SOL     OW14971   1.224   2.892  19.191
 1031SOL    HW114972   1.247   2.968  19.245
 1031SOL    HW214973   1.176   2.929  19.117
 1032SOL     OW14974   0.913   0.177  16.489
 1032SOL    HW114975   0.944   0.107  16.431
 1032SOL    HW214976   0.880   0.245  16.430
 1033SOL     OW14977   0.516   1.195   0.564
 1033SOL    HW114978   0.574   1.265   0.535
 1033SOL    HW214979   0.483   1.156   0.483
 1034SOL     OW14980   3.492   0.420   4.208
 1034SOL    HW114981   3.550   0.469   4.149
 1034SOL    HW214982   3.515   0.328   4.193
 1035SOL     OW14983   1.407   4.552   1.605
 1035SOL    HW114984   1.344   4.618   1.634
 1035SOL    HW214985   1.436   4.582   1.519
 1036SOL     OW14986   4.575   1.357   4.515
 1036SOL    HW114987   4.668   1.344   4.498
 1036SOL    HW214988   4.552   1.289   4.578
 1037SOL     OW14989   4.273   4.235   8.260
 1037SOL    HW114990   4.265   4.322   8.299
 1037SOL    HW214991   4.367   4.216   8.262
 1038SOL     OW14992   3.489   4.361  21.052
 1038SOL    HW114993   3.433   4.411  20.993
 1038SOL    HW214994   3.578   4.389  21.030
 1039SOL     OW14995   0.292   3.503  18.991
 1039SOL    HW114996   0.386   3.519  18.988
 1039SOL    HW214997   0.256   3.581  19.032
 1040SOL     OW14998   4.234   2.147  18.954
 1040SOL    HW114999   4.318   2.181  18.985
 1040SOL    HW215000   4.257   2.086  18.883
 1041SOL     OW15001   0.004   1.817   7.394
 1041SOL    HW115002   4.701   1.824   7.415
 1041SOL    HW215003   0.042   1.770   7.468
 1042SOL     OW15004   1.521   0.114  18.458
 1042SOL    HW115005   1.548   0.064  18.535
 1042SOL    HW215006   1.575   0.081  18.387
 1043SOL     OW15007   4.743   3.475  16.887
 1043SOL    HW115008   4.777   3.391  16.916
 1043SOL    HW215009   4.674   3.496  16.949
 1044SOL     OW15010   1.415   2.144  16.738
 1044SOL    HW115011   1.501   2.105  16.755
 1044SOL    HW215012   1.434   2.222  16.685
 1045SOL     OW15013   0.310   2.157  16.376
 1045SOL    HW115014   0.285   2.094  16.444
 1045SOL    HW215015   0.232   2.166  16.322
 1046SOL     OW15016   2.806   4.138   0.505
 1046SOL    HW115017   2.900   4.157   0.510
 1046SOL    HW215018   2.780   4.165   0.417
 1047SOL     OW15019   4.115   4.045  19.122
 1047SOL    HW115020   4.150   4.125  19.082
 1047SOL    HW215021   4.189   4.006  19.168
 1048SOL     OW15022   2.682   0.800  19.633
 1048SOL    HW115023   2.744   0.767  19.568
 1048SOL    HW215024   2.727   0.788  19.717
 1049SOL     OW15025   3.439   3.550  15.942
 1049SOL    HW115026   3.498   3.495  15.891
 1049SOL    HW215027   3.401   3.611  15.878
 1050SOL     OW15028   0.668   2.890   5.071
 1050SOL    HW115029   0.749   2.935   5.046
 1050SOL    HW215030   0.666   2.811   5.016
 1051SOL     OW15031   3.849   1.239   0.115
 1051SOL    HW115032   3.877   1.275   0.199
 1051SOL    HW215033   3.771   1.187   0.136
 1052SOL     OW15034   4.079   4.409  16.918
 1052SOL    HW115035   4.123   4.390  17.001
 1052SOL    HW215036   4.028   4.488  16.935
 1053SOL     OW15037   4.284   4.389  18.240
 1053SOL    HW115038   4.321   4.343  18.165
 1053SOL    HW215039   4.358   4.401  18.300
 1054SOL     OW15040   3.266   3.808   0.603
 1054SOL    HW115041   3.256   3.749   0.528
 1054SOL    HW215042   3.357   3.837   0.598
 1055SOL     OW15043   0.025   0.663  16.361
 1055SOL    HW115044   4.753   0.614  16.415
 1055SOL    HW215045   0.028   0.614  16.278
 1056SOL     OW15046   2.255   1.687   0.397
 1056SOL    HW115047   2.165   1.668   0.423
 1056SOL    HW215048   2.248   1.757   0.333
 1057SOL     OW15049   2.212   0.444   6.281
 1057SOL    HW115050   2.199   0.513   6.216
 1057SOL    HW215051   2.288   0.395   6.250
 1058SOL     OW15052   1.577   2.012   6.893
 1058SOL    HW115053   1.509   2.023   6.959
 1058SOL    HW215054   1.555   2.075   6.824
 1059SOL     OW15055   1.054   0.862  16.370
 1059SOL    HW115056   1.100   0.822  16.296
 1059SOL    HW215057   1.015   0.941  16.334
 1060SOL     OW15058   2.954   3.815  20.558
 1060SOL    HW115059   2.974   3.887  20.618
 1060SOL    HW215060   2.892   3.760  20.606
 1061SOL     OW15061   4.306   4.715  16.036
 1061SOL    HW115062   4.378   4.775  16.015
 1061SOL    HW215063   4.327   4.682  16.123
 1062SOL     OW15064   0.988   3.390   3.537
 1062SOL    HW115065   1.066   3.365   3.586
 1062SOL    HW215066   0.915   3.360   3.591
 1063SOL     OW15067   4.507   3.911  16.115
 1063SOL    HW115068   4.504   3.916  16.020
 1063SOL    HW215069   4.415   3.904  16.142
 1064SOL     OW15070   3.061   3.068   6.237
 1064SOL    HW115071   3.051   3.084   6.331
 1064SOL    HW215072   3.134   3.006   6.231
 1065SOL     OW15073   0.890   4.098  19.366
 1065SOL    HW115074   0.978   4.086  19.331
 1065SOL    HW215075   0.892   4.053  19.451
 1066SOL     OW15076   4.086   4.074   0.441
 1066SOL    HW115077   4.143   4.137   0.396
 1066SOL    HW215078   4.112   4.079   0.533
 1067SOL     OW15079   0.747   1.572  15.771
 1067SOL    HW115080   0.669   1.525  15.800
 1067SOL    HW215081   0.740   1.573  15.676
 1068SOL     OW15082   4.743   2.681  15.149
 1068SOL    HW115083   0.035   2.632  15.161
 1068SOL    HW215084   4.682   2.639  15.210
 1069SOL     OW15085   1.884   2.204   0.995
 1069SOL    HW115086   1.853   2.114   1.005
 1069SOL    HW215087   1.806   2.255   0.973
 1070SOL     OW15088   0.828   2.429  18.251
 1070SOL    HW115089   0.850   2.503  18.308
 1070SOL    HW215090   0.913   2.391  18.228
 1071SOL     OW15091   1.828   2.251  16.619
 1071SOL    HW115092   1.910   2.300  16.616
 1071SOL    HW215093   1.760   2.317  16.632
 1072SOL     OW15094   2.808   4.108   3.019
 1072SOL    HW115095   2.876   4.167   2.987
 1072SOL    HW215096   2.766   4.075   2.940
 1073SOL     OW15097   1.738   0.306   2.462
 1073SOL    HW115098   1.717   0.348   2.545
 1073SOL    HW215099   1.735   0.377   2.398
 1074SOL     OW15100   4.443   0.890   4.347
 1074SOL    HW115101   4.538   0.878   4.346
 1074SOL    HW215102   4.416   0.871   4.257
 1075SOL     OW15103   2.693   2.364  20.050
 1075SOL    HW115104   2.735   2.315  20.121
 1075SOL    HW215105   2.754   2.435  20.030
 1076SOL     OW15106   1.800   1.009  21.136
 1076SOL    HW115107   1.827   0.969  21.053
 1076SOL    HW215108   1.785   1.101  21.115
 1077SOL     OW15109   0.607   0.007   7.771
 1077SOL    HW115110   0.613   4.709   7.810
 1077SOL    HW215111   0.574   4.781   7.682
 1078SOL     OW15112   4.053   4.286   3.372
 1078SOL    HW115113   4.090   4.222   3.312
 1078SOL    HW215114   3.980   4.325   3.324
 1079SOL     OW15115   2.270   0.708  14.350
 1079SOL    HW115116   2.225   0.630  14.318
 1079SOL    HW215117   2.357   0.703  14.310
 1080SOL     OW15118   4.219   4.390  17.167
 1080SOL    HW115119   4.128   4.404  17.193
 1080SOL    HW215120   4.265   4.467  17.199
 1081SOL     OW15121   1.574   2.319   2.942
 1081SOL    HW115122   1.586   2.413   2.929
 1081SOL    HW215123   1.507   2.313   3.010
 1082SOL     OW15124   3.462   3.337  19.023
 1082SOL    HW115125   3.435   3.303  19.108
 1082SOL    HW215126   3.380   3.358  18.979
 1083SOL     OW15127   0.717   2.749   3.284
 1083SOL    HW115128   0.692   2.825   3.337
 1083SOL    HW215129   0.766   2.787   3.211
 1084SOL     OW15130   3.931   3.748   4.471
 1084SOL    HW115131   3.848   3.712   4.439
 1084SOL    HW215132   3.936   3.835   4.431
 1085SOL     OW15133   3.897   3.091  12.368
 1085SOL    HW115134   3.806   3.117  12.382
 1085SOL    HW215135   3.941   3.171  12.341
 1086SOL     OW15136   2.155   4.538   5.440
 1086SOL    HW115137   2.236   4.584   5.420
 1086SOL    HW215138   2.157   4.460   5.385
 1087SOL     OW15139   1.428   0.280  20.290
 1087SOL    HW115140   1.385   0.204  20.250
 1087SOL    HW215141   1.368   0.353  20.274
 1088SOL     OW15142   2.365   0.361  18.421
 1088SOL    HW115143   2.324   0.438  18.461
 1088SOL    HW215144   2.403   0.394  18.339
 1089SOL     OW15145   4.316   1.488   0.435
 1089SOL    HW115146   4.326   1.510   0.528
 1089SOL    HW215147   4.294   1.571   0.393
 1090SOL     OW15148   0.409   0.607  16.139
 1090SOL    HW115149   0.444   0.530  16.094
 1090SOL    HW215150   0.439   0.597  16.230
 1091SOL     OW15151   1.504   3.366  17.976
 1091SOL    HW115152   1.526   3.289  17.923
 1091SOL    HW215153   1.586   3.389  18.020
 1092SOL     OW15154   1.307   1.936   3.024
 1092SOL    HW115155   1.379   1.915   2.964
 1092SOL    HW215156   1.348   1.944   3.110
 1093SOL     OW15157   4.484   0.028  20.173
 1093SOL    HW115158   4.482   0.026  20.269
 1093SOL    HW215159   4.518   4.732  20.147
 1094SOL     OW15160   0.964   3.850   2.676
 1094SOL    HW115161   0.955   3.938   2.713
 1094SOL    HW215162   0.998   3.864   2.588
 1095SOL     OW15163   1.208   3.919  17.840
 1095SOL    HW115164   1.225   3.899  17.932
 1095SOL    HW215165   1.293   3.944  17.804
 1096SOL     OW15166   0.478   1.270   0.028
 1096SOL    HW115167   0.561   1.243  21.247
 1096SOL    HW215168   0.480   1.366   0.027
 1097SOL     OW15169   1.030   0.378   4.738
 1097SOL    HW115170   1.106   0.335   4.778
 1097SOL    HW215171   1.055   0.389   4.646
 1098SOL     OW15172   0.070   3.786   5.592
 1098SOL    HW115173   0.121   3.720   5.545
 1098SOL    HW215174   0.071   3.757   5.683
 1099SOL     OW15175   4.573   3.527   4.514
 1099SOL    HW115176   4.492   3.574   4.493
 1099SOL    HW215177   4.627   3.591   4.559
 1100SOL     OW15178   1.274   3.389  16.803
 1100SOL    HW115179   1.263   3.362  16.712
 1100SOL    HW215180   1.208   3.339  16.850
 1101SOL     OW15181   2.638   2.064   6.999
 1101SOL    HW115182   2.664   1.985   7.046
 1101SOL    HW215183   2.564   2.037   6.944
 1102SOL     OW15184   3.957   3.743  17.889
 1102SOL    HW115185   3.998   3.658  17.871
 1102SOL    HW215186   3.992   3.769  17.974
 1103SOL     OW15187   0.130   3.986   5.033
 1103SOL    HW115188   0.126   3.957   5.124
 1103SOL    HW215189   0.063   4.054   5.026
 1104SOL     OW15190   3.044   1.317   4.945
 1104SOL    HW115191   2.993   1.237   4.954
 1104SOL    HW215192   3.084   1.310   4.858
 1105SOL     OW15193   0.224   0.260  15.194
 1105SOL    HW115194   0.251   0.208  15.270
 1105SOL    HW215195   0.197   0.344  15.231
 1106SOL     OW15196   2.173   3.910  18.238
 1106SOL    HW115197   2.122   3.830  18.227
 1106SOL    HW215198   2.241   3.887  18.301
 1107SOL     OW15199   4.334   4.659   5.111
 1107SOL    HW115200   4.278   4.659   5.033
 1107SOL    HW215201   4.349   4.566   5.129
 1108SOL     OW15202   0.473   3.944   2.422
 1108SOL    HW115203   0.410   3.994   2.474
 1108SOL    HW215204   0.435   3.941   2.334
 1109SOL     OW15205   0.481   1.362  16.809
 1109SOL    HW115206   0.392   1.338  16.835
 1109SOL    HW215207   0.483   1.458  16.815
 1110SOL     OW15208   3.829   0.522  19.171
 1110SOL    HW115209   3.790   0.483  19.249
 1110SOL    HW215210   3.760   0.576  19.133
 1111SOL     OW15211   2.438   0.872  20.006
 1111SOL    HW115212   2.486   0.948  20.038
 1111SOL    HW215213   2.448   0.807  20.076
 1112SOL     OW15214   4.568   4.487  17.995
 1112SOL    HW115215   4.491   4.431  18.006
 1112SOL    HW215216   4.562   4.519  17.905
 1113SOL     OW15217   3.151   0.107  15.572
 1113SOL    HW115218   3.172   0.034  15.631
 1113SOL    HW215219   3.232   0.157  15.566
 1114SOL     OW15220   1.949   3.379  20.673
 1114SOL    HW115221   1.979   3.430  20.749
 1114SOL    HW215222   1.855   3.370  20.686
 1115SOL     OW15223   3.729   0.383   1.932
 1115SOL    HW115224   3.678   0.361   1.854
 1115SOL    HW215225   3.782   0.458   1.905
 1116SOL     OW15226   0.769   1.455   4.918
 1116SOL    HW115227   0.856   1.474   4.883
 1116SOL    HW215228   0.785   1.388   4.985
 1117SOL     OW15229   3.156   0.922  16.025
 1117SOL    HW115230   3.128   0.831  16.027
 1117SOL    HW215231   3.075   0.972  16.016
 1118SOL     OW15232   1.356   0.417  20.897
 1118SOL    HW115233   1.316   0.463  20.823
 1118SOL    HW215234   1.295   0.346  20.917
 1119SOL     OW15235   1.615   4.215   3.199
 1119SOL    HW115236   1.556   4.153   3.241
 1119SOL    HW215237   1.675   4.242   3.268
 1120SOL     OW15238   3.455   3.464   3.534
 1120SOL    HW115239   3.405   3.535   3.494
 1120SOL    HW215240   3.502   3.505   3.607
 1121SOL     OW15241   0.466   2.160   4.154
 1121SOL    HW115242   0.389   2.103   4.159
 1121SOL    HW215243   0.498   2.149   4.065
 1122SOL     OW15244   4.498   1.554   0.984
 1122SOL    HW115245   4.412   1.547   1.025
 1122SOL    HW215246   4.524   1.463   0.969
 1123SOL     OW15247   0.513   2.926  17.591
 1123SOL    HW115248   0.418   2.928  17.583
 1123SOL    HW215249   0.534   3.008  17.636
 1124SOL     OW15250   1.344   2.326   4.822
 1124SOL    HW115251   1.300   2.335   4.737
 1124SOL    HW215252   1.436   2.314   4.800
 1125SOL     OW15253   0.861   1.597   4.050
 1125SOL    HW115254   0.936   1.647   4.018
 1125SOL    HW215255   0.785   1.651   4.028
 1126SOL     OW15256   1.251   1.194   1.514
 1126SOL    HW115257   1.199   1.197   1.594
 1126SOL    HW215258   1.235   1.107   1.477
 1127SOL     OW15259   1.723   3.513  16.856
 1127SOL    HW115260   1.724   3.586  16.917
 1127SOL    HW215261   1.815   3.498  16.835
 1128SOL     OW15262   3.045   3.254  17.776
 1128SOL    HW115263   2.981   3.318  17.743
 1128SOL    HW215264   3.104   3.305  17.832
 1129SOL     OW15265   3.787   2.049   8.844
 1129SOL    HW115266   3.738   1.967   8.842
 1129SOL    HW215267   3.849   2.042   8.772
 1130SOL     OW15268   3.290   1.029   4.082
 1130SOL    HW115269   3.275   0.935   4.078
 1130SOL    HW215270   3.246   1.057   4.162
 1131SOL     OW15271   2.751   0.186   0.591
 1131SOL    HW115272   2.822   0.165   0.530
 1131SOL    HW215273   2.768   0.131   0.667
 1132SOL     OW15274   1.275   2.120   2.413
 1132SOL    HW115275   1.238   2.036   2.440
 1132SOL    HW215276   1.237   2.183   2.475
 1133SOL     OW15277   4.760   0.083   7.542
 1133SOL    HW115278   4.718   0.005   7.578
 1133SOL    HW215279   0.037   0.106   7.607
 1134SOL     OW15280   3.854   4.059  12.530
 1134SOL    HW115281   3.785   4.057  12.596
 1134SOL    HW215282   3.910   3.985  12.551
 1135SOL     OW15283   1.549   3.889   0.775
 1135SOL    HW115284   1.509   3.851   0.853
 1135SOL    HW215285   1.521   3.981   0.775
 1136SOL     OW15286   2.516   1.458   0.995
 1136SOL    HW115287   2.530   1.541   0.949
 1136SOL    HW215288   2.483   1.483   1.081
 1137SOL     OW15289   0.756   2.186   1.955
 1137SOL    HW115290   0.669   2.223   1.968
 1137SOL    HW215291   0.792   2.233   1.880
 1138SOL     OW15292   1.937   0.430  17.611
 1138SOL    HW115293   1.971   0.426  17.700
 1138SOL    HW215294   1.848   0.394  17.618
 1139SOL     OW15295   3.133   3.284   6.097
 1139SOL    HW115296   3.112   3.208   6.151
 1139SOL    HW215297   3.223   3.269   6.067
 1140SOL     OW15298   3.767   1.500   3.575
 1140SOL    HW115299   3.743   1.411   3.602
 1140SOL    HW215300   3.846   1.489   3.522
 1141SOL     OW15301   4.721   0.786   5.403
 1141SOL    HW115302   4.662   0.838   5.457
 1141SOL    HW215303   4.780   0.850   5.364
 1142SOL     OW15304   1.608   2.973  19.442
 1142SOL    HW115305   1.632   3.060  19.410
 1142SOL    HW215306   1.682   2.947  19.497
 1143SOL     OW15307   0.985   2.312   5.811
 1143SOL    HW115308   1.016   2.302   5.901
 1143SOL    HW215309   1.064   2.308   5.758
 1144SOL     OW15310   2.817   4.364   5.678
 1144SOL    HW115311   2.866   4.284   5.658
 1144SOL    HW215312   2.809   4.364   5.773
 1145SOL     OW15313   1.414   0.915  18.759
 1145SOL    HW115314   1.452   0.935  18.673
 1145SOL    HW215315   1.459   0.836  18.787
 1146SOL     OW15316   2.895   1.815  18.632
 1146SOL    HW115317   2.834   1.889  18.631
 1146SOL    HW215318   2.981   1.855  18.644
 1147SOL     OW15319   1.661   2.322   3.295
 1147SOL    HW115320   1.741   2.337   3.244
 1147SOL    HW215321   1.607   2.267   3.238
 1148SOL     OW15322   3.034   0.163   0.247
 1148SOL    HW115323   3.089   0.190   0.173
 1148SOL    HW215324   2.969   0.232   0.255
 1149SOL     OW15325   3.691   2.930   0.777
 1149SOL    HW115326   3.698   2.994   0.706
 1149SOL    HW215327   3.626   2.867   0.746
 1150SOL     OW15328   1.992   1.040   3.791
 1150SOL    HW115329   1.945   1.070   3.713
 1150SOL    HW215330   1.924   1.000   3.845
 1151SOL     OW15331   3.946   3.966  18.911
 1151SOL    HW115332   3.994   3.987  18.991
 1151SOL    HW215333   3.925   4.051  18.873
 1152SOL     OW15334   2.881   1.405  16.531
 1152SOL    HW115335   2.953   1.447  16.578
 1152SOL    HW215336   2.860   1.465  16.460
 1153SOL     OW15337   0.515   0.548   0.120
 1153SOL    HW115338   0.483   0.578   0.035
 1153SOL    HW215339   0.491   0.455   0.123
 1154SOL     OW15340   4.521   4.711   3.666
 1154SOL    HW115341   4.547   0.011   3.643
 1154SOL    HW215342   4.603   4.662   3.669
 1155SOL     OW15343   2.762   1.590   4.699
 1155SOL    HW115344   2.703   1.637   4.758
 1155SOL    HW215345   2.731   1.499   4.702
 1156SOL     OW15346   4.097   3.978   5.589
 1156SOL    HW115347   4.006   3.963   5.562
 1156SOL    HW215348   4.105   3.931   5.672
 1157SOL     OW15349   0.528   4.488  13.515
 1157SOL    HW115350   0.586   4.510  13.442
 1157SOL    HW215351   0.514   4.394  13.508
 1158SOL     OW15352   0.841   3.517  14.951
 1158SOL    HW115353   0.796   3.463  14.886
 1158SOL    HW215354   0.934   3.499  14.937
 1159SOL     OW15355   1.038   0.962  15.623
 1159SOL    HW115356   1.080   1.024  15.563
 1159SOL    HW215357   0.950   0.998  15.635
 1160SOL     OW15358   0.349   2.617  20.158
 1160SOL    HW115359   0.441   2.589  20.156
 1160SOL    HW215360   0.301   2.540  20.189
 1161SOL     OW15361   0.811   0.876   5.918
 1161SOL    HW115362   0.768   0.946   5.868
 1161SOL    HW215363   0.831   0.809   5.853
 1162SOL     OW15364   3.547   3.606   2.642
 1162SOL    HW115365   3.513   3.536   2.586
 1162SOL    HW215366   3.507   3.686   2.608
 1163SOL     OW15367   1.946   2.332  18.819
 1163SOL    HW115368   1.877   2.333  18.752
 1163SOL    HW215369   2.028   2.338  18.769
 1164SOL     OW15370   0.871   0.088  17.710
 1164SOL    HW115371   0.930   0.013  17.721
 1164SOL    HW215372   0.870   0.103  17.615
 1165SOL     OW15373   3.713   2.630   6.753
 1165SOL    HW115374   3.744   2.585   6.832
 1165SOL    HW215375   3.691   2.718   6.783
 1166SOL     OW15376   1.507   4.357  13.316
 1166SOL    HW115377   1.515   4.422  13.246
 1166SOL    HW215378   1.420   4.372  13.352
 1167SOL     OW15379   3.713   1.947  15.327
 1167SOL    HW115380   3.702   1.866  15.277
 1167SOL    HW215381   3.683   2.016  15.268
 1168SOL     OW15382   0.934   4.547   0.819
 1168SOL    HW115383   0.890   4.473   0.860
 1168SOL    HW215384   1.027   4.524   0.821
 1169SOL     OW15385   4.441   1.108  14.980
 1169SOL    HW115386   4.486   1.064  15.052
 1169SOL    HW215387   4.375   1.162  15.023
 1170SOL     OW15388   1.104   3.896   6.411
 1170SOL    HW115389   1.078   3.901   6.503
 1170SOL    HW215390   1.033   3.939   6.364
 1171SOL     OW15391   0.970   3.383  14.279
 1171SOL    HW115392   0.972   3.474  14.250
 1171SOL    HW215393   0.888   3.348  14.243
 1172SOL     OW15394   0.749   2.457   2.171
 1172SOL    HW115395   0.703   2.394   2.116
 1172SOL    HW215396   0.695   2.464   2.250
 1173SOL     OW15397   4.184   4.667   0.557
 1173SOL    HW115398   4.186   4.634   0.467
 1173SOL    HW215399   4.167   4.761   0.548
 1174SOL     OW15400   4.676   3.926   7.963
 1174SOL    HW115401   4.758   3.947   7.918
 1174SOL    HW215402   4.642   3.849   7.917
 1175SOL     OW15403   1.124   4.293  20.917
 1175SOL    HW115404   1.047   4.243  20.944
 1175SOL    HW215405   1.167   4.237  20.852
 1176SOL     OW15406   4.122   0.097  18.820
 1176SOL    HW115407   4.209   0.125  18.791
 1176SOL    HW215408   4.103   0.019  18.768
 1177SOL     OW15409   4.041   1.887   5.930
 1177SOL    HW115410   4.095   1.952   5.884
 1177SOL    HW215411   4.030   1.816   5.867
 1178SOL     OW15412   0.783   1.258  15.544
 1178SOL    HW115413   0.689   1.273  15.536
 1178SOL    HW215414   0.790   1.179  15.597
 1179SOL     OW15415   4.046   1.970  19.110
 1179SOL    HW115416   4.115   2.026  19.075
 1179SOL    HW215417   3.979   1.970  19.042
 1180SOL     OW15418   0.014   3.958   2.017
 1180SOL    HW115419   4.710   3.977   2.018
 1180SOL    HW215420   0.032   3.925   2.105
 1181SOL     OW15421   3.407   4.307  20.059
 1181SOL    HW115422   3.483   4.309  20.001
 1181SOL    HW215423   3.405   4.217  20.092
 1182SOL     OW15424   2.716   3.327   3.944
 1182SOL    HW115425   2.714   3.348   3.851
 1182SOL    HW215426   2.786   3.382   3.980
 1183SOL     OW15427   2.094   2.340  15.777
 1183SOL    HW115428   2.002   2.358  15.758
 1183SOL    HW215429   2.113   2.258  15.731
 1184SOL     OW15430   4.399   2.154  17.254
 1184SOL    HW115431   4.458   2.229  17.266
 1184SOL    HW215432   4.454   2.086  17.217
 1185SOL     OW15433   1.452   4.457  14.212
 1185SOL    HW115434   1.524   4.503  14.169
 1185SOL    HW215435   1.381   4.522  14.216
 1186SOL     OW15436   1.814   3.546  20.126
 1186SOL    HW115437   1.854   3.483  20.066
 1186SOL    HW215438   1.788   3.494  20.202
 1187SOL     OW15439   3.527   0.908  17.672
 1187SOL    HW115440   3.486   0.857  17.742
 1187SOL    HW215441   3.568   0.842  17.616
 1188SOL     OW15442   3.440   3.393   1.639
 1188SOL    HW115443   3.355   3.351   1.655
 1188SOL    HW215444   3.487   3.332   1.583
 1189SOL     OW15445   0.100   2.078  17.215
 1189SOL    HW115446   0.166   2.089  17.284
 1189SOL    HW215447   0.137   2.012  17.157
 1190SOL     OW15448   0.832   0.127  17.422
 1190SOL    HW115449   0.885   0.203  17.446
 1190SOL    HW215450   0.745   0.163  17.402
 1191SOL     OW15451   1.451   3.299  15.667
 1191SOL    HW115452   1.464   3.342  15.583
 1191SOL    HW215453   1.485   3.210  15.654
 1192SOL     OW15454   2.674   4.179   3.261
 1192SOL    HW115455   2.734   4.194   3.334
 1192SOL    HW215456   2.729   4.142   3.192
 1193SOL     OW15457   0.330   4.308   1.364
 1193SOL    HW115458   0.266   4.271   1.424
 1193SOL    HW215459   0.332   4.401   1.384
 1194SOL     OW15460   2.114   2.138   1.161
 1194SOL    HW115461   2.107   2.051   1.121
 1194SOL    HW215462   2.036   2.185   1.131
 1195SOL     OW15463   2.749   4.333   4.425
 1195SOL    HW115464   2.670   4.362   4.380
 1195SOL    HW215465   2.816   4.395   4.398
 1196SOL     OW15466   4.373   3.067  17.151
 1196SOL    HW115467   4.384   3.035  17.241
 1196SOL    HW215468   4.294   3.120  17.153
 1197SOL     OW15469   4.183   0.763  19.734
 1197SOL    HW115470   4.156   0.710  19.659
 1197SOL    HW215471   4.274   0.739  19.750
 1198SOL     OW15472   2.460   2.037   0.377
 1198SOL    HW115473   2.408   1.979   0.322
 1198SOL    HW215474   2.517   1.978   0.426
 1199SOL     OW15475   2.737   2.548   3.129
 1199SOL    HW115476   2.666   2.537   3.192
 1199SOL    HW215477   2.693   2.551   3.044
 1200SOL     OW15478   1.113   1.512  16.197
 1200SOL    HW115479   1.203   1.544  16.190
 1200SOL    HW215480   1.079   1.515  16.108
 1201SOL     OW15481   0.583   2.007  17.671
 1201SOL    HW115482   0.512   2.034  17.729
 1201SOL    HW215483   0.610   2.088  17.627
 1202SOL     OW15484   4.215   3.502  15.016
 1202SOL    HW115485   4.255   3.423  14.979
 1202SOL    HW215486   4.285   3.543  15.066
 1203SOL     OW15487   0.668   1.951  18.471
 1203SOL    HW115488   0.607   1.910  18.410
 1203SOL    HW215489   0.701   2.028  18.424
 1204SOL     OW15490   4.060   0.695   3.666
 1204SOL    HW115491   4.072   0.765   3.602
 1204SOL    HW215492   3.999   0.731   3.730
 1205SOL     OW15493   0.228   1.824  16.326
 1205SOL    HW115494   0.323   1.833  16.334
 1205SOL    HW215495   0.193   1.895  16.380
 1206SOL     OW15496   3.185   1.671   4.085
 1206SOL    HW115497   3.261   1.726   4.067
 1206SOL    HW215498   3.150   1.649   3.999
 1207SOL     OW15499   0.532   0.680   6.179
 1207SOL    HW115500   0.618   0.703   6.143
 1207SOL    HW215501   0.514   0.748   6.244
 1208SOL     OW15502   0.649   4.425  19.039
 1208SOL    HW115503   0.611   4.373  19.110
 1208SOL    HW215504   0.742   4.428  19.059
 1209SOL     OW15505   1.449   1.425  15.736
 1209SOL    HW115506   1.389   1.358  15.703
 1209SOL    HW215507   1.520   1.427  15.672
 1210SOL     OW15508   0.490   2.997  15.095
 1210SOL    HW115509   0.574   3.039  15.076
 1210SOL    HW215510   0.439   3.064  15.140
 1211SOL     OW15511   1.593   3.310   4.521
 1211SOL    HW115512   1.538   3.252   4.574
 1211SOL    HW215513   1.534   3.345   4.455
 1212SOL     OW15514   1.542   2.347  13.281
 1212SOL    HW115515   1.628   2.307  13.267
 1212SOL    HW215516   1.479   2.277  13.264
 1213SOL     OW15517   0.045   0.935  18.947
 1213SOL    HW115518   0.041   0.997  19.020
 1213SOL    HW215519   0.125   0.958  18.900
 1214SOL     OW15520   4.178   0.045  17.918
 1214SOL    HW115521   4.209   4.756  17.963
 1214SOL    HW215522   4.097   0.068  17.964
 1215SOL     OW15523   4.151   2.285   2.989
 1215SOL    HW115524   4.142   2.355   2.924
 1215SOL    HW215525   4.229   2.308   3.039
 1216SOL     OW15526   0.726   1.085   4.139
 1216SOL    HW115527   0.718   1.127   4.225
 1216SOL    HW215528   0.819   1.093   4.117
 1217SOL     OW15529   1.448   4.768   3.589
 1217SOL    HW115530   1.414   4.744   3.503
 1217SOL    HW215531   1.503   4.694   3.615
 1218SOL     OW15532   2.403   0.840  17.993
 1218SOL    HW115533   2.497   0.860  17.991
 1218SOL    HW215534   2.394   0.763  17.936
 1219SOL     OW15535   2.701   1.293   4.741
 1219SOL    HW115536   2.782   1.248   4.718
 1219SOL    HW215537   2.635   1.255   4.683
 1220SOL     OW15538   1.388   0.950   2.120
 1220SOL    HW115539   1.409   1.042   2.104
 1220SOL    HW215540   1.300   0.938   2.084
 1221SOL     OW15541   3.294   1.041  15.553
 1221SOL    HW115542   3.375   1.014  15.511
 1221SOL    HW215543   3.290   0.989  15.633
 1222SOL     OW15544   4.302   1.435   8.720
 1222SOL    HW115545   4.305   1.343   8.745
 1222SOL    HW215546   4.353   1.480   8.787
 1223SOL     OW15547   2.129   0.908   3.516
 1223SOL    HW115548   2.104   0.817   3.502
 1223SOL    HW215549   2.181   0.906   3.596
 1224SOL     OW15550   4.443   4.648   1.195
 1224SOL    HW115551   4.439   4.620   1.286
 1224SOL    HW215552   4.487   4.733   1.197
 1225SOL     OW15553   0.337   0.182   1.221
 1225SOL    HW115554   0.432   0.173   1.233
 1225SOL    HW215555   0.325   0.271   1.188
 1226SOL     OW15556   0.617   1.414   8.841
 1226SOL    HW115557   0.587   1.409   8.932
 1226SOL    HW215558   0.539   1.440   8.791
 1227SOL     OW15559   2.346   3.354   2.642
 1227SOL    HW115560   2.415   3.367   2.577
 1227SOL    HW215561   2.358   3.264   2.672
 1228SOL     OW15562   0.002   2.711  17.807
 1228SOL    HW115563   4.764   2.707  17.715
 1228SOL    HW215564   0.030   2.802  17.819
 1229SOL     OW15565   4.331   3.986  17.335
 1229SOL    HW115566   4.366   3.950  17.254
 1229SOL    HW215567   4.373   3.936  17.404
 1230SOL     OW15568   0.162   0.018   7.309
 1230SOL    HW115569   0.096   4.742   7.329
 1230SOL    HW215570   0.230   0.004   7.375
 1231SOL     OW15571   3.825   4.380  14.300
 1231SOL    HW115572   3.878   4.332  14.237
 1231SOL    HW215573   3.736   4.377  14.265
 1232SOL     OW15574   1.246   2.090   4.513
 1232SOL    HW115575   1.337   2.115   4.528
 1232SOL    HW215576   1.214   2.063   4.599
 1233SOL     OW15577   2.662   1.977   6.066
 1233SOL    HW115578   2.725   1.908   6.046
 1233SOL    HW215579   2.715   2.056   6.074
 1234SOL     OW15580   2.145   2.089   0.090
 1234SOL    HW115581   2.084   2.157   0.121
 1234SOL    HW215582   2.219   2.138   0.054
 1235SOL     OW15583   4.029   1.758  19.678
 1235SOL    HW115584   4.071   1.696  19.618
 1235SOL    HW215585   3.947   1.781  19.635
 1236SOL     OW15586   2.489   2.736   4.215
 1236SOL    HW115587   2.578   2.725   4.182
 1236SOL    HW215588   2.499   2.787   4.295
 1237SOL     OW15589   4.322   0.134   5.546
 1237SOL    HW115590   4.266   0.086   5.485
 1237SOL    HW215591   4.337   0.219   5.504
 1238SOL     OW15592   0.279   2.385  20.269
 1238SOL    HW115593   0.303   2.312  20.326
 1238SOL    HW215594   0.209   2.350  20.213
 1239SOL     OW15595   4.667   0.597  15.862
 1239SOL    HW115596   4.664   0.691  15.847
 1239SOL    HW215597   4.631   0.558  15.782
 1240SOL     OW15598   2.246   3.508   6.553
 1240SOL    HW115599   2.217   3.518   6.644
 1240SOL    HW215600   2.339   3.487   6.559
 1241SOL     OW15601   0.054   0.438   0.491
 1241SOL    HW115602   0.144   0.460   0.516
 1241SOL    HW215603   0.063   0.382   0.414
 1242SOL     OW15604   3.197   3.006  17.277
 1242SOL    HW115605   3.142   2.936  17.241
 1242SOL    HW215606   3.136   3.063  17.324
 1243SOL     OW15607   0.612   3.223   0.203
 1243SOL    HW115608   0.649   3.209   0.290
 1243SOL    HW215609   0.525   3.184   0.208
 1244SOL     OW15610   1.195   4.271  16.794
 1244SOL    HW115611   1.217   4.310  16.710
 1244SOL    HW215612   1.250   4.193  16.800
 1245SOL     OW15613   2.415   2.627   5.763
 1245SOL    HW115614   2.344   2.563   5.770
 1245SOL    HW215615   2.404   2.684   5.839
 1246SOL     OW15616   3.923   0.163   2.498
 1246SOL    HW115617   3.831   0.144   2.515
 1246SOL    HW215618   3.945   0.111   2.420
 1247SOL     OW15619   0.143   2.839   2.803
 1247SOL    HW115620   0.112   2.833   2.713
 1247SOL    HW215621   0.064   2.832   2.856
 1248SOL     OW15622   1.376   1.077  17.860
 1248SOL    HW115623   1.310   1.147  17.863
 1248SOL    HW215624   1.375   1.046  17.769
 1249SOL     OW15625   0.828   0.997   4.435
 1249SOL    HW115626   0.850   0.917   4.483
 1249SOL    HW215627   0.907   1.016   4.384
 1250SOL     OW15628   3.225   0.273   2.694
 1250SOL    HW115629   3.145   0.309   2.734
 1250SOL    HW215630   3.272   0.350   2.662
 1251SOL     OW15631   2.785   1.447  19.584
 1251SOL    HW115632   2.698   1.430  19.620
 1251SOL    HW215633   2.778   1.533  19.542
 1252SOL     OW15634   0.814   1.302   3.931
 1252SOL    HW115635   0.868   1.380   3.914
 1252SOL    HW215636   0.782   1.313   4.020
 1253SOL     OW15637   3.405   2.314   3.809
 1253SOL    HW115638   3.324   2.333   3.761
 1253SOL    HW215639   3.421   2.221   3.792
 1254SOL     OW15640   3.281   2.495  20.199
 1254SOL    HW115641   3.313   2.505  20.288
 1254SOL    HW215642   3.293   2.402  20.180
 1255SOL     OW15643   4.593   4.068   2.522
 1255SOL    HW115644   4.564   3.988   2.479
 1255SOL    HW215645   4.581   4.051   2.615
 1256SOL     OW15646   2.064   1.819   5.913
 1256SOL    HW115647   1.974   1.791   5.895
 1256SOL    HW215648   2.094   1.760   5.982
 1257SOL     OW15649   0.438   4.061   3.261
 1257SOL    HW115650   0.375   3.992   3.240
 1257SOL    HW215651   0.523   4.019   3.253
 1258SOL     OW15652   4.682   1.858  17.404
 1258SOL    HW115653   4.591   1.830  17.391
 1258SOL    HW215654   4.674   1.941  17.451
 1259SOL     OW15655   0.736   2.474   5.703
 1259SOL    HW115656   0.812   2.416   5.713
 1259SOL    HW215657   0.774   2.562   5.698
 1260SOL     OW15658   2.219   4.668  17.860
 1260SOL    HW115659   2.281   4.729  17.820
 1260SOL    HW215660   2.274   4.604  17.904
 1261SOL     OW15661   3.394   1.761  18.068
 1261SOL    HW115662   3.403   1.752  17.973
 1261SOL    HW215663   3.484   1.761  18.101
 1262SOL     OW15664   4.714   0.239  17.575
 1262SOL    HW115665   4.626   0.242  17.612
 1262SOL    HW215666   4.717   0.157  17.526
 1263SOL     OW15667   3.871   0.539   0.675
 1263SOL    HW115668   3.901   0.498   0.594
 1263SOL    HW215669   3.917   0.623   0.679
 1264SOL     OW15670   1.427   4.102  20.023
 1264SOL    HW115671   1.341   4.143  20.036
 1264SOL    HW215672   1.471   4.159  19.959
 1265SOL     OW15673   1.742   0.860  19.416
 1265SOL    HW115674   1.739   0.799  19.342
 1265SOL    HW215675   1.815   0.829  19.469
 1266SOL     OW15676   3.592   1.897  16.079
 1266SOL    HW115677   3.497   1.890  16.087
 1266SOL    HW215678   3.624   1.807  16.090
 1267SOL     OW15679   3.412   3.637   1.234
 1267SOL    HW115680   3.387   3.710   1.177
 1267SOL    HW215681   3.436   3.567   1.174
 1268SOL     OW15682   0.968   2.253   3.649
 1268SOL    HW115683   0.930   2.236   3.735
 1268SOL    HW215684   1.028   2.180   3.634
 1269SOL     OW15685   4.136   2.578  20.386
 1269SOL    HW115686   4.136   2.487  20.357
 1269SOL    HW215687   4.094   2.626  20.314
 1270SOL     OW15688   1.496   4.017   3.355
 1270SOL    HW115689   1.487   3.966   3.274
 1270SOL    HW215690   1.415   4.000   3.403
 1271SOL     OW15691   1.351   0.739   5.253
 1271SOL    HW115692   1.434   0.750   5.206
 1271SOL    HW215693   1.373   0.681   5.326
 1272SOL     OW15694   0.297   2.465   6.256
 1272SOL    HW115695   0.239   2.507   6.320
 1272SOL    HW215696   0.363   2.420   6.309
 1273SOL     OW15697   3.476   3.002  17.713
 1273SOL    HW115698   3.550   3.007  17.773
 1273SOL    HW215699   3.508   2.950  17.639
 1274SOL     OW15700   2.272   4.715   8.350
 1274SOL    HW115701   2.212   4.669   8.409
 1274SOL    HW215702   2.346   4.740   8.406
 1275SOL     OW15703   3.257   3.081   4.154
 1275SOL    HW115704   3.341   3.125   4.168
 1275SOL    HW215705   3.250   3.019   4.226
 1276SOL     OW15706   2.704   1.939   2.649
 1276SOL    HW115707   2.706   1.918   2.556
 1276SOL    HW215708   2.619   1.981   2.662
 1277SOL     OW15709   0.599   0.391  20.970
 1277SOL    HW115710   0.595   0.447  20.893
 1277SOL    HW215711   0.578   0.449  21.043
 1278SOL     OW15712   2.664   0.504   5.474
 1278SOL    HW115713   2.756   0.518   5.496
 1278SOL    HW215714   2.650   0.410   5.489
 1279SOL     OW15715   2.233   2.513  18.072
 1279SOL    HW115716   2.148   2.472  18.058
 1279SOL    HW215717   2.278   2.454  18.133
 1280SOL     OW15718   4.216   3.018   7.510
 1280SOL    HW115719   4.161   3.096   7.513
 1280SOL    HW215720   4.239   3.008   7.418
 1281SOL     OW15721   1.564   1.748  20.719
 1281SOL    HW115722   1.593   1.657  20.727
 1281SOL    HW215723   1.583   1.771  20.628
 1282SOL     OW15724   0.208   1.739   0.930
 1282SOL    HW115725   0.169   1.789   1.002
 1282SOL    HW215726   0.234   1.656   0.969
 1283SOL     OW15727   3.326   4.329  17.821
 1283SOL    HW115728   3.336   4.302  17.912
 1283SOL    HW215729   3.400   4.388  17.805
 1284SOL     OW15730   1.610   3.143   3.934
 1284SOL    HW115731   1.665   3.065   3.944
 1284SOL    HW215732   1.669   3.217   3.947
 1285SOL     OW15733   1.728   1.761   3.549
 1285SOL    HW115734   1.711   1.712   3.629
 1285SOL    HW215735   1.768   1.697   3.490
 1286SOL     OW15736   4.337   3.794  20.359
 1286SOL    HW115737   4.259   3.836  20.323
 1286SOL    HW215738   4.311   3.766  20.447
 1287SOL     OW15739   0.077   2.551  20.410
 1287SOL    HW115740   0.090   2.549  20.315
 1287SOL    HW215741   0.160   2.519  20.446
 1288SOL     OW15742   4.653   4.114   4.966
 1288SOL    HW115743   4.625   4.050   4.901
 1288SOL    HW215744   4.644   4.199   4.922
 1289SOL     OW15745   1.785   1.463   6.809
 1289SOL    HW115746   1.873   1.466   6.846
 1289SOL    HW215747   1.740   1.396   6.861
 1290SOL     OW15748   0.555   3.327   6.462
 1290SOL    HW115749   0.506   3.248   6.483
 1290SOL    HW215750   0.489   3.388   6.429
 1291SOL     OW15751   3.987   0.553  18.202
 1291SOL    HW115752   3.900   0.559  18.241
 1291SOL    HW215753   4.027   0.638  18.218
 1292SOL     OW15754   4.224   4.135  18.700
 1292SOL    HW115755   4.314   4.103  18.691
 1292SOL    HW215756   4.176   4.061  18.736
 1293SOL     OW15757   3.607   2.778  18.241
 1293SOL    HW115758   3.691   2.741  18.213
 1293SOL    HW215759   3.588   2.734  18.324
 1294SOL     OW15760   3.413   3.699  14.998
 1294SOL    HW115761   3.420   3.776  14.941
 1294SOL    HW215762   3.475   3.716  15.069
 1295SOL     OW15763   0.003   2.130  13.241
 1295SOL    HW115764   0.072   2.177  13.287
 1295SOL    HW215765   4.722   2.194  13.232
 1296SOL     OW15766   2.064   4.177   2.432
 1296SOL    HW115767   1.969   4.185   2.429
 1296SOL    HW215768   2.093   4.249   2.488
 1297SOL     OW15769   4.393   3.509   5.687
 1297SOL    HW115770   4.471   3.563   5.674
 1297SOL    HW215771   4.353   3.543   5.767
 1298SOL     OW15772   2.554   0.285   6.138
 1298SOL    HW115773   2.545   0.221   6.068
 1298SOL    HW215774   2.647   0.284   6.160
 1299SOL     OW15775   2.958   1.484   2.706
 1299SOL    HW115776   2.941   1.423   2.777
 1299SOL    HW215777   2.888   1.549   2.713
 1300SOL     OW15778   1.832   3.658  18.400
 1300SOL    HW115779   1.757   3.599  18.410
 1300SOL    HW215780   1.794   3.740  18.368
 1301SOL     OW15781   0.687   4.009  16.978
 1301SOL    HW115782   0.766   3.955  16.974
 1301SOL    HW215783   0.680   4.047  16.891
 1302SOL     OW15784   3.273   0.527   3.174
 1302SOL    HW115785   3.178   0.519   3.181
 1302SOL    HW215786   3.290   0.621   3.178
 1303SOL     OW15787   3.609   3.994   2.066
 1303SOL    HW115788   3.585   3.929   2.000
 1303SOL    HW215789   3.633   3.942   2.143
 1304SOL     OW15790   3.864   0.451   2.892
 1304SOL    HW115791   3.887   0.457   2.799
 1304SOL    HW215792   3.815   0.531   2.910
 1305SOL     OW15793   1.857   2.432  20.045
 1305SOL    HW115794   1.936   2.473  20.011
 1305SOL    HW215795   1.881   2.401  20.132
 1306SOL     OW15796   2.925   4.086  18.133
 1306SOL    HW115797   2.921   3.991  18.127
 1306SOL    HW215798   2.920   4.116  18.042
 1307SOL     OW15799   2.544   1.009   3.683
 1307SOL    HW115800   2.558   0.927   3.636
 1307SOL    HW215801   2.520   1.072   3.615
 1308SOL     OW15802   3.360   4.103   3.242
 1308SOL    HW115803   3.341   4.046   3.317
 1308SOL    HW215804   3.388   4.043   3.173
 1309SOL     OW15805   2.967   2.037  16.302
 1309SOL    HW115806   3.047   2.009  16.347
 1309SOL    HW215807   2.964   1.984  16.222
 1310SOL     OW15808   2.413   1.422  20.420
 1310SOL    HW115809   2.489   1.470  20.453
 1310SOL    HW215810   2.434   1.405  20.328
 1311SOL     OW15811   1.777   1.653  20.392
 1311SOL    HW115812   1.804   1.724  20.451
 1311SOL    HW215813   1.690   1.629  20.423
 1312SOL     OW15814   1.198   0.155   4.007
 1312SOL    HW115815   1.116   0.205   4.011
 1312SOL    HW215816   1.181   0.076   4.058
 1313SOL     OW15817   1.645   1.342   0.763
 1313SOL    HW115818   1.626   1.427   0.723
 1313SOL    HW215819   1.664   1.362   0.855
 1314SOL     OW15820   2.861   3.916   9.646
 1314SOL    HW115821   2.890   3.853   9.580
 1314SOL    HW215822   2.939   3.936   9.697
 1315SOL     OW15823   1.662   3.972   4.235
 1315SOL    HW115824   1.700   3.884   4.239
 1315SOL    HW215825   1.577   3.959   4.192
 1316SOL     OW15826   0.507   0.729  21.080
 1316SOL    HW115827   0.523   0.784  21.003
 1316SOL    HW215828   0.428   0.766  21.120
 1317SOL     OW15829   0.625   1.518   7.090
 1317SOL    HW115830   0.581   1.576   7.028
 1317SOL    HW215831   0.663   1.449   7.036
 1318SOL     OW15832   2.543   3.743  19.194
 1318SOL    HW115833   2.515   3.800  19.122
 1318SOL    HW215834   2.468   3.741  19.254
 1319SOL     OW15835   1.915   0.266  20.645
 1319SOL    HW115836   1.836   0.253  20.698
 1319SOL    HW215837   1.987   0.245  20.705
 1320SOL     OW15838   3.080   2.654  13.820
 1320SOL    HW115839   3.096   2.703  13.901
 1320SOL    HW215840   2.985   2.659  13.808
 1321SOL     OW15841   0.758   1.569  12.983
 1321SOL    HW115842   0.698   1.526  12.923
 1321SOL    HW215843   0.810   1.628  12.927
 1322SOL     OW15844   0.172   3.246  20.370
 1322SOL    HW115845   0.092   3.224  20.418
 1322SOL    HW215846   0.219   3.305  20.429
 1323SOL     OW15847   1.124   2.258   8.051
 1323SOL    HW115848   1.082   2.256   8.137
 1323SOL    HW215849   1.210   2.296   8.067
 1324SOL     OW15850   0.270   1.592   6.101
 1324SOL    HW115851   0.189   1.591   6.051
 1324SOL    HW215852   0.257   1.526   6.169
 1325SOL     OW15853   1.951   3.000  10.019
 1325SOL    HW115854   2.030   3.028  10.065
 1325SOL    HW215855   1.915   2.930  10.073
 1326SOL     OW15856   1.679   2.106  20.495
 1326SOL    HW115857   1.653   2.166  20.564
 1326SOL    HW215858   1.618   2.124  20.423
 1327SOL     OW15859   3.584   0.751  21.146
 1327SOL    HW115860   3.504   0.705  21.121
 1327SOL    HW215861   3.645   0.735  21.074
 1328SOL     OW15862   4.199   4.001  15.650
 1328SOL    HW115863   4.118   4.050  15.638
 1328SOL    HW215864   4.263   4.046  15.595
 1329SOL     OW15865   3.367   4.612   1.661
 1329SOL    HW115866   3.378   4.649   1.573
 1329SOL    HW215867   3.336   4.523   1.646
 1330SOL     OW15868   1.647   1.539   1.559
 1330SOL    HW115869   1.655   1.621   1.510
 1330SOL    HW215870   1.563   1.546   1.604
 1331SOL     OW15871   0.310   2.040   5.454
 1331SOL    HW115872   0.384   2.080   5.500
 1331SOL    HW215873   0.336   1.949   5.442
 1332SOL     OW15874   1.503   1.276  14.531
 1332SOL    HW115875   1.540   1.351  14.484
 1332SOL    HW215876   1.557   1.202  14.504
 1333SOL     OW15877   1.792   3.649  19.092
 1333SOL    HW115878   1.699   3.671  19.084
 1333SOL    HW215879   1.809   3.653  19.186
 1334SOL     OW15880   1.622   4.113  18.465
 1334SOL    HW115881   1.677   4.107  18.543
 1334SOL    HW215882   1.636   4.202  18.432
 1335SOL     OW15883   0.111   4.450  21.223
 1335SOL    HW115884   0.087   4.445  21.130
 1335SOL    HW215885   0.191   4.502  21.224
 1336SOL     OW15886   3.825   1.843  19.474
 1336SOL    HW115887   3.913   1.870  19.450
 1336SOL    HW215888   3.773   1.923  19.470
 1337SOL     OW15889   3.385   1.853   0.780
 1337SOL    HW115890   3.457   1.891   0.730
 1337SOL    HW215891   3.351   1.926   0.832
 1338SOL     OW15892   3.011   1.435   0.128
 1338SOL    HW115893   2.998   1.473   0.215
 1338SOL    HW215894   3.059   1.354   0.144
 1339SOL     OW15895   0.989   3.080  20.262
 1339SOL    HW115896   0.937   3.007  20.296
 1339SOL    HW215897   1.070   3.079  20.314
 1340SOL     OW15898   0.224   0.418   4.284
 1340SOL    HW115899   0.257   0.487   4.227
 1340SOL    HW215900   0.188   0.465   4.359
 1341SOL     OW15901   0.068   4.023  19.515
 1341SOL    HW115902   4.788   3.993  19.456
 1341SOL    HW215903   0.111   3.943  19.544
 1342SOL     OW15904   1.934   4.633   2.253
 1342SOL    HW115905   2.003   4.606   2.313
 1342SOL    HW215906   1.980   4.673   2.179
 1343SOL     OW15907   0.882   2.521   5.114
 1343SOL    HW115908   0.925   2.436   5.120
 1343SOL    HW215909   0.810   2.508   5.052
 1344SOL     OW15910   4.721   1.517   2.415
 1344SOL    HW115911   4.733   1.508   2.510
 1344SOL    HW215912   4.668   1.441   2.391
 1345SOL     OW15913   0.863   3.058  15.708
 1345SOL    HW115914   0.813   3.135  15.737
 1345SOL    HW215915   0.818   2.984  15.749
 1346SOL     OW15916   2.909   1.189  20.843
 1346SOL    HW115917   2.946   1.101  20.838
 1346SOL    HW215918   2.852   1.187  20.920
 1347SOL     OW15919   1.186   4.089   4.374
 1347SOL    HW115920   1.159   4.021   4.313
 1347SOL    HW215921   1.105   4.114   4.419
 1348SOL     OW15922   3.906   3.117   5.727
 1348SOL    HW115923   3.949   3.179   5.668
 1348SOL    HW215924   3.892   3.039   5.674
 1349SOL     OW15925   3.627   4.469   1.174
 1349SOL    HW115926   3.603   4.561   1.187
 1349SOL    HW215927   3.722   4.470   1.168
 1350SOL     OW15928   3.295   2.910   6.198
 1350SOL    HW115929   3.350   2.932   6.273
 1350SOL    HW215930   3.325   2.968   6.128
 1351SOL     OW15931   4.161   0.399   0.332
 1351SOL    HW115932   4.143   0.307   0.312
 1351SOL    HW215933   4.167   0.402   0.428
 1352SOL     OW15934   2.454   0.873   1.142
 1352SOL    HW115935   2.470   0.915   1.227
 1352SOL    HW215936   2.361   0.890   1.125
 1353SOL     OW15937   3.571   2.863   0.337
 1353SOL    HW115938   3.478   2.868   0.359
 1353SOL    HW215939   3.582   2.776   0.299
 1354SOL     OW15940   0.268   1.300  19.124
 1354SOL    HW115941   0.237   1.374  19.072
 1354SOL    HW215942   0.360   1.319  19.141
 1355SOL     OW15943   0.095   0.100   2.584
 1355SOL    HW115944   0.171   0.119   2.639
 1355SOL    HW215945   0.064   0.015   2.615
 1356SOL     OW15946   1.028   3.638   1.670
 1356SOL    HW115947   1.075   3.707   1.717
 1356SOL    HW215948   1.062   3.643   1.581
 1357SOL     OW15949   2.901   2.986   1.345
 1357SOL    HW115950   2.812   2.974   1.312
 1357SOL    HW215951   2.951   3.018   1.270
 1358SOL     OW15952   1.011   1.232  11.007
 1358SOL    HW115953   0.992   1.235  11.101
 1358SOL    HW215954   1.100   1.198  11.001
 1359SOL     OW15955   4.589   3.024  20.320
 1359SOL    HW115956   4.516   2.967  20.346
 1359SOL    HW215957   4.643   2.969  20.262
 1360SOL     OW15958   2.403   3.939  15.856
 1360SOL    HW115959   2.497   3.950  15.871
 1360SOL    HW215960   2.368   3.919  15.943
 1361SOL     OW15961   0.749   1.409  15.184
 1361SOL    HW115962   0.661   1.377  15.164
 1361SOL    HW215963   0.737   1.467  15.260
 1362SOL     OW15964   2.794   0.443   5.149
 1362SOL    HW115965   2.878   0.457   5.105
 1362SOL    HW215966   2.816   0.387   5.224
 1363SOL     OW15967   3.617   2.900   6.811
 1363SOL    HW115968   3.604   2.993   6.829
 1363SOL    HW215969   3.529   2.868   6.791
 1364SOL     OW15970   0.927   2.223   1.502
 1364SOL    HW115971   0.850   2.263   1.461
 1364SOL    HW215972   0.991   2.215   1.431
 1365SOL     OW15973   1.906   2.773  20.481
 1365SOL    HW115974   1.823   2.771  20.434
 1365SOL    HW215975   1.969   2.804  20.416
 1366SOL     OW15976   0.057   1.974   4.662
 1366SOL    HW115977   0.119   2.032   4.619
 1366SOL    HW215978   0.111   1.909   4.706
 1367SOL     OW15979   4.320   1.615   6.400
 1367SOL    HW115980   4.389   1.562   6.440
 1367SOL    HW215981   4.367   1.685   6.355
 1368SOL     OW15982   2.141   0.908  18.058
 1368SOL    HW115983   2.117   0.993  18.020
 1368SOL    HW215984   2.214   0.878  18.004
 1369SOL     OW15985   2.932   3.783   5.959
 1369SOL    HW115986   2.990   3.858   5.971
 1369SOL    HW215987   2.981   3.709   5.994
 1370SOL     OW15988   0.278   3.717  20.145
 1370SOL    HW115989   0.195   3.726  20.098
 1370SOL    HW215990   0.315   3.805  20.144
 1371SOL     OW15991   4.437   3.620   0.291
 1371SOL    HW115992   4.507   3.601   0.353
 1371SOL    HW215993   4.370   3.663   0.344
 1372SOL     OW15994   1.436   0.903   5.840
 1372SOL    HW115995   1.373   0.973   5.823
 1372SOL    HW215996   1.481   0.930   5.920
 1373SOL     OW15997   1.525   1.934  18.027
 1373SOL    HW115998   1.612   1.942  17.987
 1373SOL    HW215999   1.481   2.016  18.005
 1374SOL     OW16000   2.598   2.825  21.117
 1374SOL    HW116001   2.670   2.805  21.057
 1374SOL    HW216002   2.527   2.767  21.089
 1375SOL     OW16003   3.400   3.054  14.665
 1375SOL    HW116004   3.444   3.007  14.735
 1375SOL    HW216005   3.399   3.145  14.694
 1376SOL     OW16006   0.495   3.520  12.143
 1376SOL    HW116007   0.441   3.587  12.184
 1376SOL    HW216008   0.585   3.549  12.158
 1377SOL     OW16009   1.535   3.900   3.092
 1377SOL    HW116010   1.464   3.852   3.049
 1377SOL    HW216011   1.610   3.892   3.033
 1378SOL     OW16012   4.210   0.461   1.062
 1378SOL    HW116013   4.251   0.536   1.020
 1378SOL    HW216014   4.135   0.497   1.108
 1379SOL     OW16015   0.897   0.815   0.058
 1379SOL    HW116016   0.928   0.894   0.102
 1379SOL    HW216017   0.946   0.744   0.100
 1380SOL     OW16018   2.211   3.782   2.182
 1380SOL    HW116019   2.153   3.727   2.129
 1380SOL    HW216020   2.293   3.733   2.186
 1381SOL     OW16021   1.758   3.463   5.219
 1381SOL    HW116022   1.733   3.435   5.307
 1381SOL    HW216023   1.798   3.386   5.179
 1382SOL     OW16024   3.773   3.302   5.424
 1382SOL    HW116025   3.757   3.266   5.337
 1382SOL    HW216026   3.716   3.251   5.482
 1383SOL     OW16027   4.121   0.636  17.955
 1383SOL    HW116028   4.090   0.609  18.041
 1383SOL    HW216029   4.044   0.630  17.899
 1384SOL     OW16030   0.325   0.718   0.214
 1384SOL    HW116031   0.407   0.671   0.202
 1384SOL    HW216032   0.351   0.805   0.244
 1385SOL     OW16033   3.226   4.736  18.674
 1385SOL    HW116034   3.192   0.035  18.664
 1385SOL    HW216035   3.275   4.739  18.756
 1386SOL     OW16036   1.774   1.316   1.641
 1386SOL    HW116037   1.801   1.310   1.733
 1386SOL    HW216038   1.730   1.401   1.635
 1387SOL     OW16039   4.638   0.464  11.329
 1387SOL    HW116040   4.709   0.526  11.346
 1387SOL    HW216041   4.654   0.392  11.389
 1388SOL     OW16042   1.640   3.000   1.055
 1388SOL    HW116043   1.586   2.996   0.976
 1388SOL    HW216044   1.597   3.066   1.110
 1389SOL     OW16045   3.989   1.279  20.521
 1389SOL    HW116046   4.010   1.191  20.490
 1389SOL    HW216047   4.013   1.278  20.614
 1390SOL     OW16048   1.526   0.191  18.896
 1390SOL    HW116049   1.438   0.161  18.873
 1390SOL    HW216050   1.543   0.264  18.837
 1391SOL     OW16051   4.367   2.562  20.554
 1391SOL    HW116052   4.390   2.513  20.633
 1391SOL    HW216053   4.277   2.537  20.535
 1392SOL     OW16054   4.788   1.307  18.130
 1392SOL    HW116055   4.736   1.379  18.165
 1392SOL    HW216056   0.040   1.268  18.207
 1393SOL     OW16057   4.130   0.477  15.270
 1393SOL    HW116058   4.145   0.525  15.188
 1393SOL    HW216059   4.181   0.397  15.261
 1394SOL     OW16060   4.710   3.208  21.100
 1394SOL    HW116061   4.761   3.127  21.093
 1394SOL    HW216062   4.676   3.207  21.189
 1395SOL     OW16063   3.318   1.231   4.589
 1395SOL    HW116064   3.314   1.181   4.508
 1395SOL    HW216065   3.227   1.250   4.610
 1396SOL     OW16066   1.492   1.704   5.734
 1396SOL    HW116067   1.547   1.661   5.668
 1396SOL    HW216068   1.429   1.755   5.683
 1397SOL     OW16069   0.978   0.344  19.177
 1397SOL    HW116070   0.918   0.397  19.230
 1397SOL    HW216071   0.921   0.284  19.129
 1398SOL     OW16072   0.623   4.553  17.674
 1398SOL    HW116073   0.674   4.472  17.682
 1398SOL    HW216074   0.538   4.525  17.640
 1399SOL     OW16075   2.414   0.405   4.215
 1399SOL    HW116076   2.437   0.342   4.146
 1399SOL    HW216077   2.321   0.422   4.202
 1400SOL     OW16078   0.947   4.511   5.961
 1400SOL    HW116079   0.885   4.508   6.033
 1400SOL    HW216080   0.995   4.429   5.967
 1401SOL     OW16081   2.979   3.512   0.782
 1401SOL    HW116082   3.003   3.482   0.694
 1401SOL    HW216083   2.937   3.597   0.768
 1402SOL     OW16084   2.901   0.410   0.185
 1402SOL    HW116085   2.930   0.497   0.159
 1402SOL    HW216086   2.806   0.412   0.176
 1403SOL     OW16087   3.243   4.607  19.557
 1403SOL    HW116088   3.265   4.699  19.544
 1403SOL    HW216089   3.170   4.591  19.498
 1404SOL     OW16090   1.275   3.676  16.012
 1404SOL    HW116091   1.301   3.766  16.032
 1404SOL    HW216092   1.341   3.645  15.950
 1405SOL     OW16093   0.047   3.518   0.160
 1405SOL    HW116094   4.772   3.582   0.131
 1405SOL    HW216095   0.119   3.571   0.195
 1406SOL     OW16096   3.200   0.568   3.993
 1406SOL    HW116097   3.204   0.589   4.086
 1406SOL    HW216098   3.115   0.601   3.965
 1407SOL     OW16099   4.007   1.802   4.886
 1407SOL    HW116100   3.922   1.837   4.914
 1407SOL    HW216101   4.063   1.879   4.876
 1408SOL     OW16102   1.382   2.361   4.059
 1408SOL    HW116103   1.426   2.279   4.038
 1408SOL    HW216104   1.296   2.353   4.018
 1409SOL     OW16105   4.060   2.790   5.259
 1409SOL    HW116106   4.076   2.775   5.352
 1409SOL    HW216107   4.089   2.709   5.216
 1410SOL     OW16108   3.611   2.928   3.934
 1410SOL    HW116109   3.542   2.962   3.877
 1410SOL    HW216110   3.569   2.858   3.983
 1411SOL     OW16111   4.532   3.575  20.650
 1411SOL    HW116112   4.491   3.490  20.668
 1411SOL    HW216113   4.619   3.553  20.616
 1412SOL     OW16114   1.735   4.314   4.349
 1412SOL    HW116115   1.672   4.357   4.407
 1412SOL    HW216116   1.698   4.324   4.261
 1413SOL     OW16117   0.279   1.865   2.992
 1413SOL    HW116118   0.287   1.883   2.898
 1413SOL    HW216119   0.359   1.901   3.031
 1414SOL     OW16120   1.936   1.521  20.917
 1414SOL    HW116121   1.863   1.493  20.862
 1414SOL    HW216122   1.939   1.616  20.906
 1415SOL     OW16123   2.056   2.893  18.770
 1415SOL    HW116124   2.133   2.850  18.734
 1415SOL    HW216125   2.082   2.921  18.858
 1416SOL     OW16126   2.301   3.621  19.748
 1416SOL    HW116127   2.250   3.571  19.685
 1416SOL    HW216128   2.312   3.707  19.707
 1417SOL     OW16129   1.563   3.611   6.910
 1417SOL    HW116130   1.639   3.620   6.852
 1417SOL    HW216131   1.600   3.591   6.996
 1418SOL     OW16132   1.268   4.379  20.529
 1418SOL    HW116133   1.186   4.330  20.532
 1418SOL    HW216134   1.245   4.467  20.559
 1419SOL     OW16135   1.836   0.342  18.971
 1419SOL    HW116136   1.893   0.265  18.977
 1419SOL    HW216137   1.853   0.390  19.052
 1420SOL     OW16138   2.327   3.006   5.262
 1420SOL    HW116139   2.325   3.020   5.357
 1420SOL    HW216140   2.271   2.930   5.247
 1421SOL     OW16141   4.449   4.079   6.716
 1421SOL    HW116142   4.367   4.125   6.735
 1421SOL    HW216143   4.455   4.013   6.785
 1422SOL     OW16144   1.511   2.597   1.066
 1422SOL    HW116145   1.536   2.506   1.084
 1422SOL    HW216146   1.450   2.620   1.136
 1423SOL     OW16147   4.211   2.053   2.868
 1423SOL    HW116148   4.218   1.992   2.941
 1423SOL    HW216149   4.184   2.136   2.908
 1424SOL     OW16150   1.406   3.012   4.401
 1424SOL    HW116151   1.415   3.049   4.489
 1424SOL    HW216152   1.314   3.027   4.378
 1425SOL     OW16153   4.165   2.294   1.396
 1425SOL    HW116154   4.226   2.339   1.454
 1425SOL    HW216155   4.211   2.214   1.369
 1426SOL     OW16156   1.203   2.320   1.082
 1426SOL    HW116157   1.150   2.400   1.090
 1426SOL    HW216158   1.200   2.280   1.169
 1427SOL     OW16159   2.567   3.281  15.464
 1427SOL    HW116160   2.494   3.227  15.495
 1427SOL    HW216161   2.644   3.244  15.507
 1428SOL     OW16162   0.057   0.660   1.342
 1428SOL    HW116163   0.017   0.731   1.291
 1428SOL    HW216164   0.026   0.580   1.299
 1429SOL     OW16165   2.242   0.328  13.953
 1429SOL    HW116166   2.161   0.312  13.905
 1429SOL    HW216167   2.311   0.326  13.886
 1430SOL     OW16168   4.712   0.079   4.923
 1430SOL    HW116169   4.656   0.032   4.861
 1430SOL    HW216170   4.654   0.103   4.995
 1431SOL     OW16171   2.864   2.035  19.587
 1431SOL    HW116172   2.916   2.113  19.608
 1431SOL    HW216173   2.802   2.065  19.521
 1432SOL     OW16174   2.038   1.028  19.477
 1432SOL    HW116175   2.058   1.060  19.565
 1432SOL    HW216176   2.048   0.933  19.483
 1433SOL     OW16177   2.588   4.163  12.826
 1433SOL    HW116178   2.624   4.251  12.816
 1433SOL    HW216179   2.513   4.175  12.885
 1434SOL     OW16180   3.113   2.710   0.658
 1434SOL    HW116181   3.132   2.801   0.637
 1434SOL    HW216182   3.182   2.684   0.720
 1435SOL     OW16183   1.650   1.399   4.345
 1435SOL    HW116184   1.669   1.317   4.391
 1435SOL    HW216185   1.687   1.467   4.401
 1436SOL     OW16186   2.464   3.274  16.394
 1436SOL    HW116187   2.453   3.245  16.485
 1436SOL    HW216188   2.546   3.323  16.394
 1437SOL     OW16189   2.552   4.152   3.543
 1437SOL    HW116190   2.500   4.201   3.479
 1437SOL    HW216191   2.490   4.129   3.612
 1438SOL     OW16192   1.552   0.436  20.691
 1438SOL    HW116193   1.524   0.363  20.636
 1438SOL    HW216194   1.501   0.427  20.772
 1439SOL     OW16195   4.055   2.324  19.011
 1439SOL    HW116196   3.993   2.346  18.941
 1439SOL    HW216197   4.100   2.246  18.979
 1440SOL     OW16198   3.101   1.792  20.588
 1440SOL    HW116199   3.075   1.704  20.560
 1440SOL    HW216200   3.187   1.806  20.548
 1441SOL     OW16201   1.350   1.071   4.229
 1441SOL    HW116202   1.288   1.054   4.300
 1441SOL    HW216203   1.313   1.026   4.153
 1442SOL     OW16204   4.117   1.276   5.993
 1442SOL    HW116205   4.167   1.245   6.069
 1442SOL    HW216206   4.056   1.205   5.974
 1443SOL     OW16207   4.744   1.517  16.467
 1443SOL    HW116208   4.698   1.559  16.394
 1443SOL    HW216209   4.678   1.460  16.507
 1444SOL     OW16210   1.933   3.663  21.173
 1444SOL    HW116211   1.940   3.597  21.104
 1444SOL    HW216212   1.898   3.740  21.128
 1445SOL     OW16213   4.379   2.837  20.347
 1445SOL    HW116214   4.328   2.839  20.266
 1445SOL    HW216215   4.414   2.748  20.352
 1446SOL     OW16216   3.411   0.733  17.090
 1446SOL    HW116217   3.369   0.687  17.018
 1446SOL    HW216218   3.487   0.679  17.112
 1447SOL     OW16219   3.672   3.759   3.385
 1447SOL    HW116220   3.688   3.853   3.381
 1447SOL    HW216221   3.578   3.750   3.373
 1448SOL     OW16222   0.901   2.140   0.365
 1448SOL    HW116223   0.938   2.207   0.308
 1448SOL    HW216224   0.970   2.074   0.373
 1449SOL     OW16225   4.291   3.880  19.237
 1449SOL    HW116226   4.333   3.867  19.322
 1449SOL    HW216227   4.289   3.793  19.197
 1450SOL     OW16228   1.680   1.774   1.394
 1450SOL    HW116229   1.701   1.763   1.301
 1450SOL    HW216230   1.681   1.869   1.407
 1451SOL     OW16231   1.908   4.477  13.683
 1451SOL    HW116232   1.821   4.510  13.705
 1451SOL    HW216233   1.914   4.393  13.728
 1452SOL     OW16234   2.979   3.308  16.353
 1452SOL    HW116235   3.027   3.387  16.377
 1452SOL    HW216236   3.046   3.247  16.324
 1453SOL     OW16237   0.671   1.172  15.027
 1453SOL    HW116238   0.761   1.161  15.057
 1453SOL    HW216239   0.671   1.255  14.979
 1454SOL     OW16240   2.117   2.636   1.466
 1454SOL    HW116241   2.191   2.687   1.499
 1454SOL    HW216242   2.074   2.695   1.404
 1455SOL     OW16243   0.181   0.843  16.656
 1455SOL    HW116244   0.098   0.827  16.700
 1455SOL    HW216245   0.232   0.893  16.719
 1456SOL     OW16246   4.764   2.525   5.896
 1456SOL    HW116247   0.037   2.454   5.880
 1456SOL    HW216248   4.747   2.562   5.809
 1457SOL     OW16249   1.494   2.243   1.146
 1457SOL    HW116250   1.470   2.187   1.220
 1457SOL    HW216251   1.411   2.278   1.114
 1458SOL     OW16252   2.754   4.494   0.760
 1458SOL    HW116253   2.673   4.535   0.789
 1458SOL    HW216254   2.772   4.534   0.675
 1459SOL     OW16255   3.010   4.615  20.168
 1459SOL    HW116256   2.992   4.660  20.086
 1459SOL    HW216257   2.968   4.669  20.235
 1460SOL     OW16258   3.459   3.706  21.051
 1460SOL    HW116259   3.420   3.740  20.971
 1460SOL    HW216260   3.427   3.616  21.058
 1461SOL     OW16261   3.783   4.014   4.180
 1461SOL    HW116262   3.853   4.026   4.244
 1461SOL    HW216263   3.764   3.920   4.183
 1462SOL     OW16264   4.205   3.092  18.656
 1462SOL    HW116265   4.212   3.174  18.607
 1462SOL    HW216266   4.281   3.093  18.714
 1463SOL     OW16267   1.118   1.857   5.457
 1463SOL    HW116268   1.029   1.837   5.427
 1463SOL    HW216269   1.164   1.886   5.378
 1464SOL     OW16270   2.811   2.893  15.712
 1464SOL    HW116271   2.872   2.966  15.704
 1464SOL    HW216272   2.763   2.911  15.793
 1465SOL     OW16273   3.763   2.100   0.673
 1465SOL    HW116274   3.730   2.055   0.751
 1465SOL    HW216275   3.750   2.193   0.692
 1466SOL     OW16276   2.920   0.080  15.401
 1466SOL    HW116277   2.846   0.128  15.439
 1466SOL    HW216278   2.994   0.100  15.458
 1467SOL     OW16279   2.468   3.017  14.463
 1467SOL    HW116280   2.450   3.111  14.463
 1467SOL    HW216281   2.389   2.978  14.500
 1468SOL     OW16282   2.611   4.392  14.461
 1468SOL    HW116283   2.604   4.470  14.516
 1468SOL    HW216284   2.622   4.320  14.523
 1469SOL     OW16285   3.588   3.215  19.412
 1469SOL    HW116286   3.586   3.136  19.358
 1469SOL    HW216287   3.681   3.238  19.418
 1470SOL     OW16288   4.060   4.632  14.972
 1470SOL    HW116289   4.044   4.544  14.937
 1470SOL    HW216290   3.987   4.684  14.938
 1471SOL     OW16291   0.637   1.934   5.342
 1471SOL    HW116292   0.553   1.891   5.329
 1471SOL    HW216293   0.629   2.018   5.296
 1472SOL     OW16294   2.383   4.780   3.941
 1472SOL    HW116295   2.311   4.729   3.905
 1472SOL    HW216296   2.436   4.716   3.989
 1473SOL     OW16297   2.528   3.634   1.862
 1473SOL    HW116298   2.566   3.575   1.797
 1473SOL    HW216299   2.496   3.708   1.811
 1474SOL     OW16300   1.586   3.391   1.985
 1474SOL    HW116301   1.629   3.323   1.934
 1474SOL    HW216302   1.614   3.473   1.945
 1475SOL     OW16303   3.954   1.868  16.006
 1475SOL    HW116304   3.958   1.946  15.950
 1475SOL    HW216305   3.961   1.795  15.945
 1476SOL     OW16306   4.586   3.860  20.431
 1476SOL    HW116307   4.621   3.823  20.350
 1476SOL    HW216308   4.491   3.847  20.424
 1477SOL     OW16309   1.110   2.452  19.216
 1477SOL    HW116310   1.060   2.514  19.270
 1477SOL    HW216311   1.157   2.507  19.153
 1478SOL     OW16312   3.256   1.595  17.316
 1478SOL    HW116313   3.337   1.562  17.354
 1478SOL    HW216314   3.279   1.617  17.226
 1479SOL     OW16315   3.720   3.058  18.290
 1479SOL    HW116316   3.778   2.984  18.309
 1479SOL    HW216317   3.719   3.110  18.370
 1480SOL     OW16318   4.293   3.104   2.104
 1480SOL    HW116319   4.247   3.134   2.183
 1480SOL    HW216320   4.345   3.179   2.076
 1481SOL     OW16321   2.510   0.304  15.824
 1481SOL    HW116322   2.470   0.223  15.793
 1481SOL    HW216323   2.603   0.296  15.801
 1482SOL     OW16324   3.661   2.152  18.436
 1482SOL    HW116325   3.625   2.144  18.524
 1482SOL    HW216326   3.646   2.244  18.413
 1483SOL     OW16327   4.625   2.322  17.333
 1483SOL    HW116328   4.696   2.348  17.275
 1483SOL    HW216329   4.655   2.347  17.420
 1484SOL     OW16330   0.213   4.273  14.132
 1484SOL    HW116331   0.164   4.324  14.196
 1484SOL    HW216332   0.168   4.189  14.129
 1485SOL     OW16333   3.583   3.360  18.572
 1485SOL    HW116334   3.545   3.272  18.568
 1485SOL    HW216335   3.539   3.409  18.503
 1486SOL     OW16336   1.451   3.114   2.807
 1486SOL    HW116337   1.363   3.106   2.843
 1486SOL    HW216338   1.438   3.145   2.718
 1487SOL     OW16339   0.451   0.857   5.439
 1487SOL    HW116340   0.385   0.917   5.474
 1487SOL    HW216341   0.478   0.804   5.514
 1488SOL     OW16342   0.905   2.142  15.347
 1488SOL    HW116343   0.907   2.077  15.277
 1488SOL    HW216344   0.997   2.157  15.369
 1489SOL     OW16345   3.326   1.153   5.374
 1489SOL    HW116346   3.418   1.157   5.401
 1489SOL    HW216347   3.317   1.224   5.310
 1490SOL     OW16348   3.728   4.709  19.214
 1490SOL    HW116349   3.718   4.785  19.271
 1490SOL    HW216350   3.762   4.744  19.132
 1491SOL     OW16351   0.724   2.954  21.161
 1491SOL    HW116352   0.737   2.959  21.256
 1491SOL    HW216353   0.725   3.045  21.132
 1492SOL     OW16354   1.212   4.136   5.097
 1492SOL    HW116355   1.170   4.215   5.130
 1492SOL    HW216356   1.294   4.166   5.059
 1493SOL     OW16357   3.053   0.429   4.996
 1493SOL    HW116358   3.045   0.422   4.901
 1493SOL    HW216359   3.124   0.491   5.009
 1494SOL     OW16360   4.558   1.055   6.256
 1494SOL    HW116361   4.478   1.003   6.266
 1494SOL    HW216362   4.568   1.099   6.340
 1495SOL     OW16363   1.031   4.254   0.621
 1495SOL    HW116364   1.061   4.220   0.706
 1495SOL    HW216365   1.009   4.176   0.571
 1496SOL     OW16366   3.350   2.121  12.327
 1496SOL    HW116367   3.294   2.112  12.250
 1496SOL    HW216368   3.438   2.101  12.295
 1497SOL     OW16369   0.398   4.184  14.921
 1497SOL    HW116370   0.450   4.124  14.867
 1497SOL    HW216371   0.423   4.271  14.890
 1498SOL     OW16372   1.762   3.996  16.482
 1498SOL    HW116373   1.739   4.038  16.565
 1498SOL    HW216374   1.733   3.905  16.492
 1499SOL     OW16375   1.939   0.504   3.246
 1499SOL    HW116376   1.924   0.582   3.192
 1499SOL    HW216377   2.006   0.531   3.308
 1500SOL     OW16378   4.304   4.356  20.702
 1500SOL    HW116379   4.333   4.342  20.792
 1500SOL    HW216380   4.298   4.268  20.665
 1501SOL     OW16381   0.321   2.716  19.625
 1501SOL    HW116382   0.300   2.626  19.651
 1501SOL    HW216383   0.297   2.720  19.532
 1502SOL     OW16384   4.141   0.962  20.731
 1502SOL    HW116385   4.078   1.020  20.688
 1502SOL    HW216386   4.165   0.898  20.664
 1503SOL     OW16387   1.096   1.703   1.773
 1503SOL    HW116388   1.097   1.785   1.723
 1503SOL    HW216389   1.019   1.656   1.741
 1504SOL     OW16390   0.001   4.049  16.011
 1504SOL    HW116391   0.057   4.075  15.937
 1504SOL    HW216392   0.056   4.061  16.088
 1505SOL     OW16393   4.052   0.582  18.782
 1505SOL    HW116394   4.066   0.633  18.702
 1505SOL    HW216395   3.970   0.536  18.767
 1506SOL     OW16396   4.684   0.871   4.447
 1506SOL    HW116397   4.623   0.862   4.520
 1506SOL    HW216398   4.716   0.782   4.431
 1507SOL     OW16399   2.089   1.770   6.464
 1507SOL    HW116400   2.032   1.760   6.387
 1507SOL    HW216401   2.176   1.784   6.428
 1508SOL     OW16402   4.426   3.657  18.693
 1508SOL    HW116403   4.378   3.587  18.737
 1508SOL    HW216404   4.375   3.675  18.614
 1509SOL     OW16405   4.473   4.549  14.798
 1509SOL    HW116406   4.442   4.629  14.756
 1509SOL    HW216407   4.568   4.554  14.792
 1510SOL     OW16408   0.713   3.197  16.141
 1510SOL    HW116409   0.797   3.222  16.179
 1510SOL    HW216410   0.685   3.274  16.092
 1511SOL     OW16411   2.487   2.817   3.931
 1511SOL    HW116412   2.431   2.885   3.895
 1511SOL    HW216413   2.455   2.805   4.020
 1512SOL     OW16414   4.777   4.604   7.742
 1512SOL    HW116415   4.785   4.522   7.791
 1512SOL    HW216416   0.043   4.665   7.790
 1513SOL     OW16417   1.916   3.081  15.275
 1513SOL    HW116418   1.846   3.070  15.210
 1513SOL    HW216419   1.996   3.058  15.228
 1514SOL     OW16420   2.292   2.513   8.606
 1514SOL    HW116421   2.346   2.515   8.527
 1514SOL    HW216422   2.293   2.603   8.637
 1515SOL     OW16423   3.622   1.904   4.674
 1515SOL    HW116424   3.568   1.957   4.615
 1515SOL    HW216425   3.599   1.814   4.652
 1516SOL     OW16426   2.235   0.380   3.685
 1516SOL    HW116427   2.165   0.319   3.709
 1516SOL    HW216428   2.271   0.409   3.769
 1517SOL     OW16429   1.873   1.400   3.059
 1517SOL    HW116430   1.866   1.476   3.002
 1517SOL    HW216431   1.782   1.378   3.080
 1518SOL     OW16432   4.493   3.363   5.150
 1518SOL    HW116433   4.572   3.342   5.100
 1518SOL    HW216434   4.517   3.347   5.241
 1519SOL     OW16435   3.512   4.128  20.612
 1519SOL    HW116436   3.552   4.208  20.578
 1519SOL    HW216437   3.435   4.115  20.557
 1520SOL     OW16438   3.164   2.431   2.551
 1520SOL    HW116439   3.098   2.363   2.568
 1520SOL    HW216440   3.113   2.508   2.526
 1521SOL     OW16441   4.128   2.245   8.934
 1521SOL    HW116442   4.053   2.190   8.912
 1521SOL    HW216443   4.116   2.267   9.026
 1522SOL     OW16444   2.829   0.025  17.289
 1522SOL    HW116445   2.836   0.089  17.360
 1522SOL    HW216446   2.760   4.755  17.317
 1523SOL     OW16447   0.983   0.709  15.731
 1523SOL    HW116448   0.893   0.723  15.703
 1523SOL    HW216449   1.026   0.794  15.719
 1524SOL     OW16450   3.952   2.259  17.381
 1524SOL    HW116451   3.953   2.254  17.285
 1524SOL    HW216452   4.043   2.278  17.405
 1525SOL     OW16453   0.944   1.091   1.365
 1525SOL    HW116454   0.861   1.051   1.339
 1525SOL    HW216455   0.927   1.185   1.365
 1526SOL     OW16456   3.148   4.040  20.789
 1526SOL    HW116457   3.120   4.085  20.709
 1526SOL    HW216458   3.076   4.053  20.851
 1527SOL     OW16459   2.210   4.774   5.257
 1527SOL    HW116460   2.141   0.045   5.229
 1527SOL    HW216461   2.287   0.040   5.269
 1528SOL     OW16462   3.571   2.073   0.868
 1528SOL    HW116463   3.562   2.149   0.926
 1528SOL    HW216464   3.580   1.998   0.928
 1529SOL     OW16465   0.487   2.486   5.580
 1529SOL    HW116466   0.569   2.459   5.622
 1529SOL    HW216467   0.506   2.572   5.542
 1530SOL     OW16468   0.642   3.042   2.877
 1530SOL    HW116469   0.630   3.137   2.883
 1530SOL    HW216470   0.600   3.007   2.956
 1531SOL     OW16471   0.521   4.326  14.160
 1531SOL    HW116472   0.440   4.290  14.124
 1531SOL    HW216473   0.589   4.294  14.101
 1532SOL     OW16474   3.952   0.155  18.510
 1532SOL    HW116475   4.012   0.080  18.514
 1532SOL    HW216476   3.880   0.126  18.454
 1533SOL     OW16477   2.799   0.165  19.044
 1533SOL    HW116478   2.841   0.099  18.989
 1533SOL    HW216479   2.838   0.248  19.016
 1534SOL     OW16480   3.183   3.408   7.116
 1534SOL    HW116481   3.162   3.324   7.076
 1534SOL    HW216482   3.108   3.428   7.171
 1535SOL     OW16483   2.487   1.543  15.757
 1535SOL    HW116484   2.479   1.618  15.816
 1535SOL    HW216485   2.397   1.516  15.741
 1536SOL     OW16486   2.156   4.276   0.650
 1536SOL    HW116487   2.192   4.299   0.736
 1536SOL    HW216488   2.143   4.181   0.654
 1537SOL     OW16489   0.365   2.776   6.792
 1537SOL    HW116490   0.299   2.743   6.731
 1537SOL    HW216491   0.349   2.870   6.796
 1538SOL     OW16492   2.807   4.067  15.658
 1538SOL    HW116493   2.754   4.003  15.706
 1538SOL    HW216494   2.750   4.097  15.587
 1539SOL     OW16495   3.576   4.390  20.549
 1539SOL    HW116496   3.653   4.384  20.606
 1539SOL    HW216497   3.599   4.458  20.486
 1540SOL     OW16498   2.538   2.614   6.528
 1540SOL    HW116499   2.625   2.582   6.551
 1540SOL    HW216500   2.486   2.535   6.514
 1541SOL     OW16501   3.492   0.803   2.531
 1541SOL    HW116502   3.531   0.890   2.528
 1541SOL    HW216503   3.563   0.744   2.506
 1542SOL     OW16504   0.358   4.043   6.011
 1542SOL    HW116505   0.288   4.104   6.034
 1542SOL    HW216506   0.398   4.081   5.933
 1543SOL     OW16507   1.274   2.094  17.601
 1543SOL    HW116508   1.302   2.037  17.530
 1543SOL    HW216509   1.335   2.168  17.598
 1544SOL     OW16510   1.795   3.179   4.364
 1544SOL    HW116511   1.721   3.220   4.408
 1544SOL    HW216512   1.785   3.086   4.383
 1545SOL     OW16513   0.066   2.052  15.026
 1545SOL    HW116514   0.128   2.060  14.953
 1545SOL    HW216515   0.021   2.137  15.028
 1546SOL     OW16516   3.455   2.630  19.308
 1546SOL    HW116517   3.535   2.587  19.278
 1546SOL    HW216518   3.427   2.578  19.384
 1547SOL     OW16519   3.945   0.790  14.495
 1547SOL    HW116520   3.895   0.733  14.437
 1547SOL    HW216521   3.925   0.879  14.466
 1548SOL     OW16522   2.037   3.928  15.421
 1548SOL    HW116523   2.075   3.913  15.508
 1548SOL    HW216524   2.110   3.916  15.360
 1549SOL     OW16525   1.708   4.493  13.865
 1549SOL    HW116526   1.780   4.510  13.925
 1549SOL    HW216527   1.659   4.575  13.862
 1550SOL     OW16528   3.439   0.141   4.151
 1550SOL    HW116529   3.375   0.074   4.174
 1550SOL    HW216530   3.422   0.160   4.059
 1551SOL     OW16531   3.695   1.692  17.799
 1551SOL    HW116532   3.688   1.680  17.704
 1551SOL    HW216533   3.664   1.609  17.836
 1552SOL     OW16534   2.866   4.341   4.988
 1552SOL    HW116535   2.865   4.355   4.893
 1552SOL    HW216536   2.820   4.258   5.000
 1553SOL     OW16537   1.056   1.379   5.865
 1553SOL    HW116538   1.023   1.400   5.778
 1553SOL    HW216539   1.041   1.285   5.875
 1554SOL     OW16540   0.623   4.172  16.132
 1554SOL    HW116541   0.659   4.108  16.070
 1554SOL    HW216542   0.684   4.172  16.205
 1555SOL     OW16543   3.898   4.000  21.155
 1555SOL    HW116544   3.835   4.072  21.144
 1555SOL    HW216545   3.914   3.996  21.249
 1556SOL     OW16546   0.730   0.231  18.454
 1556SOL    HW116547   0.758   0.226  18.362
 1556SOL    HW216548   0.774   0.157  18.496
 1557SOL     OW16549   1.697   3.383  18.161
 1557SOL    HW116550   1.779   3.364  18.115
 1557SOL    HW216551   1.718   3.371  18.254
 1558SOL     OW16552   3.888   1.582   6.712
 1558SOL    HW116553   3.844   1.652   6.761
 1558SOL    HW216554   3.960   1.626   6.667
 1559SOL     OW16555   2.631   4.544  21.090
 1559SOL    HW116556   2.723   4.570  21.098
 1559SOL    HW216557   2.602   4.529  21.180
 1560SOL     OW16558   3.275   4.705  17.885
 1560SOL    HW116559   3.292   4.674  17.796
 1560SOL    HW216560   3.280   4.626  17.939
 1561SOL     OW16561   0.736   3.714  15.828
 1561SOL    HW116562   0.818   3.665  15.823
 1561SOL    HW216563   0.675   3.664  15.775
 1562SOL     OW16564   3.645   2.595  19.008
 1562SOL    HW116565   3.566   2.647  19.021
 1562SOL    HW216566   3.641   2.568  18.916
 1563SOL     OW16567   1.295   1.401   6.382
 1563SOL    HW116568   1.390   1.409   6.369
 1563SOL    HW216569   1.260   1.386   6.294
 1564SOL     OW16570   1.324   0.610  14.042
 1564SOL    HW116571   1.418   0.623  14.030
 1564SOL    HW216572   1.312   0.613  14.137
 1565SOL     OW16573   3.309   0.310  15.805
 1565SOL    HW116574   3.284   0.380  15.865
 1565SOL    HW216575   3.405   0.309  15.808
 1566SOL     OW16576   0.200   0.642  13.047
 1566SOL    HW116577   0.259   0.716  13.059
 1566SOL    HW216578   0.131   0.675  12.989
 1567SOL     OW16579   1.876   2.380  19.416
 1567SOL    HW116580   1.794   2.398  19.461
 1567SOL    HW216581   1.860   2.297  19.371
 1568SOL     OW16582   0.339   4.549   2.273
 1568SOL    HW116583   0.283   4.614   2.230
 1568SOL    HW216584   0.288   4.520   2.348
 1569SOL     OW16585   0.292   0.926   5.703
 1569SOL    HW116586   0.251   0.844   5.676
 1569SOL    HW216587   0.219   0.983   5.726
 1570SOL     OW16588   4.630   2.449   3.780
 1570SOL    HW116589   4.679   2.391   3.721
 1570SOL    HW216590   4.679   2.447   3.862
 1571SOL     OW16591   0.243   3.245   1.189
 1571SOL    HW116592   0.232   3.174   1.252
 1571SOL    HW216593   0.338   3.257   1.181
 1572SOL     OW16594   0.755   1.449  20.383
 1572SOL    HW116595   0.740   1.531  20.336
 1572SOL    HW216596   0.673   1.401  20.374
 1573SOL     OW16597   2.281   1.626   3.216
 1573SOL    HW116598   2.212   1.573   3.255
 1573SOL    HW216599   2.247   1.650   3.130
 1574SOL     OW16600   0.372   0.053   4.107
 1574SOL    HW116601   0.345   0.056   4.199
 1574SOL    HW216602   0.312   0.113   4.062
 1575SOL     OW16603   2.007   1.196  18.450
 1575SOL    HW116604   1.931   1.146  18.420
 1575SOL    HW216605   2.079   1.164  18.395
 1576SOL     OW16606   1.436   1.567  21.016
 1576SOL    HW116607   1.508   1.629  21.023
 1576SOL    HW216608   1.362   1.612  21.056
 1577SOL     OW16609   3.947   3.511  20.510
 1577SOL    HW116610   3.906   3.433  20.546
 1577SOL    HW216611   3.988   3.481  20.429
 1578SOL     OW16612   4.203   1.415  15.444
 1578SOL    HW116613   4.226   1.323  15.457
 1578SOL    HW216614   4.155   1.439  15.523
 1579SOL     OW16615   1.518   2.449   3.495
 1579SOL    HW116616   1.573   2.409   3.427
 1579SOL    HW216617   1.580   2.483   3.559
 1580SOL     OW16618   0.220   2.895   5.120
 1580SOL    HW116619   0.266   2.975   5.094
 1580SOL    HW216620   0.288   2.841   5.161
 1581SOL     OW16621   4.199   2.042  15.081
 1581SOL    HW116622   4.277   2.017  15.131
 1581SOL    HW216623   4.228   2.115  15.026
 1582SOL     OW16624   1.106   4.732   2.570
 1582SOL    HW116625   1.031   4.718   2.512
 1582SOL    HW216626   1.082   0.019   2.622
 1583SOL     OW16627   0.286   1.404   2.626
 1583SOL    HW116628   0.269   1.459   2.702
 1583SOL    HW216629   0.310   1.466   2.557
 1584SOL     OW16630   1.571   4.665  17.736
 1584SOL    HW116631   1.533   4.682  17.650
 1584SOL    HW216632   1.653   4.715  17.737
 1585SOL     OW16633   0.261   3.231   4.258
 1585SOL    HW116634   0.201   3.204   4.188
 1585SOL    HW216635   0.334   3.170   4.252
 1586SOL     OW16636   2.480   3.855  19.984
 1586SOL    HW116637   2.434   3.772  19.999
 1586SOL    HW216638   2.419   3.907  19.932
 1587SOL     OW16639   2.725   2.393  12.723
 1587SOL    HW116640   2.648   2.426  12.676
 1587SOL    HW216641   2.796   2.399  12.660
 1588SOL     OW16642   1.122   0.707   3.128
 1588SOL    HW116643   1.183   0.633   3.132
 1588SOL    HW216644   1.178   0.785   3.127
 1589SOL     OW16645   2.190   0.510  18.778
 1589SOL    HW116646   2.135   0.531  18.702
 1589SOL    HW216647   2.198   0.415  18.775
 1590SOL     OW16648   4.272   1.417  17.030
 1590SOL    HW116649   4.310   1.367  16.958
 1590SOL    HW216650   4.338   1.414  17.099
 1591SOL     OW16651   4.550   2.835  14.978
 1591SOL    HW116652   4.584   2.754  15.017
 1591SOL    HW216653   4.606   2.904  15.014
 1592SOL     OW16654   4.573   4.419   6.508
 1592SOL    HW116655   4.596   4.485   6.442
 1592SOL    HW216656   4.523   4.353   6.459
 1593SOL     OW16657   4.702   4.419  20.330
 1593SOL    HW116658   0.006   4.398  20.324
 1593SOL    HW216659   4.659   4.334  20.341
 1594SOL     OW16660   0.991   1.809  13.017
 1594SOL    HW116661   1.082   1.783  13.031
 1594SOL    HW216662   0.986   1.898  13.051
 1595SOL     OW16663   4.070   0.781   0.229
 1595SOL    HW116664   4.004   0.795   0.297
 1595SOL    HW216665   4.154   0.795   0.274
 1596SOL     OW16666   4.175   1.958   0.824
 1596SOL    HW116667   4.178   1.955   0.920
 1596SOL    HW216668   4.137   2.044   0.804
 1597SOL     OW16669   0.342   3.798   1.232
 1597SOL    HW116670   0.368   3.720   1.281
 1597SOL    HW216671   0.283   3.765   1.164
 1598SOL     OW16672   1.109   0.598  15.495
 1598SOL    HW116673   1.096   0.604  15.400
 1598SOL    HW216674   1.044   0.657  15.532
 1599SOL     OW16675   4.486   2.053   3.454
 1599SOL    HW116676   4.574   2.090   3.444
 1599SOL    HW216677   4.484   2.022   3.545
 1600SOL     OW16678   3.172   0.728   3.762
 1600SOL    HW116679   3.124   0.684   3.692
 1600SOL    HW216680   3.171   0.666   3.835
 1601SOL     OW16681   3.952   4.371  21.146
 1601SOL    HW116682   3.894   4.379  21.070
 1601SOL    HW216683   4.007   4.295  21.126
 1602SOL     OW16684   1.851   1.939   5.704
 1602SOL    HW116685   1.895   1.960   5.622
 1602SOL    HW216686   1.836   1.845   5.701
 1603SOL     OW16687   3.743   2.961   5.844
 1603SOL    HW116688   3.805   2.888   5.839
 1603SOL    HW216689   3.789   3.034   5.802
 1604SOL     OW16690   2.502   0.502  16.529
 1604SOL    HW116691   2.596   0.482  16.532
 1604SOL    HW216692   2.479   0.523  16.619
 1605SOL     OW16693   1.324   3.937  16.512
 1605SOL    HW116694   1.329   4.032  16.500
 1605SOL    HW216695   1.345   3.923  16.604
 1606SOL     OW16696   3.202   4.274   4.848
 1606SOL    HW116697   3.275   4.213   4.835
 1606SOL    HW216698   3.138   4.249   4.781
 1607SOL     OW16699   0.846   4.046  18.550
 1607SOL    HW116700   0.811   3.962  18.580
 1607SOL    HW216701   0.934   4.025  18.519
 1608SOL     OW16702   3.883   2.286   6.846
 1608SOL    HW116703   3.862   2.199   6.879
 1608SOL    HW216704   3.942   2.270   6.772
 1609SOL     OW16705   1.075   1.561   0.545
 1609SOL    HW116706   1.057   1.655   0.544
 1609SOL    HW216707   0.992   1.520   0.519
 1610SOL     OW16708   4.167   3.727   6.132
 1610SOL    HW116709   4.099   3.763   6.189
 1610SOL    HW216710   4.244   3.719   6.189
 1611SOL     OW16711   2.187   1.568   4.390
 1611SOL    HW116712   2.137   1.522   4.457
 1611SOL    HW216713   2.254   1.616   4.439
 1612SOL     OW16714   1.970   1.991  18.991
 1612SOL    HW116715   2.048   1.955  18.949
 1612SOL    HW216716   1.979   2.086  18.983
 1613SOL     OW16717   2.195   2.261   2.859
 1613SOL    HW116718   2.147   2.331   2.816
 1613SOL    HW216719   2.153   2.181   2.828
 1614SOL     OW16720   3.967   0.708   4.128
 1614SOL    HW116721   4.021   0.633   4.105
 1614SOL    HW216722   3.974   0.767   4.053
 1615SOL     OW16723   4.124   0.246  17.148
 1615SOL    HW116724   4.035   0.259  17.181
 1615SOL    HW216725   4.142   0.325  17.097
 1616SOL     OW16726   0.222   2.103   4.420
 1616SOL    HW116727   0.257   2.020   4.387
 1616SOL    HW216728   0.289   2.168   4.398
 1617SOL     OW16729   1.188   4.093   3.372
 1617SOL    HW116730   1.122   4.025   3.387
 1617SOL    HW216731   1.178   4.115   3.279
 1618SOL     OW16732   4.716   4.670   3.944
 1618SOL    HW116733   4.757   4.733   4.003
 1618SOL    HW216734   4.637   4.715   3.912
 1619SOL     OW16735   0.229   2.637   4.086
 1619SOL    HW116736   0.300   2.578   4.061
 1619SOL    HW216737   0.249   2.661   4.176
 1620SOL     OW16738   4.116   1.491  15.028
 1620SOL    HW116739   4.057   1.527  14.962
 1620SOL    HW216740   4.128   1.562  15.091
 1621SOL     OW16741   2.871   2.747  21.026
 1621SOL    HW116742   2.922   2.822  20.995
 1621SOL    HW216743   2.911   2.724  21.110
 1622SOL     OW16744   2.213   0.146  18.498
 1622SOL    HW116745   2.243   0.056  18.489
 1622SOL    HW216746   2.278   0.198  18.451
 1623SOL     OW16747   1.226   0.631  18.698
 1623SOL    HW116748   1.170   0.605  18.772
 1623SOL    HW216749   1.292   0.689  18.737
 1624SOL     OW16750   1.420   2.712   0.806
 1624SOL    HW116751   1.442   2.681   0.894
 1624SOL    HW216752   1.469   2.654   0.748
 1625SOL     OW16753   2.183   4.597   4.343
 1625SOL    HW116754   2.098   4.577   4.304
 1625SOL    HW216755   2.189   4.692   4.338
 1626SOL     OW16756   2.144   3.197   4.248
 1626SOL    HW116757   2.075   3.262   4.231
 1626SOL    HW216758   2.110   3.144   4.320
 1627SOL     OW16759   4.083   1.606   2.886
 1627SOL    HW116760   4.065   1.686   2.935
 1627SOL    HW216761   4.018   1.605   2.816
 1628SOL     OW16762   1.714   4.226  13.937
 1628SOL    HW116763   1.704   4.320  13.920
 1628SOL    HW216764   1.629   4.188  13.915
 1629SOL     OW16765   4.658   3.184   1.276
 1629SOL    HW116766   4.726   3.118   1.267
 1629SOL    HW216767   4.576   3.136   1.261
 1630SOL     OW16768   2.887   4.637  21.158
 1630SOL    HW116769   2.906   4.706  21.094
 1630SOL    HW216770   2.892   4.681  21.243
 1631SOL     OW16771   1.902   2.915   5.348
 1631SOL    HW116772   1.965   2.875   5.288
 1631SOL    HW216773   1.938   3.002   5.365
 1632SOL     OW16774   3.764   0.801  20.467
 1632SOL    HW116775   3.671   0.790  20.446
 1632SOL    HW216776   3.782   0.893  20.446
 1633SOL     OW16777   3.766   3.814  19.721
 1633SOL    HW116778   3.791   3.728  19.755
 1633SOL    HW216779   3.811   3.877  19.778
 1634SOL     OW16780   2.447   0.164   6.625
 1634SOL    HW116781   2.360   0.197   6.647
 1634SOL    HW216782   2.453   0.172   6.530
 1635SOL     OW16783   3.716   2.471   2.150
 1635SOL    HW116784   3.621   2.466   2.148
 1635SOL    HW216785   3.744   2.446   2.062
 1636SOL     OW16786   0.472   1.851  15.573
 1636SOL    HW116787   0.447   1.759  15.572
 1636SOL    HW216788   0.440   1.886  15.490
 1637SOL     OW16789   1.981   2.224   3.432
 1637SOL    HW116790   1.911   2.198   3.372
 1637SOL    HW216791   2.023   2.299   3.390
 1638SOL     OW16792   4.645   0.498  15.108
 1638SOL    HW116793   4.560   0.475  15.070
 1638SOL    HW216794   4.635   0.479  15.201
 1639SOL     OW16795   1.012   4.344  17.772
 1639SOL    HW116796   1.104   4.359  17.752
 1639SOL    HW216797   0.979   4.430  17.798
 1640SOL     OW16798   4.468   2.769  18.163
 1640SOL    HW116799   4.507   2.718  18.092
 1640SOL    HW216800   4.431   2.704  18.223
 1641SOL     OW16801   0.459   1.918   4.381
 1641SOL    HW116802   0.472   1.944   4.472
 1641SOL    HW216803   0.539   1.945   4.337
 1642SOL     OW16804   0.091   3.209   5.662
 1642SOL    HW116805   0.115   3.160   5.583
 1642SOL    HW216806   0.169   3.207   5.717
 1643SOL     OW16807   4.401   4.329   5.846
 1643SOL    HW116808   4.474   4.361   5.793
 1643SOL    HW216809   4.419   4.236   5.858
 1644SOL     OW16810   0.347   0.993  18.040
 1644SOL    HW116811   0.379   1.018  18.127
 1644SOL    HW216812   0.307   0.907  18.052
 1645SOL     OW16813   1.406   1.185   6.216
 1645SOL    HW116814   1.465   1.126   6.169
 1645SOL    HW216815   1.340   1.210   6.151
 1646SOL     OW16816   0.325   1.186  15.723
 1646SOL    HW116817   0.386   1.142  15.781
 1646SOL    HW216818   0.302   1.267  15.769
 1647SOL     OW16819   1.743   4.240   7.277
 1647SOL    HW116820   1.807   4.311   7.275
 1647SOL    HW216821   1.694   4.254   7.358
 1648SOL     OW16822   4.698   2.830   5.584
 1648SOL    HW116823   4.607   2.861   5.589
 1648SOL    HW216824   4.723   2.843   5.492
 1649SOL     OW16825   2.300   2.203  15.914
 1649SOL    HW116826   2.324   2.275  15.856
 1649SOL    HW216827   2.229   2.157  15.869
 1650SOL     OW16828   1.834   2.324  13.552
 1650SOL    HW116829   1.780   2.347  13.628
 1650SOL    HW216830   1.923   2.316  13.587
 1651SOL     OW16831   0.474   3.511   2.375
 1651SOL    HW116832   0.465   3.445   2.444
 1651SOL    HW216833   0.446   3.466   2.295
 1652SOL     OW16834   3.183   4.216  17.195
 1652SOL    HW116835   3.178   4.311  17.185
 1652SOL    HW216836   3.236   4.186  17.121
 1653SOL     OW16837   1.571   3.539  16.504
 1653SOL    HW116838   1.634   3.469  16.517
 1653SOL    HW216839   1.497   3.516  16.561
 1654SOL     OW16840   0.514   1.297  20.365
 1654SOL    HW116841   0.426   1.312  20.399
 1654SOL    HW216842   0.532   1.205  20.383
 1655SOL     OW16843   3.032   1.850   6.521
 1655SOL    HW116844   2.991   1.832   6.436
 1655SOL    HW216845   3.126   1.855   6.502
 1656SOL     OW16846   1.152   0.370  18.233
 1656SOL    HW116847   1.089   0.303  18.259
 1656SOL    HW216848   1.099   0.440  18.195
 1657SOL     OW16849   4.242   4.426   2.484
 1657SOL    HW116850   4.148   4.419   2.467
 1657SOL    HW216851   4.256   4.375   2.564
 1658SOL     OW16852   2.613   0.058   2.341
 1658SOL    HW116853   2.642   0.149   2.331
 1658SOL    HW216854   2.574   0.054   2.428
 1659SOL     OW16855   2.859   1.874  14.543
 1659SOL    HW116856   2.892   1.805  14.600
 1659SOL    HW216857   2.789   1.832  14.493
 1660SOL     OW16858   2.997   1.504  16.056
 1660SOL    HW116859   2.928   1.464  16.003
 1660SOL    HW216860   2.969   1.490  16.146
 1661SOL     OW16861   4.404   1.594   8.128
 1661SOL    HW116862   4.401   1.555   8.041
 1661SOL    HW216863   4.497   1.607   8.146
 1662SOL     OW16864   2.192   2.919   2.412
 1662SOL    HW116865   2.110   2.871   2.424
 1662SOL    HW216866   2.242   2.866   2.350
 1663SOL     OW16867   3.664   2.682  20.828
 1663SOL    HW116868   3.670   2.767  20.784
 1663SOL    HW216869   3.651   2.619  20.757
 1664SOL     OW16870   1.638   0.601  16.860
 1664SOL    HW116871   1.721   0.579  16.902
 1664SOL    HW216872   1.587   0.520  16.864
 1665SOL     OW16873   4.135   0.051  16.894
 1665SOL    HW116874   4.144   0.115  16.964
 1665SOL    HW216875   4.225   0.027  16.871
 1666SOL     OW16876   0.565   4.338  16.362
 1666SOL    HW116877   0.586   4.318  16.453
 1666SOL    HW216878   0.539   4.254  16.325
 1667SOL     OW16879   2.947   2.923  14.846
 1667SOL    HW116880   2.857   2.946  14.869
 1667SOL    HW216881   2.942   2.833  14.814
 1668SOL     OW16882   2.252   0.653   5.336
 1668SOL    HW116883   2.239   0.667   5.430
 1668SOL    HW216884   2.314   0.581   5.331
 1669SOL     OW16885   4.608   3.990   3.058
 1669SOL    HW116886   4.653   3.922   3.109
 1669SOL    HW216887   4.517   3.983   3.086
 1670SOL     OW16888   1.771   3.666   6.749
 1670SOL    HW116889   1.747   3.590   6.697
 1670SOL    HW216890   1.777   3.737   6.686
 1671SOL     OW16891   2.048   1.463   3.281
 1671SOL    HW116892   1.959   1.483   3.310
 1671SOL    HW216893   2.039   1.437   3.189
 1672SOL     OW16894   2.998   0.381   5.921
 1672SOL    HW116895   2.976   0.289   5.907
 1672SOL    HW216896   2.922   0.417   5.968
 1673SOL     OW16897   4.012   0.443   5.662
 1673SOL    HW116898   4.014   0.347   5.668
 1673SOL    HW216899   4.073   0.473   5.729
 1674SOL     OW16900   0.927   0.365  17.138
 1674SOL    HW116901   0.969   0.302  17.079
 1674SOL    HW216902   0.881   0.426  17.080
 1675SOL     OW16903   0.708   4.693  17.431
 1675SOL    HW116904   0.758   4.775  17.433
 1675SOL    HW216905   0.682   4.678  17.522
 1676SOL     OW16906   2.157   3.146  18.636
 1676SOL    HW116907   2.198   3.063  18.611
 1676SOL    HW216908   2.163   3.200  18.557
 1677SOL     OW16909   3.144   1.204   2.134
 1677SOL    HW116910   3.209   1.202   2.204
 1677SOL    HW216911   3.155   1.121   2.088
 1678SOL     OW16912   4.144   3.364  16.270
 1678SOL    HW116913   4.236   3.349  16.248
 1678SOL    HW216914   4.096   3.343  16.190
 1679SOL     OW16915   1.295   0.421   9.259
 1679SOL    HW116916   1.366   0.425   9.323
 1679SOL    HW216917   1.334   0.453   9.178
 1680SOL     OW16918   2.735   1.389  15.705
 1680SOL    HW116919   2.813   1.420  15.659
 1680SOL    HW216920   2.665   1.448  15.676
 1681SOL     OW16921   2.170   3.874   2.468
 1681SOL    HW116922   2.186   3.819   2.391
 1681SOL    HW216923   2.152   3.961   2.433
 1682SOL     OW16924   0.776   2.560  19.720
 1682SOL    HW116925   0.831   2.520  19.787
 1682SOL    HW216926   0.776   2.497  19.648
 1683SOL     OW16927   0.057   1.797  18.672
 1683SOL    HW116928   0.119   1.835  18.734
 1683SOL    HW216929   0.061   1.703  18.689
 1684SOL     OW16930   1.570   3.120   8.295
 1684SOL    HW116931   1.644   3.153   8.345
 1684SOL    HW216932   1.538   3.045   8.345
 1685SOL     OW16933   4.139   3.158  13.965
 1685SOL    HW116934   4.075   3.089  13.981
 1685SOL    HW216935   4.224   3.113  13.967
 1686SOL     OW16936   0.518   2.930  15.504
 1686SOL    HW116937   0.446   2.988  15.480
 1686SOL    HW216938   0.553   2.967  15.585
 1687SOL     OW16939   2.457   2.621  20.496
 1687SOL    HW116940   2.507   2.549  20.457
 1687SOL    HW216941   2.366   2.592  20.492
 1688SOL     OW16942   2.221   1.344  16.007
 1688SOL    HW116943   2.221   1.391  15.924
 1688SOL    HW216944   2.145   1.286  16.002
 1689SOL     OW16945   4.145   2.509  14.605
 1689SOL    HW116946   4.172   2.593  14.567
 1689SOL    HW216947   4.061   2.528  14.648
 1690SOL     OW16948   3.419   3.423  21.013
 1690SOL    HW116949   3.399   3.343  21.061
 1690SOL    HW216950   3.377   3.411  20.928
 1691SOL     OW16951   2.547   3.489   3.003
 1691SOL    HW116952   2.457   3.456   2.998
 1691SOL    HW216953   2.538   3.584   3.014
 1692SOL     OW16954   3.208   2.001   0.959
 1692SOL    HW116955   3.145   1.984   0.889
 1692SOL    HW216956   3.204   2.096   0.973
 1693SOL     OW16957   3.323   3.408   6.732
 1693SOL    HW116958   3.318   3.312   6.737
 1693SOL    HW216959   3.417   3.427   6.727
 1694SOL     OW16960   1.031   0.859  18.694
 1694SOL    HW116961   1.085   0.787  18.725
 1694SOL    HW216962   0.994   0.897  18.773
 1695SOL     OW16963   4.063   1.008   2.026
 1695SOL    HW116964   4.027   1.050   1.948
 1695SOL    HW216965   4.027   0.919   2.025
 1696SOL     OW16966   0.690   2.932  14.669
 1696SOL    HW116967   0.646   2.934  14.754
 1696SOL    HW216968   0.670   2.845  14.633
 1697SOL     OW16969   1.333   1.271   2.221
 1697SOL    HW116970   1.355   1.231   2.137
 1697SOL    HW216971   1.376   1.357   2.219
 1698SOL     OW16972   0.510   1.456  20.143
 1698SOL    HW116973   0.540   1.405  20.068
 1698SOL    HW216974   0.513   1.394  20.216
 1699SOL     OW16975   4.008   4.011   4.329
 1699SOL    HW116976   4.059   4.087   4.358
 1699SOL    HW216977   4.067   3.962   4.272
 1700SOL     OW16978   1.715   1.606   3.793
 1700SOL    HW116979   1.663   1.532   3.825
 1700SOL    HW216980   1.796   1.603   3.844
 1701SOL     OW16981   2.218   4.592  15.978
 1701SOL    HW116982   2.222   4.603  16.073
 1701SOL    HW216983   2.310   4.588  15.951
 1702SOL     OW16984   2.130   0.798   1.401
 1702SOL    HW116985   2.082   0.853   1.464
 1702SOL    HW216986   2.150   0.857   1.328
 1703SOL     OW16987   2.425   1.471   4.195
 1703SOL    HW116988   2.354   1.533   4.211
 1703SOL    HW216989   2.469   1.462   4.280
 1704SOL     OW16990   1.945   3.989  17.125
 1704SOL    HW116991   1.861   4.034  17.136
 1704SOL    HW216992   1.959   3.943  17.208
 1705SOL     OW16993   3.968   3.082   7.825
 1705SOL    HW116994   4.000   3.103   7.737
 1705SOL    HW216995   3.898   3.145   7.841
 1706SOL     OW16996   3.959   0.278   1.245
 1706SOL    HW116997   3.947   0.258   1.338
 1706SOL    HW216998   4.039   0.230   1.221
 1707SOL     OW16999   1.312   0.165   5.602
 1707SOL    HW117000   1.370   0.236   5.631
 1707SOL    HW217001   1.364   0.085   5.614
 1708SOL     OW17002   3.580   0.312  16.885
 1708SOL    HW117003   3.668   0.323  16.921
 1708SOL    HW217004   3.591   0.320  16.790
 1709SOL     OW17005   0.567   3.383   3.425
 1709SOL    HW117006   0.573   3.470   3.465
 1709SOL    HW217007   0.506   3.335   3.481
 1710SOL     OW17008   1.660   0.037   4.713
 1710SOL    HW117009   1.684   4.753   4.769
 1710SOL    HW217010   1.667   0.003   4.624
 1711SOL     OW17011   2.939   3.936   5.451
 1711SOL    HW117012   2.943   3.874   5.523
 1711SOL    HW217013   3.027   3.974   5.447
 1712SOL     OW17014   0.324   0.505   0.486
 1712SOL    HW117015   0.354   0.438   0.547
 1712SOL    HW217016   0.400   0.523   0.430
 1713SOL     OW17017   0.024   1.048   1.552
 1713SOL    HW117018   0.101   1.017   1.504
 1713SOL    HW217019   4.769   1.106   1.491
 1714SOL     OW17020   0.687   1.333   8.292
 1714SOL    HW117021   0.637   1.414   8.289
 1714SOL    HW217022   0.757   1.346   8.227
 1715SOL     OW17023   4.574   2.642  17.957
 1715SOL    HW117024   4.646   2.649  17.894
 1715SOL    HW217025   4.499   2.612  17.905
 1716SOL     OW17026   0.492   2.434   4.206
 1716SOL    HW117027   0.480   2.466   4.295
 1716SOL    HW217028   0.454   2.346   4.207
 1717SOL     OW17029   0.562   4.002   3.736
 1717SOL    HW117030   0.556   4.032   3.827
 1717SOL    HW217031   0.555   4.082   3.684
 1718SOL     OW17032   2.995   0.386  17.985
 1718SOL    HW117033   2.987   0.411  18.077
 1718SOL    HW217034   3.005   0.291  17.986
 1719SOL     OW17035   0.221   2.057   4.108
 1719SOL    HW117036   0.173   2.140   4.112
 1719SOL    HW217037   0.159   1.992   4.141
 1720SOL     OW17038   0.326   4.598  16.506
 1720SOL    HW117039   0.327   4.529  16.572
 1720SOL    HW217040   0.386   4.664  16.541
 1721SOL     OW17041   0.745   0.455  16.925
 1721SOL    HW117042   0.668   0.401  16.943
 1721SOL    HW217043   0.780   0.420  16.843
 1722SOL     OW17044   1.109   0.295  18.825
 1722SOL    HW117045   1.116   0.318  18.732
 1722SOL    HW217046   1.142   0.205  18.831
 1723SOL     OW17047   0.373   4.025  17.522
 1723SOL    HW117048   0.337   4.009  17.609
 1723SOL    HW217049   0.369   4.120  17.511
 1724SOL     OW17050   1.672   1.962   1.147
 1724SOL    HW117051   1.668   1.876   1.105
 1724SOL    HW217052   1.625   2.020   1.087
 1725SOL     OW17053   0.154   4.431  20.176
 1725SOL    HW117054   0.105   4.488  20.117
 1725SOL    HW217055   0.228   4.484  20.205
 1726SOL     OW17056   0.116   3.682  17.979
 1726SOL    HW117057   0.180   3.637  17.924
 1726SOL    HW217058   0.165   3.754  18.019
 1727SOL     OW17059   2.080   1.886  20.307
 1727SOL    HW117060   2.153   1.824  20.300
 1727SOL    HW217061   2.121   1.972  20.299
 1728SOL     OW17062   2.824   4.673   2.398
 1728SOL    HW117063   2.888   4.672   2.327
 1728SOL    HW217064   2.764   4.744   2.374
 1729SOL     OW17065   4.119   4.696   4.412
 1729SOL    HW117066   4.064   4.774   4.411
 1729SOL    HW217067   4.208   4.730   4.418
 1730SOL     OW17068   0.049   0.919  15.863
 1730SOL    HW117069   4.756   0.931  15.909
 1730SOL    HW217070   0.105   0.875  15.926
 1731SOL     OW17071   1.916   2.189  20.273
 1731SOL    HW117072   1.955   2.175  20.187
 1731SOL    HW217073   1.854   2.117  20.283
 1732SOL     OW17074   2.576   4.402  17.866
 1732SOL    HW117075   2.614   4.316  17.883
 1732SOL    HW217076   2.609   4.426  17.779
 1733SOL     OW17077   3.143   2.560   1.604
 1733SOL    HW117078   3.224   2.605   1.580
 1733SOL    HW217079   3.116   2.515   1.524
 1734SOL     OW17080   4.154   4.129  14.864
 1734SOL    HW117081   4.067   4.106  14.896
 1734SOL    HW217082   4.149   4.223  14.848
 1735SOL     OW17083   0.410   4.772  14.283
 1735SOL    HW117084   0.365   0.057  14.244
 1735SOL    HW217085   0.408   4.705  14.215
 1736SOL     OW17086   0.194   2.700  17.999
 1736SOL    HW117087   0.130   2.689  17.929
 1736SOL    HW217088   0.272   2.655  17.967
 1737SOL     OW17089   1.170   0.071   3.078
 1737SOL    HW117090   1.231   0.002   3.104
 1737SOL    HW217091   1.190   0.087   2.986
 1738SOL     OW17092   3.138   2.118   0.103
 1738SOL    HW117093   3.202   2.099   0.172
 1738SOL    HW217094   3.163   2.061   0.031
 1739SOL     OW17095   4.298   0.518   6.451
 1739SOL    HW117096   4.281   0.553   6.539
 1739SOL    HW217097   4.212   0.517   6.409
 1740SOL     OW17098   3.390   3.170   0.338
 1740SOL    HW117099   3.316   3.221   0.305
 1740SOL    HW217100   3.359   3.080   0.339
 1741SOL     OW17101   0.519   1.409   6.075
 1741SOL    HW117102   0.527   1.366   5.990
 1741SOL    HW217103   0.430   1.389   6.103
 1742SOL     OW17104   1.905   1.360  12.926
 1742SOL    HW117105   1.844   1.416  12.878
 1742SOL    HW217106   1.877   1.367  13.017
 1743SOL     OW17107   0.904   3.755   0.950
 1743SOL    HW117108   0.901   3.660   0.939
 1743SOL    HW217109   0.850   3.772   1.027
 1744SOL     OW17110   0.239   3.928  18.064
 1744SOL    HW117111   0.234   4.019  18.094
 1744SOL    HW217112   0.316   3.892  18.108
 1745SOL     OW17113   4.686   3.270  15.565
 1745SOL    HW117114   4.611   3.312  15.608
 1745SOL    HW217115   4.759   3.285  15.625
 1746SOL     OW17116   2.295   2.178  14.282
 1746SOL    HW117117   2.370   2.237  14.280
 1746SOL    HW217118   2.221   2.234  14.306
 1747SOL     OW17119   3.514   2.762  14.119
 1747SOL    HW117120   3.430   2.758  14.074
 1747SOL    HW217121   3.574   2.714  14.062
 1748SOL     OW17122   4.024   4.554   4.679
 1748SOL    HW117123   3.934   4.581   4.697
 1748SOL    HW217124   4.054   4.613   4.610
 1749SOL     OW17125   3.099   2.757  17.474
 1749SOL    HW117126   3.127   2.710  17.396
 1749SOL    HW217127   3.127   2.847  17.460
 1750SOL     OW17128   4.132   0.764  18.238
 1750SOL    HW117129   4.214   0.773  18.190
 1750SOL    HW217130   4.108   0.854  18.260
 1751SOL     OW17131   2.413   2.376   6.414
 1751SOL    HW117132   2.365   2.302   6.451
 1751SOL    HW217133   2.455   2.340   6.336
 1752SOL     OW17134   2.659   2.574   7.035
 1752SOL    HW117135   2.565   2.573   7.017
 1752SOL    HW217136   2.665   2.578   7.130
 1753SOL     OW17137   2.617   4.090  19.822
 1753SOL    HW117138   2.550   4.108  19.755
 1753SOL    HW217139   2.682   4.036  19.777
 1754SOL     OW17140   3.887   3.109   6.271
 1754SOL    HW117141   3.949   3.172   6.235
 1754SOL    HW217142   3.816   3.106   6.207
 1755SOL     OW17143   4.765   0.099   3.650
 1755SOL    HW117144   0.051   0.073   3.702
 1755SOL    HW217145   4.777   0.056   3.566
 1756SOL     OW17146   2.944   0.623   1.797
 1756SOL    HW117147   2.910   0.562   1.731
 1756SOL    HW217148   3.023   0.659   1.757
 1757SOL     OW17149   2.949   0.409  19.519
 1757SOL    HW117150   2.959   0.474  19.589
 1757SOL    HW217151   2.874   0.439  19.468
 1758SOL     OW17152   2.730   3.952  20.836
 1758SOL    HW117153   2.635   3.957  20.827
 1758SOL    HW217154   2.764   4.005  20.763
 1759SOL     OW17155   2.507   3.631  14.458
 1759SOL    HW117156   2.521   3.553  14.405
 1759SOL    HW217157   2.416   3.655  14.443
 1760SOL     OW17158   3.537   0.019  19.632
 1760SOL    HW117159   3.529   4.722  19.672
 1760SOL    HW217160   3.453   0.033  19.589
 1761SOL     OW17161   2.470   0.608   0.364
 1761SOL    HW117162   2.385   0.652   0.372
 1761SOL    HW217163   2.516   0.630   0.445
 1762SOL     OW17164   4.215   2.880  20.563
 1762SOL    HW117165   4.287   2.847  20.509
 1762SOL    HW217166   4.151   2.914  20.500
 1763SOL     OW17167   1.618   2.417   8.676
 1763SOL    HW117168   1.702   2.422   8.722
 1763SOL    HW217169   1.639   2.374   8.593
 1764SOL     OW17170   2.116   4.633   8.123
 1764SOL    HW117171   2.124   4.699   8.054
 1764SOL    HW217172   2.164   4.669   8.197
 1765SOL     OW17173   0.243   0.528  18.212
 1765SOL    HW117174   0.249   0.486  18.298
 1765SOL    HW217175   0.334   0.535  18.182
 1766SOL     OW17176   2.134   1.241  15.702
 1766SOL    HW117177   2.218   1.197  15.685
 1766SOL    HW217178   2.096   1.192  15.775
 1767SOL     OW17179   0.597   2.849  17.335
 1767SOL    HW117180   0.518   2.814  17.294
 1767SOL    HW217181   0.571   2.868  17.425
 1768SOL     OW17182   0.191   3.156  16.615
 1768SOL    HW117183   0.206   3.068  16.581
 1768SOL    HW217184   0.120   3.191  16.561
 1769SOL     OW17185   4.360   4.285  17.979
 1769SOL    HW117186   4.410   4.221  18.030
 1769SOL    HW217187   4.345   4.242  17.895
 1770SOL     OW17188   1.505   0.664  18.795
 1770SOL    HW117189   1.504   0.587  18.852
 1770SOL    HW217190   1.554   0.636  18.718
 1771SOL     OW17191   4.584   3.605  21.080
 1771SOL    HW117192   4.613   3.641  20.996
 1771SOL    HW217193   4.604   3.512  21.074
 1772SOL     OW17194   2.659   1.086   4.365
 1772SOL    HW117195   2.742   1.052   4.399
 1772SOL    HW217196   2.593   1.027   4.402
 1773SOL     OW17197   3.646   2.932  15.671
 1773SOL    HW117198   3.646   2.901  15.580
 1773SOL    HW217199   3.674   2.856  15.722
 1774SOL     OW17200   3.344   4.280   3.528
 1774SOL    HW117201   3.343   4.257   3.435
 1774SOL    HW217202   3.281   4.220   3.568
 1775SOL     OW17203   0.661   4.339  15.652
 1775SOL    HW117204   0.740   4.317  15.602
 1775SOL    HW217205   0.637   4.258  15.696
 1776SOL     OW17206   1.795   1.031   2.152
 1776SOL    HW117207   1.737   1.107   2.143
 1776SOL    HW217208   1.828   1.015   2.063
 1777SOL     OW17209   4.596   4.215   5.193
 1777SOL    HW117210   4.600   4.157   5.117
 1777SOL    HW217211   4.583   4.157   5.268
 1778SOL     OW17212   2.884   3.643  17.027
 1778SOL    HW117213   2.954   3.699  16.994
 1778SOL    HW217214   2.923   3.556  17.033
 1779SOL     OW17215   4.123   0.248   1.868
 1779SOL    HW117216   4.219   0.253   1.870
 1779SOL    HW217217   4.101   0.231   1.776
 1780SOL     OW17218   1.267   0.299   0.526
 1780SOL    HW117219   1.184   0.254   0.509
 1780SOL    HW217220   1.245   0.392   0.521
 1781SOL     OW17221   3.179   3.404  18.969
 1781SOL    HW117222   3.102   3.382  18.917
 1781SOL    HW217223   3.155   3.383  19.059
 1782SOL     OW17224   1.923   1.135   1.061
 1782SOL    HW117225   2.007   1.098   1.087
 1782SOL    HW217226   1.940   1.228   1.048
 1783SOL     OW17227   4.074   0.489   3.486
 1783SOL    HW117228   4.009   0.513   3.420
 1783SOL    HW217229   4.061   0.552   3.557
 1784SOL     OW17230   0.380   2.493   0.355
 1784SOL    HW117231   0.420   2.429   0.297
 1784SOL    HW217232   0.299   2.451   0.385
 1785SOL     OW17233   2.753   0.403  16.587
 1785SOL    HW117234   2.717   0.360  16.664
 1785SOL    HW217235   2.813   0.469  16.622
 1786SOL     OW17236   0.805   2.393   8.208
 1786SOL    HW117237   0.889   2.350   8.226
 1786SOL    HW217238   0.748   2.323   8.176
 1787SOL     OW17239   4.286   2.290  17.970
 1787SOL    HW117240   4.296   2.257  18.059
 1787SOL    HW217241   4.251   2.216  17.921
 1788SOL     OW17242   3.918   1.659   9.496
 1788SOL    HW117243   3.921   1.621   9.584
 1788SOL    HW217244   3.959   1.593   9.439
 1789SOL     OW17245   1.597   0.113   7.290
 1789SOL    HW117246   1.605   0.118   7.195
 1789SOL    HW217247   1.526   0.174   7.311
 1790SOL     OW17248   0.479   4.604  14.078
 1790SOL    HW117249   0.415   4.599  14.007
 1790SOL    HW217250   0.490   4.514  14.107
 1791SOL     OW17251   0.364   2.324   6.923
 1791SOL    HW117252   0.435   2.260   6.927
 1791SOL    HW217253   0.291   2.282   6.968
 1792SOL     OW17254   4.714   1.909   9.137
 1792SOL    HW117255   4.729   1.909   9.231
 1792SOL    HW217256   4.675   1.995   9.119
 1793SOL     OW17257   1.774   3.310   4.945
 1793SOL    HW117258   1.738   3.229   4.981
 1793SOL    HW217259   1.866   3.290   4.929
 1794SOL     OW17260   2.502   0.521   4.745
 1794SOL    HW117261   2.496   0.453   4.812
 1794SOL    HW217262   2.449   0.488   4.672
 1795SOL     OW17263   3.084   0.246   8.002
 1795SOL    HW117264   3.097   0.337   7.976
 1795SOL    HW217265   3.173   0.210   8.006
 1796SOL     OW17266   0.521   2.114  10.635
 1796SOL    HW117267   0.614   2.127  10.653
 1796SOL    HW217268   0.506   2.021  10.654
 1797SOL     OW17269   3.156   2.013   8.452
 1797SOL    HW117270   3.126   1.936   8.500
 1797SOL    HW217271   3.182   1.980   8.366
 1798SOL     OW17272   4.541   0.741  16.185
 1798SOL    HW117273   4.610   0.675  16.183
 1798SOL    HW217274   4.555   0.788  16.267
 1799SOL     OW17275   0.439   0.991   9.097
 1799SOL    HW117276   0.522   1.020   9.060
 1799SOL    HW217277   0.374   1.010   9.029
 1800SOL     OW17278   0.103   3.323   8.999
 1800SOL    HW117279   0.157   3.292   8.926
 1800SOL    HW217280   0.157   3.388   9.043
 1801SOL     OW17281   0.573   2.287   9.450
 1801SOL    HW117282   0.665   2.309   9.433
 1801SOL    HW217283   0.524   2.361   9.414
 1802SOL     OW17284   0.334   2.376   7.559
 1802SOL    HW117285   0.355   2.396   7.468
 1802SOL    HW217286   0.294   2.289   7.556
 1803SOL     OW17287   0.491   2.537   9.342
 1803SOL    HW117288   0.416   2.572   9.389
 1803SOL    HW217289   0.481   2.571   9.253
 1804SOL     OW17290   2.499   2.324   8.273
 1804SOL    HW117291   2.545   2.274   8.340
 1804SOL    HW217292   2.531   2.414   8.284
 1805SOL     OW17293   4.377   4.164  15.518
 1805SOL    HW117294   4.424   4.246  15.532
 1805SOL    HW217295   4.445   4.100  15.497
 1806SOL     OW17296   0.400   4.649   8.819
 1806SOL    HW117297   0.468   4.697   8.867
 1806SOL    HW217298   0.426   4.656   8.727
 1807SOL     OW17299   3.043   0.701   9.126
 1807SOL    HW117300   3.138   0.716   9.128
 1807SOL    HW217301   3.005   0.788   9.113
 1808SOL     OW17302   3.946   1.137   6.315
 1808SOL    HW117303   3.939   1.225   6.353
 1808SOL    HW217304   3.857   1.103   6.318
 1809SOL     OW17305   3.807   3.646  14.144
 1809SOL    HW117306   3.795   3.715  14.079
 1809SOL    HW217307   3.721   3.636  14.184
 1810SOL     OW17308   4.661   3.159   9.955
 1810SOL    HW117309   4.697   3.247   9.948
 1810SOL    HW217310   4.591   3.157   9.890
 1811SOL     OW17311   4.622   0.846   9.515
 1811SOL    HW117312   4.609   0.776   9.579
 1811SOL    HW217313   4.536   0.887   9.507
 1812SOL     OW17314   3.610   1.205   1.778
 1812SOL    HW117315   3.702   1.184   1.792
 1812SOL    HW217316   3.602   1.215   1.683
 1813SOL     OW17317   2.901   3.892  10.018
 1813SOL    HW117318   2.971   3.907   9.954
 1813SOL    HW217319   2.848   3.823   9.979
 1814SOL     OW17320   3.551   3.412   8.910
 1814SOL    HW117321   3.564   3.473   8.837
 1814SOL    HW217322   3.637   3.406   8.952
 1815SOL     OW17323   1.648   3.337   5.438
 1815SOL    HW117324   1.643   3.248   5.403
 1815SOL    HW217325   1.666   3.325   5.531
 1816SOL     OW17326   0.743   2.338  10.375
 1816SOL    HW117327   0.756   2.282  10.451
 1816SOL    HW217328   0.652   2.366  10.381
 1817SOL     OW17329   3.645   2.252  10.631
 1817SOL    HW117330   3.730   2.255  10.587
 1817SOL    HW217331   3.638   2.337  10.674
 1818SOL     OW17332   4.222   1.909  10.313
 1818SOL    HW117333   4.301   1.946  10.273
 1818SOL    HW217334   4.233   1.814  10.304
 1819SOL     OW17335   2.581   3.902  11.362
 1819SOL    HW117336   2.601   3.939  11.448
 1819SOL    HW217337   2.612   3.812  11.367
 1820SOL     OW17338   3.724   2.649  10.242
 1820SOL    HW117339   3.752   2.573  10.190
 1820SOL    HW217340   3.681   2.611  10.318
 1821SOL     OW17341   4.287   0.974  11.885
 1821SOL    HW117342   4.224   0.929  11.941
 1821SOL    HW217343   4.245   0.977  11.799
 1822SOL     OW17344   3.608   2.111  10.988
 1822SOL    HW117345   3.633   2.182  10.929
 1822SOL    HW217346   3.521   2.085  10.958
 1823SOL     OW17347   3.197   1.604  11.152
 1823SOL    HW117348   3.141   1.660  11.099
 1823SOL    HW217349   3.159   1.609  11.240
 1824SOL     OW17350   3.791   2.041   9.989
 1824SOL    HW117351   3.764   2.026  10.080
 1824SOL    HW217352   3.797   2.136   9.982
 1825SOL     OW17353   0.038   2.112  10.158
 1825SOL    HW117354   4.752   2.082  10.208
 1825SOL    HW217355   0.111   2.109  10.220
 1826SOL     OW17356   4.019   0.313   9.072
 1826SOL    HW117357   3.953   0.378   9.049
 1826SOL    HW217358   4.102   0.350   9.041
 1827SOL     OW17359   4.051   1.671  10.460
 1827SOL    HW117360   3.998   1.730  10.407
 1827SOL    HW217361   4.113   1.728  10.505
 1828SOL     OW17362   4.600   3.847  11.300
 1828SOL    HW117363   4.544   3.795  11.243
 1828SOL    HW217364   4.544   3.917  11.332
 1829SOL     OW17365   3.113   1.928  10.015
 1829SOL    HW117366   3.152   1.888  10.093
 1829SOL    HW217367   3.143   1.874   9.942
 1830SOL     OW17368   3.369   1.204  10.860
 1830SOL    HW117369   3.434   1.140  10.888
 1830SOL    HW217370   3.363   1.266  10.933
 1831SOL     OW17371   4.716   1.682  13.419
 1831SOL    HW117372   4.663   1.614  13.460
 1831SOL    HW217373   4.695   1.676  13.326
 1832SOL     OW17374   3.410   0.973  13.001
 1832SOL    HW117375   3.410   0.920  13.081
 1832SOL    HW217376   3.335   1.032  13.011
 1833SOL     OW17377   2.155   0.829  11.628
 1833SOL    HW117378   2.119   0.853  11.713
 1833SOL    HW217379   2.079   0.822  11.571
 1834SOL     OW17380   3.553   2.443   9.849
 1834SOL    HW117381   3.525   2.500   9.777
 1834SOL    HW217382   3.532   2.355   9.819
 1835SOL     OW17383   3.439   1.821  11.167
 1835SOL    HW117384   3.373   1.752  11.164
 1835SOL    HW217385   3.399   1.894  11.120
 1836SOL     OW17386   0.475   1.183  12.125
 1836SOL    HW117387   0.562   1.192  12.086
 1836SOL    HW217388   0.457   1.268  12.165
 1837SOL     OW17389   0.111   1.023  12.389
 1837SOL    HW117390   0.025   1.064  12.377
 1837SOL    HW217391   0.156   1.036  12.305
 1838SOL     OW17392   0.320   1.458  12.154
 1838SOL    HW117393   0.318   1.429  12.245
 1838SOL    HW217394   0.322   1.554  12.160
 1839SOL     OW17395   3.041   1.804  11.615
 1839SOL    HW117396   3.103   1.871  11.586
 1839SOL    HW217397   3.071   1.724  11.572
 1840SOL     OW17398   0.005   2.479  12.052
 1840SOL    HW117399   4.783   2.424  12.129
 1840SOL    HW217400   0.015   2.567  12.087
 1841SOL     OW17401   4.026   1.770  12.577
 1841SOL    HW117402   3.986   1.792  12.493
 1841SOL    HW217403   3.958   1.788  12.642
 1842SOL     OW17404   3.972   0.917  10.064
 1842SOL    HW117405   3.898   0.915  10.124
 1842SOL    HW217406   3.957   0.843  10.005
 1843SOL     OW17407   4.273   0.311  12.061
 1843SOL    HW117408   4.184   0.292  12.091
 1843SOL    HW217409   4.329   0.268  12.126
 1844SOL     OW17410   3.786   1.710  10.255
 1844SOL    HW117411   3.749   1.692  10.341
 1844SOL    HW217412   3.802   1.623  10.218
 1845SOL     OW17413   3.043   1.386  12.315
 1845SOL    HW117414   3.118   1.445  12.305
 1845SOL    HW217415   3.081   1.298  12.316
 1846SOL     OW17416   2.839   1.478  12.461
 1846SOL    HW117417   2.916   1.472  12.405
 1846SOL    HW217418   2.777   1.531  12.411
 1847SOL     OW17419   4.074   3.196  11.665
 1847SOL    HW117420   4.054   3.168  11.754
 1847SOL    HW217421   4.101   3.116  11.620
 1848SOL     OW17422   4.609   1.920  13.061
 1848SOL    HW117423   4.572   1.868  12.989
 1848SOL    HW217424   4.693   1.878  13.080
 1849SOL     OW17425   3.726   2.287  11.269
 1849SOL    HW117426   3.719   2.192  11.277
 1849SOL    HW217427   3.719   2.319  11.359
 1850SOL     OW17428   3.881   1.151  10.430
 1850SOL    HW117429   3.970   1.161  10.395
 1850SOL    HW217430   3.871   1.223  10.492
 1851SOL     OW17431   4.418   1.951  11.275
 1851SOL    HW117432   4.454   2.037  11.253
 1851SOL    HW217433   4.363   1.928  11.200
 1852SOL     OW17434   4.180   1.342  11.772
 1852SOL    HW117435   4.165   1.433  11.796
 1852SOL    HW217436   4.232   1.307  11.844
 1853SOL     OW17437   3.653   1.825  17.221
 1853SOL    HW117438   3.590   1.816  17.292
 1853SOL    HW217439   3.600   1.849  17.145
 1854SOL     OW17440   0.269   4.480   2.553
 1854SOL    HW117441   0.313   4.511   2.632
 1854SOL    HW217442   0.185   4.527   2.553
 1855SOL     OW17443   4.330   1.858  12.110
 1855SOL    HW117444   4.297   1.850  12.199
 1855SOL    HW217445   4.400   1.792  12.104
 1856SOL     OW17446   3.422   3.504   0.364
 1856SOL    HW117447   3.339   3.529   0.323
 1856SOL    HW217448   3.456   3.585   0.401
 1857SOL     OW17449   0.694   2.992  16.307
 1857SOL    HW117450   0.669   3.063  16.247
 1857SOL    HW217451   0.630   2.923  16.291
 1858SOL     OW17452   2.848   2.068   0.578
 1858SOL    HW117453   2.801   1.993   0.615
 1858SOL    HW217454   2.781   2.118   0.532
 1859SOL     OW17455   1.779   4.113   6.464
 1859SOL    HW117456   1.810   4.175   6.397
 1859SOL    HW217457   1.684   4.123   6.465
 1860SOL     OW17458   1.801   2.949   3.878
 1860SOL    HW117459   1.894   2.968   3.887
 1860SOL    HW217460   1.789   2.865   3.921
 1861SOL     OW17461   1.131   0.297  18.539
 1861SOL    HW117462   1.084   0.257  18.466
 1861SOL    HW217463   1.201   0.348  18.498
 1862SOL     OW17464   0.473   1.475  19.226
 1862SOL    HW117465   0.391   1.474  19.276
 1862SOL    HW217466   0.493   1.568  19.214
 1863SOL     OW17467   1.608   2.241  15.955
 1863SOL    HW117468   1.648   2.170  15.905
 1863SOL    HW217469   1.532   2.268  15.903
 1864SOL     OW17470   0.977   3.374   6.219
 1864SOL    HW117471   0.988   3.451   6.275
 1864SOL    HW217472   1.044   3.385   6.151
 1865SOL     OW17473   3.487   3.394   5.887
 1865SOL    HW117474   3.499   3.338   5.964
 1865SOL    HW217475   3.413   3.356   5.840
 1866SOL     OW17476   0.079   0.198   4.694
 1866SOL    HW117477   0.048   0.171   4.780
 1866SOL    HW217478   0.101   0.116   4.650
 1867SOL     OW17479   3.739   3.928  18.634
 1867SOL    HW117480   3.677   3.942  18.562
 1867SOL    HW217481   3.808   3.993  18.619
 1868SOL     OW17482   3.591   2.186  13.071
 1868SOL    HW117483   3.548   2.264  13.035
 1868SOL    HW217484   3.605   2.130  12.995
 1869SOL     OW17485   3.377   4.687  15.436
 1869SOL    HW117486   3.429   4.765  15.456
 1869SOL    HW217487   3.287   4.714  15.452
 1870SOL     OW17488   1.682   0.115   3.751
 1870SOL    HW117489   1.725   0.187   3.798
 1870SOL    HW217490   1.631   0.158   3.683
 1871SOL     OW17491   3.760   2.340   1.897
 1871SOL    HW117492   3.743   2.289   1.818
 1871SOL    HW217493   3.844   2.383   1.881
 1872SOL     OW17494   1.291   0.698  12.524
 1872SOL    HW117495   1.257   0.716  12.436
 1872SOL    HW217496   1.219   0.722  12.583
 1873SOL     OW17497   3.235   0.084  18.198
 1873SOL    HW117498   3.216   4.780  18.189
 1873SOL    HW217499   3.330   0.090  18.187
 1874SOL     OW17500   1.812   1.776  17.418
 1874SOL    HW117501   1.791   1.796  17.327
 1874SOL    HW217502   1.902   1.806  17.429
 1875SOL     OW17503   4.748   1.990  13.522
 1875SOL    HW117504   4.725   2.004  13.430
 1875SOL    HW217505   4.741   1.895  13.534
 1876SOL     OW17506   1.910   1.526  19.809
 1876SOL    HW117507   1.948   1.471  19.877
 1876SOL    HW217508   1.817   1.529  19.830
 1877SOL     OW17509   0.158   4.473   5.223
 1877SOL    HW117510   0.110   4.443   5.146
 1877SOL    HW217511   0.239   4.509   5.188
 1878SOL     OW17512   1.778   0.298   4.457
 1878SOL    HW117513   1.829   0.326   4.533
 1878SOL    HW217514   1.691   0.279   4.492
 1879SOL     OW17515   1.489   0.722   2.039
 1879SOL    HW117516   1.448   0.796   2.084
 1879SOL    HW217517   1.583   0.735   2.052
 1880SOL     OW17518   0.036   2.642  13.856
 1880SOL    HW117519   0.078   2.560  13.881
 1880SOL    HW217520   0.051   2.648  13.762
 1881SOL     OW17521   0.369   1.435  11.867
 1881SOL    HW117522   0.339   1.346  11.849
 1881SOL    HW217523   0.347   1.450  11.959
 1882SOL     OW17524   1.376   1.070   5.001
 1882SOL    HW117525   1.397   0.983   4.967
 1882SOL    HW217526   1.323   1.053   5.079
 1883SOL     OW17527   1.872   3.189   5.203
 1883SOL    HW117528   1.930   3.166   5.130
 1883SOL    HW217529   1.929   3.232   5.267
 1884SOL     OW17530   3.028   0.707   5.404
 1884SOL    HW117531   3.037   0.615   5.378
 1884SOL    HW217532   3.084   0.755   5.343
 1885SOL     OW17533   0.637   4.458  18.152
 1885SOL    HW117534   0.666   4.419  18.234
 1885SOL    HW217535   0.680   4.407  18.084
 1886SOL     OW17536   1.207   3.220   2.651
 1886SOL    HW117537   1.181   3.310   2.672
 1886SOL    HW217538   1.262   3.229   2.573
 1887SOL     OW17539   4.767   2.237   5.135
 1887SOL    HW117540   4.768   2.244   5.230
 1887SOL    HW217541   4.773   2.327   5.104
 1888SOL     OW17542   3.335   4.714  17.597
 1888SOL    HW117543   3.327   4.636  17.542
 1888SOL    HW217544   3.257   4.765  17.578
 1889SOL     OW17545   0.361   0.721   3.391
 1889SOL    HW117546   0.326   0.695   3.476
 1889SOL    HW217547   0.290   0.705   3.329
 1890SOL     OW17548   3.467   3.139  15.672
 1890SOL    HW117549   3.530   3.067  15.680
 1890SOL    HW217550   3.519   3.212  15.637
 1891SOL     OW17551   4.466   1.738  14.139
 1891SOL    HW117552   4.529   1.668  14.157
 1891SOL    HW217553   4.515   1.819  14.156
 1892SOL     OW17554   4.411   0.059   6.990
 1892SOL    HW117555   4.437   4.761   6.961
 1892SOL    HW217556   4.452   0.069   7.076
 1893SOL     OW17557   2.786   4.048  14.425
 1893SOL    HW117558   2.755   3.972  14.475
 1893SOL    HW217559   2.847   4.011  14.361
 1894SOL     OW17560   3.217   1.112  18.311
 1894SOL    HW117561   3.237   1.109  18.217
 1894SOL    HW217562   3.244   1.200  18.338
 1895SOL     OW17563   4.512   0.492  19.097
 1895SOL    HW117564   4.446   0.473  19.030
 1895SOL    HW217565   4.461   0.516  19.175
 1896SOL     OW17566   0.799   2.893  20.295
 1896SOL    HW117567   0.829   2.806  20.321
 1896SOL    HW217568   0.703   2.886  20.296
 1897SOL     OW17569   1.270   3.827   4.471
 1897SOL    HW117570   1.281   3.914   4.433
 1897SOL    HW217571   1.318   3.831   4.554
 1898SOL     OW17572   0.009   0.759   1.601
 1898SOL    HW117573   0.028   0.735   1.510
 1898SOL    HW217574   0.032   0.852   1.606
 1899SOL     OW17575   4.237   0.623  15.837
 1899SOL    HW117576   4.310   0.601  15.895
 1899SOL    HW217577   4.198   0.538  15.814
 1900SOL     OW17578   2.009   4.740   3.965
 1900SOL    HW117579   2.058   4.660   3.983
 1900SOL    HW217580   1.948   4.716   3.895
 1901SOL     OW17581   3.984   4.321   1.070
 1901SOL    HW117582   4.042   4.334   1.145
 1901SOL    HW217583   3.990   4.403   1.021
 1902SOL     OW17584   1.799   2.908  19.795
 1902SOL    HW117585   1.802   3.003  19.802
 1902SOL    HW217586   1.788   2.891  19.701
 1903SOL     OW17587   0.156   0.251   6.810
 1903SOL    HW117588   0.078   0.269   6.863
 1903SOL    HW217589   0.122   0.217   6.727
 1904SOL     OW17590   2.080   4.124  15.947
 1904SOL    HW117591   2.138   4.124  16.024
 1904SOL    HW217592   2.098   4.208  15.904
 1905SOL     OW17593   1.642   4.687  19.940
 1905SOL    HW117594   1.719   4.698  19.884
 1905SOL    HW217595   1.678   4.667  20.027
 1906SOL     OW17596   1.967   4.180  19.205
 1906SOL    HW117597   1.880   4.180  19.246
 1906SOL    HW217598   2.021   4.231  19.265
 1907SOL     OW17599   0.890   1.007   5.461
 1907SOL    HW117600   0.934   0.927   5.433
 1907SOL    HW217601   0.820   1.020   5.396
 1908SOL     OW17602   2.568   1.215  16.556
 1908SOL    HW117603   2.563   1.191  16.649
 1908SOL    HW217604   2.661   1.229  16.540
 1909SOL     OW17605   4.143   2.367  19.638
 1909SOL    HW117606   4.093   2.390  19.716
 1909SOL    HW217607   4.167   2.275  19.651
 1910SOL     OW17608   3.078   1.374  17.136
 1910SOL    HW117609   2.986   1.398  17.126
 1910SOL    HW217610   3.112   1.436  17.200
 1911SOL     OW17611   0.454   4.762  13.850
 1911SOL    HW117612   0.458   4.763  13.754
 1911SOL    HW217613   0.530   4.710  13.877
 1912SOL     OW17614   3.005   3.390  21.194
 1912SOL    HW117615   2.918   3.414  21.226
 1912SOL    HW217616   2.988   3.324  21.126
 1913SOL     OW17617   1.320   4.274  15.631
 1913SOL    HW117618   1.412   4.289  15.609
 1913SOL    HW217619   1.314   4.179  15.642
 1914SOL     OW17620   4.351   4.404  20.160
 1914SOL    HW117621   4.267   4.449  20.161
 1914SOL    HW217622   4.330   4.314  20.184
 1915SOL     OW17623   2.261   4.101  16.174
 1915SOL    HW117624   2.199   4.051  16.228
 1915SOL    HW217625   2.346   4.059  16.190
 1916SOL     OW17626   0.738   3.556  19.247
 1916SOL    HW117627   0.778   3.477  19.211
 1916SOL    HW217628   0.658   3.525  19.289
 1917SOL     OW17629   2.200   2.773   5.357
 1917SOL    HW117630   2.201   2.745   5.266
 1917SOL    HW217631   2.271   2.723   5.398
 1918SOL     OW17632   1.306   3.409  20.770
 1918SOL    HW117633   1.365   3.442  20.702
 1918SOL    HW217634   1.337   3.321  20.789
 1919SOL     OW17635   1.525   0.763  15.763
 1919SOL    HW117636   1.572   0.691  15.806
 1919SOL    HW217637   1.466   0.719  15.701
 1920SOL     OW17638   4.477   4.545   6.991
 1920SOL    HW117639   4.460   4.486   6.918
 1920SOL    HW217640   4.559   4.513   7.029
 1921SOL     OW17641   0.416   0.332   3.569
 1921SOL    HW117642   0.478   0.310   3.499
 1921SOL    HW217643   0.351   0.388   3.526
 1922SOL     OW17644   3.041   3.115   5.827
 1922SOL    HW117645   2.986   3.186   5.794
 1922SOL    HW217646   3.002   3.092   5.912
 1923SOL     OW17647   2.635   1.032  17.456
 1923SOL    HW117648   2.714   1.074  17.422
 1923SOL    HW217649   2.574   1.104  17.469
 1924SOL     OW17650   3.691   3.798  16.917
 1924SOL    HW117651   3.694   3.829  16.827
 1924SOL    HW217652   3.614   3.742  16.921
 1925SOL     OW17653   4.072   0.095   4.954
 1925SOL    HW117654   4.024   0.100   5.036
 1925SOL    HW217655   4.045   0.012   4.915
 1926SOL     OW17656   2.408   3.770  13.111
 1926SOL    HW117657   2.451   3.746  13.029
 1926SOL    HW217658   2.370   3.688  13.143
 1927SOL     OW17659   0.568   3.468   1.724
 1927SOL    HW117660   0.544   3.378   1.701
 1927SOL    HW217661   0.496   3.521   1.690
 1928SOL     OW17662   1.924   4.759  15.053
 1928SOL    HW117663   1.872   4.717  14.984
 1928SOL    HW217664   1.997   0.010  15.006
 1929SOL     OW17665   1.594   0.820   0.531
 1929SOL    HW117666   1.679   0.781   0.513
 1929SOL    HW217667   1.583   0.886   0.463
 1930SOL     OW17668   3.242   4.391  15.975
 1930SOL    HW117669   3.272   4.355  16.058
 1930SOL    HW217670   3.184   4.463  15.999
 1931SOL     OW17671   2.794   0.281  16.077
 1931SOL    HW117672   2.738   0.262  16.001
 1931SOL    HW217673   2.802   0.197  16.122
 1932SOL     OW17674   1.356   0.064   2.011
 1932SOL    HW117675   1.400   0.136   1.967
 1932SOL    HW217676   1.263   0.079   1.994
 1933SOL     OW17677   3.219   3.211  15.492
 1933SOL    HW117678   3.235   3.193  15.399
 1933SOL    HW217679   3.304   3.198  15.534
 1934SOL     OW17680   3.860   1.755  21.126
 1934SOL    HW117681   3.826   1.699  21.196
 1934SOL    HW217682   3.908   1.695  21.069
 1935SOL     OW17683   0.087   2.049   1.609
 1935SOL    HW117684   0.044   2.132   1.630
 1935SOL    HW217685   0.122   2.018   1.693
 1936SOL     OW17686   2.463   1.473   2.100
 1936SOL    HW117687   2.476   1.470   2.195
 1936SOL    HW217688   2.372   1.499   2.089
 1937SOL     OW17689   1.650   4.175  19.804
 1937SOL    HW117690   1.697   4.225  19.738
 1937SOL    HW217691   1.677   4.213  19.888
 1938SOL     OW17692   4.565   1.515  15.805
 1938SOL    HW117693   4.572   1.573  15.729
 1938SOL    HW217694   4.619   1.556  15.872
 1939SOL     OW17695   0.016   1.949   5.992
 1939SOL    HW117696   0.054   1.988   6.071
 1939SOL    HW217697   0.062   1.992   5.919
 1940SOL     OW17698   3.771   4.179  20.331
 1940SOL    HW117699   3.722   4.231  20.268
 1940SOL    HW217700   3.841   4.237  20.361
 1941SOL     OW17701   4.413   3.096   1.233
 1941SOL    HW117702   4.373   3.025   1.183
 1941SOL    HW217703   4.355   3.109   1.308
 1942SOL     OW17704   3.958   1.591   0.660
 1942SOL    HW117705   3.868   1.601   0.691
 1942SOL    HW217706   3.991   1.680   0.652
 1943SOL     OW17707   4.193   0.425   0.613
 1943SOL    HW117708   4.196   0.496   0.677
 1943SOL    HW217709   4.261   0.364   0.642
 1944SOL     OW17710   2.776   2.875   3.156
 1944SOL    HW117711   2.722   2.895   3.232
 1944SOL    HW217712   2.824   2.796   3.180
 1945SOL     OW17713   3.580   4.330   4.845
 1945SOL    HW117714   3.628   4.297   4.921
 1945SOL    HW217715   3.522   4.398   4.880
 1946SOL     OW17716   3.196   0.979   4.450
 1946SOL    HW117717   3.160   1.030   4.377
 1946SOL    HW217718   3.136   0.905   4.459
 1947SOL     OW17719   1.883   2.974   0.648
 1947SOL    HW117720   1.885   2.881   0.670
 1947SOL    HW217721   1.914   3.018   0.727
 1948SOL     OW17722   2.028   4.345   8.789
 1948SOL    HW117723   2.072   4.400   8.724
 1948SOL    HW217724   2.081   4.265   8.792
 1949SOL     OW17725   1.474   0.876  20.692
 1949SOL    HW117726   1.435   0.823  20.761
 1949SOL    HW217727   1.548   0.824  20.661
 1950SOL     OW17728   3.460   3.173  16.114
 1950SOL    HW117729   3.450   3.082  16.085
 1950SOL    HW217730   3.380   3.191  16.163
 1951SOL     OW17731   4.639   4.003  15.108
 1951SOL    HW117732   4.621   3.910  15.094
 1951SOL    HW217733   4.568   4.049  15.063
 1952SOL     OW17734   3.776   3.327   4.336
 1952SOL    HW117735   3.763   3.386   4.411
 1952SOL    HW217736   3.745   3.242   4.367
 1953SOL     OW17737   4.383   1.924  15.270
 1953SOL    HW117738   4.370   1.829  15.275
 1953SOL    HW217739   4.380   1.953  15.361
 1954SOL     OW17740   0.992   3.998  19.883
 1954SOL    HW117741   0.903   3.989  19.918
 1954SOL    HW217742   1.045   4.023  19.959
 1955SOL     OW17743   4.157   3.353   2.501
 1955SOL    HW117744   4.247   3.384   2.508
 1955SOL    HW217745   4.109   3.407   2.564
 1956SOL     OW17746   4.771   0.625   6.766
 1956SOL    HW117747   0.043   0.573   6.715
 1956SOL    HW217748   4.689   0.576   6.762
 1957SOL     OW17749   1.304   3.361  18.487
 1957SOL    HW117750   1.300   3.313  18.404
 1957SOL    HW217751   1.298   3.294  18.555
 1958SOL     OW17752   2.408   3.579  20.372
 1958SOL    HW117753   2.494   3.557  20.335
 1958SOL    HW217754   2.428   3.638  20.445
 1959SOL     OW17755   3.534   1.669   3.549
 1959SOL    HW117756   3.487   1.652   3.467
 1959SOL    HW217757   3.596   1.596   3.556
 1960SOL     OW17758   2.258   3.113   2.182
 1960SOL    HW117759   2.193   3.077   2.242
 1960SOL    HW217760   2.332   3.138   2.238
 1961SOL     OW17761   3.417   4.776  14.651
 1961SOL    HW117762   3.467   4.782  14.570
 1961SOL    HW217763   3.424   4.684  14.677
 1962SOL     OW17764   0.237   1.391   6.272
 1962SOL    HW117765   0.238   1.411   6.366
 1962SOL    HW217766   0.221   1.297   6.267
 1963SOL     OW17767   4.023   3.797   3.926
 1963SOL    HW117768   3.958   3.749   3.978
 1963SOL    HW217769   3.984   3.884   3.915
 1964SOL     OW17770   1.768   4.003  17.462
 1964SOL    HW117771   1.682   4.035  17.434
 1964SOL    HW217772   1.828   4.076  17.446
 1965SOL     OW17773   1.035   1.657  21.196
 1965SOL    HW117774   0.980   1.731  21.172
 1965SOL    HW217775   1.118   1.674  21.152
 1966SOL     OW17776   1.109   4.584  15.350
 1966SOL    HW117777   1.142   4.561  15.437
 1966SOL    HW217778   1.176   4.641  15.313
 1967SOL     OW17779   1.704   2.482   2.488
 1967SOL    HW117780   1.768   2.417   2.459
 1967SOL    HW217781   1.732   2.505   2.577
 1968SOL     OW17782   0.900   2.472  16.717
 1968SOL    HW117783   0.913   2.410  16.645
 1968SOL    HW217784   0.958   2.441  16.787
 1969SOL     OW17785   2.422   4.361   0.036
 1969SOL    HW117786   2.474   4.439   0.056
 1969SOL    HW217787   2.343   4.370   0.089
 1970SOL     OW17788   4.023   2.843  19.447
 1970SOL    HW117789   4.056   2.755  19.431
 1970SOL    HW217790   4.096   2.889  19.489
 1971SOL     OW17791   4.311   3.736  20.617
 1971SOL    HW117792   4.253   3.661  20.631
 1971SOL    HW217793   4.398   3.704  20.642
 1972SOL     OW17794   4.273   3.212   3.869
 1972SOL    HW117795   4.316   3.208   3.954
 1972SOL    HW217796   4.181   3.227   3.890
 1973SOL     OW17797   2.649   4.487  16.514
 1973SOL    HW117798   2.707   4.562  16.529
 1973SOL    HW217799   2.561   4.524  16.518
 1974SOL     OW17800   3.856   2.444  15.897
 1974SOL    HW117801   3.862   2.378  15.966
 1974SOL    HW217802   3.803   2.514  15.935
 1975SOL     OW17803   0.675   2.631   5.331
 1975SOL    HW117804   0.695   2.692   5.260
 1975SOL    HW217805   0.724   2.552   5.308
 1976SOL     OW17806   1.639   1.927  17.543
 1976SOL    HW117807   1.676   1.907  17.629
 1976SOL    HW217808   1.703   1.892  17.481
 1977SOL     OW17809   0.048   1.686  18.059
 1977SOL    HW117810   4.778   1.625  18.102
 1977SOL    HW217811   0.013   1.773  18.080
 1978SOL     OW17812   3.312   1.930   4.781
 1978SOL    HW117813   3.322   1.990   4.707
 1978SOL    HW217814   3.401   1.901   4.800
 1979SOL     OW17815   2.544   1.119  20.022
 1979SOL    HW117816   2.597   1.195  20.047
 1979SOL    HW217817   2.538   1.125  19.927
 1980SOL     OW17818   3.752   0.659  16.908
 1980SOL    HW117819   3.753   0.637  16.815
 1980SOL    HW217820   3.827   0.717  16.919
 1981SOL     OW17821   4.527   4.569  20.041
 1981SOL    HW117822   4.473   4.505  20.088
 1981SOL    HW217823   4.545   4.527  19.957
 1982SOL     OW17824   1.717   3.287  20.984
 1982SOL    HW117825   1.686   3.310  20.896
 1982SOL    HW217826   1.707   3.192  20.989
 1983SOL     OW17827   3.028   2.262   1.743
 1983SOL    HW117828   3.010   2.345   1.787
 1983SOL    HW217829   3.123   2.252   1.749
 1984SOL     OW17830   0.479   1.811  19.224
 1984SOL    HW117831   0.525   1.821  19.141
 1984SOL    HW217832   0.472   1.900  19.258
 1985SOL     OW17833   0.585   4.709   1.536
 1985SOL    HW117834   0.532   4.777   1.578
 1985SOL    HW217835   0.523   4.638   1.517
 1986SOL     OW17836   0.643   2.305  16.745
 1986SOL    HW117837   0.671   2.379  16.690
 1986SOL    HW217838   0.683   2.228  16.704
 1987SOL     OW17839   3.765   2.677  13.308
 1987SOL    HW117840   3.679   2.712  13.332
 1987SOL    HW217841   3.769   2.687  13.213
 1988SOL     OW17842   3.256   3.333   6.375
 1988SOL    HW117843   3.267   3.416   6.422
 1988SOL    HW217844   3.308   3.343   6.295
 1989SOL     OW17845   2.666   0.911  14.491
 1989SOL    HW117846   2.572   0.900  14.507
 1989SOL    HW217847   2.687   0.994  14.533
 1990SOL     OW17848   2.234   0.561  20.612
 1990SOL    HW117849   2.159   0.597  20.565
 1990SOL    HW217850   2.197   0.530  20.695
 1991SOL     OW17851   3.477   4.343  16.751
 1991SOL    HW117852   3.550   4.281  16.752
 1991SOL    HW217853   3.515   4.425  16.720
 1992SOL     OW17854   1.449   3.474   5.943
 1992SOL    HW117855   1.480   3.504   6.028
 1992SOL    HW217856   1.529   3.454   5.894
 1993SOL     OW17857   1.008   4.784   4.804
 1993SOL    HW117858   0.935   0.044   4.766
 1993SOL    HW217859   0.980   4.693   4.797
 1994SOL     OW17860   1.769   4.321   6.295
 1994SOL    HW117861   1.768   4.413   6.321
 1994SOL    HW217862   1.841   4.314   6.232
 1995SOL     OW17863   2.902   1.020   1.844
 1995SOL    HW117864   2.810   1.009   1.822
 1995SOL    HW217865   2.902   1.043   1.937
 1996SOL     OW17866   0.088   0.096  12.478
 1996SOL    HW117867   0.019   0.031  12.489
 1996SOL    HW217868   0.166   0.055  12.516
 1997SOL     OW17869   0.784   3.259   0.007
 1997SOL    HW117870   0.735   3.228   0.083
 1997SOL    HW217871   0.876   3.241   0.028
 1998SOL     OW17872   0.705   0.706   2.099
 1998SOL    HW117873   0.761   0.738   2.029
 1998SOL    HW217874   0.625   0.757   2.091
 1999SOL     OW17875   2.495   0.565  16.781
 1999SOL    HW117876   2.426   0.602  16.836
 1999SOL    HW217877   2.492   0.471  16.797
 2000SOL     OW17878   0.110   2.183  18.522
 2000SOL    HW117879   0.198   2.161  18.491
 2000SOL    HW217880   0.082   2.256  18.466
 2001SOL     OW17881   2.185   3.933  19.800
 2001SOL    HW117882   2.145   4.006  19.848
 2001SOL    HW217883   2.251   3.974  19.744
 2002SOL     OW17884   2.264   1.271   6.704
 2002SOL    HW117885   2.187   1.236   6.660
 2002SOL    HW217886   2.237   1.356   6.737
 2003SOL     OW17887   3.382   0.051  16.905
 2003SOL    HW117888   3.315   0.060  16.973
 2003SOL    HW217889   3.446   0.119  16.924
 2004SOL     OW17890   0.182   3.289   2.614
 2004SOL    HW117891   0.198   3.210   2.666
 2004SOL    HW217892   0.179   3.360   2.678
 2005SOL     OW17893   1.800   2.584   5.101
 2005SOL    HW117894   1.815   2.537   5.019
 2005SOL    HW217895   1.707   2.570   5.120
 2006SOL     OW17896   2.691   2.972   4.369
 2006SOL    HW117897   2.739   3.012   4.296
 2006SOL    HW217898   2.751   2.905   4.403
 2007SOL     OW17899   0.195   3.695  18.640
 2007SOL    HW117900   0.191   3.774  18.694
 2007SOL    HW217901   0.103   3.670  18.627
 2008SOL     OW17902   3.051   2.415   3.658
 2008SOL    HW117903   3.052   2.505   3.625
 2008SOL    HW217904   3.118   2.370   3.607
 2009SOL     OW17905   0.442   4.738  13.574
 2009SOL    HW117906   0.518   0.004  13.557
 2009SOL    HW217907   0.466   4.653  13.537
 2010SOL     OW17908   3.877   1.077  20.706
 2010SOL    HW117909   3.869   0.985  20.732
 2010SOL    HW217910   3.818   1.086  20.631
 2011SOL     OW17911   0.398   0.084   1.687
 2011SOL    HW117912   0.342   0.031   1.745
 2011SOL    HW217913   0.341   0.107   1.613
 2012SOL     OW17914   4.358   4.376  20.969
 2012SOL    HW117915   4.279   4.411  21.009
 2012SOL    HW217916   4.422   4.374  21.040
 2013SOL     OW17917   4.098   3.199  16.001
 2013SOL    HW117918   4.015   3.247  16.009
 2013SOL    HW217919   4.078   3.111  16.034
 2014SOL     OW17920   3.733   4.768  20.901
 2014SOL    HW117921   3.734   4.782  20.996
 2014SOL    HW217922   3.808   4.710  20.885
 2015SOL     OW17923   2.085   3.553   2.490
 2015SOL    HW117924   2.095   3.591   2.577
 2015SOL    HW217925   2.174   3.550   2.455
 2016SOL     OW17926   4.164   1.687  17.000
 2016SOL    HW117927   4.086   1.713  17.049
 2016SOL    HW217928   4.210   1.626  17.058
 2017SOL     OW17929   1.107   1.316   1.747
 2017SOL    HW117930   1.087   1.383   1.812
 2017SOL    HW217931   1.093   1.233   1.793
 2018SOL     OW17932   2.473   2.811   4.909
 2018SOL    HW117933   2.422   2.857   4.976
 2018SOL    HW217934   2.514   2.738   4.956
 2019SOL     OW17935   4.615   2.359  13.249
 2019SOL    HW117936   4.608   2.371  13.344
 2019SOL    HW217937   4.555   2.424  13.212
 2020SOL     OW17938   4.551   2.467  12.671
 2020SOL    HW117939   4.613   2.495  12.739
 2020SOL    HW217940   4.504   2.547  12.647
 2021SOL     OW17941   2.111   3.921  19.147
 2021SOL    HW117942   2.113   4.014  19.169
 2021SOL    HW217943   2.035   3.887  19.194
 2022SOL     OW17944   4.753   2.217   4.389
 2022SOL    HW117945   4.715   2.222   4.477
 2022SOL    HW217946   0.037   2.157   4.398
 2023SOL     OW17947   1.895   0.712   3.084
 2023SOL    HW117948   1.951   0.768   3.138
 2023SOL    HW217949   1.923   0.730   2.994
 2024SOL     OW17950   1.291   3.210  17.627
 2024SOL    HW117951   1.373   3.226  17.581
 2024SOL    HW217952   1.317   3.166  17.708
 2025SOL     OW17953   0.488   2.176   5.258
 2025SOL    HW117954   0.559   2.193   5.320
 2025SOL    HW217955   0.418   2.139   5.312
 2026SOL     OW17956   2.102   3.243   3.061
 2026SOL    HW117957   2.025   3.204   3.020
 2026SOL    HW217958   2.175   3.190   3.029
 2027SOL     OW17959   1.769   1.094  20.243
 2027SOL    HW117960   1.737   1.165  20.298
 2027SOL    HW217961   1.864   1.100  20.249
 2028SOL     OW17962   1.482   3.218  21.158
 2028SOL    HW117963   1.565   3.223  21.110
 2028SOL    HW217964   1.486   3.291  21.220
 2029SOL     OW17965   1.067   2.067   2.939
 2029SOL    HW117966   1.150   2.024   2.959
 2029SOL    HW217967   1.012   1.998   2.901
 2030SOL     OW17968   1.980   1.059   6.262
 2030SOL    HW117969   1.975   0.964   6.257
 2030SOL    HW217970   2.042   1.076   6.333
 2031SOL     OW17971   0.290   2.024  19.532
 2031SOL    HW117972   0.357   2.092  19.534
 2031SOL    HW217973   0.260   2.021  19.441
 2032SOL     OW17974   3.812   1.406   8.619
 2032SOL    HW117975   3.897   1.437   8.587
 2032SOL    HW217976   3.757   1.404   8.541
 2033SOL     OW17977   2.386   3.820   1.730
 2033SOL    HW117978   2.320   3.849   1.667
 2033SOL    HW217979   2.417   3.901   1.771
 2034SOL     OW17980   3.837   2.035  19.790
 2034SOL    HW117981   3.878   1.965  19.841
 2034SOL    HW217982   3.902   2.058  19.724
 2035SOL     OW17983   0.665   4.216   1.655
 2035SOL    HW117984   0.706   4.302   1.645
 2035SOL    HW217985   0.605   4.227   1.729
 2036SOL     OW17986   1.879   1.121  17.685
 2036SOL    HW117987   1.954   1.178  17.701
 2036SOL    HW217988   1.803   1.177  17.701
 2037SOL     OW17989   0.159   0.602   0.783
 2037SOL    HW117990   0.223   0.651   0.731
 2037SOL    HW217991   0.075   0.639   0.756
 2038SOL     OW17992   4.780   3.629   6.855
 2038SOL    HW117993   0.043   3.684   6.798
 2038SOL    HW217994   4.789   3.541   6.819
 2039SOL     OW17995   4.550   1.957  15.071
 2039SOL    HW117996   4.633   1.999  15.095
 2039SOL    HW217997   4.493   1.973  15.146
 2040SOL     OW17998   0.571   3.381  20.393
 2040SOL    HW117999   0.662   3.364  20.369
 2040SOL    HW218000   0.546   3.304  20.444
 2041SOL     OW18001   1.817   3.041  20.685
 2041SOL    HW118002   1.730   3.065  20.654
 2041SOL    HW218003   1.814   2.946  20.695
 2042SOL     OW18004   0.455   3.732  18.552
 2042SOL    HW118005   0.375   3.734  18.605
 2042SOL    HW218006   0.454   3.814  18.503
 2043SOL     OW18007   2.516   2.317   5.062
 2043SOL    HW118008   2.503   2.401   5.106
 2043SOL    HW218009   2.520   2.253   5.133
 2044SOL     OW18010   4.622   0.858  20.876
 2044SOL    HW118011   4.670   0.940  20.867
 2044SOL    HW218012   4.538   0.883  20.914
 2045SOL     OW18013   2.484   2.004  16.023
 2045SOL    HW118014   2.559   2.052  16.057
 2045SOL    HW218015   2.432   2.070  15.977
 2046SOL     OW18016   1.212   4.588   5.938
 2046SOL    HW118017   1.132   4.598   5.989
 2046SOL    HW218018   1.225   4.493   5.931
 2047SOL     OW18019   0.788   4.119  16.316
 2047SOL    HW118020   0.705   4.101  16.359
 2047SOL    HW218021   0.842   4.160  16.384
 2048SOL     OW18022   4.380   4.727  18.348
 2048SOL    HW118023   4.446   4.785  18.386
 2048SOL    HW218024   4.389   4.740  18.253
 2049SOL     OW18025   0.011   4.603   2.615
 2049SOL    HW118026   4.743   4.559   2.553
 2049SOL    HW218027   4.744   4.627   2.688
 2050SOL     OW18028   1.439   4.622  18.956
 2050SOL    HW118029   1.400   4.581  18.879
 2050SOL    HW218030   1.425   4.559  19.026
 2051SOL     OW18031   4.041   3.640   3.473
 2051SOL    HW118032   4.109   3.605   3.530
 2051SOL    HW218033   4.043   3.583   3.396
 2052SOL     OW18034   4.291   0.984   3.894
 2052SOL    HW118035   4.373   1.029   3.872
 2052SOL    HW218036   4.232   1.006   3.822
 2053SOL     OW18037   2.010   0.151   5.139
 2053SOL    HW118038   1.975   0.233   5.174
 2053SOL    HW218039   1.933   0.098   5.120
 2054SOL     OW18040   1.346   3.942   0.507
 2054SOL    HW118041   1.279   3.885   0.545
 2054SOL    HW218042   1.420   3.883   0.489
 2055SOL     OW18043   4.320   0.996  15.219
 2055SOL    HW118044   4.374   0.956  15.287
 2055SOL    HW218045   4.310   1.087  15.247
 2056SOL     OW18046   3.773   0.466  13.831
 2056SOL    HW118047   3.867   0.471  13.847
 2056SOL    HW218048   3.766   0.436  13.740
 2057SOL     OW18049   1.335   1.396   5.683
 2057SOL    HW118050   1.268   1.437   5.629
 2057SOL    HW218051   1.287   1.362   5.759
 2058SOL     OW18052   0.418   2.120  17.866
 2058SOL    HW118053   0.435   2.105  17.959
 2058SOL    HW218054   0.452   2.208  17.849
 2059SOL     OW18055   3.956   0.847   6.100
 2059SOL    HW118056   3.932   0.766   6.056
 2059SOL    HW218057   4.043   0.829   6.137
 2060SOL     OW18058   4.680   4.361   5.730
 2060SOL    HW118059   4.681   4.429   5.663
 2060SOL    HW218060   4.712   4.283   5.685
 2061SOL     OW18061   1.994   0.056  13.885
 2061SOL    HW118062   2.028   0.007  13.810
 2061SOL    HW218063   1.971   0.142  13.849
 2062SOL     OW18064   4.759   2.004   1.039
 2062SOL    HW118065   0.050   1.970   1.077
 2062SOL    HW218066   4.693   1.937   1.058
 2063SOL     OW18067   0.554   1.590  17.373
 2063SOL    HW118068   0.534   1.673  17.417
 2063SOL    HW218069   0.491   1.528  17.409
 2064SOL     OW18070   4.410   4.119   3.985
 2064SOL    HW118071   4.424   4.026   3.965
 2064SOL    HW218072   4.465   4.136   4.061
 2065SOL     OW18073   0.529   1.084  15.869
 2065SOL    HW118074   0.553   0.992  15.878
 2065SOL    HW218075   0.558   1.125  15.950
 2066SOL     OW18076   1.506   2.809  21.173
 2066SOL    HW118077   1.526   2.716  21.162
 2066SOL    HW218078   1.575   2.854  21.124
 2067SOL     OW18079   1.612   0.564   7.317
 2067SOL    HW118080   1.593   0.499   7.385
 2067SOL    HW218081   1.545   0.550   7.250
 2068SOL     OW18082   4.367   1.763  18.931
 2068SOL    HW118083   4.377   1.826  18.859
 2068SOL    HW218084   4.452   1.720  18.937
 2069SOL     OW18085   2.312   4.665  18.498
 2069SOL    HW118086   2.241   4.642  18.557
 2069SOL    HW218087   2.375   4.594  18.507
 2070SOL     OW18088   1.945   2.308   5.958
 2070SOL    HW118089   1.888   2.231   5.964
 2070SOL    HW218090   2.018   2.288   6.016
 2071SOL     OW18091   0.333   2.291   0.006
 2071SOL    HW118092   0.403   2.302   0.070
 2071SOL    HW218093   0.252   2.307   0.055
 2072SOL     OW18094   0.455   3.772  17.476
 2072SOL    HW118095   0.432   3.861  17.503
 2072SOL    HW218096   0.491   3.782  17.388
 2073SOL     OW18097   0.510   0.364   2.854
 2073SOL    HW118098   0.527   0.273   2.880
 2073SOL    HW218099   0.595   0.396   2.823
 2074SOL     OW18100   2.288   3.604  18.097
 2074SOL    HW118101   2.207   3.631  18.140
 2074SOL    HW218102   2.331   3.686  18.073
 2075SOL     OW18103   2.877   2.989  19.465
 2075SOL    HW118104   2.962   2.946  19.458
 2075SOL    HW218105   2.897   3.075  19.501
 2076SOL     OW18106   3.598   1.925   3.804
 2076SOL    HW118107   3.672   1.961   3.755
 2076SOL    HW218108   3.638   1.879   3.878
 2077SOL     OW18109   0.738   0.136  12.464
 2077SOL    HW118110   0.739   0.164  12.373
 2077SOL    HW218111   0.681   0.199  12.508
 2078SOL     OW18112   3.281   2.670   4.338
 2078SOL    HW118113   3.333   2.664   4.418
 2078SOL    HW218114   3.346   2.668   4.268
 2079SOL     OW18115   1.945   0.679  17.980
 2079SOL    HW118116   1.903   0.739  17.918
 2079SOL    HW218117   2.005   0.734  18.030
 2080SOL     OW18118   2.674   3.673   5.981
 2080SOL    HW118119   2.765   3.701   5.981
 2080SOL    HW218120   2.629   3.737   5.926
 2081SOL     OW18121   1.479   1.128   8.268
 2081SOL    HW118122   1.407   1.191   8.273
 2081SOL    HW218123   1.551   1.170   8.314
 2082SOL     OW18124   2.671   2.051  17.475
 2082SOL    HW118125   2.626   2.132  17.450
 2082SOL    HW218126   2.701   2.014  17.392
 2083SOL     OW18127   3.809   2.005  17.068
 2083SOL    HW118128   3.726   2.017  17.022
 2083SOL    HW218129   3.785   1.959  17.148
 2084SOL     OW18130   0.452   1.098  17.684
 2084SOL    HW118131   0.479   1.152  17.610
 2084SOL    HW218132   0.357   1.094  17.678
 2085SOL     OW18133   0.497   1.432  18.179
 2085SOL    HW118134   0.451   1.503  18.224
 2085SOL    HW218135   0.432   1.396  18.119
 2086SOL     OW18136   3.881   1.692   1.787
 2086SOL    HW118137   3.826   1.616   1.808
 2086SOL    HW218138   3.875   1.749   1.864
 2087SOL     OW18139   4.489   0.123   2.857
 2087SOL    HW118140   4.530   0.051   2.809
 2087SOL    HW218141   4.402   0.091   2.880
 2088SOL     OW18142   1.785   1.586   4.833
 2088SOL    HW118143   1.879   1.577   4.851
 2088SOL    HW218144   1.776   1.563   4.741
 2089SOL     OW18145   4.579   0.934  15.954
 2089SOL    HW118146   4.500   0.931  15.900
 2089SOL    HW218147   4.550   0.907  16.041
 2090SOL     OW18148   1.655   3.622   0.973
 2090SOL    HW118149   1.665   3.531   0.945
 2090SOL    HW218150   1.564   3.629   1.000
 2091SOL     OW18151   3.158   3.756  13.121
 2091SOL    HW118152   3.086   3.758  13.184
 2091SOL    HW218153   3.124   3.801  13.044
 2092SOL     OW18154   0.808   2.410   0.726
 2092SOL    HW118155   0.725   2.441   0.691
 2092SOL    HW218156   0.874   2.451   0.671
 2093SOL     OW18157   2.177   2.723  20.033
 2093SOL    HW118158   2.265   2.756  20.048
 2093SOL    HW218159   2.179   2.633  20.066
 2094SOL     OW18160   4.219   2.047   6.573
 2094SOL    HW118161   4.132   2.008   6.577
 2094SOL    HW218162   4.228   2.077   6.483
 2095SOL     OW18163   0.876   4.116   6.014
 2095SOL    HW118164   0.867   4.081   5.925
 2095SOL    HW218165   0.799   4.172   6.025
 2096SOL     OW18166   4.221   1.380  16.204
 2096SOL    HW118167   4.310   1.347  16.191
 2096SOL    HW218168   4.227   1.434  16.283
 2097SOL     OW18169   2.671   0.172  20.837
 2097SOL    HW118170   2.659   0.260  20.802
 2097SOL    HW218171   2.642   0.178  20.928
 2098SOL     OW18172   3.764   3.548   3.234
 2098SOL    HW118173   3.741   3.614   3.300
 2098SOL    HW218174   3.689   3.547   3.175
 2099SOL     OW18175   2.804   1.855  20.651
 2099SOL    HW118176   2.836   1.818  20.569
 2099SOL    HW218177   2.883   1.884  20.696
 2100SOL     OW18178   0.314   4.308  20.757
 2100SOL    HW118179   0.276   4.395  20.744
 2100SOL    HW218180   0.250   4.248  20.718
 2101SOL     OW18181   4.536   3.890  17.131
 2101SOL    HW118182   4.509   3.799  17.120
 2101SOL    HW218183   4.620   3.896  17.086
 2102SOL     OW18184   1.780   4.098  17.738
 2102SOL    HW118185   1.734   4.182  17.743
 2102SOL    HW218186   1.787   4.081  17.644
 2103SOL     OW18187   2.551   1.946  18.673
 2103SOL    HW118188   2.506   2.020  18.633
 2103SOL    HW218189   2.551   1.879  18.605
 2104SOL     OW18190   0.167   1.529  20.201
 2104SOL    HW118191   0.181   1.561  20.290
 2104SOL    HW218192   0.166   1.434  20.210
 2105SOL     OW18193   0.005   3.369   1.147
 2105SOL    HW118194   4.731   3.307   1.182
 2105SOL    HW218195   0.090   3.337   1.178
 2106SOL     OW18196   0.124   1.845  15.247
 2106SOL    HW118197   0.086   1.757  15.249
 2106SOL    HW218198   0.096   1.881  15.163
 2107SOL     OW18199   1.859   4.165   0.879
 2107SOL    HW118200   1.836   4.089   0.933
 2107SOL    HW218201   1.880   4.128   0.793
 2108SOL     OW18202   0.652   3.840  19.628
 2108SOL    HW118203   0.738   3.852  19.587
 2108SOL    HW218204   0.590   3.845  19.555
 2109SOL     OW18205   2.004   2.421   0.589
 2109SOL    HW118206   2.088   2.435   0.545
 2109SOL    HW218207   2.027   2.409   0.681
 2110SOL     OW18208   0.545   3.732  15.041
 2110SOL    HW118209   0.521   3.682  15.119
 2110SOL    HW218210   0.554   3.822  15.072
 2111SOL     OW18211   4.082   0.637  17.341
 2111SOL    HW118212   4.118   0.584  17.412
 2111SOL    HW218213   4.151   0.639  17.275
 2112SOL     OW18214   4.533   0.741  17.601
 2112SOL    HW118215   4.452   0.691  17.589
 2112SOL    HW218216   4.525   0.780  17.688
 2113SOL     OW18217   4.509   0.767  19.984
 2113SOL    HW118218   4.454   0.781  20.061
 2113SOL    HW218219   4.463   0.700  19.934
 2114SOL     OW18220   2.560   4.537   4.018
 2114SOL    HW118221   2.541   4.483   3.941
 2114SOL    HW218222   2.620   4.604   3.986
 2115SOL     OW18223   2.616   3.580  16.485
 2115SOL    HW118224   2.581   3.531  16.559
 2115SOL    HW218225   2.687   3.525  16.451
 2116SOL     OW18226   1.182   2.293   0.514
 2116SOL    HW118227   1.116   2.321   0.450
 2116SOL    HW218228   1.131   2.259   0.588
 2117SOL     OW18229   2.179   2.233  17.624
 2117SOL    HW118230   2.232   2.282  17.687
 2117SOL    HW218231   2.159   2.296  17.555
 2118SOL     OW18232   3.333   2.329  17.426
 2118SOL    HW118233   3.286   2.343  17.508
 2118SOL    HW218234   3.412   2.383  17.434
 2119SOL     OW18235   4.102   0.668  12.159
 2119SOL    HW118236   4.077   0.748  12.113
 2119SOL    HW218237   4.130   0.608  12.090
 2120SOL     OW18238   4.605   1.312  21.253
 2120SOL    HW118239   4.539   1.336   0.061
 2120SOL    HW218240   4.567   1.338  21.169
 2121SOL     OW18241   3.806   0.624  17.308
 2121SOL    HW118242   3.768   0.643  17.394
 2121SOL    HW218243   3.901   0.625  17.323
 2122SOL     OW18244   2.323   1.549  11.959
 2122SOL    HW118245   2.332   1.641  11.935
 2122SOL    HW218246   2.278   1.509  11.884
 2123SOL     OW18247   0.175   3.539   0.884
 2123SOL    HW118248   0.153   3.446   0.886
 2123SOL    HW218249   0.263   3.544   0.922
 2124SOL     OW18250   3.383   3.654  18.659
 2124SOL    HW118251   3.478   3.640  18.658
 2124SOL    HW218252   3.372   3.748  18.644
 2125SOL     OW18253   3.081   2.835   0.304
 2125SOL    HW118254   3.038   2.750   0.303
 2125SOL    HW218255   3.025   2.891   0.250
 2126SOL     OW18256   0.767   2.498  19.094
 2126SOL    HW118257   0.829   2.438  19.136
 2126SOL    HW218258   0.718   2.536  19.167
 2127SOL     OW18259   0.680   3.233   0.741
 2127SOL    HW118260   0.586   3.213   0.741
 2127SOL    HW218261   0.684   3.327   0.756
 2128SOL     OW18262   2.384   2.884  17.758
 2128SOL    HW118263   2.408   2.975  17.772
 2128SOL    HW218264   2.333   2.860  17.835
 2129SOL     OW18265   1.985   3.570  15.227
 2129SOL    HW118266   1.963   3.509  15.297
 2129SOL    HW218267   1.906   3.574  15.173
 2130SOL     OW18268   3.408   2.627  19.943
 2130SOL    HW118269   3.443   2.576  20.016
 2130SOL    HW218270   3.326   2.664  19.977
 2131SOL     OW18271   0.714   1.270  12.038
 2131SOL    HW118272   0.753   1.213  12.104
 2131SOL    HW218273   0.778   1.272  11.967
 2132SOL     OW18274   3.038   0.124  16.700
 2132SOL    HW118275   3.037   0.068  16.778
 2132SOL    HW218276   3.107   0.188  16.718
 2133SOL     OW18277   2.312   4.004   2.079
 2133SOL    HW118278   2.317   4.053   2.161
 2133SOL    HW218279   2.277   3.918   2.104
 2134SOL     OW18280   1.445   4.510  16.681
 2134SOL    HW118281   1.471   4.602  16.688
 2134SOL    HW218282   1.514   4.462  16.726
 2135SOL     OW18283   2.766   0.373   3.517
 2135SOL    HW118284   2.777   0.441   3.584
 2135SOL    HW218285   2.809   0.296   3.554
 2136SOL     OW18286   4.369   3.478  14.354
 2136SOL    HW118287   4.303   3.544  14.334
 2136SOL    HW218288   4.320   3.407  14.397
 2137SOL     OW18289   4.114   0.803  17.661
 2137SOL    HW118290   4.059   0.759  17.726
 2137SOL    HW218291   4.054   0.826  17.590
 2138SOL     OW18292   1.297   0.539   4.690
 2138SOL    HW118293   1.368   0.558   4.751
 2138SOL    HW218294   1.341   0.506   4.612
 2139SOL     OW18295   3.653   1.927   1.852
 2139SOL    HW118296   3.645   1.992   1.922
 2139SOL    HW218297   3.584   1.950   1.790
 2140SOL     OW18298   0.735   2.348  20.536
 2140SOL    HW118299   0.669   2.411  20.506
 2140SOL    HW218300   0.808   2.359  20.475
 2141SOL     OW18301   0.781   0.148   4.979
 2141SOL    HW118302   0.783   0.209   4.906
 2141SOL    HW218303   0.841   0.186   5.044
 2142SOL     OW18304   1.418   2.662   5.306
 2142SOL    HW118305   1.467   2.682   5.386
 2142SOL    HW218306   1.337   2.712   5.315
 2143SOL     OW18307   0.690   0.314   2.592
 2143SOL    HW118308   0.600   0.345   2.600
 2143SOL    HW218309   0.686   0.244   2.527
 2144SOL     OW18310   1.470   3.903  16.278
 2144SOL    HW118311   1.414   3.881  16.204
 2144SOL    HW218312   1.418   3.881  16.355
 2145SOL     OW18313   0.431   1.027   0.956
 2145SOL    HW118314   0.395   0.966   1.020
 2145SOL    HW218315   0.492   0.975   0.904
 2146SOL     OW18316   0.312   1.802   4.764
 2146SOL    HW118317   0.306   1.787   4.858
 2146SOL    HW218318   0.351   1.722   4.729
 2147SOL     OW18319   3.989   1.092   6.911
 2147SOL    HW118320   3.924   1.088   6.841
 2147SOL    HW218321   4.073   1.087   6.865
 2148SOL     OW18322   0.974   1.817   2.843
 2148SOL    HW118323   0.883   1.806   2.814
 2148SOL    HW218324   1.014   1.731   2.829
 2149SOL     OW18325   1.164   2.762  14.073
 2149SOL    HW118326   1.219   2.713  14.134
 2149SOL    HW218327   1.223   2.826  14.033
 2150SOL     OW18328   2.232   1.192   1.451
 2150SOL    HW118329   2.167   1.150   1.507
 2150SOL    HW218330   2.184   1.213   1.371
 2151SOL     OW18331   2.302   0.449  14.491
 2151SOL    HW118332   2.351   0.490  14.420
 2151SOL    HW218333   2.254   0.378  14.449
 2152SOL     OW18334   2.800   3.879   1.640
 2152SOL    HW118335   2.790   3.974   1.636
 2152SOL    HW218336   2.833   3.855   1.553
 2153SOL     OW18337   2.219   1.057  18.675
 2153SOL    HW118338   2.171   1.119  18.621
 2153SOL    HW218339   2.173   1.057  18.759
 2154SOL     OW18340   2.286   2.140   4.581
 2154SOL    HW118341   2.220   2.124   4.649
 2154SOL    HW218342   2.332   2.218   4.611
 2155SOL     OW18343   4.460   0.231   6.569
 2155SOL    HW118344   4.455   0.315   6.524
 2155SOL    HW218345   4.524   0.181   6.519
 2156SOL     OW18346   3.366   1.613  17.820
 2156SOL    HW118347   3.415   1.577  17.894
 2156SOL    HW218348   3.317   1.538  17.785
 2157SOL     OW18349   3.666   1.237   1.498
 2157SOL    HW118350   3.754   1.260   1.528
 2157SOL    HW218351   3.667   1.256   1.404
 2158SOL     OW18352   3.027   2.011  19.347
 2158SOL    HW118353   3.067   1.964  19.420
 2158SOL    HW218354   3.025   2.102  19.375
 2159SOL     OW18355   4.247   3.132   1.455
 2159SOL    HW118356   4.205   3.205   1.501
 2159SOL    HW218357   4.299   3.088   1.522
 2160SOL     OW18358   3.975   2.868  19.176
 2160SOL    HW118359   3.915   2.794  19.172
 2160SOL    HW218360   3.980   2.889  19.269
 2161SOL     OW18361   2.234   1.225   5.484
 2161SOL    HW118362   2.167   1.271   5.534
 2161SOL    HW218363   2.283   1.176   5.550
 2162SOL     OW18364   1.129   3.201  13.071
 2162SOL    HW118365   1.090   3.184  12.985
 2162SOL    HW218366   1.211   3.151  13.070
 2163SOL     OW18367   2.029   4.589  13.989
 2163SOL    HW118368   2.020   4.679  13.959
 2163SOL    HW218369   1.998   4.590  14.080
 2164SOL     OW18370   0.273   4.162  15.481
 2164SOL    HW118371   0.231   4.154  15.395
 2164SOL    HW218372   0.311   4.250  15.482
 2165SOL     OW18373   0.596   3.677   1.969
 2165SOL    HW118374   0.606   3.617   1.895
 2165SOL    HW218375   0.647   3.637   2.039
 2166SOL     OW18376   3.201   4.092   3.691
 2166SOL    HW118377   3.110   4.119   3.704
 2166SOL    HW218378   3.218   4.029   3.761
 2167SOL     OW18379   0.716   2.061  15.930
 2167SOL    HW118380   0.710   2.026  16.019
 2167SOL    HW218381   0.637   2.028  15.887
 2168SOL     OW18382   4.411   2.743   0.582
 2168SOL    HW118383   4.414   2.801   0.506
 2168SOL    HW218384   4.342   2.680   0.562
 2169SOL     OW18385   0.128   1.608   2.790
 2169SOL    HW118386   0.058   1.573   2.845
 2169SOL    HW218387   0.082   1.654   2.720
 2170SOL     OW18388   2.291   0.918   4.268
 2170SOL    HW118389   2.277   0.873   4.185
 2170SOL    HW218390   2.304   1.010   4.243
 2171SOL     OW18391   1.223   0.726  16.181
 2171SOL    HW118392   1.311   0.764  16.184
 2171SOL    HW218393   1.203   0.720  16.088
 2172SOL     OW18394   0.212   3.928  18.809
 2172SOL    HW118395   0.274   3.982  18.859
 2172SOL    HW218396   0.182   3.985  18.739
 2173SOL     OW18397   3.888   1.303   2.306
 2173SOL    HW118398   3.852   1.362   2.240
 2173SOL    HW218399   3.972   1.342   2.331
 2174SOL     OW18400   2.955   4.502   4.736
 2174SOL    HW118401   3.022   4.527   4.673
 2174SOL    HW218402   2.880   4.558   4.715
 2175SOL     OW18403   3.814   2.846   1.764
 2175SOL    HW118404   3.878   2.785   1.799
 2175SOL    HW218405   3.842   2.860   1.673
 2176SOL     OW18406   2.576   3.355  19.565
 2176SOL    HW118407   2.645   3.374  19.501
 2176SOL    HW218408   2.614   3.289  19.623
 2177SOL     OW18409   3.391   2.791   0.877
 2177SOL    HW118410   3.426   2.789   0.966
 2177SOL    HW218411   3.457   2.746   0.824
 2178SOL     OW18412   4.291   4.780   7.831
 2178SOL    HW118413   4.213   4.726   7.842
 2178SOL    HW218414   4.331   4.748   7.750
 2179SOL     OW18415   2.519   2.364   4.795
 2179SOL    HW118416   2.534   2.367   4.890
 2179SOL    HW218417   2.606   2.347   4.758
 2180SOL     OW18418   2.543   2.604   2.251
 2180SOL    HW118419   2.623   2.625   2.204
 2180SOL    HW218420   2.549   2.510   2.267
 2181SOL     OW18421   0.973   4.620  13.492
 2181SOL    HW118422   0.998   4.612  13.400
 2181SOL    HW218423   0.998   4.709  13.516
 2182SOL     OW18424   3.471   2.789  19.107
 2182SOL    HW118425   3.536   2.851  19.140
 2182SOL    HW218426   3.442   2.740  19.184
 2183SOL     OW18427   2.524   4.458   6.410
 2183SOL    HW118428   2.540   4.404   6.333
 2183SOL    HW218429   2.437   4.431   6.440
 2184SOL     OW18430   3.962   1.956   6.188
 2184SOL    HW118431   3.984   1.945   6.095
 2184SOL    HW218432   4.047   1.969   6.231
 2185SOL     OW18433   0.836   4.567  17.225
 2185SOL    HW118434   0.801   4.632  17.286
 2185SOL    HW218435   0.913   4.532  17.269
 2186SOL     OW18436   2.569   3.565   8.963
 2186SOL    HW118437   2.511   3.559   9.039
 2186SOL    HW218438   2.600   3.656   8.963
 2187SOL     OW18439   0.650   1.087  20.789
 2187SOL    HW118440   0.711   1.092  20.863
 2187SOL    HW218441   0.655   1.173  20.748
 2188SOL     OW18442   0.294   3.193   5.842
 2188SOL    HW118443   0.364   3.242   5.886
 2188SOL    HW218444   0.331   3.106   5.828
 2189SOL     OW18445   3.429   0.118   1.834
 2189SOL    HW118446   3.341   0.110   1.797
 2189SOL    HW218447   3.417   0.103   1.928
 2190SOL     OW18448   4.006   3.740  17.242
 2190SOL    HW118449   3.982   3.811  17.302
 2190SOL    HW218450   4.077   3.694  17.287
 2191SOL     OW18451   4.342   0.881   2.165
 2191SOL    HW118452   4.429   0.862   2.201
 2191SOL    HW218453   4.289   0.904   2.241
 2192SOL     OW18454   1.773   1.883  18.405
 2192SOL    HW118455   1.799   1.940  18.477
 2192SOL    HW218456   1.827   1.805  18.416
 2193SOL     OW18457   2.827   4.123  20.650
 2193SOL    HW118458   2.894   4.185  20.679
 2193SOL    HW218459   2.792   4.161  20.569
 2194SOL     OW18460   3.435   4.757   5.845
 2194SOL    HW118461   3.513   0.019   5.866
 2194SOL    HW218462   3.467   4.684   5.792
 2195SOL     OW18463   3.381   0.755  18.400
 2195SOL    HW118464   3.438   0.679  18.414
 2195SOL    HW218465   3.371   0.794  18.487
 2196SOL     OW18466   4.600   4.345   2.574
 2196SOL    HW118467   4.596   4.251   2.555
 2196SOL    HW218468   4.654   4.352   2.653
 2197SOL     OW18469   1.551   4.340   1.722
 2197SOL    HW118470   1.516   4.404   1.660
 2197SOL    HW218471   1.582   4.268   1.667
 2198SOL     OW18472   1.496   2.300   1.531
 2198SOL    HW118473   1.457   2.301   1.618
 2198SOL    HW218474   1.567   2.365   1.536
 2199SOL     OW18475   1.433   2.374   3.148
 2199SOL    HW118476   1.342   2.345   3.151
 2199SOL    HW218477   1.443   2.429   3.226
 2200SOL     OW18478   1.204   4.710  21.166
 2200SOL    HW118479   1.171   4.628  21.129
 2200SOL    HW218480   1.184   4.703   0.002
 2201SOL     OW18481   3.880   0.765  15.472
 2201SOL    HW118482   3.965   0.721  15.476
 2201SOL    HW218483   3.817   0.695  15.488
 2202SOL     OW18484   3.055   1.991   6.239
 2202SOL    HW118485   3.081   2.068   6.289
 2202SOL    HW218486   3.097   2.002   6.154
 2203SOL     OW18487   0.315   1.155  19.904
 2203SOL    HW118488   0.241   1.100  19.930
 2203SOL    HW218489   0.285   1.244  19.921
 2204SOL     OW18490   4.442   3.104   1.656
 2204SOL    HW118491   4.446   3.027   1.713
 2204SOL    HW218492   4.526   3.105   1.611
 2205SOL     OW18493   0.096   2.744   6.127
 2205SOL    HW118494   0.069   2.670   6.072
 2205SOL    HW218495   0.131   2.808   6.065
 2206SOL     OW18496   1.963   1.069  19.764
 2206SOL    HW118497   1.941   1.118  19.843
 2206SOL    HW218498   2.026   1.003  19.793
 2207SOL     OW18499   4.184   0.755   6.296
 2207SOL    HW118500   4.192   0.830   6.355
 2207SOL    HW218501   4.270   0.713   6.299
 2208SOL     OW18502   4.529   2.425   9.501
 2208SOL    HW118503   4.502   2.491   9.565
 2208SOL    HW218504   4.566   2.354   9.554
 2209SOL     OW18505   0.209   2.657  18.959
 2209SOL    HW118506   0.169   2.681  19.043
 2209SOL    HW218507   0.259   2.734  18.933
 2210SOL     OW18508   4.090   2.588  15.250
 2210SOL    HW118509   4.123   2.647  15.182
 2210SOL    HW218510   4.083   2.503  15.206
 2211SOL     OW18511   3.572   0.045   5.270
 2211SOL    HW118512   3.576   4.785   5.188
 2211SOL    HW218513   3.634   0.000   5.328
 2212SOL     OW18514   1.531   3.646  21.159
 2212SOL    HW118515   1.454   3.702  21.149
 2212SOL    HW218516   1.534   3.596  21.078
 2213SOL     OW18517   3.513   0.351  18.095
 2213SOL    HW118518   3.515   0.255  18.098
 2213SOL    HW218519   3.420   0.373  18.091
 2214SOL     OW18520   0.539   0.316  11.949
 2214SOL    HW118521   0.454   0.359  11.935
 2214SOL    HW218522   0.522   0.223  11.932
 2215SOL     OW18523   2.340   0.474   5.727
 2215SOL    HW118524   2.308   0.395   5.683
 2215SOL    HW218525   2.291   0.545   5.686
 2216SOL     OW18526   2.616   1.333  20.832
 2216SOL    HW118527   2.652   1.422  20.837
 2216SOL    HW218528   2.670   1.282  20.892
 2217SOL     OW18529   0.535   0.031   0.097
 2217SOL    HW118530   0.465   4.783   0.044
 2217SOL    HW218531   0.610   0.038   0.038
 2218SOL     OW18532   2.772   1.179   8.910
 2218SOL    HW118533   2.723   1.143   8.984
 2218SOL    HW218534   2.764   1.274   8.920
 2219SOL     OW18535   1.067   1.096   1.960
 2219SOL    HW118536   0.991   1.088   1.902
 2219SOL    HW218537   1.048   1.173   2.014
 2220SOL     OW18538   1.436   4.126  17.156
 2220SOL    HW118539   1.419   4.219  17.172
 2220SOL    HW218540   1.421   4.115  17.062
 2221SOL     OW18541   2.764   2.800  15.467
 2221SOL    HW118542   2.781   2.839  15.553
 2221SOL    HW218543   2.851   2.781  15.432
 2222SOL     OW18544   3.568   3.460   0.115
 2222SOL    HW118545   3.596   3.544   0.079
 2222SOL    HW218546   3.542   3.480   0.205
 2223SOL     OW18547   3.959   3.566  19.764
 2223SOL    HW118548   3.879   3.556  19.816
 2223SOL    HW218549   3.999   3.646  19.797
 2224SOL     OW18550   2.528   3.479   5.068
 2224SOL    HW118551   2.484   3.398   5.095
 2224SOL    HW218552   2.597   3.450   5.009
 2225SOL     OW18553   3.376   4.341   2.795
 2225SOL    HW118554   3.388   4.429   2.832
 2225SOL    HW218555   3.315   4.354   2.723
 2226SOL     OW18556   2.073   2.039   6.409
 2226SOL    HW118557   2.053   1.946   6.414
 2226SOL    HW218558   2.021   2.078   6.479
 2227SOL     OW18559   2.671   2.037  16.304
 2227SOL    HW118560   2.659   2.099  16.232
 2227SOL    HW218561   2.759   2.054  16.337
 2228SOL     OW18562   1.237   0.757  13.781
 2228SOL    HW118563   1.284   0.831  13.820
 2228SOL    HW218564   1.150   0.792  13.760
 2229SOL     OW18565   1.983   3.360   4.606
 2229SOL    HW118566   1.909   3.421   4.605
 2229SOL    HW218567   2.048   3.402   4.662
 2230SOL     OW18568   3.880   3.174  17.728
 2230SOL    HW118569   3.926   3.255  17.750
 2230SOL    HW218570   3.812   3.166  17.795
 2231SOL     OW18571   0.243   4.744   1.863
 2231SOL    HW118572   0.214   4.758   1.953
 2231SOL    HW218573   0.289   4.660   1.866
 2232SOL     OW18574   2.423   1.929   3.743
 2232SOL    HW118575   2.333   1.960   3.753
 2232SOL    HW218576   2.472   1.977   3.810
 2233SOL     OW18577   1.051   0.703   5.001
 2233SOL    HW118578   0.981   0.748   5.049
 2233SOL    HW218579   1.129   0.715   5.055
 2234SOL     OW18580   3.892   0.211  16.249
 2234SOL    HW118581   3.952   0.284  16.264
 2234SOL    HW218582   3.818   0.250  16.202
 2235SOL     OW18583   3.100   2.135  17.347
 2235SOL    HW118584   3.125   2.206  17.406
 2235SOL    HW218585   3.094   2.176  17.261
 2236SOL     OW18586   4.682   4.224  14.909
 2236SOL    HW118587   4.588   4.215  14.893
 2236SOL    HW218588   4.712   4.135  14.927
 2237SOL     OW18589   3.886   2.026   4.006
 2237SOL    HW118590   3.824   2.098   4.020
 2237SOL    HW218591   3.892   2.018   3.911
 2238SOL     OW18592   1.776   2.597   2.765
 2238SOL    HW118593   1.756   2.596   2.859
 2238SOL    HW218594   1.832   2.674   2.754
 2239SOL     OW18595   1.998   0.687  13.102
 2239SOL    HW118596   1.905   0.698  13.121
 2239SOL    HW218597   2.022   0.604  13.145
 2240SOL     OW18598   4.290   0.447   2.299
 2240SOL    HW118599   4.269   0.388   2.371
 2240SOL    HW218600   4.246   0.409   2.223
 2241SOL     OW18601   2.478   1.211  18.775
 2241SOL    HW118602   2.520   1.199  18.860
 2241SOL    HW218603   2.385   1.221  18.796
 2242SOL     OW18604   1.389   4.159   2.960
 2242SOL    HW118605   1.385   4.074   2.916
 2242SOL    HW218606   1.475   4.160   3.003
 2243SOL     OW18607   3.732   1.539   0.866
 2243SOL    HW118608   3.706   1.603   0.800
 2243SOL    HW218609   3.688   1.458   0.840
 2244SOL     OW18610   2.798   0.019  16.187
 2244SOL    HW118611   2.859   4.735  16.189
 2244SOL    HW218612   2.722   4.776  16.140
 2245SOL     OW18613   0.476   2.060  18.991
 2245SOL    HW118614   0.387   2.094  19.001
 2245SOL    HW218615   0.533   2.131  19.022
 2246SOL     OW18616   4.761   3.435   5.540
 2246SOL    HW118617   0.010   3.363   5.589
 2246SOL    HW218618   4.737   3.499   5.607
 2247SOL     OW18619   2.640   2.599   0.403
 2247SOL    HW118620   2.716   2.588   0.345
 2247SOL    HW218621   2.655   2.537   0.474
 2248SOL     OW18622   3.672   4.365  18.042
 2248SOL    HW118623   3.720   4.328  18.116
 2248SOL    HW218624   3.670   4.295  17.977
 2249SOL     OW18625   1.942   3.953  15.772
 2249SOL    HW118626   2.009   3.911  15.718
 2249SOL    HW218627   1.991   4.011  15.830
 2250SOL     OW18628   0.226   4.648   7.911
 2250SOL    HW118629   0.245   4.599   7.991
 2250SOL    HW218630   0.303   4.634   7.856
 2251SOL     OW18631   2.035   3.154   4.929
 2251SOL    HW118632   1.997   3.140   4.842
 2251SOL    HW218633   2.109   3.213   4.914
 2252SOL     OW18634   3.715   2.500  21.032
 2252SOL    HW118635   3.809   2.485  21.043
 2252SOL    HW218636   3.710   2.576  20.974
 2253SOL     OW18637   4.592   3.266   5.382
 2253SOL    HW118638   4.644   3.335   5.423
 2253SOL    HW218639   4.519   3.252   5.443
 2254SOL     OW18640   4.140   2.850   9.590
 2254SOL    HW118641   4.081   2.919   9.620
 2254SOL    HW218642   4.170   2.880   9.504
 2255SOL     OW18643   2.452   0.044  15.720
 2255SOL    HW118644   2.453   4.787  15.804
 2255SOL    HW218645   2.376   0.008  15.674
 2256SOL     OW18646   0.275   0.834  16.388
 2256SOL    HW118647   0.242   0.855  16.475
 2256SOL    HW218648   0.207   0.779  16.349
 2257SOL     OW18649   4.507   0.380   3.609
 2257SOL    HW118650   4.562   0.355   3.535
 2257SOL    HW218651   4.450   0.449   3.575
 2258SOL     OW18652   1.704   0.642  21.100
 2258SOL    HW118653   1.730   0.703  21.031
 2258SOL    HW218654   1.750   0.673  21.178
 2259SOL     OW18655   1.059   2.320  18.839
 2259SOL    HW118656   1.045   2.252  18.773
 2259SOL    HW218657   1.113   2.277  18.906
 2260SOL     OW18658   4.380   3.393  20.425
 2260SOL    HW118659   4.409   3.471  20.377
 2260SOL    HW218660   4.288   3.383  20.401
 2261SOL     OW18661   1.664   0.472   0.305
 2261SOL    HW118662   1.663   0.568   0.299
 2261SOL    HW218663   1.572   0.446   0.296
 2262SOL     OW18664   3.475   1.918   6.082
 2262SOL    HW118665   3.543   1.936   6.147
 2262SOL    HW218666   3.398   1.966   6.113
 2263SOL     OW18667   3.982   2.966   1.512
 2263SOL    HW118668   3.990   2.941   1.420
 2263SOL    HW218669   4.065   3.010   1.532
 2264SOL     OW18670   2.136   3.662   0.190
 2264SOL    HW118671   2.101   3.580   0.154
 2264SOL    HW218672   2.153   3.643   0.282
 2265SOL     OW18673   3.313   3.361  16.542
 2265SOL    HW118674   3.322   3.325  16.630
 2265SOL    HW218675   3.322   3.285  16.484
 2266SOL     OW18676   3.831   3.414  14.268
 2266SOL    HW118677   3.842   3.496  14.219
 2266SOL    HW218678   3.804   3.350  14.202
 2267SOL     OW18679   1.430   4.636   4.634
 2267SOL    HW118680   1.470   4.719   4.606
 2267SOL    HW218681   1.354   4.626   4.577
 2268SOL     OW18682   3.804   2.438   2.853
 2268SOL    HW118683   3.782   2.519   2.899
 2268SOL    HW218684   3.793   2.370   2.919
 2269SOL     OW18685   3.336   1.019  16.208
 2269SOL    HW118686   3.297   1.059  16.285
 2269SOL    HW218687   3.261   0.995  16.153
 2270SOL     OW18688   0.810   2.330  20.812
 2270SOL    HW118689   0.896   2.289  20.816
 2270SOL    HW218690   0.784   2.323  20.720
 2271SOL     OW18691   2.377   1.684  19.554
 2271SOL    HW118692   2.466   1.719  19.556
 2271SOL    HW218693   2.333   1.728  19.627
 2272SOL     OW18694   2.456   0.046   4.864
 2272SOL    HW118695   2.399   4.770   4.824
 2272SOL    HW218696   2.539   0.001   4.876
 2273SOL     OW18697   0.307   1.839   3.546
 2273SOL    HW118698   0.214   1.847   3.526
 2273SOL    HW218699   0.351   1.841   3.461
 2274SOL     OW18700   1.492   0.009   3.973
 2274SOL    HW118701   1.412   4.776   3.926
 2274SOL    HW218702   1.548   0.049   3.907
 2275SOL     OW18703   4.307   1.728   6.049
 2275SOL    HW118704   4.364   1.794   6.010
 2275SOL    HW218705   4.218   1.760   6.033
 2276SOL     OW18706   4.450   2.377  15.004
 2276SOL    HW118707   4.464   2.318  14.930
 2276SOL    HW218708   4.377   2.433  14.977
 2277SOL     OW18709   2.777   4.471   8.545
 2277SOL    HW118710   2.721   4.458   8.469
 2277SOL    HW218711   2.810   4.560   8.536
 2278SOL     OW18712   3.714   3.647   5.459
 2278SOL    HW118713   3.741   3.568   5.506
 2278SOL    HW218714   3.691   3.616   5.371
 2279SOL     OW18715   3.988   3.705  18.425
 2279SOL    HW118716   4.015   3.622  18.464
 2279SOL    HW218717   3.988   3.689  18.331
 2280SOL     OW18718   4.608   2.303  16.860
 2280SOL    HW118719   4.545   2.272  16.795
 2280SOL    HW218720   4.632   2.225  16.910
 2281SOL     OW18721   2.032   3.077  20.884
 2281SOL    HW118722   2.103   3.092  20.821
 2281SOL    HW218723   1.952   3.079  20.831
 2282SOL     OW18724   0.866   3.562  19.606
 2282SOL    HW118725   0.772   3.553  19.593
 2282SOL    HW218726   0.875   3.593  19.696
 2283SOL     OW18727   2.355   4.026   3.680
 2283SOL    HW118728   2.360   3.942   3.726
 2283SOL    HW218729   2.338   4.003   3.589
 2284SOL     OW18730   3.535   3.329   7.738
 2284SOL    HW118731   3.617   3.299   7.778
 2284SOL    HW218732   3.556   3.415   7.701
 2285SOL     OW18733   4.140   0.732  16.589
 2285SOL    HW118734   4.108   0.742  16.500
 2285SOL    HW218735   4.077   0.780  16.643
 2286SOL     OW18736   2.404   0.281   2.325
 2286SOL    HW118737   2.384   0.361   2.276
 2286SOL    HW218738   2.500   0.276   2.325
 2287SOL     OW18739   4.395   3.874   1.136
 2287SOL    HW118740   4.418   3.876   1.229
 2287SOL    HW218741   4.314   3.925   1.130
 2288SOL     OW18742   3.321   1.846   3.004
 2288SOL    HW118743   3.384   1.891   3.061
 2288SOL    HW218744   3.375   1.806   2.936
 2289SOL     OW18745   1.357   1.480  20.165
 2289SOL    HW118746   1.336   1.475  20.258
 2289SOL    HW218747   1.373   1.389  20.139
 2290SOL     OW18748   2.680   2.179  17.743
 2290SOL    HW118749   2.739   2.252  17.725
 2290SOL    HW218750   2.631   2.167  17.661
 2291SOL     OW18751   4.719   0.626   3.928
 2291SOL    HW118752   4.640   0.631   3.874
 2291SOL    HW218753   4.691   0.580   4.007
 2292SOL     OW18754   4.670   1.928  15.449
 2292SOL    HW118755   4.683   2.021  15.431
 2292SOL    HW218756   4.670   1.887  15.362
 2293SOL     OW18757   2.921   0.598  16.637
 2293SOL    HW118758   2.965   0.683  16.632
 2293SOL    HW218759   2.915   0.579  16.731
 2294SOL     OW18760   4.696   0.705   5.871
 2294SOL    HW118761   4.662   0.619   5.847
 2294SOL    HW218762   0.001   0.695   5.864
 2295SOL     OW18763   2.377   1.217   2.635
 2295SOL    HW118764   2.344   1.257   2.555
 2295SOL    HW218765   2.334   1.265   2.706
 2296SOL     OW18766   3.415   2.300   6.822
 2296SOL    HW118767   3.429   2.395   6.818
 2296SOL    HW218768   3.322   2.291   6.843
 2297SOL     OW18769   4.636   2.176   7.677
 2297SOL    HW118770   4.710   2.115   7.677
 2297SOL    HW218771   4.608   2.181   7.586
 2298SOL     OW18772   4.514   1.965   2.493
 2298SOL    HW118773   4.545   1.950   2.582
 2298SOL    HW218774   4.594   1.972   2.441
 2299SOL     OW18775   3.479   1.355   0.544
 2299SOL    HW118776   3.468   1.444   0.576
 2299SOL    HW218777   3.525   1.309   0.614
 2300SOL     OW18778   0.502   3.612   0.139
 2300SOL    HW118779   0.486   3.593   0.047
 2300SOL    HW218780   0.457   3.542   0.186
 2301SOL     OW18781   4.312   0.412  16.041
 2301SOL    HW118782   4.391   0.361  16.061
 2301SOL    HW218783   4.276   0.370  15.963
 2302SOL     OW18784   3.220   2.779  18.413
 2302SOL    HW118785   3.310   2.805  18.391
 2302SOL    HW218786   3.216   2.686  18.392
 2303SOL     OW18787   3.279   0.472  19.753
 2303SOL    HW118788   3.258   0.451  19.662
 2303SOL    HW218789   3.357   0.527  19.747
 2304SOL     OW18790   4.751   1.525  17.372
 2304SOL    HW118791   4.725   1.603  17.422
 2304SOL    HW218792   4.747   1.453  17.435
 2305SOL     OW18793   1.538   1.344  16.870
 2305SOL    HW118794   1.594   1.409  16.828
 2305SOL    HW218795   1.465   1.394  16.905
 2306SOL     OW18796   3.066   3.454  19.849
 2306SOL    HW118797   3.089   3.490  19.935
 2306SOL    HW218798   2.971   3.463  19.845
 2307SOL     OW18799   0.283   0.836  18.839
 2307SOL    HW118800   0.258   0.815  18.929
 2307SOL    HW218801   0.335   0.761  18.810
 2308SOL     OW18802   2.047   0.822   7.679
 2308SOL    HW118803   2.118   0.807   7.616
 2308SOL    HW218804   2.037   0.917   7.682
 2309SOL     OW18805   1.839   4.209   3.026
 2309SOL    HW118806   1.905   4.167   3.080
 2309SOL    HW218807   1.758   4.199   3.076
 2310SOL     OW18808   3.655   4.652  20.429
 2310SOL    HW118809   3.653   4.745  20.408
 2310SOL    HW218810   3.737   4.639  20.477
 2311SOL     OW18811   1.798   4.752   5.137
 2311SOL    HW118812   1.708   4.776   5.158
 2311SOL    HW218813   1.826   4.697   5.210
 2312SOL     OW18814   1.865   2.177  19.775
 2312SOL    HW118815   1.776   2.169  19.741
 2312SOL    HW218816   1.889   2.268  19.759
 2313SOL     OW18817   0.472   0.037   5.436
 2313SOL    HW118818   0.547   0.003   5.388
 2313SOL    HW218819   0.425   4.749   5.466
 2314SOL     OW18820   0.453   1.416  16.457
 2314SOL    HW118821   0.372   1.467  16.454
 2314SOL    HW218822   0.442   1.351  16.388
 2315SOL     OW18823   3.923   3.805   6.302
 2315SOL    HW118824   3.986   3.772   6.366
 2315SOL    HW218825   3.937   3.900   6.301
 2316SOL     OW18826   0.715   1.013  20.360
 2316SOL    HW118827   0.730   1.008  20.454
 2316SOL    HW218828   0.795   0.979  20.321
 2317SOL     OW18829   0.516   3.965   4.059
 2317SOL    HW118830   0.580   4.033   4.036
 2317SOL    HW218831   0.475   3.996   4.140
 2318SOL     OW18832   4.499   1.370  16.496
 2318SOL    HW118833   4.482   1.434  16.427
 2318SOL    HW218834   4.413   1.337  16.521
 2319SOL     OW18835   1.626   1.612   5.058
 2319SOL    HW118836   1.544   1.571   5.032
 2319SOL    HW218837   1.686   1.596   4.985
 2320SOL     OW18838   1.577   4.313  15.567
 2320SOL    HW118839   1.579   4.384  15.503
 2320SOL    HW218840   1.649   4.255  15.540
 2321SOL     OW18841   0.919   1.742   3.795
 2321SOL    HW118842   0.841   1.770   3.746
 2321SOL    HW218843   0.935   1.813   3.857
 2322SOL     OW18844   1.512   2.859   5.542
 2322SOL    HW118845   1.561   2.778   5.555
 2322SOL    HW218846   1.563   2.926   5.588
 2323SOL     OW18847   3.527   2.433   1.495
 2323SOL    HW118848   3.446   2.399   1.457
 2323SOL    HW218849   3.570   2.478   1.423
 2324SOL     OW18850   1.723   0.231  20.843
 2324SOL    HW118851   1.793   0.168  20.859
 2324SOL    HW218852   1.645   0.191  20.882
 2325SOL     OW18853   2.384   2.695  19.753
 2325SOL    HW118854   2.399   2.715  19.661
 2325SOL    HW218855   2.294   2.663  19.757
 2326SOL     OW18856   4.431   4.787   2.333
 2326SOL    HW118857   4.519   0.032   2.349
 2326SOL    HW218858   4.431   4.701   2.374
 2327SOL     OW18859   2.871   3.162   6.037
 2327SOL    HW118860   2.838   3.241   6.079
 2327SOL    HW218861   2.911   3.111   6.108
 2328SOL     OW18862   1.865   2.605   3.373
 2328SOL    HW118863   1.873   2.539   3.304
 2328SOL    HW218864   1.932   2.580   3.437
 2329SOL     OW18865   2.444   0.593   1.940
 2329SOL    HW118866   2.534   0.623   1.927
 2329SOL    HW218867   2.390   0.667   1.913
 2330SOL     OW18868   4.706   4.195  13.243
 2330SOL    HW118869   0.012   4.191  13.242
 2330SOL    HW218870   4.679   4.114  13.286
 2331SOL     OW18871   1.551   0.584  15.089
 2331SOL    HW118872   1.569   0.582  14.995
 2331SOL    HW218873   1.636   0.567  15.130
 2332SOL     OW18874   4.002   4.632  17.430
 2332SOL    HW118875   3.928   4.693  17.427
 2332SOL    HW218876   4.039   4.644  17.517
 2333SOL     OW18877   3.041   3.533   2.567
 2333SOL    HW118878   3.072   3.556   2.655
 2333SOL    HW218879   3.121   3.520   2.516
 2334SOL     OW18880   2.590   2.676  18.341
 2334SOL    HW118881   2.682   2.653  18.331
 2334SOL    HW218882   2.577   2.752  18.284
 2335SOL     OW18883   0.526   1.127   4.584
 2335SOL    HW118884   0.588   1.165   4.522
 2335SOL    HW218885   0.490   1.202   4.632
 2336SOL     OW18886   4.700   3.862  17.865
 2336SOL    HW118887   4.671   3.798  17.800
 2336SOL    HW218888   4.787   3.833  17.891
 2337SOL     OW18889   3.056   2.405   6.157
 2337SOL    HW118890   3.133   2.390   6.212
 2337SOL    HW218891   3.066   2.343   6.084
 2338SOL     OW18892   4.552   0.196  15.264
 2338SOL    HW118893   4.611   0.170  15.193
 2338SOL    HW218894   4.562   0.126  15.329
 2339SOL     OW18895   2.613   1.045  13.251
 2339SOL    HW118896   2.697   1.020  13.212
 2339SOL    HW218897   2.629   1.132  13.289
 2340SOL     OW18898   2.172   0.318   9.182
 2340SOL    HW118899   2.166   0.248   9.117
 2340SOL    HW218900   2.203   0.394   9.133
 2341SOL     OW18901   2.123   1.904   1.736
 2341SOL    HW118902   2.027   1.900   1.734
 2341SOL    HW218903   2.143   1.992   1.769
 2342SOL     OW18904   1.762   4.626   2.483
 2342SOL    HW118905   1.769   4.686   2.557
 2342SOL    HW218906   1.826   4.658   2.419
 2343SOL     OW18907   3.262   2.474  19.413
 2343SOL    HW118908   3.293   2.477  19.503
 2343SOL    HW218909   3.169   2.455  19.420
 2344SOL     OW18910   4.324   4.129  20.503
 2344SOL    HW118911   4.340   4.060  20.568
 2344SOL    HW218912   4.412   4.157  20.476
 2345SOL     OW18913   1.492   4.001  17.782
 2345SOL    HW118914   1.526   3.923  17.738
 2345SOL    HW218915   1.497   4.070  17.716
 2346SOL     OW18916   4.588   2.916  15.435
 2346SOL    HW118917   4.568   3.003  15.401
 2346SOL    HW218918   4.502   2.874  15.444
 2347SOL     OW18919   0.761   3.795  18.684
 2347SOL    HW118920   0.711   3.720  18.717
 2347SOL    HW218921   0.826   3.756  18.625
 2348SOL     OW18922   2.297   1.219  20.817
 2348SOL    HW118923   2.387   1.250  20.808
 2348SOL    HW218924   2.257   1.281  20.878
 2349SOL     OW18925   1.814   3.381  13.435
 2349SOL    HW118926   1.744   3.440  13.407
 2349SOL    HW218927   1.880   3.438  13.474
 2350SOL     OW18928   0.805   1.256   5.084
 2350SOL    HW118929   0.732   1.194   5.074
 2350SOL    HW218930   0.884   1.202   5.080
 2351SOL     OW18931   3.622   0.793   7.066
 2351SOL    HW118932   3.610   0.887   7.079
 2351SOL    HW218933   3.647   0.785   6.974
 2352SOL     OW18934   4.085   0.303  17.864
 2352SOL    HW118935   4.156   0.359  17.832
 2352SOL    HW218936   4.127   0.218  17.881
 2353SOL     OW18937   0.917   0.655   4.781
 2353SOL    HW118938   0.966   0.657   4.863
 2353SOL    HW218939   0.920   0.564   4.753
 2354SOL     OW18940   2.289   1.527  15.077
 2354SOL    HW118941   2.298   1.567  15.164
 2354SOL    HW218942   2.199   1.546  15.051
 2355SOL     OW18943   0.421   3.146   3.088
 2355SOL    HW118944   0.489   3.090   3.125
 2355SOL    HW218945   0.469   3.219   3.049
 2356SOL     OW18946   0.123   0.807  17.050
 2356SOL    HW118947   0.125   0.760  17.133
 2356SOL    HW218948   0.167   0.748  16.989
 2357SOL     OW18949   2.532   2.010  14.491
 2357SOL    HW118950   2.621   2.002  14.457
 2357SOL    HW218951   2.485   2.058  14.423
 2358SOL     OW18952   0.500   4.708   4.706
 2358SOL    HW118953   0.407   4.728   4.715
 2358SOL    HW218954   0.539   4.737   4.789
 2359SOL     OW18955   3.875   2.181   3.021
 2359SOL    HW118956   3.855   2.169   3.114
 2359SOL    HW218957   3.967   2.207   3.020
 2360SOL     OW18958   2.871   2.269   4.203
 2360SOL    HW118959   2.943   2.228   4.251
 2360SOL    HW218960   2.792   2.230   4.240
 2361SOL     OW18961   1.122   3.892   1.992
 2361SOL    HW118962   1.112   3.916   1.900
 2361SOL    HW218963   1.155   3.971   2.034
 2362SOL     OW18964   0.363   1.363  17.193
 2362SOL    HW118965   0.337   1.281  17.234
 2362SOL    HW218966   0.285   1.418  17.199
 2363SOL     OW18967   0.227   1.842  16.915
 2363SOL    HW118968   0.284   1.907  16.873
 2363SOL    HW218969   0.273   1.818  16.996
 2364SOL     OW18970   2.585   3.671  12.876
 2364SOL    HW118971   2.579   3.741  12.812
 2364SOL    HW218972   2.675   3.640  12.870
 2365SOL     OW18973   4.766   3.769  14.331
 2365SOL    HW118974   4.706   3.761  14.405
 2365SOL    HW218975   4.709   3.775  14.254
 2366SOL     OW18976   1.144   3.289  20.027
 2366SOL    HW118977   1.132   3.286  19.932
 2366SOL    HW218978   1.075   3.348  20.059
 2367SOL     OW18979   1.060   0.125   4.530
 2367SOL    HW118980   0.973   0.131   4.569
 2367SOL    HW218981   1.084   0.216   4.511
 2368SOL     OW18982   3.082   0.577   3.561
 2368SOL    HW118983   3.009   0.526   3.596
 2368SOL    HW218984   3.086   0.553   3.468
 2369SOL     OW18985   2.804   2.218   5.770
 2369SOL    HW118986   2.722   2.181   5.804
 2369SOL    HW218987   2.804   2.194   5.677
 2370SOL     OW18988   0.067   2.061   1.354
 2370SOL    HW118989   0.061   2.153   1.329
 2370SOL    HW218990   0.056   2.062   1.449
 2371SOL     OW18991   1.390   0.908   2.750
 2371SOL    HW118992   1.345   0.982   2.791
 2371SOL    HW218993   1.475   0.904   2.793
 2372SOL     OW18994   4.331   1.949  16.935
 2372SOL    HW118995   4.345   1.949  16.840
 2372SOL    HW218996   4.236   1.950  16.946
 2373SOL     OW18997   2.095   0.458   2.055
 2373SOL    HW118998   2.053   0.416   2.130
 2373SOL    HW218999   2.089   0.552   2.074
 2374SOL     OW19000   1.818   3.849   3.615
 2374SOL    HW119001   1.780   3.766   3.587
 2374SOL    HW219002   1.750   3.914   3.598
 2375SOL     OW19003   0.178   0.012  18.030
 2375SOL    HW119004   0.214   0.065  17.958
 2375SOL    HW219005   0.144   0.076  18.092
 2376SOL     OW19006   0.648   2.976  19.599
 2376SOL    HW119007   0.552   2.980  19.594
 2376SOL    HW219008   0.667   2.954  19.690
 2377SOL     OW19009   3.092   3.597  20.739
 2377SOL    HW119010   3.054   3.560  20.659
 2377SOL    HW219011   3.020   3.643  20.781
 2378SOL     OW19012   4.743   4.033   0.480
 2378SOL    HW119013   0.047   4.032   0.462
 2378SOL    HW219014   4.702   4.024   0.394
 2379SOL     OW19015   2.621   2.874   1.261
 2379SOL    HW119016   2.679   2.819   1.208
 2379SOL    HW219017   2.568   2.922   1.197
 2380SOL     OW19018   2.635   3.055   7.226
 2380SOL    HW119019   2.697   3.075   7.296
 2380SOL    HW219020   2.586   2.980   7.259
 2381SOL     OW19021   0.317   3.763  20.824
 2381SOL    HW119022   0.263   3.689  20.853
 2381SOL    HW219023   0.377   3.778  20.897
 2382SOL     OW19024   1.385   3.763  15.739
 2382SOL    HW119025   1.358   3.749  15.648
 2382SOL    HW219026   1.479   3.748  15.739
 2383SOL     OW19027   3.875   3.621   4.056
 2383SOL    HW119028   3.919   3.538   4.074
 2383SOL    HW219029   3.784   3.606   4.081
 2384SOL     OW19030   3.702   1.196  14.984
 2384SOL    HW119031   3.698   1.207  15.079
 2384SOL    HW219032   3.698   1.101  14.970
 2385SOL     OW19033   2.006   2.152   0.452
 2385SOL    HW119034   2.094   2.184   0.474
 2385SOL    HW219035   1.984   2.197   0.371
 2386SOL     OW19036   4.472   2.365   3.467
 2386SOL    HW119037   4.508   2.452   3.483
 2386SOL    HW219038   4.543   2.317   3.425
 2387SOL     OW19039   0.819   3.769  14.597
 2387SOL    HW119040   0.802   3.763  14.691
 2387SOL    HW219041   0.835   3.862  14.581
 2388SOL     OW19042   2.789   4.034   3.672
 2388SOL    HW119043   2.795   4.124   3.640
 2388SOL    HW219044   2.695   4.017   3.678
 2389SOL     OW19045   3.144   1.656  18.399
 2389SOL    HW119046   3.157   1.627  18.309
 2389SOL    HW219047   3.055   1.629  18.421
 2390SOL     OW19048   2.180   2.346  19.048
 2390SOL    HW119049   2.194   2.438  19.027
 2390SOL    HW219050   2.163   2.345  19.142
 2391SOL     OW19051   4.351   1.150   2.626
 2391SOL    HW119052   4.396   1.066   2.628
 2391SOL    HW219053   4.285   1.143   2.695
 2392SOL     OW19054   4.052   0.635   6.572
 2392SOL    HW119055   4.056   0.725   6.540
 2392SOL    HW219056   3.967   0.602   6.541
 2393SOL     OW19057   4.281   2.658  16.650
 2393SOL    HW119058   4.353   2.707  16.690
 2393SOL    HW219059   4.246   2.604  16.721
 2394SOL     OW19060   3.853   0.323  16.968
 2394SOL    HW119061   3.834   0.388  17.035
 2394SOL    HW219062   3.941   0.344  16.937
 2395SOL     OW19063   4.254   2.494   0.057
 2395SOL    HW119064   4.226   2.410   0.022
 2395SOL    HW219065   4.195   2.558   0.017
 2396SOL     OW19066   4.062   2.996  20.368
 2396SOL    HW119067   4.116   2.978  20.291
 2396SOL    HW219068   3.980   3.029  20.333
 2397SOL     OW19069   3.933   0.370   4.153
 2397SOL    HW119070   3.953   0.402   4.241
 2397SOL    HW219071   4.007   0.398   4.100
 2398SOL     OW19072   3.861   3.342  18.083
 2398SOL    HW119073   3.782   3.309  18.041
 2398SOL    HW219074   3.833   3.365  18.172
 2399SOL     OW19075   2.119   0.143   3.333
 2399SOL    HW119076   2.152   0.069   3.282
 2399SOL    HW219077   2.045   0.176   3.282
 2400SOL     OW19078   3.780   3.168  17.471
 2400SOL    HW119079   3.720   3.241  17.459
 2400SOL    HW219080   3.799   3.168  17.565
 2401SOL     OW19081   2.516   2.356  14.328
 2401SOL    HW119082   2.599   2.309  14.318
 2401SOL    HW219083   2.541   2.448  14.335
 2402SOL     OW19084   3.766   3.155   1.536
 2402SOL    HW119085   3.828   3.096   1.492
 2402SOL    HW219086   3.815   3.237   1.548
 2403SOL     OW19087   4.747   3.644  17.648
 2403SOL    HW119088   0.043   3.612  17.619
 2403SOL    HW219089   4.700   3.565  17.674
 2404SOL     OW19090   2.881   0.380   1.623
 2404SOL    HW119091   2.895   0.355   1.532
 2404SOL    HW219092   2.958   0.347   1.669
 2405SOL     OW19093   4.440   1.071   5.393
 2405SOL    HW119094   4.384   1.140   5.358
 2405SOL    HW219095   4.529   1.102   5.376
 2406SOL     OW19096   1.428   2.651  15.904
 2406SOL    HW119097   1.471   2.638  15.820
 2406SOL    HW219098   1.441   2.744  15.924
 2407SOL     OW19099   3.882   0.465   0.360
 2407SOL    HW119100   3.837   0.515   0.292
 2407SOL    HW219101   3.964   0.438   0.319
 2408SOL     OW19102   2.960   3.044   2.342
 2408SOL    HW119103   2.949   2.968   2.399
 2408SOL    HW219104   3.050   3.037   2.310
 2409SOL     OW19105   3.644   1.525   6.970
 2409SOL    HW119106   3.719   1.571   6.932
 2409SOL    HW219107   3.591   1.594   7.010
 2410SOL     OW19108   0.566   4.733   0.354
 2410SOL    HW119109   0.576   0.028   0.397
 2410SOL    HW219110   0.553   4.755   0.262
 2411SOL     OW19111   1.914   4.229   0.275
 2411SOL    HW119112   1.990   4.242   0.219
 2411SOL    HW219113   1.860   4.165   0.228
 2412SOL     OW19114   0.198   3.996   1.390
 2412SOL    HW119115   0.192   3.928   1.323
 2412SOL    HW219116   0.228   3.950   1.468
 2413SOL     OW19117   3.779   1.384  20.044
 2413SOL    HW119118   3.789   1.431  19.961
 2413SOL    HW219119   3.700   1.331  20.032
 2414SOL     OW19120   4.680   1.444  20.031
 2414SOL    HW119121   4.710   1.435  19.941
 2414SOL    HW219122   4.720   1.371  20.077
 2415SOL     OW19123   2.978   1.539   1.848
 2415SOL    HW119124   2.901   1.489   1.822
 2415SOL    HW219125   3.010   1.496   1.927
 2416SOL     OW19126   2.402   2.266   2.491
 2416SOL    HW119127   2.460   2.291   2.419
 2416SOL    HW219128   2.352   2.346   2.510
 2417SOL     OW19129   3.431   1.954   2.139
 2417SOL    HW119130   3.408   1.983   2.227
 2417SOL    HW219131   3.500   2.014   2.112
 2418SOL     OW19132   4.501   2.208  20.209
 2418SOL    HW119133   4.483   2.295  20.173
 2418SOL    HW219134   4.509   2.223  20.303
 2419SOL     OW19135   2.795   1.730  16.477
 2419SOL    HW119136   2.779   1.653  16.423
 2419SOL    HW219137   2.729   1.794  16.449
 2420SOL     OW19138   1.815   2.435   4.864
 2420SOL    HW119139   1.875   2.438   4.790
 2420SOL    HW219140   1.736   2.394   4.829
 2421SOL     OW19141   2.664   1.057  14.829
 2421SOL    HW119142   2.650   1.133  14.773
 2421SOL    HW219143   2.591   0.999  14.809
 2422SOL     OW19144   1.154   2.523   0.270
 2422SOL    HW119145   1.146   2.430   0.247
 2422SOL    HW219146   1.100   2.568   0.205
 2423SOL     OW19147   2.241   4.193   3.841
 2423SOL    HW119148   2.293   4.140   3.780
 2423SOL    HW219149   2.268   4.163   3.928
 2424SOL     OW19150   3.835   3.742   3.605
 2424SOL    HW119151   3.919   3.707   3.575
 2424SOL    HW219152   3.787   3.761   3.524
 2425SOL     OW19153   3.580   0.175   8.057
 2425SOL    HW119154   3.628   0.195   7.976
 2425SOL    HW219155   3.547   0.086   8.044
 2426SOL     OW19156   3.592   4.363  14.179
 2426SOL    HW119157   3.598   4.446  14.132
 2426SOL    HW219158   3.529   4.380  14.249
 2427SOL     OW19159   0.785   0.715   4.035
 2427SOL    HW119160   0.720   0.705   4.104
 2427SOL    HW219161   0.737   0.698   3.954
 2428SOL     OW19162   2.867   4.314   3.677
 2428SOL    HW119163   2.927   4.323   3.751
 2428SOL    HW219164   2.839   4.403   3.658
 2429SOL     OW19165   1.085   2.518  18.624
 2429SOL    HW119166   1.147   2.584  18.656
 2429SOL    HW219167   1.079   2.454  18.695
 2430SOL     OW19168   1.342   1.235   2.472
 2430SOL    HW119169   1.308   1.258   2.386
 2430SOL    HW219170   1.316   1.144   2.485
 2431SOL     OW19171   3.767   1.717   6.465
 2431SOL    HW119172   3.743   1.763   6.546
 2431SOL    HW219173   3.814   1.639   6.495
 2432SOL     OW19174   0.301   2.862   0.308
 2432SOL    HW119175   0.249   2.926   0.358
 2432SOL    HW219176   0.306   2.785   0.365
 2433SOL     OW19177   3.014   2.602   4.369
 2433SOL    HW119178   3.109   2.614   4.369
 2433SOL    HW219179   2.999   2.525   4.315
 2434SOL     OW19180   1.837   1.418   6.457
 2434SOL    HW119181   1.907   1.471   6.495
 2434SOL    HW219182   1.764   1.427   6.519
 2435SOL     OW19183   0.662   2.230   0.422
 2435SOL    HW119184   0.687   2.309   0.470
 2435SOL    HW219185   0.745   2.187   0.400
 2436SOL     OW19186   0.241   1.472   1.010
 2436SOL    HW119187   0.334   1.454   0.999
 2436SOL    HW219188   0.204   1.461   0.923
 2437SOL     OW19189   0.946   3.177   3.968
 2437SOL    HW119190   1.016   3.235   3.998
 2437SOL    HW219191   0.903   3.147   4.048
 2438SOL     OW19192   2.260   1.395   7.389
 2438SOL    HW119193   2.178   1.400   7.438
 2438SOL    HW219194   2.327   1.374   7.455
 2439SOL     OW19195   3.263   3.049  17.967
 2439SOL    HW119196   3.313   3.130  17.956
 2439SOL    HW219197   3.329   2.983  17.990
 2440SOL     OW19198   4.707   3.113  18.636
 2440SOL    HW119199   4.769   3.131  18.565
 2440SOL    HW219200   4.639   3.059  18.595
 2441SOL     OW19201   3.772   3.606  19.959
 2441SOL    HW119202   3.802   3.575  20.045
 2441SOL    HW219203   3.683   3.638  19.975
 2442SOL     OW19204   0.449   4.475   5.813
 2442SOL    HW119205   0.410   4.511   5.893
 2442SOL    HW219206   0.542   4.496   5.820
 2443SOL     OW19207   0.627   3.646  20.372
 2443SOL    HW119208   0.591   3.558  20.365
 2443SOL    HW219209   0.556   3.698  20.410
 2444SOL     OW19210   4.786   4.410  18.161
 2444SOL    HW119211   4.725   4.437  18.092
 2444SOL    HW219212   0.083   4.434  18.127
 2445SOL     OW19213   0.565   2.199  14.492
 2445SOL    HW119214   0.535   2.225  14.405
 2445SOL    HW219215   0.485   2.171  14.537
 2446SOL     OW19216   2.420   0.575  18.623
 2446SOL    HW119217   2.421   0.638  18.695
 2446SOL    HW219218   2.337   0.528  18.633
 2447SOL     OW19219   1.005   3.565  14.517
 2447SOL    HW119220   0.991   3.576  14.423
 2447SOL    HW219221   0.946   3.628  14.558
 2448SOL     OW19222   1.911   4.403  18.872
 2448SOL    HW119223   1.820   4.417  18.846
 2448SOL    HW219224   1.920   4.447  18.956
 2449SOL     OW19225   4.742   0.910   1.175
 2449SOL    HW119226   4.712   0.968   1.246
 2449SOL    HW219227   4.669   0.909   1.113
 2450SOL     OW19228   4.300   4.613  18.052
 2450SOL    HW119229   4.389   4.639  18.027
 2450SOL    HW219230   4.312   4.556  18.128
 2451SOL     OW19231   1.179   0.852   6.018
 2451SOL    HW119232   1.165   0.787   6.086
 2451SOL    HW219233   1.272   0.845   5.996
 2452SOL     OW19234   3.878   0.598  16.378
 2452SOL    HW119235   3.798   0.609  16.326
 2452SOL    HW219236   3.926   0.680  16.365
 2453SOL     OW19237   2.035   1.480  19.092
 2453SOL    HW119238   1.990   1.562  19.071
 2453SOL    HW219239   2.013   1.464  19.184
 2454SOL     OW19240   0.700   0.666   7.179
 2454SOL    HW119241   0.743   0.751   7.175
 2454SOL    HW219242   0.672   0.649   7.089
 2455SOL     OW19243   3.696   3.930   2.905
 2455SOL    HW119244   3.786   3.899   2.910
 2455SOL    HW219245   3.686   3.959   2.814
 2456SOL     OW19246   0.185   4.198   3.123
 2456SOL    HW119247   0.214   4.127   3.066
 2456SOL    HW219248   0.109   4.235   3.078
 2457SOL     OW19249   1.642   1.897  20.195
 2457SOL    HW119250   1.674   1.891  20.285
 2457SOL    HW219251   1.567   1.838  20.192
 2458SOL     OW19252   4.764   0.458  12.708
 2458SOL    HW119253   4.668   0.456  12.709
 2458SOL    HW219254   4.786   0.551  12.717
 2459SOL     OW19255   1.153   4.556  18.178
 2459SOL    HW119256   1.157   4.624  18.111
 2459SOL    HW219257   1.106   4.596  18.251
 2460SOL     OW19258   2.703   4.515   7.660
 2460SOL    HW119259   2.620   4.534   7.704
 2460SOL    HW219260   2.708   4.579   7.589
 2461SOL     OW19261   1.552   4.407   4.524
 2461SOL    HW119262   1.467   4.381   4.487
 2461SOL    HW219263   1.534   4.488   4.572
 2462SOL     OW19264   3.193   4.337  21.135
 2462SOL    HW119265   3.255   4.266  21.149
 2462SOL    HW219266   3.230   4.388  21.063
 2463SOL     OW19267   0.598   2.759  19.779
 2463SOL    HW119268   0.660   2.688  19.766
 2463SOL    HW219269   0.518   2.730  19.735
 2464SOL     OW19270   3.465   2.007  19.513
 2464SOL    HW119271   3.443   1.955  19.436
 2464SOL    HW219272   3.465   1.944  19.585
 2465SOL     OW19273   4.187   0.185   1.187
 2465SOL    HW119274   4.257   0.120   1.184
 2465SOL    HW219275   4.223   0.261   1.142
 2466SOL     OW19276   3.191   0.219   2.993
 2466SOL    HW119277   3.187   0.185   3.082
 2466SOL    HW219278   3.282   0.248   2.983
 2467SOL     OW19279   1.749   1.070   1.501
 2467SOL    HW119280   1.759   1.152   1.549
 2467SOL    HW219281   1.684   1.090   1.433
 2468SOL     OW19282   2.048   4.322   6.746
 2468SOL    HW119283   1.996   4.242   6.749
 2468SOL    HW219284   2.027   4.367   6.828
 2469SOL     OW19285   2.917   0.029   4.425
 2469SOL    HW119286   2.830   0.021   4.387
 2469SOL    HW219287   2.925   4.744   4.484
 2470SOL     OW19288   1.900   0.953  18.700
 2470SOL    HW119289   1.865   0.907  18.776
 2470SOL    HW219290   1.832   1.016  18.676
 2471SOL     OW19291   2.112   2.649  17.802
 2471SOL    HW119292   2.168   2.689  17.868
 2471SOL    HW219293   2.038   2.709  17.794
 2472SOL     OW19294   3.500   4.541  18.954
 2472SOL    HW119295   3.479   4.492  18.875
 2472SOL    HW219296   3.471   4.630  18.935
 2473SOL     OW19297   0.363   1.520   1.581
 2473SOL    HW119298   0.407   1.592   1.536
 2473SOL    HW219299   0.272   1.548   1.588
 2474SOL     OW19300   3.423   0.927  17.301
 2474SOL    HW119301   3.328   0.924  17.316
 2474SOL    HW219302   3.440   0.856  17.240
 2475SOL     OW19303   2.027   3.017  19.335
 2475SOL    HW119304   2.115   3.054  19.339
 2475SOL    HW219305   1.980   3.059  19.407
 2476SOL     OW19306   2.596   3.589   6.229
 2476SOL    HW119307   2.637   3.622   6.149
 2476SOL    HW219308   2.506   3.622   6.225
 2477SOL     OW19309   2.369   3.046   1.392
 2477SOL    HW119310   2.445   3.103   1.382
 2477SOL    HW219311   2.330   3.072   1.475
 2478SOL     OW19312   3.967   2.924  17.653
 2478SOL    HW119313   4.058   2.943  17.630
 2478SOL    HW219314   3.927   3.010  17.666
 2479SOL     OW19315   3.490   3.673  17.302
 2479SOL    HW119316   3.575   3.687  17.260
 2479SOL    HW219317   3.450   3.760  17.304
 2480SOL     OW19318   4.644   2.279   4.637
 2480SOL    HW119319   4.627   2.195   4.679
 2480SOL    HW219320   4.696   2.328   4.701
 2481SOL     OW19321   4.027   4.181  17.273
 2481SOL    HW119322   4.081   4.206  17.348
 2481SOL    HW219323   3.988   4.263  17.243
 2482SOL     OW19324   3.039   2.618  21.223
 2482SOL    HW119325   3.105   2.596   0.032
 2482SOL    HW219326   3.086   2.615  21.140
 2483SOL     OW19327   1.464   1.915  16.285
 2483SOL    HW119328   1.452   1.831  16.330
 2483SOL    HW219329   1.539   1.900  16.227
 2484SOL     OW19330   4.304   4.506  16.266
 2484SOL    HW119331   4.344   4.423  16.241
 2484SOL    HW219332   4.234   4.482  16.326
 2485SOL     OW19333   2.888   1.670  14.739
 2485SOL    HW119334   2.974   1.635  14.762
 2485SOL    HW219335   2.826   1.612  14.783
 2486SOL     OW19336   2.332   0.938  16.217
 2486SOL    HW119337   2.394   1.007  16.241
 2486SOL    HW219338   2.367   0.859  16.259
 2487SOL     OW19339   1.786   3.689   4.286
 2487SOL    HW119340   1.722   3.644   4.342
 2487SOL    HW219341   1.869   3.680   4.333
 2488SOL     OW19342   4.784   3.168  18.911
 2488SOL    HW119343   4.748   3.110  18.978
 2488SOL    HW219344   4.762   3.126  18.828
 2489SOL     OW19345   2.946   1.679  16.896
 2489SOL    HW119346   2.909   1.591  16.898
 2489SOL    HW219347   2.944   1.703  16.803
 2490SOL     OW19348   4.238   4.326  19.465
 2490SOL    HW119349   4.245   4.419  19.444
 2490SOL    HW219350   4.152   4.301  19.432
 2491SOL     OW19351   4.150   3.597   1.282
 2491SOL    HW119352   4.060   3.614   1.310
 2491SOL    HW219353   4.147   3.599   1.186
 2492SOL     OW19354   2.159   4.263   5.654
 2492SOL    HW119355   2.151   4.309   5.570
 2492SOL    HW219356   2.250   4.234   5.657
 2493SOL     OW19357   3.082   1.353   6.311
 2493SOL    HW119358   3.006   1.393   6.353
 2493SOL    HW219359   3.140   1.426   6.291
 2494SOL     OW19360   1.690   2.635   1.357
 2494SOL    HW119361   1.719   2.611   1.269
 2494SOL    HW219362   1.595   2.642   1.350
 2495SOL     OW19363   2.267   4.105  20.911
 2495SOL    HW119364   2.270   4.099  21.006
 2495SOL    HW219365   2.191   4.160  20.893
 2496SOL     OW19366   1.748   2.580  17.643
 2496SOL    HW119367   1.724   2.580  17.736
 2496SOL    HW219368   1.672   2.617  17.599
 2497SOL     OW19369   1.295   1.134   6.469
 2497SOL    HW119370   1.366   1.106   6.411
 2497SOL    HW219371   1.281   1.226   6.447
 2498SOL     OW19372   1.055   0.173   2.720
 2498SOL    HW119373   1.057   0.210   2.632
 2498SOL    HW219374   1.112   0.230   2.771
 2499SOL     OW19375   2.299   3.270  15.869
 2499SOL    HW119376   2.344   3.350  15.842
 2499SOL    HW219377   2.210   3.281  15.836
 2500SOL     OW19378   1.495   1.190   7.278
 2500SOL    HW119379   1.447   1.243   7.341
 2500SOL    HW219380   1.566   1.151   7.329
 2501SOL     OW19381   3.579   2.760  14.394
 2501SOL    HW119382   3.556   2.754  14.301
 2501SOL    HW219383   3.561   2.851  14.417
 2502SOL     OW19384   4.086   4.037  19.675
 2502SOL    HW119385   4.100   4.000  19.588
 2502SOL    HW219386   4.080   3.961  19.733
 2503SOL     OW19387   0.966   0.533  20.986
 2503SOL    HW119388   0.877   0.568  20.996
 2503SOL    HW219389   0.959   0.441  21.011
 2504SOL     OW19390   3.654   1.658   2.128
 2504SOL    HW119391   3.721   1.715   2.091
 2504SOL    HW219392   3.684   1.639   2.217
 2505SOL     OW19393   4.410   3.003  18.953
 2505SOL    HW119394   4.329   2.971  18.992
 2505SOL    HW219395   4.479   2.968  19.010
 2506SOL     OW19396   0.514   0.462  20.709
 2506SOL    HW119397   0.481   0.520  20.641
 2506SOL    HW219398   0.595   0.426  20.673
 2507SOL     OW19399   1.634   2.113  18.284
 2507SOL    HW119400   1.669   2.056  18.353
 2507SOL    HW219401   1.543   2.128  18.309
 2508SOL     OW19402   3.580   4.650   2.145
 2508SOL    HW119403   3.539   4.735   2.134
 2508SOL    HW219404   3.510   4.587   2.130
 2509SOL     OW19405   0.998   2.989  18.952
 2509SOL    HW119406   1.055   3.062  18.975
 2509SOL    HW219407   0.910   3.020  18.972
 2510SOL     OW19408   1.497   2.795  19.263
 2510SOL    HW119409   1.524   2.874  19.311
 2510SOL    HW219410   1.448   2.828  19.188
 2511SOL     OW19411   2.617   4.019   2.237
 2511SOL    HW119412   2.574   3.957   2.179
 2511SOL    HW219413   2.704   4.031   2.199
 2512SOL     OW19414   4.268   2.611   9.560
 2512SOL    HW119415   4.240   2.699   9.583
 2512SOL    HW219416   4.292   2.617   9.467
 2513SOL     OW19417   0.996   0.661   1.224
 2513SOL    HW119418   0.907   0.677   1.193
 2513SOL    HW219419   1.045   0.739   1.197
 2514SOL     OW19420   1.957   2.766   4.001
 2514SOL    HW119421   1.971   2.786   4.093
 2514SOL    HW219422   1.918   2.679   4.001
 2515SOL     OW19423   2.525   1.943   5.237
 2515SOL    HW119424   2.516   1.972   5.328
 2515SOL    HW219425   2.608   1.895   5.236
 2516SOL     OW19426   1.685   3.212   1.766
 2516SOL    HW119427   1.705   3.167   1.848
 2516SOL    HW219428   1.767   3.211   1.717
 2517SOL     OW19429   1.726   3.749   2.752
 2517SOL    HW119430   1.734   3.819   2.816
 2517SOL    HW219431   1.779   3.778   2.678
 2518SOL     OW19432   3.973   3.019  20.716
 2518SOL    HW119433   3.913   2.947  20.697
 2518SOL    HW219434   3.946   3.051  20.802
 2519SOL     OW19435   0.547   4.236   5.567
 2519SOL    HW119436   0.545   4.161   5.508
 2519SOL    HW219437   0.553   4.312   5.509
 2520SOL     OW19438   0.852   0.575   1.786
 2520SOL    HW119439   0.923   0.624   1.744
 2520SOL    HW219440   0.842   0.497   1.732
 2521SOL     OW19441   2.572   3.678   5.266
 2521SOL    HW119442   2.565   3.625   5.186
 2521SOL    HW219443   2.530   3.625   5.334
 2522SOL     OW19444   3.571   1.646   3.850
 2522SOL    HW119445   3.611   1.595   3.920
 2522SOL    HW219446   3.574   1.589   3.774
 2523SOL     OW19447   0.564   4.221  18.825
 2523SOL    HW119448   0.505   4.162  18.871
 2523SOL    HW219449   0.602   4.276  18.894
 2524SOL     OW19450   3.675   2.916  18.753
 2524SOL    HW119451   3.714   3.002  18.740
 2524SOL    HW219452   3.673   2.904  18.848
 2525SOL     OW19453   3.067   2.322   0.687
 2525SOL    HW119454   3.062   2.257   0.616
 2525SOL    HW219455   3.146   2.372   0.668
 2526SOL     OW19456   0.928   3.928  11.536
 2526SOL    HW119457   0.854   3.988  11.547
 2526SOL    HW219458   0.954   3.939  11.444
 2527SOL     OW19459   0.987   2.353   2.214
 2527SOL    HW119460   0.910   2.407   2.197
 2527SOL    HW219461   0.955   2.284   2.273
 2528SOL     OW19462   0.874   4.716  12.593
 2528SOL    HW119463   0.929   4.690  12.520
 2528SOL    HW219464   0.833   0.008  12.564
 2529SOL     OW19465   0.708   2.470  15.165
 2529SOL    HW119466   0.624   2.492  15.204
 2529SOL    HW219467   0.704   2.376  15.150
 2530SOL     OW19468   2.716   1.467  15.978
 2530SOL    HW119469   2.710   1.459  15.883
 2530SOL    HW219470   2.669   1.390  16.011
 2531SOL     OW19471   1.649   2.129   3.707
 2531SOL    HW119472   1.657   2.117   3.612
 2531SOL    HW219473   1.643   2.040   3.742
 2532SOL     OW19474   4.785   1.187  20.128
 2532SOL    HW119475   0.052   1.116  20.158
 2532SOL    HW219476   4.765   1.165  20.037
 2533SOL     OW19477   3.879   2.868   7.316
 2533SOL    HW119478   3.884   2.959   7.345
 2533SOL    HW219479   3.816   2.869   7.244
 2534SOL     OW19480   0.463   2.642  18.637
 2534SOL    HW119481   0.495   2.686  18.558
 2534SOL    HW219482   0.541   2.602  18.675
 2535SOL     OW19483   1.214   1.403  19.853
 2535SOL    HW119484   1.288   1.386  19.912
 2535SOL    HW219485   1.207   1.324  19.800
 2536SOL     OW19486   0.667   4.369  18.404
 2536SOL    HW119487   0.682   4.296  18.464
 2536SOL    HW219488   0.584   4.407  18.432
 2537SOL     OW19489   0.850   3.686  18.200
 2537SOL    HW119490   0.823   3.596  18.217
 2537SOL    HW219491   0.788   3.740  18.249
 2538SOL     OW19492   2.229   4.329  19.749
 2538SOL    HW119493   2.289   4.358  19.817
 2538SOL    HW219494   2.150   4.302  19.797
 2539SOL     OW19495   1.787   1.454   4.592
 2539SOL    HW119496   1.758   1.364   4.604
 2539SOL    HW219497   1.882   1.447   4.582
 2540SOL     OW19498   0.253   1.441  15.858
 2540SOL    HW119499   0.214   1.525  15.833
 2540SOL    HW219500   0.231   1.431  15.951
 2541SOL     OW19501   4.514   3.902   1.398
 2541SOL    HW119502   4.419   3.908   1.407
 2541SOL    HW219503   4.548   3.942   1.478
 2542SOL     OW19504   3.750   4.317   0.229
 2542SOL    HW119505   3.671   4.265   0.214
 2542SOL    HW219506   3.822   4.254   0.220
 2543SOL     OW19507   4.121   0.411  10.293
 2543SOL    HW119508   4.096   0.346  10.359
 2543SOL    HW219509   4.212   0.433  10.314
 2544SOL     OW19510   3.589   3.961  17.675
 2544SOL    HW119511   3.636   4.007  17.605
 2544SOL    HW219512   3.500   3.997  17.671
 2545SOL     OW19513   1.634   0.310   0.639
 2545SOL    HW119514   1.590   0.282   0.559
 2545SOL    HW219515   1.726   0.318   0.615
 2546SOL     OW19516   2.908   1.571   5.352
 2546SOL    HW119517   2.843   1.528   5.297
 2546SOL    HW219518   2.992   1.548   5.312
 2547SOL     OW19519   2.356   2.920  12.769
 2547SOL    HW119520   2.280   2.862  12.767
 2547SOL    HW219521   2.410   2.891  12.695
 2548SOL     OW19522   2.069   3.512   5.114
 2548SOL    HW119523   2.128   3.587   5.123
 2548SOL    HW219524   1.989   3.548   5.076
 2549SOL     OW19525   1.329   4.085   5.610
 2549SOL    HW119526   1.296   4.065   5.522
 2549SOL    HW219527   1.295   4.014   5.665
 2550SOL     OW19528   4.345   1.420  18.039
 2550SOL    HW119529   4.427   1.390  17.999
 2550SOL    HW219530   4.359   1.513  18.057
 2551SOL     OW19531   4.084   4.115   1.572
 2551SOL    HW119532   4.039   4.129   1.489
 2551SOL    HW219533   4.015   4.121   1.638
 2552SOL     OW19534   3.862   3.931   1.271
 2552SOL    HW119535   3.774   3.938   1.308
 2552SOL    HW219536   3.897   3.850   1.307
 2553SOL     OW19537   4.244   2.434   4.890
 2553SOL    HW119538   4.239   2.347   4.851
 2553SOL    HW219539   4.335   2.444   4.917
 2554SOL     OW19540   2.394   3.837  15.373
 2554SOL    HW119541   2.355   3.778  15.438
 2554SOL    HW219542   2.353   3.811  15.290
 2555SOL     OW19543   4.218   0.002  20.548
 2555SOL    HW119544   4.133   0.045  20.542
 2555SOL    HW219545   4.200   4.708  20.591
 2556SOL     OW19546   1.390   1.179  16.172
 2556SOL    HW119547   1.421   1.121  16.102
 2556SOL    HW219548   1.469   1.200  16.222
 2557SOL     OW19549   4.261   2.154  18.211
 2557SOL    HW119550   4.272   2.155  18.306
 2557SOL    HW219551   4.220   2.070  18.192
 2558SOL     OW19552   2.101   4.717   5.698
 2558SOL    HW119553   2.068   4.662   5.769
 2558SOL    HW219554   2.090   4.664   5.619
 2559SOL     OW19555   1.838   2.655   9.097
 2559SOL    HW119556   1.879   2.741   9.107
 2559SOL    HW219557   1.895   2.595   9.145
 2560SOL     OW19558   3.867   1.414  18.822
 2560SOL    HW119559   3.884   1.357  18.897
 2560SOL    HW219560   3.848   1.354  18.750
 2561SOL     OW19561   1.316   2.013  20.606
 2561SOL    HW119562   1.263   1.988  20.681
 2561SOL    HW219563   1.405   2.022  20.641
 2562SOL     OW19564   2.678   0.754   3.136
 2562SOL    HW119565   2.633   0.747   3.220
 2562SOL    HW219566   2.765   0.719   3.153
 2563SOL     OW19567   3.877   0.928  15.832
 2563SOL    HW119568   3.924   0.987  15.772
 2563SOL    HW219569   3.946   0.885  15.882
 2564SOL     OW19570   0.711   1.086   2.468
 2564SOL    HW119571   0.792   1.041   2.445
 2564SOL    HW219572   0.688   1.135   2.389
 2565SOL     OW19573   0.288   1.733   4.315
 2565SOL    HW119574   0.211   1.775   4.276
 2565SOL    HW219575   0.343   1.806   4.343
 2566SOL     OW19576   2.024   0.264  19.338
 2566SOL    HW119577   2.119   0.264  19.328
 2566SOL    HW219578   1.991   0.271  19.248
 2567SOL     OW19579   3.802   2.071  18.912
 2567SOL    HW119580   3.745   2.133  18.958
 2567SOL    HW219581   3.751   1.990  18.907
 2568SOL     OW19582   4.127   1.531  17.697
 2568SOL    HW119583   4.112   1.547  17.790
 2568SOL    HW219584   4.219   1.507  17.692
 2569SOL     OW19585   1.543   4.240  17.664
 2569SOL    HW119586   1.573   4.241  17.573
 2569SOL    HW219587   1.582   4.319  17.702
 2570SOL     OW19588   0.687   2.452   0.025
 2570SOL    HW119589   0.755   2.450  21.215
 2570SOL    HW219590   0.628   2.522  21.255
 2571SOL     OW19591   3.624   3.946  12.368
 2571SOL    HW119592   3.619   4.032  12.409
 2571SOL    HW219593   3.640   3.886  12.441
 2572SOL     OW19594   2.745   2.478   6.576
 2572SOL    HW119595   2.773   2.411   6.638
 2572SOL    HW219596   2.806   2.469   6.503
 2573SOL     OW19597   3.918   2.679   4.630
 2573SOL    HW119598   4.004   2.637   4.623
 2573SOL    HW219599   3.937   2.770   4.651
 2574SOL     OW19600   4.347   2.091   0.464
 2574SOL    HW119601   4.351   2.011   0.517
 2574SOL    HW219602   4.255   2.097   0.438
 2575SOL     OW19603   4.549   4.449  11.470
 2575SOL    HW119604   4.641   4.448  11.495
 2575SOL    HW219605   4.517   4.534  11.500
 2576SOL     OW19606   0.141   4.328   6.712
 2576SOL    HW119607   0.058   4.304   6.670
 2576SOL    HW219608   0.203   4.261   6.683
 2577SOL     OW19609   0.139   2.726  16.939
 2577SOL    HW119610   0.177   2.801  16.894
 2577SOL    HW219611   0.076   2.690  16.877
 2578SOL     OW19612   1.075   2.220  16.611
 2578SOL    HW119613   1.010   2.163  16.570
 2578SOL    HW219614   1.153   2.165  16.618
 2579SOL     OW19615   0.158   3.267  12.889
 2579SOL    HW119616   0.073   3.295  12.855
 2579SOL    HW219617   0.163   3.174  12.865
 2580SOL     OW19618   1.151   3.654  18.346
 2580SOL    HW119619   1.237   3.614  18.332
 2580SOL    HW219620   1.134   3.705  18.267
 2581SOL     OW19621   1.013   4.012   0.473
 2581SOL    HW119622   1.049   3.924   0.465
 2581SOL    HW219623   0.979   4.032   0.386
 2582SOL     OW19624   4.152   3.839   5.814
 2582SOL    HW119625   4.092   3.853   5.887
 2582SOL    HW219626   4.175   3.746   5.820
 2583SOL     OW19627   3.555   2.623  18.445
 2583SOL    HW119628   3.529   2.646  18.534
 2583SOL    HW219629   3.615   2.549  18.456
 2584SOL     OW19630   3.633   0.639  17.520
 2584SOL    HW119631   3.542   0.666  17.506
 2584SOL    HW219632   3.636   0.549  17.487
 2585SOL     OW19633   3.701   1.617   2.995
 2585SOL    HW119634   3.617   1.660   2.983
 2585SOL    HW219635   3.747   1.630   2.912
 2586SOL     OW19636   4.334   0.450  17.770
 2586SOL    HW119637   4.349   0.449  17.675
 2586SOL    HW219638   4.343   0.359  17.797
 2587SOL     OW19639   1.994   3.635  17.068
 2587SOL    HW119640   1.991   3.552  17.021
 2587SOL    HW219641   1.923   3.687  17.031
 2588SOL     OW19642   2.296   3.199   6.639
 2588SOL    HW119643   2.313   3.175   6.730
 2588SOL    HW219644   2.348   3.278   6.625
 2589SOL     OW19645   4.551   0.263  18.174
 2589SOL    HW119646   4.569   0.282  18.082
 2589SOL    HW219647   4.472   0.313  18.194
 2590SOL     OW19648   1.984   0.772  19.541
 2590SOL    HW119649   1.907   0.759  19.597
 2590SOL    HW219650   2.059   0.759  19.599
 2591SOL     OW19651   1.793   0.396   0.906
 2591SOL    HW119652   1.813   0.385   0.999
 2591SOL    HW219653   1.735   0.323   0.885
 2592SOL     OW19654   1.562   2.277  17.813
 2592SOL    HW119655   1.595   2.188  17.800
 2592SOL    HW219656   1.552   2.312  17.725
 2593SOL     OW19657   4.214   3.101   6.340
 2593SOL    HW119658   4.292   3.147   6.371
 2593SOL    HW219659   4.179   3.158   6.271
 2594SOL     OW19660   4.298   3.699   2.395
 2594SOL    HW119661   4.349   3.672   2.472
 2594SOL    HW219662   4.207   3.679   2.418
 2595SOL     OW19663   2.186   4.556  16.666
 2595SOL    HW119664   2.131   4.569  16.743
 2595SOL    HW219665   2.124   4.548  16.593
 2596SOL     OW19666   2.535   0.650  18.327
 2596SOL    HW119667   2.625   0.678  18.313
 2596SOL    HW219668   2.528   0.637  18.422
 2597SOL     OW19669   0.515   2.232  20.185
 2597SOL    HW119670   0.532   2.308  20.240
 2597SOL    HW219671   0.479   2.268  20.104
 2598SOL     OW19672   4.348   4.168   4.764
 2598SOL    HW119673   4.264   4.205   4.790
 2598SOL    HW219674   4.328   4.077   4.743
 2599SOL     OW19675   2.616   4.583  19.985
 2599SOL    HW119676   2.621   4.569  20.079
 2599SOL    HW219677   2.706   4.600  19.958
 2600SOL     OW19678   0.776   1.757  19.631
 2600SOL    HW119679   0.736   1.674  19.658
 2600SOL    HW219680   0.851   1.731  19.578
 2601SOL     OW19681   0.741   2.142  14.887
 2601SOL    HW119682   0.787   2.088  14.822
 2601SOL    HW219683   0.783   2.228  14.880
 2602SOL     OW19684   3.699   0.695   2.841
 2602SOL    HW119685   3.723   0.716   2.751
 2602SOL    HW219686   3.603   0.695   2.841
 2603SOL     OW19687   0.113   2.928   1.689
 2603SOL    HW119688   0.072   2.955   1.771
 2603SOL    HW219689   0.095   2.834   1.683
 2604SOL     OW19690   0.559   0.270  15.516
 2604SOL    HW119691   0.576   0.197  15.456
 2604SOL    HW219692   0.526   0.228  15.595
 2605SOL     OW19693   4.652   0.960  20.401
 2605SOL    HW119694   4.565   0.991  20.377
 2605SOL    HW219695   4.671   0.891  20.338
 2606SOL     OW19696   3.694   1.805   4.086
 2606SOL    HW119697   3.774   1.841   4.047
 2606SOL    HW219698   3.715   1.713   4.102
 2607SOL     OW19699   2.764   1.415   1.718
 2607SOL    HW119700   2.708   1.484   1.682
 2607SOL    HW219701   2.704   1.356   1.762
 2608SOL     OW19702   1.773   3.474  17.736
 2608SOL    HW119703   1.714   3.539  17.775
 2608SOL    HW219704   1.768   3.490  17.642
 2609SOL     OW19705   0.408   2.683  16.597
 2609SOL    HW119706   0.451   2.610  16.553
 2609SOL    HW219707   0.380   2.647  16.681
 2610SOL     OW19708   2.795   2.544  13.083
 2610SOL    HW119709   2.706   2.531  13.049
 2610SOL    HW219710   2.784   2.549  13.178
 2611SOL     OW19711   1.391   1.203   0.761
 2611SOL    HW119712   1.340   1.250   0.695
 2611SOL    HW219713   1.474   1.250   0.765
 2612SOL     OW19714   1.049   1.551   2.660
 2612SOL    HW119715   1.090   1.530   2.744
 2612SOL    HW219716   1.122   1.557   2.598
 2613SOL     OW19717   2.365   3.415  20.579
 2613SOL    HW119718   2.316   3.497  20.588
 2613SOL    HW219719   2.383   3.407  20.485
 2614SOL     OW19720   0.274   3.675   2.686
 2614SOL    HW119721   0.364   3.693   2.659
 2614SOL    HW219722   0.283   3.612   2.758
 2615SOL     OW19723   0.371   1.903   0.760
 2615SOL    HW119724   0.357   1.849   0.838
 2615SOL    HW219725   0.292   1.956   0.752
 2616SOL     OW19726   4.476   0.206  20.830
 2616SOL    HW119727   4.511   0.236  20.914
 2616SOL    HW219728   4.523   0.124  20.812
 2617SOL     OW19729   0.675   2.659   4.900
 2617SOL    HW119730   0.728   2.587   4.867
 2617SOL    HW219731   0.598   2.617   4.938
 2618SOL     OW19732   2.403   0.944   9.807
 2618SOL    HW119733   2.462   0.899   9.747
 2618SOL    HW219734   2.343   0.876   9.838
 2619SOL     OW19735   3.524   2.589   5.320
 2619SOL    HW119736   3.495   2.543   5.241
 2619SOL    HW219737   3.509   2.682   5.301
 2620SOL     OW19738   4.224   1.498   1.007
 2620SOL    HW119739   4.158   1.561   1.034
 2620SOL    HW219740   4.200   1.417   1.053
 2621SOL     OW19741   0.782   4.139  20.441
 2621SOL    HW119742   0.746   4.134  20.352
 2621SOL    HW219743   0.749   4.222  20.476
 2622SOL     OW19744   2.552   3.768   5.768
 2622SOL    HW119745   2.515   3.680   5.770
 2622SOL    HW219746   2.519   3.807   5.687
 2623SOL     OW19747   1.227   1.489  17.643
 2623SOL    HW119748   1.151   1.439  17.614
 2623SOL    HW219749   1.292   1.478  17.573
 2624SOL     OW19750   2.407   4.517   2.437
 2624SOL    HW119751   2.499   4.490   2.440
 2624SOL    HW219752   2.362   4.456   2.496
 2625SOL     OW19753   4.192   1.134   3.688
 2625SOL    HW119754   4.125   1.189   3.727
 2625SOL    HW219755   4.274   1.168   3.723
 2626SOL     OW19756   3.191   2.639  16.951
 2626SOL    HW119757   3.190   2.543  16.947
 2626SOL    HW219758   3.127   2.667  16.885
 2627SOL     OW19759   1.203   1.695   2.029
 2627SOL    HW119760   1.181   1.782   2.061
 2627SOL    HW219761   1.191   1.700   1.934
 2628SOL     OW19762   4.518   1.576  19.633
 2628SOL    HW119763   4.513   1.662  19.675
 2628SOL    HW219764   4.537   1.595  19.541
 2629SOL     OW19765   1.188   2.495   1.830
 2629SOL    HW119766   1.168   2.589   1.830
 2629SOL    HW219767   1.203   2.473   1.922
 2630SOL     OW19768   0.458   2.223   2.335
 2630SOL    HW119769   0.389   2.279   2.300
 2630SOL    HW219770   0.475   2.160   2.265
 2631SOL     OW19771   4.448   2.513   2.470
 2631SOL    HW119772   4.507   2.448   2.509
 2631SOL    HW219773   4.374   2.462   2.438
 2632SOL     OW19774   3.808   4.705   4.787
 2632SOL    HW119775   3.728   4.669   4.824
 2632SOL    HW219776   3.779   4.779   4.734
 2633SOL     OW19777   0.970   3.528  15.392
 2633SOL    HW119778   0.897   3.513  15.333
 2633SOL    HW219779   1.004   3.614  15.367
 2634SOL     OW19780   4.702   0.799  16.757
 2634SOL    HW119781   4.710   0.891  16.784
 2634SOL    HW219782   4.666   0.755  16.834
 2635SOL     OW19783   4.549   3.712  18.094
 2635SOL    HW119784   4.497   3.688  18.017
 2635SOL    HW219785   4.639   3.716  18.062
 2636SOL     OW19786   1.510   2.371  17.554
 2636SOL    HW119787   1.535   2.447  17.502
 2636SOL    HW219788   1.419   2.388  17.580
 2637SOL     OW19789   2.625   4.696   6.484
 2637SOL    HW119790   2.567   4.760   6.444
 2637SOL    HW219791   2.586   4.611   6.461
 2638SOL     OW19792   1.008   1.820   0.544
 2638SOL    HW119793   0.915   1.843   0.545
 2638SOL    HW219794   1.042   1.860   0.464
 2639SOL     OW19795   4.252   2.434  16.332
 2639SOL    HW119796   4.330   2.418  16.279
 2639SOL    HW219797   4.285   2.466  16.416
 2640SOL     OW19798   0.285   1.588   7.804
 2640SOL    HW119799   0.267   1.582   7.898
 2640SOL    HW219800   0.302   1.498   7.777
 2641SOL     OW19801   4.427   1.033  20.246
 2641SOL    HW119802   4.413   1.082  20.165
 2641SOL    HW219803   4.390   0.946  20.228
 2642SOL     OW19804   2.061   0.720   2.089
 2642SOL    HW119805   2.092   0.772   2.163
 2642SOL    HW219806   2.051   0.783   2.018
 2643SOL     OW19807   0.962   4.009  16.072
 2643SOL    HW119808   0.912   4.039  16.148
 2643SOL    HW219809   0.978   4.089  16.021
 2644SOL     OW19810   0.620   2.885   6.633
 2644SOL    HW119811   0.618   2.974   6.597
 2644SOL    HW219812   0.578   2.831   6.566
 2645SOL     OW19813   2.670   3.508   6.476
 2645SOL    HW119814   2.635   3.550   6.398
 2645SOL    HW219815   2.731   3.442   6.443
 2646SOL     OW19816   3.401   0.693   5.824
 2646SOL    HW119817   3.397   0.737   5.739
 2646SOL    HW219818   3.310   0.674   5.845
 2647SOL     OW19819   0.530   2.878   3.108
 2647SOL    HW119820   0.468   2.859   3.179
 2647SOL    HW219821   0.555   2.792   3.075
 2648SOL     OW19822   2.994   2.769   2.634
 2648SOL    HW119823   3.088   2.784   2.643
 2648SOL    HW219824   2.988   2.696   2.572
 2649SOL     OW19825   4.348   2.217   5.429
 2649SOL    HW119826   4.390   2.135   5.402
 2649SOL    HW219827   4.256   2.205   5.407
 2650SOL     OW19828   2.128   4.746   0.881
 2650SOL    HW119829   2.102   4.694   0.805
 2650SOL    HW219830   2.142   0.044   0.846
 2651SOL     OW19831   4.788   3.668   3.604
 2651SOL    HW119832   0.003   3.746   3.548
 2651SOL    HW219833   0.059   3.686   3.675
 2652SOL     OW19834   2.498   2.535   0.016
 2652SOL    HW119835   2.429   2.588  21.233
 2652SOL    HW219836   2.546   2.596   0.072
 2653SOL     OW19837   1.889   3.303   0.404
 2653SOL    HW119838   1.884   3.399   0.400
 2653SOL    HW219839   1.830   3.279   0.476
 2654SOL     OW19840   0.898   2.692  18.472
 2654SOL    HW119841   0.984   2.653  18.490
 2654SOL    HW219842   0.917   2.770  18.421
 2655SOL     OW19843   3.091   2.514   7.495
 2655SOL    HW119844   3.012   2.494   7.546
 2655SOL    HW219845   3.160   2.462   7.536
 2656SOL     OW19846   4.747   4.427   6.020
 2656SOL    HW119847   4.772   4.518   6.004
 2656SOL    HW219848   4.707   4.398   5.938
 2657SOL     OW19849   0.548   3.929   5.557
 2657SOL    HW119850   0.566   3.890   5.642
 2657SOL    HW219851   0.453   3.940   5.555
 2658SOL     OW19852   4.747   1.411  16.798
 2658SOL    HW119853   4.658   1.446  16.799
 2658SOL    HW219854   0.008   1.473  16.850
 2659SOL     OW19855   0.838   2.251   3.886
 2659SOL    HW119856   0.742   2.253   3.887
 2659SOL    HW219857   0.864   2.340   3.910
 2660SOL     OW19858   3.739   3.411  15.856
 2660SOL    HW119859   3.751   3.348  15.927
 2660SOL    HW219860   3.784   3.371  15.781
 2661SOL     OW19861   0.731   0.037  15.394
 2661SOL    HW119862   0.798   4.780  15.343
 2661SOL    HW219863   0.660   0.052  15.332
 2662SOL     OW19864   0.877   0.414  16.677
 2662SOL    HW119865   0.949   0.474  16.657
 2662SOL    HW219866   0.898   0.335  16.628
 2663SOL     OW19867   1.607   0.002  15.460
 2663SOL    HW119868   1.680   0.005  15.399
 2663SOL    HW219869   1.641   4.744  15.536
 2664SOL     OW19870   4.054   3.502   1.569
 2664SOL    HW119871   4.097   3.446   1.634
 2664SOL    HW219872   4.104   3.583   1.570
 2665SOL     OW19873   3.787   1.058   5.637
 2665SOL    HW119874   3.838   1.112   5.697
 2665SOL    HW219875   3.712   1.029   5.689
 2666SOL     OW19876   1.508   2.921  14.026
 2666SOL    HW119877   1.443   2.943  13.959
 2666SOL    HW219878   1.571   2.993  14.024
 2667SOL     OW19879   3.447   3.648  15.300
 2667SOL    HW119880   3.360   3.675  15.330
 2667SOL    HW219881   3.490   3.730  15.274
 2668SOL     OW19882   3.221   1.629   3.147
 2668SOL    HW119883   3.239   1.707   3.094
 2668SOL    HW219884   3.246   1.555   3.091
 2669SOL     OW19885   2.630   3.137   6.644
 2669SOL    HW119886   2.573   3.061   6.631
 2669SOL    HW219887   2.585   3.190   6.709
 2670SOL     OW19888   2.999   4.617   2.184
 2670SOL    HW119889   2.964   4.535   2.150
 2670SOL    HW219890   3.007   4.674   2.107
 2671SOL     OW19891   1.249   2.608  19.042
 2671SOL    HW119892   1.324   2.593  18.985
 2671SOL    HW219893   1.190   2.663  18.990
 2672SOL     OW19894   2.884   3.567   0.445
 2672SOL    HW119895   2.969   3.612   0.441
 2672SOL    HW219896   2.828   3.615   0.384
 2673SOL     OW19897   1.421   3.959   4.093
 2673SOL    HW119898   1.357   3.892   4.117
 2673SOL    HW219899   1.457   3.929   4.010
 2674SOL     OW19900   2.445   2.560  19.137
 2674SOL    HW119901   2.352   2.578  19.127
 2674SOL    HW219902   2.487   2.612  19.068
 2675SOL     OW19903   4.172   2.721  17.991
 2675SOL    HW119904   4.106   2.788  17.974
 2675SOL    HW219905   4.194   2.731  18.084
 2676SOL     OW19906   0.632   4.784  12.975
 2676SOL    HW119907   0.722   0.024  12.987
 2676SOL    HW219908   0.638   4.718  12.906
 2677SOL     OW19909   0.182   3.789   0.991
 2677SOL    HW119910   0.186   3.727   0.918
 2677SOL    HW219911   0.236   3.863   0.963
 2678SOL     OW19912   2.761   0.500   4.603
 2678SOL    HW119913   2.711   0.495   4.684
 2678SOL    HW219914   2.732   0.581   4.562
 2679SOL     OW19915   4.219   0.157   4.284
 2679SOL    HW119916   4.128   0.140   4.307
 2679SOL    HW219917   4.220   0.248   4.253
 2680SOL     OW19918   2.736   3.237   4.603
 2680SOL    HW119919   2.826   3.271   4.605
 2680SOL    HW219920   2.700   3.272   4.521
 2681SOL     OW19921   0.405   3.746  16.895
 2681SOL    HW119922   0.328   3.727  16.949
 2681SOL    HW219923   0.457   3.807  16.947
 2682SOL     OW19924   0.743   2.990  17.100
 2682SOL    HW119925   0.658   2.959  17.132
 2682SOL    HW219926   0.780   2.915  17.054
 2683SOL     OW19927   4.701   2.704   6.630
 2683SOL    HW119928   4.632   2.656   6.676
 2683SOL    HW219929   4.654   2.758   6.567
 2684SOL     OW19930   1.499   1.526  11.029
 2684SOL    HW119931   1.579   1.576  11.015
 2684SOL    HW219932   1.529   1.441  11.062
 2685SOL     OW19933   1.447   1.132  21.227
 2685SOL    HW119934   1.534   1.168  21.209
 2685SOL    HW219935   1.423   1.168   0.055
 2686SOL     OW19936   0.074   1.504   3.425
 2686SOL    HW119937   0.042   1.416   3.445
 2686SOL    HW219938   0.007   1.563   3.459
 2687SOL     OW19939   2.749   4.049   4.287
 2687SOL    HW119940   2.839   4.038   4.317
 2687SOL    HW219941   2.733   4.143   4.294
 2688SOL     OW19942   4.779   0.848   0.799
 2688SOL    HW119943   4.770   0.833   0.705
 2688SOL    HW219944   0.083   0.861   0.813
 2689SOL     OW19945   0.737   0.333   0.089
 2689SOL    HW119946   0.730   0.428   0.091
 2689SOL    HW219947   0.827   0.316   0.060
 2690SOL     OW19948   2.217   4.149  13.190
 2690SOL    HW119949   2.256   4.154  13.277
 2690SOL    HW219950   2.123   4.148  13.206
 2691SOL     OW19951   3.122   4.175  20.305
 2691SOL    HW119952   3.042   4.123  20.301
 2691SOL    HW219953   3.118   4.231  20.228
 2692SOL     OW19954   1.215   0.973   5.229
 2692SOL    HW119955   1.256   1.026   5.298
 2692SOL    HW219956   1.243   0.883   5.249
 2693SOL     OW19957   0.484   0.471  20.311
 2693SOL    HW119958   0.539   0.506  20.382
 2693SOL    HW219959   0.414   0.536  20.301
 2694SOL     OW19960   0.398   0.551   3.017
 2694SOL    HW119961   0.484   0.587   3.039
 2694SOL    HW219962   0.417   0.478   2.958
 2695SOL     OW19963   0.040   2.489   3.963
 2695SOL    HW119964   0.043   2.399   3.995
 2695SOL    HW219965   0.072   2.541   4.036
 2696SOL     OW19966   0.783   0.685   7.922
 2696SOL    HW119967   0.852   0.694   7.988
 2696SOL    HW219968   0.779   0.591   7.903
 2697SOL     OW19969   3.022   3.470  15.663
 2697SOL    HW119970   2.953   3.522  15.621
 2697SOL    HW219971   3.102   3.497  15.618
 2698SOL     OW19972   0.123   3.455   1.952
 2698SOL    HW119973   0.174   3.532   1.978
 2698SOL    HW219974   0.061   3.442   2.024
 2699SOL     OW19975   0.102   0.457   5.296
 2699SOL    HW119976   0.192   0.486   5.279
 2699SOL    HW219977   0.110   0.363   5.310
 2700SOL     OW19978   0.858   4.493  15.982
 2700SOL    HW119979   0.763   4.484  15.989
 2700SOL    HW219980   0.892   4.410  16.016
 2701SOL     OW19981   2.411   2.300  16.393
 2701SOL    HW119982   2.416   2.233  16.461
 2701SOL    HW219983   2.328   2.282  16.349
 2702SOL     OW19984   4.555   1.813  18.351
 2702SOL    HW119985   4.615   1.836  18.422
 2702SOL    HW219986   4.471   1.800  18.394
 2703SOL     OW19987   0.218   3.241  14.503
 2703SOL    HW119988   0.194   3.326  14.540
 2703SOL    HW219989   0.259   3.261  14.419
 2704SOL     OW19990   0.528   4.677  19.384
 2704SOL    HW119991   0.454   4.682  19.323
 2704SOL    HW219992   0.605   4.698  19.330
 2705SOL     OW19993   2.259   3.019  20.425
 2705SOL    HW119994   2.210   3.097  20.452
 2705SOL    HW219995   2.325   3.006  20.493
 2706SOL     OW19996   2.625   1.665   6.663
 2706SOL    HW119997   2.621   1.695   6.572
 2706SOL    HW219998   2.591   1.575   6.661
 2707SOL     OW19999   1.232   1.618   2.428
 2707SOL    HW120000   1.320   1.619   2.466
 2707SOL    HW220001   1.247   1.605   2.334
 2708SOL     OW20002   1.264   3.466  17.908
 2708SOL    HW120003   1.352   3.431  17.921
 2708SOL    HW220004   1.207   3.408  17.958
 2709SOL     OW20005   4.455   0.361   0.169
 2709SOL    HW120006   4.380   0.315   0.131
 2709SOL    HW220007   4.525   0.296   0.169
 2710SOL     OW20008   0.626   0.943   0.320
 2710SOL    HW120009   0.679   0.987   0.386
 2710SOL    HW220010   0.668   0.858   0.308
 2711SOL     OW20011   4.184   4.642  15.668
 2711SOL    HW120012   4.173   4.572  15.604
 2711SOL    HW220013   4.095   4.666  15.693
 2712SOL     OW20014   2.429   0.730  12.962
 2712SOL    HW120015   2.432   0.773  12.877
 2712SOL    HW220016   2.361   0.778  13.010
 2713SOL     OW20017   1.922   4.167  14.100
 2713SOL    HW120018   1.852   4.156  14.035
 2713SOL    HW220019   1.975   4.240  14.067
 2714SOL     OW20020   2.362   2.774   1.503
 2714SOL    HW120021   2.454   2.753   1.518
 2714SOL    HW220022   2.363   2.866   1.475
 2715SOL     OW20023   0.898   3.850  16.456
 2715SOL    HW120024   0.827   3.863  16.393
 2715SOL    HW220025   0.939   3.767  16.430
 2716SOL     OW20026   1.606   1.427  19.461
 2716SOL    HW120027   1.671   1.357  19.459
 2716SOL    HW220028   1.539   1.397  19.522
 2717SOL     OW20029   3.803   4.749   3.923
 2717SOL    HW120030   3.713   4.747   3.890
 2717SOL    HW220031   3.803   0.027   3.991
 2718SOL     OW20032   0.087   0.389   3.627
 2718SOL    HW120033   0.028   0.315   3.613
 2718SOL    HW220034   0.125   0.405   3.541
 2719SOL     OW20035   2.846   0.280   4.205
 2719SOL    HW120036   2.902   0.307   4.278
 2719SOL    HW220037   2.757   0.289   4.239
 2720SOL     OW20038   3.052   0.242  20.129
 2720SOL    HW120039   2.967   0.241  20.173
 2720SOL    HW220040   3.036   0.286  20.046
 2721SOL     OW20041   4.760   3.692  15.475
 2721SOL    HW120042   0.022   3.656  15.547
 2721SOL    HW220043   0.032   3.748  15.428
 2722SOL     OW20044   2.851   1.812   5.901
 2722SOL    HW120045   2.930   1.760   5.918
 2722SOL    HW220046   2.801   1.760   5.838
 2723SOL     OW20047   0.063   2.350  18.276
 2723SOL    HW120048   0.106   2.432  18.301
 2723SOL    HW220049   0.115   2.317  18.203
 2724SOL     OW20050   2.012   1.625  19.399
 2724SOL    HW120051   1.951   1.683  19.444
 2724SOL    HW220052   1.961   1.546  19.382
 2725SOL     OW20053   1.598   2.263   0.839
 2725SOL    HW120054   1.503   2.272   0.840
 2725SOL    HW220055   1.614   2.169   0.844
 2726SOL     OW20056   1.848   1.165   2.429
 2726SOL    HW120057   1.758   1.135   2.437
 2726SOL    HW220058   1.847   1.225   2.354
 2727SOL     OW20059   3.155   3.505   4.303
 2727SOL    HW120060   3.138   3.508   4.209
 2727SOL    HW220061   3.116   3.422   4.332
 2728SOL     OW20062   0.780   3.611  13.577
 2728SOL    HW120063   0.869   3.645  13.584
 2728SOL    HW220064   0.779   3.563  13.494
 2729SOL     OW20065   0.025   3.048   4.904
 2729SOL    HW120066   0.028   2.989   4.828
 2729SOL    HW220067   0.116   3.052   4.934
 2730SOL     OW20068   4.394   4.102  14.989
 2730SOL    HW120069   4.379   4.175  15.049
 2730SOL    HW220070   4.308   4.083  14.952
 2731SOL     OW20071   1.319   4.631   1.240
 2731SOL    HW120072   1.264   4.690   1.291
 2731SOL    HW220073   1.406   4.640   1.279
 2732SOL     OW20074   2.647   4.214  19.061
 2732SOL    HW120075   2.667   4.146  19.126
 2732SOL    HW220076   2.560   4.191  19.029
 2733SOL     OW20077   3.358   4.085  17.627
 2733SOL    HW120078   3.267   4.083  17.599
 2733SOL    HW220079   3.364   4.161  17.685
 2734SOL     OW20080   3.689   2.807  15.156
 2734SOL    HW120081   3.695   2.873  15.087
 2734SOL    HW220082   3.649   2.731  15.113
 2735SOL     OW20083   1.091   1.179   5.537
 2735SOL    HW120084   1.008   1.133   5.527
 2735SOL    HW220085   1.068   1.259   5.584
 2736SOL     OW20086   2.851   0.887   9.220
 2736SOL    HW120087   2.772   0.936   9.199
 2736SOL    HW220088   2.869   0.910   9.311
 2737SOL     OW20089   1.660   0.540  15.865
 2737SOL    HW120090   1.702   0.510  15.946
 2737SOL    HW220091   1.705   0.491  15.796
 2738SOL     OW20092   1.149   0.944   1.442
 2738SOL    HW120093   1.069   0.992   1.418
 2738SOL    HW220094   1.175   0.899   1.362
 2739SOL     OW20095   0.081   4.775   4.488
 2739SOL    HW120096   0.126   0.040   4.424
 2739SOL    HW220097   0.017   4.726   4.437
 2740SOL     OW20098   4.630   3.659   5.681
 2740SOL    HW120099   4.695   3.606   5.727
 2740SOL    HW220100   4.680   3.732   5.644
 2741SOL     OW20101   4.704   4.069   1.133
 2741SOL    HW120102   4.650   4.141   1.167
 2741SOL    HW220103   4.651   4.031   1.063
 2742SOL     OW20104   2.178   2.718   5.103
 2742SOL    HW120105   2.185   2.643   5.044
 2742SOL    HW220106   2.171   2.794   5.045
 2743SOL     OW20107   4.620   0.166   0.975
 2743SOL    HW120108   4.614   0.117   0.893
 2743SOL    HW220109   4.688   0.121   1.025
 2744SOL     OW20110   4.486   3.467  16.491
 2744SOL    HW120111   4.394   3.472  16.518
 2744SOL    HW220112   4.488   3.399  16.424
 2745SOL     OW20113   0.615   4.626  15.821
 2745SOL    HW120114   0.706   4.636  15.793
 2745SOL    HW220115   0.609   4.536  15.852
 2746SOL     OW20116   0.204   1.885  18.306
 2746SOL    HW120117   0.113   1.903  18.282
 2746SOL    HW220118   0.256   1.948  18.256
 2747SOL     OW20119   4.211   4.720  20.067
 2747SOL    HW120120   4.302   4.748  20.058
 2747SOL    HW220121   4.168   0.003  20.113
 2748SOL     OW20122   3.821   3.143   7.283
 2748SOL    HW120123   3.751   3.205   7.305
 2748SOL    HW220124   3.786   3.094   7.209
 2749SOL     OW20125   0.212   2.943   0.822
 2749SOL    HW120126   0.173   2.863   0.787
 2749SOL    HW220127   0.283   2.913   0.878
 2750SOL     OW20128   3.922   3.900   5.984
 2750SOL    HW120129   3.941   3.877   6.075
 2750SOL    HW220130   3.856   3.836   5.957
 2751SOL     OW20131   1.670   0.577  18.614
 2751SOL    HW120132   1.675   0.607  18.523
 2751SOL    HW220133   1.758   0.591  18.649
 2752SOL     OW20134   2.187   2.722  16.653
 2752SOL    HW120135   2.191   2.628  16.668
 2752SOL    HW220136   2.099   2.747  16.681
 2753SOL     OW20137   2.912   3.672   3.728
 2753SOL    HW120138   2.996   3.675   3.774
 2753SOL    HW220139   2.936   3.669   3.635
 2754SOL     OW20140   1.111   3.252  20.873
 2754SOL    HW120141   1.160   3.322  20.830
 2754SOL    HW220142   1.075   3.293  20.952
 2755SOL     OW20143   2.196   2.627  19.013
 2755SOL    HW120144   2.101   2.635  19.000
 2755SOL    HW220145   2.228   2.717  19.012
 2756SOL     OW20146   2.737   3.731   3.421
 2756SOL    HW120147   2.776   3.644   3.420
 2756SOL    HW220148   2.721   3.752   3.329
 2757SOL     OW20149   2.066   0.899  20.831
 2757SOL    HW120150   2.150   0.906  20.787
 2757SOL    HW220151   2.080   0.832  20.899
 2758SOL     OW20152   1.303   1.291   5.366
 2758SOL    HW120153   1.346   1.373   5.392
 2758SOL    HW220154   1.238   1.275   5.435
 2759SOL     OW20155   3.034   0.166   1.140
 2759SOL    HW120156   3.083   0.151   1.059
 2759SOL    HW220157   3.016   0.260   1.139
 2760SOL     OW20158   3.799   2.757  16.966
 2760SOL    HW120159   3.786   2.848  16.994
 2760SOL    HW220160   3.874   2.726  17.017
 2761SOL     OW20161   3.321   0.127  17.254
 2761SOL    HW120162   3.292   0.183  17.182
 2761SOL    HW220163   3.390   0.073  17.215
 2762SOL     OW20164   2.943   0.756   2.752
 2762SOL    HW120165   2.851   0.740   2.772
 2762SOL    HW220166   2.942   0.824   2.685
 2763SOL     OW20167   3.064   3.186   6.508
 2763SOL    HW120168   3.086   3.220   6.595
 2763SOL    HW220169   3.128   3.227   6.449
 2764SOL     OW20170   2.921   2.482   5.804
 2764SOL    HW120171   2.836   2.513   5.836
 2764SOL    HW220172   2.902   2.398   5.762
 2765SOL     OW20173   1.284   3.084   3.027
 2765SOL    HW120174   1.332   3.165   3.041
 2765SOL    HW220175   1.217   3.083   3.095
 2766SOL     OW20176   3.130   3.700   3.573
 2766SOL    HW120177   3.161   3.730   3.658
 2766SOL    HW220178   3.069   3.768   3.544
 2767SOL     OW20179   3.676   4.735  16.094
 2767SOL    HW120180   3.601   4.784  16.128
 2767SOL    HW220181   3.716   4.695  16.171
 2768SOL     OW20182   3.612   4.609  14.011
 2768SOL    HW120183   3.520   4.624  13.990
 2768SOL    HW220184   3.646   4.563  13.934
 2769SOL     OW20185   2.450   4.672   4.522
 2769SOL    HW120186   2.452   4.764   4.497
 2769SOL    HW220187   2.378   4.666   4.585
 2770SOL     OW20188   3.703   0.655  16.620
 2770SOL    HW120189   3.748   0.665  16.536
 2770SOL    HW220190   3.622   0.608  16.599
 2771SOL     OW20191   3.771   2.853   3.739
 2771SOL    HW120192   3.706   2.865   3.808
 2771SOL    HW220193   3.720   2.854   3.658
 2772SOL     OW20194   3.739   2.242   1.340
 2772SOL    HW120195   3.656   2.240   1.292
 2772SOL    HW220196   3.777   2.156   1.324
 2773SOL     OW20197   3.180   4.137  19.799
 2773SOL    HW120198   3.162   4.218  19.846
 2773SOL    HW220199   3.148   4.153  19.710
 2774SOL     OW20200   1.324   2.465   5.708
 2774SOL    HW120201   1.413   2.444   5.737
 2774SOL    HW220202   1.282   2.502   5.785
 2775SOL     OW20203   0.569   1.228  17.509
 2775SOL    HW120204   0.654   1.185  17.516
 2775SOL    HW220205   0.565   1.258  17.418
 2776SOL     OW20206   0.500   2.392   4.759
 2776SOL    HW120207   0.500   2.479   4.798
 2776SOL    HW220208   0.552   2.339   4.820
 2777SOL     OW20209   3.658   3.780   0.995
 2777SOL    HW120210   3.731   3.730   0.958
 2777SOL    HW220211   3.597   3.714   1.026
 2778SOL     OW20212   4.508   1.492  17.213
 2778SOL    HW120213   4.602   1.501  17.231
 2778SOL    HW220214   4.485   1.571  17.164
 2779SOL     OW20215   3.559   1.431  21.198
 2779SOL    HW120216   3.502   1.383   0.001
 2779SOL    HW220217   3.516   1.516  21.186
 2780SOL     OW20218   4.176   4.413  18.677
 2780SOL    HW120219   4.191   4.320  18.659
 2780SOL    HW220220   4.251   4.439  18.730
 2781SOL     OW20221   2.563   4.243  20.788
 2781SOL    HW120222   2.657   4.231  20.777
 2781SOL    HW220223   2.552   4.256  20.882
 2782SOL     OW20224   0.782   4.415   2.876
 2782SOL    HW120225   0.758   4.350   2.810
 2782SOL    HW220226   0.863   4.382   2.914
 2783SOL     OW20227   1.817   4.385  17.696
 2783SOL    HW120228   1.894   4.407  17.644
 2783SOL    HW220229   1.822   4.443  17.772
 2784SOL     OW20230   1.107   4.508  12.859
 2784SOL    HW120231   1.141   4.533  12.773
 2784SOL    HW220232   1.160   4.432  12.884
 2785SOL     OW20233   0.125   3.378  21.178
 2785SOL    HW120234   0.069   3.313  21.134
 2785SOL    HW220235   0.098   3.374   0.013
 2786SOL     OW20236   2.308   2.755  17.998
 2786SOL    HW120237   2.278   2.667  18.023
 2786SOL    HW220238   2.376   2.776  18.062
 2787SOL     OW20239   0.416   0.208  18.215
 2787SOL    HW120240   0.412   0.180  18.307
 2787SOL    HW220241   0.475   0.145  18.174
 2788SOL     OW20242   3.092   1.675  15.857
 2788SOL    HW120243   3.061   1.628  15.934
 2788SOL    HW220244   3.153   1.614  15.815
 2789SOL     OW20245   0.791   1.469  21.048
 2789SOL    HW120246   0.730   1.493  20.978
 2789SOL    HW220247   0.852   1.543  21.052
 2790SOL     OW20248   0.337   3.674  14.847
 2790SOL    HW120249   0.269   3.718  14.897
 2790SOL    HW220250   0.408   3.661  14.910
 2791SOL     OW20251   2.762   4.310  15.968
 2791SOL    HW120252   2.821   4.237  15.988
 2791SOL    HW220253   2.674   4.273  15.977
 2792SOL     OW20254   0.719   1.942   4.675
 2792SOL    HW120255   0.735   1.944   4.769
 2792SOL    HW220256   0.624   1.936   4.667
 2793SOL     OW20257   0.501   0.012  20.277
 2793SOL    HW120258   0.410   0.037  20.291
 2793SOL    HW220259   0.550   0.068  20.337
 2794SOL     OW20260   4.741   3.820   1.278
 2794SOL    HW120261   4.767   3.893   1.221
 2794SOL    HW220262   4.660   3.849   1.319
 2795SOL     OW20263   2.279   2.195  15.216
 2795SOL    HW120264   2.206   2.190  15.155
 2795SOL    HW220265   2.288   2.288  15.235
 2796SOL     OW20266   1.782   4.027  18.010
 2796SOL    HW120267   1.782   4.074  17.927
 2796SOL    HW220268   1.730   4.082  18.069
 2797SOL     OW20269   2.172   4.529   3.898
 2797SOL    HW120270   2.141   4.452   3.945
 2797SOL    HW220271   2.173   4.502   3.806
 2798SOL     OW20272   0.113   2.976  18.262
 2798SOL    HW120273   0.190   2.978  18.318
 2798SOL    HW220274   0.060   2.904  18.297
 2799SOL     OW20275   4.540   4.353   3.488
 2799SOL    HW120276   4.465   4.344   3.547
 2799SOL    HW220277   4.561   4.264   3.461
 2800SOL     OW20278   0.760   1.089   5.690
 2800SOL    HW120279   0.676   1.130   5.667
 2800SOL    HW220280   0.796   1.061   5.606
 2801SOL     OW20281   3.052   1.694   6.749
 2801SOL    HW120282   2.966   1.652   6.744
 2801SOL    HW220283   3.053   1.755   6.675
 2802SOL     OW20284   0.714   4.734  14.617
 2802SOL    HW120285   0.776   4.745  14.689
 2802SOL    HW220286   0.721   4.642  14.593
 2803SOL     OW20287   2.738   3.634   4.030
 2803SOL    HW120288   2.705   3.721   4.052
 2803SOL    HW220289   2.824   3.650   3.991
 2804SOL     OW20290   3.001   1.712  17.968
 2804SOL    HW120291   2.994   1.734  17.875
 2804SOL    HW220292   2.911   1.716  18.001
 2805SOL     OW20293   1.178   3.614  20.898
 2805SOL    HW120294   1.161   3.588  20.989
 2805SOL    HW220295   1.217   3.536  20.858
 2806SOL     OW20296   3.356   1.094  18.785
 2806SOL    HW120297   3.444   1.061  18.805
 2806SOL    HW220298   3.356   1.184  18.816
 2807SOL     OW20299   2.000   2.336  21.097
 2807SOL    HW120300   2.026   2.300  21.012
 2807SOL    HW220301   2.035   2.425  21.097
 2808SOL     OW20302   2.051   1.313  17.783
 2808SOL    HW120303   2.115   1.319  17.854
 2808SOL    HW220304   1.968   1.336  17.824
 2809SOL     OW20305   3.421   2.089   4.580
 2809SOL    HW120306   3.454   2.165   4.628
 2809SOL    HW220307   3.458   2.097   4.492
 2810SOL     OW20308   1.094   0.347  16.198
 2810SOL    HW120309   1.124   0.258  16.218
 2810SOL    HW220310   1.171   0.390  16.161
 2811SOL     OW20311   0.302   0.639  16.872
 2811SOL    HW120312   0.302   0.549  16.904
 2811SOL    HW220313   0.262   0.634  16.785
 2812SOL     OW20314   2.805   1.755  19.461
 2812SOL    HW120315   2.895   1.724  19.454
 2812SOL    HW220316   2.814   1.847  19.485
 2813SOL     OW20317   0.486   0.092   5.886
 2813SOL    HW120318   0.395   0.111   5.863
 2813SOL    HW220319   0.537   0.127   5.813
 2814SOL     OW20320   2.407   0.890   3.273
 2814SOL    HW120321   2.402   0.933   3.187
 2814SOL    HW220322   2.463   0.947   3.325
 2815SOL     OW20323   1.608   0.947  16.539
 2815SOL    HW120324   1.519   0.982  16.532
 2815SOL    HW220325   1.616   0.919  16.630
 2816SOL     OW20326   0.509   4.039  17.184
 2816SOL    HW120327   0.575   4.038  17.114
 2816SOL    HW220328   0.528   3.961  17.236
 2817SOL     OW20329   4.755   1.824  15.918
 2817SOL    HW120330   4.715   1.893  15.864
 2817SOL    HW220331   4.688   1.803  15.983
 2818SOL     OW20332   1.333   0.218   1.265
 2818SOL    HW120333   1.304   0.164   1.338
 2818SOL    HW220334   1.266   0.285   1.256
 2819SOL     OW20335   0.145   0.691   4.708
 2819SOL    HW120336   0.200   0.748   4.762
 2819SOL    HW220337   0.171   0.602   4.733
 2820SOL     OW20338   2.174   0.797  19.730
 2820SOL    HW120339   2.268   0.804  19.715
 2820SOL    HW220340   2.167   0.754  19.815
 2821SOL     OW20341   3.510   0.961   3.345
 2821SOL    HW120342   3.569   0.992   3.276
 2821SOL    HW220343   3.493   1.039   3.398
 2822SOL     OW20344   1.720   3.014  20.995
 2822SOL    HW120345   1.770   2.991  21.073
 2822SOL    HW220346   1.760   2.962  20.925
 2823SOL     OW20347   4.355   3.316  16.002
 2823SOL    HW120348   4.310   3.397  15.977
 2823SOL    HW220349   4.287   3.249  15.998
 2824SOL     OW20350   2.574   4.265  19.530
 2824SOL    HW120351   2.525   4.316  19.466
 2824SOL    HW220352   2.541   4.294  19.615
 2825SOL     OW20353   1.987   4.619  19.483
 2825SOL    HW120354   2.074   4.611  19.522
 2825SOL    HW220355   1.958   4.707  19.506
 2826SOL     OW20356   1.245   1.592   5.120
 2826SOL    HW120357   1.162   1.614   5.079
 2826SOL    HW220358   1.253   1.497   5.109
 2827SOL     OW20359   2.033   4.612   2.818
 2827SOL    HW120360   2.003   4.524   2.842
 2827SOL    HW220361   2.126   4.600   2.797
 2828SOL     OW20362   0.789   2.065  16.622
 2828SOL    HW120363   0.806   2.027  16.708
 2828SOL    HW220364   0.817   1.997  16.560
 2829SOL     OW20365   0.685   3.632   6.384
 2829SOL    HW120366   0.751   3.608   6.449
 2829SOL    HW220367   0.614   3.569   6.398
 2830SOL     OW20368   2.493   2.521   0.742
 2830SOL    HW120369   2.424   2.472   0.787
 2830SOL    HW220370   2.446   2.582   0.685
 2831SOL     OW20371   2.636   2.219  16.110
 2831SOL    HW120372   2.622   2.233  16.016
 2831SOL    HW220373   2.629   2.306  16.148
 2832SOL     OW20374   4.207   3.588  15.441
 2832SOL    HW120375   4.182   3.525  15.509
 2832SOL    HW220376   4.160   3.668  15.464
 2833SOL     OW20377   1.485   1.258  11.912
 2833SOL    HW120378   1.558   1.264  11.851
 2833SOL    HW220379   1.480   1.165  11.935
 2834SOL     OW20380   2.881   2.432   5.479
 2834SOL    HW120381   2.953   2.488   5.507
 2834SOL    HW220382   2.918   2.379   5.408
 2835SOL     OW20383   0.621   4.659   1.273
 2835SOL    HW120384   0.643   4.566   1.275
 2835SOL    HW220385   0.614   4.684   1.365
 2836SOL     OW20386   2.226   4.585  20.200
 2836SOL    HW120387   2.224   4.618  20.110
 2836SOL    HW220388   2.219   4.664  20.254
 2837SOL     OW20389   4.230   0.500   3.037
 2837SOL    HW120390   4.225   0.425   2.978
 2837SOL    HW220391   4.284   0.469   3.110
 2838SOL     OW20392   0.421   3.556   5.975
 2838SOL    HW120393   0.498   3.594   6.016
 2838SOL    HW220394   0.354   3.624   5.981
 2839SOL     OW20395   4.155   1.983  19.783
 2839SOL    HW120396   4.186   2.038  19.711
 2839SOL    HW220397   4.126   1.902  19.741
 2840SOL     OW20398   3.487   2.916  20.288
 2840SOL    HW120399   3.489   3.009  20.309
 2840SOL    HW220400   3.578   2.888  20.293
 2841SOL     OW20401   1.572   2.323  19.069
 2841SOL    HW120402   1.665   2.341  19.080
 2841SOL    HW220403   1.528   2.402  19.101
 2842SOL     OW20404   2.606   3.053   6.014
 2842SOL    HW120405   2.621   3.063   6.108
 2842SOL    HW220406   2.692   3.063   5.974
 2843SOL     OW20407   3.854   1.429  16.120
 2843SOL    HW120408   3.906   1.391  16.190
 2843SOL    HW220409   3.822   1.354  16.070
 2844SOL     OW20410   0.380   4.430   6.122
 2844SOL    HW120411   0.426   4.449   6.204
 2844SOL    HW220412   0.352   4.516   6.090
 2845SOL     OW20413   1.171   2.769   5.339
 2845SOL    HW120414   1.206   2.858   5.337
 2845SOL    HW220415   1.104   2.768   5.270
 2846SOL     OW20416   3.396   2.782   3.449
 2846SOL    HW120417   3.305   2.763   3.470
 2846SOL    HW220418   3.431   2.698   3.418
 2847SOL     OW20419   4.045   0.080   2.999
 2847SOL    HW120420   4.122   0.039   2.960
 2847SOL    HW220421   3.972   0.022   2.976
 2848SOL     OW20422   2.619   4.511  13.827
 2848SOL    HW120423   2.578   4.579  13.880
 2848SOL    HW220424   2.603   4.430  13.876
 2849SOL     OW20425   3.942   0.568  20.532
 2849SOL    HW120426   3.850   0.589  20.516
 2849SOL    HW220427   3.942   0.475  20.556
 2850SOL     OW20428   4.231   4.613   5.511
 2850SOL    HW120429   4.307   4.557   5.528
 2850SOL    HW220430   4.170   4.592   5.582
 2851SOL     OW20431   4.021   1.083  20.100
 2851SOL    HW120432   3.984   1.170  20.085
 2851SOL    HW220433   4.049   1.053  20.014
 2852SOL     OW20434   1.254   1.997  19.484
 2852SOL    HW120435   1.249   2.071  19.544
 2852SOL    HW220436   1.348   1.983  19.472
 2853SOL     OW20437   0.897   2.437  14.908
 2853SOL    HW120438   0.987   2.442  14.875
 2853SOL    HW220439   0.868   2.528  14.913
 2854SOL     OW20440   1.135   1.707   4.846
 2854SOL    HW120441   1.219   1.673   4.815
 2854SOL    HW220442   1.119   1.784   4.792
 2855SOL     OW20443   1.183   0.317   0.922
 2855SOL    HW120444   1.119   0.372   0.877
 2855SOL    HW220445   1.181   0.347   1.013
 2856SOL     OW20446   4.381   4.103   0.392
 2856SOL    HW120447   4.426   4.161   0.453
 2856SOL    HW220448   4.383   4.017   0.434
 2857SOL     OW20449   4.735   4.664  20.140
 2857SOL    HW120450   4.727   4.598  20.209
 2857SOL    HW220451   4.654   4.656  20.090
 2858SOL     OW20452   1.038   4.771   1.867
 2858SOL    HW120453   0.979   4.701   1.894
 2858SOL    HW220454   0.994   0.062   1.895
 2859SOL     OW20455   4.053   4.453   4.291
 2859SOL    HW120456   4.062   4.516   4.363
 2859SOL    HW220457   4.103   4.492   4.219
 2860SOL     OW20458   3.431   4.351   6.420
 2860SOL    HW120459   3.455   4.328   6.330
 2860SOL    HW220460   3.362   4.416   6.410
 2861SOL     OW20461   3.866   3.727  21.118
 2861SOL    HW120462   3.878   3.819  21.143
 2861SOL    HW220463   3.949   3.685  21.142
 2862SOL     OW20464   4.083   4.244   4.754
 2862SOL    HW120465   4.026   4.170   4.774
 2862SOL    HW220466   4.049   4.279   4.672
 2863SOL     OW20467   4.448   3.649   3.364
 2863SOL    HW120468   4.401   3.676   3.443
 2863SOL    HW220469   4.521   3.596   3.396
 2864SOL     OW20470   3.503   0.484  19.008
 2864SOL    HW120471   3.491   0.578  18.998
 2864SOL    HW220472   3.569   0.461  18.942
 2865SOL     OW20473   4.621   0.076  14.583
 2865SOL    HW120474   4.541   0.055  14.632
 2865SOL    HW220475   4.686   0.096  14.651
 2866SOL     OW20476   0.145   2.238  16.943
 2866SOL    HW120477   0.164   2.292  17.019
 2866SOL    HW220478   0.223   2.245  16.888
 2867SOL     OW20479   1.896   1.438  16.975
 2867SOL    HW120480   1.840   1.461  16.901
 2867SOL    HW220481   1.839   1.446  17.051
 2868SOL     OW20482   1.932   3.232  20.101
 2868SOL    HW120483   1.848   3.202  20.137
 2868SOL    HW220484   1.981   3.152  20.084
 2869SOL     OW20485   3.694   3.164   2.484
 2869SOL    HW120486   3.722   3.212   2.406
 2869SOL    HW220487   3.767   3.172   2.545
 2870SOL     OW20488   1.861   2.835   4.840
 2870SOL    HW120489   1.946   2.814   4.800
 2870SOL    HW220490   1.865   2.795   4.927
 2871SOL     OW20491   1.542   3.987   0.188
 2871SOL    HW120492   1.470   4.050   0.182
 2871SOL    HW220493   1.606   4.030   0.244
 2872SOL     OW20494   0.479   3.924   1.801
 2872SOL    HW120495   0.420   3.996   1.824
 2872SOL    HW220496   0.542   3.920   1.873
 2873SOL     OW20497   2.255   1.591   6.794
 2873SOL    HW120498   2.270   1.642   6.873
 2873SOL    HW220499   2.342   1.560   6.769
 2874SOL     OW20500   3.756   3.675  17.176
 2874SOL    HW120501   3.835   3.724  17.199
 2874SOL    HW220502   3.739   3.698  17.085
 2875SOL     OW20503   1.915   3.097   2.932
 2875SOL    HW120504   1.886   3.114   2.843
 2875SOL    HW220505   1.837   3.064   2.977
 2876SOL     OW20506   4.762   4.547   6.290
 2876SOL    HW120507   4.756   4.523   6.198
 2876SOL    HW220508   0.018   4.473   6.331
 2877SOL     OW20509   3.850   2.266   8.472
 2877SOL    HW120510   3.907   2.268   8.549
 2877SOL    HW220511   3.828   2.358   8.456
 2878SOL     OW20512   1.748   2.876  16.534
 2878SOL    HW120513   1.675   2.918  16.578
 2878SOL    HW220514   1.777   2.940  16.468
 2879SOL     OW20515   2.915   3.393   1.018
 2879SOL    HW120516   2.918   3.416   0.925
 2879SOL    HW220517   2.950   3.470   1.063
 2880SOL     OW20518   3.721   4.789  18.349
 2880SOL    HW120519   3.727   4.716  18.287
 2880SOL    HW220520   3.647   4.767  18.406
 2881SOL     OW20521   3.260   2.291  18.635
 2881SOL    HW120522   3.313   2.318  18.710
 2881SOL    HW220523   3.224   2.206  18.661
 2882SOL     OW20524   0.765   4.696  19.211
 2882SOL    HW120525   0.826   4.625  19.191
 2882SOL    HW220526   0.725   4.717  19.127
 2883SOL     OW20527   2.749   3.312  15.008
 2883SOL    HW120528   2.661   3.347  15.023
 2883SOL    HW220529   2.776   3.279  15.093
 2884SOL     OW20530   2.629   1.706   6.389
 2884SOL    HW120531   2.679   1.784   6.367
 2884SOL    HW220532   2.667   1.637   6.334
 2885SOL     OW20533   2.093   3.591   2.883
 2885SOL    HW120534   2.064   3.682   2.884
 2885SOL    HW220535   2.017   3.542   2.852
 2886SOL     OW20536   1.339   4.206  18.949
 2886SOL    HW120537   1.400   4.154  18.896
 2886SOL    HW220538   1.296   4.142  19.006
 2887SOL     OW20539   4.388   3.562  15.233
 2887SOL    HW120540   4.321   3.584  15.297
 2887SOL    HW220541   4.436   3.489  15.273
 2888SOL     OW20542   3.559   2.309   1.016
 2888SOL    HW120543   3.491   2.369   0.986
 2888SOL    HW220544   3.525   2.273   1.098
 2889SOL     OW20545   3.230   2.425   3.246
 2889SOL    HW120546   3.313   2.444   3.202
 2889SOL    HW220547   3.168   2.487   3.208
 2890SOL     OW20548   2.192   2.485   5.831
 2890SOL    HW120549   2.221   2.419   5.895
 2890SOL    HW220550   2.107   2.453   5.800
 2891SOL     OW20551   4.115   1.543  14.076
 2891SOL    HW120552   4.154   1.627  14.050
 2891SOL    HW220553   4.189   1.482  14.076
 2892SOL     OW20554   1.952   1.927   0.281
 2892SOL    HW120555   2.034   1.975   0.269
 2892SOL    HW220556   1.904   1.978   0.346
 2893SOL     OW20557   0.864   4.272   7.393
 2893SOL    HW120558   0.850   4.356   7.437
 2893SOL    HW220559   0.953   4.277   7.359
 2894SOL     OW20560   1.448   4.190  16.296
 2894SOL    HW120561   1.430   4.223  16.208
 2894SOL    HW220562   1.462   4.096  16.284
 2895SOL     OW20563   2.062   4.286  18.350
 2895SOL    HW120564   2.004   4.228  18.301
 2895SOL    HW220565   2.021   4.372  18.343
 2896SOL     OW20566   0.061   1.647  18.386
 2896SOL    HW120567   0.119   1.723  18.387
 2896SOL    HW220568   0.080   1.601  18.468
 2897SOL     OW20569   2.643   0.466  14.635
 2897SOL    HW120570   2.710   0.507  14.690
 2897SOL    HW220571   2.686   0.452  14.551
 2898SOL     OW20572   1.371   4.160  20.747
 2898SOL    HW120573   1.382   4.237  20.691
 2898SOL    HW220574   1.432   4.095  20.711
 2899SOL     OW20575   1.480   2.516  14.192
 2899SOL    HW120576   1.565   2.557  14.177
 2899SOL    HW220577   1.438   2.572  14.258
 2900SOL     OW20578   3.359   4.741   0.441
 2900SOL    HW120579   3.366   0.028   0.384
 2900SOL    HW220580   3.373   4.776   0.529
 2901SOL     OW20581   4.421   0.188  17.028
 2901SOL    HW120582   4.368   0.158  17.102
 2901SOL    HW220583   4.409   0.120  16.961
 2902SOL     OW20584   4.381   4.601  16.533
 2902SOL    HW120585   4.386   4.573  16.442
 2902SOL    HW220586   4.317   4.542  16.573
 2903SOL     OW20587   0.851   1.836   0.145
 2903SOL    HW120588   0.771   1.826   0.197
 2903SOL    HW220589   0.837   1.916   0.094
 2904SOL     OW20590   4.183   3.892   0.843
 2904SOL    HW120591   4.095   3.877   0.877
 2904SOL    HW220592   4.224   3.806   0.843
 2905SOL     OW20593   3.169   2.968  13.650
 2905SOL    HW120594   3.097   2.949  13.590
 2905SOL    HW220595   3.178   3.063  13.648
 2906SOL     OW20596   1.788   2.035  16.414
 2906SOL    HW120597   1.810   2.101  16.480
 2906SOL    HW220598   1.739   2.083  16.347
 2907SOL     OW20599   2.702   3.244   0.172
 2907SOL    HW120600   2.608   3.260   0.161
 2907SOL    HW220601   2.710   3.149   0.176
 2908SOL     OW20602   3.239   1.709   1.180
 2908SOL    HW120603   3.287   1.668   1.252
 2908SOL    HW220604   3.300   1.774   1.145
 2909SOL     OW20605   0.171   0.821   2.192
 2909SOL    HW120606   0.190   0.871   2.271
 2909SOL    HW220607   0.091   0.773   2.213
 2910SOL     OW20608   0.251   2.819  15.233
 2910SOL    HW120609   0.225   2.893  15.288
 2910SOL    HW220610   0.212   2.837  15.148
 2911SOL     OW20611   1.692   1.050   1.893
 2911SOL    HW120612   1.785   1.038   1.873
 2911SOL    HW220613   1.649   1.047   1.808
 2912SOL     OW20614   1.479   0.843   2.365
 2912SOL    HW120615   1.462   0.871   2.275
 2912SOL    HW220616   1.528   0.916   2.404
 2913SOL     OW20617   4.313   1.430   2.190
 2913SOL    HW120618   4.291   1.478   2.270
 2913SOL    HW220619   4.309   1.338   2.216
 2914SOL     OW20620   0.952   0.516  18.564
 2914SOL    HW120621   1.038   0.557  18.569
 2914SOL    HW220622   0.969   0.428  18.531
 2915SOL     OW20623   3.654   1.201  21.077
 2915SOL    HW120624   3.637   1.294  21.092
 2915SOL    HW220625   3.749   1.192  21.084
 2916SOL     OW20626   1.748   3.400   4.004
 2916SOL    HW120627   1.769   3.453   4.081
 2916SOL    HW220628   1.816   3.421   3.940
 2917SOL     OW20629   1.873   0.144  15.795
 2917SOL    HW120630   1.954   0.185  15.765
 2917SOL    HW220631   1.804   0.185  15.742
 2918SOL     OW20632   3.993   2.425  19.862
 2918SOL    HW120633   4.046   2.371  19.920
 2918SOL    HW220634   3.915   2.446  19.913
 2919SOL     OW20635   3.104   4.174   0.586
 2919SOL    HW120636   3.198   4.190   0.587
 2919SOL    HW220637   3.065   4.254   0.621
 2920SOL     OW20638   1.708   4.385   1.454
 2920SOL    HW120639   1.757   4.314   1.494
 2920SOL    HW220640   1.760   4.411   1.378
 2921SOL     OW20641   3.275   0.295   2.358
 2921SOL    HW120642   3.218   0.354   2.308
 2921SOL    HW220643   3.339   0.353   2.399
 2922SOL     OW20644   2.344   1.357   0.001
 2922SOL    HW120645   2.437   1.344  21.239
 2922SOL    HW220646   2.342   1.385   0.092
 2923SOL     OW20647   2.197   3.837   8.992
 2923SOL    HW120648   2.265   3.852   9.058
 2923SOL    HW220649   2.168   3.925   8.968
 2924SOL     OW20650   3.843   4.745  19.929
 2924SOL    HW120651   3.863   0.007  20.007
 2924SOL    HW220652   3.805   0.018  19.868
 2925SOL     OW20653   2.022   4.285  17.911
 2925SOL    HW120654   1.986   4.209  17.865
 2925SOL    HW220655   1.954   4.310  17.974
 2926SOL     OW20656   2.846   1.205   0.444
 2926SOL    HW120657   2.885   1.266   0.507
 2926SOL    HW220658   2.868   1.118   0.478
 2927SOL     OW20659   3.559   1.899   0.262
 2927SOL    HW120660   3.650   1.870   0.261
 2927SOL    HW220661   3.554   1.966   0.194
 2928SOL     OW20662   0.314   4.302  19.607
 2928SOL    HW120663   0.262   4.275  19.531
 2928SOL    HW220664   0.379   4.363  19.571
 2929SOL     OW20665   3.662   1.644  17.516
 2929SOL    HW120666   3.597   1.584  17.481
 2929SOL    HW220667   3.746   1.600  17.502
 2930SOL     OW20668   4.013   0.523   4.939
 2930SOL    HW120669   4.023   0.609   4.898
 2930SOL    HW220670   4.018   0.461   4.866
 2931SOL     OW20671   2.691   2.681   5.068
 2931SOL    HW120672   2.759   2.625   5.106
 2931SOL    HW220673   2.714   2.769   5.098
 2932SOL     OW20674   0.051   4.468   3.045
 2932SOL    HW120675   4.771   4.464   3.110
 2932SOL    HW220676   0.132   4.472   3.096
 2933SOL     OW20677   3.852   2.097   2.279
 2933SOL    HW120678   3.784   2.039   2.315
 2933SOL    HW220679   3.924   2.091   2.342
 2934SOL     OW20680   1.305   2.723   2.093
 2934SOL    HW120681   1.335   2.744   2.181
 2934SOL    HW220682   1.333   2.632   2.079
 2935SOL     OW20683   3.737   2.950   7.101
 2935SOL    HW120684   3.665   2.893   7.129
 2935SOL    HW220685   3.739   2.941   7.006
 2936SOL     OW20686   4.338   1.820   8.288
 2936SOL    HW120687   4.351   1.903   8.242
 2936SOL    HW220688   4.372   1.754   8.228
 2937SOL     OW20689   2.518   3.600  15.913
 2937SOL    HW120690   2.547   3.596  16.004
 2937SOL    HW220691   2.425   3.621  15.919
 2938SOL     OW20692   4.141   3.417  13.900
 2938SOL    HW120693   4.216   3.446  13.952
 2938SOL    HW220694   4.140   3.322  13.909
 2939SOL     OW20695   2.570   2.045  16.555
 2939SOL    HW120696   2.596   2.036  16.463
 2939SOL    HW220697   2.528   1.962  16.577
 2940SOL     OW20698   3.508   1.925  17.005
 2940SOL    HW120699   3.531   1.970  16.924
 2940SOL    HW220700   3.419   1.955  17.024
 2941SOL     OW20701   3.179   1.396   1.296
 2941SOL    HW120702   3.210   1.397   1.387
 2941SOL    HW220703   3.101   1.340   1.297
 2942SOL     OW20704   1.211   4.523  15.594
 2942SOL    HW120705   1.147   4.519  15.665
 2942SOL    HW220706   1.248   4.435  15.590
 2943SOL     OW20707   3.962   1.900  17.732
 2943SOL    HW120708   3.891   1.876  17.792
 2943SOL    HW220709   3.917   1.921  17.650
 2944SOL     OW20710   1.997   4.451   9.319
 2944SOL    HW120711   2.088   4.420   9.320
 2944SOL    HW220712   2.001   4.537   9.278
 2945SOL     OW20713   3.771   1.285  15.674
 2945SOL    HW120714   3.772   1.284  15.770
 2945SOL    HW220715   3.789   1.194  15.649
 2946SOL     OW20716   3.709   1.042  17.079
 2946SOL    HW120717   3.797   1.044  17.041
 2946SOL    HW220718   3.710   0.968  17.139
 2947SOL     OW20719   1.720   4.375   9.854
 2947SOL    HW120720   1.789   4.438   9.833
 2947SOL    HW220721   1.655   4.426   9.903
 2948SOL     OW20722   0.937   0.123  12.089
 2948SOL    HW120723   0.891   0.191  12.040
 2948SOL    HW220724   1.030   0.144  12.079
 2949SOL     OW20725   1.784   3.329  13.815
 2949SOL    HW120726   1.865   3.371  13.843
 2949SOL    HW220727   1.810   3.273  13.742
 2950SOL     OW20728   2.038   2.425  16.644
 2950SOL    HW120729   2.132   2.439  16.658
 2950SOL    HW220730   1.996   2.468  16.719
 2951SOL     OW20731   2.867   4.018  20.279
 2951SOL    HW120732   2.876   3.928  20.311
 2951SOL    HW220733   2.773   4.034  20.279
 2952SOL     OW20734   3.328   1.171  18.050
 2952SOL    HW120735   3.272   1.245  18.028
 2952SOL    HW220736   3.320   1.112  17.975
 2953SOL     OW20737   4.362   2.232  16.720
 2953SOL    HW120738   4.294   2.164  16.718
 2953SOL    HW220739   4.330   2.296  16.784
 2954SOL     OW20740   3.376   3.754   3.349
 2954SOL    HW120741   3.323   3.757   3.270
 2954SOL    HW220742   3.333   3.814   3.410
 2955SOL     OW20743   2.405   4.733   1.058
 2955SOL    HW120744   2.326   4.736   1.112
 2955SOL    HW220745   2.475   4.762   1.117
 2956SOL     OW20746   1.219   3.299  15.862
 2956SOL    HW120747   1.266   3.302  15.778
 2956SOL    HW220748   1.223   3.207  15.888
 2957SOL     OW20749   1.219   1.336  12.897
 2957SOL    HW120750   1.161   1.344  12.972
 2957SOL    HW220751   1.201   1.249  12.861
 2958SOL     OW20752   1.882   2.839   3.091
 2958SOL    HW120753   1.866   2.915   3.147
 2958SOL    HW220754   1.799   2.825   3.045
 2959SOL     OW20755   2.754   3.074  17.850
 2959SOL    HW120756   2.723   3.064  17.760
 2959SOL    HW220757   2.849   3.067  17.844
 2960SOL     OW20758   4.579   0.744   5.101
 2960SOL    HW120759   4.506   0.721   5.044
 2960SOL    HW220760   4.539   0.792   5.173
 2961SOL     OW20761   0.935   0.685  11.455
 2961SOL    HW120762   0.943   0.590  11.454
 2961SOL    HW220763   0.905   0.706  11.543
 2962SOL     OW20764   2.592   2.664   0.936
 2962SOL    HW120765   2.562   2.616   0.858
 2962SOL    HW220766   2.555   2.615   1.010
 2963SOL     OW20767   3.112   3.847   1.354
 2963SOL    HW120768   3.117   3.928   1.406
 2963SOL    HW220769   3.186   3.852   1.294
 2964SOL     OW20770   2.469   3.556   1.388
 2964SOL    HW120771   2.534   3.507   1.337
 2964SOL    HW220772   2.518   3.590   1.463
 2965SOL     OW20773   3.001   1.080  20.007
 2965SOL    HW120774   2.962   1.006  20.054
 2965SOL    HW220775   2.936   1.150  20.013
 2966SOL     OW20776   1.402   2.097   1.356
 2966SOL    HW120777   1.445   2.165   1.408
 2966SOL    HW220778   1.468   2.028   1.348
 2967SOL     OW20779   4.755   0.999   2.733
 2967SOL    HW120780   4.742   0.941   2.658
 2967SOL    HW220781   4.729   1.085   2.701
 2968SOL     OW20782   2.673   1.489   7.578
 2968SOL    HW120783   2.652   1.548   7.650
 2968SOL    HW220784   2.591   1.443   7.561
 2969SOL     OW20785   4.761   4.751   0.043
 2969SOL    HW120786   4.756   4.658   0.064
 2969SOL    HW220787   4.720   4.759  21.214
 2970SOL     OW20788   4.408   1.629   2.007
 2970SOL    HW120789   4.322   1.645   1.968
 2970SOL    HW220790   4.397   1.550   2.060
 2971SOL     OW20791   3.138   4.605   4.520
 2971SOL    HW120792   3.171   4.675   4.576
 2971SOL    HW220793   3.198   4.532   4.534
 2972SOL     OW20794   1.361   4.696  13.469
 2972SOL    HW120795   1.323   4.676  13.554
 2972SOL    HW220796   1.453   4.672  13.477
 2973SOL     OW20797   1.222   1.373   6.112
 2973SOL    HW120798   1.289   1.424   6.066
 2973SOL    HW220799   1.141   1.394   6.066
 2974SOL     OW20800   1.072   2.521  21.150
 2974SOL    HW120801   0.998   2.465  21.126
 2974SOL    HW220802   1.032   2.592  21.200
 2975SOL     OW20803   1.214   2.925   1.916
 2975SOL    HW120804   1.267   2.870   1.974
 2975SOL    HW220805   1.277   2.981   1.871
 2976SOL     OW20806   0.185   2.596   8.235
 2976SOL    HW120807   0.223   2.681   8.257
 2976SOL    HW220808   0.171   2.553   8.319
 2977SOL     OW20809   1.428   3.331  15.195
 2977SOL    HW120810   1.422   3.322  15.100
 2977SOL    HW220811   1.348   3.290  15.228
 2978SOL     OW20812   2.222   2.195   1.541
 2978SOL    HW120813   2.191   2.128   1.480
 2978SOL    HW220814   2.189   2.168   1.626
 2979SOL     OW20815   3.516   4.344   7.866
 2979SOL    HW120816   3.488   4.299   7.786
 2979SOL    HW220817   3.437   4.349   7.920
 2980SOL     OW20818   3.349   2.609   5.005
 2980SOL    HW120819   3.281   2.551   5.040
 2980SOL    HW220820   3.318   2.697   5.025
 2981SOL     OW20821   3.396   1.659  21.228
 2981SOL    HW120822   3.300   1.658  21.224
 2981SOL    HW220823   3.421   1.742  21.186
 2982SOL     OW20824   0.090   2.892   6.364
 2982SOL    HW120825   0.084   2.820   6.301
 2982SOL    HW220826   0.146   2.957   6.322
 2983SOL     OW20827   3.607   3.122  18.921
 2983SOL    HW120828   3.664   3.114  18.998
 2983SOL    HW220829   3.588   3.216  18.916
 2984SOL     OW20830   0.611   0.333  19.625
 2984SOL    HW120831   0.625   0.394  19.553
 2984SOL    HW220832   0.680   0.353  19.688
 2985SOL     OW20833   1.195   2.530  20.467
 2985SOL    HW120834   1.104   2.535  20.438
 2985SOL    HW220835   1.205   2.440  20.499
 2986SOL     OW20836   2.036   2.451  15.473
 2986SOL    HW120837   1.976   2.432  15.545
 2986SOL    HW220838   2.033   2.546  15.464
 2987SOL     OW20839   0.071   1.396   5.921
 2987SOL    HW120840   0.155   1.351   5.927
 2987SOL    HW220841   0.011   1.342   5.972
 2988SOL     OW20842   0.253   0.977   1.406
 2988SOL    HW120843   0.256   0.882   1.397
 2988SOL    HW220844   0.343   1.003   1.425
 2989SOL     OW20845   3.003   2.405  13.892
 2989SOL    HW120846   3.056   2.460  13.834
 2989SOL    HW220847   3.018   2.316  13.861
 2990SOL     OW20848   0.083   2.872  15.998
 2990SOL    HW120849   0.136   2.794  15.979
 2990SOL    HW220850   0.109   2.897  16.087
 2991SOL     OW20851   0.745   1.809  15.622
 2991SOL    HW120852   0.764   1.793  15.714
 2991SOL    HW220853   0.655   1.842  15.622
 2992SOL     OW20854   2.121   1.674   3.010
 2992SOL    HW120855   2.116   1.639   2.921
 2992SOL    HW220856   2.112   1.769   3.000
 2993SOL     OW20857   3.615   3.438   4.906
 2993SOL    HW120858   3.693   3.468   4.860
 2993SOL    HW220859   3.566   3.518   4.926
 2994SOL     OW20860   1.017   0.513  15.237
 2994SOL    HW120861   0.934   0.476  15.267
 2994SOL    HW220862   1.078   0.440  15.239
 2995SOL     OW20863   3.837   2.938   5.524
 2995SOL    HW120864   3.862   2.928   5.432
 2995SOL    HW220865   3.761   2.996   5.521
 2996SOL     OW20866   2.776   2.974  19.225
 2996SOL    HW120867   2.820   2.990  19.308
 2996SOL    HW220868   2.710   3.044  19.219
 2997SOL     OW20869   0.410   0.429   5.174
 2997SOL    HW120870   0.434   0.430   5.081
 2997SOL    HW220871   0.411   0.521   5.201
 2998SOL     OW20872   1.514   2.427  21.233
 2998SOL    HW120873   1.599   2.382  21.233
 2998SOL    HW220874   1.515   2.478   0.057
 2999SOL     OW20875   3.172   0.819  19.401
 2999SOL    HW120876   3.212   0.898  19.366
 2999SOL    HW220877   3.189   0.823  19.495
 3000SOL     OW20878   3.164   2.258   0.940
 3000SOL    HW120879   3.072   2.272   0.960
 3000SOL    HW220880   3.169   2.268   0.845
 3001SOL     OW20881   4.536   2.079  21.197
 3001SOL    HW120882   4.468   2.105   0.002
 3001SOL    HW220883   4.603   2.037  21.251
 3002SOL     OW20884   2.483   3.104   8.122
 3002SOL    HW120885   2.572   3.117   8.089
 3002SOL    HW220886   2.440   3.189   8.111
 3003SOL     OW20887   4.549   3.358   4.297
 3003SOL    HW120888   4.555   3.418   4.371
 3003SOL    HW220889   4.636   3.319   4.291
 3004SOL     OW20890   2.891   0.249  17.724
 3004SOL    HW120891   2.809   0.242  17.772
 3004SOL    HW220892   2.949   0.299  17.782
 3005SOL     OW20893   2.735   3.482  17.971
 3005SOL    HW120894   2.746   3.462  17.878
 3005SOL    HW220895   2.823   3.471  18.008
 3006SOL     OW20896   1.900   1.213  18.877
 3006SOL    HW120897   1.929   1.301  18.853
 3006SOL    HW220898   1.852   1.182  18.800
 3007SOL     OW20899   0.275   3.394   3.240
 3007SOL    HW120900   0.349   3.367   3.186
 3007SOL    HW220901   0.286   3.344   3.321
 3008SOL     OW20902   2.185   2.427   5.217
 3008SOL    HW120903   2.229   2.509   5.196
 3008SOL    HW220904   2.101   2.454   5.255
 3009SOL     OW20905   2.216   0.481  17.601
 3009SOL    HW120906   2.122   0.476  17.617
 3009SOL    HW220907   2.247   0.553  17.657
 3010SOL     OW20908   3.479   2.347  20.816
 3010SOL    HW120909   3.454   2.379  20.729
 3010SOL    HW220910   3.521   2.262  20.800
 3011SOL     OW20911   3.937   4.183   1.350
 3011SOL    HW120912   3.897   4.246   1.290
 3011SOL    HW220913   3.905   4.098   1.320
 3012SOL     OW20914   4.327   0.624  20.373
 3012SOL    HW120915   4.291   0.538  20.352
 3012SOL    HW220916   4.351   0.618  20.466
 3013SOL     OW20917   3.596   3.897   0.741
 3013SOL    HW120918   3.651   3.969   0.711
 3013SOL    HW220919   3.637   3.868   0.822
 3014SOL     OW20920   0.105   3.117  20.021
 3014SOL    HW120921   0.151   3.068  20.089
 3014SOL    HW220922   0.074   3.050  19.960
 3015SOL     OW20923   3.029   2.740   1.379
 3015SOL    HW120924   3.064   2.829   1.376
 3015SOL    HW220925   2.946   2.745   1.331
 3016SOL     OW20926   2.922   3.975  14.796
 3016SOL    HW120927   2.991   4.039  14.811
 3016SOL    HW220928   2.850   4.004  14.853
 3017SOL     OW20929   2.276   2.664  19.507
 3017SOL    HW120930   2.210   2.656  19.576
 3017SOL    HW220931   2.228   2.701  19.433
 3018SOL     OW20932   0.782   4.691  16.970
 3018SOL    HW120933   0.690   4.710  16.990
 3018SOL    HW220934   0.823   4.676  17.055
 3019SOL     OW20935   2.285   3.153  19.369
 3019SOL    HW120936   2.293   3.099  19.447
 3019SOL    HW220937   2.279   3.243  19.403
 3020SOL     OW20938   4.644   0.498  16.514
 3020SOL    HW120939   4.562   0.531  16.551
 3020SOL    HW220940   4.637   0.403  16.522
 3021SOL     OW20941   2.338   2.900  18.597
 3021SOL    HW120942   2.305   2.814  18.622
 3021SOL    HW220943   2.316   2.908  18.504
 3022SOL     OW20944   0.337   1.196   2.212
 3022SOL    HW120945   0.285   1.147   2.148
 3022SOL    HW220946   0.295   1.178   2.296
 3023SOL     OW20947   2.990   3.966  16.240
 3023SOL    HW120948   3.027   3.889  16.197
 3023SOL    HW220949   2.905   3.937  16.274
 3024SOL     OW20950   2.212   3.635  15.818
 3024SOL    HW120951   2.224   3.639  15.913
 3024SOL    HW220952   2.117   3.641  15.806
 3025SOL     OW20953   4.659   4.201  16.884
 3025SOL    HW120954   4.686   4.118  16.844
 3025SOL    HW220955   4.726   4.264  16.858
 3026SOL     OW20956   3.229   0.894   5.317
 3026SOL    HW120957   3.252   0.875   5.226
 3026SOL    HW220958   3.244   0.988   5.326
 3027SOL     OW20959   0.272   3.852   4.814
 3027SOL    HW120960   0.263   3.914   4.887
 3027SOL    HW220961   0.302   3.771   4.855
 3028SOL     OW20962   0.933   0.760  19.153
 3028SOL    HW120963   0.888   0.843  19.168
 3028SOL    HW220964   1.022   0.774  19.186
 3029SOL     OW20965   1.440   4.109  19.607
 3029SOL    HW120966   1.352   4.112  19.646
 3029SOL    HW220967   1.498   4.138  19.677
 3030SOL     OW20968   4.463   4.437  17.000
 3030SOL    HW120969   4.540   4.403  17.047
 3030SOL    HW220970   4.390   4.387  17.035
 3031SOL     OW20971   4.068   2.051   0.213
 3031SOL    HW120972   4.039   2.062   0.304
 3031SOL    HW220973   3.990   2.020   0.167
 3032SOL     OW20974   2.802   3.693  15.841
 3032SOL    HW120975   2.832   3.648  15.762
 3032SOL    HW220976   2.707   3.681  15.840
 3033SOL     OW20977   1.477   3.527  20.605
 3033SOL    HW120978   1.519   3.499  20.524
 3033SOL    HW220979   1.462   3.621  20.593
 3034SOL     OW20980   2.513   1.588  16.221
 3034SOL    HW120981   2.514   1.578  16.126
 3034SOL    HW220982   2.441   1.532  16.250
 3035SOL     OW20983   3.857   0.206  20.167
 3035SOL    HW120984   3.846   0.293  20.205
 3035SOL    HW220985   3.769   0.181  20.139
 3036SOL     OW20986   3.551   2.167  16.470
 3036SOL    HW120987   3.508   2.138  16.389
 3036SOL    HW220988   3.511   2.251  16.490
 3037SOL     OW20989   2.371   1.030  20.363
 3037SOL    HW120990   2.294   0.979  20.388
 3037SOL    HW220991   2.344   1.077  20.284
 3038SOL     OW20992   0.334   2.340   1.213
 3038SOL    HW120993   0.402   2.354   1.279
 3038SOL    HW220994   0.252   2.337   1.263
 3039SOL     OW20995   1.059   4.349  18.864
 3039SOL    HW120996   1.141   4.302  18.879
 3039SOL    HW220997   1.050   4.351  18.769
 3040SOL     OW20998   0.962   4.590  16.423
 3040SOL    HW120999   1.043   4.540  16.415
 3040SOL    HW221000   0.919   4.554  16.500
 3041SOL     OW21001   3.756   2.374  19.345
 3041SOL    HW121002   3.743   2.280  19.335
 3041SOL    HW221003   3.743   2.390  19.439
 3042SOL     OW21004   1.908   1.081   7.702
 3042SOL    HW121005   1.859   1.145   7.754
 3042SOL    HW221006   1.903   1.115   7.613
 3043SOL     OW21007   2.347   2.427   4.146
 3043SOL    HW121008   2.390   2.411   4.230
 3043SOL    HW221009   2.274   2.366   4.144
 3044SOL     OW21010   0.622   1.367   2.632
 3044SOL    HW121011   0.610   1.297   2.697
 3044SOL    HW221012   0.717   1.372   2.620
 3045SOL     OW21013   2.049   0.912   4.412
 3045SOL    HW121014   2.082   0.927   4.500
 3045SOL    HW221015   2.127   0.891   4.360
 3046SOL     OW21016   3.615   3.514   4.107
 3046SOL    HW121017   3.600   3.470   4.191
 3046SOL    HW221018   3.553   3.473   4.047
 3047SOL     OW21019   2.075   1.120   9.696
 3047SOL    HW121020   2.147   1.086   9.642
 3047SOL    HW221021   2.029   1.181   9.638
 3048SOL     OW21022   2.575   2.231   3.248
 3048SOL    HW121023   2.512   2.161   3.230
 3048SOL    HW221024   2.571   2.287   3.171
 3049SOL     OW21025   0.449   2.453   3.467
 3049SOL    HW121026   0.360   2.419   3.460
 3049SOL    HW221027   0.481   2.418   3.550
 3050SOL     OW21028   1.767   3.125   2.034
 3050SOL    HW121029   1.803   3.214   2.028
 3050SOL    HW221030   1.772   3.104   2.127
 3051SOL     OW21031   4.681   0.283   7.236
 3051SOL    HW121032   4.686   0.378   7.225
 3051SOL    HW221033   4.746   0.263   7.304
 3052SOL     OW21034   1.233   0.442  20.669
 3052SOL    HW121035   1.236   0.476  20.579
 3052SOL    HW221036   1.216   0.348  20.659
 3053SOL     OW21037   2.032   4.742  14.461
 3053SOL    HW121038   2.122   4.734  14.430
 3053SOL    HW221039   2.033   4.706  14.550
 3054SOL     OW21040   0.125   4.570   6.951
 3054SOL    HW121041   0.165   4.656   6.939
 3054SOL    HW221042   0.066   4.560   6.877
 3055SOL     OW21043   0.933   4.301   3.631
 3055SOL    HW121044   0.886   4.342   3.558
 3055SOL    HW221045   0.924   4.364   3.703
 3056SOL     OW21046   2.936   0.871   6.352
 3056SOL    HW121047   2.988   0.941   6.392
 3056SOL    HW221048   3.001   0.807   6.323
 3057SOL     OW21049   0.880   1.459   4.467
 3057SOL    HW121050   0.931   1.468   4.548
 3057SOL    HW221051   0.825   1.537   4.464
 3058SOL     OW21052   3.001   0.480   2.723
 3058SOL    HW121053   2.971   0.445   2.807
 3058SOL    HW221054   2.974   0.572   2.725
 3059SOL     OW21055   3.649   3.676   9.118
 3059SOL    HW121056   3.685   3.765   9.124
 3059SOL    HW221057   3.715   3.627   9.069
 3060SOL     OW21058   1.170   3.401   5.966
 3060SOL    HW121059   1.133   3.363   5.887
 3060SOL    HW221060   1.260   3.424   5.942
 3061SOL     OW21061   3.820   0.732   1.337
 3061SOL    HW121062   3.854   0.821   1.338
 3061SOL    HW221063   3.762   0.727   1.413
 3062SOL     OW21064   2.333   2.989  17.490
 3062SOL    HW121065   2.317   2.954  17.578
 3062SOL    HW221066   2.301   3.079  17.494
 3063SOL     OW21067   0.221   0.896  17.654
 3063SOL    HW121068   0.165   0.819  17.642
 3063SOL    HW221069   0.291   0.885  17.590
 3064SOL     OW21070   0.227   2.759  18.660
 3064SOL    HW121071   0.314   2.719  18.655
 3064SOL    HW221072   0.216   2.803  18.576
 3065SOL     OW21073   2.028   1.999   5.496
 3065SOL    HW121074   2.090   2.031   5.430
 3065SOL    HW221075   1.943   2.001   5.452
 3066SOL     OW21076   2.988   3.097  17.468
 3066SOL    HW121077   3.061   3.066  17.521
 3066SOL    HW221078   2.911   3.059  17.510
 3067SOL     OW21079   2.338   4.384  20.027
 3067SOL    HW121080   2.420   4.344  20.057
 3067SOL    HW221081   2.300   4.423  20.106
 3068SOL     OW21082   3.445   2.441  16.586
 3068SOL    HW121083   3.507   2.497  16.633
 3068SOL    HW221084   3.359   2.469  16.618
 3069SOL     OW21085   4.023   1.637   5.219
 3069SOL    HW121086   4.054   1.620   5.130
 3069SOL    HW221087   3.950   1.577   5.231
 3070SOL     OW21088   3.892   2.750  17.249
 3070SOL    HW121089   3.867   2.708  17.331
 3070SOL    HW221090   3.905   2.842  17.272
 3071SOL     OW21091   2.685   3.002  15.294
 3071SOL    HW121092   2.723   3.084  15.325
 3071SOL    HW221093   2.729   2.934  15.345
 3072SOL     OW21094   1.143   4.769  12.484
 3072SOL    HW121095   1.127   4.753  12.391
 3072SOL    HW221096   1.160   4.682  12.521
 3073SOL     OW21097   4.043   2.917   3.798
 3073SOL    HW121098   3.955   2.919   3.761
 3073SOL    HW221099   4.039   2.849   3.865
 3074SOL     OW21100   4.229   0.530  20.030
 3074SOL    HW121101   4.243   0.559  19.940
 3074SOL    HW221102   4.252   0.437  20.029
 3075SOL     OW21103   4.285   3.112  20.689
 3075SOL    HW121104   4.235   3.108  20.770
 3075SOL    HW221105   4.251   3.041  20.635
 3076SOL     OW21106   0.803   4.687   3.464
 3076SOL    HW121107   0.871   4.627   3.494
 3076SOL    HW221108   0.834   4.773   3.492
 3077SOL     OW21109   2.470   1.268  17.638
 3077SOL    HW121110   2.557   1.290  17.605
 3077SOL    HW221111   2.415   1.263  17.560
 3078SOL     OW21112   2.255   2.500   2.559
 3078SOL    HW121113   2.272   2.544   2.642
 3078SOL    HW221114   2.162   2.476   2.563
 3079SOL     OW21115   0.547   2.777  18.431
 3079SOL    HW121116   0.585   2.742  18.350
 3079SOL    HW221117   0.601   2.853  18.452
 3080SOL     OW21118   2.064   0.328  15.729
 3080SOL    HW121119   2.135   0.344  15.667
 3080SOL    HW221120   2.076   0.395  15.796
 3081SOL     OW21121   1.560   2.346   4.337
 3081SOL    HW121122   1.570   2.404   4.261
 3081SOL    HW221123   1.599   2.263   4.309
 3082SOL     OW21124   2.442   1.426   5.803
 3082SOL    HW121125   2.513   1.457   5.859
 3082SOL    HW221126   2.402   1.506   5.768
 3083SOL     OW21127   0.401   3.369  18.409
 3083SOL    HW121128   0.471   3.425  18.442
 3083SOL    HW221129   0.342   3.429  18.363
 3084SOL     OW21130   0.918   3.971  19.593
 3084SOL    HW121131   0.980   3.899  19.596
 3084SOL    HW221132   0.897   3.988  19.685
 3085SOL     OW21133   2.807   2.703  14.685
 3085SOL    HW121134   2.786   2.775  14.625
 3085SOL    HW221135   2.753   2.630  14.654
 3086SOL     OW21136   0.947   3.371  19.398
 3086SOL    HW121137   0.883   3.300  19.401
 3086SOL    HW221138   0.924   3.427  19.472
 3087SOL     OW21139   3.836   1.011   6.690
 3087SOL    HW121140   3.797   0.943   6.745
 3087SOL    HW221141   3.876   0.963   6.617
 3088SOL     OW21142   4.492   3.130  19.291
 3088SOL    HW121143   4.484   3.160  19.201
 3088SOL    HW221144   4.427   3.181  19.340
 3089SOL     OW21145   2.211   0.743  13.829
 3089SOL    HW121146   2.244   0.792  13.754
 3089SOL    HW221147   2.198   0.654  13.796
 3090SOL     OW21148   2.139   1.035  16.418
 3090SOL    HW121149   2.208   1.008  16.357
 3090SOL    HW221150   2.179   1.103  16.471
 3091SOL     OW21151   2.077   0.790  21.113
 3091SOL    HW121152   2.026   0.731  21.169
 3091SOL    HW221153   2.042   0.877  21.132
 3092SOL     OW21154   0.591   0.125   2.299
 3092SOL    HW121155   0.566   0.053   2.241
 3092SOL    HW221156   0.584   0.203   2.244
 3093SOL     OW21157   4.288   2.922   2.661
 3093SOL    HW121158   4.285   2.947   2.569
 3093SOL    HW221159   4.381   2.910   2.680
 3094SOL     OW21160   0.313   2.665   7.654
 3094SOL    HW121161   0.400   2.673   7.694
 3094SOL    HW221162   0.301   2.571   7.641
 3095SOL     OW21163   4.524   3.227  15.040
 3095SOL    HW121164   4.598   3.287  15.051
 3095SOL    HW221165   4.494   3.209  15.129
 3096SOL     OW21166   0.699   2.036  16.224
 3096SOL    HW121167   0.672   2.126  16.243
 3096SOL    HW221168   0.793   2.034  16.244
 3097SOL     OW21169   3.388   3.245  17.759
 3097SOL    HW121170   3.352   3.272  17.675
 3097SOL    HW221171   3.408   3.152  17.748
 3098SOL     OW21172   0.456   0.285  16.768
 3098SOL    HW121173   0.490   0.287  16.858
 3098SOL    HW221174   0.500   0.358  16.724
 3099SOL     OW21175   0.863   1.781   5.442
 3099SOL    HW121176   0.823   1.697   5.462
 3099SOL    HW221177   0.794   1.830   5.396
 3100SOL     OW21178   1.898   3.962  21.108
 3100SOL    HW121179   1.950   4.006  21.176
 3100SOL    HW221180   1.827   3.919  21.156
 3101SOL     OW21181   0.912   1.805   3.176
 3101SOL    HW121182   0.896   1.894   3.207
 3101SOL    HW221183   0.868   1.801   3.091
 3102SOL     OW21184   2.441   1.721   5.938
 3102SOL    HW121185   2.516   1.737   5.995
 3102SOL    HW221186   2.424   1.806   5.898
 3103SOL     OW21187   1.381   1.380  19.612
 3103SOL    HW121188   1.363   1.425  19.695
 3103SOL    HW221189   1.351   1.290  19.627
 3104SOL     OW21190   4.509   2.901   1.807
 3104SOL    HW121191   4.555   2.871   1.886
 3104SOL    HW221192   4.419   2.871   1.819
 3105SOL     OW21193   0.605   1.098  18.992
 3105SOL    HW121194   0.678   1.150  19.026
 3105SOL    HW221195   0.646   1.033  18.935
 3106SOL     OW21196   0.583   2.187   1.702
 3106SOL    HW121197   0.591   2.279   1.728
 3106SOL    HW221198   0.539   2.145   1.776
 3107SOL     OW21199   1.787   4.446   3.832
 3107SOL    HW121200   1.828   4.530   3.809
 3107SOL    HW221201   1.860   4.384   3.834
 3108SOL     OW21202   2.552   2.134   5.845
 3108SOL    HW121203   2.513   2.053   5.879
 3108SOL    HW221204   2.493   2.162   5.776
 3109SOL     OW21205   0.509   1.444  15.832
 3109SOL    HW121206   0.549   1.370  15.879
 3109SOL    HW221207   0.415   1.435  15.848
 3110SOL     OW21208   3.629   1.873   2.375
 3110SOL    HW121209   3.660   1.783   2.385
 3110SOL    HW221210   3.569   1.870   2.300
 3111SOL     OW21211   0.630   0.610  19.841
 3111SOL    HW121212   0.552   0.556  19.829
 3111SOL    HW221213   0.612   0.660  19.921
 3112SOL     OW21214   2.714   2.784  11.388
 3112SOL    HW121215   2.630   2.812  11.426
 3112SOL    HW221216   2.769   2.765  11.464
 3113SOL     OW21217   4.529   3.200   0.992
 3113SOL    HW121218   4.498   3.282   0.955
 3113SOL    HW221219   4.487   3.195   1.078
 3114SOL     OW21220   0.956   2.618   4.596
 3114SOL    HW121221   0.924   2.707   4.611
 3114SOL    HW221222   1.051   2.628   4.591
 3115SOL     OW21223   2.811   4.402   1.011
 3115SOL    HW121224   2.781   4.416   0.921
 3115SOL    HW221225   2.873   4.329   1.004
 3116SOL     OW21226   3.908   3.303  17.151
 3116SOL    HW121227   3.876   3.371  17.211
 3116SOL    HW221228   3.892   3.338  17.064
 3117SOL     OW21229   2.006   3.981  18.678
 3117SOL    HW121230   1.927   4.014  18.635
 3117SOL    HW221231   1.984   3.981  18.771
 3118SOL     OW21232   3.998   4.055   3.843
 3118SOL    HW121233   3.969   4.044   3.753
 3118SOL    HW221234   4.011   4.149   3.853
 3119SOL     OW21235   1.295   0.073  17.126
 3119SOL    HW121236   1.305   0.052  17.033
 3119SOL    HW221237   1.330   4.786  17.172
 3120SOL     OW21238   4.227   2.471   2.707
 3120SOL    HW121239   4.228   2.467   2.611
 3120SOL    HW221240   4.211   2.563   2.727
 3121SOL     OW21241   1.065   3.128   8.035
 3121SOL    HW121242   1.118   3.058   7.998
 3121SOL    HW221243   1.105   3.146   8.120
 3122SOL     OW21244   1.732   4.552   3.396
 3122SOL    HW121245   1.781   4.626   3.361
 3122SOL    HW221246   1.651   4.550   3.345
 3123SOL     OW21247   2.140   2.778   3.014
 3123SOL    HW121248   2.048   2.796   3.033
 3123SOL    HW221249   2.169   2.721   3.085
 3124SOL     OW21250   3.308   3.840   0.273
 3124SOL    HW121251   3.339   3.861   0.185
 3124SOL    HW221252   3.306   3.924   0.319
 3125SOL     OW21253   1.501   1.685  20.433
 3125SOL    HW121254   1.477   1.655  20.346
 3125SOL    HW221255   1.425   1.664  20.488
 3126SOL     OW21256   1.680   3.267   6.077
 3126SOL    HW121257   1.722   3.184   6.098
 3126SOL    HW221258   1.673   3.312   6.161
 3127SOL     OW21259   2.866   1.880   0.259
 3127SOL    HW121260   2.922   1.957   0.255
 3127SOL    HW221261   2.895   1.825   0.186
 3128SOL     OW21262   1.812   3.094  16.354
 3128SOL    HW121263   1.886   3.153  16.337
 3128SOL    HW221264   1.747   3.118  16.288
 3129SOL     OW21265   0.104   1.001   5.373
 3129SOL    HW121266   0.152   1.026   5.295
 3129SOL    HW221267   0.121   1.071   5.436
 3130SOL     OW21268   3.530   4.320   6.668
 3130SOL    HW121269   3.497   4.342   6.581
 3130SOL    HW221270   3.451   4.302   6.719
 3131SOL     OW21271   4.102   3.527  20.295
 3131SOL    HW121272   4.080   3.480  20.215
 3131SOL    HW221273   4.059   3.612  20.286
 3132SOL     OW21274   3.219   2.416  13.677
 3132SOL    HW121275   3.303   2.389  13.714
 3132SOL    HW221276   3.179   2.334  13.648
 3133SOL     OW21277   4.320   1.013   6.426
 3133SOL    HW121278   4.348   0.952   6.494
 3133SOL    HW221279   4.351   1.098   6.456
 3134SOL     OW21280   4.724   1.745  17.144
 3134SOL    HW121281   4.719   1.831  17.186
 3134SOL    HW221282   4.634   1.724  17.121
 3135SOL     OW21283   4.326   3.571   2.154
 3135SOL    HW121284   4.291   3.609   2.235
 3135SOL    HW221285   4.412   3.537   2.179
 3136SOL     OW21286   1.703   1.493  12.805
 3136SOL    HW121287   1.635   1.430  12.829
 3136SOL    HW221288   1.682   1.517  12.715
 3137SOL     OW21289   4.425   4.406   6.753
 3137SOL    HW121290   4.459   4.457   6.679
 3137SOL    HW221291   4.414   4.317   6.719
 3138SOL     OW21292   4.118   3.537   3.830
 3138SOL    HW121293   4.114   3.623   3.872
 3138SOL    HW221294   4.028   3.518   3.805
 3139SOL     OW21295   2.096   1.029  18.945
 3139SOL    HW121296   2.033   1.093  18.912
 3139SOL    HW221297   2.094   1.040  19.040
 3140SOL     OW21298   0.225   0.200  18.952
 3140SOL    HW121299   0.141   0.210  18.998
 3140SOL    HW221300   0.236   0.282  18.905
 3141SOL     OW21301   2.277   0.006  17.438
 3141SOL    HW121302   2.209   0.035  17.499
 3141SOL    HW221303   2.307   0.086  17.396
 3142SOL     OW21304   1.804   0.059  17.755
 3142SOL    HW121305   1.897   0.066  17.734
 3142SOL    HW221306   1.799   0.086  17.847
 3143SOL     OW21307   0.921   4.349   5.100
 3143SOL    HW121308   0.845   4.315   5.054
 3143SOL    HW221309   0.966   4.403   5.035
 3144SOL     OW21310   0.150   2.118  20.933
 3144SOL    HW121311   0.055   2.129  20.929
 3144SOL    HW221312   0.165   2.031  20.896
 3145SOL     OW21313   1.879   0.234   3.175
 3145SOL    HW121314   1.897   0.224   3.081
 3145SOL    HW221315   1.856   0.326   3.185
 3146SOL     OW21316   0.854   0.755  19.785
 3146SOL    HW121317   0.778   0.717  19.829
 3146SOL    HW221318   0.844   0.849  19.797
 3147SOL     OW21319   3.284   2.349  21.009
 3147SOL    HW121320   3.356   2.322  20.951
 3147SOL    HW221321   3.274   2.443  20.992
 3148SOL     OW21322   0.548   0.189  15.838
 3148SOL    HW121323   0.522   0.119  15.778
 3148SOL    HW221324   0.539   0.151  15.925
 3149SOL     OW21325   3.205   4.227  12.935
 3149SOL    HW121326   3.233   4.144  12.895
 3149SOL    HW221327   3.181   4.204  13.025
 3150SOL     OW21328   4.124   2.857  14.076
 3150SOL    HW121329   4.218   2.874  14.088
 3150SOL    HW221330   4.113   2.764  14.097
 3151SOL     OW21331   4.718   0.294   6.947
 3151SOL    HW121332   4.732   0.322   7.038
 3151SOL    HW221333   4.630   0.325   6.926
 3152SOL     OW21334   1.793   3.339   0.038
 3152SOL    HW121335   1.720   3.286   0.069
 3152SOL    HW221336   1.810   3.307  21.206
 3153SOL     OW21337   1.748   4.452  21.070
 3153SOL    HW121338   1.660   4.420  21.087
 3153SOL    HW221339   1.740   4.547  21.073
 3154SOL     OW21340   3.599   0.889  18.281
 3154SOL    HW121341   3.595   0.981  18.308
 3154SOL    HW221342   3.509   0.857  18.289
 3155SOL     OW21343   0.180   1.547  17.195
 3155SOL    HW121344   0.093   1.532  17.232
 3155SOL    HW221345   0.163   1.576  17.105
 3156SOL     OW21346   1.354   4.060  18.466
 3156SOL    HW121347   1.345   4.091  18.376
 3156SOL    HW221348   1.445   4.078  18.488
 3157SOL     OW21349   1.167   3.772   0.636
 3157SOL    HW121350   1.104   3.762   0.565
 3157SOL    HW221351   1.162   3.690   0.684
 3158SOL     OW21352   2.169   3.970  13.921
 3158SOL    HW121353   2.113   4.041  13.952
 3158SOL    HW221354   2.252   4.013  13.899
 3159SOL     OW21355   0.979   3.445   3.151
 3159SOL    HW121356   1.022   3.391   3.085
 3159SOL    HW221357   0.886   3.442   3.129
 3160SOL     OW21358   3.915   2.656   2.112
 3160SOL    HW121359   4.001   2.625   2.139
 3160SOL    HW221360   3.854   2.612   2.172
 3161SOL     OW21361   2.208   3.298  16.729
 3161SOL    HW121362   2.259   3.227  16.689
 3161SOL    HW221363   2.204   3.276  16.822
 3162SOL     OW21364   4.154   4.587   6.345
 3162SOL    HW121365   4.094   4.544   6.407
 3162SOL    HW221366   4.185   4.665   6.391
 3163SOL     OW21367   3.470   2.184   1.233
 3163SOL    HW121368   3.398   2.242   1.256
 3163SOL    HW221369   3.437   2.096   1.252
 3164SOL     OW21370   0.790   1.971  19.774
 3164SOL    HW121371   0.787   1.901  19.709
 3164SOL    HW221372   0.765   1.929  19.856
 3165SOL     OW21373   3.236   2.504   1.862
 3165SOL    HW121374   3.316   2.454   1.847
 3165SOL    HW221375   3.197   2.514   1.775
 3166SOL     OW21376   4.638   1.149   1.284
 3166SOL    HW121377   4.550   1.187   1.280
 3166SOL    HW221378   4.693   1.211   1.236
 3167SOL     OW21379   2.821   0.634  18.627
 3167SOL    HW121380   2.778   0.718  18.645
 3167SOL    HW221381   2.765   0.569  18.669
 3168SOL     OW21382   2.131   2.081  15.739
 3168SOL    HW121383   2.146   2.081  15.645
 3168SOL    HW221384   2.173   2.001  15.770
 3169SOL     OW21385   0.760   3.784   6.823
 3169SOL    HW121386   0.806   3.700   6.829
 3169SOL    HW221387   0.803   3.840   6.888
 3170SOL     OW21388   3.781   0.287   3.809
 3170SOL    HW121389   3.858   0.292   3.866
 3170SOL    HW221390   3.803   0.220   3.745
 3171SOL     OW21391   0.527   3.409  20.121
 3171SOL    HW121392   0.544   3.386  20.212
 3171SOL    HW221393   0.432   3.406  20.113
 3172SOL     OW21394   0.085   1.103  15.595
 3172SOL    HW121395   0.020   1.066  15.655
 3172SOL    HW221396   0.160   1.123  15.650
 3173SOL     OW21397   1.808   2.757  14.358
 3173SOL    HW121398   1.883   2.699  14.343
 3173SOL    HW221399   1.752   2.745  14.281
 3174SOL     OW21400   3.555   2.980   2.332
 3174SOL    HW121401   3.608   3.041   2.384
 3174SOL    HW221402   3.618   2.935   2.276
 3175SOL     OW21403   0.541   0.939   3.914
 3175SOL    HW121404   0.632   0.952   3.889
 3175SOL    HW221405   0.525   1.004   3.983
 3176SOL     OW21406   2.875   3.049   3.966
 3176SOL    HW121407   2.833   2.970   3.933
 3176SOL    HW221408   2.817   3.120   3.940
 3177SOL     OW21409   2.673   3.477  16.869
 3177SOL    HW121410   2.605   3.524  16.820
 3177SOL    HW221411   2.736   3.545  16.893
 3178SOL     OW21412   3.095   3.912  17.909
 3178SOL    HW121413   3.019   3.857  17.890
 3178SOL    HW221414   3.147   3.861  17.972
 3179SOL     OW21415   0.192   4.477  18.699
 3179SOL    HW121416   0.141   4.409  18.743
 3179SOL    HW221417   0.268   4.491  18.756
 3180SOL     OW21418   1.148   1.231  16.291
 3180SOL    HW121419   1.225   1.197  16.246
 3180SOL    HW221420   1.154   1.326  16.279
 3181SOL     OW21421   0.429   2.659   2.423
 3181SOL    HW121422   0.522   2.657   2.400
 3181SOL    HW221423   0.424   2.609   2.505
 3182SOL     OW21424   2.456   4.512  16.992
 3182SOL    HW121425   2.375   4.546  16.953
 3182SOL    HW221426   2.496   4.460  16.922
 3183SOL     OW21427   4.536   4.215   0.595
 3183SOL    HW121428   4.605   4.148   0.600
 3183SOL    HW221429   4.552   4.271   0.671
 3184SOL     OW21430   4.343   0.493  18.616
 3184SOL    HW121431   4.263   0.481  18.565
 3184SOL    HW221432   4.401   0.544  18.559
 3185SOL     OW21433   2.719   3.321  16.646
 3185SOL    HW121434   2.789   3.386  16.640
 3185SOL    HW221435   2.760   3.239  16.618
 3186SOL     OW21436   3.173   3.584  17.281
 3186SOL    HW121437   3.117   3.661  17.274
 3186SOL    HW221438   3.118   3.518  17.323
 3187SOL     OW21439   1.151   4.408  19.201
 3187SOL    HW121440   1.170   4.496  19.234
 3187SOL    HW221441   1.230   4.383  19.154
 3188SOL     OW21442   0.160   4.214  20.388
 3188SOL    HW121443   0.244   4.189  20.426
 3188SOL    HW221444   0.177   4.220  20.294
 3189SOL     OW21445   4.594   4.622  14.463
 3189SOL    HW121446   4.601   4.705  14.510
 3189SOL    HW221447   4.540   4.642  14.387
 3190SOL     OW21448   0.773   0.374  20.592
 3190SOL    HW121449   0.808   0.451  20.547
 3190SOL    HW221450   0.838   0.353  20.659
 3191SOL     OW21451   4.438   1.253   6.503
 3191SOL    HW121452   4.474   1.340   6.518
 3191SOL    HW221453   4.349   1.269   6.471
 3192SOL     OW21454   1.311   3.937   2.754
 3192SOL    HW121455   1.300   3.859   2.808
 3192SOL    HW221456   1.375   3.912   2.688
 3193SOL     OW21457   3.370   0.556   3.652
 3193SOL    HW121458   3.433   0.594   3.591
 3193SOL    HW221459   3.295   0.615   3.650
 3194SOL     OW21460   2.472   2.336  18.171
 3194SOL    HW121461   2.433   2.294  18.094
 3194SOL    HW221462   2.557   2.367  18.141
 3195SOL     OW21463   3.538   2.402   7.172
 3195SOL    HW121464   3.587   2.433   7.096
 3195SOL    HW221465   3.576   2.449   7.246
 3196SOL     OW21466   1.109   3.458  16.076
 3196SOL    HW121467   1.163   3.536  16.088
 3196SOL    HW221468   1.161   3.401  16.020
 3197SOL     OW21469   0.210   3.316  17.648
 3197SOL    HW121470   0.227   3.294  17.739
 3197SOL    HW221471   0.125   3.361  17.650
 3198SOL     OW21472   1.191   4.435  21.116
 3198SOL    HW121473   1.276   4.396  21.137
 3198SOL    HW221474   1.172   4.405  21.027
 3199SOL     OW21475   0.016   0.578  21.195
 3199SOL    HW121476   0.069   0.510  21.237
 3199SOL    HW221477   4.749   0.611   0.008
 3200SOL     OW21478   0.865   1.643   6.183
 3200SOL    HW121479   0.770   1.639   6.173
 3200SOL    HW221480   0.897   1.672   6.098
 3201SOL     OW21481   1.521   2.783  16.206
 3201SOL    HW121482   1.457   2.724  16.166
 3201SOL    HW221483   1.516   2.863  16.154
 3202SOL     OW21484   0.549   3.582  15.700
 3202SOL    HW121485   0.486   3.602  15.769
 3202SOL    HW221486   0.534   3.490  15.680
 3203SOL     OW21487   4.583   2.704  19.176
 3203SOL    HW121488   4.529   2.734  19.249
 3203SOL    HW221489   4.567   2.610  19.172
 3204SOL     OW21490   4.370   1.998  15.880
 3204SOL    HW121491   4.456   2.010  15.839
 3204SOL    HW221492   4.334   1.920  15.837
 3205SOL     OW21493   0.821   3.301  20.254
 3205SOL    HW121494   0.861   3.215  20.241
 3205SOL    HW221495   0.887   3.363  20.223
 3206SOL     OW21496   4.587   4.652  17.753
 3206SOL    HW121497   4.536   4.690  17.682
 3206SOL    HW221498   4.610   4.564  17.722
 3207SOL     OW21499   1.760   0.139  18.030
 3207SOL    HW121500   1.779   0.165  18.120
 3207SOL    HW221501   1.749   0.222  17.983
 3208SOL     OW21502   3.580   4.362  17.270
 3208SOL    HW121503   3.591   4.269  17.253
 3208SOL    HW221504   3.488   4.371  17.296
 3209SOL     OW21505   0.338   3.619  16.545
 3209SOL    HW121506   0.318   3.696  16.598
 3209SOL    HW221507   0.256   3.599  16.500
 3210SOL     OW21508   0.575   1.287  19.959
 3210SOL    HW121509   0.628   1.286  19.880
 3210SOL    HW221510   0.493   1.246  19.933
 3211SOL     OW21511   3.277   0.934   8.750
 3211SOL    HW121512   3.343   0.955   8.684
 3211SOL    HW221513   3.301   0.847   8.781
 3212SOL     OW21514   0.994   4.243  15.913
 3212SOL    HW121515   1.014   4.166  15.860
 3212SOL    HW221516   0.952   4.304  15.853
 3213SOL     OW21517   1.755   0.695  16.520
 3213SOL    HW121518   1.717   0.767  16.570
 3213SOL    HW221519   1.719   0.616  16.560
 3214SOL     OW21520   3.726   3.607   2.863
 3214SOL    HW121521   3.671   3.551   2.918
 3214SOL    HW221522   3.690   3.597   2.775
 3215SOL     OW21523   3.726   1.565  19.806
 3215SOL    HW121524   3.715   1.646  19.856
 3215SOL    HW221525   3.638   1.542  19.778
 3216SOL     OW21526   0.601   4.608   2.247
 3216SOL    HW121527   0.644   4.534   2.204
 3216SOL    HW221528   0.508   4.595   2.230
 3217SOL     OW21529   1.206   0.394  13.018
 3217SOL    HW121530   1.278   0.363  13.073
 3217SOL    HW221531   1.129   0.348  13.050
 3218SOL     OW21532   1.060   2.998  19.954
 3218SOL    HW121533   0.966   2.991  19.972
 3218SOL    HW221534   1.095   3.043  20.031
 3219SOL     OW21535   4.138   1.111   4.444
 3219SOL    HW121536   4.043   1.116   4.439
 3219SOL    HW221537   4.168   1.191   4.401
 3220SOL     OW21538   3.123   0.812   4.863
 3220SOL    HW121539   3.171   0.814   4.946
 3220SOL    HW221540   3.191   0.823   4.796
 3221SOL     OW21541   1.387   0.028   5.992
 3221SOL    HW121542   1.363   0.051   6.082
 3221SOL    HW221543   1.333   4.741   5.972
 3222SOL     OW21544   2.589   1.382   2.340
 3222SOL    HW121545   2.674   1.357   2.305
 3222SOL    HW221546   2.606   1.463   2.389
 3223SOL     OW21547   4.049   2.388  20.790
 3223SOL    HW121548   4.021   2.408  20.701
 3223SOL    HW221549   4.029   2.467  20.840
 3224SOL     OW21550   3.945   3.325   1.366
 3224SOL    HW121551   4.010   3.323   1.296
 3224SOL    HW221552   3.982   3.384   1.431
 3225SOL     OW21553   3.558   1.257   2.619
 3225SOL    HW121554   3.572   1.173   2.575
 3225SOL    HW221555   3.500   1.236   2.692
 3226SOL     OW21556   1.415   2.573   8.779
 3226SOL    HW121557   1.482   2.508   8.759
 3226SOL    HW221558   1.457   2.632   8.842
 3227SOL     OW21559   0.005   2.177  18.794
 3227SOL    HW121560   0.039   2.154  18.708
 3227SOL    HW221561   0.020   2.271  18.802
 3228SOL     OW21562   3.323   0.533  15.999
 3228SOL    HW121563   3.330   0.488  16.083
 3228SOL    HW221564   3.394   0.597  16.000
 3229SOL     OW21565   0.032   4.397   2.367
 3229SOL    HW121566   0.012   4.361   2.453
 3229SOL    HW221567   4.782   4.335   2.305
 3230SOL     OW21568   0.500   2.025   3.138
 3230SOL    HW121569   0.477   2.114   3.111
 3230SOL    HW221570   0.572   2.000   3.081
 3231SOL     OW21571   3.099   2.845   1.687
 3231SOL    HW121572   3.086   2.777   1.621
 3231SOL    HW221573   3.176   2.816   1.736
 3232SOL     OW21574   4.588   2.204   2.940
 3232SOL    HW121575   4.511   2.225   2.888
 3232SOL    HW221576   4.570   2.118   2.977
 3233SOL     OW21577   3.192   1.968  18.067
 3233SOL    HW121578   3.250   1.893  18.080
 3233SOL    HW221579   3.176   1.970  17.973
 3234SOL     OW21580   3.546   3.439  16.164
 3234SOL    HW121581   3.529   3.351  16.131
 3234SOL    HW221582   3.499   3.497  16.104
 3235SOL     OW21583   0.938   3.406   4.915
 3235SOL    HW121584   0.948   3.399   5.010
 3235SOL    HW221585   1.027   3.401   4.881
 3236SOL     OW21586   2.364   1.616  19.869
 3236SOL    HW121587   2.274   1.626  19.900
 3236SOL    HW221588   2.417   1.614  19.949
 3237SOL     OW21589   3.836   1.581   2.736
 3237SOL    HW121590   3.864   1.648   2.674
 3237SOL    HW221591   3.754   1.548   2.699
 3238SOL     OW21592   3.852   0.125   5.657
 3238SOL    HW121593   3.814   0.117   5.744
 3238SOL    HW221594   3.945   0.140   5.673
 3239SOL     OW21595   1.450   3.023  16.757
 3239SOL    HW121596   1.523   3.075  16.724
 3239SOL    HW221597   1.391   3.014  16.682
 3240SOL     OW21598   2.688   3.045   6.294
 3240SOL    HW121599   2.763   2.988   6.311
 3240SOL    HW221600   2.704   3.122   6.349
 3241SOL     OW21601   4.072   1.253   5.470
 3241SOL    HW121602   4.141   1.275   5.408
 3241SOL    HW221603   4.070   1.157   5.471
 3242SOL     OW21604   1.250   0.700   2.837
 3242SOL    HW121605   1.303   0.648   2.898
 3242SOL    HW221606   1.300   0.781   2.825
 3243SOL     OW21607   3.429   3.628   4.784
 3243SOL    HW121608   3.435   3.576   4.704
 3243SOL    HW221609   3.348   3.598   4.826
 3244SOL     OW21610   3.409   2.062  20.793
 3244SOL    HW121611   3.322   2.093  20.818
 3244SOL    HW221612   3.428   1.990  20.853
 3245SOL     OW21613   1.431   2.386   5.410
 3245SOL    HW121614   1.412   2.297   5.441
 3245SOL    HW221615   1.347   2.431   5.415
 3246SOL     OW21616   4.602   4.015  16.564
 3246SOL    HW121617   4.516   3.975  16.553
 3246SOL    HW221618   4.584   4.103  16.596
 3247SOL     OW21619   4.093   0.146   0.586
 3247SOL    HW121620   4.123   0.173   0.673
 3247SOL    HW221621   4.148   0.195   0.525
 3248SOL     OW21622   4.717   3.901   0.719
 3248SOL    HW121623   4.734   3.939   0.633
 3248SOL    HW221624   4.623   3.912   0.732
 3249SOL     OW21625   2.390   0.161  20.712
 3249SOL    HW121626   2.468   0.127  20.756
 3249SOL    HW221627   2.362   0.090  20.654
 3250SOL     OW21628   4.324   0.803  20.176
 3250SOL    HW121629   4.335   0.739  20.246
 3250SOL    HW221630   4.234   0.789  20.145
 3251SOL     OW21631   0.223   3.872   6.488
 3251SOL    HW121632   0.319   3.866   6.490
 3251SOL    HW221633   0.196   3.862   6.579
 3252SOL     OW21634   1.851   3.105  19.053
 3252SOL    HW121635   1.909   3.048  19.003
 3252SOL    HW221636   1.893   3.191  19.049
 3253SOL     OW21637   4.165   1.391   4.432
 3253SOL    HW121638   4.120   1.428   4.508
 3253SOL    HW221639   4.250   1.435   4.431
 3254SOL     OW21640   1.578   3.017  14.851
 3254SOL    HW121641   1.633   2.992  14.925
 3254SOL    HW221642   1.600   2.954  14.783
 3255SOL     OW21643   4.563   0.415   2.589
 3255SOL    HW121644   4.504   0.344   2.563
 3255SOL    HW221645   4.579   0.399   2.682
 3256SOL     OW21646   4.395   0.406   5.498
 3256SOL    HW121647   4.475   0.454   5.479
 3256SOL    HW221648   4.327   0.473   5.502
 3257SOL     OW21649   1.829   2.769  18.058
 3257SOL    HW121650   1.777   2.689  18.065
 3257SOL    HW221651   1.800   2.823  18.132
 3258SOL     OW21652   1.377   0.602   0.561
 3258SOL    HW121653   1.400   0.548   0.636
 3258SOL    HW221654   1.424   0.684   0.575
 3259SOL     OW21655   1.517   0.243   4.842
 3259SOL    HW121656   1.575   0.169   4.824
 3259SOL    HW221657   1.430   0.213   4.815
 3260SOL     OW21658   4.198   3.251   3.552
 3260SOL    HW121659   4.205   3.157   3.569
 3260SOL    HW221660   4.272   3.289   3.599
 3261SOL     OW21661   4.365   3.974  18.962
 3261SOL    HW121662   4.321   3.965  18.877
 3261SOL    HW221663   4.321   3.910  19.019
 3262SOL     OW21664   2.355   3.813   0.103
 3262SOL    HW121665   2.275   3.763   0.119
 3262SOL    HW221666   2.325   3.900   0.076
 3263SOL     OW21667   2.384   2.301  19.287
 3263SOL    HW121668   2.379   2.223  19.232
 3263SOL    HW221669   2.434   2.364  19.235
 3264SOL     OW21670   3.234   4.477  18.676
 3264SOL    HW121671   3.254   4.569  18.658
 3264SOL    HW221672   3.195   4.478  18.764
 3265SOL     OW21673   3.682   3.178   2.929
 3265SOL    HW121674   3.755   3.116   2.921
 3265SOL    HW221675   3.604   3.123   2.932
 3266SOL     OW21676   3.242   2.314   3.496
 3266SOL    HW121677   3.304   2.247   3.467
 3266SOL    HW221678   3.213   2.357   3.415
 3267SOL     OW21679   3.338   1.586   0.849
 3267SOL    HW121680   3.370   1.671   0.819
 3267SOL    HW221681   3.286   1.553   0.776
 3268SOL     OW21682   1.758   2.843  14.987
 3268SOL    HW121683   1.834   2.901  14.993
 3268SOL    HW221684   1.774   2.776  15.054
 3269SOL     OW21685   3.451   0.134  17.820
 3269SOL    HW121686   3.418   0.220  17.792
 3269SOL    HW221687   3.376   0.075  17.809
 3270SOL     OW21688   1.281   3.506  16.544
 3270SOL    HW121689   1.279   3.568  16.471
 3270SOL    HW221690   1.232   3.430  16.513
 3271SOL     OW21691   1.401   3.103   4.094
 3271SOL    HW121692   1.416   3.025   4.148
 3271SOL    HW221693   1.478   3.109   4.038
 3272SOL     OW21694   1.582   3.582   2.926
 3272SOL    HW121695   1.599   3.620   2.840
 3272SOL    HW221696   1.669   3.571   2.965
 3273SOL     OW21697   0.671   3.007   5.702
 3273SOL    HW121698   0.697   2.954   5.777
 3273SOL    HW221699   0.660   2.944   5.631
 3274SOL     OW21700   4.165   3.213  17.488
 3274SOL    HW121701   4.143   3.264  17.566
 3274SOL    HW221702   4.194   3.128  17.522
 3275SOL     OW21703   2.911   3.011  18.172
 3275SOL    HW121704   2.896   2.940  18.109
 3275SOL    HW221705   2.935   2.967  18.253
 3276SOL     OW21706   3.752   3.758  18.197
 3276SOL    HW121707   3.771   3.848  18.170
 3276SOL    HW221708   3.828   3.707  18.169
 3277SOL     OW21709   3.048   0.349  15.729
 3277SOL    HW121710   3.133   0.318  15.760
 3277SOL    HW221711   3.061   0.366  15.636
 3278SOL     OW21712   4.243   2.812  19.075
 3278SOL    HW121713   4.155   2.823  19.110
 3278SOL    HW221714   4.236   2.736  19.017
 3279SOL     OW21715   2.121   0.398   4.211
 3279SOL    HW121716   2.061   0.334   4.249
 3279SOL    HW221717   2.074   0.481   4.218
 3280SOL     OW21718   2.478   2.294  20.607
 3280SOL    HW121719   2.504   2.202  20.609
 3280SOL    HW221720   2.523   2.330  20.531
 3281SOL     OW21721   4.739   2.629  19.897
 3281SOL    HW121722   0.043   2.615  19.882
 3281SOL    HW221723   4.697   2.550  19.863
 3282SOL     OW21724   3.930   1.412   5.640
 3282SOL    HW121725   3.949   1.503   5.617
 3282SOL    HW221726   3.977   1.361   5.574
 3283SOL     OW21727   2.204   0.429  14.195
 3283SOL    HW121728   2.168   0.357  14.247
 3283SOL    HW221729   2.212   0.394  14.107
 3284SOL     OW21730   2.100   1.761  17.510
 3284SOL    HW121731   2.137   1.849  17.506
 3284SOL    HW221732   2.152   1.710  17.448
 3285SOL     OW21733   1.744   1.101  18.388
 3285SOL    HW121734   1.795   1.075  18.312
 3285SOL    HW221735   1.672   1.038  18.392
 3286SOL     OW21736   0.397   3.592   3.544
 3286SOL    HW121737   0.428   3.542   3.619
 3286SOL    HW221738   0.352   3.667   3.582
 3287SOL     OW21739   1.863   4.630   4.523
 3287SOL    HW121740   1.930   4.573   4.561
 3287SOL    HW221741   1.849   4.594   4.435
 3288SOL     OW21742   1.417   1.240  20.343
 3288SOL    HW121743   1.375   1.301  20.404
 3288SOL    HW221744   1.345   1.202  20.293
 3289SOL     OW21745   2.209   3.282   6.379
 3289SOL    HW121746   2.212   3.226   6.457
 3289SOL    HW221747   2.197   3.370   6.414
 3290SOL     OW21748   2.410   0.937   8.345
 3290SOL    HW121749   2.342   0.982   8.394
 3290SOL    HW221750   2.374   0.850   8.327
 3291SOL     OW21751   1.468   1.168   1.978
 3291SOL    HW121752   1.540   1.107   1.963
 3291SOL    HW221753   1.459   1.214   1.895
 3292SOL     OW21754   1.397   3.243   1.424
 3292SOL    HW121755   1.457   3.294   1.479
 3292SOL    HW221756   1.315   3.292   1.428
 3293SOL     OW21757   3.870   3.235  19.698
 3293SOL    HW121758   3.846   3.328  19.699
 3293SOL    HW221759   3.814   3.196  19.765
 3294SOL     OW21760   4.758   2.051   2.401
 3294SOL    HW121761   0.006   1.974   2.358
 3294SOL    HW221762   0.042   2.091   2.448
 3295SOL     OW21763   1.110   4.744   6.793
 3295SOL    HW121764   1.030   4.711   6.751
 3295SOL    HW221765   1.165   4.773   6.720
 3296SOL     OW21766   1.480   3.070  18.136
 3296SOL    HW121767   1.572   3.088  18.155
 3296SOL    HW221768   1.467   3.103  18.047
 3297SOL     OW21769   2.524   4.098  13.579
 3297SOL    HW121770   2.598   4.038  13.589
 3297SOL    HW221771   2.526   4.124  13.487
 3298SOL     OW21772   2.471   4.000  12.441
 3298SOL    HW121773   2.492   4.088  12.411
 3298SOL    HW221774   2.404   4.013  12.509
 3299SOL     OW21775   1.639   1.131   5.117
 3299SOL    HW121776   1.557   1.161   5.078
 3299SOL    HW221777   1.612   1.087   5.198
 3300SOL     OW21778   1.009   1.468  17.010
 3300SOL    HW121779   0.948   1.421  16.953
 3300SOL    HW221780   0.954   1.506  17.078
 3301SOL     OW21781   0.541   2.362   1.953
 3301SOL    HW121782   0.453   2.340   1.983
 3301SOL    HW221783   0.527   2.431   1.888
 3302SOL     OW21784   1.398   0.239   2.246
 3302SOL    HW121785   1.311   0.274   2.228
 3302SOL    HW221786   1.411   0.253   2.340
 3303SOL     OW21787   4.141   4.562   4.948
 3303SOL    HW121788   4.109   4.537   4.861
 3303SOL    HW221789   4.066   4.550   5.006
 3304SOL     OW21790   2.955   4.491   5.359
 3304SOL    HW121791   2.986   4.530   5.441
 3304SOL    HW221792   3.018   4.421   5.341
 3305SOL     OW21793   3.602   1.594   5.272
 3305SOL    HW121794   3.554   1.650   5.332
 3305SOL    HW221795   3.640   1.654   5.208
 3306SOL     OW21796   1.689   0.464   1.945
 3306SOL    HW121797   1.770   0.422   1.915
 3306SOL    HW221798   1.702   0.557   1.925
 3307SOL     OW21799   0.730   0.993  18.340
 3307SOL    HW121800   0.716   1.064  18.402
 3307SOL    HW221801   0.739   0.915  18.394
 3308SOL     OW21802   1.635   0.906   8.213
 3308SOL    HW121803   1.671   0.909   8.124
 3308SOL    HW221804   1.588   0.989   8.223
 3309SOL     OW21805   3.186   3.435   3.228
 3309SOL    HW121806   3.129   3.382   3.172
 3309SOL    HW221807   3.148   3.427   3.316
 3310SOL     OW21808   2.553   0.409  20.084
 3310SOL    HW121809   2.513   0.400  19.998
 3310SOL    HW221810   2.534   0.327  20.129
 3311SOL     OW21811   4.352   0.660   2.838
 3311SOL    HW121812   4.300   0.594   2.885
 3311SOL    HW221813   4.443   0.632   2.850
 3312SOL     OW21814   2.132   3.331  15.149
 3312SOL    HW121815   2.146   3.426  15.150
 3312SOL    HW221816   2.037   3.321  15.146
 3313SOL     OW21817   2.198   3.830  16.867
 3313SOL    HW121818   2.207   3.826  16.962
 3313SOL    HW221819   2.117   3.783  16.848
 3314SOL     OW21820   2.655   4.257   5.480
 3314SOL    HW121821   2.695   4.302   5.554
 3314SOL    HW221822   2.623   4.328   5.424
 3315SOL     OW21823   4.515   2.818  16.760
 3315SOL    HW121824   4.520   2.876  16.836
 3315SOL    HW221825   4.569   2.743  16.784
 3316SOL     OW21826   4.341   0.677   1.265
 3316SOL    HW121827   4.329   0.768   1.292
 3316SOL    HW221828   4.325   0.678   1.171
 3317SOL     OW21829   2.527   1.091   6.100
 3317SOL    HW121830   2.553   1.005   6.066
 3317SOL    HW221831   2.468   1.126   6.033
 3318SOL     OW21832   1.667   3.662   7.741
 3318SOL    HW121833   1.608   3.587   7.745
 3318SOL    HW221834   1.750   3.626   7.710
 3319SOL     OW21835   4.774   2.605  16.270
 3319SOL    HW121836   4.680   2.593  16.256
 3319SOL    HW221837   4.787   2.700  16.268
 3320SOL     OW21838   4.061   0.161  14.283
 3320SOL    HW121839   4.140   0.122  14.320
 3320SOL    HW221840   4.038   0.103  14.210
 3321SOL     OW21841   0.583   4.208  20.721
 3321SOL    HW121842   0.598   4.282  20.662
 3321SOL    HW221843   0.492   4.219  20.750
 3322SOL     OW21844   1.444   0.956  18.120
 3322SOL    HW121845   1.368   0.947  18.178
 3322SOL    HW221846   1.418   1.024  18.058
 3323SOL     OW21847   4.613   1.421   3.751
 3323SOL    HW121848   4.522   1.401   3.771
 3323SOL    HW221849   4.659   1.411   3.835
 3324SOL     OW21850   2.366   0.125  18.175
 3324SOL    HW121851   2.396   0.035  18.164
 3324SOL    HW221852   2.445   0.173  18.200
 3325SOL     OW21853   3.492   0.229  14.745
 3325SOL    HW121854   3.464   0.144  14.711
 3325SOL    HW221855   3.587   0.229  14.736
 3326SOL     OW21856   2.115   3.098   3.728
 3326SOL    HW121857   2.119   3.183   3.772
 3326SOL    HW221858   2.114   3.119   3.635
 3327SOL     OW21859   4.192   2.771   7.594
 3327SOL    HW121860   4.183   2.865   7.577
 3327SOL    HW221861   4.266   2.743   7.540
 3328SOL     OW21862   4.166   2.680  18.267
 3328SOL    HW121863   4.243   2.623  18.265
 3328SOL    HW221864   4.168   2.721  18.353
 3329SOL     OW21865   0.605   2.493   0.577
 3329SOL    HW121866   0.588   2.566   0.517
 3329SOL    HW221867   0.521   2.476   0.620
 3330SOL     OW21868   0.703   3.140  17.911
 3330SOL    HW121869   0.664   3.134  17.824
 3330SOL    HW221870   0.695   3.052  17.947
 3331SOL     OW21871   2.100   0.532  17.173
 3331SOL    HW121872   2.118   0.495  17.087
 3331SOL    HW221873   2.179   0.581  17.196
 3332SOL     OW21874   0.265   2.239   2.781
 3332SOL    HW121875   0.224   2.324   2.800
 3332SOL    HW221876   0.192   2.177   2.781
 3333SOL     OW21877   1.722   2.827  19.059
 3333SOL    HW121878   1.717   2.922  19.068
 3333SOL    HW221879   1.739   2.795  19.148
 3334SOL     OW21880   0.606   4.256   0.475
 3334SOL    HW121881   0.627   4.174   0.520
 3334SOL    HW221882   0.599   4.321   0.545
 3335SOL     OW21883   4.072   2.455  18.093
 3335SOL    HW121884   4.087   2.549  18.087
 3335SOL    HW221885   4.127   2.426  18.166
 3336SOL     OW21886   2.025   1.065   4.865
 3336SOL    HW121887   2.019   1.143   4.920
 3336SOL    HW221888   2.100   1.017   4.900
 3337SOL     OW21889   4.302   3.140  21.109
 3337SOL    HW121890   4.267   3.203  21.046
 3337SOL    HW221891   4.254   3.158  21.190
 3338SOL     OW21892   3.038   4.386   3.854
 3338SOL    HW121893   3.122   4.350   3.884
 3338SOL    HW221894   3.053   4.480   3.848
 3339SOL     OW21895   2.155   3.350   7.025
 3339SOL    HW121896   2.117   3.312   6.946
 3339SOL    HW221897   2.216   3.283   7.057
 3340SOL     OW21898   1.346   4.724  15.295
 3340SOL    HW121899   1.402   4.774  15.236
 3340SOL    HW221900   1.398   4.715  15.375
 3341SOL     OW21901   2.282   0.143   1.998
 3341SOL    HW121902   2.335   0.218   1.972
 3341SOL    HW221903   2.210   0.141   1.935
 3342SOL     OW21904   1.235   2.887   2.404
 3342SOL    HW121905   1.178   2.963   2.418
 3342SOL    HW221906   1.205   2.823   2.469
 3343SOL     OW21907   1.696   3.727   4.769
 3343SOL    HW121908   1.755   3.770   4.707
 3343SOL    HW221909   1.716   3.634   4.759
 3344SOL     OW21910   1.618   2.086   5.072
 3344SOL    HW121911   1.713   2.074   5.069
 3344SOL    HW221912   1.582   2.000   5.052
 3345SOL     OW21913   4.659   4.673  19.766
 3345SOL    HW121914   4.665   4.587  19.723
 3345SOL    HW221915   4.750   4.703  19.771
 3346SOL     OW21916   1.459   0.437  20.040
 3346SOL    HW121917   1.471   0.464  19.949
 3346SOL    HW221918   1.467   0.342  20.038
 3347SOL     OW21919   4.383   1.454  17.654
 3347SOL    HW121920   4.397   1.440  17.560
 3347SOL    HW221921   4.468   1.482  17.688
 3348SOL     OW21922   3.843   0.808   3.845
 3348SOL    HW121923   3.793   0.739   3.801
 3348SOL    HW221924   3.788   0.834   3.919
 3349SOL     OW21925   0.858   3.533  16.629
 3349SOL    HW121926   0.843   3.498  16.541
 3349SOL    HW221927   0.771   3.534  16.669
 3350SOL     OW21928   2.621   1.850  16.884
 3350SOL    HW121929   2.715   1.842  16.866
 3350SOL    HW221930   2.589   1.760  16.885
 3351SOL     OW21931   4.114   1.988   1.504
 3351SOL    HW121932   4.062   1.911   1.526
 3351SOL    HW221933   4.064   2.062   1.539
 3352SOL     OW21934   3.573   3.305   3.930
 3352SOL    HW121935   3.539   3.229   3.883
 3352SOL    HW221936   3.515   3.377   3.904
 3353SOL     OW21937   1.042   3.777  16.189
 3353SOL    HW121938   1.010   3.858  16.149
 3353SOL    HW221939   1.109   3.745  16.128
 3354SOL     OW21940   0.199   0.070  13.811
 3354SOL    HW121941   0.221   0.152  13.767
 3354SOL    HW221942   0.283   0.032  13.835
 3355SOL     OW21943   2.160   0.951   5.717
 3355SOL    HW121944   2.098   1.014   5.754
 3355SOL    HW221945   2.243   0.999   5.713
 3356SOL     OW21946   3.309   3.991  18.167
 3356SOL    HW121947   3.248   3.918  18.176
 3356SOL    HW221948   3.395   3.953  18.187
 3357SOL     OW21949   0.852   0.811   5.131
 3357SOL    HW121950   0.793   0.736   5.140
 3357SOL    HW221951   0.873   0.836   5.221
 3358SOL     OW21952   3.972   1.812  19.937
 3358SOL    HW121953   3.894   1.763  19.961
 3358SOL    HW221954   3.986   1.792  19.844
 3359SOL     OW21955   2.530   3.198  18.368
 3359SOL    HW121956   2.516   3.283  18.326
 3359SOL    HW221957   2.576   3.146  18.302
 3360SOL     OW21958   0.231   1.305  20.459
 3360SOL    HW121959   0.137   1.302  20.443
 3360SOL    HW221960   0.256   1.214  20.474
 3361SOL     OW21961   3.304   1.334  20.801
 3361SOL    HW121962   3.284   1.361  20.891
 3361SOL    HW221963   3.350   1.409  20.763
 3362SOL     OW21964   4.696   2.787  20.156
 3362SOL    HW121965   4.678   2.735  20.234
 3362SOL    HW221966   0.002   2.788  20.149
 3363SOL     OW21967   2.869   3.644  19.508
 3363SOL    HW121968   2.879   3.732  19.544
 3363SOL    HW221969   2.881   3.586  19.583
 3364SOL     OW21970   1.941   4.060   6.721
 3364SOL    HW121971   1.951   4.099   6.634
 3364SOL    HW221972   1.884   3.984   6.707
 3365SOL     OW21973   0.358   2.940   5.420
 3365SOL    HW121974   0.386   2.948   5.329
 3365SOL    HW221975   0.273   2.985   5.423
 3366SOL     OW21976   3.924   4.505   6.514
 3366SOL    HW121977   3.866   4.469   6.581
 3366SOL    HW221978   3.876   4.493   6.432
 3367SOL     OW21979   0.849   1.531  19.416
 3367SOL    HW121980   0.786   1.473  19.374
 3367SOL    HW221981   0.933   1.508  19.377
 3368SOL     OW21982   1.536   2.027  19.455
 3368SOL    HW121983   1.569   2.106  19.413
 3368SOL    HW221984   1.598   1.959  19.431
 3369SOL     OW21985   2.666   0.828   4.813
 3369SOL    HW121986   2.578   0.860   4.795
 3369SOL    HW221987   2.679   0.845   4.906
 3370SOL     OW21988   4.708   1.608   8.121
 3370SOL    HW121989   4.734   1.698   8.142
 3370SOL    HW221990   4.725   1.599   8.027
 3371SOL     OW21991   4.051   0.738  18.562
 3371SOL    HW121992   4.123   0.800  18.552
 3371SOL    HW221993   4.037   0.703  18.474
 3372SOL     OW21994   2.004   2.672  15.641
 3372SOL    HW121995   2.093   2.674  15.677
 3372SOL    HW221996   1.947   2.673  15.718
 3373SOL     OW21997   1.375   4.548   2.200
 3373SOL    HW121998   1.294   4.547   2.149
 3373SOL    HW221999   1.408   4.458   2.193
 3374SOL     OW22000   2.124   4.262  19.413
 3374SOL    HW122001   2.069   4.213  19.474
 3374SOL    HW222002   2.139   4.346  19.456
 3375SOL     OW22003   2.298   0.782   2.973
 3375SOL    HW122004   2.287   0.877   2.974
 3375SOL    HW222005   2.263   0.753   3.057
 3376SOL     OW22006   2.618   3.554  19.012
 3376SOL    HW122007   2.630   3.622  19.079
 3376SOL    HW222008   2.692   3.494  19.025
 3377SOL     OW22009   2.200   3.906   5.698
 3377SOL    HW122010   2.152   3.963   5.758
 3377SOL    HW222011   2.186   3.818   5.732
 3378SOL     OW22012   2.229   4.725   3.173
 3378SOL    HW122013   2.265   4.637   3.160
 3378SOL    HW222014   2.275   4.779   3.109
 3379SOL     OW22015   0.938   2.576  19.440
 3379SOL    HW122016   0.872   2.507  19.434
 3379SOL    HW222017   0.887   2.656  19.454
 3380SOL     OW22018   2.407   3.195   6.875
 3380SOL    HW122019   2.468   3.256   6.918
 3380SOL    HW222020   2.389   3.129   6.941
 3381SOL     OW22021   2.633   3.319  21.072
 3381SOL    HW122022   2.540   3.329  21.050
 3381SOL    HW222023   2.663   3.408  21.090
 3382SOL     OW22024   0.513   0.427   3.825
 3382SOL    HW122025   0.428   0.384   3.832
 3382SOL    HW222026   0.533   0.424   3.731
 3383SOL     OW22027   4.659   4.434   0.380
 3383SOL    HW122028   4.585   4.388   0.419
 3383SOL    HW222029   4.728   4.368   0.374
 3384SOL     OW22030   4.749   2.261   2.694
 3384SOL    HW122031   4.722   2.344   2.655
 3384SOL    HW222032   4.714   2.264   2.783
 3385SOL     OW22033   3.109   4.117  13.222
 3385SOL    HW122034   3.065   4.104  13.306
 3385SOL    HW222035   3.064   4.192  13.182
 3386SOL     OW22036   3.386   4.378   1.030
 3386SOL    HW122037   3.469   4.379   1.077
 3386SOL    HW222038   3.403   4.323   0.953
 3387SOL     OW22039   2.560   2.994  20.500
 3387SOL    HW122040   2.592   3.058  20.563
 3387SOL    HW222041   2.603   2.912  20.525
 3388SOL     OW22042   1.852   3.070   0.256
 3388SOL    HW122043   1.944   3.064   0.229
 3388SOL    HW222044   1.848   3.148   0.312
 3389SOL     OW22045   2.481   0.813  15.023
 3389SOL    HW122046   2.495   0.822  14.929
 3389SOL    HW222047   2.543   0.873  15.063
 3390SOL     OW22048   4.537   3.024  19.788
 3390SOL    HW122049   4.614   3.080  19.795
 3390SOL    HW222050   4.551   2.956  19.854
 3391SOL     OW22051   1.414   2.312   8.025
 3391SOL    HW122052   1.411   2.307   7.929
 3391SOL    HW222053   1.443   2.401   8.044
 3392SOL     OW22054   4.535   1.361   1.556
 3392SOL    HW122055   4.474   1.348   1.628
 3392SOL    HW222056   4.541   1.456   1.546
 3393SOL     OW22057   3.067   2.226  19.561
 3393SOL    HW122058   3.043   2.309  19.520
 3393SOL    HW222059   3.107   2.250  19.645
 3394SOL     OW22060   0.519   4.439  14.917
 3394SOL    HW122061   0.508   4.534  14.920
 3394SOL    HW222062   0.544   4.415  15.006
 3395SOL     OW22063   2.673   1.860   0.460
 3395SOL    HW122064   2.724   1.910   0.397
 3395SOL    HW222065   2.695   1.769   0.442
 3396SOL     OW22066   4.649   4.339  17.200
 3396SOL    HW122067   4.740   4.334  17.169
 3396SOL    HW222068   4.631   4.252  17.234
 3397SOL     OW22069   2.660   0.404  18.687
 3397SOL    HW122070   2.613   0.330  18.726
 3397SOL    HW222071   2.591   0.461  18.654
 3398SOL     OW22072   1.984   3.215   7.647
 3398SOL    HW122073   1.978   3.239   7.740
 3398SOL    HW222074   1.894   3.223   7.615
 3399SOL     OW22075   0.339   1.443  17.486
 3399SOL    HW122076   0.370   1.420  17.573
 3399SOL    HW222077   0.305   1.361  17.450
 3400SOL     OW22078   3.372   2.144  16.248
 3400SOL    HW122079   3.350   2.119  16.158
 3400SOL    HW222080   3.322   2.224  16.263
 3401SOL     OW22081   3.402   4.259  18.550
 3401SOL    HW122082   3.329   4.197  18.548
 3401SOL    HW222083   3.366   4.338  18.589
 3402SOL     OW22084   3.147   2.888   1.050
 3402SOL    HW122085   3.234   2.888   1.090
 3402SOL    HW222086   3.154   2.825   0.979
 3403SOL     OW22087   3.512   1.554   1.590
 3403SOL    HW122088   3.493   1.607   1.668
 3403SOL    HW222089   3.434   1.500   1.578
 3404SOL     OW22090   0.144   4.618   0.313
 3404SOL    HW122091   0.135   4.578   0.399
 3404SOL    HW222092   0.060   4.601   0.270
 3405SOL     OW22093   1.435   0.988  17.597
 3405SOL    HW122094   1.377   0.914  17.614
 3405SOL    HW222095   1.522   0.957  17.622
 3406SOL     OW22096   0.374   2.307  16.795
 3406SOL    HW122097   0.386   2.387  16.846
 3406SOL    HW222098   0.458   2.293  16.752
 3407SOL     OW22099   1.130   1.915   1.617
 3407SOL    HW122100   1.226   1.909   1.619
 3407SOL    HW222101   1.110   1.994   1.667
 3408SOL     OW22102   2.887   3.126   3.234
 3408SOL    HW122103   2.905   3.204   3.181
 3408SOL    HW222104   2.859   3.060   3.171
 3409SOL     OW22105   2.637   3.097  20.750
 3409SOL    HW122106   2.620   3.191  20.755
 3409SOL    HW222107   2.567   3.057  20.801
 3410SOL     OW22108   0.954   3.501   6.642
 3410SOL    HW122109   0.866   3.512   6.678
 3410SOL    HW222110   0.994   3.434   6.697
 3411SOL     OW22111   4.123   2.853  18.514
 3411SOL    HW122112   4.143   2.936  18.470
 3411SOL    HW222113   4.109   2.877  18.606
 3412SOL     OW22114   0.763   2.353  15.890
 3412SOL    HW122115   0.747   2.268  15.931
 3412SOL    HW222116   0.743   2.339  15.797
 3413SOL     OW22117   1.026   0.917  17.474
 3413SOL    HW122118   1.004   0.953  17.560
 3413SOL    HW222119   0.998   0.826  17.478
 3414SOL     OW22120   4.685   0.757   0.332
 3414SOL    HW122121   4.619   0.824   0.349
 3414SOL    HW222122   4.660   0.719   0.248
 3415SOL     OW22123   1.331   4.540  18.736
 3415SOL    HW122124   1.287   4.598  18.674
 3415SOL    HW222125   1.319   4.452  18.699
 3416SOL     OW22126   1.136   0.127  19.878
 3416SOL    HW122127   1.213   0.122  19.822
 3416SOL    HW222128   1.084   0.198  19.842
 3417SOL     OW22129   1.433   3.905   4.670
 3417SOL    HW122130   1.465   3.994   4.655
 3417SOL    HW222131   1.479   3.875   4.749
 3418SOL     OW22132   2.922   2.593   6.330
 3418SOL    HW122133   2.989   2.615   6.395
 3418SOL    HW222134   2.972   2.567   6.253
 3419SOL     OW22135   2.232   4.462  14.536
 3419SOL    HW122136   2.242   4.514  14.456
 3419SOL    HW222137   2.179   4.387  14.510
 3420SOL     OW22138   1.457   0.295  19.622
 3420SOL    HW122139   1.427   0.331  19.539
 3420SOL    HW222140   1.404   0.216  19.635
 3421SOL     OW22141   4.092   3.778   7.202
 3421SOL    HW122142   4.155   3.843   7.171
 3421SOL    HW222143   4.076   3.722   7.126
 3422SOL     OW22144   0.383   3.641   3.244
 3422SOL    HW122145   0.415   3.675   3.328
 3422SOL    HW222146   0.308   3.586   3.268
 3423SOL     OW22147   4.428   3.057  16.175
 3423SOL    HW122148   4.491   2.996  16.137
 3423SOL    HW222149   4.398   3.014  16.255
 3424SOL     OW22150   1.708   2.199  20.935
 3424SOL    HW122151   1.705   2.222  20.842
 3424SOL    HW222152   1.616   2.190  20.961
 3425SOL     OW22153   0.639   0.660   5.094
 3425SOL    HW122154   0.633   0.575   5.051
 3425SOL    HW222155   0.553   0.673   5.133
 3426SOL     OW22156   0.692   3.232   5.284
 3426SOL    HW122157   0.741   3.163   5.329
 3426SOL    HW222158   0.680   3.300   5.350
 3427SOL     OW22159   0.126   2.031   0.796
 3427SOL    HW122160   0.065   2.034   0.870
 3427SOL    HW222161   0.124   2.120   0.760
 3428SOL     OW22162   0.654   0.471   2.241
 3428SOL    HW122163   0.675   0.553   2.196
 3428SOL    HW222164   0.708   0.472   2.320
 3429SOL     OW22165   2.636   3.342   2.795
 3429SOL    HW122166   2.595   3.386   2.869
 3429SOL    HW222167   2.575   3.272   2.772
 3430SOL     OW22168   4.500   4.018   0.947
 3430SOL    HW122169   4.479   3.957   1.018
 3430SOL    HW222170   4.473   3.972   0.867
 3431SOL     OW22171   2.982   1.699   9.461
 3431SOL    HW122172   2.994   1.702   9.556
 3431SOL    HW222173   2.887   1.693   9.448
 3432SOL     OW22174   3.024   4.396   8.120
 3432SOL    HW122175   3.013   4.478   8.168
 3432SOL    HW222176   3.048   4.423   8.031
 3433SOL     OW22177   4.386   3.612   7.954
 3433SOL    HW122178   4.343   3.692   7.983
 3433SOL    HW222179   4.462   3.642   7.904
 3434SOL     OW22180   3.934   3.825   9.616
 3434SOL    HW122181   4.021   3.864   9.609
 3434SOL    HW222182   3.932   3.788   9.704
 3435SOL     OW22183   1.416   2.385   7.764
 3435SOL    HW122184   1.496   2.435   7.750
 3435SOL    HW222185   1.346   2.449   7.753
 3436SOL     OW22186   1.499   0.873   8.849
 3436SOL    HW122187   1.569   0.850   8.788
 3436SOL    HW222188   1.535   0.854   8.935
 3437SOL     OW22189   1.780   1.257   6.183
 3437SOL    HW122190   1.822   1.222   6.262
 3437SOL    HW222191   1.813   1.347   6.177
 3438SOL     OW22192   1.683   0.800   8.669
 3438SOL    HW122193   1.682   0.869   8.603
 3438SOL    HW222194   1.694   0.719   8.619
 3439SOL     OW22195   1.508   4.339   6.163
 3439SOL    HW122196   1.579   4.286   6.199
 3439SOL    HW222197   1.432   4.281   6.166
 3440SOL     OW22198   0.257   4.052   1.949
 3440SOL    HW122199   0.164   4.028   1.954
 3440SOL    HW222200   0.258   4.135   1.902
 3441SOL     OW22201   2.017   0.288   8.188
 3441SOL    HW122202   1.939   0.315   8.236
 3441SOL    HW222203   1.997   0.308   8.096
 3442SOL     OW22204   0.374   1.710   5.070
 3442SOL    HW122205   0.467   1.700   5.088
 3442SOL    HW222206   0.331   1.686   5.152
 3443SOL     OW22207   3.453   0.748   8.658
 3443SOL    HW122208   3.437   0.684   8.588
 3443SOL    HW222209   3.531   0.795   8.630
 3444SOL     OW22210   2.578   4.222   7.556
 3444SOL    HW122211   2.643   4.229   7.486
 3444SOL    HW222212   2.621   4.259   7.633
 3445SOL     OW22213   0.660   4.171   3.958
 3445SOL    HW122214   0.661   4.267   3.953
 3445SOL    HW222215   0.752   4.146   3.956
 3446SOL     OW22216   0.026   3.600   9.324
 3446SOL    HW122217   0.009   3.630   9.413
 3446SOL    HW222218   4.752   3.648   9.270
 3447SOL     OW22219   2.173   3.580  20.922
 3447SOL    HW122220   2.140   3.670  20.925
 3447SOL    HW222221   2.102   3.528  20.960
 3448SOL     OW22222   1.273   3.324   9.361
 3448SOL    HW122223   1.213   3.271   9.415
 3448SOL    HW222224   1.360   3.295   9.387
 3449SOL     OW22225   2.745   4.082  10.163
 3449SOL    HW122226   2.783   4.125  10.240
 3449SOL    HW222227   2.812   4.019  10.136
 3450SOL     OW22228   3.463   3.409  10.949
 3450SOL    HW122229   3.389   3.349  10.943
 3450SOL    HW222230   3.478   3.419  11.043
 3451SOL     OW22231   0.004   3.393   9.885
 3451SOL    HW122232   0.022   3.485   9.902
 3451SOL    HW222233   0.078   3.364   9.831
 3452SOL     OW22234   2.659   3.812   9.105
 3452SOL    HW122235   2.752   3.806   9.082
 3452SOL    HW222236   2.653   3.888   9.163
 3453SOL     OW22237   0.065   4.521   9.534
 3453SOL    HW122238   0.077   4.477   9.450
 3453SOL    HW222239   0.014   4.599   9.514
 3454SOL     OW22240   3.632   4.333  10.371
 3454SOL    HW122241   3.636   4.240  10.393
 3454SOL    HW222242   3.540   4.349  10.350
 3455SOL     OW22243   0.082   0.616   9.403
 3455SOL    HW122244   0.078   0.633   9.497
 3455SOL    HW222245   4.780   0.612   9.375
 3456SOL     OW22246   3.909   4.127  11.034
 3456SOL    HW122247   3.940   4.037  11.045
 3456SOL    HW222248   3.978   4.170  10.983
 3457SOL     OW22249   0.186   3.789  10.987
 3457SOL    HW122250   0.248   3.814  11.056
 3457SOL    HW222251   0.208   3.845  10.913
 3458SOL     OW22252   3.168   3.153  10.503
 3458SOL    HW122253   3.143   3.125  10.415
 3458SOL    HW222254   3.115   3.231  10.519
 3459SOL     OW22255   3.218   0.197  10.338
 3459SOL    HW122256   3.147   0.141  10.368
 3459SOL    HW222257   3.194   0.284  10.370
 3460SOL     OW22258   4.076   0.069   8.959
 3460SOL    HW122259   4.069   4.782   9.016
 3460SOL    HW222260   4.060   0.144   9.017
 3461SOL     OW22261   4.618   0.520   9.345
 3461SOL    HW122262   4.606   0.508   9.439
 3461SOL    HW222263   4.530   0.510   9.308
 3462SOL     OW22264   4.505   4.023   9.243
 3462SOL    HW122265   4.418   4.013   9.204
 3462SOL    HW222266   4.534   3.933   9.259
 3463SOL     OW22267   0.207   4.408   9.854
 3463SOL    HW122268   0.196   4.412   9.949
 3463SOL    HW222269   0.181   4.319   9.831
 3464SOL     OW22270   0.038   4.040   9.065
 3464SOL    HW122271   0.121   4.081   9.041
 3464SOL    HW222272   0.058   3.986   9.141
 3465SOL     OW22273   3.433   3.621  10.768
 3465SOL    HW122274   3.399   3.709  10.782
 3465SOL    HW222275   3.417   3.576  10.851
 3466SOL     OW22276   0.009   3.836  10.255
 3466SOL    HW122277   0.051   3.752  10.273
 3466SOL    HW222278   4.716   3.833  10.303
 3467SOL     OW22279   0.765   0.266  11.447
 3467SOL    HW122280   0.733   0.241  11.360
 3467SOL    HW222281   0.709   0.219  11.508
 3468SOL     OW22282   4.217   3.500  10.659
 3468SOL    HW122283   4.303   3.463  10.681
 3468SOL    HW222284   4.224   3.524  10.567
 3469SOL     OW22285   3.916   2.845  10.297
 3469SOL    HW122286   3.991   2.786  10.285
 3469SOL    HW222287   3.840   2.792  10.273
 3470SOL     OW22288   3.433   4.355   9.329
 3470SOL    HW122289   3.348   4.330   9.365
 3470SOL    HW222290   3.497   4.311   9.384
 3471SOL     OW22291   4.011   3.332  11.316
 3471SOL    HW122292   3.927   3.355  11.276
 3471SOL    HW222293   3.988   3.288  11.398
 3472SOL     OW22294   0.507   4.386   9.830
 3472SOL    HW122295   0.522   4.299   9.793
 3472SOL    HW222296   0.413   4.400   9.820
 3473SOL     OW22297   3.870   3.018  10.486
 3473SOL    HW122298   3.777   3.035  10.474
 3473SOL    HW222299   3.893   2.958  10.415
 3474SOL     OW22300   0.093   2.676  10.419
 3474SOL    HW122301   0.024   2.738  10.443
 3474SOL    HW222302   0.077   2.600  10.474
 3475SOL     OW22303   3.025   3.746   9.515
 3475SOL    HW122304   3.046   3.723   9.424
 3475SOL    HW222305   3.058   3.672   9.567
 3476SOL     OW22306   4.354   2.570  10.314
 3476SOL    HW122307   4.262   2.589  10.293
 3476SOL    HW222308   4.394   2.656  10.325
 3477SOL     OW22309   3.022   3.469  13.321
 3477SOL    HW122310   3.031   3.502  13.232
 3477SOL    HW222311   2.974   3.537  13.368
 3478SOL     OW22312   2.363   0.247  19.363
 3478SOL    HW122313   2.443   0.259  19.414
 3478SOL    HW222314   2.374   0.304  19.287
 3479SOL     OW22315   3.924   2.428   1.319
 3479SOL    HW122316   4.003   2.376   1.329
 3479SOL    HW222317   3.853   2.364   1.317
 3480SOL     OW22318   3.813   4.647  12.594
 3480SOL    HW122319   3.904   4.675  12.586
 3480SOL    HW222320   3.766   4.725  12.624
 3481SOL     OW22321   2.123   3.700  11.462
 3481SOL    HW122322   2.115   3.781  11.412
 3481SOL    HW222323   2.045   3.649  11.438
 3482SOL     OW22324   4.089   3.905  11.511
 3482SOL    HW122325   4.115   3.837  11.573
 3482SOL    HW222326   4.167   3.918  11.457
 3483SOL     OW22327   2.233   4.020  18.561
 3483SOL    HW122328   2.157   3.998  18.615
 3483SOL    HW222329   2.258   3.938  18.519
 3484SOL     OW22330   3.471   1.743   5.778
 3484SOL    HW122331   3.459   1.650   5.797
 3484SOL    HW222332   3.557   1.749   5.737
 3485SOL     OW22333   3.684   0.111  12.642
 3485SOL    HW122334   3.667   0.204  12.658
 3485SOL    HW222335   3.597   0.070  12.641
 3486SOL     OW22336   3.915   0.444  12.816
 3486SOL    HW122337   3.981   0.508  12.842
 3486SOL    HW222338   3.834   0.494  12.810
 3487SOL     OW22339   4.227   1.562  11.982
 3487SOL    HW122340   4.300   1.511  12.017
 3487SOL    HW222341   4.179   1.592  12.059
 3488SOL     OW22342   4.104   1.018   1.154
 3488SOL    HW122343   4.173   0.959   1.186
 3488SOL    HW222344   4.061   0.969   1.084
 3489SOL     OW22345   0.238   4.183  12.539
 3489SOL    HW122346   0.185   4.107  12.563
 3489SOL    HW222347   0.254   4.173  12.445
 3490SOL     OW22348   3.122   0.331  12.125
 3490SOL    HW122349   3.151   0.404  12.070
 3490SOL    HW222350   3.117   0.368  12.213
 3491SOL     OW22351   1.313   4.776  15.593
 3491SOL    HW122352   1.263   4.694  15.598
 3491SOL    HW222353   1.390   4.761  15.647
 3492SOL     OW22354   0.012   3.587  11.093
 3492SOL    HW122355   0.008   3.624  11.181
 3492SOL    HW222356   0.072   3.645  11.046
 3493SOL     OW22357   1.233   0.491  20.391
 3493SOL    HW122358   1.272   0.573  20.361
 3493SOL    HW222359   1.171   0.467  20.322
 3494SOL     OW22360   4.181   1.547  12.598
 3494SOL    HW122361   4.135   1.631  12.601
 3494SOL    HW222362   4.112   1.483  12.579
 3495SOL     OW22363   4.701   1.356   4.015
 3495SOL    HW122364   4.745   1.312   4.088
 3495SOL    HW222365   4.672   1.439   4.052
 3496SOL     OW22366   1.274   0.815   5.572
 3496SOL    HW122367   1.266   0.898   5.619
 3496SOL    HW222368   1.368   0.806   5.557
 3497SOL     OW22369   3.641   2.213   5.136
 3497SOL    HW122370   3.637   2.262   5.054
 3497SOL    HW222371   3.558   2.166   5.139
 3498SOL     OW22372   0.732   4.282   5.779
 3498SOL    HW122373   0.668   4.255   5.714
 3498SOL    HW222374   0.816   4.276   5.734
 3499SOL     OW22375   2.347   0.541   2.202
 3499SOL    HW122376   2.392   0.556   2.119
 3499SOL    HW222377   2.261   0.506   2.177
 3500SOL     OW22378   3.535   4.493  17.761
 3500SOL    HW122379   3.584   4.524  17.838
 3500SOL    HW222380   3.535   4.568  17.701
 3501SOL     OW22381   4.248   4.055  16.762
 3501SOL    HW122382   4.334   4.079  16.798
 3501SOL    HW222383   4.192   4.045  16.839
 3502SOL     OW22384   2.944   4.089   3.944
 3502SOL    HW122385   2.936   4.117   3.853
 3502SOL    HW222386   2.890   4.151   3.993
 3503SOL     OW22387   2.524   3.430  11.305
 3503SOL    HW122388   2.600   3.481  11.334
 3503SOL    HW222389   2.488   3.392  11.385
 3504SOL     OW22390   1.177   4.737   0.218
 3504SOL    HW122391   1.225   4.675   0.272
 3504SOL    HW222392   1.085   4.713   0.229
 3505SOL     OW22393   2.872   3.363   1.550
 3505SOL    HW122394   2.943   3.422   1.575
 3505SOL    HW222395   2.895   3.279   1.590
 3506SOL     OW22396   1.593   1.069  14.161
 3506SOL    HW122397   1.597   1.164  14.148
 3506SOL    HW222398   1.608   1.057  14.255
 3507SOL     OW22399   3.220   0.514   4.266
 3507SOL    HW122400   3.313   0.499   4.247
 3507SOL    HW222401   3.180   0.427   4.261
 3508SOL     OW22402   1.193   4.239   4.706
 3508SOL    HW122403   1.118   4.181   4.719
 3508SOL    HW222404   1.257   4.210   4.771
 3509SOL     OW22405   1.911   2.830  17.814
 3509SOL    HW122406   1.861   2.822  17.895
 3509SOL    HW222407   1.984   2.888  17.837
 3510SOL     OW22408   4.780   4.411  16.796
 3510SOL    HW122409   0.079   4.378  16.809
 3510SOL    HW222410   4.784   4.458  16.713
 3511SOL     OW22411   0.604   0.604  11.678
 3511SOL    HW122412   0.693   0.576  11.700
 3511SOL    HW222413   0.588   0.567  11.591
 3512SOL     OW22414   0.133   4.654  11.258
 3512SOL    HW122415   0.099   4.711  11.327
 3512SOL    HW222416   0.056   4.607  11.226
 3513SOL     OW22417   4.322   0.499  18.874
 3513SOL    HW122418   4.231   0.528  18.870
 3513SOL    HW222419   4.354   0.508  18.784
 3514SOL     OW22420   0.127   2.809  20.651
 3514SOL    HW122421   0.140   2.748  20.724
 3514SOL    HW222422   0.125   2.896  20.692
 3515SOL     OW22423   4.680   1.194  15.966
 3515SOL    HW122424   4.771   1.169  15.979
 3515SOL    HW222425   4.633   1.111  15.960
 3516SOL     OW22426   3.899   0.956  19.116
 3516SOL    HW122427   3.922   0.918  19.031
 3516SOL    HW222428   3.966   0.924  19.176
 3517SOL     OW22429   0.203   4.304  15.936
 3517SOL    HW122430   0.276   4.248  15.910
 3517SOL    HW222431   0.243   4.390  15.952
 3518SOL     OW22432   4.590   0.443  15.374
 3518SOL    HW122433   4.634   0.434  15.459
 3518SOL    HW222434   4.587   0.354  15.340
 3519SOL     OW22435   4.602   1.227  12.529
 3519SOL    HW122436   4.514   1.202  12.556
 3519SOL    HW222437   4.609   1.320  12.552
 3520SOL     OW22438   1.453   4.588  15.021
 3520SOL    HW122439   1.438   4.646  15.096
 3520SOL    HW222440   1.396   4.513  15.037
 3521SOL     OW22441   1.659   4.003   1.172
 3521SOL    HW122442   1.566   3.984   1.182
 3521SOL    HW222443   1.661   4.093   1.138
 3522SOL     OW22444   0.006   3.284   5.919
 3522SOL    HW122445   0.021   3.267   5.826
 3522SOL    HW222446   4.700   3.284   5.929
 3523SOL     OW22447   1.238   0.648   0.349
 3523SOL    HW122448   1.281   0.595   0.281
 3523SOL    HW222449   1.294   0.639   0.426
 3524SOL     OW22450   1.640   2.702  15.661
 3524SOL    HW122451   1.689   2.688  15.742
 3524SOL    HW222452   1.696   2.758  15.608
 3525SOL     OW22453   0.977   4.327  18.161
 3525SOL    HW122454   0.974   4.322  18.257
 3525SOL    HW222455   1.060   4.371  18.142
 3526SOL     OW22456   0.332   1.046   2.613
 3526SOL    HW122457   0.294   1.036   2.700
 3526SOL    HW222458   0.405   1.106   2.626
 3527SOL     OW22459   0.028   0.662   3.278
 3527SOL    HW122460   0.004   0.592   3.217
 3527SOL    HW222461   0.086   0.719   3.227
 3528SOL     OW22462   2.377   2.104  20.949
 3528SOL    HW122463   2.409   2.108  21.039
 3528SOL    HW222464   2.450   2.137  20.896
 3529SOL     OW22465   0.963   2.099  19.004
 3529SOL    HW122466   0.974   2.088  18.910
 3529SOL    HW222467   1.040   2.150  19.031
 3530SOL     OW22468   4.115   1.831   3.676
 3530SOL    HW122469   4.108   1.926   3.687
 3530SOL    HW222470   4.028   1.797   3.697
 3531SOL     OW22471   4.453   3.627   2.620
 3531SOL    HW122472   4.466   3.532   2.626
 3531SOL    HW222473   4.483   3.660   2.705
 3532SOL     OW22474   0.886   1.727   2.540
 3532SOL    HW122475   0.939   1.660   2.582
 3532SOL    HW222476   0.810   1.738   2.598
 3533SOL     OW22477   2.072   1.582   0.585
 3533SOL    HW122478   2.040   1.669   0.609
 3533SOL    HW222479   1.998   1.541   0.541
 3534SOL     OW22480   4.253   3.021  13.059
 3534SOL    HW122481   4.307   3.027  13.138
 3534SOL    HW222482   4.173   3.068  13.081
 3535SOL     OW22483   2.536   1.169  19.746
 3535SOL    HW122484   2.517   1.133  19.659
 3535SOL    HW222485   2.517   1.262  19.738
 3536SOL     OW22486   1.310   3.435   3.417
 3536SOL    HW122487   1.281   3.526   3.420
 3536SOL    HW222488   1.406   3.440   3.419
 3537SOL     OW22489   2.128   2.769  19.290
 3537SOL    HW122490   2.083   2.852  19.305
 3537SOL    HW222491   2.215   2.794  19.258
 3538SOL     OW22492   3.995   3.990   0.146
 3538SOL    HW122493   4.080   3.946   0.140
 3538SOL    HW222494   4.017   4.082   0.158
 3539SOL     OW22495   2.489   4.157  11.207
 3539SOL    HW122496   2.431   4.085  11.183
 3539SOL    HW222497   2.524   4.133  11.293
 3540SOL     OW22498   2.324   1.290  19.267
 3540SOL    HW122499   2.262   1.222  19.243
 3540SOL    HW222500   2.278   1.343  19.332
 3541SOL     OW22501   0.157   2.300   0.418
 3541SOL    HW122502   0.094   2.346   0.363
 3541SOL    HW222503   0.189   2.229   0.363
 3542SOL     OW22504   0.253   2.440  14.437
 3542SOL    HW122505   0.197   2.504  14.482
 3542SOL    HW222506   0.247   2.361  14.491
 3543SOL     OW22507   2.561   1.585   8.189
 3543SOL    HW122508   2.559   1.645   8.264
 3543SOL    HW222509   2.485   1.529   8.201
 3544SOL     OW22510   0.472   1.379   3.219
 3544SOL    HW122511   0.399   1.432   3.188
 3544SOL    HW222512   0.489   1.411   3.308
 3545SOL     OW22513   1.017   4.342   2.182
 3545SOL    HW122514   0.963   4.319   2.107
 3545SOL    HW222515   1.019   4.438   2.182
 3546SOL     OW22516   0.352   2.114  18.197
 3546SOL    HW122517   0.337   2.198  18.154
 3546SOL    HW222518   0.359   2.135  18.290
 3547SOL     OW22519   1.337   0.258   2.518
 3547SOL    HW122520   1.360   0.351   2.511
 3547SOL    HW222521   1.255   0.250   2.470
 3548SOL     OW22522   0.521   3.175  19.812
 3548SOL    HW122523   0.545   3.143  19.899
 3548SOL    HW222524   0.465   3.106  19.775
 3549SOL     OW22525   0.084   1.102  19.177
 3549SOL    HW122526   0.011   1.163  19.192
 3549SOL    HW222527   0.160   1.158  19.161
 3550SOL     OW22528   4.697   2.554   4.598
 3550SOL    HW122529   4.622   2.593   4.643
 3550SOL    HW222530   4.683   2.460   4.604
 3551SOL     OW22531   1.684   0.545   6.062
 3551SOL    HW122532   1.741   0.621   6.048
 3551SOL    HW222533   1.743   0.470   6.059
 3552SOL     OW22534   3.784   0.065  13.502
 3552SOL    HW122535   3.854   0.001  13.515
 3552SOL    HW222536   3.781   0.078  13.407
 3553SOL     OW22537   2.366   2.705  15.369
 3553SOL    HW122538   2.374   2.687  15.463
 3553SOL    HW222539   2.308   2.636  15.336
 3554SOL     OW22540   0.755   3.424  18.288
 3554SOL    HW122541   0.711   3.464  18.363
 3554SOL    HW222542   0.837   3.390  18.323
 3555SOL     OW22543   3.050   1.835   1.908
 3555SOL    HW122544   3.142   1.836   1.936
 3555SOL    HW222545   3.035   1.745   1.879
 3556SOL     OW22546   0.692   0.165  14.448
 3556SOL    HW122547   0.655   0.150  14.361
 3556SOL    HW222548   0.675   0.084  14.496
 3557SOL     OW22549   0.507   0.710  16.550
 3557SOL    HW122550   0.424   0.757  16.546
 3557SOL    HW222551   0.529   0.692  16.459
 3558SOL     OW22552   2.163   2.472   3.112
 3558SOL    HW122553   2.179   2.383   3.081
 3558SOL    HW222554   2.222   2.483   3.186
 3559SOL     OW22555   4.706   1.912  20.633
 3559SOL    HW122556   0.003   1.878  20.613
 3559SOL    HW222557   4.667   1.930  20.547
 3560SOL     OW22558   4.570   2.214  12.007
 3560SOL    HW122559   4.551   2.132  11.961
 3560SOL    HW222560   4.666   2.219  12.009
 3561SOL     OW22561   3.939   1.237   3.131
 3561SOL    HW122562   3.895   1.202   3.053
 3561SOL    HW222563   3.882   1.308   3.160
 3562SOL     OW22564   1.171   2.291   3.902
 3562SOL    HW122565   1.208   2.286   3.814
 3562SOL    HW222566   1.106   2.361   3.897
 3563SOL     OW22567   0.025   3.204   1.850
 3563SOL    HW122568   4.776   3.149   1.918
 3563SOL    HW222569   0.081   3.266   1.898
 3564SOL     OW22570   0.909   1.205  15.120
 3564SOL    HW122571   0.892   1.172  15.208
 3564SOL    HW222572   0.883   1.297  15.124
 3565SOL     OW22573   4.042   0.988   1.720
 3565SOL    HW122574   4.010   0.911   1.673
 3565SOL    HW222575   4.132   0.966   1.745
 3566SOL     OW22576   3.686   1.925   7.295
 3566SOL    HW122577   3.769   1.885   7.320
 3566SOL    HW222578   3.707   2.017   7.278
 3567SOL     OW22579   0.966   3.468  17.125
 3567SOL    HW122580   1.018   3.440  17.200
 3567SOL    HW222581   0.929   3.387  17.089
 3568SOL     OW22582   3.604   3.492  15.137
 3568SOL    HW122583   3.522   3.507  15.184
 3568SOL    HW222584   3.671   3.492  15.205
 3569SOL     OW22585   0.567   4.748  18.489
 3569SOL    HW122586   0.578   4.724  18.397
 3569SOL    HW222587   0.484   0.006  18.491
 3570SOL     OW22588   4.108   4.134  14.275
 3570SOL    HW122589   4.092   4.072  14.346
 3570SOL    HW222590   4.192   4.175  14.297
 3571SOL     OW22591   3.058   2.019   7.540
 3571SOL    HW122592   3.144   1.982   7.560
 3571SOL    HW222593   3.071   2.069   7.460
 3572SOL     OW22594   1.969   0.798   5.243
 3572SOL    HW122595   1.969   0.805   5.339
 3572SOL    HW222596   2.062   0.791   5.220
 3573SOL     OW22597   0.175   2.603  20.813
 3573SOL    HW122598   0.148   2.517  20.845
 3573SOL    HW222599   0.255   2.622  20.861
 3574SOL     OW22600   4.233   2.502  15.936
 3574SOL    HW122601   4.321   2.466  15.949
 3574SOL    HW222602   4.177   2.425  15.924
 3575SOL     OW22603   0.214   4.274  17.480
 3575SOL    HW122604   0.262   4.355  17.500
 3575SOL    HW222605   0.148   4.268  17.549
 3576SOL     OW22606   3.432   3.339   6.170
 3576SOL    HW122607   3.448   3.258   6.122
 3576SOL    HW222608   3.519   3.374   6.188
 3577SOL     OW22609   2.166   1.009  12.323
 3577SOL    HW122610   2.200   0.944  12.385
 3577SOL    HW222611   2.220   0.998  12.245
 3578SOL     OW22612   3.829   4.298  18.232
 3578SOL    HW122613   3.904   4.296  18.172
 3578SOL    HW222614   3.855   4.358  18.301
 3579SOL     OW22615   0.399   2.578   4.979
 3579SOL    HW122616   0.365   2.504   5.030
 3579SOL    HW222617   0.336   2.589   4.908
 3580SOL     OW22618   0.485   4.777  17.716
 3580SOL    HW122619   0.541   4.700  17.705
 3580SOL    HW222620   0.513   0.048  17.647
 3581SOL     OW22621   1.125   2.633  18.127
 3581SOL    HW122622   1.159   2.544  18.139
 3581SOL    HW222623   1.199   2.690  18.149
 3582SOL     OW22624   2.760   3.319  20.505
 3582SOL    HW122625   2.713   3.311  20.588
 3582SOL    HW222626   2.691   3.333  20.440
 3583SOL     OW22627   2.705   2.927   5.198
 3583SOL    HW122628   2.649   2.927   5.276
 3583SOL    HW222629   2.676   3.003   5.147
 3584SOL     OW22630   3.499   1.745   2.829
 3584SOL    HW122631   3.508   1.693   2.749
 3584SOL    HW222632   3.543   1.827   2.809
 3585SOL     OW22633   2.043   3.648  18.219
 3585SOL    HW122634   1.983   3.619  18.287
 3585SOL    HW222635   1.994   3.637  18.137
 3586SOL     OW22636   1.943   0.402   6.320
 3586SOL    HW122637   1.930   0.487   6.362
 3586SOL    HW222638   2.038   0.395   6.309
 3587SOL     OW22639   4.702   3.633  18.655
 3587SOL    HW122640   4.618   3.625  18.611
 3587SOL    HW222641   4.736   3.544  18.659
 3588SOL     OW22642   0.963   3.834  15.465
 3588SOL    HW122643   1.036   3.889  15.437
 3588SOL    HW222644   0.994   3.792  15.545
 3589SOL     OW22645   1.301   2.075   4.238
 3589SOL    HW122646   1.257   2.012   4.296
 3589SOL    HW222647   1.311   2.154   4.291
 3590SOL     OW22648   0.193   3.810   7.005
 3590SOL    HW122649   0.261   3.795   7.071
 3590SOL    HW222650   0.114   3.771   7.043
 3591SOL     OW22651   0.448   4.180  13.713
 3591SOL    HW122652   0.489   4.142  13.636
 3591SOL    HW222653   0.403   4.107  13.755
 3592SOL     OW22654   0.790   1.188   2.079
 3592SOL    HW122655   0.722   1.129   2.111
 3592SOL    HW222656   0.744   1.248   2.020
 3593SOL     OW22657   2.732   0.568  15.654
 3593SOL    HW122658   2.723   0.577  15.559
 3593SOL    HW222659   2.642   0.561  15.686
 3594SOL     OW22660   2.675   1.291  13.338
 3594SOL    HW122661   2.757   1.339  13.330
 3594SOL    HW222662   2.623   1.343  13.400
 3595SOL     OW22663   1.765   2.280  21.224
 3595SOL    HW122664   1.738   2.238  21.142
 3595SOL    HW222665   1.856   2.307  21.208
 3596SOL     OW22666   1.618   0.637   2.612
 3596SOL    HW122667   1.684   0.665   2.549
 3596SOL    HW222668   1.564   0.574   2.564
 3597SOL     OW22669   2.332   3.136  16.200
 3597SOL    HW122670   2.376   3.153  16.116
 3597SOL    HW222671   2.374   3.196  16.261
 3598SOL     OW22672   2.978   4.749   2.794
 3598SOL    HW122673   3.072   4.751   2.775
 3598SOL    HW222674   2.947   0.048   2.775
 3599SOL     OW22675   1.628   3.666  16.282
 3599SOL    HW122676   1.596   3.635  16.367
 3599SOL    HW222677   1.580   3.748  16.268
 3600SOL     OW22678   1.015   4.518  15.754
 3600SOL    HW122679   0.965   4.503  15.834
 3600SOL    HW222680   0.975   4.595  15.715
 3601SOL     OW22681   3.373   4.359  15.491
 3601SOL    HW122682   3.333   4.436  15.531
 3601SOL    HW222683   3.452   4.342  15.543
 3602SOL     OW22684   2.236   4.641   3.610
 3602SOL    HW122685   2.155   4.673   3.570
 3602SOL    HW222686   2.225   4.546   3.615
 3603SOL     OW22687   0.789   0.072   6.267
 3603SOL    HW122688   0.813   0.164   6.274
 3603SOL    HW222689   0.791   0.054   6.173
 3604SOL     OW22690   2.662   2.648  16.460
 3604SOL    HW122691   2.688   2.739  16.472
 3604SOL    HW222692   2.602   2.630  16.532
 3605SOL     OW22693   1.834   1.126   0.126
 3605SOL    HW122694   1.819   1.069   0.050
 3605SOL    HW222695   1.929   1.124   0.139
 3606SOL     OW22696   0.841   1.850  16.471
 3606SOL    HW122697   0.880   1.766  16.494
 3606SOL    HW222698   0.901   1.887  16.406
 3607SOL     OW22699   1.956   1.404  20.559
 3607SOL    HW122700   2.028   1.343  20.541
 3607SOL    HW222701   1.904   1.404  20.478
 3608SOL     OW22702   3.716   1.652  14.209
 3608SOL    HW122703   3.730   1.724  14.148
 3608SOL    HW222704   3.802   1.638  14.249
 3609SOL     OW22705   4.485   4.020  18.693
 3609SOL    HW122706   4.510   3.999  18.783
 3609SOL    HW222707   4.537   3.960  18.639
 3610SOL     OW22708   1.415   1.294   3.707
 3610SOL    HW122709   1.399   1.298   3.801
 3610SOL    HW222710   1.353   1.228   3.676
 3611SOL     OW22711   0.640   0.263  19.315
 3611SOL    HW122712   0.657   0.251  19.222
 3611SOL    HW222713   0.682   0.347  19.336
 3612SOL     OW22714   4.366   1.757   6.697
 3612SOL    HW122715   4.411   1.794   6.621
 3612SOL    HW222716   4.424   1.687   6.727
 3613SOL     OW22717   2.137   2.509   6.364
 3613SOL    HW122718   2.219   2.464   6.385
 3613SOL    HW222719   2.151   2.599   6.393
 3614SOL     OW22720   4.290   0.907   1.398
 3614SOL    HW122721   4.218   0.879   1.454
 3614SOL    HW222722   4.336   0.974   1.449
 3615SOL     OW22723   0.681   4.614  12.758
 3615SOL    HW122724   0.594   4.637  12.726
 3615SOL    HW222725   0.740   4.633  12.685
 3616SOL     OW22726   2.288   2.614   2.797
 3616SOL    HW122727   2.319   2.701   2.820
 3616SOL    HW222728   2.245   2.582   2.876
 3617SOL     OW22729   2.149   0.115  14.961
 3617SOL    HW122730   2.234   0.071  14.952
 3617SOL    HW222731   2.167   0.192  15.015
 3618SOL     OW22732   3.187   2.030  17.800
 3618SOL    HW122733   3.227   2.116  17.812
 3618SOL    HW222734   3.250   1.982  17.746
 3619SOL     OW22735   4.190   1.344   6.425
 3619SOL    HW122736   4.203   1.439   6.431
 3619SOL    HW222737   4.097   1.332   6.444
 3620SOL     OW22738   0.425   0.365  17.742
 3620SOL    HW122739   0.431   0.341  17.834
 3620SOL    HW222740   0.331   0.371  17.725
 3621SOL     OW22741   0.483   0.059  17.154
 3621SOL    HW122742   0.440   0.028  17.234
 3621SOL    HW222743   0.500   4.769  17.104
 3622SOL     OW22744   0.724   3.792   4.070
 3622SOL    HW122745   0.659   3.858   4.045
 3622SOL    HW222746   0.683   3.744   4.142
 3623SOL     OW22747   2.540   3.183  16.001
 3623SOL    HW122748   2.635   3.188  15.988
 3623SOL    HW222749   2.503   3.240  15.934
 3624SOL     OW22750   4.075   1.933  19.372
 3624SOL    HW122751   4.125   1.852  19.381
 3624SOL    HW222752   4.080   1.954  19.279
 3625SOL     OW22753   2.869   2.597   3.460
 3625SOL    HW122754   2.812   2.606   3.536
 3625SOL    HW222755   2.814   2.556   3.393
 3626SOL     OW22756   4.451   3.932   0.671
 3626SOL    HW122757   4.398   4.009   0.648
 3626SOL    HW222758   4.391   3.858   0.660
 3627SOL     OW22759   3.183   3.982  16.418
 3627SOL    HW122760   3.114   3.999  16.353
 3627SOL    HW222761   3.209   4.069  16.449
 3628SOL     OW22762   0.603   0.464  16.644
 3628SOL    HW122763   0.606   0.560  16.641
 3628SOL    HW222764   0.695   0.437  16.645
 3629SOL     OW22765   2.255   3.327   1.296
 3629SOL    HW122766   2.340   3.362   1.323
 3629SOL    HW222767   2.245   3.358   1.206
 3630SOL     OW22768   3.911   0.790   4.398
 3630SOL    HW122769   3.973   0.722   4.426
 3630SOL    HW222770   3.934   0.807   4.307
 3631SOL     OW22771   3.839   0.607   6.027
 3631SOL    HW122772   3.844   0.515   6.001
 3631SOL    HW222773   3.755   0.637   5.992
 3632SOL     OW22774   1.965   0.474  21.209
 3632SOL    HW122775   1.967   0.381  21.231
 3632SOL    HW222776   1.934   0.476  21.119
 3633SOL     OW22777   2.570   2.756   6.256
 3633SOL    HW122778   2.599   2.846   6.270
 3633SOL    HW222779   2.546   2.724   6.343
 3634SOL     OW22780   1.609   0.663  17.481
 3634SOL    HW122781   1.553   0.701  17.413
 3634SOL    HW222782   1.558   0.590  17.515
 3635SOL     OW22783   4.224   4.788   4.011
 3635SOL    HW122784   4.218   0.070   4.074
 3635SOL    HW222785   4.185   0.033   3.931
 3636SOL     OW22786   4.624   3.129   6.666
 3636SOL    HW122787   4.623   3.059   6.731
 3636SOL    HW222788   4.686   3.193   6.701
 3637SOL     OW22789   0.900   1.559  19.878
 3637SOL    HW122790   0.933   1.515  19.956
 3637SOL    HW222791   0.973   1.612  19.847
 3638SOL     OW22792   3.305   1.266   3.679
 3638SOL    HW122793   3.284   1.178   3.710
 3638SOL    HW222794   3.226   1.296   3.635
 3639SOL     OW22795   1.674   4.704  21.110
 3639SOL    HW122796   1.666   0.000  21.069
 3639SOL    HW222797   1.741   4.716  21.178
 3640SOL     OW22798   1.029   3.260   2.935
 3640SOL    HW122799   1.053   3.167   2.932
 3640SOL    HW222800   0.982   3.275   2.853
 3641SOL     OW22801   1.588   1.875   4.373
 3641SOL    HW122802   1.646   1.816   4.325
 3641SOL    HW222803   1.600   1.960   4.332
 3642SOL     OW22804   3.567   0.449   5.679
 3642SOL    HW122805   3.541   0.444   5.771
 3642SOL    HW222806   3.508   0.513   5.640
 3643SOL     OW22807   1.902   1.963   6.627
 3643SOL    HW122808   1.834   1.949   6.692
 3643SOL    HW222809   1.960   1.887   6.636
 3644SOL     OW22810   3.432   2.256  19.891
 3644SOL    HW122811   3.519   2.292  19.908
 3644SOL    HW222812   3.386   2.262  19.975
 3645SOL     OW22813   4.608   0.462  20.766
 3645SOL    HW122814   4.600   0.502  20.852
 3645SOL    HW222815   4.547   0.388  20.768
 3646SOL     OW22816   3.825   0.262   2.174
 3646SOL    HW122817   3.768   0.190   2.201
 3646SOL    HW222818   3.799   0.280   2.084
 3647SOL     OW22819   0.802   0.316   1.629
 3647SOL    HW122820   0.847   0.266   1.697
 3647SOL    HW222821   0.837   0.280   1.547
 3648SOL     OW22822   2.819   1.896   6.364
 3648SOL    HW122823   2.884   1.933   6.305
 3648SOL    HW222824   2.811   1.960   6.434
 3649SOL     OW22825   0.915   2.277  19.246
 3649SOL    HW122826   1.000   2.318  19.231
 3649SOL    HW222827   0.927   2.187  19.216
 3650SOL     OW22828   3.614   4.236   4.177
 3650SOL    HW122829   3.665   4.317   4.173
 3650SOL    HW222830   3.679   4.166   4.172
 3651SOL     OW22831   0.299   1.541   0.261
 3651SOL    HW122832   0.375   1.548   0.204
 3651SOL    HW222833   0.277   1.448   0.261
 3652SOL     OW22834   3.343   1.026   6.192
 3652SOL    HW122835   3.284   1.025   6.267
 3652SOL    HW222836   3.286   1.038   6.116
 3653SOL     OW22837   3.491   0.408   8.224
 3653SOL    HW122838   3.459   0.351   8.154
 3653SOL    HW222839   3.586   0.407   8.213
 3654SOL     OW22840   3.102   2.019   4.612
 3654SOL    HW122841   3.100   2.113   4.631
 3654SOL    HW222842   3.058   1.979   4.687
 3655SOL     OW22843   2.244   1.842  18.563
 3655SOL    HW122844   2.306   1.839  18.491
 3655SOL    HW222845   2.295   1.816  18.640
 3656SOL     OW22846   1.944   1.502  17.301
 3656SOL    HW122847   1.930   1.419  17.347
 3656SOL    HW222848   1.859   1.522  17.261
 3657SOL     OW22849   3.470   2.193   5.474
 3657SOL    HW122850   3.448   2.108   5.513
 3657SOL    HW222851   3.559   2.182   5.440
 3658SOL     OW22852   2.747   1.483  16.838
 3658SOL    HW122853   2.670   1.533  16.812
 3658SOL    HW222854   2.775   1.438  16.758
 3659SOL     OW22855   1.741   2.972   3.606
 3659SOL    HW122856   1.754   2.984   3.700
 3659SOL    HW222857   1.668   2.910   3.600
 3660SOL     OW22858   1.951   3.924   0.998
 3660SOL    HW122859   1.903   3.886   0.924
 3660SOL    HW222860   1.917   3.878   1.075
 3661SOL     OW22861   4.415   0.940  16.752
 3661SOL    HW122862   4.497   0.989  16.758
 3661SOL    HW222863   4.442   0.848  16.748
 3662SOL     OW22864   4.692   3.271   4.990
 3662SOL    HW122865   4.738   3.193   4.959
 3662SOL    HW222866   4.704   3.335   4.920
 3663SOL     OW22867   2.862   3.843   4.641
 3663SOL    HW122868   2.826   3.783   4.576
 3663SOL    HW222869   2.786   3.887   4.678
 3664SOL     OW22870   1.972   0.342  18.200
 3664SOL    HW122871   1.904   0.355  18.266
 3664SOL    HW222872   2.042   0.402  18.225
 3665SOL     OW22873   0.843   0.183   3.528
 3665SOL    HW122874   0.851   0.248   3.598
 3665SOL    HW222875   0.888   0.222   3.453
 3666SOL     OW22876   3.053   2.893   4.722
 3666SOL    HW122877   3.087   2.898   4.633
 3666SOL    HW222878   2.959   2.907   4.712
 3667SOL     OW22879   1.319   4.734   4.187
 3667SOL    HW122880   1.377   4.768   4.118
 3667SOL    HW222881   1.342   4.642   4.195
 3668SOL     OW22882   2.746   2.199   2.961
 3668SOL    HW122883   2.662   2.245   2.959
 3668SOL    HW222884   2.786   2.226   3.044
 3669SOL     OW22885   4.059   1.023  15.100
 3669SOL    HW122886   4.143   0.992  15.132
 3669SOL    HW222887   4.081   1.098  15.045
 3670SOL     OW22888   0.838   4.431   1.629
 3670SOL    HW122889   0.925   4.418   1.668
 3670SOL    HW222890   0.825   4.526   1.631
 3671SOL     OW22891   0.257   4.000   0.447
 3671SOL    HW122892   0.207   3.995   0.528
 3671SOL    HW222893   0.280   4.093   0.439
 3672SOL     OW22894   2.131   1.805  17.109
 3672SOL    HW122895   2.045   1.793  17.150
 3672SOL    HW222896   2.193   1.799  17.182
 3673SOL     OW22897   3.220   2.053  18.754
 3673SOL    HW122898   3.169   2.017  18.827
 3673SOL    HW222899   3.210   1.989  18.684
 3674SOL     OW22900   1.177   4.183   4.033
 3674SOL    HW122901   1.183   4.258   3.973
 3674SOL    HW222902   1.251   4.195   4.093
 3675SOL     OW22903   1.638   3.059   5.357
 3675SOL    HW122904   1.732   3.040   5.349
 3675SOL    HW222905   1.604   2.988   5.411
 3676SOL     OW22906   4.388   0.208   1.879
 3676SOL    HW122907   4.397   0.224   1.973
 3676SOL    HW222908   4.386   0.113   1.871
 3677SOL     OW22909   3.379   4.495   2.104
 3677SOL    HW122910   3.380   4.400   2.119
 3677SOL    HW222911   3.323   4.530   2.174
 3678SOL     OW22912   3.797   2.642  19.234
 3678SOL    HW122913   3.733   2.616  19.168
 3678SOL    HW222914   3.822   2.560  19.277
 3679SOL     OW22915   0.509   2.306   3.092
 3679SOL    HW122916   0.414   2.316   3.096
 3679SOL    HW222917   0.531   2.320   3.000
 3680SOL     OW22918   2.978   0.630  21.252
 3680SOL    HW122919   2.896   0.597  21.216
 3680SOL    HW222920   2.951   0.693   0.061
 3681SOL     OW22921   2.288   4.065  21.231
 3681SOL    HW122922   2.207   4.108   0.003
 3681SOL    HW222923   2.358   4.125   0.001
 3682SOL     OW22924   2.549   4.292   0.987
 3682SOL    HW122925   2.636   4.321   1.016
 3682SOL    HW222926   2.564   4.204   0.953
 3683SOL     OW22927   3.622   3.052   0.542
 3683SOL    HW122928   3.658   3.119   0.483
 3683SOL    HW222929   3.564   3.000   0.486
 3684SOL     OW22930   1.539   3.317  17.524
 3684SOL    HW122931   1.628   3.330  17.556
 3684SOL    HW222932   1.523   3.391  17.466
 3685SOL     OW22933   2.188   3.843   6.022
 3685SOL    HW122934   2.150   3.915   6.072
 3685SOL    HW222935   2.237   3.792   6.086
 3686SOL     OW22936   3.074   1.915  15.753
 3686SOL    HW122937   3.043   1.949  15.837
 3686SOL    HW222938   3.087   1.821  15.768
 3687SOL     OW22939   4.170   3.304  20.963
 3687SOL    HW122940   4.149   3.350  21.044
 3687SOL    HW222941   4.088   3.261  20.938
 3688SOL     OW22942   1.183   3.947  17.540
 3688SOL    HW122943   1.217   3.953  17.629
 3688SOL    HW222944   1.199   3.856  17.515
 3689SOL     OW22945   2.244   2.525   4.914
 3689SOL    HW122946   2.299   2.448   4.931
 3689SOL    HW222947   2.232   2.526   4.819
 3690SOL     OW22948   4.097   0.787  20.968
 3690SOL    HW122949   4.189   0.763  20.978
 3690SOL    HW222950   4.094   0.832  20.883
 3691SOL     OW22951   3.211   4.044   2.059
 3691SOL    HW122952   3.132   4.096   2.045
 3691SOL    HW222953   3.181   3.953   2.053
 3692SOL     OW22954   3.152   0.071  19.878
 3692SOL    HW122955   3.087   0.134  19.911
 3692SOL    HW222956   3.128   0.058  19.786
 3693SOL     OW22957   0.385   1.265   0.803
 3693SOL    HW122958   0.436   1.252   0.723
 3693SOL    HW222959   0.421   1.202   0.865
 3694SOL     OW22960   4.075   1.707  18.954
 3694SOL    HW122961   4.065   1.773  19.023
 3694SOL    HW222962   4.165   1.718  18.924
 3695SOL     OW22963   1.187   2.781   4.487
 3695SOL    HW122964   1.250   2.717   4.519
 3695SOL    HW222965   1.198   2.857   4.544
 3696SOL     OW22966   0.366   4.030  20.473
 3696SOL    HW122967   0.300   4.027  20.542
 3696SOL    HW222968   0.435   3.971  20.503
 3697SOL     OW22969   2.062   0.659  15.343
 3697SOL    HW122970   2.037   0.741  15.386
 3697SOL    HW222971   2.134   0.684  15.284
 3698SOL     OW22972   2.248   1.831  15.758
 3698SOL    HW122973   2.300   1.788  15.826
 3698SOL    HW222974   2.188   1.763  15.727
 3699SOL     OW22975   2.146   3.821   5.195
 3699SOL    HW122976   2.132   3.865   5.279
 3699SOL    HW222977   2.058   3.813   5.158
 3700SOL     OW22978   3.188   4.036  18.765
 3700SOL    HW122979   3.150   4.112  18.810
 3700SOL    HW222980   3.241   3.993  18.832
 3701SOL     OW22981   4.584   1.790   1.107
 3701SOL    HW122982   4.579   1.714   1.049
 3701SOL    HW222983   4.505   1.785   1.160
 3702SOL     OW22984   3.983   0.666   5.297
 3702SOL    HW122985   3.993   0.683   5.391
 3702SOL    HW222986   3.970   0.571   5.291
 3703SOL     OW22987   1.720   1.916  19.944
 3703SOL    HW122988   1.680   1.950  20.024
 3703SOL    HW222989   1.793   1.975  19.927
 3704SOL     OW22990   3.247   2.080   6.037
 3704SOL    HW122991   3.309   2.031   5.983
 3704SOL    HW222992   3.202   2.138   5.976
 3705SOL     OW22993   1.270   3.834  20.025
 3705SOL    HW122994   1.328   3.907  20.004
 3705SOL    HW222995   1.290   3.812  20.116
 3706SOL     OW22996   1.005   3.977   4.972
 3706SOL    HW122997   1.034   3.896   4.930
 3706SOL    HW222998   1.084   4.013   5.013
 3707SOL     OW22999   0.971   4.070   2.904
 3707SOL    HW123000   0.913   4.122   2.849
 3707SOL    HW223001   1.059   4.091   2.874
 3708SOL     OW23002   0.170   1.255   0.226
 3708SOL    HW123003   0.133   1.262   0.314
 3708SOL    HW223004   0.252   1.207   0.238
 3709SOL     OW23005   4.085   4.585   9.857
 3709SOL    HW123006   4.025   4.644   9.903
 3709SOL    HW223007   4.171   4.625   9.867
 3710SOL     OW23008   0.909   4.149   4.781
 3710SOL    HW123009   0.840   4.192   4.832
 3710SOL    HW223010   0.928   4.069   4.830
 3711SOL     OW23011   1.530   4.060  18.825
 3711SOL    HW123012   1.544   3.966  18.820
 3711SOL    HW223013   1.603   4.098  18.776
 3712SOL     OW23014   3.696   4.117  17.468
 3712SOL    HW123015   3.687   4.126  17.373
 3712SOL    HW223016   3.706   4.207  17.500
 3713SOL     OW23017   4.354   1.288  20.648
 3713SOL    HW123018   4.305   1.271  20.568
 3713SOL    HW223019   4.439   1.247  20.633
 3714SOL     OW23020   3.452   2.516  19.659
 3714SOL    HW123021   3.449   2.421  19.646
 3714SOL    HW223022   3.427   2.529  19.751
 3715SOL     OW23023   2.728   4.594   3.647
 3715SOL    HW123024   2.791   4.661   3.620
 3715SOL    HW223025   2.642   4.632   3.627
 3716SOL     OW23026   1.581   4.464   5.937
 3716SOL    HW123027   1.552   4.422   6.018
 3716SOL    HW223028   1.539   4.414   5.867
 3717SOL     OW23029   3.393   0.162  16.489
 3717SOL    HW123030   3.299   0.169  16.471
 3717SOL    HW223031   3.425   0.099  16.424
 3718SOL     OW23032   0.863   2.676  16.301
 3718SOL    HW123033   0.816   2.753  16.270
 3718SOL    HW223034   0.870   2.620  16.224
 3719SOL     OW23035   2.018   2.982  20.073
 3719SOL    HW123036   1.994   2.898  20.112
 3719SOL    HW223037   2.032   2.962  19.980
 3720SOL     OW23038   0.547   1.887  16.429
 3720SOL    HW123039   0.635   1.867  16.462
 3720SOL    HW223040   0.562   1.944  16.353
 3721SOL     OW23041   1.325   3.383  12.791
 3721SOL    HW123042   1.290   3.325  12.723
 3721SOL    HW223043   1.395   3.332  12.832
 3722SOL     OW23044   4.619   3.886  19.868
 3722SOL    HW123045   4.713   3.876  19.882
 3722SOL    HW223046   4.610   3.969  19.822
 3723SOL     OW23047   4.403   0.049  18.950
 3723SOL    HW123048   4.473   0.097  18.905
 3723SOL    HW223049   4.402   0.085  19.039
 3724SOL     OW23050   4.669   2.544  16.776
 3724SOL    HW123051   4.665   2.459  16.820
 3724SOL    HW223052   4.713   2.526  16.693
 3725SOL     OW23053   0.630   3.506  18.535
 3725SOL    HW123054   0.672   3.509  18.621
 3725SOL    HW223055   0.574   3.584  18.533
 3726SOL     OW23056   3.633   2.068   8.533
 3726SOL    HW123057   3.570   2.119   8.482
 3726SOL    HW223058   3.709   2.126   8.542
 3727SOL     OW23059   3.375   2.555  18.247
 3727SOL    HW123060   3.424   2.532  18.168
 3727SOL    HW223061   3.442   2.574  18.312
 3728SOL     OW23062   4.554   1.708  20.394
 3728SOL    HW123063   4.593   1.795  20.383
 3728SOL    HW223064   4.460   1.722  20.381
 3729SOL     OW23065   3.125   2.839   3.141
 3729SOL    HW123066   3.114   2.879   3.055
 3729SOL    HW223067   3.151   2.911   3.198
 3730SOL     OW23068   0.787   1.417   0.179
 3730SOL    HW123069   0.808   1.371   0.098
 3730SOL    HW223070   0.864   1.471   0.196
 3731SOL     OW23071   2.364   3.831  18.397
 3731SOL    HW123072   2.411   3.852  18.316
 3731SOL    HW223073   2.406   3.751  18.429
 3732SOL     OW23074   1.736   1.236   3.743
 3732SOL    HW123075   1.648   1.234   3.780
 3732SOL    HW223076   1.794   1.235   3.819
 3733SOL     OW23077   1.165   1.399   0.333
 3733SOL    HW123078   1.124   1.462   0.274
 3733SOL    HW223079   1.140   1.429   0.421
 3734SOL     OW23080   2.336   4.106  19.647
 3734SOL    HW123081   2.303   4.096  19.558
 3734SOL    HW223082   2.321   4.198  19.669
 3735SOL     OW23083   0.118   2.297   0.733
 3735SOL    HW123084   0.052   2.338   0.789
 3735SOL    HW223085   0.088   2.314   0.644
 3736SOL     OW23086   2.753   0.607  18.105
 3736SOL    HW123087   2.784   0.688  18.064
 3736SOL    HW223088   2.768   0.620  18.199
 3737SOL     OW23089   0.403   4.496   5.073
 3737SOL    HW123090   0.345   4.496   4.997
 3737SOL    HW223091   0.488   4.521   5.037
 3738SOL     OW23092   0.335   2.903  18.870
 3738SOL    HW123093   0.293   2.867  18.792
 3738SOL    HW223094   0.335   2.998  18.856
 3739SOL     OW23095   2.685   3.356  14.629
 3739SOL    HW123096   2.742   3.430  14.608
 3739SOL    HW223097   2.635   3.341  14.549
 3740SOL     OW23098   0.312   2.392   7.250
 3740SOL    HW123099   0.317   2.481   7.215
 3740SOL    HW223100   0.401   2.374   7.281
 3741SOL     OW23101   3.874   3.483  13.893
 3741SOL    HW123102   3.963   3.459  13.918
 3741SOL    HW223103   3.843   3.539  13.964
 3742SOL     OW23104   4.017   3.356  15.288
 3742SOL    HW123105   4.052   3.301  15.358
 3742SOL    HW223106   4.086   3.357  15.222
 3743SOL     OW23107   3.010   3.074  15.658
 3743SOL    HW123108   3.059   3.024  15.723
 3743SOL    HW223109   3.077   3.105  15.597
 3744SOL     OW23110   0.963   0.168  16.908
 3744SOL    HW123111   0.937   0.112  16.981
 3744SOL    HW223112   0.891   0.160  16.845
 3745SOL     OW23113   0.037   2.823   2.562
 3745SOL    HW123114   0.042   2.754   2.496
 3745SOL    HW223115   0.092   2.893   2.528
 3746SOL     OW23116   2.625   3.368   5.365
 3746SOL    HW123117   2.679   3.447   5.365
 3746SOL    HW223118   2.582   3.368   5.451
 3747SOL     OW23119   2.961   1.764  19.217
 3747SOL    HW123120   2.870   1.778  19.243
 3747SOL    HW223121   3.009   1.837  19.257
 3748SOL     OW23122   0.537   4.088  15.602
 3748SOL    HW123123   0.544   3.998  15.570
 3748SOL    HW223124   0.487   4.134  15.535
 3749SOL     OW23125   1.705   1.351   4.020
 3749SOL    HW123126   1.764   1.424   4.039
 3749SOL    HW223127   1.697   1.304   4.103
 3750SOL     OW23128   0.294   1.618  20.451
 3750SOL    HW123129   0.272   1.579  20.536
 3750SOL    HW223130   0.388   1.633  20.456
 3751SOL     OW23131   1.095   0.822   2.018
 3751SOL    HW123132   1.067   0.905   1.980
 3751SOL    HW223133   1.037   0.757   1.979
 3752SOL     OW23134   2.198   3.355  18.467
 3752SOL    HW123135   2.220   3.435  18.515
 3752SOL    HW223136   2.263   3.350  18.397
 3753SOL     OW23137   2.704   4.264  14.249
 3753SOL    HW123138   2.697   4.324  14.323
 3753SOL    HW223139   2.747   4.186  14.285
 3754SOL     OW23140   1.587   2.412   5.783
 3754SOL    HW123141   1.670   2.450   5.810
 3754SOL    HW223142   1.602   2.317   5.785
 3755SOL     OW23143   4.002   4.676  13.505
 3755SOL    HW123144   4.049   4.735  13.447
 3755SOL    HW223145   4.027   4.588  13.476
 3756SOL     OW23146   1.955   1.382  15.540
 3756SOL    HW123147   1.991   1.304  15.583
 3756SOL    HW223148   2.027   1.415  15.486
 3757SOL     OW23149   0.875   0.993  18.895
 3757SOL    HW123150   0.927   1.068  18.866
 3757SOL    HW223151   0.898   0.982  18.987
 3758SOL     OW23152   0.097   3.621  16.126
 3758SOL    HW123153   0.011   3.638  16.164
 3758SOL    HW223154   0.083   3.624  16.031
 3759SOL     OW23155   0.193   2.220  20.514
 3759SOL    HW123156   0.134   2.170  20.458
 3759SOL    HW223157   0.233   2.154  20.571
 3760SOL     OW23158   3.909   3.173  18.756
 3760SOL    HW123159   3.855   3.249  18.778
 3760SOL    HW223160   3.960   3.201  18.680
 3761SOL     OW23161   2.952   1.343  19.791
 3761SOL    HW123162   2.905   1.384  19.719
 3761SOL    HW223163   2.922   1.252  19.791
 3762SOL     OW23164   2.900   3.195  18.510
 3762SOL    HW123165   2.983   3.203  18.558
 3762SOL    HW223166   2.871   3.105  18.527
 3763SOL     OW23167   0.252   4.023  17.079
 3763SOL    HW123168   0.334   3.994  17.120
 3763SOL    HW223169   0.233   4.107  17.121
 3764SOL     OW23170   3.185   2.787  18.702
 3764SOL    HW123171   3.227   2.868  18.730
 3764SOL    HW223172   3.197   2.785  18.607
 3765SOL     OW23173   1.917   1.083   5.178
 3765SOL    HW123174   1.829   1.087   5.140
 3765SOL    HW223175   1.945   0.993   5.163
 3766SOL     OW23176   0.014   1.696   0.732
 3766SOL    HW123177   0.029   1.616   0.782
 3766SOL    HW223178   0.074   1.760   0.771
 3767SOL     OW23179   0.864   2.998   6.472
 3767SOL    HW123180   0.878   3.072   6.413
 3767SOL    HW223181   0.846   2.924   6.414
 3768SOL     OW23182   0.497   3.390   4.395
 3768SOL    HW123183   0.447   3.309   4.387
 3768SOL    HW223184   0.498   3.408   4.489
 3769SOL     OW23185   0.957   0.164  14.342
 3769SOL    HW123186   0.884   0.188  14.399
 3769SOL    HW223187   0.952   0.226  14.270
 3770SOL     OW23188   1.197   0.175  20.666
 3770SOL    HW123189   1.206   0.131  20.582
 3770SOL    HW223190   1.247   0.121  20.727
 3771SOL     OW23191   2.278   4.679  18.864
 3771SOL    HW123192   2.360   4.641  18.833
 3771SOL    HW223193   2.281   4.670  18.959
 3772SOL     OW23194   2.515   1.994   6.555
 3772SOL    HW123195   2.430   2.038   6.562
 3772SOL    HW223196   2.518   1.962   6.465
 3773SOL     OW23197   4.358   0.901   3.048
 3773SOL    HW123198   4.349   0.843   2.973
 3773SOL    HW223199   4.269   0.910   3.082
 3774SOL     OW23200   3.873   3.909  17.451
 3774SOL    HW123201   3.840   3.999  17.458
 3774SOL    HW223202   3.856   3.870  17.537
 3775SOL     OW23203   1.243   4.631  20.565
 3775SOL    HW123204   1.273   4.686  20.493
 3775SOL    HW223205   1.150   4.653  20.575
 3776SOL     OW23206   4.598   4.370  19.013
 3776SOL    HW123207   4.593   4.465  19.001
 3776SOL    HW223208   4.507   4.341  19.017
 3777SOL     OW23209   1.636   4.768  20.447
 3777SOL    HW123210   1.711   0.038  20.452
 3777SOL    HW223211   1.668   4.686  20.485
 3778SOL     OW23212   4.071   2.915  16.073
 3778SOL    HW123213   4.008   2.928  16.144
 3778SOL    HW223214   4.150   2.882  16.116
 3779SOL     OW23215   4.428   3.333  17.418
 3779SOL    HW123216   4.462   3.261  17.472
 3779SOL    HW223217   4.468   3.319  17.332
 3780SOL     OW23218   2.872   0.360  18.276
 3780SOL    HW123219   2.890   0.305  18.353
 3780SOL    HW223220   2.915   0.443  18.295
 3781SOL     OW23221   3.517   0.519  18.402
 3781SOL    HW123222   3.450   0.456  18.375
 3781SOL    HW223223   3.599   0.480  18.373
 3782SOL     OW23224   2.278   1.988  17.519
 3782SOL    HW123225   2.235   2.072  17.538
 3782SOL    HW223226   2.343   1.978  17.589
 3783SOL     OW23227   1.609   2.207   0.178
 3783SOL    HW123228   1.565   2.275   0.229
 3783SOL    HW223229   1.676   2.253   0.127
 3784SOL     OW23230   0.049   1.032  18.587
 3784SOL    HW123231   0.065   1.078  18.669
 3784SOL    HW223232   0.020   0.945  18.614
 3785SOL     OW23233   2.733   1.636  18.297
 3785SOL    HW123234   2.748   1.728  18.276
 3785SOL    HW223235   2.796   1.617  18.366
 3786SOL     OW23236   2.310   4.591   2.771
 3786SOL    HW123237   2.324   4.504   2.734
 3786SOL    HW223238   2.392   4.612   2.815
 3787SOL     OW23239   4.759   2.705  18.754
 3787SOL    HW123240   0.034   2.724  18.686
 3787SOL    HW223241   0.021   2.683  18.831
 3788SOL     OW23242   1.180   0.080   0.827
 3788SOL    HW123243   1.185   0.170   0.858
 3788SOL    HW223244   1.146   0.088   0.738
 3789SOL     OW23245   1.188   3.210   5.019
 3789SOL    HW123246   1.121   3.187   5.083
 3789SOL    HW223247   1.181   3.305   5.010
 3790SOL     OW23248   4.121   3.080   1.883
 3790SOL    HW123249   4.189   3.082   1.950
 3790SOL    HW223250   4.124   2.991   1.849
 3791SOL     OW23251   4.534   3.596   6.520
 3791SOL    HW123252   4.545   3.523   6.581
 3791SOL    HW223253   4.603   3.582   6.455
 3792SOL     OW23254   1.720   3.976   2.346
 3792SOL    HW123255   1.646   3.921   2.322
 3792SOL    HW223256   1.774   3.979   2.267
 3793SOL     OW23257   0.428   4.133  15.852
 3793SOL    HW123258   0.503   4.095  15.898
 3793SOL    HW223259   0.456   4.136  15.760
 3794SOL     OW23260   2.326   0.701   4.457
 3794SOL    HW123261   2.270   0.758   4.405
 3794SOL    HW223262   2.413   0.710   4.418
 3795SOL     OW23263   0.439   1.972   3.893
 3795SOL    HW123264   0.391   1.899   3.854
 3795SOL    HW223265   0.380   2.005   3.961
 3796SOL     OW23266   1.367   4.377   3.304
 3796SOL    HW123267   1.314   4.303   3.274
 3796SOL    HW223268   1.417   4.342   3.378
 3797SOL     OW23269   2.414   3.185   5.036
 3797SOL    HW123270   2.379   3.116   5.092
 3797SOL    HW223271   2.341   3.246   5.024
 3798SOL     OW23272   4.024   0.376  16.430
 3798SOL    HW123273   3.964   0.448  16.449
 3798SOL    HW223274   4.101   0.418  16.391
 3799SOL     OW23275   1.128   1.259   3.870
 3799SOL    HW123276   1.170   1.289   3.951
 3799SOL    HW223277   1.083   1.336   3.836
 3800SOL     OW23278   2.007   1.671   3.852
 3800SOL    HW123279   2.006   1.690   3.758
 3800SOL    HW223280   2.097   1.643   3.869
 3801SOL     OW23281   3.914   0.448  15.557
 3801SOL    HW123282   3.913   0.362  15.515
 3801SOL    HW223283   4.002   0.482  15.541
 3802SOL     OW23284   3.417   2.895  20.650
 3802SOL    HW123285   3.367   2.886  20.569
 3802SOL    HW223286   3.365   2.848  20.715
 3803SOL     OW23287   0.918   4.085  13.706
 3803SOL    HW123288   0.979   4.120  13.771
 3803SOL    HW223289   0.869   4.162  13.676
 3804SOL     OW23290   1.327   4.307   2.405
 3804SOL    HW123291   1.392   4.337   2.469
 3804SOL    HW223292   1.375   4.299   2.323
 3805SOL     OW23293   0.075   0.346  15.554
 3805SOL    HW123294   0.017   0.277  15.587
 3805SOL    HW223295   0.143   0.299  15.505
 3806SOL     OW23296   3.347   1.955   5.595
 3806SOL    HW123297   3.398   1.991   5.667
 3806SOL    HW223298   3.256   1.972   5.619
 3807SOL     OW23299   2.266   4.190   3.204
 3807SOL    HW123300   2.179   4.177   3.242
 3807SOL    HW223301   2.292   4.103   3.174
 3808SOL     OW23302   3.706   1.796  12.512
 3808SOL    HW123303   3.655   1.877  12.517
 3808SOL    HW223304   3.794   1.825  12.487
 3809SOL     OW23305   4.157   0.109  15.551
 3809SOL    HW123306   4.073   0.143  15.583
 3809SOL    HW223307   4.163   0.021  15.587
 3810SOL     OW23308   1.883   0.191  17.108
 3810SOL    HW123309   1.803   0.216  17.063
 3810SOL    HW223310   1.893   0.255  17.178
 3811SOL     OW23311   3.344   0.024  13.157
 3811SOL    HW123312   3.341   0.114  13.190
 3811SOL    HW223313   3.410   4.771  13.211
 3812SOL     OW23314   2.604   3.183   1.411
 3812SOL    HW123315   2.616   3.241   1.336
 3812SOL    HW223316   2.690   3.143   1.424
 3813SOL     OW23317   1.061   1.916   0.297
 3813SOL    HW123318   0.998   1.904   0.226
 3813SOL    HW223319   1.145   1.890   0.259
 3814SOL     OW23320   4.729   1.256   0.445
 3814SOL    HW123321   4.729   1.352   0.443
 3814SOL    HW223322   4.745   1.234   0.537
 3815SOL     OW23323   3.350   4.463   4.960
 3815SOL    HW123324   3.288   4.405   4.915
 3815SOL    HW223325   3.315   4.551   4.946
 3816SOL     OW23326   3.151   4.454  11.639
 3816SOL    HW123327   3.170   4.360  11.637
 3816SOL    HW223328   3.189   4.484  11.722
 3817SOL     OW23329   3.811   1.849  17.985
 3817SOL    HW123330   3.740   1.897  18.027
 3817SOL    HW223331   3.767   1.791  17.922
 3818SOL     OW23332   1.810   2.080   8.756
 3818SOL    HW123333   1.738   2.019   8.737
 3818SOL    HW223334   1.821   2.075   8.851
 3819SOL     OW23335   2.189   0.578   0.400
 3819SOL    HW123336   2.097   0.564   0.378
 3819SOL    HW223337   2.212   0.503   0.455
 3820SOL     OW23338   4.124   0.487  17.007
 3820SOL    HW123339   4.086   0.571  16.981
 3820SOL    HW223340   4.197   0.473  16.947
 3821SOL     OW23341   2.515   1.227   6.350
 3821SOL    HW123342   2.523   1.190   6.262
 3821SOL    HW223343   2.424   1.258   6.354
 3822SOL     OW23344   1.016   3.451  18.670
 3822SOL    HW123345   0.993   3.390  18.599
 3822SOL    HW223346   1.030   3.535  18.626
 3823SOL     OW23347   3.295   3.692  18.397
 3823SOL    HW123348   3.341   3.608  18.405
 3823SOL    HW223349   3.349   3.753  18.448
 3824SOL     OW23350   0.646   2.383  17.821
 3824SOL    HW123351   0.734   2.352  17.798
 3824SOL    HW223352   0.640   2.368  17.915
 3825SOL     OW23353   0.889   4.242  15.532
 3825SOL    HW123354   0.954   4.295  15.485
 3825SOL    HW223355   0.941   4.177  15.579
 3826SOL     OW23356   3.328   2.653  14.541
 3826SOL    HW123357   3.395   2.610  14.488
 3826SOL    HW223358   3.293   2.722  14.485
 3827SOL     OW23359   4.694   1.342   5.512
 3827SOL    HW123360   4.690   1.421   5.458
 3827SOL    HW223361   4.643   1.364   5.590
 3828SOL     OW23362   4.266   0.362  15.530
 3828SOL    HW123363   4.255   0.409  15.447
 3828SOL    HW223364   4.236   0.273  15.512
 3829SOL     OW23365   1.004   0.053   6.453
 3829SOL    HW123366   0.980   0.146   6.451
 3829SOL    HW223367   0.971   0.018   6.370
 3830SOL     OW23368   3.745   3.945  20.553
 3830SOL    HW123369   3.699   4.022  20.521
 3830SOL    HW223370   3.692   3.913  20.626
 3831SOL     OW23371   0.320   2.812  19.962
 3831SOL    HW123372   0.351   2.732  20.004
 3831SOL    HW223373   0.399   2.852  19.925
 3832SOL     OW23374   0.401   4.160  15.187
 3832SOL    HW123375   0.429   4.071  15.208
 3832SOL    HW223376   0.381   4.157  15.093
 3833SOL     OW23377   4.369   1.293   3.245
 3833SOL    HW123378   4.416   1.245   3.177
 3833SOL    HW223379   4.398   1.384   3.236
 3834SOL     OW23380   4.701   0.525  20.195
 3834SOL    HW123381   4.694   0.438  20.155
 3834SOL    HW223382   4.759   0.512  20.270
 3835SOL     OW23383   3.368   2.882   1.782
 3835SOL    HW123384   3.322   2.945   1.837
 3835SOL    HW223385   3.431   2.935   1.733
 3836SOL     OW23386   1.041   4.587  17.893
 3836SOL    HW123387   0.993   4.668  17.911
 3836SOL    HW223388   1.127   4.616  17.864
 3837SOL     OW23389   0.184   0.215   3.965
 3837SOL    HW123390   0.181   0.308   3.943
 3837SOL    HW223391   0.192   0.171   3.880
 3838SOL     OW23392   1.762   1.534  18.173
 3838SOL    HW123393   1.695   1.602  18.175
 3838SOL    HW223394   1.794   1.529  18.263
 3839SOL     OW23395   1.032   2.537  15.222
 3839SOL    HW123396   0.950   2.505  15.184
 3839SOL    HW223397   1.030   2.508  15.313
 3840SOL     OW23398   2.425   1.801  16.576
 3840SOL    HW123399   2.482   1.782  16.502
 3840SOL    HW223400   2.336   1.793  16.541
 3841SOL     OW23401   3.442   1.071   4.365
 3841SOL    HW123402   3.355   1.033   4.353
 3841SOL    HW223403   3.501   0.996   4.373
 3842SOL     OW23404   3.349   2.503   4.015
 3842SOL    HW123405   3.422   2.446   3.991
 3842SOL    HW223406   3.272   2.464   3.973
 3843SOL     OW23407   0.880   2.223  17.716
 3843SOL    HW123408   0.926   2.162  17.659
 3843SOL    HW223409   0.941   2.295  17.728
 3844SOL     OW23410   1.538   0.991  15.611
 3844SOL    HW123411   1.557   0.940  15.532
 3844SOL    HW223412   1.535   0.926  15.681
 3845SOL     OW23413   3.720   0.468  20.666
 3845SOL    HW123414   3.677   0.431  20.589
 3845SOL    HW223415   3.673   0.430  20.741
 3846SOL     OW23416   4.632   3.396   1.443
 3846SOL    HW123417   4.540   3.423   1.447
 3846SOL    HW223418   4.634   3.326   1.378
 3847SOL     OW23419   3.764   3.428  18.328
 3847SOL    HW123420   3.777   3.421  18.423
 3847SOL    HW223421   3.729   3.516  18.315
 3848SOL     OW23422   1.176   1.364  16.554
 3848SOL    HW123423   1.161   1.298  16.486
 3848SOL    HW223424   1.255   1.334  16.599
 3849SOL     OW23425   0.002   1.868   3.064
 3849SOL    HW123426   0.036   1.789   3.106
 3849SOL    HW223427   0.043   1.869   2.977
 3850SOL     OW23428   4.619   4.489   3.273
 3850SOL    HW123429   4.686   4.556   3.290
 3850SOL    HW223430   4.607   4.445   3.357
 3851SOL     OW23431   4.440   0.263   0.697
 3851SOL    HW123432   4.484   0.258   0.612
 3851SOL    HW223433   4.455   0.178   0.738
 3852SOL     OW23434   4.021   3.227  12.998
 3852SOL    HW123435   3.953   3.179  13.046
 3852SOL    HW223436   4.016   3.193  12.909
 3853SOL     OW23437   2.635   2.123   2.082
 3853SOL    HW123438   2.673   2.116   1.994
 3853SOL    HW223439   2.670   2.047   2.129
 3854SOL     OW23440   2.947   3.929   0.203
 3854SOL    HW123441   2.915   3.942   0.114
 3854SOL    HW223442   2.954   4.017   0.239
 3855SOL     OW23443   0.792   4.116   1.170
 3855SOL    HW123444   0.864   4.128   1.232
 3855SOL    HW223445   0.729   4.061   1.217
 3856SOL     OW23446   1.353   1.157  14.716
 3856SOL    HW123447   1.405   1.133  14.793
 3856SOL    HW223448   1.415   1.201  14.658
 3857SOL     OW23449   3.672   1.237   6.084
 3857SOL    HW123450   3.706   1.243   5.995
 3857SOL    HW223451   3.696   1.320   6.125
 3858SOL     OW23452   2.744   2.277  15.519
 3858SOL    HW123453   2.678   2.346  15.509
 3858SOL    HW223454   2.827   2.319  15.496
 3859SOL     OW23455   2.378   4.358  14.208
 3859SOL    HW123456   2.380   4.291  14.140
 3859SOL    HW223457   2.443   4.329  14.272
 3860SOL     OW23458   1.005   4.091  17.194
 3860SOL    HW123459   0.932   4.079  17.255
 3860SOL    HW223460   1.072   4.030  17.224
 3861SOL     OW23461   3.754   3.000  14.968
 3861SOL    HW123462   3.762   3.082  15.016
 3861SOL    HW223463   3.759   3.025  14.876
 3862SOL     OW23464   3.019   0.951  18.669
 3862SOL    HW123465   3.062   0.873  18.705
 3862SOL    HW223466   2.935   0.919  18.636
 3863SOL     OW23467   0.669   4.588   2.503
 3863SOL    HW123468   0.758   4.554   2.498
 3863SOL    HW223469   0.629   4.564   2.419
 3864SOL     OW23470   3.586   4.377  19.866
 3864SOL    HW123471   3.657   4.430  19.901
 3864SOL    HW223472   3.540   4.435  19.806
 3865SOL     OW23473   0.305   1.555  18.993
 3865SOL    HW123474   0.325   1.638  18.949
 3865SOL    HW223475   0.388   1.508  18.994
 3866SOL     OW23476   0.332   3.435   0.278
 3866SOL    HW123477   0.241   3.422   0.306
 3866SOL    HW223478   0.364   3.347   0.258
 3867SOL     OW23479   0.931   4.761   1.324
 3867SOL    HW123480   0.887   4.683   1.357
 3867SOL    HW223481   0.895   4.775   1.237
 3868SOL     OW23482   0.309   3.902  15.423
 3868SOL    HW123483   0.395   3.881  15.460
 3868SOL    HW223484   0.299   3.996  15.437
 3869SOL     OW23485   3.109   2.829   6.013
 3869SOL    HW123486   3.154   2.745   6.006
 3869SOL    HW223487   3.132   2.861   6.100
 3870SOL     OW23488   3.816   4.627   3.404
 3870SOL    HW123489   3.824   4.650   3.497
 3870SOL    HW223490   3.832   4.709   3.358
 3871SOL     OW23491   2.600   1.080   2.661
 3871SOL    HW123492   2.626   1.038   2.579
 3871SOL    HW223493   2.508   1.104   2.647
 3872SOL     OW23494   4.557   1.228   4.975
 3872SOL    HW123495   4.525   1.304   4.926
 3872SOL    HW223496   4.479   1.193   5.019
 3873SOL     OW23497   4.313   4.183  17.713
 3873SOL    HW123498   4.254   4.115  17.746
 3873SOL    HW223499   4.320   4.166  17.619
 3874SOL     OW23500   3.998   1.091   8.413
 3874SOL    HW123501   4.067   1.122   8.471
 3874SOL    HW223502   4.029   1.005   8.383
 3875SOL     OW23503   1.895   0.706   0.060
 3875SOL    HW123504   1.903   0.613   0.082
 3875SOL    HW223505   1.892   0.750   0.145
 3876SOL     OW23506   0.927   0.195   0.490
 3876SOL    HW123507   0.832   0.195   0.482
 3876SOL    HW223508   0.948   0.111   0.532
 3877SOL     OW23509   1.630   0.544  15.539
 3877SOL    HW123510   1.620   0.615  15.475
 3877SOL    HW223511   1.545   0.539  15.583
 3878SOL     OW23512   4.344   4.155   2.177
 3878SOL    HW123513   4.302   4.118   2.255
 3878SOL    HW223514   4.343   4.250   2.192
 3879SOL     OW23515   0.054   4.408  14.405
 3879SOL    HW123516   0.079   4.366  14.487
 3879SOL    HW223517   0.089   4.497  14.413
 3880SOL     OW23518   4.388   3.590  16.835
 3880SOL    HW123519   4.382   3.623  16.925
 3880SOL    HW223520   4.404   3.496  16.845
 3881SOL     OW23521   3.502   3.882   3.684
 3881SOL    HW123522   3.542   3.806   3.727
 3881SOL    HW223523   3.520   3.955   3.743
 3882SOL     OW23524   2.238   3.890  15.658
 3882SOL    HW123525   2.239   3.801  15.623
 3882SOL    HW223526   2.299   3.888  15.732
 3883SOL     OW23527   1.355   0.156  19.120
 3883SOL    HW123528   1.301   0.230  19.093
 3883SOL    HW223529   1.356   0.098  19.044
 3884SOL     OW23530   3.186   0.801   1.228
 3884SOL    HW123531   3.109   0.788   1.172
 3884SOL    HW223532   3.240   0.724   1.213
 3885SOL     OW23533   2.499   4.018   1.880
 3885SOL    HW123534   2.544   3.953   1.934
 3885SOL    HW223535   2.448   4.070   1.942
 3886SOL     OW23536   0.793   2.013   1.649
 3886SOL    HW123537   0.831   2.062   1.576
 3886SOL    HW223538   0.734   2.076   1.692
 3887SOL     OW23539   3.166   1.610  18.130
 3887SOL    HW123540   3.102   1.657  18.076
 3887SOL    HW223541   3.251   1.646  18.103
 3888SOL     OW23542   2.677   4.765   5.241
 3888SOL    HW123543   2.706   4.762   5.150
 3888SOL    HW223544   2.689   4.676   5.273
 3889SOL     OW23545   1.475   3.169   3.645
 3889SOL    HW123546   1.516   3.117   3.714
 3889SOL    HW223547   1.508   3.258   3.658
 3890SOL     OW23548   1.969   4.056   1.741
 3890SOL    HW123549   2.033   4.048   1.670
 3890SOL    HW223550   2.014   4.107   1.808
 3891SOL     OW23551   3.323   0.156   1.307
 3891SOL    HW123552   3.328   0.077   1.361
 3891SOL    HW223553   3.414   0.184   1.297
 3892SOL     OW23554   0.639   4.240  14.689
 3892SOL    HW123555   0.602   4.246  14.601
 3892SOL    HW223556   0.624   4.149  14.715
 3893SOL     OW23557   1.276   4.483   5.083
 3893SOL    HW123558   1.367   4.481   5.054
 3893SOL    HW223559   1.227   4.445   5.010
 3894SOL     OW23560   0.813   4.500   7.541
 3894SOL    HW123561   0.863   4.561   7.594
 3894SOL    HW223562   0.722   4.521   7.560
 3895SOL     OW23563   4.102   2.596  18.701
 3895SOL    HW123564   4.052   2.667  18.741
 3895SOL    HW223565   4.140   2.635  18.622
 3896SOL     OW23566   3.867   4.211  14.760
 3896SOL    HW123567   3.910   4.235  14.678
 3896SOL    HW223568   3.827   4.292  14.791
 3897SOL     OW23569   2.288   1.723  21.226
 3897SOL    HW123570   2.261   1.767  21.145
 3897SOL    HW223571   2.227   1.650  21.235
 3898SOL     OW23572   2.211   0.846  13.091
 3898SOL    HW123573   2.131   0.794  13.100
 3898SOL    HW223574   2.186   0.919  13.035
 3899SOL     OW23575   1.935   3.178   1.651
 3899SOL    HW123576   1.912   3.086   1.665
 3899SOL    HW223577   2.002   3.175   1.582
 3900SOL     OW23578   1.936   1.467   5.896
 3900SOL    HW123579   1.864   1.412   5.866
 3900SOL    HW223580   1.919   1.552   5.856
 3901SOL     OW23581   4.022   1.673   1.087
 3901SOL    HW123582   4.020   1.762   1.121
 3901SOL    HW223583   3.946   1.630   1.127
 3902SOL     OW23584   2.395   0.288  16.312
 3902SOL    HW123585   2.410   0.341  16.390
 3902SOL    HW223586   2.427   0.343  16.240
 3903SOL     OW23587   2.677   4.568  17.635
 3903SOL    HW123588   2.770   4.584  17.621
 3903SOL    HW223589   2.655   4.620  17.713
 3904SOL     OW23590   4.759   4.556  14.828
 3904SOL    HW123591   0.051   4.602  14.806
 3904SOL    HW223592   4.780   4.507  14.907
 3905SOL     OW23593   3.963   1.060  17.022
 3905SOL    HW123594   3.969   1.151  16.994
 3905SOL    HW223595   4.053   1.029  17.020
 3906SOL     OW23596   3.781   1.709  19.154
 3906SOL    HW123597   3.843   1.686  19.224
 3906SOL    HW223598   3.830   1.694  19.073
 3907SOL     OW23599   4.786   3.968   5.921
 3907SOL    HW123600   4.708   3.960   5.867
 3907SOL    HW223601   0.038   4.049   5.892
 3908SOL     OW23602   1.290   4.717  20.817
 3908SOL    HW123603   1.250   4.692  20.734
 3908SOL    HW223604   1.366   4.660  20.826
 3909SOL     OW23605   3.200   2.427   4.613
 3909SOL    HW123606   3.224   2.411   4.522
 3909SOL    HW223607   3.272   2.390   4.664
 3910SOL     OW23608   3.860   0.116  17.985
 3910SOL    HW123609   3.833   0.208  17.994
 3910SOL    HW223610   3.874   0.087  18.075
 3911SOL     OW23611   4.068   3.560  19.491
 3911SOL    HW123612   3.983   3.550  19.449
 3911SOL    HW223613   4.050   3.550  19.585
 3912SOL     OW23614   4.305   4.216  19.715
 3912SOL    HW123615   4.302   4.273  19.638
 3912SOL    HW223616   4.234   4.153  19.702
 3913SOL     OW23617   4.156   3.896  18.770
 3913SOL    HW123618   4.191   3.812  18.800
 3913SOL    HW223619   4.074   3.907  18.818
 3914SOL     OW23620   4.658   4.747   6.450
 3914SOL    HW123621   4.689   4.666   6.410
 3914SOL    HW223622   4.594   4.781   6.388
 3915SOL     OW23623   2.338   2.718   7.883
 3915SOL    HW123624   2.247   2.748   7.881
 3915SOL    HW223625   2.390   2.798   7.887
 3916SOL     OW23626   2.400   4.370  14.767
 3916SOL    HW123627   2.352   4.375  14.684
 3916SOL    HW223628   2.476   4.316  14.748
 3917SOL     OW23629   1.519   0.456  21.159
 3917SOL    HW123630   1.523   0.402  21.080
 3917SOL    HW223631   1.579   0.529  21.141
 3918SOL     OW23632   2.514   1.402   5.343
 3918SOL    HW123633   2.475   1.323   5.304
 3918SOL    HW223634   2.446   1.469   5.333
 3919SOL     OW23635   0.782   1.652  16.759
 3919SOL    HW123636   0.724   1.664  16.684
 3919SOL    HW223637   0.825   1.568  16.743
 3920SOL     OW23638   2.029   1.262   6.592
 3920SOL    HW123639   2.034   1.355   6.612
 3920SOL    HW223640   1.938   1.248   6.567
 3921SOL     OW23641   3.700   0.400  19.641
 3921SOL    HW123642   3.611   0.430  19.659
 3921SOL    HW223643   3.756   0.469  19.677
 3922SOL     OW23644   1.169   1.340   1.307
 3922SOL    HW123645   1.133   1.418   1.350
 3922SOL    HW223646   1.196   1.283   1.379
 3923SOL     OW23647   1.162   1.667  17.859
 3923SOL    HW123648   1.162   1.632  17.770
 3923SOL    HW223649   1.107   1.606  17.908
 3924SOL     OW23650   2.203   1.588  17.272
 3924SOL    HW123651   2.122   1.537  17.277
 3924SOL    HW223652   2.271   1.523  17.254
 3925SOL     OW23653   0.919   3.590  17.909
 3925SOL    HW123654   0.912   3.586  18.004
 3925SOL    HW223655   1.007   3.559  17.890
 3926SOL     OW23656   1.373   3.881   1.148
 3926SOL    HW123657   1.383   3.789   1.123
 3926SOL    HW223658   1.307   3.915   1.087
 3927SOL     OW23659   4.294   4.498   2.827
 3927SOL    HW123660   4.365   4.471   2.886
 3927SOL    HW223661   4.268   4.418   2.782
 3928SOL     OW23662   3.187   3.247  18.427
 3928SOL    HW123663   3.126   3.318  18.447
 3928SOL    HW223664   3.156   3.211  18.344
 3929SOL     OW23665   1.426   3.628  17.747
 3929SOL    HW123666   1.373   3.577  17.808
 3929SOL    HW223667   1.485   3.678  17.803
 3930SOL     OW23668   0.788   4.733  18.922
 3930SOL    HW123669   0.838   4.658  18.953
 3930SOL    HW223670   0.798   4.731  18.827
 3931SOL     OW23671   0.536   0.351   6.092
 3931SOL    HW123672   0.526   0.256   6.103
 3931SOL    HW223673   0.447   0.385   6.101
 3932SOL     OW23674   0.461   4.208   6.451
 3932SOL    HW123675   0.369   4.190   6.433
 3932SOL    HW223676   0.487   4.269   6.382
 3933SOL     OW23677   0.607   1.126   3.219
 3933SOL    HW123678   0.698   1.133   3.189
 3933SOL    HW223679   0.569   1.211   3.199
 3934SOL     OW23680   4.484   0.225  16.499
 3934SOL    HW123681   4.579   0.215  16.507
 3934SOL    HW223682   4.470   0.240  16.406
 3935SOL     OW23683   0.814   0.281   9.924
 3935SOL    HW123684   0.762   0.201   9.930
 3935SOL    HW223685   0.883   0.269   9.989
 3936SOL     OW23686   0.844   2.009  14.687
 3936SOL    HW123687   0.901   2.005  14.610
 3936SOL    HW223688   0.774   1.947  14.668
 3937SOL     OW23689   1.677   2.697   6.278
 3937SOL    HW123690   1.755   2.670   6.230
 3937SOL    HW223691   1.687   2.791   6.290
 3938SOL     OW23692   2.381   3.963   6.387
 3938SOL    HW123693   2.354   3.975   6.478
 3938SOL    HW223694   2.471   3.930   6.393
 3939SOL     OW23695   2.336   4.193  18.285
 3939SOL    HW123696   2.290   4.237  18.213
 3939SOL    HW223697   2.266   4.160  18.342
 3940SOL     OW23698   3.393   2.706   1.991
 3940SOL    HW123699   3.413   2.763   1.917
 3940SOL    HW223700   3.312   2.661   1.965
 3941SOL     OW23701   2.820   2.060  16.715
 3941SOL    HW123702   2.736   2.049  16.670
 3941SOL    HW223703   2.799   2.108  16.795
 3942SOL     OW23704   0.945   4.559  20.044
 3942SOL    HW123705   0.935   4.511  20.126
 3942SOL    HW223706   0.920   4.649  20.066
 3943SOL     OW23707   1.302   3.798  20.288
 3943SOL    HW123708   1.220   3.845  20.305
 3943SOL    HW223709   1.362   3.827  20.357
 3944SOL     OW23710   2.769   0.992  17.753
 3944SOL    HW123711   2.862   0.997  17.729
 3944SOL    HW223712   2.725   1.050  17.690
 3945SOL     OW23713   1.101   1.139   3.440
 3945SOL    HW123714   1.041   1.210   3.417
 3945SOL    HW223715   1.106   1.141   3.536
 3946SOL     OW23716   1.276   0.057  18.549
 3946SOL    HW123717   1.360   0.098  18.528
 3946SOL    HW223718   1.219   0.130  18.574
 3947SOL     OW23719   4.200   4.131   8.900
 3947SOL    HW123720   4.180   4.150   8.808
 3947SOL    HW223721   4.241   4.045   8.898
 3948SOL     OW23722   2.374   3.847   9.219
 3948SOL    HW123723   2.455   3.798   9.206
 3948SOL    HW223724   2.403   3.938   9.227
 3949SOL     OW23725   0.723   0.301   4.745
 3949SOL    HW123726   0.731   0.223   4.690
 3949SOL    HW223727   0.809   0.342   4.741
 3950SOL     OW23728   4.277   0.820   5.377
 3950SOL    HW123729   4.332   0.891   5.412
 3950SOL    HW223730   4.191   0.835   5.416
 3951SOL     OW23731   1.927   1.415   3.585
 3951SOL    HW123732   1.884   1.379   3.663
 3951SOL    HW223733   1.981   1.343   3.552
 3952SOL     OW23734   4.163   3.072   4.937
 3952SOL    HW123735   4.232   3.043   4.997
 3952SOL    HW223736   4.087   3.085   4.993
 3953SOL     OW23737   1.946   2.447  20.403
 3953SOL    HW123738   1.905   2.363  20.385
 3953SOL    HW223739   1.874   2.510  20.401
 3954SOL     OW23740   0.351   2.116  16.050
 3954SOL    HW123741   0.282   2.062  16.088
 3954SOL    HW223742   0.365   2.079  15.963
 3955SOL     OW23743   3.412   3.582   4.360
 3955SOL    HW123744   3.420   3.501   4.410
 3955SOL    HW223745   3.327   3.575   4.316
 3956SOL     OW23746   0.263   3.815   1.619
 3956SOL    HW123747   0.274   3.720   1.615
 3956SOL    HW223748   0.319   3.843   1.691
 3957SOL     OW23749   1.351   2.331  19.390
 3957SOL    HW123750   1.346   2.254  19.333
 3957SOL    HW223751   1.423   2.382  19.354
 3958SOL     OW23752   0.106   4.386  15.025
 3958SOL    HW123753   0.050   4.324  14.979
 3958SOL    HW223754   0.156   4.332  15.086
 3959SOL     OW23755   1.088   0.965  16.626
 3959SOL    HW123756   1.095   0.901  16.697
 3959SOL    HW223757   1.081   0.912  16.547
 3960SOL     OW23758   3.664   2.813   2.161
 3960SOL    HW123759   3.583   2.762   2.153
 3960SOL    HW223760   3.732   2.757   2.123
 3961SOL     OW23761   1.515   3.502  17.321
 3961SOL    HW123762   1.487   3.581  17.276
 3961SOL    HW223763   1.491   3.431  17.262
 3962SOL     OW23764   3.122   0.129  20.969
 3962SOL    HW123765   3.077   0.212  20.981
 3962SOL    HW223766   3.125   0.090  21.056
 3963SOL     OW23767   1.818   2.440   2.120
 3963SOL    HW123768   1.787   2.477   2.037
 3963SOL    HW223769   1.885   2.502   2.150
 3964SOL     OW23770   4.383   2.269  15.603
 3964SOL    HW123771   4.298   2.225  15.610
 3964SOL    HW223772   4.375   2.324  15.525
 3965SOL     OW23773   3.777   3.541   0.370
 3965SOL    HW123774   3.709   3.597   0.406
 3965SOL    HW223775   3.824   3.597   0.308
 3966SOL     OW23776   0.914   2.189   2.423
 3966SOL    HW123777   0.927   2.132   2.499
 3966SOL    HW223778   0.867   2.265   2.457
 3967SOL     OW23779   3.669   0.534   1.207
 3967SOL    HW123780   3.720   0.602   1.250
 3967SOL    HW223781   3.687   0.547   1.114
 3968SOL     OW23782   2.846   4.571   1.237
 3968SOL    HW123783   2.923   4.624   1.217
 3968SOL    HW223784   2.848   4.501   1.171
 3969SOL     OW23785   4.119   3.399   2.031
 3969SOL    HW123786   4.202   3.444   2.046
 3969SOL    HW223787   4.117   3.383   1.937
 3970SOL     OW23788   4.762   3.726   4.587
 3970SOL    HW123789   0.037   3.766   4.645
 3970SOL    HW223790   4.749   3.790   4.517
 3971SOL     OW23791   0.325   3.294  16.958
 3971SOL    HW123792   0.327   3.295  16.862
 3971SOL    HW223793   0.329   3.386  16.983
 3972SOL     OW23794   3.040   1.823  16.138
 3972SOL    HW123795   3.044   1.739  16.183
 3972SOL    HW223796   2.957   1.821  16.090
 3973SOL     OW23797   3.643   1.076  19.206
 3973SOL    HW123798   3.719   1.024  19.180
 3973SOL    HW223799   3.581   1.066  19.133
 3974SOL     OW23800   0.700   2.821  15.819
 3974SOL    HW123801   0.685   2.746  15.877
 3974SOL    HW223802   0.695   2.785  15.731
 3975SOL     OW23803   1.881   3.565   0.369
 3975SOL    HW123804   1.858   3.654   0.395
 3975SOL    HW223805   1.852   3.558   0.278
 3976SOL     OW23806   1.396   1.124  17.350
 3976SOL    HW123807   1.314   1.082  17.322
 3976SOL    HW223808   1.403   1.104  17.443
 3977SOL     OW23809   2.738   4.387   2.756
 3977SOL    HW123810   2.784   4.458   2.712
 3977SOL    HW223811   2.804   4.319   2.768
 3978SOL     OW23812   3.282   2.285  18.338
 3978SOL    HW123813   3.293   2.378  18.317
 3978SOL    HW223814   3.271   2.283  18.433
 3979SOL     OW23815   4.784   4.577   1.355
 3979SOL    HW123816   4.785   4.664   1.394
 3979SOL    HW223817   0.049   4.584   1.277
 3980SOL     OW23818   4.103   3.443  20.021
 3980SOL    HW123819   4.108   3.538  20.016
 3980SOL    HW223820   4.153   3.412  19.945
 3981SOL     OW23821   3.732   2.474  16.317
 3981SOL    HW123822   3.819   2.452  16.284
 3981SOL    HW223823   3.673   2.416  16.270
 3982SOL     OW23824   0.773   0.470   6.182
 3982SOL    HW123825   0.797   0.562   6.174
 3982SOL    HW223826   0.683   0.465   6.151
 3983SOL     OW23827   0.037   1.894   3.452
 3983SOL    HW123828   4.743   1.853   3.429
 3983SOL    HW223829   0.081   1.907   3.368
 3984SOL     OW23830   2.545   0.500   5.892
 3984SOL    HW123831   2.483   0.505   5.820
 3984SOL    HW223832   2.494   0.467   5.966
 3985SOL     OW23833   3.465   1.001  16.612
 3985SOL    HW123834   3.452   1.089  16.647
 3985SOL    HW223835   3.409   0.946  16.666
 3986SOL     OW23836   3.345   1.616  16.723
 3986SOL    HW123837   3.410   1.617  16.653
 3986SOL    HW223838   3.372   1.544  16.780
 3987SOL     OW23839   1.515   1.003  20.082
 3987SOL    HW123840   1.440   1.007  20.141
 3987SOL    HW223841   1.590   1.028  20.136
 3988SOL     OW23842   4.123   0.409  18.487
 3988SOL    HW123843   4.096   0.321  18.513
 3988SOL    HW223844   4.047   0.464  18.505
 3989SOL     OW23845   1.805   1.165   4.702
 3989SOL    HW123846   1.798   1.116   4.620
 3989SOL    HW223847   1.873   1.120   4.752
 3990SOL     OW23848   2.998   4.723  19.142
 3990SOL    HW123849   3.077   4.777  19.141
 3990SOL    HW223850   2.959   4.736  19.055
 3991SOL     OW23851   1.426   1.314   1.732
 3991SOL    HW123852   1.460   1.401   1.711
 3991SOL    HW223853   1.372   1.291   1.656
 3992SOL     OW23854   0.447   3.543   4.975
 3992SOL    HW123855   0.505   3.472   5.004
 3992SOL    HW223856   0.382   3.500   4.919
 3993SOL     OW23857   2.420   0.767  16.393
 3993SOL    HW123858   2.378   0.796  16.474
 3993SOL    HW223859   2.437   0.674  16.407
 3994SOL     OW23860   3.983   4.013   5.153
 3994SOL    HW123861   4.072   4.004   5.120
 3994SOL    HW223862   3.936   3.938   5.116
 3995SOL     OW23863   2.477   3.415   6.642
 3995SOL    HW123864   2.555   3.435   6.590
 3995SOL    HW223865   2.504   3.431   6.733
 3996SOL     OW23866   4.421   3.204  20.214
 3996SOL    HW123867   4.471   3.126  20.241
 3996SOL    HW223868   4.429   3.264  20.288
 3997SOL     OW23869   0.258   2.996  19.378
 3997SOL    HW123870   0.201   2.928  19.415
 3997SOL    HW223871   0.199   3.051  19.326
 3998SOL     OW23872   4.709   4.197  18.331
 3998SOL    HW123873   4.644   4.250  18.377
 3998SOL    HW223874   4.746   4.255  18.265
 3999SOL     OW23875   3.855   3.481  19.334
 3999SOL    HW123876   3.769   3.522  19.328
 3999SOL    HW223877   3.837   3.389  19.354
 4000SOL     OW23878   1.087   0.878  19.992
 4000SOL    HW123879   1.161   0.933  19.967
 4000SOL    HW223880   1.115   0.789  19.970
 4001SOL     OW23881   0.356   2.714   0.537
 4001SOL    HW123882   0.423   2.699   0.604
 4001SOL    HW223883   0.359   2.636   0.482
 4002SOL     OW23884   1.678   2.696  14.120
 4002SOL    HW123885   1.600   2.747  14.100
 4002SOL    HW223886   1.733   2.704  14.042
 4003SOL     OW23887   1.514   0.425   1.366
 4003SOL    HW123888   1.466   0.342   1.360
 4003SOL    HW223889   1.603   0.400   1.392
 4004SOL     OW23890   0.544   0.444   5.845
 4004SOL    HW123891   0.551   0.411   5.935
 4004SOL    HW223892   0.633   0.470   5.822
 4005SOL     OW23893   0.606   0.832  15.923
 4005SOL    HW123894   0.640   0.819  16.012
 4005SOL    HW223895   0.568   0.747  15.899
 4006SOL     OW23896   4.091   1.058  20.387
 4006SOL    HW123897   4.070   1.061  20.294
 4006SOL    HW223898   4.064   0.971  20.416
 4007SOL     OW23899   1.327   2.603  18.710
 4007SOL    HW123900   1.363   2.521  18.676
 4007SOL    HW223901   1.278   2.577  18.788
 4008SOL     OW23902   2.877   3.183   0.685
 4008SOL    HW123903   2.963   3.222   0.671
 4008SOL    HW223904   2.895   3.103   0.735
 4009SOL     OW23905   0.412   4.525  20.227
 4009SOL    HW123906   0.437   4.511  20.136
 4009SOL    HW223907   0.443   4.613  20.247
 4010SOL     OW23908   4.730   3.956   5.344
 4010SOL    HW123909   4.670   3.882   5.331
 4010SOL    HW223910   0.023   3.915   5.370
 4011SOL     OW23911   1.423   1.790  17.774
 4011SOL    HW123912   1.341   1.777  17.821
 4011SOL    HW223913   1.464   1.865  17.817
 4012SOL     OW23914   3.549   4.600   3.348
 4012SOL    HW123915   3.520   4.689   3.366
 4012SOL    HW223916   3.644   4.604   3.358
 4013SOL     OW23917   2.754   1.229   6.001
 4013SOL    HW123918   2.680   1.171   6.018
 4013SOL    HW223919   2.819   1.205   6.067
 4014SOL     OW23920   1.122   3.077   6.026
 4014SOL    HW123921   1.098   3.083   6.118
 4014SOL    HW223922   1.044   3.108   5.979
 4015SOL     OW23923   4.046   1.497  16.582
 4015SOL    HW123924   4.100   1.544  16.519
 4015SOL    HW223925   3.970   1.554  16.596
 4016SOL     OW23926   2.227   3.363   7.855
 4016SOL    HW123927   2.272   3.362   7.939
 4016SOL    HW223928   2.134   3.364   7.878
 4017SOL     OW23929   2.346   3.045   4.157
 4017SOL    HW123930   2.272   3.102   4.179
 4017SOL    HW223931   2.323   2.961   4.197
 4018SOL     OW23932   3.183   3.061   5.358
 4018SOL    HW123933   3.139   3.066   5.273
 4018SOL    HW223934   3.112   3.057   5.422
 4019SOL     OW23935   0.871   0.539  11.747
 4019SOL    HW123936   0.921   0.488  11.683
 4019SOL    HW223937   0.932   0.607  11.776
 4020SOL     OW23938   4.029   1.003  19.822
 4020SOL    HW123939   4.095   0.940  19.793
 4020SOL    HW223940   3.948   0.952  19.829
 4021SOL     OW23941   3.615   4.097   3.121
 4021SOL    HW123942   3.657   4.040   3.056
 4021SOL    HW223943   3.592   4.176   3.072
 4022SOL     OW23944   0.823   4.631   1.972
 4022SOL    HW123945   0.770   4.553   1.989
 4022SOL    HW223946   0.762   4.694   1.935
 4023SOL     OW23947   2.205   2.917   4.442
 4023SOL    HW123948   2.294   2.882   4.444
 4023SOL    HW223949   2.212   3.004   4.481
 4024SOL     OW23950   1.733   0.002   0.675
 4024SOL    HW123951   1.657   0.052   0.647
 4024SOL    HW223952   1.754   0.037   0.762
 4025SOL     OW23953   3.394   3.140  20.718
 4025SOL    HW123954   3.403   3.046  20.704
 4025SOL    HW223955   3.316   3.164  20.668
 4026SOL     OW23956   3.159   4.786  16.258
 4026SOL    HW123957   3.208   4.730  16.319
 4026SOL    HW223958   3.114   0.059  16.314
 4027SOL     OW23959   1.526   3.420   3.671
 4027SOL    HW123960   1.523   3.507   3.712
 4027SOL    HW223961   1.605   3.422   3.618
 4028SOL     OW23962   0.124   4.219  17.208
 4028SOL    HW123963   0.053   4.159  17.232
 4028SOL    HW223964   0.155   4.255  17.291
 4029SOL     OW23965   0.468   0.626  18.441
 4029SOL    HW123966   0.563   0.613  18.435
 4029SOL    HW223967   0.455   0.718  18.416
 4030SOL     OW23968   1.952   4.718  15.959
 4030SOL    HW123969   1.923   4.788  15.900
 4030SOL    HW223970   2.046   4.712  15.945
 4031SOL     OW23971   4.695   1.457  16.071
 4031SOL    HW123972   4.685   1.364  16.051
 4031SOL    HW223973   4.774   1.461  16.126
 4032SOL     OW23974   2.764   4.007  17.569
 4032SOL    HW123975   2.822   3.941  17.531
 4032SOL    HW223976   2.785   4.006  17.662
 4033SOL     OW23977   0.234   0.836  21.157
 4033SOL    HW123978   0.183   0.774  21.209
 4033SOL    HW223979   0.237   0.916  21.210
 4034SOL     OW23980   4.564   2.331  13.992
 4034SOL    HW123981   4.601   2.326  14.080
 4034SOL    HW223982   4.639   2.320  13.934
 4035SOL     OW23983   0.511   1.855  18.198
 4035SOL    HW123984   0.442   1.816  18.145
 4035SOL    HW223985   0.477   1.941  18.221
 4036SOL     OW23986   2.993   4.682   1.883
 4036SOL    HW123987   2.969   4.597   1.846
 4036SOL    HW223988   2.979   4.744   1.811
 4037SOL     OW23989   3.360   2.049   3.748
 4037SOL    HW123990   3.422   1.980   3.773
 4037SOL    HW223991   3.317   2.016   3.669
 4038SOL     OW23992   3.398   1.631   0.558
 4038SOL    HW123993   3.415   1.629   0.464
 4038SOL    HW223994   3.348   1.711   0.572
 4039SOL     OW23995   4.621   0.996   5.988
 4039SOL    HW123996   4.565   0.930   5.947
 4039SOL    HW223997   4.581   1.012   6.073
 4040SOL     OW23998   0.526   3.891  12.516
 4040SOL    HW123999   0.485   3.957  12.572
 4040SOL    HW224000   0.559   3.825  12.577
 4041SOL     OW24001   0.485   3.370   0.500
 4041SOL    HW124002   0.443   3.406   0.422
 4041SOL    HW224003   0.530   3.445   0.539
 4042SOL     OW24004   0.954   0.477   4.257
 4042SOL    HW124005   0.937   0.410   4.190
 4042SOL    HW224006   1.028   0.526   4.223
 4043SOL     OW24007   0.197   2.384  20.991
 4043SOL    HW124008   0.283   2.357  21.023
 4043SOL    HW224009   0.158   2.304  20.956
 4044SOL     OW24010   3.005   2.316  18.197
 4044SOL    HW124011   3.062   2.292  18.270
 4044SOL    HW224012   2.926   2.263  18.209
 4045SOL     OW24013   3.905   4.578   2.500
 4045SOL    HW124014   3.981   4.610   2.549
 4045SOL    HW224015   3.926   4.595   2.408
 4046SOL     OW24016   1.321   2.402  11.821
 4046SOL    HW124017   1.341   2.398  11.728
 4046SOL    HW224018   1.315   2.310  11.849
 4047SOL     OW24019   2.534   2.333  18.454
 4047SOL    HW124020   2.626   2.359  18.452
 4047SOL    HW224021   2.508   2.327  18.362
 4048SOL     OW24022   0.742   4.055   7.545
 4048SOL    HW124023   0.791   4.127   7.505
 4048SOL    HW224024   0.652   4.087   7.548
 4049SOL     OW24025   3.183   4.272  18.993
 4049SOL    HW124026   3.121   4.252  19.063
 4049SOL    HW224027   3.178   4.367  18.983
 4050SOL     OW24028   4.682   4.629  17.062
 4050SOL    HW124029   4.735   4.624  16.983
 4050SOL    HW224030   4.598   4.591  17.037
 4051SOL     OW24031   4.117   4.215   4.451
 4051SOL    HW124032   4.212   4.226   4.447
 4051SOL    HW224033   4.082   4.297   4.416
 4052SOL     OW24034   2.563   3.940  16.564
 4052SOL    HW124035   2.550   4.034  16.573
 4052SOL    HW224036   2.647   3.924  16.606
 4053SOL     OW24037   3.394   0.812  17.917
 4053SOL    HW124038   3.325   0.758  17.954
 4053SOL    HW224039   3.474   0.782  17.959
 4054SOL     OW24040   2.722   4.353   2.347
 4054SOL    HW124041   2.719   4.441   2.384
 4054SOL    HW224042   2.815   4.335   2.337
 4055SOL     OW24043   3.189   2.615  21.023
 4055SOL    HW124044   3.277   2.631  20.988
 4055SOL    HW224045   3.136   2.593  20.946
 4056SOL     OW24046   2.566   3.050   0.751
 4056SOL    HW124047   2.598   2.968   0.712
 4056SOL    HW224048   2.514   3.091   0.682
 4057SOL     OW24049   4.269   4.733   2.956
 4057SOL    HW124050   4.290   4.650   2.912
 4057SOL    HW224051   4.268   4.711   3.049
 4058SOL     OW24052   3.932   3.448  16.893
 4058SOL    HW124053   3.931   3.396  16.813
 4058SOL    HW224054   3.968   3.533  16.866
 4059SOL     OW24055   0.426   4.062  12.692
 4059SOL    HW124056   0.380   4.060  12.776
 4059SOL    HW224057   0.373   4.119  12.636
 4060SOL     OW24058   2.788   3.994  13.698
 4060SOL    HW124059   2.781   3.899  13.703
 4060SOL    HW224060   2.871   4.015  13.741
 4061SOL     OW24061   2.642   0.871   5.881
 4061SOL    HW124062   2.603   0.829   5.958
 4061SOL    HW224063   2.674   0.798   5.828
 4062SOL     OW24064   1.847   0.612   5.494
 4062SOL    HW124065   1.872   0.538   5.548
 4062SOL    HW224066   1.925   0.668   5.491
 4063SOL     OW24067   2.971   1.140   6.165
 4063SOL    HW124068   3.033   1.182   6.225
 4063SOL    HW224069   3.015   1.060   6.136
 4064SOL     OW24070   3.129   2.336  15.498
 4064SOL    HW124071   3.060   2.369  15.440
 4064SOL    HW224072   3.100   2.248  15.522
 4065SOL     OW24073   1.657   2.027  16.824
 4065SOL    HW124074   1.663   1.972  16.902
 4065SOL    HW224075   1.676   1.968  16.751
 4066SOL     OW24076   3.840   0.331   4.527
 4066SOL    HW124077   3.889   0.397   4.478
 4066SOL    HW224078   3.815   0.375   4.608
 4067SOL     OW24079   3.687   4.391  16.531
 4067SOL    HW124080   3.733   4.342  16.599
 4067SOL    HW224081   3.756   4.421  16.472
 4068SOL     OW24082   3.432   0.597   2.899
 4068SOL    HW124083   3.397   0.566   2.815
 4068SOL    HW224084   3.387   0.680   2.914
 4069SOL     OW24085   0.218   3.549  17.055
 4069SOL    HW124086   0.199   3.496  17.133
 4069SOL    HW224087   0.133   3.562  17.014
 4070SOL     OW24088   2.857   2.134  18.559
 4070SOL    HW124089   2.932   2.107  18.507
 4070SOL    HW224090   2.832   2.219  18.522
 4071SOL     OW24091   1.950   0.688   3.629
 4071SOL    HW124092   1.879   0.744   3.600
 4071SOL    HW224093   1.911   0.634   3.698
 4072SOL     OW24094   2.777   3.747  20.332
 4072SOL    HW124095   2.761   3.700  20.414
 4072SOL    HW224096   2.800   3.678  20.270
 4073SOL     OW24097   1.376   3.626   1.077
 4073SOL    HW124098   1.296   3.574   1.072
 4073SOL    HW224099   1.405   3.616   1.168
 4074SOL     OW24100   4.292   1.603   4.647
 4074SOL    HW124101   4.308   1.619   4.554
 4074SOL    HW224102   4.201   1.574   4.651
 4075SOL     OW24103   0.257   2.980  17.511
 4075SOL    HW124104   0.176   2.963  17.463
 4075SOL    HW224105   0.289   3.063  17.476
 4076SOL     OW24106   1.457   4.238   7.217
 4076SOL    HW124107   1.370   4.259   7.250
 4076SOL    HW224108   1.492   4.176   7.281
 4077SOL     OW24109   1.601   3.931   7.329
 4077SOL    HW124110   1.656   3.952   7.254
 4077SOL    HW224111   1.663   3.913   7.400
 4078SOL     OW24112   3.547   1.657   4.601
 4078SOL    HW124113   3.519   1.679   4.512
 4078SOL    HW224114   3.477   1.600   4.634
 4079SOL     OW24115   3.947   2.223  18.013
 4079SOL    HW124116   3.999   2.302  18.028
 4079SOL    HW224117   4.011   2.157  17.987
 4080SOL     OW24118   4.227   4.020  20.774
 4080SOL    HW124119   4.194   3.964  20.844
 4080SOL    HW224120   4.164   4.008  20.702
 4081SOL     OW24121   3.569   2.421   2.655
 4081SOL    HW124122   3.630   2.390   2.722
 4081SOL    HW224123   3.528   2.499   2.694
 4082SOL     OW24124   4.459   1.093   1.550
 4082SOL    HW124125   4.473   1.186   1.532
 4082SOL    HW224126   4.415   1.092   1.635
 4083SOL     OW24127   2.120   2.055   5.806
 4083SOL    HW124128   2.060   2.084   5.737
 4083SOL    HW224129   2.078   1.977   5.843
 4084SOL     OW24130   0.081   1.006   4.306
 4084SOL    HW124131   0.163   0.985   4.352
 4084SOL    HW224132   0.012   0.968   4.361
 4085SOL     OW24133   1.816   4.281   3.408
 4085SOL    HW124134   1.829   4.269   3.502
 4085SOL    HW224135   1.791   4.373   3.399
 4086SOL     OW24136   1.154   3.216   4.142
 4086SOL    HW124137   1.244   3.187   4.126
 4086SOL    HW224138   1.123   3.161   4.214
 4087SOL     OW24139   1.545   0.322  19.267
 4087SOL    HW124140   1.491   0.259  19.218
 4087SOL    HW224141   1.618   0.270  19.300
 4088SOL     OW24142   3.521   2.220   7.386
 4088SOL    HW124143   3.564   2.252   7.466
 4088SOL    HW224144   3.553   2.278   7.317
 4089SOL     OW24145   1.313   1.803  15.921
 4089SOL    HW124146   1.257   1.766  15.852
 4089SOL    HW224147   1.390   1.836  15.875
 4090SOL     OW24148   3.927   1.921   5.282
 4090SOL    HW124149   3.890   1.976   5.212
 4090SOL    HW224150   3.971   1.850   5.236
 4091SOL     OW24151   0.362   0.215  19.303
 4091SOL    HW124152   0.347   0.129  19.263
 4091SOL    HW224153   0.456   0.217  19.319
 4092SOL     OW24154   0.776   1.743   4.459
 4092SOL    HW124155   0.777   1.810   4.527
 4092SOL    HW224156   0.685   1.713   4.455
 4093SOL     OW24157   2.504   1.734  17.417
 4093SOL    HW124158   2.519   1.805  17.480
 4093SOL    HW224159   2.451   1.670  17.465
 4094SOL     OW24160   3.350   3.964  13.156
 4094SOL    HW124161   3.312   3.877  13.146
 4094SOL    HW224162   3.278   4.018  13.188
 4095SOL     OW24163   4.697   0.914   3.028
 4095SOL    HW124164   4.716   0.968   3.105
 4095SOL    HW224165   4.737   0.962   2.955
 4096SOL     OW24166   1.609   3.625   4.490
 4096SOL    HW124167   1.521   3.641   4.525
 4096SOL    HW224168   1.661   3.596   4.565
 4097SOL     OW24169   3.997   4.697  21.221
 4097SOL    HW124170   4.064   4.681   0.031
 4097SOL    HW224171   3.916   4.663   0.002
 4098SOL     OW24172   4.671   2.753   0.240
 4098SOL    HW124173   4.732   2.804   0.187
 4098SOL    HW224174   4.591   2.750   0.187
 4099SOL     OW24175   1.096   3.611  11.511
 4099SOL    HW124176   1.093   3.687  11.570
 4099SOL    HW224177   1.185   3.611  11.476
 4100SOL     OW24178   1.315   1.741   1.031
 4100SOL    HW124179   1.407   1.765   1.038
 4100SOL    HW224180   1.294   1.756   0.939
 4101SOL     OW24181   0.532   2.851  20.327
 4101SOL    HW124182   0.461   2.910  20.302
 4101SOL    HW224183   0.489   2.777  20.370
 4102SOL     OW24184   1.465   1.967   5.912
 4102SOL    HW124185   1.408   2.043   5.928
 4102SOL    HW224186   1.407   1.901   5.875
 4103SOL     OW24187   0.464   2.179   0.593
 4103SOL    HW124188   0.401   2.249   0.608
 4103SOL    HW224189   0.521   2.213   0.524
 4104SOL     OW24190   3.974   4.459  17.228
 4104SOL    HW124191   3.957   4.527  17.162
 4104SOL    HW224192   3.975   4.506  17.311
 4105SOL     OW24193   2.525   1.977   2.351
 4105SOL    HW124194   2.621   1.971   2.348
 4105SOL    HW224195   2.508   2.071   2.359
 4106SOL     OW24196   4.295   3.624  19.173
 4106SOL    HW124197   4.358   3.558  19.146
 4106SOL    HW224198   4.213   3.576  19.183
 4107SOL     OW24199   0.594   4.412  15.986
 4107SOL    HW124200   0.502   4.439  15.991
 4107SOL    HW224201   0.596   4.325  16.026
 4108SOL     OW24202   1.360   1.597   6.846
 4108SOL    HW124203   1.353   1.519   6.791
 4108SOL    HW224204   1.280   1.596   6.899
 4109SOL     OW24205   3.382   4.339   5.874
 4109SOL    HW124206   3.398   4.366   5.964
 4109SOL    HW224207   3.287   4.340   5.865
 4110SOL     OW24208   1.510   3.674  19.085
 4110SOL    HW124209   1.466   3.757  19.068
 4110SOL    HW224210   1.479   3.647  19.172
 4111SOL     OW24211   1.757   2.097   2.386
 4111SOL    HW124212   1.821   2.167   2.397
 4111SOL    HW224213   1.785   2.052   2.306
 4112SOL     OW24214   2.595   4.276  12.325
 4112SOL    HW124215   2.643   4.342  12.375
 4112SOL    HW224216   2.511   4.317  12.304
 4113SOL     OW24217   4.467   2.221  20.480
 4113SOL    HW124218   4.378   2.185  20.483
 4113SOL    HW224219   4.475   2.270  20.562
 4114SOL     OW24220   3.851   4.755  14.825
 4114SOL    HW124221   3.768   4.714  14.801
 4114SOL    HW224222   3.843   0.055  14.793
 4115SOL     OW24223   4.375   1.729   5.254
 4115SOL    HW124224   4.410   1.700   5.170
 4115SOL    HW224225   4.308   1.794   5.231
 4116SOL     OW24226   3.606   4.248  14.487
 4116SOL    HW124227   3.628   4.335  14.453
 4116SOL    HW224228   3.651   4.187  14.429
 4117SOL     OW24229   4.406   2.871  14.128
 4117SOL    HW124230   4.442   2.952  14.092
 4117SOL    HW224231   4.482   2.823  14.161
 4118SOL     OW24232   2.327   1.867   1.390
 4118SOL    HW124233   2.402   1.811   1.372
 4118SOL    HW224234   2.349   1.913   1.471
 4119SOL     OW24235   3.799   2.388  16.577
 4119SOL    HW124236   3.717   2.344  16.554
 4119SOL    HW224237   3.854   2.380  16.499
 4120SOL     OW24238   0.739   4.131   4.294
 4120SOL    HW124239   0.783   4.091   4.369
 4120SOL    HW224240   0.806   4.134   4.226
 4121SOL     OW24241   1.911   1.661   1.280
 4121SOL    HW124242   1.936   1.569   1.268
 4121SOL    HW224243   1.908   1.673   1.375
 4122SOL     OW24244   0.033   2.451  18.842
 4122SOL    HW124245   4.789   2.492  18.762
 4122SOL    HW224246   0.120   2.489  18.853
 4123SOL     OW24247   3.768   3.272   6.492
 4123SOL    HW124248   3.713   3.196   6.512
 4123SOL    HW224249   3.856   3.245   6.518
 4124SOL     OW24250   3.326   0.920   2.741
 4124SOL    HW124251   3.354   0.864   2.668
 4124SOL    HW224252   3.254   0.971   2.705
 4125SOL     OW24253   0.328   3.597  20.400
 4125SOL    HW124254   0.246   3.627  20.440
 4125SOL    HW224255   0.321   3.622  20.308
 4126SOL     OW24256   3.369   3.002   3.839
 4126SOL    HW124257   3.296   3.055   3.870
 4126SOL    HW224258   3.329   2.921   3.809
 4127SOL     OW24259   2.926   1.673   7.773
 4127SOL    HW124260   3.007   1.622   7.772
 4127SOL    HW224261   2.930   1.726   7.693
 4128SOL     OW24262   4.570   4.533  17.441
 4128SOL    HW124263   4.596   4.476  17.514
 4128SOL    HW224264   4.570   4.475  17.365
 4129SOL     OW24265   1.865   0.438  20.956
 4129SOL    HW124266   1.805   0.513  20.963
 4129SOL    HW224267   1.817   0.373  20.905
 4130SOL     OW24268   1.921   2.486   5.344
 4130SOL    HW124269   1.909   2.547   5.271
 4130SOL    HW224270   1.855   2.418   5.329
 4131SOL     OW24271   2.047   3.915   1.290
 4131SOL    HW124272   2.121   3.862   1.260
 4131SOL    HW224273   1.994   3.854   1.342
 4132SOL     OW24274   4.399   0.547  13.985
 4132SOL    HW124275   4.405   0.611  14.056
 4132SOL    HW224276   4.408   0.462  14.028
 4133SOL     OW24277   0.704   2.288   5.390
 4133SOL    HW124278   0.719   2.355   5.456
 4133SOL    HW224279   0.782   2.233   5.393
 4134SOL     OW24280   0.087   1.075  16.984
 4134SOL    HW124281   0.089   0.979  16.986
 4134SOL    HW224282   0.118   1.102  17.070
 4135SOL     OW24283   4.376   0.025  14.696
 4135SOL    HW124284   4.281   0.033  14.691
 4135SOL    HW224285   4.399   0.061  14.782
 4136SOL     OW24286   2.849   2.995   2.831
 4136SOL    HW124287   2.891   3.027   2.911
 4136SOL    HW224288   2.921   2.964   2.776
 4137SOL     OW24289   3.705   0.234   2.794
 4137SOL    HW124290   3.777   0.276   2.840
 4137SOL    HW224291   3.629   0.288   2.815
 4138SOL     OW24292   0.381   2.433   0.708
 4138SOL    HW124293   0.395   2.497   0.778
 4138SOL    HW224294   0.313   2.374   0.742
 4139SOL     OW24295   4.687   3.138   1.568
 4139SOL    HW124296   4.726   3.213   1.522
 4139SOL    HW224297   4.741   3.128   1.646
 4140SOL     OW24298   1.315   2.892  18.715
 4140SOL    HW124299   1.404   2.859  18.709
 4140SOL    HW224300   1.260   2.813  18.721
 4141SOL     OW24301   2.148   3.761   3.201
 4141SOL    HW124302   2.123   3.776   3.110
 4141SOL    HW224303   2.132   3.668   3.215
 4142SOL     OW24304   2.665   2.630  19.772
 4142SOL    HW124305   2.712   2.700  19.816
 4142SOL    HW224306   2.585   2.619  19.823
 4143SOL     OW24307   1.043   3.597   3.355
 4143SOL    HW124308   1.021   3.536   3.425
 4143SOL    HW224309   1.038   3.544   3.275
 4144SOL     OW24310   0.190   0.670   5.851
 4144SOL    HW124311   0.211   0.643   5.761
 4144SOL    HW224312   0.273   0.702   5.886
 4145SOL     OW24313   3.152   2.153  16.838
 4145SOL    HW124314   3.082   2.142  16.773
 4145SOL    HW224315   3.144   2.244  16.866
 4146SOL     OW24316   3.232   2.775   3.737
 4146SOL    HW124317   3.192   2.746   3.655
 4146SOL    HW224318   3.158   2.796   3.794
 4147SOL     OW24319   0.065   1.854  14.613
 4147SOL    HW124320   0.054   1.947  14.632
 4147SOL    HW224321   0.126   1.852  14.540
 4148SOL     OW24322   0.297   1.749   3.818
 4148SOL    HW124323   0.300   1.653   3.813
 4148SOL    HW224324   0.297   1.778   3.727
 4149SOL     OW24325   3.412   2.679  15.857
 4149SOL    HW124326   3.444   2.631  15.780
 4149SOL    HW224327   3.317   2.666  15.855
 4150SOL     OW24328   3.730   2.734  16.466
 4150SOL    HW124329   3.727   2.641  16.442
 4150SOL    HW224330   3.822   2.758  16.457
 4151SOL     OW24331   3.980   2.331  16.370
 4151SOL    HW124332   4.067   2.370  16.379
 4151SOL    HW224333   3.981   2.290  16.284
 4152SOL     OW24334   2.762   3.741   5.022
 4152SOL    HW124335   2.791   3.673   5.082
 4152SOL    HW224336   2.813   3.818   5.047
 4153SOL     OW24337   1.194   2.108   3.410
 4153SOL    HW124338   1.262   2.058   3.364
 4153SOL    HW224339   1.197   2.074   3.500
 4154SOL     OW24340   0.411   4.726  14.605
 4154SOL    HW124341   0.499   4.699  14.631
 4154SOL    HW224342   0.417   4.738  14.510
 4155SOL     OW24343   2.066   4.686  14.750
 4155SOL    HW124344   2.151   4.690  14.793
 4155SOL    HW224345   2.026   4.606  14.785
 4156SOL     OW24346   1.372   0.602   3.430
 4156SOL    HW124347   1.301   0.652   3.471
 4156SOL    HW224348   1.347   0.510   3.442
 4157SOL     OW24349   1.626   1.028   2.527
 4157SOL    HW124350   1.641   1.084   2.603
 4157SOL    HW224351   1.681   0.951   2.542
 4158SOL     OW24352   2.282   2.399  16.985
 4158SOL    HW124353   2.262   2.314  16.946
 4158SOL    HW224354   2.309   2.379  17.075
 4159SOL     OW24355   0.852   2.717  18.111
 4159SOL    HW124356   0.865   2.780  18.182
 4159SOL    HW224357   0.929   2.660  18.116
 4160SOL     OW24358   2.945   2.315  16.247
 4160SOL    HW124359   2.889   2.354  16.314
 4160SOL    HW224360   2.928   2.221  16.254
 4161SOL     OW24361   4.440   3.903   6.493
 4161SOL    HW124362   4.395   3.975   6.538
 4161SOL    HW224363   4.532   3.912   6.518
 4162SOL     OW24364   1.220   1.736   1.333
 4162SOL    HW124365   1.234   1.656   1.384
 4162SOL    HW224366   1.243   1.712   1.243
 4163SOL     OW24367   4.012   0.747  16.918
 4163SOL    HW124368   4.041   0.826  16.964
 4163SOL    HW224369   3.999   0.775  16.828
 4164SOL     OW24370   1.239   0.156   4.798
 4164SOL    HW124371   1.215   0.068   4.768
 4164SOL    HW224372   1.177   0.175   4.869
 4165SOL     OW24373   2.917   0.814  19.383
 4165SOL    HW124374   2.891   0.735  19.335
 4165SOL    HW224375   3.012   0.817  19.374
 4166SOL     OW24376   0.592   2.366  18.095
 4166SOL    HW124377   0.664   2.366  18.158
 4166SOL    HW224378   0.520   2.411  18.140
 4167SOL     OW24379   2.807   1.697  15.096
 4167SOL    HW124380   2.788   1.612  15.056
 4167SOL    HW224381   2.729   1.750  15.077
 4168SOL     OW24382   2.898   2.207   0.223
 4168SOL    HW124383   2.972   2.211   0.162
 4168SOL    HW224384   2.841   2.279   0.196
 4169SOL     OW24385   0.810   1.484   0.566
 4169SOL    HW124386   0.772   1.414   0.513
 4169SOL    HW224387   0.815   1.447   0.654
 4170SOL     OW24388   0.891   2.288   3.116
 4170SOL    HW124389   0.940   2.369   3.103
 4170SOL    HW224390   0.823   2.310   3.180
 4171SOL     OW24391   1.282   1.870   0.147
 4171SOL    HW124392   1.374   1.871   0.175
 4171SOL    HW224393   1.269   1.955   0.105
 4172SOL     OW24394   1.161   1.994  16.122
 4172SOL    HW124395   1.235   1.940  16.094
 4172SOL    HW224396   1.098   1.986  16.050
 4173SOL     OW24397   0.666   3.926   1.589
 4173SOL    HW124398   0.675   4.021   1.600
 4173SOL    HW224399   0.594   3.902   1.648
 4174SOL     OW24400   0.844   0.720  16.090
 4174SOL    HW124401   0.926   0.766  16.106
 4174SOL    HW224402   0.853   0.683  16.002
 4175SOL     OW24403   4.084   3.343  21.241
 4175SOL    HW124404   4.142   3.294   0.042
 4175SOL    HW224405   3.997   3.332   0.023
 4176SOL     OW24406   1.822   3.991  16.223
 4176SOL    HW124407   1.799   4.013  16.313
 4176SOL    HW224408   1.861   4.071  16.188
 4177SOL     OW24409   1.110   2.869  16.473
 4177SOL    HW124410   1.088   2.794  16.529
 4177SOL    HW224411   1.144   2.830  16.393
 4178SOL     OW24412   1.623   3.899   0.467
 4178SOL    HW124413   1.592   3.989   0.480
 4178SOL    HW224414   1.717   3.908   0.454
 4179SOL     OW24415   0.515   2.063  21.239
 4179SOL    HW124416   0.447   2.129  21.226
 4179SOL    HW224417   0.509   2.039   0.074
 4180SOL     OW24418   2.615   1.045  15.096
 4180SOL    HW124419   2.661   1.106  15.154
 4180SOL    HW224420   2.631   1.079  15.008
 4181SOL     OW24421   0.002   0.107  15.083
 4181SOL    HW124422   0.009   0.019  15.120
 4181SOL    HW224423   0.077   0.154  15.119
 4182SOL     OW24424   0.416   0.071   4.961
 4182SOL    HW124425   0.446   0.153   4.922
 4182SOL    HW224426   0.340   0.096   5.014
 4183SOL     OW24427   2.147   2.268  20.870
 4183SOL    HW124428   2.219   2.206  20.883
 4183SOL    HW224429   2.189   2.346  20.834
 4184SOL     OW24430   0.616   0.184   3.051
 4184SOL    HW124431   0.584   0.094   3.041
 4184SOL    HW224432   0.704   0.182   3.014
 4185SOL     OW24433   4.639   3.278  15.971
 4185SOL    HW124434   4.687   3.278  16.054
 4185SOL    HW224435   4.547   3.282  15.997
 4186SOL     OW24436   3.061   0.860  16.470
 4186SOL    HW124437   3.003   0.908  16.410
 4186SOL    HW224438   3.142   0.848  16.420
 4187SOL     OW24439   0.169   2.742   6.612
 4187SOL    HW124440   0.078   2.726   6.638
 4187SOL    HW224441   0.162   2.803   6.538
 4188SOL     OW24442   0.857   4.691   1.616
 4188SOL    HW124443   0.778   4.734   1.584
 4188SOL    HW224444   0.905   4.760   1.662
 4189SOL     OW24445   1.915   3.260  17.764
 4189SOL    HW124446   1.871   3.195  17.709
 4189SOL    HW224447   1.856   3.336  17.764
 4190SOL     OW24448   2.504   0.209  21.070
 4190SOL    HW124449   2.484   0.219  21.163
 4190SOL    HW224450   2.440   0.264  21.025
 4191SOL     OW24451   0.743   2.389  19.502
 4191SOL    HW124452   0.675   2.386  19.435
 4191SOL    HW224453   0.795   2.310  19.486
 4192SOL     OW24454   0.564   0.132  18.804
 4192SOL    HW124455   0.654   0.158  18.784
 4192SOL    HW224456   0.515   0.151  18.724
 4193SOL     OW24457   1.343   2.777  17.459
 4193SOL    HW124458   1.255   2.754  17.489
 4193SOL    HW224459   1.329   2.846  17.395
 4194SOL     OW24460   4.757   1.529   4.776
 4194SOL    HW124461   0.025   1.455   4.755
 4194SOL    HW224462   0.006   1.569   4.854
 4195SOL     OW24463   4.400   1.643   4.988
 4195SOL    HW124464   4.307   1.644   4.966
 4195SOL    HW224465   4.435   1.566   4.944
 4196SOL     OW24466   2.006   2.620  17.141
 4196SOL    HW124467   1.954   2.700  17.130
 4196SOL    HW224468   2.069   2.642  17.210
 4197SOL     OW24469   2.798   0.622  19.242
 4197SOL    HW124470   2.835   0.604  19.156
 4197SOL    HW224471   2.708   0.590  19.237
 4198SOL     OW24472   0.856   2.349  16.450
 4198SOL    HW124473   0.940   2.307  16.470
 4198SOL    HW224474   0.861   2.370  16.357
 4199SOL     OW24475   1.689   4.344   4.081
 4199SOL    HW124476   1.720   4.271   4.027
 4199SOL    HW224477   1.690   4.420   4.022
 4200SOL     OW24478   1.578   3.894  14.975
 4200SOL    HW124479   1.553   3.809  15.012
 4200SOL    HW224480   1.534   3.898  14.890
 4201SOL     OW24481   4.264   2.015  18.490
 4201SOL    HW124482   4.202   1.972  18.432
 4201SOL    HW224483   4.231   2.104  18.499
 4202SOL     OW24484   0.393   3.579   7.911
 4202SOL    HW124485   0.481   3.579   7.873
 4202SOL    HW224486   0.378   3.488   7.936
 4203SOL     OW24487   2.738   1.107  14.130
 4203SOL    HW124488   2.694   1.025  14.153
 4203SOL    HW224489   2.826   1.099  14.167
 4204SOL     OW24490   0.599   1.072  17.074
 4204SOL    HW124491   0.580   0.978  17.076
 4204SOL    HW224492   0.620   1.091  16.982
 4205SOL     OW24493   1.936   0.604   5.039
 4205SOL    HW124494   1.893   0.651   4.967
 4205SOL    HW224495   1.976   0.673   5.092
 4206SOL     OW24496   1.181   1.535   1.541
 4206SOL    HW124497   1.122   1.602   1.576
 4206SOL    HW224498   1.152   1.453   1.581
 4207SOL     OW24499   3.869   1.738   3.718
 4207SOL    HW124500   3.863   1.642   3.718
 4207SOL    HW224501   3.778   1.768   3.712
 4208SOL     OW24502   2.024   1.175   2.998
 4208SOL    HW124503   1.987   1.135   2.920
 4208SOL    HW224504   1.955   1.233   3.030
 4209SOL     OW24505   1.665   3.325   0.895
 4209SOL    HW124506   1.625   3.270   0.963
 4209SOL    HW224507   1.646   3.280   0.813
 4210SOL     OW24508   1.712   4.485   2.809
 4210SOL    HW124509   1.774   4.412   2.802
 4210SOL    HW224510   1.718   4.513   2.900
 4211SOL     OW24511   0.087   2.029   2.703
 4211SOL    HW124512   0.043   2.113   2.690
 4211SOL    HW224513   0.139   2.017   2.624
 4212SOL     OW24514   1.753   4.634   4.878
 4212SOL    HW124515   1.816   4.568   4.851
 4212SOL    HW224516   1.787   4.667   4.961
 4213SOL     OW24517   1.997   3.643   4.445
 4213SOL    HW124518   1.982   3.715   4.506
 4213SOL    HW224519   2.084   3.610   4.467
 4214SOL     OW24520   2.849   2.766   0.835
 4214SOL    HW124521   2.757   2.749   0.814
 4214SOL    HW224522   2.898   2.697   0.790
 4215SOL     OW24523   3.390   2.037  15.467
 4215SOL    HW124524   3.433   2.100  15.409
 4215SOL    HW224525   3.296   2.052  15.454
 4216SOL     OW24526   0.363   3.905  16.339
 4216SOL    HW124527   0.388   3.820  16.302
 4216SOL    HW224528   0.271   3.894  16.364
 4217SOL     OW24529   2.058   0.154   3.774
 4217SOL    HW124530   2.064   0.084   3.839
 4217SOL    HW224531   2.041   0.109   3.691
 4218SOL     OW24532   0.956   2.492  17.565
 4218SOL    HW124533   0.956   2.516  17.658
 4218SOL    HW224534   0.877   2.533  17.530
 4219SOL     OW24535   0.493   4.334   3.285
 4219SOL    HW124536   0.467   4.243   3.300
 4219SOL    HW224537   0.529   4.363   3.369
 4220SOL     OW24538   1.874   3.843   2.528
 4220SOL    HW124539   1.819   3.865   2.453
 4220SOL    HW224540   1.963   3.863   2.499
 4221SOL     OW24541   3.354   2.681   3.094
 4221SOL    HW124542   3.285   2.742   3.120
 4221SOL    HW224543   3.405   2.729   3.029
 4222SOL     OW24544   4.609   0.962  19.822
 4222SOL    HW124545   4.562   0.894  19.871
 4222SOL    HW224546   4.581   0.950  19.731
 4223SOL     OW24547   4.788   0.189  12.991
 4223SOL    HW124548   4.773   0.283  13.000
 4223SOL    HW224549   0.093   0.180  12.984
 4224SOL     OW24550   1.593   1.869   3.822
 4224SOL    HW124551   1.539   1.843   3.896
 4224SOL    HW224552   1.593   1.793   3.764
 4225SOL     OW24553   3.789   3.156  15.219
 4225SOL    HW124554   3.809   3.225  15.283
 4225SOL    HW224555   3.695   3.142  15.228
 4226SOL     OW24556   3.110   1.908   5.708
 4226SOL    HW124557   3.030   1.945   5.745
 4226SOL    HW224558   3.151   1.861   5.781
 4227SOL     OW24559   1.953   3.238   5.716
 4227SOL    HW124560   1.888   3.277   5.774
 4227SOL    HW224561   2.018   3.200   5.775
 4228SOL     OW24562   1.771   3.790  17.865
 4228SOL    HW124563   1.759   3.873  17.911
 4228SOL    HW224564   1.740   3.807  17.776
 4229SOL     OW24565   3.349   1.515   4.674
 4229SOL    HW124566   3.281   1.564   4.628
 4229SOL    HW224567   3.325   1.423   4.663
 4230SOL     OW24568   3.313   2.975  19.694
 4230SOL    HW124569   3.379   3.043  19.708
 4230SOL    HW224570   3.364   2.897  19.670
 4231SOL     OW24571   2.949   1.698   1.293
 4231SOL    HW124572   2.961   1.699   1.388
 4231SOL    HW224573   3.001   1.623   1.264
 4232SOL     OW24574   0.053   3.117  19.638
 4232SOL    HW124575   0.048   3.042  19.697
 4232SOL    HW224576   0.121   3.173  19.675
 4233SOL     OW24577   0.313   0.331  20.868
 4233SOL    HW124578   0.229   0.363  20.836
 4233SOL    HW224579   0.378   0.374  20.812
 4234SOL     OW24580   1.872   0.550   3.958
 4234SOL    HW124581   1.800   0.600   3.996
 4234SOL    HW224582   1.948   0.607   3.966
 4235SOL     OW24583   1.237   0.129  20.987
 4235SOL    HW124584   1.250   0.073  21.063
 4235SOL    HW224585   1.238   0.069  20.912
 4236SOL     OW24586   0.170   0.062  17.083
 4236SOL    HW124587   0.260   0.047  17.054
 4236SOL    HW224588   0.121   4.779  17.045
 4237SOL     OW24589   0.890   4.233   1.955
 4237SOL    HW124590   0.806   4.203   1.921
 4237SOL    HW224591   0.934   4.273   1.880
 4238SOL     OW24592   3.426   3.142  18.496
 4238SOL    HW124593   3.424   3.046  18.493
 4238SOL    HW224594   3.347   3.169  18.449
 4239SOL     OW24595   3.693   1.472  18.211
 4239SOL    HW124596   3.722   1.541  18.271
 4239SOL    HW224597   3.613   1.437  18.251
 4240SOL     OW24598   1.904   3.387  20.355
 4240SOL    HW124599   1.922   3.351  20.442
 4240SOL    HW224600   1.838   3.328  20.318
 4241SOL     OW24601   1.664   0.512  17.189
 4241SOL    HW124602   1.575   0.512  17.224
 4241SOL    HW224603   1.713   0.457  17.250
 4242SOL     OW24604   4.088   2.687   4.222
 4242SOL    HW124605   3.995   2.700   4.204
 4242SOL    HW224606   4.095   2.689   4.317
 4243SOL     OW24607   0.856   3.012   3.493
 4243SOL    HW124608   0.833   3.056   3.411
 4243SOL    HW224609   0.925   3.066   3.531
 4244SOL     OW24610   2.528   0.244  17.147
 4244SOL    HW124611   2.527   0.149  17.157
 4244SOL    HW224612   2.552   0.277  17.234
 4245SOL     OW24613   2.025   0.264  16.307
 4245SOL    HW124614   2.095   0.210  16.344
 4245SOL    HW224615   1.945   0.234  16.351
 4246SOL     OW24616   2.766   2.800   6.886
 4246SOL    HW124617   2.743   2.748   6.963
 4246SOL    HW224618   2.687   2.849   6.866
 4247SOL     OW24619   2.476   0.030   2.568
 4247SOL    HW124620   2.501   0.114   2.606
 4247SOL    HW224621   2.387   0.015   2.601
 4248SOL     OW24622   2.658   0.131   3.764
 4248SOL    HW124623   2.571   0.141   3.726
 4248SOL    HW224624   2.713   0.106   3.690
 4249SOL     OW24625   1.666   4.458  14.483
 4249SOL    HW124626   1.696   4.538  14.440
 4249SOL    HW224627   1.743   4.400  14.482
 4250SOL     OW24628   1.757   4.451   1.167
 4250SOL    HW124629   1.850   4.455   1.147
 4250SOL    HW224630   1.728   4.366   1.133
 4251SOL     OW24631   1.032   2.777  19.704
 4251SOL    HW124632   1.044   2.813  19.792
 4251SOL    HW224633   0.937   2.769  19.695
 4252SOL     OW24634   2.979   3.468  18.074
 4252SOL    HW124635   2.981   3.491  18.167
 4252SOL    HW224636   3.042   3.397  18.065
 4253SOL     OW24637   3.270   2.924   4.900
 4253SOL    HW124638   3.197   2.952   4.955
 4253SOL    HW224639   3.236   2.931   4.811
 4254SOL     OW24640   2.446   2.432  15.803
 4254SOL    HW124641   2.418   2.518  15.771
 4254SOL    HW224642   2.445   2.376  15.725
 4255SOL     OW24643   4.050   4.246  20.023
 4255SOL    HW124644   4.043   4.276  19.933
 4255SOL    HW224645   4.095   4.317  20.069
 4256SOL     OW24646   0.130   2.933  14.995
 4256SOL    HW124647   0.160   2.854  14.950
 4256SOL    HW224648   0.051   2.906  15.041
 4257SOL     OW24649   2.489   3.004  15.124
 4257SOL    HW124650   2.470   3.097  15.109
 4257SOL    HW224651   2.564   3.005  15.183
 4258SOL     OW24652   4.332   3.313   2.877
 4258SOL    HW124653   4.294   3.362   2.949
 4258SOL    HW224654   4.284   3.343   2.800
 4259SOL     OW24655   2.361   2.269  17.199
 4259SOL    HW124656   2.354   2.179  17.168
 4259SOL    HW224657   2.395   2.262  17.288
 4260SOL     OW24658   0.458   2.271   4.485
 4260SOL    HW124659   0.502   2.292   4.567
 4260SOL    HW224660   0.529   2.243   4.427
 4261SOL     OW24661   3.314   2.926   0.394
 4261SOL    HW124662   3.284   2.948   0.482
 4261SOL    HW224663   3.236   2.891   0.351
 4262SOL     OW24664   2.595   1.362  19.266
 4262SOL    HW124665   2.573   1.445  19.307
 4262SOL    HW224666   2.510   1.323  19.243
 4263SOL     OW24667   2.551   3.064  18.628
 4263SOL    HW124668   2.466   3.022  18.639
 4263SOL    HW224669   2.550   3.095  18.537
 4264SOL     OW24670   2.047   3.912  17.583
 4264SOL    HW124671   2.103   3.835  17.575
 4264SOL    HW224672   1.976   3.896  17.520
 4265SOL     OW24673   4.554   0.753  13.548
 4265SOL    HW124674   4.523   0.749  13.639
 4265SOL    HW224675   4.490   0.809  13.504
 4266SOL     OW24676   0.619   1.534  17.718
 4266SOL    HW124677   0.699   1.569  17.679
 4266SOL    HW224678   0.648   1.456  17.766
 4267SOL     OW24679   3.694   4.452   3.047
 4267SOL    HW124680   3.740   4.418   3.124
 4267SOL    HW224681   3.602   4.458   3.074
 4268SOL     OW24682   2.671   2.935   2.246
 4268SOL    HW124683   2.694   2.919   2.337
 4268SOL    HW224684   2.695   3.026   2.231
 4269SOL     OW24685   3.534   4.031   4.398
 4269SOL    HW124686   3.582   4.099   4.351
 4269SOL    HW224687   3.501   4.075   4.476
 4270SOL     OW24688   2.506   2.879   6.665
 4270SOL    HW124689   2.492   2.860   6.758
 4270SOL    HW224690   2.508   2.793   6.623
 4271SOL     OW24691   2.589   2.899  19.452
 4271SOL    HW124692   2.608   2.807  19.435
 4271SOL    HW224693   2.673   2.937  19.477
 4272SOL     OW24694   1.828   2.259   2.909
 4272SOL    HW124695   1.840   2.167   2.884
 4272SOL    HW224696   1.734   2.275   2.898
 4273SOL     OW24697   2.951   2.026   7.114
 4273SOL    HW124698   2.933   1.994   7.026
 4273SOL    HW224699   2.869   2.012   7.162
 4274SOL     OW24700   2.486   4.575   3.341
 4274SOL    HW124701   2.524   4.634   3.276
 4274SOL    HW224702   2.476   4.629   3.420
 4275SOL     OW24703   3.712   1.914   5.925
 4275SOL    HW124704   3.627   1.909   5.968
 4275SOL    HW224705   3.749   1.826   5.934
 4276SOL     OW24706   0.368   2.092   1.124
 4276SOL    HW124707   0.367   2.180   1.162
 4276SOL    HW224708   0.306   2.042   1.177
 4277SOL     OW24709   0.857   4.225   3.370
 4277SOL    HW124710   0.765   4.225   3.344
 4277SOL    HW224711   0.873   4.137   3.403
 4278SOL     OW24712   1.135   2.171   1.302
 4278SOL    HW124713   1.085   2.089   1.303
 4278SOL    HW224714   1.217   2.149   1.346
 4279SOL     OW24715   2.716   3.354  16.290
 4279SOL    HW124716   2.808   3.370  16.312
 4279SOL    HW224717   2.720   3.296  16.214
 4280SOL     OW24718   0.906   0.242   5.202
 4280SOL    HW124719   0.879   0.246   5.294
 4280SOL    HW224720   0.949   0.326   5.186
 4281SOL     OW24721   4.759   3.872  13.771
 4281SOL    HW124722   4.766   3.948  13.713
 4281SOL    HW224723   4.666   3.849  13.769
 4282SOL     OW24724   4.233   0.848  16.188
 4282SOL    HW124725   4.318   0.805  16.196
 4282SOL    HW224726   4.253   0.933  16.149
 4283SOL     OW24727   4.049   2.186   0.446
 4283SOL    HW124728   4.062   2.266   0.395
 4283SOL    HW224729   4.008   2.216   0.527
 4284SOL     OW24730   3.782   1.199  16.745
 4284SOL    HW124731   3.724   1.138  16.790
 4284SOL    HW224732   3.860   1.148  16.725
 4285SOL     OW24733   0.291   1.580   2.378
 4285SOL    HW124734   0.237   1.502   2.363
 4285SOL    HW224735   0.381   1.551   2.361
 4286SOL     OW24736   3.597   2.665   0.729
 4286SOL    HW124737   3.538   2.651   0.655
 4286SOL    HW224738   3.682   2.633   0.699
 4287SOL     OW24739   0.506   0.973   1.755
 4287SOL    HW124740   0.578   0.975   1.692
 4287SOL    HW224741   0.476   1.064   1.760
 4288SOL     OW24742   4.626   3.293   3.545
 4288SOL    HW124743   4.577   3.345   3.608
 4288SOL    HW224744   4.579   3.210   3.540
 4289SOL     OW24745   3.032   1.149   1.607
 4289SOL    HW124746   3.038   1.120   1.698
 4289SOL    HW224747   3.077   1.081   1.557
 4290SOL     OW24748   3.074   3.258   2.787
 4290SOL    HW124749   3.084   3.163   2.785
 4290SOL    HW224750   3.006   3.277   2.723
 4291SOL     OW24751   3.222   0.004   2.698
 4291SOL    HW124752   3.223   0.099   2.707
 4291SOL    HW224753   3.267   4.777   2.615
 4292SOL     OW24754   3.667   0.071   2.315
 4292SOL    HW124755   3.678   0.053   2.408
 4292SOL    HW224756   3.671   4.775   2.273
 4293SOL     OW24757   2.319   3.495  16.341
 4293SOL    HW124758   2.365   3.411  16.348
 4293SOL    HW224759   2.386   3.561  16.358
 4294SOL     OW24760   0.373   3.635  16.140
 4294SOL    HW124761   0.283   3.616  16.166
 4294SOL    HW224762   0.426   3.608  16.215
 4295SOL     OW24763   2.853   4.765  19.945
 4295SOL    HW124764   2.877   4.710  19.870
 4295SOL    HW224765   2.824   0.058  19.906
 4296SOL     OW24766   1.555   2.482  15.504
 4296SOL    HW124767   1.581   2.554  15.561
 4296SOL    HW224768   1.582   2.510  15.417
 4297SOL     OW24769   2.874   1.342   1.461
 4297SOL    HW124770   2.796   1.381   1.501
 4297SOL    HW224771   2.919   1.298   1.533
 4298SOL     OW24772   0.903   0.852  20.204
 4298SOL    HW124773   0.943   0.825  20.286
 4298SOL    HW224774   0.977   0.871  20.146
 4299SOL     OW24775   0.513   2.065  19.329
 4299SOL    HW124776   0.488   2.103  19.413
 4299SOL    HW224777   0.572   2.130  19.290
 4300SOL     OW24778   2.514   3.599   4.368
 4300SOL    HW124779   2.437   3.543   4.361
 4300SOL    HW224780   2.481   3.687   4.352
 4301SOL     OW24781   3.404   3.835   2.598
 4301SOL    HW124782   3.391   3.878   2.514
 4301SOL    HW224783   3.395   3.905   2.663
 4302SOL     OW24784   1.899   1.243  20.000
 4302SOL    HW124785   1.849   1.301  20.057
 4302SOL    HW224786   1.946   1.185  20.060
 4303SOL     OW24787   3.352   2.221  20.153
 4303SOL    HW124788   3.424   2.184  20.204
 4303SOL    HW224789   3.275   2.170  20.180
 4304SOL     OW24790   4.211   3.183  16.556
 4304SOL    HW124791   4.206   3.277  16.541
 4304SOL    HW224792   4.259   3.175  16.638
 4305SOL     OW24793   3.487   4.419  19.257
 4305SOL    HW124794   3.539   4.344  19.228
 4305SOL    HW224795   3.473   4.470  19.177
 4306SOL     OW24796   3.060   4.160   4.246
 4306SOL    HW124797   3.088   4.127   4.161
 4306SOL    HW224798   3.011   4.240   4.225
 4307SOL     OW24799   0.917   1.041   4.817
 4307SOL    HW124800   0.868   0.993   4.751
 4307SOL    HW224801   0.856   1.108   4.848
 4308SOL     OW24802   1.583   4.206  13.074
 4308SOL    HW124803   1.529   4.257  13.135
 4308SOL    HW224804   1.639   4.153  13.130
 4309SOL     OW24805   3.391   1.242  19.640
 4309SOL    HW124806   3.462   1.205  19.588
 4309SOL    HW224807   3.344   1.166  19.673
 4310SOL     OW24808   3.547   3.750   5.083
 4310SOL    HW124809   3.464   3.763   5.037
 4310SOL    HW224810   3.526   3.763   5.175
 4311SOL     OW24811   1.893   2.828   1.394
 4311SOL    HW124812   1.903   2.880   1.314
 4311SOL    HW224813   1.823   2.766   1.373
 4312SOL     OW24814   3.669   3.069   6.110
 4312SOL    HW124815   3.627   2.986   6.134
 4312SOL    HW224816   3.691   3.059   6.017
 4313SOL     OW24817   3.344   1.423  16.082
 4313SOL    HW124818   3.340   1.456  16.172
 4313SOL    HW224819   3.379   1.334  16.091
 4314SOL     OW24820   0.575   1.078   2.217
 4314SOL    HW124821   0.495   1.131   2.218
 4314SOL    HW224822   0.548   0.993   2.251
 4315SOL     OW24823   0.181   4.141   1.125
 4315SOL    HW124824   0.092   4.106   1.131
 4315SOL    HW224825   0.220   4.120   1.210
 4316SOL     OW24826   2.661   3.139  18.124
 4316SOL    HW124827   2.750   3.114  18.149
 4316SOL    HW224828   2.672   3.185  18.041
 4317SOL     OW24829   2.164   1.403  20.982
 4317SOL    HW124830   2.141   1.374  21.070
 4317SOL    HW224831   2.082   1.435  20.945
 4318SOL     OW24832   3.497   3.719  11.720
 4318SOL    HW124833   3.434   3.665  11.672
 4318SOL    HW224834   3.557   3.751  11.653
 4319SOL     OW24835   4.063   0.501   7.688
 4319SOL    HW124836   4.126   0.453   7.635
 4319SOL    HW224837   4.029   0.437   7.750
 4320SOL     OW24838   3.383   0.363  17.386
 4320SOL    HW124839   3.356   0.273  17.369
 4320SOL    HW224840   3.313   0.400  17.439
 4321SOL     OW24841   1.892   1.038   2.806
 4321SOL    HW124842   1.940   1.074   2.732
 4321SOL    HW224843   1.801   1.065   2.791
 4322SOL     OW24844   4.098   2.320  15.570
 4322SOL    HW124845   4.077   2.316  15.477
 4322SOL    HW224846   4.069   2.407  15.598
 4323SOL     OW24847   0.954   1.409   4.211
 4323SOL    HW124848   0.888   1.468   4.173
 4323SOL    HW224849   0.951   1.428   4.305
 4324SOL     OW24850   4.670   0.902  16.443
 4324SOL    HW124851   4.629   0.842  16.505
 4324SOL    HW224852   4.764   0.886  16.453
 4325SOL     OW24853   2.631   3.808   2.057
 4325SOL    HW124854   2.706   3.780   2.109
 4325SOL    HW224855   2.612   3.733   2.000
 4326SOL     OW24856   1.981   4.743   3.057
 4326SOL    HW124857   1.993   4.708   2.969
 4326SOL    HW224858   2.068   4.739   3.096
 4327SOL     OW24859   0.300   3.654   1.952
 4327SOL    HW124860   0.393   3.646   1.971
 4327SOL    HW224861   0.283   3.748   1.952
 4328SOL     OW24862   2.488   2.522  17.256
 4328SOL    HW124863   2.488   2.521  17.352
 4328SOL    HW224864   2.452   2.437  17.231
 4329SOL     OW24865   3.212   3.994   0.803
 4329SOL    HW124866   3.239   3.915   0.756
 4329SOL    HW224867   3.198   4.059   0.734
 4330SOL     OW24868   3.076   1.640   3.824
 4330SOL    HW124869   2.995   1.690   3.814
 4330SOL    HW224870   3.127   1.659   3.745
 4331SOL     OW24871   3.556   4.465   3.601
 4331SOL    HW124872   3.477   4.420   3.571
 4331SOL    HW224873   3.563   4.541   3.544
 4332SOL     OW24874   0.208   4.780  19.501
 4332SOL    HW124875   0.190   0.084  19.499
 4332SOL    HW224876   0.300   4.773  19.477
 4333SOL     OW24877   2.475   0.819  15.518
 4333SOL    HW124878   2.506   0.757  15.452
 4333SOL    HW224879   2.543   0.886  15.522
 4334SOL     OW24880   3.785   2.274   4.322
 4334SOL    HW124881   3.839   2.204   4.359
 4334SOL    HW224882   3.730   2.230   4.257
 4335SOL     OW24883   2.646   0.237  18.150
 4335SOL    HW124884   2.707   0.256  18.222
 4335SOL    HW224885   2.627   0.322  18.111
 4336SOL     OW24886   1.846   1.082  18.151
 4336SOL    HW124887   1.934   1.109  18.125
 4336SOL    HW224888   1.811   1.036  18.074
 4337SOL     OW24889   3.689   1.735  18.301
 4337SOL    HW124890   3.672   1.811  18.245
 4337SOL    HW224891   3.603   1.711  18.336
 4338SOL     OW24892   2.224   1.485  15.754
 4338SOL    HW124893   2.194   1.546  15.687
 4338SOL    HW224894   2.184   1.401  15.729
 4339SOL     OW24895   0.447   3.904  19.198
 4339SOL    HW124896   0.460   3.840  19.268
 4339SOL    HW224897   0.533   3.944  19.186
 4340SOL     OW24898   2.575   4.301  13.977
 4340SOL    HW124899   2.626   4.313  14.057
 4340SOL    HW224900   2.553   4.208  13.977
 4341SOL     OW24901   4.679   1.177   5.316
 4341SOL    HW124902   4.692   1.236   5.242
 4341SOL    HW224903   4.695   1.231   5.393
 4342SOL     OW24904   4.535   1.671   0.704
 4342SOL    HW124905   4.504   1.620   0.779
 4342SOL    HW224906   4.630   1.674   0.716
 4343SOL     OW24907   2.942   0.369  21.022
 4343SOL    HW124908   2.892   0.430  21.076
 4343SOL    HW224909   2.947   0.289  21.074
 4344SOL     OW24910   4.207   3.884  16.166
 4344SOL    HW124911   4.220   3.923  16.080
 4344SOL    HW224912   4.207   3.958  16.226
 4345SOL     OW24913   4.111   2.333   6.636
 4345SOL    HW124914   4.154   2.412   6.603
 4345SOL    HW224915   4.071   2.294   6.559
 4346SOL     OW24916   1.921   3.804   5.655
 4346SOL    HW124917   1.977   3.876   5.682
 4346SOL    HW224918   1.928   3.740   5.726
 4347SOL     OW24919   0.925   4.278   5.559
 4347SOL    HW124920   0.905   4.371   5.550
 4347SOL    HW224921   0.960   4.252   5.474
 4348SOL     OW24922   2.568   1.705   7.752
 4348SOL    HW124923   2.648   1.739   7.712
 4348SOL    HW224924   2.557   1.757   7.831
 4349SOL     OW24925   3.049   1.884   3.268
 4349SOL    HW124926   3.086   1.817   3.211
 4349SOL    HW224927   2.961   1.853   3.288
 4350SOL     OW24928   2.246   4.553   6.298
 4350SOL    HW124929   2.171   4.542   6.240
 4350SOL    HW224930   2.208   4.557   6.386
 4351SOL     OW24931   0.625   0.739   3.017
 4351SOL    HW124932   0.625   0.819   2.965
 4351SOL    HW224933   0.635   0.769   3.107
 4352SOL     OW24934   2.763   1.561  20.791
 4352SOL    HW124935   2.855   1.541  20.806
 4352SOL    HW224936   2.756   1.655  20.807
 4353SOL     OW24937   3.552   2.744  17.249
 4353SOL    HW124938   3.545   2.696  17.167
 4353SOL    HW224939   3.589   2.829  17.224
 4354SOL     OW24940   3.554   1.137  15.232
 4354SOL    HW124941   3.565   1.091  15.315
 4354SOL    HW224942   3.518   1.222  15.256
 4355SOL     OW24943   1.654   4.709   5.550
 4355SOL    HW124944   1.660   4.763   5.471
 4355SOL    HW224945   1.564   4.722   5.581
 4356SOL     OW24946   3.038   0.844   0.731
 4356SOL    HW124947   2.960   0.790   0.716
 4356SOL    HW224948   3.033   0.868   0.824
 4357SOL     OW24949   4.100   3.423   7.341
 4357SOL    HW124950   4.066   3.495   7.394
 4357SOL    HW224951   4.145   3.366   7.403
 4358SOL     OW24952   1.209   2.632  19.547
 4358SOL    HW124953   1.152   2.685  19.603
 4358SOL    HW224954   1.152   2.603  19.476
 4359SOL     OW24955   2.682   1.130   0.756
 4359SOL    HW124956   2.625   1.202   0.784
 4359SOL    HW224957   2.658   1.057   0.814
 4360SOL     OW24958   1.683   0.322  18.735
 4360SOL    HW124959   1.773   0.310  18.766
 4360SOL    HW224960   1.682   0.412  18.701
 4361SOL     OW24961   0.398   4.506  16.263
 4361SOL    HW124962   0.357   4.556  16.333
 4361SOL    HW224963   0.460   4.448  16.308
 4362SOL     OW24964   0.682   4.448   3.484
 4362SOL    HW124965   0.680   4.539   3.513
 4362SOL    HW224966   0.720   4.452   3.396
 4363SOL     OW24967   3.771   4.082  15.487
 4363SOL    HW124968   3.728   4.044  15.564
 4363SOL    HW224969   3.775   4.010  15.424
 4364SOL     OW24970   4.663   1.708  16.678
 4364SOL    HW124971   4.730   1.642  16.661
 4364SOL    HW224972   4.616   1.674  16.754
 4365SOL     OW24973   1.223   3.652   0.073
 4365SOL    HW124974   1.301   3.648   0.128
 4365SOL    HW224975   1.248   3.708  21.257
 4366SOL     OW24976   2.744   4.077   6.087
 4366SOL    HW124977   2.785   4.089   6.001
 4366SOL    HW224978   2.658   4.039   6.068
 4367SOL     OW24979   4.096   3.586   7.578
 4367SOL    HW124980   4.184   3.547   7.579
 4367SOL    HW224981   4.083   3.616   7.668
 4368SOL     OW24982   3.195   2.903  15.905
 4368SOL    HW124983   3.272   2.928  15.956
 4368SOL    HW224984   3.203   2.808  15.894
 4369SOL     OW24985   3.695   1.639   5.586
 4369SOL    HW124986   3.650   1.584   5.650
 4369SOL    HW224987   3.626   1.667   5.525
 4370SOL     OW24988   1.188   4.162  19.685
 4370SOL    HW124989   1.208   4.214  19.763
 4370SOL    HW224990   1.136   4.089  19.718
 4371SOL     OW24991   1.515   3.869   2.565
 4371SOL    HW124992   1.502   3.841   2.474
 4371SOL    HW224993   1.580   3.940   2.559
 4372SOL     OW24994   3.407   2.101   6.354
 4372SOL    HW124995   3.469   2.168   6.325
 4372SOL    HW224996   3.322   2.130   6.320
 4373SOL     OW24997   1.025   0.288   3.325
 4373SOL    HW124998   0.965   0.332   3.265
 4373SOL    HW224999   1.038   0.201   3.288
 4374SOL     OW25000   0.359   4.175  16.251
 4374SOL    HW125001   0.391   4.096  16.296
 4374SOL    HW225002   0.411   4.180  16.171
 4375SOL     OW25003   1.352   4.462  19.984
 4375SOL    HW125004   1.278   4.493  19.931
 4375SOL    HW225005   1.429   4.480  19.930
 4376SOL     OW25006   2.415   4.466  19.407
 4376SOL    HW125007   2.463   4.521  19.345
 4376SOL    HW225008   2.379   4.527  19.471
 4377SOL     OW25009   0.035   4.444   4.420
 4377SOL    HW125010   4.750   4.503   4.434
 4377SOL    HW225011   0.065   4.422   4.508
 4378SOL     OW25012   2.321   0.962  20.752
 4378SOL    HW125013   2.314   1.050  20.789
 4378SOL    HW225014   2.414   0.952  20.733
 4379SOL     OW25015   2.266   0.105  17.147
 4379SOL    HW125016   2.259   0.180  17.206
 4379SOL    HW225017   2.358   0.080  17.151
 4380SOL     OW25018   3.325   2.420   0.663
 4380SOL    HW125019   3.363   2.337   0.633
 4380SOL    HW225020   3.350   2.483   0.595
 4381SOL     OW25021   1.838   1.133  19.147
 4381SOL    HW125022   1.750   1.098  19.137
 4381SOL    HW225023   1.852   1.185  19.068
 4382SOL     OW25024   3.141   4.609  18.186
 4382SOL    HW125025   3.189   4.589  18.266
 4382SOL    HW225026   3.121   4.523  18.149
 4383SOL     OW25027   3.102   4.367   5.794
 4383SOL    HW125028   3.082   4.276   5.774
 4383SOL    HW225029   3.078   4.378   5.886
 4384SOL     OW25030   3.521   3.203   7.211
 4384SOL    HW125031   3.483   3.269   7.269
 4384SOL    HW225032   3.472   3.123   7.230
 4385SOL     OW25033   3.030   1.691  20.127
 4385SOL    HW125034   3.093   1.707  20.057
 4385SOL    HW225035   3.083   1.670  20.204
 4386SOL     OW25036   1.403   3.782  14.411
 4386SOL    HW125037   1.488   3.815  14.381
 4386SOL    HW225038   1.384   3.708  14.353
 4387SOL     OW25039   2.713   4.440  17.268
 4387SOL    HW125040   2.630   4.462  17.226
 4387SOL    HW225041   2.775   4.431  17.196
 4388SOL     OW25042   3.469   2.113   3.337
 4388SOL    HW125043   3.558   2.145   3.354
 4388SOL    HW225044   3.448   2.147   3.250
 4389SOL     OW25045   4.569   2.051  19.920
 4389SOL    HW125046   4.519   2.044  20.001
 4389SOL    HW225047   4.625   2.128  19.933
 4390SOL     OW25048   1.091   0.747   1.673
 4390SOL    HW125049   1.166   0.745   1.733
 4390SOL    HW225050   1.110   0.820   1.614
 4391SOL     OW25051   1.219   1.674   2.891
 4391SOL    HW125052   1.180   1.595   2.929
 4391SOL    HW225053   1.243   1.727   2.967
 4392SOL     OW25054   3.678   3.711  20.364
 4392SOL    HW125055   3.709   3.725  20.453
 4392SOL    HW225056   3.718   3.781  20.313
 4393SOL     OW25057   4.729   1.079   6.494
 4393SOL    HW125058   4.776   1.035   6.423
 4393SOL    HW225059   4.697   1.008   6.549
 4394SOL     OW25060   1.065   0.623  18.172
 4394SOL    HW125061   0.970   0.619  18.185
 4394SOL    HW225062   1.094   0.696  18.227
 4395SOL     OW25063   1.360   3.054   0.585
 4395SOL    HW125064   1.332   3.007   0.507
 4395SOL    HW225065   1.450   3.025   0.599
 4396SOL     OW25066   4.316   2.785   3.849
 4396SOL    HW125067   4.295   2.784   3.756
 4396SOL    HW225068   4.386   2.850   3.857
 4397SOL     OW25069   1.298   1.432  14.065
 4397SOL    HW125070   1.296   1.449  14.159
 4397SOL    HW225071   1.245   1.353  14.054
 4398SOL     OW25072   3.593   1.396  16.897
 4398SOL    HW125073   3.628   1.359  16.978
 4398SOL    HW225074   3.660   1.457  16.867
 4399SOL     OW25075   2.246   0.095   4.226
 4399SOL    HW125076   2.225   0.098   4.133
 4399SOL    HW225077   2.174   0.142   4.268
 4400SOL     OW25078   2.372   3.347   4.326
 4400SOL    HW125079   2.291   3.298   4.311
 4400SOL    HW225080   2.400   3.375   4.239
 4401SOL     OW25081   1.618   2.231   4.814
 4401SOL    HW125082   1.596   2.181   4.893
 4401SOL    HW225083   1.701   2.193   4.785
 4402SOL     OW25084   0.867   2.160  15.605
 4402SOL    HW125085   0.870   2.149  15.510
 4402SOL    HW225086   0.781   2.127  15.630
 4403SOL     OW25087   0.513   4.029  13.508
 4403SOL    HW125088   0.530   3.943  13.547
 4403SOL    HW225089   0.508   4.013  13.414
 4404SOL     OW25090   2.145   1.906  18.247
 4404SOL    HW125091   2.051   1.918  18.263
 4404SOL    HW225092   2.156   1.811  18.242
 4405SOL     OW25093   3.336   0.921   5.066
 4405SOL    HW125094   3.378   0.993   5.113
 4405SOL    HW225095   3.408   0.865   5.038
 4406SOL     OW25096   2.904   3.553  14.517
 4406SOL    HW125097   2.969   3.485  14.535
 4406SOL    HW225098   2.895   3.600  14.600
 4407SOL     OW25099   2.296   1.691  20.323
 4407SOL    HW125100   2.283   1.693  20.418
 4407SOL    HW225101   2.242   1.617  20.294
 4408SOL     OW25102   4.064   0.867   3.429
 4408SOL    HW125103   4.158   0.850   3.435
 4408SOL    HW225104   4.058   0.957   3.396
 4409SOL     OW25105   2.121   0.496   4.495
 4409SOL    HW125106   2.051   0.514   4.433
 4409SOL    HW225107   2.179   0.572   4.488
 4410SOL     OW25108   2.941   4.146   1.351
 4410SOL    HW125109   3.009   4.193   1.304
 4410SOL    HW225110   2.987   4.105   1.425
 4411SOL     OW25111   4.030   1.312   0.719
 4411SOL    HW125112   4.000   1.314   0.810
 4411SOL    HW225113   4.015   1.401   0.687
 4412SOL     OW25114   2.771   3.438  17.688
 4412SOL    HW125115   2.763   3.532  17.674
 4412SOL    HW225116   2.693   3.401  17.647
 4413SOL     OW25117   1.442   3.706  17.120
 4413SOL    HW125118   1.433   3.672  17.031
 4413SOL    HW225119   1.513   3.769  17.115
 4414SOL     OW25120   3.353   3.368  20.405
 4414SOL    HW125121   3.359   3.407  20.492
 4414SOL    HW225122   3.264   3.333  20.401
 4415SOL     OW25123   3.272   2.807  14.000
 4415SOL    HW125124   3.245   2.898  13.992
 4415SOL    HW225125   3.291   2.780  13.910
 4416SOL     OW25126   1.229   3.716  16.396
 4416SOL    HW125127   1.174   3.764  16.334
 4416SOL    HW225128   1.264   3.783  16.455
 4417SOL     OW25129   2.901   3.785  15.272
 4417SOL    HW125130   2.964   3.825  15.332
 4417SOL    HW225131   2.951   3.769  15.192
 4418SOL     OW25132   1.786   1.717   4.246
 4418SOL    HW125133   1.810   1.648   4.184
 4418SOL    HW225134   1.869   1.759   4.269
 4419SOL     OW25135   0.689   1.373  16.317
 4419SOL    HW125136   0.758   1.321  16.359
 4419SOL    HW225137   0.621   1.381  16.384
 4420SOL     OW25138   1.588   4.470   3.089
 4420SOL    HW125139   1.562   4.384   3.121
 4420SOL    HW225140   1.510   4.524   3.100
 4421SOL     OW25141   3.213   0.205   3.282
 4421SOL    HW125142   3.307   0.193   3.266
 4421SOL    HW225143   3.192   0.138   3.347
 4422SOL     OW25144   0.134   4.325  16.267
 4422SOL    HW125145   0.171   4.406  16.304
 4422SOL    HW225146   0.209   4.267  16.258
 4423SOL     OW25147   2.318   4.784  20.519
 4423SOL    HW125148   2.396   4.787  20.463
 4423SOL    HW225149   2.247   0.023  20.462
 4424SOL     OW25150   3.277   4.378   4.515
 4424SOL    HW125151   3.296   4.369   4.422
 4424SOL    HW225152   3.215   4.307   4.534
 4425SOL     OW25153   2.410   4.448   4.826
 4425SOL    HW125154   2.458   4.427   4.906
 4425SOL    HW225155   2.347   4.515   4.853
 4426SOL     OW25156   3.485   4.646  16.654
 4426SOL    HW125157   3.570   4.674  16.621
 4426SOL    HW225158   3.464   4.710  16.722
 4427SOL     OW25159   0.306   0.606   4.074
 4427SOL    HW125160   0.311   0.688   4.024
 4427SOL    HW225161   0.278   0.541   4.010
 4428SOL     OW25162   3.365   4.248   0.619
 4428SOL    HW125163   3.402   4.330   0.585
 4428SOL    HW225164   3.431   4.216   0.680
 4429SOL     OW25165   1.014   1.749   5.133
 4429SOL    HW125166   1.043   1.772   5.045
 4429SOL    HW225167   0.998   1.833   5.176
 4430SOL     OW25168   0.373   2.032  20.621
 4430SOL    HW125169   0.409   2.060  20.705
 4430SOL    HW225170   0.430   2.073  20.556
 4431SOL     OW25171   3.520   0.714  19.908
 4431SOL    HW125172   3.613   0.703  19.888
 4431SOL    HW225173   3.513   0.693  20.001
 4432SOL     OW25174   1.582   1.311  17.421
 4432SOL    HW125175   1.541   1.397  17.425
 4432SOL    HW225176   1.515   1.254  17.383
 4433SOL     OW25177   2.674   1.480   5.957
 4433SOL    HW125178   2.702   1.503   6.046
 4433SOL    HW225179   2.672   1.384   5.957
 4434SOL     OW25180   3.648   3.517  19.716
 4434SOL    HW125181   3.652   3.493  19.809
 4434SOL    HW225182   3.598   3.599  19.714
 4435SOL     OW25183   2.413   3.114   3.894
 4435SOL    HW125184   2.425   3.111   3.989
 4435SOL    HW225185   2.319   3.129   3.882
 4436SOL     OW25186   3.400   1.477  13.866
 4436SOL    HW125187   3.419   1.429  13.785
 4436SOL    HW225188   3.483   1.519  13.889
 4437SOL     OW25189   2.578   3.344  17.073
 4437SOL    HW125190   2.602   3.399  16.999
 4437SOL    HW225191   2.519   3.399  17.126
 4438SOL     OW25192   4.205   3.973   2.355
 4438SOL    HW125193   4.150   4.002   2.428
 4438SOL    HW225194   4.234   3.885   2.381
 4439SOL     OW25195   0.299   0.296   7.285
 4439SOL    HW125196   0.271   0.311   7.375
 4439SOL    HW225197   0.257   0.214   7.259
 4440SOL     OW25198   1.717   1.240  16.609
 4440SOL    HW125199   1.725   1.195  16.693
 4440SOL    HW225200   1.740   1.331  16.628
 4441SOL     OW25201   2.938   1.897   4.833
 4441SOL    HW125202   2.844   1.878   4.840
 4441SOL    HW225203   2.980   1.826   4.881
 4442SOL     OW25204   0.848   4.552   4.725
 4442SOL    HW125205   0.871   4.512   4.641
 4442SOL    HW225206   0.769   4.506   4.753
 4443SOL     OW25207   4.490   1.129   3.052
 4443SOL    HW125208   4.448   1.043   3.044
 4443SOL    HW225209   4.477   1.171   2.967
 4444SOL     OW25210   1.378   1.287   0.209
 4444SOL    HW125211   1.307   1.316   0.267
 4444SOL    HW225212   1.396   1.362   0.153
 4445SOL     OW25213   3.192   0.073   1.678
 4445SOL    HW125214   3.114   0.057   1.625
 4445SOL    HW225215   3.253   0.004   1.653
 4446SOL     OW25216   0.016   3.390  18.625
 4446SOL    HW125217   4.747   3.327  18.666
 4446SOL    HW225218   0.056   3.342  18.553
 4447SOL     OW25219   4.130   0.055   6.981
 4447SOL    HW125220   4.118   4.753   7.005
 4447SOL    HW225221   4.222   0.072   6.999
 4448SOL     OW25222   1.181   4.311  17.180
 4448SOL    HW125223   1.221   4.285  17.263
 4448SOL    HW225224   1.112   4.247  17.166
 4449SOL     OW25225   2.686   4.131   5.104
 4449SOL    HW125226   2.682   4.082   5.186
 4449SOL    HW225227   2.595   4.153   5.085
 4450SOL     OW25228   4.644   0.545   4.192
 4450SOL    HW125229   4.680   0.457   4.188
 4450SOL    HW225230   4.608   0.552   4.281
 4451SOL     OW25231   2.632   1.012   1.411
 4451SOL    HW125232   2.704   0.957   1.441
 4451SOL    HW225233   2.650   1.098   1.450
 4452SOL     OW25234   4.701   2.987  15.144
 4452SOL    HW125235   4.696   3.079  15.169
 4452SOL    HW225236   4.658   2.940  15.216
 4453SOL     OW25237   0.934   0.628   1.480
 4453SOL    HW125238   0.964   0.636   1.389
 4453SOL    HW225239   0.987   0.691   1.528
 4454SOL     OW25240   1.410   3.606  18.597
 4454SOL    HW125241   1.369   3.527  18.561
 4454SOL    HW225242   1.481   3.573  18.653
 4455SOL     OW25243   3.474   0.744   1.589
 4455SOL    HW125244   3.561   0.709   1.572
 4455SOL    HW225245   3.487   0.839   1.592
 4456SOL     OW25246   4.789   3.362   6.809
 4456SOL    HW125247   0.093   3.381   6.814
 4456SOL    HW225248   4.777   3.285   6.865
 4457SOL     OW25249   1.675   0.394  20.295
 4457SOL    HW125250   1.586   0.365  20.276
 4457SOL    HW225251   1.666   0.487  20.314
 4458SOL     OW25252   0.497   0.656  18.100
 4458SOL    HW125253   0.536   0.741  18.122
 4458SOL    HW225254   0.454   0.670  18.016
 4459SOL     OW25255   4.606   2.107  15.784
 4459SOL    HW125256   4.547   2.130  15.712
 4459SOL    HW225257   4.670   2.178  15.787
 4460SOL     OW25258   3.104   0.899   1.466
 4460SOL    HW125259   3.156   0.885   1.387
 4460SOL    HW225260   3.013   0.891   1.437
 4461SOL     OW25261   4.240   2.435   4.204
 4461SOL    HW125262   4.210   2.518   4.242
 4461SOL    HW225263   4.163   2.401   4.159
 4462SOL     OW25264   3.515   1.099  20.806
 4462SOL    HW125265   3.569   1.126  20.731
 4462SOL    HW225266   3.533   1.165  20.873
 4463SOL     OW25267   1.184   1.957  20.856
 4463SOL    HW125268   1.106   1.913  20.891
 4463SOL    HW225269   1.257   1.901  20.882
 4464SOL     OW25270   3.695   1.870   6.240
 4464SOL    HW125271   3.775   1.879   6.189
 4464SOL    HW225272   3.713   1.798   6.301
 4465SOL     OW25273   0.706   3.182   2.446
 4465SOL    HW125274   0.648   3.107   2.436
 4465SOL    HW225275   0.647   3.257   2.452
 4466SOL     OW25276   2.568   4.399   3.786
 4466SOL    HW125277   2.649   4.443   3.760
 4466SOL    HW225278   2.527   4.374   3.703
 4467SOL     OW25279   1.181   1.576   5.529
 4467SOL    HW125280   1.158   1.668   5.516
 4467SOL    HW225281   1.242   1.556   5.458
 4468SOL     OW25282   2.526   4.750   1.925
 4468SOL    HW125283   2.501   4.711   2.009
 4468SOL    HW225284   2.455   0.021   1.905
 4469SOL     OW25285   2.165   0.860   1.102
 4469SOL    HW125286   2.090   0.800   1.104
 4469SOL    HW225287   2.144   0.921   1.031
 4470SOL     OW25288   2.807   3.803   3.141
 4470SOL    HW125289   2.724   3.820   3.097
 4470SOL    HW225290   2.847   3.889   3.151
 4471SOL     OW25291   2.602   0.818  16.760
 4471SOL    HW125292   2.590   0.726  16.737
 4471SOL    HW225293   2.683   0.843  16.716
 4472SOL     OW25294   3.848   2.287   6.520
 4472SOL    HW125295   3.769   2.235   6.536
 4472SOL    HW225296   3.856   2.288   6.425
 4473SOL     OW25297   2.462   0.670  19.798
 4473SOL    HW125298   2.466   0.726  19.875
 4473SOL    HW225299   2.435   0.729  19.727
 4474SOL     OW25300   4.699   2.175  15.291
 4474SOL    HW125301   4.701   2.238  15.363
 4474SOL    HW225302   4.713   2.228  15.212
 4475SOL     OW25303   1.081   2.996  16.079
 4475SOL    HW125304   0.998   2.948  16.078
 4475SOL    HW225305   1.112   2.992  15.989
 4476SOL     OW25306   1.170   2.279   2.626
 4476SOL    HW125307   1.080   2.297   2.598
 4476SOL    HW225308   1.167   2.285   2.722
 4477SOL     OW25309   1.033   4.494   0.496
 4477SOL    HW125310   0.942   4.522   0.490
 4477SOL    HW225311   1.031   4.418   0.555
 4478SOL     OW25312   0.617   4.581  16.734
 4478SOL    HW125313   0.700   4.601  16.778
 4478SOL    HW225314   0.587   4.665  16.700
 4479SOL     OW25315   2.924   2.367  20.242
 4479SOL    HW125316   3.001   2.312  20.253
 4479SOL    HW225317   2.934   2.436  20.308
 4480SOL     OW25318   1.512   0.641   5.777
 4480SOL    HW125319   1.458   0.710   5.817
 4480SOL    HW225320   1.563   0.606   5.850
 4481SOL     OW25321   2.315   0.759   0.847
 4481SOL    HW125322   2.337   0.737   0.938
 4481SOL    HW225323   2.283   0.677   0.810
 4482SOL     OW25324   4.238   1.359   5.290
 4482SOL    HW125325   4.208   1.438   5.245
 4482SOL    HW225326   4.225   1.288   5.227
 4483SOL     OW25327   0.534   2.609  20.888
 4483SOL    HW125328   0.526   2.667  20.964
 4483SOL    HW225329   0.586   2.659  20.825
 4484SOL     OW25330   0.280   0.136   3.351
 4484SOL    HW125331   0.347   0.099   3.409
 4484SOL    HW225332   0.328   0.195   3.293
 4485SOL     OW25333   1.464   2.516   0.250
 4485SOL    HW125334   1.449   2.497   0.343
 4485SOL    HW225335   1.380   2.548   0.218
 4486SOL     OW25336   1.534   4.410   2.565
 4486SOL    HW125337   1.513   4.342   2.630
 4486SOL    HW225338   1.629   4.420   2.571
 4487SOL     OW25339   0.972   0.657   2.871
 4487SOL    HW125340   1.067   0.660   2.881
 4487SOL    HW225341   0.941   0.611   2.949
 4488SOL     OW25342   1.009   0.387   0.041
 4488SOL    HW125343   1.052   0.329   0.104
 4488SOL    HW225344   1.077   0.450   0.016
 4489SOL     OW25345   2.989   1.403   3.868
 4489SOL    HW125346   2.941   1.415   3.786
 4489SOL    HW225347   3.053   1.475   3.869
 4490SOL     OW25348   4.169   2.927   0.607
 4490SOL    HW125349   4.225   2.993   0.648
 4490SOL    HW225350   4.132   2.878   0.680
 4491SOL     OW25351   0.125   2.361   1.389
 4491SOL    HW125352   0.182   2.319   1.453
 4491SOL    HW225353   0.047   2.385   1.439
 4492SOL     OW25354   3.195   4.054  16.887
 4492SOL    HW125355   3.171   3.985  16.948
 4492SOL    HW225356   3.193   4.012  16.801
 4493SOL     OW25357   3.148   2.557   5.942
 4493SOL    HW125358   3.112   2.518   6.022
 4493SOL    HW225359   3.077   2.550   5.878
 4494SOL     OW25360   0.626   4.702   5.011
 4494SOL    HW125361   0.543   4.749   5.014
 4494SOL    HW225362   0.693   4.771   5.012
 4495SOL     OW25363   1.947   1.673  20.156
 4495SOL    HW125364   1.977   1.757  20.191
 4495SOL    HW225365   1.884   1.642  20.220
 4496SOL     OW25366   0.846   1.995   4.006
 4496SOL    HW125367   0.922   1.980   4.062
 4496SOL    HW225368   0.851   2.088   3.983
 4497SOL     OW25369   0.979   4.344   4.236
 4497SOL    HW125370   1.022   4.270   4.278
 4497SOL    HW225371   1.042   4.374   4.171
 4498SOL     OW25372   4.282   1.767   5.557
 4498SOL    HW125373   4.314   1.739   5.643
 4498SOL    HW225374   4.359   1.762   5.500
 4499SOL     OW25375   2.860   3.354   2.650
 4499SOL    HW125376   2.901   3.436   2.623
 4499SOL    HW225377   2.789   3.380   2.708
 4500SOL     OW25378   1.207   3.577   3.859
 4500SOL    HW125379   1.202   3.672   3.869
 4500SOL    HW225380   1.202   3.543   3.948
 4501SOL     OW25381   0.465   0.582  17.441
 4501SOL    HW125382   0.537   0.630  17.401
 4501SOL    HW225383   0.477   0.594  17.535
 4502SOL     OW25384   3.592   0.881   4.638
 4502SOL    HW125385   3.553   0.935   4.569
 4502SOL    HW225386   3.653   0.940   4.683
 4503SOL     OW25387   3.135   1.926  19.746
 4503SOL    HW125388   3.176   1.894  19.666
 4503SOL    HW225389   3.048   1.956  19.719
 4504SOL     OW25390   4.375   2.505   0.802
 4504SOL    HW125391   4.381   2.543   0.714
 4504SOL    HW225392   4.330   2.572   0.854
 4505SOL     OW25393   4.730   3.455  19.010
 4505SOL    HW125394   4.767   3.369  18.991
 4505SOL    HW225395   4.766   3.512  18.942
 4506SOL     OW25396   0.461   3.078  19.073
 4506SOL    HW125397   0.433   2.987  19.082
 4506SOL    HW225398   0.407   3.113  19.002
 4507SOL     OW25399   1.415   2.152   5.562
 4507SOL    HW125400   1.367   2.085   5.611
 4507SOL    HW225401   1.502   2.153   5.602
 4508SOL     OW25402   0.862   1.138  16.589
 4508SOL    HW125403   0.808   1.061  16.605
 4508SOL    HW225404   0.948   1.114  16.623
 4509SOL     OW25405   2.614   0.595   3.373
 4509SOL    HW125406   2.552   0.585   3.301
 4509SOL    HW225407   2.660   0.511   3.376
 4510SOL     OW25408   2.930   2.984  16.764
 4510SOL    HW125409   2.926   3.045  16.691
 4510SOL    HW225410   2.840   2.953  16.775
 4511SOL     OW25411   0.655   1.762   4.024
 4511SOL    HW125412   0.705   1.830   4.068
 4511SOL    HW225413   0.582   1.809   3.983
 4512SOL     OW25414   2.948   2.616   6.789
 4512SOL    HW125415   2.884   2.547   6.772
 4512SOL    HW225416   2.896   2.690   6.822
 4513SOL     OW25417   2.972   3.671  17.863
 4513SOL    HW125418   2.967   3.619  17.944
 4513SOL    HW225419   3.037   3.626  17.810
 4514SOL     OW25420   0.221   1.721   2.106
 4514SOL    HW125421   0.175   1.744   2.187
 4514SOL    HW225422   0.257   1.634   2.122
 4515SOL     OW25423   4.141   3.140  15.743
 4515SOL    HW125424   4.199   3.066  15.762
 4515SOL    HW225425   4.116   3.174  15.829
 4516SOL     OW25426   0.246   4.466   7.376
 4516SOL    HW125427   0.215   4.546   7.419
 4516SOL    HW225428   0.294   4.498   7.300
 4517SOL     OW25429   4.023   4.416  18.370
 4517SOL    HW125430   4.110   4.410  18.330
 4517SOL    HW225431   4.029   4.492  18.429
 4518SOL     OW25432   1.541   0.761   6.165
 4518SOL    HW125433   1.530   0.768   6.260
 4518SOL    HW225434   1.572   0.672   6.151
 4519SOL     OW25435   1.092   2.351   4.174
 4519SOL    HW125436   1.042   2.430   4.154
 4519SOL    HW225437   1.085   2.297   4.095
 4520SOL     OW25438   1.125   0.549  16.665
 4520SOL    HW125439   1.138   0.638  16.697
 4520SOL    HW225440   1.180   0.544  16.586
 4521SOL     OW25441   4.581   4.773   0.768
 4521SOL    HW125442   4.530   4.692   0.763
 4521SOL    HW225443   4.636   4.772   0.690
 4522SOL     OW25444   2.018   2.317   0.222
 4522SOL    HW125445   1.933   2.352   0.247
 4522SOL    HW225446   2.074   2.394   0.212
 4523SOL     OW25447   3.108   2.682   5.346
 4523SOL    HW125448   3.031   2.739   5.344
 4523SOL    HW225449   3.147   2.699   5.432
 4524SOL     OW25450   0.316   2.034   5.887
 4524SOL    HW125451   0.329   2.050   5.981
 4524SOL    HW225452   0.397   2.065   5.846
 4525SOL     OW25453   2.459   2.658   2.503
 4525SOL    HW125454   2.514   2.628   2.431
 4525SOL    HW225455   2.371   2.627   2.481
 4526SOL     OW25456   3.517   2.567   3.256
 4526SOL    HW125457   3.545   2.489   3.208
 4526SOL    HW225458   3.472   2.621   3.191
 4527SOL     OW25459   0.442   3.183  19.324
 4527SOL    HW125460   0.391   3.119  19.373
 4527SOL    HW225461   0.436   3.154  19.233
 4528SOL     OW25462   3.683   3.498  12.562
 4528SOL    HW125463   3.682   3.475  12.469
 4528SOL    HW225464   3.726   3.424  12.604
 4529SOL     OW25465   0.519   0.815  17.766
 4529SOL    HW125466   0.496   0.907  17.751
 4529SOL    HW225467   0.452   0.783  17.827
 4530SOL     OW25468   2.817   1.587   3.042
 4530SOL    HW125469   2.872   1.617   2.969
 4530SOL    HW225470   2.811   1.492   3.029
 4531SOL     OW25471   3.620   0.611   0.328
 4531SOL    HW125472   3.541   0.622   0.276
 4531SOL    HW225473   3.665   0.695   0.322
 4532SOL     OW25474   2.681   0.937   6.446
 4532SOL    HW125475   2.608   0.886   6.411
 4532SOL    HW225476   2.758   0.904   6.399
 4533SOL     OW25477   2.799   3.417   3.672
 4533SOL    HW125478   2.779   3.436   3.580
 4533SOL    HW225479   2.832   3.500   3.707
 4534SOL     OW25480   1.346   0.672   1.799
 4534SOL    HW125481   1.363   0.581   1.774
 4534SOL    HW225482   1.409   0.691   1.868
 4535SOL     OW25483   3.538   2.782  17.542
 4535SOL    HW125484   3.629   2.766  17.565
 4535SOL    HW225485   3.538   2.789  17.447
 4536SOL     OW25486   3.379   2.760   2.420
 4536SOL    HW125487   3.422   2.675   2.434
 4536SOL    HW225488   3.449   2.817   2.388
 4537SOL     OW25489   2.255   1.243  16.519
 4537SOL    HW125490   2.238   1.312  16.583
 4537SOL    HW225491   2.349   1.249  16.502
 4538SOL     OW25492   3.543   0.284   6.802
 4538SOL    HW125493   3.458   0.242   6.790
 4538SOL    HW225494   3.583   0.237   6.876
 4539SOL     OW25495   0.957   3.325  16.756
 4539SOL    HW125496   0.923   3.407  16.721
 4539SOL    HW225497   1.002   3.284  16.682
 4540SOL     OW25498   2.718   2.431   1.831
 4540SOL    HW125499   2.628   2.439   1.862
 4540SOL    HW225500   2.738   2.516   1.792
 4541SOL     OW25501   1.716   3.920   1.889
 4541SOL    HW125502   1.659   3.971   1.831
 4541SOL    HW225503   1.756   3.986   1.946
 4542SOL     OW25504   0.542   3.069  13.774
 4542SOL    HW125505   0.493   3.149  13.756
 4542SOL    HW225506   0.633   3.092  13.759
 4543SOL     OW25507   1.172   3.689   1.423
 4543SOL    HW125508   1.246   3.738   1.460
 4543SOL    HW225509   1.135   3.748   1.357
 4544SOL     OW25510   2.859   4.405  18.046
 4544SOL    HW125511   2.826   4.385  17.958
 4544SOL    HW225512   2.883   4.498  18.043
 4545SOL     OW25513   1.913   0.089  18.496
 4545SOL    HW125514   1.879   0.162  18.444
 4545SOL    HW225515   2.001   0.074  18.460
 4546SOL     OW25516   3.137   4.374   0.148
 4546SOL    HW125517   3.139   4.373   0.052
 4546SOL    HW225518   3.182   4.455   0.172
 4547SOL     OW25519   3.456   0.102  21.213
 4547SOL    HW125520   3.428   0.013  21.192
 4547SOL    HW225521   3.497   0.095   0.042
 4548SOL     OW25522   1.902   2.887   2.384
 4548SOL    HW125523   1.872   2.969   2.346
 4548SOL    HW225524   1.933   2.911   2.471
 4549SOL     OW25525   2.001   3.429  19.363
 4549SOL    HW125526   2.055   3.462  19.292
 4549SOL    HW225527   1.942   3.502  19.384
 4550SOL     OW25528   0.414   0.235  13.461
 4550SOL    HW125529   0.388   0.241  13.369
 4550SOL    HW225530   0.506   0.209  13.459
 4551SOL     OW25531   4.298   1.395  17.333
 4551SOL    HW125532   4.248   1.476  17.338
 4551SOL    HW225533   4.381   1.421  17.292
 4552SOL     OW25534   3.037   0.069   6.550
 4552SOL    HW125535   3.004   0.017   6.623
 4552SOL    HW225536   3.013   0.020   6.472
 4553SOL     OW25537   3.989   1.709  15.793
 4553SOL    HW125538   3.913   1.754  15.755
 4553SOL    HW225539   3.979   1.618  15.766
 4554SOL     OW25540   0.424   1.383   1.814
 4554SOL    HW125541   0.436   1.441   1.739
 4554SOL    HW225542   0.382   1.305   1.778
 4555SOL     OW25543   1.405   4.621  19.559
 4555SOL    HW125544   1.441   4.578  19.482
 4555SOL    HW225545   1.324   4.574  19.577
 4556SOL     OW25546   2.145   1.637  18.237
 4556SOL    HW125547   2.188   1.586  18.305
 4556SOL    HW225548   2.182   1.604  18.155
 4557SOL     OW25549   2.150   1.623  20.554
 4557SOL    HW125550   2.060   1.590  20.560
 4557SOL    HW225551   2.205   1.545  20.558
 4558SOL     OW25552   2.066   2.266  18.307
 4558SOL    HW125553   2.064   2.206  18.233
 4558SOL    HW225554   2.067   2.353  18.267
 4559SOL     OW25555   3.923   2.198  20.186
 4559SOL    HW125556   3.836   2.218  20.152
 4559SOL    HW225557   3.960   2.137  20.122
 4560SOL     OW25558   3.840   1.117   8.008
 4560SOL    HW125559   3.846   1.032   7.964
 4560SOL    HW225560   3.786   1.100   8.085
 4561SOL     OW25561   3.096   2.621   7.012
 4561SOL    HW125562   3.125   2.534   7.039
 4561SOL    HW225563   3.037   2.604   6.938
 4562SOL     OW25564   1.683   4.124   2.596
 4562SOL    HW125565   1.689   4.091   2.506
 4562SOL    HW225566   1.723   4.211   2.593
 4563SOL     OW25567   3.047   3.044   5.080
 4563SOL    HW125568   3.013   3.111   5.020
 4563SOL    HW225569   2.969   2.997   5.111
 4564SOL     OW25570   0.974   0.255   1.836
 4564SOL    HW125571   0.966   0.333   1.891
 4564SOL    HW225572   1.063   0.260   1.801
 4565SOL     OW25573   1.786   4.248  19.435
 4565SOL    HW125574   1.835   4.193  19.497
 4565SOL    HW225575   1.795   4.337  19.469
 4566SOL     OW25576   4.519   1.294   2.413
 4566SOL    HW125577   4.434   1.329   2.440
 4566SOL    HW225578   4.547   1.239   2.486
 4567SOL     OW25579   3.425   1.807  15.811
 4567SOL    HW125580   3.350   1.838  15.761
 4567SOL    HW225581   3.501   1.836  15.761
 4568SOL     OW25582   3.159   0.689  16.894
 4568SOL    HW125583   3.092   0.621  16.889
 4568SOL    HW225584   3.135   0.741  16.971
 4569SOL     OW25585   1.266   3.169   3.408
 4569SOL    HW125586   1.339   3.163   3.470
 4569SOL    HW225587   1.272   3.257   3.372
 4570SOL     OW25588   2.277   2.039   0.709
 4570SOL    HW125589   2.315   1.968   0.658
 4570SOL    HW225590   2.235   1.995   0.783
 4571SOL     OW25591   4.396   1.812   4.020
 4571SOL    HW125592   4.344   1.885   4.054
 4571SOL    HW225593   4.337   1.737   4.024
 4572SOL     OW25594   0.445   2.648   1.352
 4572SOL    HW125595   0.372   2.650   1.290
 4572SOL    HW225596   0.515   2.696   1.307
 4573SOL     OW25597   3.333   3.100   6.490
 4573SOL    HW125598   3.318   3.176   6.434
 4573SOL    HW225599   3.324   3.133   6.579
 4574SOL     OW25600   1.901   2.330   2.412
 4574SOL    HW125601   1.948   2.317   2.494
 4574SOL    HW225602   1.962   2.301   2.344
 4575SOL     OW25603   1.469   0.219  20.547
 4575SOL    HW125604   1.530   0.149  20.523
 4575SOL    HW225605   1.437   0.253  20.463
 4576SOL     OW25606   1.709   0.781  20.620
 4576SOL    HW125607   1.702   0.873  20.596
 4576SOL    HW225608   1.762   0.742  20.550
 4577SOL     OW25609   1.760   4.149  15.484
 4577SOL    HW125610   1.839   4.166  15.432
 4577SOL    HW225611   1.771   4.060  15.517
 4578SOL     OW25612   2.848   0.725  14.502
 4578SOL    HW125613   2.920   0.786  14.519
 4578SOL    HW225614   2.771   0.781  14.494
 4579SOL     OW25615   3.651   1.665   0.637
 4579SOL    HW125616   3.561   1.633   0.642
 4579SOL    HW225617   3.642   1.759   0.622
 4580SOL     OW25618   1.957   4.085   5.756
 4580SOL    HW125619   2.005   4.160   5.721
 4580SOL    HW225620   1.865   4.108   5.745
 4581SOL     OW25621   4.086   2.798   6.833
 4581SOL    HW125622   4.161   2.812   6.776
 4581SOL    HW225623   4.040   2.723   6.795
 4582SOL     OW25624   0.952   1.511  13.978
 4582SOL    HW125625   0.942   1.422  14.012
 4582SOL    HW225626   0.863   1.538  13.956
 4583SOL     OW25627   0.105   4.179  17.716
 4583SOL    HW125628   0.038   4.141  17.772
 4583SOL    HW225629   0.184   4.127  17.733
 4584SOL     OW25630   4.317   4.412  16.743
 4584SOL    HW125631   4.267   4.401  16.824
 4584SOL    HW225632   4.400   4.451  16.770
 4585SOL     OW25633   2.947   2.905   5.655
 4585SOL    HW125634   3.002   2.974   5.692
 4585SOL    HW225635   2.884   2.885   5.724
 4586SOL     OW25636   1.665   0.115  14.017
 4586SOL    HW125637   1.605   0.186  13.994
 4586SOL    HW225638   1.654   0.050  13.948
 4587SOL     OW25639   0.980   3.109  20.591
 4587SOL    HW125640   0.979   3.167  20.667
 4587SOL    HW225641   0.888   3.092  20.573
 4588SOL     OW25642   1.472   4.218  14.337
 4588SOL    HW125643   1.487   4.306  14.303
 4588SOL    HW225644   1.399   4.228  14.398
 4589SOL     OW25645   3.441   4.164  19.000
 4589SOL    HW125646   3.356   4.207  18.990
 4589SOL    HW225647   3.429   4.077  18.961
 4590SOL     OW25648   0.487   4.634   3.633
 4590SOL    HW125649   0.457   4.551   3.670
 4590SOL    HW225650   0.556   4.663   3.692
 4591SOL     OW25651   0.455   3.224  18.196
 4591SOL    HW125652   0.427   3.265  18.278
 4591SOL    HW225653   0.550   3.239  18.194
 4592SOL     OW25654   4.676   1.559   0.455
 4592SOL    HW125655   4.720   1.610   0.387
 4592SOL    HW225656   4.623   1.623   0.503
 4593SOL     OW25657   2.612   4.561  14.721
 4593SOL    HW125658   2.635   4.602  14.804
 4593SOL    HW225659   2.533   4.511  14.740
 4594SOL     OW25660   1.300   2.825   3.574
 4594SOL    HW125661   1.250   2.809   3.494
 4594SOL    HW225662   1.243   2.879   3.628
 4595SOL     OW25663   3.117   4.416  17.666
 4595SOL    HW125664   3.173   4.417  17.743
 4595SOL    HW225665   3.115   4.324  17.640
 4596SOL     OW25666   2.522   0.190  18.786
 4596SOL    HW125667   2.432   0.208  18.812
 4596SOL    HW225668   2.514   0.129  18.713
 4597SOL     OW25669   1.514   0.907  18.463
 4597SOL    HW125670   1.585   0.847  18.439
 4597SOL    HW225671   1.435   0.853  18.459
 4598SOL     OW25672   2.358   2.660  21.060
 4598SOL    HW125673   2.281   2.604  21.048
 4598SOL    HW225674   2.324   2.749  21.056
 4599SOL     OW25675   4.048   2.416   3.442
 4599SOL    HW125676   4.045   2.492   3.383
 4599SOL    HW225677   3.956   2.398   3.463
 4600SOL     OW25678   2.506   3.998  17.489
 4600SOL    HW125679   2.600   4.004  17.507
 4600SOL    HW225680   2.479   4.088  17.470
 4601SOL     OW25681   4.338   2.886   0.350
 4601SOL    HW125682   4.384   2.964   0.318
 4601SOL    HW225683   4.288   2.917   0.425
 4602SOL     OW25684   0.904   3.410   1.998
 4602SOL    HW125685   0.919   3.358   2.077
 4602SOL    HW225686   0.954   3.490   2.013
 4603SOL     OW25687   1.495   4.538   4.894
 4603SOL    HW125688   1.431   4.596   4.852
 4603SOL    HW225689   1.580   4.574   4.870
 4604SOL     OW25690   2.764   4.750   3.979
 4604SOL    HW125691   2.843   4.787   4.017
 4604SOL    HW225692   2.733   0.027   3.917
 4605SOL     OW25693   2.433   0.829   8.657
 4605SOL    HW125694   2.465   0.752   8.609
 4605SOL    HW225695   2.512   0.879   8.677
 4606SOL     OW25696   0.020   0.997   0.329
 4606SOL    HW125697   4.754   1.058   0.378
 4606SOL    HW225698   4.772   0.911   0.347
 4607SOL     OW25699   1.243   1.614  17.143
 4607SOL    HW125700   1.200   1.560  17.077
 4607SOL    HW225701   1.335   1.617  17.115
 4608SOL     OW25702   4.055   4.530  14.121
 4608SOL    HW125703   3.982   4.493  14.071
 4608SOL    HW225704   4.049   4.624  14.106
 4609SOL     OW25705   3.489   0.819  20.849
 4609SOL    HW125706   3.489   0.911  20.876
 4609SOL    HW225707   3.554   0.778  20.906
 4610SOL     OW25708   3.624   1.084  20.533
 4610SOL    HW125709   3.534   1.082  20.500
 4610SOL    HW225710   3.678   1.103  20.456
 4611SOL     OW25711   0.726   0.523  15.493
 4611SOL    HW125712   0.650   0.475  15.527
 4611SOL    HW225713   0.775   0.458  15.443
 4612SOL     OW25714   4.666   0.302   4.553
 4612SOL    HW125715   4.735   0.255   4.599
 4612SOL    HW225716   4.589   0.293   4.609
 4613SOL     OW25717   4.759   0.300   4.298
 4613SOL    HW125718   0.055   0.341   4.311
 4613SOL    HW225719   4.733   0.272   4.386
 4614SOL     OW25720   0.123   1.705  21.189
 4614SOL    HW125721   0.137   1.641   0.001
 4614SOL    HW225722   0.040   1.679  21.149
 4615SOL     OW25723   0.622   4.653  13.249
 4615SOL    HW125724   0.689   4.586  13.237
 4615SOL    HW225725   0.622   4.702  13.167
 4616SOL     OW25726   0.714   1.716   0.480
 4616SOL    HW125727   0.762   1.644   0.521
 4616SOL    HW225728   0.665   1.756   0.552
 4617SOL     OW25729   4.757   0.043   1.804
 4617SOL    HW125730   0.060   0.021   1.808
 4617SOL    HW225731   4.747   0.116   1.866
 4618SOL     OW25732   2.101   4.376  15.504
 4618SOL    HW125733   2.104   4.385  15.409
 4618SOL    HW225734   2.037   4.442  15.532
 4619SOL     OW25735   1.956   2.574   6.164
 4619SOL    HW125736   1.928   2.495   6.117
 4619SOL    HW225737   2.034   2.547   6.212
 4620SOL     OW25738   4.501   3.076   0.242
 4620SOL    HW125739   4.593   3.050   0.247
 4620SOL    HW225740   4.490   3.112   0.154
 4621SOL     OW25741   3.152   0.715  18.048
 4621SOL    HW125742   3.138   0.778  18.119
 4621SOL    HW225743   3.075   0.724  17.992
 4622SOL     OW25744   1.900   0.001  16.343
 4622SOL    HW125745   1.971   4.774  16.281
 4622SOL    HW225746   1.825   0.023  16.288
 4623SOL     OW25747   3.806   2.367   0.753
 4623SOL    HW125748   3.786   2.407   0.837
 4623SOL    HW225749   3.823   2.441   0.695
 4624SOL     OW25750   0.772   3.325  19.090
 4624SOL    HW125751   0.832   3.311  19.017
 4624SOL    HW225752   0.743   3.237  19.113
 4625SOL     OW25753   1.579   3.666   0.625
 4625SOL    HW125754   1.617   3.719   0.555
 4625SOL    HW225755   1.576   3.724   0.701
 4626SOL     OW25756   2.550   1.412   3.258
 4626SOL    HW125757   2.523   1.503   3.271
 4626SOL    HW225758   2.645   1.415   3.266
 4627SOL     OW25759   0.877   0.712   3.283
 4627SOL    HW125760   0.867   0.617   3.276
 4627SOL    HW225761   0.949   0.733   3.224
 4628SOL     OW25762   3.167   0.604   5.886
 4628SOL    HW125763   3.116   0.523   5.893
 4628SOL    HW225764   3.104   0.669   5.854
 4629SOL     OW25765   4.746   2.754  18.420
 4629SOL    HW125766   4.652   2.734  18.416
 4629SOL    HW225767   4.784   2.680  18.468
 4630SOL     OW25768   1.585   3.153  17.834
 4630SOL    HW125769   1.510   3.104  17.801
 4630SOL    HW225770   1.645   3.159  17.760
 4631SOL     OW25771   3.578   0.452   2.161
 4631SOL    HW125772   3.521   0.524   2.133
 4631SOL    HW225773   3.652   0.455   2.101
 4632SOL     OW25774   0.146   1.690  15.764
 4632SOL    HW125775   0.090   1.727  15.833
 4632SOL    HW225776   0.162   1.763  15.705
 4633SOL     OW25777   0.574   4.511   9.110
 4633SOL    HW125778   0.496   4.567   9.103
 4633SOL    HW225779   0.549   4.442   9.172
 4634SOL     OW25780   2.745   3.880  16.321
 4634SOL    HW125781   2.744   3.785  16.327
 4634SOL    HW225782   2.688   3.910  16.392
 4635SOL     OW25783   0.294   0.983   0.416
 4635SOL    HW125784   0.209   0.988   0.372
 4635SOL    HW225785   0.348   1.047   0.370
 4636SOL     OW25786   0.329   4.605   5.522
 4636SOL    HW125787   0.236   4.586   5.529
 4636SOL    HW225788   0.368   4.564   5.599
 4637SOL     OW25789   0.266   2.056   2.497
 4637SOL    HW125790   0.299   1.975   2.537
 4637SOL    HW225791   0.309   2.060   2.412
 4638SOL     OW25792   3.321   3.110   1.273
 4638SOL    HW125793   3.382   3.155   1.331
 4638SOL    HW225794   3.311   3.023   1.311
 4639SOL     OW25795   2.284   4.778  19.342
 4639SOL    HW125796   2.372   4.742  19.328
 4639SOL    HW225797   2.297   0.083  19.349
 4640SOL     OW25798   4.561   0.534   4.480
 4640SOL    HW125799   4.553   0.565   4.570
 4640SOL    HW225800   4.592   0.444   4.488
 4641SOL     OW25801   2.136   0.688   8.414
 4641SOL    HW125802   2.196   0.691   8.340
 4641SOL    HW225803   2.136   0.596   8.441
 4642SOL     OW25804   1.599   3.527  18.816
 4642SOL    HW125805   1.694   3.519  18.827
 4642SOL    HW225806   1.575   3.605  18.867
 4643SOL     OW25807   1.019   0.498   0.718
 4643SOL    HW125808   0.991   0.452   0.639
 4643SOL    HW225809   1.015   0.591   0.694
 4644SOL     OW25810   1.660   3.295   2.729
 4644SOL    HW125811   1.602   3.362   2.692
 4644SOL    HW225812   1.603   3.242   2.785
 4645SOL     OW25813   2.432   4.641  16.560
 4645SOL    HW125814   2.413   4.734  16.553
 4645SOL    HW225815   2.357   4.604  16.606
 4646SOL     OW25816   0.808   3.867  21.153
 4646SOL    HW125817   0.894   3.885  21.115
 4646SOL    HW225818   0.825   3.859  21.247
 4647SOL     OW25819   0.634   1.123   8.943
 4647SOL    HW125820   0.673   1.091   8.862
 4647SOL    HW225821   0.709   1.143   9.000
 4648SOL     OW25822   3.775   1.764   6.887
 4648SOL    HW125823   3.817   1.850   6.894
 4648SOL    HW225824   3.695   1.772   6.938
 4649SOL     OW25825   1.594   4.635   0.849
 4649SOL    HW125826   1.659   4.666   0.913
 4649SOL    HW225827   1.646   4.592   0.781
 4650SOL     OW25828   0.188   0.949   4.039
 4650SOL    HW125829   0.121   0.961   4.107
 4650SOL    HW225830   0.247   1.023   4.051
 4651SOL     OW25831   4.535   2.288  16.511
 4651SOL    HW125832   4.481   2.268  16.588
 4651SOL    HW225833   4.614   2.327  16.547
 4652SOL     OW25834   0.274   0.856   4.918
 4652SOL    HW125835   0.311   0.794   4.981
 4652SOL    HW225836   0.349   0.886   4.867
 4653SOL     OW25837   2.496   4.372   5.899
 4653SOL    HW125838   2.480   4.304   5.833
 4653SOL    HW225839   2.591   4.381   5.902
 4654SOL     OW25840   3.539   3.070  15.203
 4654SOL    HW125841   3.555   3.003  15.136
 4654SOL    HW225842   3.444   3.081  15.203
 4655SOL     OW25843   0.131   2.626   1.693
 4655SOL    HW125844   0.153   2.639   1.785
 4655SOL    HW225845   0.202   2.572   1.659
 4656SOL     OW25846   0.053   1.518  18.625
 4656SOL    HW125847   0.124   1.454  18.618
 4656SOL    HW225848   4.764   1.465  18.640
 4657SOL     OW25849   1.261   2.652   4.160
 4657SOL    HW125850   1.280   2.632   4.068
 4657SOL    HW225851   1.166   2.644   4.167
 4658SOL     OW25852   0.482   0.023   0.656
 4658SOL    HW125853   0.575   0.020   0.678
 4658SOL    HW225854   0.455   4.721   0.656
 4659SOL     OW25855   3.894   3.642  18.961
 4659SOL    HW125856   3.810   3.607  18.991
 4659SOL    HW225857   3.876   3.733  18.937
 4660SOL     OW25858   4.465   3.353   1.776
 4660SOL    HW125859   4.456   3.269   1.731
 4660SOL    HW225860   4.549   3.387   1.747
 4661SOL     OW25861   1.205   4.704   4.452
 4661SOL    HW125862   1.164   0.000   4.461
 4661SOL    HW225863   1.266   4.714   4.379
 4662SOL     OW25864   1.529   4.767  16.633
 4662SOL    HW125865   1.500   0.053  16.583
 4662SOL    HW225866   1.623   4.779  16.643
 4663SOL     OW25867   3.196   2.448   0.383
 4663SOL    HW125868   3.191   2.353   0.371
 4663SOL    HW225869   3.114   2.471   0.426
 4664SOL     OW25870   3.742   1.185   3.513
 4664SOL    HW125871   3.826   1.218   3.480
 4664SOL    HW225872   3.754   1.090   3.519
 4665SOL     OW25873   0.914   4.336  13.956
 4665SOL    HW125874   0.825   4.301  13.961
 4665SOL    HW225875   0.911   4.399  13.884
 4666SOL     OW25876   2.330   0.055   2.949
 4666SOL    HW125877   2.334   0.003   2.869
 4666SOL    HW225878   2.266   0.124   2.930
 4667SOL     OW25879   2.778   0.354   0.829
 4667SOL    HW125880   2.791   0.267   0.867
 4667SOL    HW225881   2.764   0.337   0.736
 4668SOL     OW25882   4.618   4.665  14.069
 4668SOL    HW125883   4.590   4.757  14.065
 4668SOL    HW225884   4.710   4.667  14.043
 4669SOL     OW25885   1.539   1.014   6.064
 4669SOL    HW125886   1.629   1.037   6.039
 4669SOL    HW225887   1.547   0.928   6.105
 4670SOL     OW25888   1.489   0.125  13.243
 4670SOL    HW125889   1.402   0.086  13.242
 4670SOL    HW225890   1.474   0.217  13.223
 4671SOL     OW25891   0.834   4.410  12.866
 4671SOL    HW125892   0.920   4.451  12.872
 4671SOL    HW225893   0.778   4.476  12.825
 4672SOL     OW25894   3.951   3.962   4.733
 4672SOL    HW125895   3.952   3.969   4.637
 4672SOL    HW225896   3.934   3.869   4.750
 4673SOL     OW25897   2.265   1.242   1.813
 4673SOL    HW125898   2.323   1.179   1.771
 4673SOL    HW225899   2.233   1.196   1.891
 4674SOL     OW25900   3.376   3.287   4.382
 4674SOL    HW125901   3.410   3.230   4.313
 4674SOL    HW225902   3.291   3.249   4.404
 4675SOL     OW25903   2.444   1.271   3.050
 4675SOL    HW125904   2.522   1.301   3.004
 4675SOL    HW225905   2.464   1.283   3.143
 4676SOL     OW25906   0.624   4.234   0.175
 4676SOL    HW125907   0.544   4.257   0.128
 4676SOL    HW225908   0.593   4.203   0.260
 4677SOL     OW25909   0.549   3.739  17.215
 4677SOL    HW125910   0.501   3.660  17.190
 4677SOL    HW225911   0.637   3.727  17.179
 4678SOL     OW25912   0.741   1.799  19.318
 4678SOL    HW125913   0.771   1.728  19.375
 4678SOL    HW225914   0.647   1.784  19.309
 4679SOL     OW25915   3.887   1.719  18.481
 4679SOL    HW125916   3.872   1.804  18.523
 4679SOL    HW225917   3.821   1.714  18.412
 4680SOL     OW25918   3.106   4.163   5.071
 4680SOL    HW125919   3.200   4.145   5.079
 4680SOL    HW225920   3.101   4.240   5.014
 4681SOL     OW25921   2.461   3.870  20.497
 4681SOL    HW125922   2.447   3.872  20.402
 4681SOL    HW225923   2.421   3.951  20.528
 4682SOL     OW25924   1.868   3.863   4.596
 4682SOL    HW125925   1.937   3.904   4.648
 4682SOL    HW225926   1.836   3.933   4.539
 4683SOL     OW25927   2.636   3.994  21.114
 4683SOL    HW125928   2.590   4.078  21.119
 4683SOL    HW225929   2.568   3.930  21.095
 4684SOL     OW25930   3.532   3.934  20.836
 4684SOL    HW125931   3.520   4.016  20.788
 4684SOL    HW225932   3.449   3.887  20.825
 4685SOL     OW25933   0.015   2.206  17.990
 4685SOL    HW125934   4.783   2.149  17.916
 4685SOL    HW225935   4.731   2.196  18.050
 4686SOL     OW25936   4.325   0.405  18.239
 4686SOL    HW125937   4.318   0.414  18.334
 4686SOL    HW225938   4.250   0.352  18.214
 4687SOL     OW25939   4.423   1.834   4.783
 4687SOL    HW125940   4.456   1.774   4.850
 4687SOL    HW225941   4.355   1.784   4.738
 4688SOL     OW25942   4.185   4.781   5.295
 4688SOL    HW125943   4.180   4.710   5.359
 4688SOL    HW225944   4.224   4.741   5.217
 4689SOL     OW25945   1.622   0.155  14.508
 4689SOL    HW125946   1.575   0.078  14.539
 4689SOL    HW225947   1.652   0.198  14.588
 4690SOL     OW25948   1.783   2.600  21.204
 4690SOL    HW125949   1.876   2.611  21.187
 4690SOL    HW225950   1.774   2.615   0.041
 4691SOL     OW25951   1.088   1.762   4.072
 4691SOL    HW125952   1.053   1.781   4.159
 4691SOL    HW225953   1.106   1.848   4.034
 4692SOL     OW25954   3.435   2.607   5.822
 4692SOL    HW125955   3.351   2.581   5.859
 4692SOL    HW225956   3.437   2.567   5.735
 4693SOL     OW25957   1.957   3.200  16.091
 4693SOL    HW125958   1.991   3.244  16.169
 4693SOL    HW225959   1.915   3.269  16.040
 4694SOL     OW25960   0.783   3.950  17.540
 4694SOL    HW125961   0.809   4.036  17.508
 4694SOL    HW225962   0.812   3.889  17.472
 4695SOL     OW25963   1.506   1.586  18.964
 4695SOL    HW125964   1.433   1.647  18.957
 4695SOL    HW225965   1.584   1.641  18.954
 4696SOL     OW25966   3.189   3.565   5.787
 4696SOL    HW125967   3.155   3.558   5.876
 4696SOL    HW225968   3.137   3.502   5.737
 4697SOL     OW25969   2.120   3.839  20.933
 4697SOL    HW125970   2.089   3.882  21.013
 4697SOL    HW225971   2.112   3.906  20.865
 4698SOL     OW25972   1.194   1.828   5.980
 4698SOL    HW125973   1.105   1.806   5.953
 4698SOL    HW225974   1.188   1.839   6.075
 4699SOL     OW25975   0.774   2.147  18.309
 4699SOL    HW125976   0.775   2.242  18.295
 4699SOL    HW225977   0.808   2.110  18.228
 4700SOL     OW25978   2.637   3.477   1.677
 4700SOL    HW125979   2.633   3.558   1.626
 4700SOL    HW225980   2.691   3.418   1.624
 4701SOL     OW25981   2.582   2.040  20.692
 4701SOL    HW125982   2.625   1.962  20.657
 4701SOL    HW225983   2.638   2.068  20.764
 4702SOL     OW25984   2.726   0.248   6.613
 4702SOL    HW125985   2.758   0.288   6.532
 4702SOL    HW225986   2.631   0.241   6.601
 4703SOL     OW25987   4.252   1.771   0.395
 4703SOL    HW125988   4.301   1.830   0.337
 4703SOL    HW225989   4.279   1.797   0.483
 4704SOL     OW25990   2.079   0.257   1.129
 4704SOL    HW125991   2.069   0.242   1.035
 4704SOL    HW225992   1.993   0.288   1.158
 4705SOL     OW25993   3.173   1.385   2.590
 4705SOL    HW125994   3.087   1.414   2.621
 4705SOL    HW225995   3.226   1.465   2.589
 4706SOL     OW25996   4.223   1.376   8.188
 4706SOL    HW125997   4.128   1.372   8.194
 4706SOL    HW225998   4.242   1.470   8.182
 4707SOL     OW25999   1.427   2.761   6.148
 4707SOL    HW126000   1.393   2.840   6.106
 4707SOL    HW226001   1.519   2.782   6.167
 4708SOL     OW26002   3.726   0.624   1.619
 4708SOL    HW126003   3.778   0.545   1.632
 4708SOL    HW226004   3.729   0.668   1.704
 4709SOL     OW26005   4.094   1.965   5.623
 4709SOL    HW126006   4.173   1.919   5.595
 4709SOL    HW226007   4.024   1.926   5.572
 4710SOL     OW26008   1.419   0.359  13.180
 4710SOL    HW126009   1.492   0.416  13.154
 4710SOL    HW226010   1.367   0.412  13.240
 4711SOL     OW26011   0.039   3.895  16.441
 4711SOL    HW126012   4.737   3.891  16.470
 4711SOL    HW226013   0.067   3.803  16.438
 4712SOL     OW26014   2.693   1.623   0.207
 4712SOL    HW126015   2.737   1.643   0.290
 4712SOL    HW226016   2.636   1.549   0.228
 4713SOL     OW26017   0.859   4.293   0.967
 4713SOL    HW126018   0.947   4.294   1.006
 4713SOL    HW226019   0.809   4.233   1.022
 4714SOL     OW26020   1.945   0.947  16.647
 4714SOL    HW126021   1.984   0.920  16.564
 4714SOL    HW226022   1.920   1.038  16.633
 4715SOL     OW26023   0.079   0.090  20.727
 4715SOL    HW126024   0.107   0.176  20.696
 4715SOL    HW226025   0.008   0.108  20.788
 4716SOL     OW26026   3.210   4.645   7.280
 4716SOL    HW126027   3.260   4.573   7.319
 4716SOL    HW226028   3.255   4.663   7.197
 4717SOL     OW26029   2.358   2.596   8.359
 4717SOL    HW126030   2.413   2.673   8.376
 4717SOL    HW226031   2.357   2.588   8.264
 4718SOL     OW26032   2.475   0.660  18.913
 4718SOL    HW126033   2.539   0.616  18.969
 4718SOL    HW226034   2.490   0.753  18.927
 4719SOL     OW26035   1.612   2.985   6.284
 4719SOL    HW126036   1.590   3.071   6.319
 4719SOL    HW226037   1.640   3.002   6.194
 4720SOL     OW26038   4.337   3.645  17.126
 4720SOL    HW126039   4.293   3.580  17.072
 4720SOL    HW226040   4.300   3.632  17.214
 4721SOL     OW26041   4.612   0.453  19.627
 4721SOL    HW126042   4.682   0.518  19.630
 4721SOL    HW226043   4.639   0.386  19.690
 4722SOL     OW26044   0.373   1.970   2.134
 4722SOL    HW126045   0.404   1.950   2.222
 4722SOL    HW226046   0.311   1.900   2.113
 4723SOL     OW26047   0.578   2.850  14.899
 4723SOL    HW126048   0.516   2.907  14.945
 4723SOL    HW226049   0.627   2.806  14.969
 4724SOL     OW26050   0.355   1.799  14.251
 4724SOL    HW126051   0.271   1.762  14.224
 4724SOL    HW226052   0.374   1.757  14.335
 4725SOL     OW26053   0.733   1.661  16.245
 4725SOL    HW126054   0.704   1.712  16.321
 4725SOL    HW226055   0.692   1.575  16.257
 4726SOL     OW26056   3.734   2.109  19.467
 4726SOL    HW126057   3.647   2.117  19.506
 4726SOL    HW226058   3.794   2.114  19.542
 4727SOL     OW26059   4.601   0.620   0.114
 4727SOL    HW126060   4.525   0.657   0.070
 4727SOL    HW226061   4.576   0.529   0.133
 4728SOL     OW26062   0.392   4.206   5.777
 4728SOL    HW126063   0.428   4.292   5.798
 4728SOL    HW226064   0.436   4.180   5.696
 4729SOL     OW26065   3.853   1.043   0.903
 4729SOL    HW126066   3.910   1.116   0.927
 4729SOL    HW226067   3.788   1.039   0.973
 4730SOL     OW26068   4.613   0.926   7.358
 4730SOL    HW126069   4.541   0.917   7.421
 4730SOL    HW226070   4.676   0.984   7.401
 4731SOL     OW26071   0.580   4.331  16.645
 4731SOL    HW126072   0.592   4.412  16.694
 4731SOL    HW226073   0.486   4.326  16.629
 4732SOL     OW26074   1.362   3.477   0.369
 4732SOL    HW126075   1.392   3.562   0.337
 4732SOL    HW226076   1.420   3.457   0.442
 4733SOL     OW26077   2.996   2.180  21.079
 4733SOL    HW126078   2.927   2.114  21.088
 4733SOL    HW226079   3.043   2.154  21.000
 4734SOL     OW26080   1.873   2.642  19.277
 4734SOL    HW126081   1.964   2.666  19.262
 4734SOL    HW226082   1.877   2.559  19.325
 4735SOL     OW26083   1.516   1.931   7.286
 4735SOL    HW126084   1.458   1.973   7.223
 4735SOL    HW226085   1.577   2.000   7.312
 4736SOL     OW26086   3.557   4.656   8.066
 4736SOL    HW126087   3.470   4.617   8.069
 4736SOL    HW226088   3.578   4.659   7.973
 4737SOL     OW26089   2.741   4.153  18.425
 4737SOL    HW126090   2.817   4.138  18.481
 4737SOL    HW226091   2.666   4.127  18.479
 4738SOL     OW26092   2.289   4.299   1.438
 4738SOL    HW126093   2.296   4.204   1.441
 4738SOL    HW226094   2.314   4.328   1.526
 4739SOL     OW26095   0.616   2.748   0.394
 4739SOL    HW126096   0.676   2.769   0.466
 4739SOL    HW226097   0.549   2.816   0.397
 4740SOL     OW26098   2.275   4.333   2.603
 4740SOL    HW126099   2.333   4.257   2.594
 4740SOL    HW226100   2.247   4.330   2.695
 4741SOL     OW26101   1.319   3.960  16.052
 4741SOL    HW126102   1.367   4.025  16.001
 4741SOL    HW226103   1.227   3.972  16.027
 4742SOL     OW26104   1.641   2.960   2.915
 4742SOL    HW126105   1.649   2.906   2.837
 4742SOL    HW226106   1.564   3.014   2.898
 4743SOL     OW26107   2.663   2.543   5.881
 4743SOL    HW126108   2.580   2.580   5.852
 4743SOL    HW226109   2.649   2.522   5.973
 4744SOL     OW26110   1.476   3.871  20.490
 4744SOL    HW126111   1.477   3.949  20.434
 4744SOL    HW226112   1.568   3.850  20.503
 4745SOL     OW26113   0.265   2.994  16.821
 4745SOL    HW126114   0.231   3.061  16.762
 4745SOL    HW226115   0.349   3.029  16.850
 4746SOL     OW26116   0.907   0.827  17.989
 4746SOL    HW126117   0.813   0.809  17.989
 4746SOL    HW226118   0.922   0.879  18.068
 4747SOL     OW26119   1.500   0.531  19.785
 4747SOL    HW126120   1.550   0.606  19.753
 4747SOL    HW226121   1.494   0.472  19.710
 4748SOL     OW26122   3.615   4.638   2.689
 4748SOL    HW126123   3.556   4.634   2.764
 4748SOL    HW226124   3.568   4.593   2.619
 4749SOL     OW26125   1.415   0.397  15.309
 4749SOL    HW126126   1.404   0.491  15.294
 4749SOL    HW226127   1.509   0.381  15.297
 4750SOL     OW26128   3.938   1.858   3.317
 4750SOL    HW126129   3.848   1.852   3.349
 4750SOL    HW226130   3.981   1.781   3.355
 4751SOL     OW26131   2.823   4.151   0.004
 4751SOL    HW126132   2.834   4.218  21.194
 4751SOL    HW226133   2.760   4.090  21.224
 4752SOL     OW26134   1.385   3.426   5.228
 4752SOL    HW126135   1.309   3.377   5.258
 4752SOL    HW226136   1.445   3.425   5.303
 4753SOL     OW26137   1.666   0.358  15.275
 4753SOL    HW126138   1.687   0.426  15.339
 4753SOL    HW226139   1.751   0.327  15.244
 4754SOL     OW26140   3.178   0.546   2.221
 4754SOL    HW126141   3.132   0.610   2.167
 4754SOL    HW226142   3.154   0.569   2.311
 4755SOL     OW26143   2.172   4.667   0.250
 4755SOL    HW126144   2.238   4.736   0.253
 4755SOL    HW226145   2.089   4.713   0.243
 4756SOL     OW26146   4.129   0.096  15.861
 4756SOL    HW126147   4.040   0.067  15.879
 4756SOL    HW226148   4.185   0.032  15.906
 4757SOL     OW26149   4.206   1.664   4.136
 4757SOL    HW126150   4.176   1.718   4.209
 4757SOL    HW226151   4.245   1.587   4.177
 4758SOL     OW26152   4.281   2.527   3.850
 4758SOL    HW126153   4.189   2.532   3.877
 4758SOL    HW226154   4.310   2.618   3.847
 4759SOL     OW26155   1.589   0.921  17.227
 4759SOL    HW126156   1.505   0.909  17.182
 4759SOL    HW226157   1.581   1.006  17.271
 4760SOL     OW26158   3.197   0.133   8.779
 4760SOL    HW126159   3.267   0.098   8.724
 4760SOL    HW226160   3.130   0.065   8.779
 4761SOL     OW26161   1.074   1.325   8.599
 4761SOL    HW126162   1.040   1.236   8.592
 4761SOL    HW226163   1.012   1.369   8.657
 4762SOL     OW26164   4.239   3.250  11.201
 4762SOL    HW126165   4.219   3.158  11.185
 4762SOL    HW226166   4.161   3.285  11.244
 4763SOL     OW26167   3.827   0.434   9.972
 4763SOL    HW126168   3.752   0.382  10.000
 4763SOL    HW226169   3.840   0.496  10.044
 4764SOL     OW26170   3.744   0.626  11.498
 4764SOL    HW126171   3.822   0.632  11.553
 4764SOL    HW226172   3.682   0.575  11.550
 4765SOL     OW26173   4.428   0.247   8.259
 4765SOL    HW126174   4.505   0.279   8.305
 4765SOL    HW226175   4.397   0.322   8.209
 4766SOL     OW26176   4.630   0.180   8.764
 4766SOL    HW126177   4.617   0.138   8.679
 4766SOL    HW226178   4.657   0.109   8.822
 4767SOL     OW26179   3.690   2.391  10.301
 4767SOL    HW126180   3.608   2.418  10.343
 4767SOL    HW226181   3.736   2.341  10.368
 4768SOL     OW26182   4.261   0.450   9.382
 4768SOL    HW126183   4.241   0.525   9.326
 4768SOL    HW226184   4.248   0.483   9.471
 4769SOL     OW26185   4.277   4.760   9.719
 4769SOL    HW126186   4.196   4.750   9.669
 4769SOL    HW226187   4.336   4.693   9.684
 4770SOL     OW26188   3.161   1.307  11.510
 4770SOL    HW126189   3.200   1.292  11.596
 4770SOL    HW226190   3.176   1.225  11.462
 4771SOL     OW26191   3.992   1.402  10.744
 4771SOL    HW126192   4.080   1.376  10.718
 4771SOL    HW226193   3.955   1.443  10.666
 4772SOL     OW26194   0.048   0.587   8.436
 4772SOL    HW126195   0.129   0.543   8.463
 4772SOL    HW226196   4.776   0.570   8.507
 4773SOL     OW26197   3.658   0.896   9.334
 4773SOL    HW126198   3.727   0.898   9.268
 4773SOL    HW226199   3.577   0.906   9.284
 4774SOL     OW26200   3.357   4.314   8.979
 4774SOL    HW126201   3.273   4.323   8.933
 4774SOL    HW226202   3.351   4.376   9.052
 4775SOL     OW26203   3.749   1.996  10.280
 4775SOL    HW126204   3.754   1.901  10.289
 4775SOL    HW226205   3.664   2.020  10.316
 4776SOL     OW26206   0.776   4.146  12.856
 4776SOL    HW126207   0.790   4.238  12.877
 4776SOL    HW226208   0.844   4.099  12.905
 4777SOL     OW26209   3.064   0.750  12.286
 4777SOL    HW126210   3.030   0.703  12.210
 4777SOL    HW226211   2.994   0.810  12.311
 4778SOL     OW26212   0.132   0.400  11.208
 4778SOL    HW126213   0.078   0.385  11.286
 4778SOL    HW226214   0.206   0.341  11.219
 4779SOL     OW26215   2.838   1.720  12.315
 4779SOL    HW126216   2.786   1.800  12.321
 4779SOL    HW226217   2.926   1.747  12.341
 4780SOL     OW26218   4.394   1.417  12.418
 4780SOL    HW126219   4.473   1.467  12.396
 4780SOL    HW226220   4.361   1.458  12.498
 4781SOL     OW26221   3.757   2.303  10.054
 4781SOL    HW126222   3.699   2.351   9.995
 4781SOL    HW226223   3.732   2.332  10.142
 4782SOL     OW26224   3.333   0.846  13.743
 4782SOL    HW126225   3.281   0.927  13.745
 4782SOL    HW226226   3.333   0.816  13.834
 4783SOL     OW26227   3.563   2.063  11.260
 4783SOL    HW126228   3.577   2.090  11.169
 4783SOL    HW226229   3.540   1.970  11.254
 4784SOL     OW26230   0.884   1.030  10.836
 4784SOL    HW126231   0.932   1.112  10.843
 4784SOL    HW226232   0.823   1.044  10.763
 4785SOL     OW26233   3.813   0.387  11.910
 4785SOL    HW126234   3.858   0.335  11.976
 4785SOL    HW226235   3.877   0.453  11.884
 4786SOL     OW26236   3.667   1.002  12.251
 4786SOL    HW126237   3.602   1.072  12.251
 4786SOL    HW226238   3.626   0.932  12.201
 4787SOL     OW26239   4.016   0.983  11.676
 4787SOL    HW126240   3.939   0.926  11.681
 4787SOL    HW226241   4.009   1.026  11.591
 4788SOL     OW26242   3.689   2.806  12.333
 4788SOL    HW126243   3.646   2.770  12.411
 4788SOL    HW226244   3.620   2.809  12.267
 4789SOL     OW26245   4.778   4.781  11.513
 4789SOL    HW126246   4.718   4.780  11.439
 4789SOL    HW226247   4.721   4.773  11.590
 4790SOL     OW26248   3.282   0.551  12.629
 4790SOL    HW126249   3.318   0.633  12.664
 4790SOL    HW226250   3.196   0.543  12.670
 4791SOL     OW26251   3.060   0.378  10.495
 4791SOL    HW126252   2.993   0.323  10.455
 4791SOL    HW226253   3.047   0.366  10.589
 4792SOL     OW26254   2.477   2.448  11.484
 4792SOL    HW126255   2.565   2.477  11.508
 4792SOL    HW226256   2.429   2.528  11.464
 4793SOL     OW26257   3.409   2.212  11.453
 4793SOL    HW126258   3.462   2.167  11.387
 4793SOL    HW226259   3.472   2.244  11.517
 4794SOL     OW26260   3.681   4.736  11.070
 4794SOL    HW126261   3.679   4.668  11.003
 4794SOL    HW226262   3.773   4.743  11.094
 4795SOL     OW26263   2.584   2.443  12.936
 4795SOL    HW126264   2.650   2.411  12.875
 4795SOL    HW226265   2.505   2.393  12.914
 4796SOL     OW26266   1.458   3.243  14.954
 4796SOL    HW126267   1.382   3.267  14.900
 4796SOL    HW226268   1.503   3.175  14.904
 4797SOL     OW26269   1.928   4.119  16.800
 4797SOL    HW126270   1.977   4.100  16.880
 4797SOL    HW226271   1.905   4.212  16.808
 4798SOL     OW26272   1.836   3.189  19.792
 4798SOL    HW126273   1.889   3.191  19.713
 4798SOL    HW226274   1.899   3.197  19.863
 4799SOL     OW26275   3.139   0.378  13.806
 4799SOL    HW126276   3.078   0.440  13.766
 4799SOL    HW226277   3.083   0.317  13.855
 4800SOL     OW26278   4.653   1.311  18.634
 4800SOL    HW126279   4.631   1.292  18.543
 4800SOL    HW226280   4.571   1.299  18.681
 4801SOL     OW26281   1.241   1.234  15.715
 4801SOL    HW126282   1.198   1.237  15.629
 4801SOL    HW226283   1.169   1.236  15.778
 4802SOL     OW26284   1.275   1.526  14.319
 4802SOL    HW126285   1.328   1.593  14.362
 4802SOL    HW226286   1.186   1.543  14.349
 4803SOL     OW26287   0.748   2.286   1.242
 4803SOL    HW126288   0.761   2.191   1.238
 4803SOL    HW226289   0.717   2.309   1.154
 4804SOL     OW26290   2.881   2.474  18.908
 4804SOL    HW126291   2.849   2.564  18.910
 4804SOL    HW226292   2.811   2.423  18.949
 4805SOL     OW26293   3.069   3.504  20.118
 4805SOL    HW126294   3.079   3.409  20.128
 4805SOL    HW226295   3.151   3.541  20.152
 4806SOL     OW26296   2.925   4.353   4.120
 4806SOL    HW126297   2.940   4.370   4.027
 4806SOL    HW226298   2.911   4.440   4.158
 4807SOL     OW26299   1.410   0.096  18.170
 4807SOL    HW126300   1.460   0.177  18.168
 4807SOL    HW226301   1.386   0.085  18.262
 4808SOL     OW26302   1.167   1.822  12.095
 4808SOL    HW126303   1.225   1.818  12.019
 4808SOL    HW226304   1.080   1.834  12.058
 4809SOL     OW26305   4.671   0.056   5.441
 4809SOL    HW126306   4.740   0.038   5.377
 4809SOL    HW226307   4.602   4.783   5.420
 4810SOL     OW26308   0.416   4.275   2.819
 4810SOL    HW126309   0.445   4.321   2.898
 4810SOL    HW226310   0.373   4.196   2.852
 4811SOL     OW26311   4.442   3.718   1.746
 4811SOL    HW126312   4.502   3.675   1.807
 4811SOL    HW226313   4.497   3.777   1.695
 4812SOL     OW26314   0.398   1.938   0.442
 4812SOL    HW126315   0.412   2.025   0.480
 4812SOL    HW226316   0.329   1.899   0.495
 4813SOL     OW26317   0.036   0.237  19.711
 4813SOL    HW126318   0.038   0.239  19.615
 4813SOL    HW226319   0.120   0.200  19.737
 4814SOL     OW26320   2.551   0.767   3.584
 4814SOL    HW126321   2.582   0.707   3.516
 4814SOL    HW226322   2.555   0.716   3.665
 4815SOL     OW26323   0.887   2.850   2.298
 4815SOL    HW126324   0.942   2.867   2.375
 4815SOL    HW226325   0.914   2.917   2.235
 4816SOL     OW26326   4.513   1.301  15.633
 4816SOL    HW126327   4.541   1.267  15.718
 4816SOL    HW226328   4.496   1.394  15.649
 4817SOL     OW26329   3.628   3.004   4.405
 4817SOL    HW126330   3.656   2.912   4.405
 4817SOL    HW226331   3.576   3.013   4.485
 4818SOL     OW26332   3.466   1.988  15.139
 4818SOL    HW126333   3.507   2.056  15.085
 4818SOL    HW226334   3.372   2.004  15.130
 4819SOL     OW26335   2.827   1.986  15.964
 4819SOL    HW126336   2.813   1.947  15.878
 4819SOL    HW226337   2.794   2.075  15.956
 4820SOL     OW26338   3.913   2.673   7.988
 4820SOL    HW126339   3.827   2.638   7.965
 4820SOL    HW226340   3.969   2.651   7.913
 4821SOL     OW26341   3.613   4.218   1.330
 4821SOL    HW126342   3.601   4.307   1.298
 4821SOL    HW226343   3.607   4.163   1.252
 4822SOL     OW26344   0.104   3.539   1.366
 4822SOL    HW126345   0.024   3.491   1.388
 4822SOL    HW226346   0.076   3.601   1.298
 4823SOL     OW26347   2.614   1.616  20.475
 4823SOL    HW126348   2.577   1.659  20.398
 4823SOL    HW226349   2.702   1.653  20.483
 4824SOL     OW26350   1.420   0.846   6.425
 4824SOL    HW126351   1.349   0.899   6.389
 4824SOL    HW226352   1.383   0.808   6.505
 4825SOL     OW26353   4.456   4.714  11.528
 4825SOL    HW126354   4.362   4.699  11.541
 4825SOL    HW226355   4.462   4.767  11.449
 4826SOL     OW26356   3.265   3.795  20.818
 4826SOL    HW126357   3.201   3.730  20.789
 4826SOL    HW226358   3.227   3.879  20.794
 4827SOL     OW26359   0.427   1.718  17.794
 4827SOL    HW126360   0.478   1.798  17.785
 4827SOL    HW226361   0.481   1.650  17.753
 4828SOL     OW26362   1.592   3.329   5.718
 4828SOL    HW126363   1.589   3.249   5.771
 4828SOL    HW226364   1.668   3.377   5.751
 4829SOL     OW26365   2.016   1.584  21.195
 4829SOL    HW126366   1.933   1.599  21.240
 4829SOL    HW226367   1.995   1.593  21.102
 4830SOL     OW26368   2.626   2.834   0.576
 4830SOL    HW126369   2.638   2.744   0.544
 4830SOL    HW226370   2.697   2.883   0.535
 4831SOL     OW26371   2.940   2.809  13.156
 4831SOL    HW126372   2.851   2.789  13.185
 4831SOL    HW226373   2.960   2.894  13.195
 4832SOL     OW26374   4.224   2.554  18.959
 4832SOL    HW126375   4.179   2.474  18.987
 4832SOL    HW226376   4.194   2.568  18.869
 4833SOL     OW26377   2.291   0.822  16.617
 4833SOL    HW126378   2.223   0.888  16.628
 4833SOL    HW226379   2.346   0.831  16.695
 4834SOL     OW26380   2.783   0.328  17.015
 4834SOL    HW126381   2.773   0.283  16.931
 4834SOL    HW226382   2.706   0.303  17.065
 4835SOL     OW26383   3.479   2.472   5.579
 4835SOL    HW126384   3.506   2.515   5.498
 4835SOL    HW226385   3.449   2.385   5.551
 4836SOL     OW26386   1.176   1.171  20.243
 4836SOL    HW126387   1.159   1.168  20.337
 4836SOL    HW226388   1.098   1.132  20.203
 4837SOL     OW26389   2.083   0.873  18.538
 4837SOL    HW126390   2.011   0.909  18.589
 4837SOL    HW226391   2.162   0.906  18.581
 4838SOL     OW26392   3.643   0.690   3.115
 4838SOL    HW126393   3.550   0.694   3.092
 4838SOL    HW226394   3.689   0.710   3.034
 4839SOL     OW26395   1.655   0.496   2.225
 4839SOL    HW126396   1.638   0.478   2.132
 4839SOL    HW226397   1.657   0.591   2.231
 4840SOL     OW26398   0.664   2.732   1.199
 4840SOL    HW126399   0.705   2.712   1.115
 4840SOL    HW226400   0.646   2.826   1.195
 4841SOL     OW26401   3.013   4.688   0.765
 4841SOL    HW126402   3.042   4.779   0.767
 4841SOL    HW226403   3.081   4.640   0.813
 4842SOL     OW26404   0.820   1.921  16.847
 4842SOL    HW126405   0.794   1.830  16.832
 4842SOL    HW226406   0.914   1.916  16.863
 4843SOL     OW26407   4.755   3.818   3.240
 4843SOL    HW126408   4.784   3.732   3.209
 4843SOL    HW226409   0.013   3.831   3.322
 4844SOL     OW26410   2.301   3.245  21.128
 4844SOL    HW126411   2.378   3.225  21.075
 4844SOL    HW226412   2.335   3.294  21.202
 4845SOL     OW26413   4.477   0.065  19.715
 4845SOL    HW126414   4.398   0.014  19.732
 4845SOL    HW226415   4.549   0.005  19.736
 4846SOL     OW26416   0.582   4.443   4.782
 4846SOL    HW126417   0.547   4.523   4.821
 4846SOL    HW226418   0.514   4.377   4.798
 4847SOL     OW26419   1.022   1.328  20.680
 4847SOL    HW126420   1.025   1.295  20.770
 4847SOL    HW226421   1.020   1.423  20.689
 4848SOL     OW26422   1.265   1.085   5.754
 4848SOL    HW126423   1.219   1.111   5.674
 4848SOL    HW226424   1.195   1.055   5.812
 4849SOL     OW26425   2.745   4.285   7.359
 4849SOL    HW126426   2.772   4.374   7.336
 4849SOL    HW226427   2.824   4.232   7.349
 4850SOL     OW26428   2.354   3.605   8.084
 4850SOL    HW126429   2.299   3.652   8.147
 4850SOL    HW226430   2.363   3.665   8.010
 4851SOL     OW26431   2.031   2.385   1.510
 4851SOL    HW126432   2.118   2.345   1.503
 4851SOL    HW226433   2.048   2.479   1.508
 4852SOL     OW26434   0.818   0.403  16.007
 4852SOL    HW126435   0.848   0.325  15.961
 4852SOL    HW226436   0.890   0.426  16.066
 4853SOL     OW26437   3.915   4.469  15.957
 4853SOL    HW126438   3.910   4.547  15.901
 4853SOL    HW226439   4.009   4.456  15.971
 4854SOL     OW26440   2.752   2.128  18.822
 4854SOL    HW126441   2.670   2.094  18.787
 4854SOL    HW226442   2.812   2.127  18.747
 4855SOL     OW26443   0.389   3.005  19.609
 4855SOL    HW126444   0.347   3.027  19.526
 4855SOL    HW226445   0.345   2.925  19.638
 4856SOL     OW26446   3.476   4.524  19.643
 4856SOL    HW126447   3.390   4.558  19.618
 4856SOL    HW226448   3.527   4.526  19.562
 4857SOL     OW26449   1.330   2.929   0.305
 4857SOL    HW126450   1.392   2.866   0.268
 4857SOL    HW226451   1.367   3.014   0.283
 4858SOL     OW26452   0.657   4.719   5.289
 4858SOL    HW126453   0.632   4.694   5.200
 4858SOL    HW226454   0.729   4.659   5.311
 4859SOL     OW26455   2.994   4.511   3.085
 4859SOL    HW126456   2.900   4.511   3.066
 4859SOL    HW226457   3.030   4.447   3.024
 4860SOL     OW26458   0.177   3.508  15.640
 4860SOL    HW126459   0.233   3.542  15.709
 4860SOL    HW226460   0.126   3.439  15.682
 4861SOL     OW26461   2.410   3.423  20.918
 4861SOL    HW126462   2.468   3.491  20.883
 4861SOL    HW226463   2.324   3.464  20.921
 4862SOL     OW26464   4.171   3.805   6.467
 4862SOL    HW126465   4.248   3.857   6.444
 4862SOL    HW226466   4.206   3.726   6.509
 4863SOL     OW26467   1.343   1.988   1.931
 4863SOL    HW126468   1.287   1.975   2.008
 4863SOL    HW226469   1.427   2.018   1.967
 4864SOL     OW26470   4.581   0.783   3.239
 4864SOL    HW126471   4.668   0.757   3.268
 4864SOL    HW226472   4.595   0.822   3.153
 4865SOL     OW26473   0.578   0.298   1.366
 4865SOL    HW126474   0.606   0.360   1.434
 4865SOL    HW226475   0.536   0.352   1.300
 4866SOL     OW26476   0.227   0.434   4.794
 4866SOL    HW126477   0.222   0.350   4.748
 4866SOL    HW226478   0.191   0.416   4.881
 4867SOL     OW26479   4.123   1.578  18.492
 4867SOL    HW126480   4.068   1.655  18.503
 4867SOL    HW226481   4.133   1.543  18.581
 4868SOL     OW26482   2.377   2.799   3.626
 4868SOL    HW126483   2.363   2.761   3.540
 4868SOL    HW226484   2.292   2.792   3.670
 4869SOL     OW26485   4.719   0.793  20.189
 4869SOL    HW126486   4.667   0.819  20.113
 4869SOL    HW226487   4.709   0.698  20.193
 4870SOL     OW26488   1.453   0.404   5.663
 4870SOL    HW126489   1.471   0.408   5.569
 4870SOL    HW226490   1.466   0.494   5.694
 4871SOL     OW26491   0.545   0.367   1.775
 4871SOL    HW126492   0.494   0.298   1.732
 4871SOL    HW226493   0.635   0.351   1.747
 4872SOL     OW26494   3.737   0.704  20.947
 4872SOL    HW126495   3.812   0.649  20.969
 4872SOL    HW226496   3.766   0.754  20.870
 4873SOL     OW26497   4.634   0.293   3.358
 4873SOL    HW126498   4.695   0.219   3.365
 4873SOL    HW226499   4.634   0.315   3.265
 4874SOL     OW26500   4.132   0.412  14.166
 4874SOL    HW126501   4.098   0.329  14.198
 4874SOL    HW226502   4.085   0.478  14.216
 4875SOL     OW26503   0.123   1.974  16.139
 4875SOL    HW126504   0.151   1.912  16.206
 4875SOL    HW226505   0.058   1.926  16.088
 4876SOL     OW26506   2.909   4.339  15.712
 4876SOL    HW126507   2.868   4.360  15.796
 4876SOL    HW226508   2.879   4.250  15.692
 4877SOL     OW26509   0.613   2.717   6.840
 4877SOL    HW126510   0.520   2.703   6.858
 4877SOL    HW226511   0.614   2.772   6.762
 4878SOL     OW26512   2.247   3.608   8.850
 4878SOL    HW126513   2.318   3.576   8.905
 4878SOL    HW226514   2.221   3.692   8.889
 4879SOL     OW26515   3.363   4.225  13.512
 4879SOL    HW126516   3.275   4.262  13.523
 4879SOL    HW226517   3.392   4.257  13.427
 4880SOL     OW26518   1.737   4.141  15.875
 4880SOL    HW126519   1.828   4.170  15.883
 4880SOL    HW226520   1.743   4.049  15.848
 4881SOL     OW26521   0.863   2.781  20.988
 4881SOL    HW126522   0.953   2.808  20.970
 4881SOL    HW226523   0.827   2.851  21.043
 4882SOL     OW26524   1.642   2.870   0.224
 4882SOL    HW126525   1.700   2.946   0.225
 4882SOL    HW226526   1.597   2.875   0.140
 4883SOL     OW26527   3.098   3.342   0.578
 4883SOL    HW126528   3.192   3.361   0.572
 4883SOL    HW226529   3.070   3.334   0.487
 4884SOL     OW26530   3.804   1.417   5.350
 4884SOL    HW126531   3.718   1.429   5.309
 4884SOL    HW226532   3.801   1.473   5.427
 4885SOL     OW26533   3.267   2.911   4.443
 4885SOL    HW126534   3.337   2.904   4.508
 4885SOL    HW226535   3.273   2.829   4.393
 4886SOL     OW26536   2.893   3.373  17.016
 4886SOL    HW126537   2.934   3.287  17.012
 4886SOL    HW226538   2.834   3.375  16.941
 4887SOL     OW26539   2.549   2.293   6.195
 4887SOL    HW126540   2.638   2.266   6.215
 4887SOL    HW226541   2.559   2.378   6.151
 4888SOL     OW26542   3.188   4.690   4.985
 4888SOL    HW126543   3.097   4.662   4.995
 4888SOL    HW226544   3.208   4.737   5.066
 4889SOL     OW26545   0.893   3.074  18.669
 4889SOL    HW126546   0.875   2.987  18.705
 4889SOL    HW226547   0.957   3.113  18.729
 4890SOL     OW26548   2.986   1.237  20.262
 4890SOL    HW126549   2.993   1.308  20.198
 4890SOL    HW226550   2.909   1.260  20.315
 4891SOL     OW26551   3.739   1.623   5.890
 4891SOL    HW126552   3.789   1.644   5.811
 4891SOL    HW226553   3.759   1.531   5.908
 4892SOL     OW26554   2.453   0.006  17.723
 4892SOL    HW126555   2.517   0.027  17.791
 4892SOL    HW226556   2.410   0.089  17.704
 4893SOL     OW26557   2.593   4.609   1.692
 4893SOL    HW126558   2.683   4.620   1.661
 4893SOL    HW226559   2.593   4.648   1.780
 4894SOL     OW26560   0.773   0.564  18.192
 4894SOL    HW126561   0.695   0.590  18.142
 4894SOL    HW226562   0.752   0.587  18.282
 4895SOL     OW26563   1.419   1.851  20.897
 4895SOL    HW126564   1.465   1.911  20.955
 4895SOL    HW226565   1.486   1.821  20.835
 4896SOL     OW26566   0.007   2.729  15.464
 4896SOL    HW126567   0.049   2.756  15.382
 4896SOL    HW226568   4.714   2.777  15.466
 4897SOL     OW26569   0.939   2.458   0.460
 4897SOL    HW126570   1.015   2.506   0.428
 4897SOL    HW226571   0.865   2.496   0.413
 4898SOL     OW26572   0.492   1.650  16.854
 4898SOL    HW126573   0.477   1.668  16.947
 4898SOL    HW226574   0.586   1.663  16.842
 4899SOL     OW26575   2.161   0.551  18.228
 4899SOL    HW126576   2.209   0.551  18.145
 4899SOL    HW226577   2.154   0.643  18.252
 4900SOL     OW26578   2.519   3.143  19.198
 4900SOL    HW126579   2.462   3.161  19.123
 4900SOL    HW226580   2.459   3.126  19.271
 4901SOL     OW26581   1.708   4.356  16.438
 4901SOL    HW126582   1.628   4.388  16.397
 4901SOL    HW226583   1.733   4.280  16.385
 4902SOL     OW26584   2.864   3.348   5.742
 4902SOL    HW126585   2.807   3.291   5.691
 4902SOL    HW226586   2.809   3.381   5.813
 4903SOL     OW26587   4.739   1.819  17.647
 4903SOL    HW126588   4.726   1.823  17.552
 4903SOL    HW226589   0.031   1.770  17.658
 4904SOL     OW26590   0.704   1.801   2.317
 4904SOL    HW126591   0.744   1.868   2.261
 4904SOL    HW226592   0.772   1.780   2.381
 4905SOL     OW26593   3.849   3.235  19.430
 4905SOL    HW126594   3.852   3.186  19.512
 4905SOL    HW226595   3.921   3.199  19.378
 4906SOL     OW26596   2.284   1.905   5.128
 4906SOL    HW126597   2.232   1.972   5.172
 4906SOL    HW226598   2.374   1.924   5.153
 4907SOL     OW26599   1.426   1.721  20.145
 4907SOL    HW126600   1.395   1.631  20.146
 4907SOL    HW226601   1.346   1.774  20.149
 4908SOL     OW26602   1.776   4.244  20.057
 4908SOL    HW126603   1.736   4.311  20.112
 4908SOL    HW226604   1.869   4.265  20.058
 4909SOL     OW26605   3.644   2.139   3.992
 4909SOL    HW126606   3.607   2.071   3.936
 4909SOL    HW226607   3.571   2.167   4.047
 4910SOL     OW26608   1.062   4.558  13.227
 4910SOL    HW126609   0.984   4.564  13.172
 4910SOL    HW226610   1.117   4.631  13.199
 4911SOL     OW26611   3.365   1.366  18.948
 4911SOL    HW126612   3.277   1.397  18.969
 4911SOL    HW226613   3.414   1.375  19.030
 4912SOL     OW26614   3.531   0.089   0.222
 4912SOL    HW126615   3.537   0.176   0.262
 4912SOL    HW226616   3.616   0.049   0.238
 4913SOL     OW26617   4.590   2.176  19.680
 4913SOL    HW126618   4.589   2.120  19.758
 4913SOL    HW226619   4.604   2.115  19.607
 4914SOL     OW26620   3.406   3.275   0.851
 4914SOL    HW126621   3.333   3.336   0.860
 4914SOL    HW226622   3.451   3.303   0.771
 4915SOL     OW26623   3.937   3.297   3.519
 4915SOL    HW126624   4.030   3.299   3.542
 4915SOL    HW226625   3.891   3.311   3.602
 4916SOL     OW26626   3.832   1.337   5.873
 4916SOL    HW126627   3.913   1.316   5.919
 4916SOL    HW226628   3.860   1.361   5.785
 4917SOL     OW26629   1.313   2.043  17.884
 4917SOL    HW126630   1.279   2.043  17.794
 4917SOL    HW226631   1.314   2.135  17.909
 4918SOL     OW26632   0.484   3.509  17.551
 4918SOL    HW126633   0.479   3.605  17.547
 4918SOL    HW226634   0.532   3.484  17.472
 4919SOL     OW26635   1.076   0.555  13.978
 4919SOL    HW126636   1.048   0.645  13.994
 4919SOL    HW226637   1.169   0.555  13.999
 4920SOL     OW26638   1.768   0.850   3.500
 4920SOL    HW126639   1.758   0.942   3.474
 4920SOL    HW226640   1.835   0.816   3.441
 4921SOL     OW26641   0.072   4.732   5.293
 4921SOL    HW126642   0.119   4.785   5.229
 4921SOL    HW226643   0.104   4.643   5.279
 4922SOL     OW26644   4.228   0.847  18.829
 4922SOL    HW126645   4.297   0.833  18.894
 4922SOL    HW226646   4.271   0.830  18.745
 4923SOL     OW26647   2.688   0.210  15.503
 4923SOL    HW126648   2.665   0.194  15.595
 4923SOL    HW226649   2.648   0.295  15.482
 4924SOL     OW26650   1.485   2.806  19.779
 4924SOL    HW126651   1.525   2.889  19.753
 4924SOL    HW226652   1.487   2.753  19.700
 4925SOL     OW26653   1.089   2.237  15.760
 4925SOL    HW126654   1.010   2.215  15.710
 4925SOL    HW226655   1.095   2.332  15.754
 4926SOL     OW26656   0.196   0.759  19.463
 4926SOL    HW126657   0.252   0.799  19.530
 4926SOL    HW226658   0.224   0.668  19.459
 4927SOL     OW26659   0.236   1.513  19.383
 4927SOL    HW126660   0.301   1.564  19.432
 4927SOL    HW226661   0.210   1.443  19.443
 4928SOL     OW26662   1.053   4.779  17.298
 4928SOL    HW126663   0.980   0.051  17.307
 4928SOL    HW226664   1.092   0.010  17.213
 4929SOL     OW26665   0.646   0.909  18.094
 4929SOL    HW126666   0.609   0.989  18.058
 4929SOL    HW226667   0.670   0.932  18.184
 4930SOL     OW26668   3.266   3.547   5.396
 4930SOL    HW126669   3.338   3.486   5.411
 4930SOL    HW226670   3.216   3.508   5.324
 4931SOL     OW26671   2.299   3.771   1.282
 4931SOL    HW126672   2.328   3.735   1.198
 4931SOL    HW226673   2.328   3.706   1.346
 4932SOL     OW26674   3.346   2.051   2.383
 4932SOL    HW126675   3.316   2.141   2.375
 4932SOL    HW226676   3.325   2.026   2.473
 4933SOL     OW26677   0.288   2.190  14.578
 4933SOL    HW126678   0.233   2.148  14.644
 4933SOL    HW226679   0.314   2.119  14.519
 4934SOL     OW26680   4.314   0.642  20.931
 4934SOL    HW126681   4.405   0.661  20.952
 4934SOL    HW226682   4.296   0.559  20.976
 4935SOL     OW26683   3.054   3.911   2.975
 4935SOL    HW126684   3.117   3.867   3.033
 4935SOL    HW226685   2.994   3.956   3.035
 4936SOL     OW26686   4.237   1.325   1.685
 4936SOL    HW126687   4.267   1.238   1.711
 4936SOL    HW226688   4.217   1.369   1.768
 4937SOL     OW26689   0.506   0.326   4.391
 4937SOL    HW126690   0.552   0.383   4.452
 4937SOL    HW226691   0.571   0.260   4.366
 4938SOL     OW26692   3.974   2.593  20.957
 4938SOL    HW126693   4.011   2.622  21.040
 4938SOL    HW226694   4.012   2.651  20.892
 4939SOL     OW26695   4.583   0.861   6.609
 4939SOL    HW126696   4.602   0.781   6.657
 4939SOL    HW226697   4.496   0.887   6.640
 4940SOL     OW26698   4.047   0.526   4.409
 4940SOL    HW126699   4.064   0.545   4.501
 4940SOL    HW226700   4.134   0.518   4.369
 4941SOL     OW26701   4.532   2.463  19.428
 4941SOL    HW126702   4.503   2.502  19.346
 4941SOL    HW226703   4.498   2.521  19.496
 4942SOL     OW26704   4.021   0.099   7.708
 4942SOL    HW126705   4.033   0.004   7.715
 4942SOL    HW226706   4.105   0.132   7.677
 4943SOL     OW26707   3.642   0.367  17.456
 4943SOL    HW126708   3.550   0.346  17.440
 4943SOL    HW226709   3.666   0.311  17.530
 4944SOL     OW26710   0.654   0.685   3.799
 4944SOL    HW126711   0.590   0.748   3.765
 4944SOL    HW226712   0.606   0.603   3.805
 4945SOL     OW26713   2.675   1.256  20.589
 4945SOL    HW126714   2.661   1.162  20.577
 4945SOL    HW226715   2.645   1.273  20.678
 4946SOL     OW26716   2.154   2.584  20.512
 4946SOL    HW126717   2.141   2.673  20.479
 4946SOL    HW226718   2.067   2.544  20.508
 4947SOL     OW26719   0.415   1.443   3.546
 4947SOL    HW126720   0.323   1.464   3.530
 4947SOL    HW226721   0.424   1.352   3.519
 4948SOL     OW26722   4.145   3.148   4.402
 4948SOL    HW126723   4.174   3.169   4.313
 4948SOL    HW226724   4.098   3.065   4.393
 4949SOL     OW26725   2.141   3.569   0.494
 4949SOL    HW126726   2.047   3.584   0.481
 4949SOL    HW226727   2.147   3.524   0.578
 4950SOL     OW26728   2.213   0.578  15.665
 4950SOL    HW126729   2.205   0.641  15.593
 4950SOL    HW226730   2.147   0.606  15.728
 4951SOL     OW26731   1.821   0.746   7.829
 4951SOL    HW126732   1.883   0.787   7.769
 4951SOL    HW226733   1.784   0.673   7.780
 4952SOL     OW26734   1.265   1.007   3.669
 4952SOL    HW126735   1.203   1.037   3.735
 4952SOL    HW226736   1.307   0.930   3.708
 4953SOL     OW26737   4.132   4.005   3.534
 4953SOL    HW126738   4.091   4.090   3.549
 4953SOL    HW226739   4.199   4.023   3.468
 4954SOL     OW26740   3.641   2.771  16.161
 4954SOL    HW126741   3.682   2.821  16.232
 4954SOL    HW226742   3.634   2.682  16.196
 4955SOL     OW26743   3.891   4.029  20.003
 4955SOL    HW126744   3.817   4.072  19.959
 4955SOL    HW226745   3.953   4.100  20.020
 4956SOL     OW26746   3.850   2.973   5.251
 4956SOL    HW126747   3.931   2.925   5.233
 4956SOL    HW226748   3.871   3.063   5.228
 4957SOL     OW26749   1.028   1.300  17.512
 4957SOL    HW126750   0.937   1.328  17.500
 4957SOL    HW226751   1.060   1.283  17.423
 4958SOL     OW26752   2.438   4.429  18.716
 4958SOL    HW126753   2.372   4.419  18.647
 4958SOL    HW226754   2.471   4.340  18.730
 4959SOL     OW26755   3.049   0.467   0.792
 4959SOL    HW126756   3.024   0.503   0.707
 4959SOL    HW226757   3.142   0.488   0.801
 4960SOL     OW26758   3.283   0.595   0.678
 4960SOL    HW126759   3.310   0.674   0.632
 4960SOL    HW226760   3.276   0.529   0.609
 4961SOL     OW26761   3.124   2.647   6.498
 4961SOL    HW126762   3.218   2.664   6.491
 4961SOL    HW226763   3.096   2.696   6.575
 4962SOL     OW26764   0.045   0.229   8.537
 4962SOL    HW126765   0.064   0.213   8.445
 4962SOL    HW226766   4.740   0.242   8.540
 4963SOL     OW26767   2.889   0.512   3.753
 4963SOL    HW126768   2.904   0.424   3.787
 4963SOL    HW226769   2.911   0.570   3.826
 4964SOL     OW26770   1.839   2.355  19.065
 4964SOL    HW126771   1.869   2.441  19.093
 4964SOL    HW226772   1.878   2.343  18.978
 4965SOL     OW26773   1.511   4.680   2.724
 4965SOL    HW126774   1.497   4.688   2.630
 4965SOL    HW226775   1.581   4.616   2.733
 4966SOL     OW26776   2.062   2.512   3.542
 4966SOL    HW126777   2.138   2.470   3.502
 4966SOL    HW226778   2.092   2.538   3.629
 4967SOL     OW26779   3.781   1.280   7.018
 4967SOL    HW126780   3.874   1.266   7.034
 4967SOL    HW226781   3.770   1.375   7.025
 4968SOL     OW26782   2.633   3.883   4.101
 4968SOL    HW126783   2.644   3.924   4.187
 4968SOL    HW226784   2.643   3.955   4.038
 4969SOL     OW26785   1.345   1.799   5.254
 4969SOL    HW126786   1.373   1.877   5.205
 4969SOL    HW226787   1.272   1.764   5.203
 4970SOL     OW26788   3.692   1.522  14.922
 4970SOL    HW126789   3.781   1.525  14.888
 4970SOL    HW226790   3.701   1.484  15.009
 4971SOL     OW26791   3.324   0.798  16.719
 4971SOL    HW126792   3.353   0.708  16.705
 4971SOL    HW226793   3.250   0.790  16.779
 4972SOL     OW26794   3.534   2.424  14.375
 4972SOL    HW126795   3.594   2.430  14.449
 4972SOL    HW226796   3.590   2.400  14.301
 4973SOL     OW26797   3.969   4.650  20.857
 4973SOL    HW126798   3.963   4.615  20.946
 4973SOL    HW226799   4.050   4.701  20.856
 4974SOL     OW26800   2.719   3.486   0.639
 4974SOL    HW126801   2.744   3.396   0.660
 4974SOL    HW226802   2.771   3.508   0.562
 4975SOL     OW26803   2.099   0.023  13.624
 4975SOL    HW126804   2.140   0.071  13.552
 4975SOL    HW226805   2.161   4.743  13.645
 4976SOL     OW26806   1.542   1.330  14.120
 4976SOL    HW126807   1.472   1.359  14.062
 4976SOL    HW226808   1.546   1.397  14.189
 4977SOL     OW26809   3.731   2.601   1.237
 4977SOL    HW126810   3.810   2.547   1.241
 4977SOL    HW226811   3.759   2.683   1.196
 4978SOL     OW26812   2.590   2.080   0.108
 4978SOL    HW126813   2.564   1.991   0.130
 4978SOL    HW226814   2.667   2.069   0.052
 4979SOL     OW26815   1.571   2.781   3.536
 4979SOL    HW126816   1.573   2.690   3.564
 4979SOL    HW226817   1.479   2.806   3.543
 4980SOL     OW26818   2.850   1.515   6.712
 4980SOL    HW126819   2.815   1.482   6.629
 4980SOL    HW226820   2.777   1.564   6.750
 4981SOL     OW26821   0.337   1.703  16.636
 4981SOL    HW126822   0.290   1.777  16.674
 4981SOL    HW226823   0.407   1.684  16.698
 4982SOL     OW26824   3.834   1.507  16.823
 4982SOL    HW126825   3.847   1.566  16.749
 4982SOL    HW226826   3.820   1.421  16.783
 4983SOL     OW26827   1.808   0.250   1.137
 4983SOL    HW126828   1.818   0.174   1.195
 4983SOL    HW226829   1.718   0.280   1.152
 4984SOL     OW26830   1.169   0.401   1.499
 4984SOL    HW126831   1.151   0.481   1.449
 4984SOL    HW226832   1.092   0.346   1.486
 4985SOL     OW26833   4.755   0.197   1.380
 4985SOL    HW126834   0.005   0.213   1.465
 4985SOL    HW226835   4.747   0.284   1.340
 4986SOL     OW26836   4.122   0.581   5.880
 4986SOL    HW126837   4.114   0.670   5.914
 4986SOL    HW226838   4.062   0.529   5.933
 4987SOL     OW26839   4.343   0.554   3.493
 4987SOL    HW126840   4.248   0.545   3.497
 4987SOL    HW226841   4.357   0.644   3.464
 4988SOL     OW26842   0.917   0.267  15.401
 4988SOL    HW126843   0.997   0.241  15.448
 4988SOL    HW226844   0.863   0.188  15.401
 4989SOL     OW26845   0.248   0.888  20.889
 4989SOL    HW126846   0.263   0.873  20.982
 4989SOL    HW226847   0.203   0.809  20.859
 4990SOL     OW26848   4.361   0.143  14.418
 4990SOL    HW126849   4.393   0.141  14.508
 4990SOL    HW226850   4.385   0.057  14.382
 4991SOL     OW26851   3.277   3.291  17.540
 4991SOL    HW126852   3.189   3.281  17.505
 4991SOL    HW226853   3.292   3.386  17.541
 4992SOL     OW26854   0.823   2.922  16.057
 4992SOL    HW126855   0.802   3.006  16.099
 4992SOL    HW226856   0.769   2.921  15.978
 4993SOL     OW26857   3.365   2.803   6.728
 4993SOL    HW126858   3.272   2.825   6.723
 4993SOL    HW226859   3.381   2.751   6.650
 4994SOL     OW26860   2.420   4.011   0.920
 4994SOL    HW126861   2.344   4.067   0.937
 4994SOL    HW226862   2.408   3.937   0.980
 4995SOL     OW26863   1.709   1.501  16.716
 4995SOL    HW126864   1.751   1.511  16.631
 4995SOL    HW226865   1.658   1.581  16.727
 4996SOL     OW26866   2.899   1.404   7.945
 4996SOL    HW126867   2.902   1.471   8.014
 4996SOL    HW226868   2.978   1.419   7.894
 4997SOL     OW26869   4.243   4.274   5.010
 4997SOL    HW126870   4.160   4.321   5.001
 4997SOL    HW226871   4.310   4.338   4.984
 4998SOL     OW26872   3.289   4.468  17.420
 4998SOL    HW126873   3.235   4.487  17.343
 4998SOL    HW226874   3.236   4.407  17.472
 4999SOL     OW26875   3.848   2.381   7.649
 4999SOL    HW126876   3.855   2.474   7.670
 4999SOL    HW226877   3.932   2.358   7.609
 5000SOL     OW26878   2.213   3.496   4.585
 5000SOL    HW126879   2.279   3.518   4.651
 5000SOL    HW226880   2.259   3.440   4.523
 5001SOL     OW26881   2.313   1.190  20.157
 5001SOL    HW126882   2.271   1.230  20.081
 5001SOL    HW226883   2.394   1.153  20.123
 5002SOL     OW26884   1.362   2.282   1.780
 5002SOL    HW126885   1.303   2.207   1.775
 5002SOL    HW226886   1.304   2.358   1.785
 5003SOL     OW26887   4.003   0.410   5.175
 5003SOL    HW126888   3.982   0.318   5.161
 5003SOL    HW226889   3.999   0.449   5.088
 5004SOL     OW26890   1.368   0.691  15.569
 5004SOL    HW126891   1.275   0.671  15.560
 5004SOL    HW226892   1.399   0.701  15.479
 5005SOL     OW26893   0.213   4.537  19.793
 5005SOL    HW126894   0.279   4.492  19.740
 5005SOL    HW226895   0.135   4.483  19.785
 5006SOL     OW26896   0.170   4.250  19.400
 5006SOL    HW126897   0.148   4.242  19.307
 5006SOL    HW226898   0.138   4.169  19.439
 5007SOL     OW26899   0.049   3.222  16.935
 5007SOL    HW126900   0.042   3.210  17.030
 5007SOL    HW226901   0.143   3.225  16.918
 5008SOL     OW26902   1.974   2.497   4.660
 5008SOL    HW126903   2.002   2.442   4.587
 5008SOL    HW226904   2.006   2.585   4.638
 5009SOL     OW26905   3.369   1.184   2.310
 5009SOL    HW126906   3.464   1.174   2.305
 5009SOL    HW226907   3.353   1.222   2.396
 5010SOL     OW26908   2.374   2.333  14.610
 5010SOL    HW126909   2.433   2.391  14.561
 5010SOL    HW226910   2.392   2.353  14.702
 5011SOL     OW26911   2.889   4.269  17.125
 5011SOL    HW126912   2.849   4.231  17.203
 5011SOL    HW226913   2.983   4.261  17.140
 5012SOL     OW26914   0.907   4.537   2.410
 5012SOL    HW126915   0.953   4.559   2.329
 5012SOL    HW226916   0.872   4.449   2.395
 5013SOL     OW26917   1.447   1.623   3.312
 5013SOL    HW126918   1.424   1.694   3.373
 5013SOL    HW226919   1.378   1.625   3.245
 5014SOL     OW26920   3.746   0.137  19.736
 5014SOL    HW126921   3.739   0.230  19.713
 5014SOL    HW226922   3.666   0.098  19.702
 5015SOL     OW26923   3.172   1.829  20.964
 5015SOL    HW126924   3.268   1.825  20.969
 5015SOL    HW226925   3.142   1.796  21.049
 5016SOL     OW26926   4.702   1.607   5.858
 5016SOL    HW126927   4.714   1.660   5.937
 5016SOL    HW226928   4.759   1.532   5.870
 5017SOL     OW26929   0.244   3.251  20.960
 5017SOL    HW126930   0.301   3.177  20.980
 5017SOL    HW226931   0.193   3.263  21.040
 5018SOL     OW26932   1.614   1.701   6.253
 5018SOL    HW126933   1.641   1.728   6.341
 5018SOL    HW226934   1.584   1.611   6.263
 5019SOL     OW26935   3.039   3.467  15.282
 5019SOL    HW126936   3.076   3.519  15.210
 5019SOL    HW226937   3.105   3.472  15.351
 5020SOL     OW26938   3.927   4.041  15.945
 5020SOL    HW126939   3.870   4.067  16.017
 5020SOL    HW226940   4.016   4.050  15.981
 5021SOL     OW26941   4.070   4.325   1.974
 5021SOL    HW126942   4.154   4.280   1.965
 5021SOL    HW226943   4.005   4.255   1.971
 5022SOL     OW26944   1.213   3.528   2.240
 5022SOL    HW126945   1.278   3.462   2.216
 5022SOL    HW226946   1.157   3.484   2.304
 5023SOL     OW26947   0.391   1.998  16.776
 5023SOL    HW126948   0.485   1.980  16.786
 5023SOL    HW226949   0.384   2.093  16.781
 5024SOL     OW26950   1.906   0.390   2.888
 5024SOL    HW126951   1.866   0.464   2.934
 5024SOL    HW226952   1.841   0.365   2.822
 5025SOL     OW26953   3.651   4.197  19.180
 5025SOL    HW126954   3.572   4.185  19.128
 5025SOL    HW226955   3.642   4.136  19.253
 5026SOL     OW26956   0.751   1.305  20.662
 5026SOL    HW126957   0.743   1.356  20.581
 5026SOL    HW226958   0.844   1.285  20.668
 5027SOL     OW26959   0.591   3.858  17.800
 5027SOL    HW126960   0.624   3.886  17.715
 5027SOL    HW226961   0.597   3.763  17.798
 5028SOL     OW26962   4.146   1.562  19.519
 5028SOL    HW126963   4.188   1.561  19.433
 5028SOL    HW226964   4.194   1.496  19.570
 5029SOL     OW26965   2.236   0.894  14.107
 5029SOL    HW126966   2.267   0.813  14.066
 5029SOL    HW226967   2.285   0.899  14.189
 5030SOL     OW26968   3.092   3.343  19.283
 5030SOL    HW126969   3.129   3.260  19.315
 5030SOL    HW226970   3.090   3.399  19.360
 5031SOL     OW26971   4.433   4.225   4.509
 5031SOL    HW126972   4.427   4.147   4.564
 5031SOL    HW226973   4.403   4.296   4.566
 5032SOL     OW26974   2.286   3.214  19.068
 5032SOL    HW126975   2.289   3.289  19.127
 5032SOL    HW226976   2.268   3.251  18.982
 5033SOL     OW26977   2.786   0.626   0.807
 5033SOL    HW126978   2.704   0.630   0.757
 5033SOL    HW226979   2.795   0.534   0.831
 5034SOL     OW26980   0.595   1.786   0.255
 5034SOL    HW126981   0.537   1.848   0.298
 5034SOL    HW226982   0.643   1.744   0.326
 5035SOL     OW26983   2.053   0.165  19.020
 5035SOL    HW126984   2.058   0.080  19.063
 5035SOL    HW226985   2.115   0.159  18.947
 5036SOL     OW26986   0.321   3.985  13.843
 5036SOL    HW126987   0.287   3.923  13.778
 5036SOL    HW226988   0.255   3.985  13.913
 5037SOL     OW26989   3.529   3.636   6.364
 5037SOL    HW126990   3.441   3.617   6.398
 5037SOL    HW226991   3.572   3.683   6.435
 5038SOL     OW26992   1.995   0.148   6.532
 5038SOL    HW126993   2.046   0.140   6.451
 5038SOL    HW226994   1.906   0.126   6.506
 5039SOL     OW26995   3.178   2.479  14.741
 5039SOL    HW126996   3.236   2.404  14.756
 5039SOL    HW226997   3.213   2.522  14.663
 5040SOL     OW26998   2.742   3.756  19.989
 5040SOL    HW126999   2.653   3.787  19.971
 5040SOL    HW227000   2.791   3.835  20.012
 5041SOL     OW27001   2.146   0.228  20.818
 5041SOL    HW127002   2.218   0.179  20.779
 5041SOL    HW227003   2.189   0.299  20.867
 5042SOL     OW27004   4.722   0.124   5.826
 5042SOL    HW127005   4.776   0.138   5.748
 5042SOL    HW227006   4.635   0.156   5.802
 5043SOL     OW27007   4.725   0.023  17.910
 5043SOL    HW127008   0.017   4.767  17.929
 5043SOL    HW227009   4.681   4.759  17.844
 5044SOL     OW27010   0.693   0.768   4.649
 5044SOL    HW127011   0.745   0.723   4.716
 5044SOL    HW227012   0.687   0.705   4.577
 5045SOL     OW27013   2.498   0.825   1.591
 5045SOL    HW127014   2.562   0.876   1.541
 5045SOL    HW227015   2.543   0.743   1.611
 5046SOL     OW27016   1.805   2.822   5.608
 5046SOL    HW127017   1.828   2.856   5.521
 5046SOL    HW227018   1.852   2.739   5.615
 5047SOL     OW27019   4.719   3.245   7.734
 5047SOL    HW127020   4.710   3.151   7.719
 5047SOL    HW227021   4.719   3.254   7.829
 5048SOL     OW27022   2.725   2.779  20.266
 5048SOL    HW127023   2.742   2.778  20.360
 5048SOL    HW227024   2.662   2.850  20.253
 5049SOL     OW27025   1.408   2.476   4.519
 5049SOL    HW127026   1.428   2.554   4.467
 5049SOL    HW227027   1.484   2.419   4.507
 5050SOL     OW27028   1.391   0.671  15.272
 5050SOL    HW127029   1.348   0.751  15.241
 5050SOL    HW227030   1.445   0.643  15.198
 5051SOL     OW27031   3.418   0.781  14.413
 5051SOL    HW127032   3.322   0.781  14.419
 5051SOL    HW227033   3.444   0.868  14.445
 5052SOL     OW27034   2.242   0.138   8.932
 5052SOL    HW127035   2.289   0.084   8.995
 5052SOL    HW227036   2.293   0.219   8.926
 5053SOL     OW27037   3.159   3.713  12.193
 5053SOL    HW127038   3.160   3.801  12.154
 5053SOL    HW227039   3.251   3.692  12.206
 5054SOL     OW27040   0.508   1.737   1.472
 5054SOL    HW127041   0.464   1.733   1.387
 5054SOL    HW227042   0.490   1.825   1.504
 5055SOL     OW27043   2.817   1.698  13.668
 5055SOL    HW127044   2.825   1.711  13.573
 5055SOL    HW227045   2.806   1.604  13.678
 5056SOL     OW27046   2.538   2.584  16.799
 5056SOL    HW127047   2.448   2.600  16.828
 5056SOL    HW227048   2.544   2.489  16.793
 5057SOL     OW27049   3.292   1.746   5.233
 5057SOL    HW127050   3.263   1.752   5.142
 5057SOL    HW227051   3.211   1.749   5.284
 5058SOL     OW27052   1.788   0.422  19.605
 5058SOL    HW127053   1.844   0.345  19.602
 5058SOL    HW227054   1.835   0.484  19.661
 5059SOL     OW27055   3.638   1.030  19.740
 5059SOL    HW127056   3.667   1.120  19.756
 5059SOL    HW227057   3.650   0.985  19.824
 5060SOL     OW27058   4.350   3.292  15.356
 5060SOL    HW127059   4.310   3.378  15.365
 5060SOL    HW227060   4.288   3.232  15.397
 5061SOL     OW27061   2.590   3.829   4.844
 5061SOL    HW127062   2.562   3.914   4.877
 5061SOL    HW227063   2.661   3.803   4.902
 5062SOL     OW27064   2.287   1.835   5.491
 5062SOL    HW127065   2.347   1.910   5.488
 5062SOL    HW227066   2.205   1.871   5.525
 5063SOL     OW27067   1.527   3.659  15.105
 5063SOL    HW127068   1.432   3.671  15.108
 5063SOL    HW227069   1.539   3.564  15.105
 5064SOL     OW27070   4.325   0.590   1.625
 5064SOL    HW127071   4.370   0.508   1.645
 5064SOL    HW227072   4.386   0.659   1.651
 5065SOL     OW27073   1.706   2.628   4.646
 5065SOL    HW127074   1.791   2.593   4.671
 5065SOL    HW227075   1.663   2.648   4.729
 5066SOL     OW27076   0.950   1.733  12.767
 5066SOL    HW127077   1.029   1.724  12.713
 5066SOL    HW227078   0.982   1.771  12.849
 5067SOL     OW27079   3.950   2.203   2.591
 5067SOL    HW127080   3.896   2.166   2.661
 5067SOL    HW227081   3.925   2.295   2.588
 5068SOL     OW27082   0.667   4.263  13.906
 5068SOL    HW127083   0.609   4.302  13.841
 5068SOL    HW227084   0.647   4.169  13.903
 5069SOL     OW27085   4.591   1.313   6.748
 5069SOL    HW127086   4.650   1.250   6.789
 5069SOL    HW227087   4.569   1.274   6.664
 5070SOL     OW27088   4.089   3.585  20.896
 5070SOL    HW127089   4.129   3.526  20.833
 5070SOL    HW227090   3.995   3.573  20.883
 5071SOL     OW27091   2.607   0.078   5.605
 5071SOL    HW127092   2.647   0.137   5.541
 5071SOL    HW227093   2.651   4.784   5.591
 5072SOL     OW27094   0.843   4.288   6.445
 5072SOL    HW127095   0.771   4.248   6.494
 5072SOL    HW227096   0.802   4.358   6.394
 5073SOL     OW27097   3.943   1.562  20.934
 5073SOL    HW127098   3.963   1.481  20.887
 5073SOL    HW227099   4.027   1.589  20.971
 5074SOL     OW27100   2.923   3.058   4.227
 5074SOL    HW127101   2.902   3.068   4.134
 5074SOL    HW227102   2.945   2.965   4.236
 5075SOL     OW27103   0.886   2.646  20.418
 5075SOL    HW127104   0.908   2.554  20.401
 5075SOL    HW227105   0.909   2.660  20.510
 5076SOL     OW27106   0.791   4.301  13.614
 5076SOL    HW127107   0.703   4.328  13.587
 5076SOL    HW227108   0.850   4.341  13.550
 5077SOL     OW27109   3.545   3.023  14.451
 5077SOL    HW127110   3.479   3.010  14.519
 5077SOL    HW227111   3.507   3.089  14.393
 5078SOL     OW27112   2.443   2.516  17.534
 5078SOL    HW127113   2.505   2.569  17.584
 5078SOL    HW227114   2.362   2.567  17.535
 5079SOL     OW27115   1.560   2.091  18.921
 5079SOL    HW127116   1.578   2.158  18.987
 5079SOL    HW227117   1.518   2.020  18.969
 5080SOL     OW27118   2.273   1.233   0.746
 5080SOL    HW127119   2.197   1.183   0.774
 5080SOL    HW227120   2.339   1.217   0.813
 5081SOL     OW27121   0.006   1.772   2.305
 5081SOL    HW127122   4.741   1.785   2.227
 5081SOL    HW227123   0.006   1.677   2.318
 5082SOL     OW27124   1.674   2.522  16.841
 5082SOL    HW127125   1.645   2.588  16.905
 5082SOL    HW227126   1.768   2.537  16.832
 5083SOL     OW27127   2.696   3.611   2.719
 5083SOL    HW127128   2.702   3.617   2.624
 5083SOL    HW227129   2.655   3.526   2.736
 5084SOL     OW27130   3.787   0.390  18.030
 5084SOL    HW127131   3.696   0.411  18.049
 5084SOL    HW227132   3.794   0.394  17.935
 5085SOL     OW27133   2.257   3.182   7.648
 5085SOL    HW127134   2.260   3.254   7.711
 5085SOL    HW227135   2.167   3.182   7.615
 5086SOL     OW27136   0.208   2.333  16.557
 5086SOL    HW127137   0.251   2.354  16.640
 5086SOL    HW227138   0.267   2.271  16.514
 5087SOL     OW27139   2.187   1.829   4.035
 5087SOL    HW127140   2.200   1.904   3.977
 5087SOL    HW227141   2.274   1.789   4.042
 5088SOL     OW27142   1.428   3.327   3.022
 5088SOL    HW127143   1.494   3.350   2.956
 5088SOL    HW227144   1.378   3.407   3.034
 5089SOL     OW27145   3.969   3.114  16.510
 5089SOL    HW127146   4.059   3.123  16.541
 5089SOL    HW227147   3.937   3.035  16.553
 5090SOL     OW27148   1.173   0.775  16.811
 5090SOL    HW127149   1.263   0.799  16.834
 5090SOL    HW227150   1.121   0.802  16.887
 5091SOL     OW27151   0.604   2.856  18.893
 5091SOL    HW127152   0.638   2.816  18.813
 5091SOL    HW227153   0.510   2.862  18.878
 5092SOL     OW27154   2.285   4.562   0.657
 5092SOL    HW127155   2.285   4.511   0.576
 5092SOL    HW227156   2.260   4.499   0.725
 5093SOL     OW27157   3.443   1.000  17.014
 5093SOL    HW127158   3.530   1.029  17.042
 5093SOL    HW227159   3.443   0.905  17.027
 5094SOL     OW27160   0.655   0.135  20.049
 5094SOL    HW127161   0.571   0.101  20.080
 5094SOL    HW227162   0.653   0.228  20.070
 5095SOL     OW27163   0.549   0.830  16.874
 5095SOL    HW127164   0.509   0.912  16.847
 5095SOL    HW227165   0.479   0.765  16.866
 5096SOL     OW27166   0.951   2.904  14.219
 5096SOL    HW127167   0.978   2.902  14.311
 5096SOL    HW227168   0.990   2.825  14.181
 5097SOL     OW27169   0.745   3.750  14.871
 5097SOL    HW127170   0.790   3.668  14.889
 5097SOL    HW227171   0.670   3.750  14.931
 5098SOL     OW27172   1.788   3.784  16.029
 5098SOL    HW127173   1.845   3.854  16.061
 5098SOL    HW227174   1.716   3.781  16.092
 5099SOL     OW27175   4.153   1.399   1.920
 5099SOL    HW127176   4.184   1.329   1.977
 5099SOL    HW227177   4.070   1.427   1.959
 5100SOL     OW27178   4.207   0.220  19.107
 5100SOL    HW127179   4.145   0.288  19.082
 5100SOL    HW227180   4.213   0.163  19.030
 5101SOL     OW27181   3.461   1.659   6.450
 5101SOL    HW127182   3.551   1.691   6.457
 5101SOL    HW227183   3.429   1.656   6.540
 5102SOL     OW27184   1.382   0.636   1.246
 5102SOL    HW127185   1.424   0.573   1.305
 5102SOL    HW227186   1.429   0.626   1.163
 5103SOL     OW27187   0.266   0.106   3.702
 5103SOL    HW127188   0.307   0.172   3.645
 5103SOL    HW227189   0.332   0.037   3.710
 5104SOL     OW27190   4.683   0.519   4.977
 5104SOL    HW127191   4.613   0.474   5.024
 5104SOL    HW227192   4.671   0.611   4.998
 5105SOL     OW27193   0.016   2.764   3.904
 5105SOL    HW127194   0.032   2.670   3.915
 5105SOL    HW227195   4.741   2.785   3.972
 5106SOL     OW27196   0.378   1.918  13.814
 5106SOL    HW127197   0.376   1.908  13.719
 5106SOL    HW227198   0.428   1.998  13.829
 5107SOL     OW27199   2.630   2.008  18.112
 5107SOL    HW127200   2.585   2.089  18.086
 5107SOL    HW227201   2.584   1.980  18.191
 5108SOL     OW27202   2.906   4.224   3.412
 5108SOL    HW127203   2.887   4.241   3.504
 5108SOL    HW227204   2.934   4.309   3.378
 5109SOL     OW27205   3.456   1.895   1.436
 5109SOL    HW127206   3.387   1.850   1.485
 5109SOL    HW227207   3.479   1.970   1.490
 5110SOL     OW27208   3.969   3.000   4.140
 5110SOL    HW127209   3.962   2.973   4.232
 5110SOL    HW227210   3.911   2.940   4.093
 5111SOL     OW27211   0.718   3.887   3.238
 5111SOL    HW127212   0.777   3.906   3.311
 5111SOL    HW227213   0.687   3.798   3.254
 5112SOL     OW27214   1.176   4.303   0.372
 5112SOL    HW127215   1.132   4.380   0.408
 5112SOL    HW227216   1.131   4.229   0.412
 5113SOL     OW27217   2.120   1.638  19.963
 5113SOL    HW127218   2.072   1.622  19.882
 5113SOL    HW227219   2.052   1.645  20.030
 5114SOL     OW27220   4.487   0.941   0.390
 5114SOL    HW127221   4.514   1.017   0.441
 5114SOL    HW227222   4.423   0.975   0.328
 5115SOL     OW27223   3.856   2.493   0.299
 5115SOL    HW127224   3.944   2.457   0.288
 5115SOL    HW227225   3.859   2.578   0.256
 5116SOL     OW27226   2.395   3.732   4.096
 5116SOL    HW127227   2.433   3.645   4.106
 5116SOL    HW227228   2.470   3.791   4.101
 5117SOL     OW27229   2.840   3.497   3.077
 5117SOL    HW127230   2.837   3.593   3.081
 5117SOL    HW227231   2.761   3.472   3.029
 5118SOL     OW27232   3.705   3.520  16.611
 5118SOL    HW127233   3.693   3.546  16.520
 5118SOL    HW227234   3.766   3.446  16.607
 5119SOL     OW27235   1.593   4.701   6.164
 5119SOL    HW127236   1.583   4.625   6.107
 5119SOL    HW227237   1.590   4.776   6.105
 5120SOL     OW27238   4.632   2.920   5.093
 5120SOL    HW127239   4.665   2.994   5.042
 5120SOL    HW227240   4.653   2.843   5.040
 5121SOL     OW27241   1.514   1.091  15.910
 5121SOL    HW127242   1.532   1.109  15.818
 5121SOL    HW227243   1.597   1.058  15.944
 5122SOL     OW27244   2.581   3.904   0.253
 5122SOL    HW127245   2.568   3.998   0.240
 5122SOL    HW227246   2.501   3.864   0.219
 5123SOL     OW27247   4.334   1.224  20.071
 5123SOL    HW127248   4.304   1.219  19.980
 5123SOL    HW227249   4.370   1.312  20.079
 5124SOL     OW27250   4.788   0.128  14.801
 5124SOL    HW127251   0.067   0.070  14.768
 5124SOL    HW227252   0.006   0.123  14.896
 5125SOL     OW27253   2.406   4.608  18.192
 5125SOL    HW127254   2.409   4.557  18.273
 5125SOL    HW227255   2.381   4.545  18.125
 5126SOL     OW27256   3.843   3.106   1.203
 5126SOL    HW127257   3.900   3.148   1.267
 5126SOL    HW227258   3.859   3.154   1.122
 5127SOL     OW27259   0.961   0.507  16.377
 5127SOL    HW127260   1.009   0.454  16.313
 5127SOL    HW227261   1.029   0.550  16.429
 5128SOL     OW27262   3.847   0.751   5.081
 5128SOL    HW127263   3.876   0.704   5.003
 5128SOL    HW227264   3.890   0.706   5.154
 5129SOL     OW27265   3.748   1.779   4.942
 5129SOL    HW127266   3.673   1.826   4.978
 5129SOL    HW227267   3.711   1.697   4.909
 5130SOL     OW27268   0.704   4.223   4.937
 5130SOL    HW127269   0.625   4.263   4.900
 5130SOL    HW227270   0.671   4.159   5.000
 5131SOL     OW27271   3.900   0.136  20.565
 5131SOL    HW127272   3.834   0.190  20.609
 5131SOL    HW227273   3.967   0.198  20.537
 5132SOL     OW27274   2.182   2.076  18.655
 5132SOL    HW127275   2.193   1.984  18.631
 5132SOL    HW227276   2.200   2.079  18.749
 5133SOL     OW27277   3.318   1.840   7.003
 5133SOL    HW127278   3.340   1.844   6.910
 5133SOL    HW227279   3.275   1.923   7.022
 5134SOL     OW27280   3.139   4.509  17.125
 5134SOL    HW127281   3.214   4.522  17.067
 5134SOL    HW227282   3.123   4.595  17.163
 5135SOL     OW27283   3.606   2.978  19.271
 5135SOL    HW127284   3.676   3.005  19.212
 5135SOL    HW227285   3.650   2.924  19.337
 5136SOL     OW27286   3.434   0.981   0.436
 5136SOL    HW127287   3.516   0.970   0.484
 5136SOL    HW227288   3.368   0.938   0.490
 5137SOL     OW27289   3.389   0.622   1.103
 5137SOL    HW127290   3.450   0.640   1.032
 5137SOL    HW227291   3.445   0.598   1.177
 5138SOL     OW27292   3.541   1.191   6.522
 5138SOL    HW127293   3.509   1.255   6.458
 5138SOL    HW227294   3.618   1.233   6.561
 5139SOL     OW27295   1.899   1.742   6.259
 5139SOL    HW127296   1.857   1.793   6.190
 5139SOL    HW227297   1.828   1.693   6.300
 5140SOL     OW27298   3.603   4.236  18.766
 5140SOL    HW127299   3.553   4.250  18.686
 5140SOL    HW227300   3.538   4.244  18.836
 5141SOL     OW27301   1.663   3.841   1.438
 5141SOL    HW127302   1.746   3.878   1.408
 5141SOL    HW227303   1.682   3.748   1.453
 5142SOL     OW27304   4.531   1.761   5.688
 5142SOL    HW127305   4.550   1.693   5.753
 5142SOL    HW227306   4.614   1.776   5.643
 5143SOL     OW27307   2.959   1.979  14.136
 5143SOL    HW127308   2.872   1.978  14.175
 5143SOL    HW227309   3.017   2.006  14.207
 5144SOL     OW27310   2.660   1.469   1.267
 5144SOL    HW127311   2.728   1.525   1.304
 5144SOL    HW227312   2.705   1.388   1.243
 5145SOL     OW27313   0.070   4.165  19.159
 5145SOL    HW127314   0.086   4.083  19.113
 5145SOL    HW227315   0.113   4.231  19.105
 5146SOL     OW27316   1.427   4.131  11.223
 5146SOL    HW127317   1.356   4.136  11.159
 5146SOL    HW227318   1.382   4.123  11.307
 5147SOL     OW27319   2.706   1.381  17.549
 5147SOL    HW127320   2.744   1.429  17.622
 5147SOL    HW227321   2.780   1.365  17.490
 5148SOL     OW27322   3.570   3.355  17.410
 5148SOL    HW127323   3.521   3.382  17.488
 5148SOL    HW227324   3.513   3.291  17.367
 5149SOL     OW27325   4.420   3.208  18.786
 5149SOL    HW127326   4.429   3.145  18.857
 5149SOL    HW227327   4.487   3.183  18.722
 5150SOL     OW27328   4.405   4.419   5.232
 5150SOL    HW127329   4.474   4.352   5.234
 5150SOL    HW227330   4.326   4.373   5.261
 5151SOL     OW27331   3.637   2.926   3.479
 5151SOL    HW127332   3.568   2.861   3.489
 5151SOL    HW227333   3.590   3.009   3.470
 5152SOL     OW27334   0.132   4.075  14.965
 5152SOL    HW127335   0.116   3.988  14.928
 5152SOL    HW227336   0.218   4.100  14.932
 5153SOL     OW27337   0.792   3.096   7.935
 5153SOL    HW127338   0.795   3.064   7.845
 5153SOL    HW227339   0.884   3.108   7.959
 5154SOL     OW27340   2.324   3.136   8.936
 5154SOL    HW127341   2.374   3.213   8.910
 5154SOL    HW227342   2.380   3.062   8.912
 5155SOL     OW27343   1.610   4.773  16.944
 5155SOL    HW127344   1.657   0.031  16.876
 5155SOL    HW227345   1.522   4.760  16.908
 5156SOL     OW27346   0.648   1.569  20.865
 5156SOL    HW127347   0.661   1.496  20.804
 5156SOL    HW227348   0.553   1.582  20.866
 5157SOL     OW27349   1.540   4.334  20.553
 5157SOL    HW127350   1.590   4.409  20.586
 5157SOL    HW227351   1.452   4.368  20.540
 5158SOL     OW27352   1.106   1.507  12.230
 5158SOL    HW127353   1.178   1.448  12.207
 5158SOL    HW227354   1.111   1.577  12.165
 5159SOL     OW27355   4.554   2.563   6.048
 5159SOL    HW127356   4.640   2.558   6.005
 5159SOL    HW227357   4.531   2.472   6.065
 5160SOL     OW27358   2.904   2.152  20.694
 5160SOL    HW127359   2.840   2.117  20.632
 5160SOL    HW227360   2.888   2.246  20.694
 5161SOL     OW27361   1.420   2.301  18.275
 5161SOL    HW127362   1.363   2.272  18.346
 5161SOL    HW227363   1.368   2.289  18.196
 5162SOL     OW27364   1.386   0.480   0.161
 5162SOL    HW127365   1.415   0.503   0.073
 5162SOL    HW227366   1.402   0.386   0.167
 5163SOL     OW27367   2.045   0.869  17.674
 5163SOL    HW127368   1.992   0.790  17.680
 5163SOL    HW227369   1.982   0.941  17.685
 5164SOL     OW27370   0.435   3.516   1.000
 5164SOL    HW127371   0.439   3.427   1.036
 5164SOL    HW227372   0.432   3.573   1.077
 5165SOL     OW27373   1.488   0.627   1.000
 5165SOL    HW127374   1.487   0.690   0.928
 5165SOL    HW227375   1.470   0.543   0.958
 5166SOL     OW27376   3.537   2.507   0.026
 5166SOL    HW127377   3.451   2.475   0.052
 5166SOL    HW227378   3.569   2.441  21.221
 5167SOL     OW27379   2.825   2.783  16.198
 5167SOL    HW127380   2.811   2.711  16.137
 5167SOL    HW227381   2.907   2.761  16.243
 5168SOL     OW27382   3.328   3.548  17.558
 5168SOL    HW127383   3.341   3.580  17.469
 5168SOL    HW227384   3.369   3.615  17.613
 5169SOL     OW27385   2.815   1.127   7.997
 5169SOL    HW127386   2.783   1.160   8.081
 5169SOL    HW227387   2.855   1.203   7.955
 5170SOL     OW27388   2.060   3.488   6.037
 5170SOL    HW127389   2.144   3.513   6.074
 5170SOL    HW227390   2.038   3.406   6.081
 5171SOL     OW27391   1.414   1.787   3.518
 5171SOL    HW127392   1.419   1.735   3.598
 5171SOL    HW227393   1.387   1.874   3.547
 5172SOL     OW27394   4.294   1.023   2.395
 5172SOL    HW127395   4.293   0.944   2.450
 5172SOL    HW227396   4.289   1.095   2.457
 5173SOL     OW27397   2.796   2.124   6.511
 5173SOL    HW127398   2.719   2.083   6.550
 5173SOL    HW227399   2.817   2.197   6.569
 5174SOL     OW27400   0.725   3.807   4.445
 5174SOL    HW127401   0.723   3.877   4.510
 5174SOL    HW227402   0.641   3.814   4.400
 5175SOL     OW27403   3.030   4.187  19.222
 5175SOL    HW127404   2.958   4.165  19.281
 5175SOL    HW227405   3.083   4.249  19.271
 5176SOL     OW27406   3.210   0.485  21.242
 5176SOL    HW127407   3.260   0.517  21.167
 5176SOL    HW227408   3.131   0.538  21.243
 5177SOL     OW27409   4.528   3.250   0.043
 5177SOL    HW127410   4.513   3.344   0.046
 5177SOL    HW227411   4.463   3.217  21.237
 5178SOL     OW27412   0.546   2.706  21.196
 5178SOL    HW127413   0.458   2.735  21.221
 5178SOL    HW227414   0.595   2.787  21.181
 5179SOL     OW27415   3.492   0.960   6.643
 5179SOL    HW127416   3.529   1.037   6.600
 5179SOL    HW227417   3.463   0.992   6.729
 5180SOL     OW27418   0.188   4.411   1.010
 5180SOL    HW127419   0.199   4.351   1.084
 5180SOL    HW227420   0.118   4.372   0.957
 5181SOL     OW27421   4.244   4.275   5.391
 5181SOL    HW127422   4.233   4.183   5.415
 5181SOL    HW227423   4.230   4.323   5.473
 5182SOL     OW27424   4.122   3.519   1.004
 5182SOL    HW127425   4.097   3.463   0.931
 5182SOL    HW227426   4.178   3.586   0.965
 5183SOL     OW27427   0.032   1.433  12.142
 5183SOL    HW127428   0.006   1.354  12.189
 5183SOL    HW227429   0.127   1.437  12.151
 5184SOL     OW27430   0.867   0.252  11.042
 5184SOL    HW127431   0.876   0.238  10.948
 5184SOL    HW227432   0.938   0.313  11.064
 5185SOL     OW27433   3.286   1.886   6.472
 5185SOL    HW127434   3.329   1.955   6.422
 5185SOL    HW227435   3.338   1.807   6.454
 5186SOL     OW27436   4.346   1.789  20.888
 5186SOL    HW127437   4.377   1.711  20.842
 5186SOL    HW227438   4.425   1.842  20.900
 5187SOL     OW27439   4.364   0.860  15.503
 5187SOL    HW127440   4.314   0.825  15.577
 5187SOL    HW227441   4.455   0.835  15.520
 5188SOL     OW27442   0.525   2.350  20.937
 5188SOL    HW127443   0.523   2.445  20.928
 5188SOL    HW227444   0.599   2.323  20.883
 5189SOL     OW27445   3.105   0.290  19.337
 5189SOL    HW127446   3.088   0.313  19.246
 5189SOL    HW227447   3.048   0.347  19.388
 5190SOL     OW27448   1.870   3.589  19.701
 5190SOL    HW127449   1.788   3.609  19.656
 5190SOL    HW227450   1.851   3.509  19.750
 5191SOL     OW27451   1.756   1.794   7.117
 5191SOL    HW127452   1.687   1.819   7.179
 5191SOL    HW227453   1.739   1.702   7.099
 5192SOL     OW27454   3.692   2.753  11.989
 5192SOL    HW127455   3.685   2.713  11.902
 5192SOL    HW227456   3.647   2.837  11.981
 5193SOL     OW27457   2.900   2.766  19.053
 5193SOL    HW127458   2.855   2.836  19.101
 5193SOL    HW227459   2.969   2.737  19.112
 5194SOL     OW27460   0.878   0.267   5.480
 5194SOL    HW127461   0.822   0.213   5.536
 5194SOL    HW227462   0.833   0.352   5.476
 5195SOL     OW27463   4.739   1.602  20.566
 5195SOL    HW127464   4.662   1.644  20.528
 5195SOL    HW227465   0.024   1.644  20.523
 5196SOL     OW27466   0.036   3.296   5.230
 5196SOL    HW127467   0.001   3.301   5.141
 5196SOL    HW227468   4.757   3.252   5.281
 5197SOL     OW27469   1.384   1.812   4.566
 5197SOL    HW127470   1.458   1.819   4.506
 5197SOL    HW227471   1.334   1.892   4.551
 5198SOL     OW27472   0.327   3.387  15.017
 5198SOL    HW127473   0.403   3.406  14.962
 5198SOL    HW227474   0.258   3.365  14.955
 5199SOL     OW27475   1.759   1.157  16.872
 5199SOL    HW127476   1.694   1.218  16.907
 5199SOL    HW227477   1.812   1.132  16.948
 5200SOL     OW27478   2.315   3.607   2.735
 5200SOL    HW127479   2.237   3.608   2.790
 5200SOL    HW227480   2.330   3.514   2.716
 5201SOL     OW27481   0.858   3.194   1.532
 5201SOL    HW127482   0.871   3.269   1.591
 5201SOL    HW227483   0.904   3.122   1.575
 5202SOL     OW27484   4.732   1.918  18.151
 5202SOL    HW127485   4.700   2.008  18.156
 5202SOL    HW227486   4.675   1.869  18.210
 5203SOL     OW27487   3.066   3.076   1.595
 5203SOL    HW127488   3.086   2.987   1.625
 5203SOL    HW227489   3.052   3.066   1.501
 5204SOL     OW27490   0.948   0.476  19.947
 5204SOL    HW127491   0.855   0.457  19.932
 5204SOL    HW227492   0.991   0.452  19.865
 5205SOL     OW27493   2.969   1.748   8.386
 5205SOL    HW127494   3.029   1.757   8.312
 5205SOL    HW227495   2.969   1.654   8.406
 5206SOL     OW27496   4.516   4.626   7.700
 5206SOL    HW127497   4.611   4.618   7.709
 5206SOL    HW227498   4.481   4.589   7.781
 5207SOL     OW27499   3.357   3.447  20.140
 5207SOL    HW127500   3.290   3.379  20.138
 5207SOL    HW227501   3.391   3.445  20.229
 5208SOL     OW27502   0.844   1.117  15.982
 5208SOL    HW127503   0.895   1.143  15.906
 5208SOL    HW227504   0.906   1.068  16.037
 5209SOL     OW27505   1.177   0.755  19.242
 5209SOL    HW127506   1.257   0.726  19.197
 5209SOL    HW227507   1.193   0.735  19.334
 5210SOL     OW27508   4.716   2.816   2.972
 5210SOL    HW127509   4.630   2.854   2.989
 5210SOL    HW227510   4.738   2.770   3.053
 5211SOL     OW27511   3.532   0.398   3.897
 5211SOL    HW127512   3.625   0.377   3.889
 5211SOL    HW227513   3.507   0.430   3.810
 5212SOL     OW27514   1.916   2.815   4.265
 5212SOL    HW127515   1.848   2.823   4.332
 5212SOL    HW227516   1.992   2.782   4.312
 5213SOL     OW27517   3.278   1.976   0.293
 5213SOL    HW127518   3.250   1.939   0.377
 5213SOL    HW227519   3.370   1.952   0.285
 5214SOL     OW27520   3.333   4.354  16.220
 5214SOL    HW127521   3.425   4.380  16.214
 5214SOL    HW227522   3.323   4.320  16.309
 5215SOL     OW27523   1.828   4.759   2.717
 5215SOL    HW127524   1.755   4.726   2.769
 5215SOL    HW227525   1.901   4.699   2.736
 5216SOL     OW27526   2.086   4.592  16.916
 5216SOL    HW127527   2.121   4.567  17.001
 5216SOL    HW227528   2.083   4.688  16.918
 5217SOL     OW27529   0.196   2.538  19.824
 5217SOL    HW127530   0.187   2.465  19.762
 5217SOL    HW227531   0.290   2.548  19.836
 5218SOL     OW27532   0.545   3.465   4.027
 5218SOL    HW127533   0.623   3.496   4.073
 5218SOL    HW227534   0.576   3.444   3.939
 5219SOL     OW27535   3.101   4.275  13.647
 5219SOL    HW127536   3.041   4.320  13.706
 5219SOL    HW227537   3.167   4.236  13.704
 5220SOL     OW27538   4.660   2.569   1.418
 5220SOL    HW127539   4.596   2.633   1.449
 5220SOL    HW227540   4.652   2.495   1.478
 5221SOL     OW27541   0.254   3.474  14.688
 5221SOL    HW127542   0.171   3.501  14.650
 5221SOL    HW227543   0.272   3.539  14.756
 5222SOL     OW27544   3.420   0.928   2.230
 5222SOL    HW127545   3.379   1.013   2.217
 5222SOL    HW227546   3.379   0.893   2.309
 5223SOL     OW27547   4.504   2.011   1.667
 5223SOL    HW127548   4.518   1.991   1.574
 5223SOL    HW227549   4.433   1.952   1.694
 5224SOL     OW27550   1.212   4.241   3.596
 5224SOL    HW127551   1.124   4.231   3.632
 5224SOL    HW227552   1.207   4.199   3.510
 5225SOL     OW27553   3.647   1.360  16.534
 5225SOL    HW127554   3.594   1.427  16.578
 5225SOL    HW227555   3.681   1.305  16.605
 5226SOL     OW27556   1.194   0.034   1.426
 5226SOL    HW127557   1.205   0.019   1.520
 5226SOL    HW227558   1.103   0.012   1.408
 5227SOL     OW27559   0.696   2.832   2.658
 5227SOL    HW127560   0.627   2.768   2.673
 5227SOL    HW227561   0.688   2.894   2.730
 5228SOL     OW27562   3.408   4.197  14.676
 5228SOL    HW127563   3.449   4.169  14.758
 5228SOL    HW227564   3.481   4.223  14.620
 5229SOL     OW27565   3.289   1.608   6.667
 5229SOL    HW127566   3.334   1.551   6.730
 5229SOL    HW227567   3.215   1.644   6.716
 5230SOL     OW27568   1.738   2.148  19.288
 5230SOL    HW127569   1.784   2.064  19.292
 5230SOL    HW227570   1.752   2.178  19.198
 5231SOL     OW27571   4.286   2.780  19.800
 5231SOL    HW127572   4.335   2.812  19.875
 5231SOL    HW227573   4.253   2.695  19.828
 5232SOL     OW27574   2.466   4.537  15.823
 5232SOL    HW127575   2.404   4.573  15.759
 5232SOL    HW227576   2.483   4.448  15.792
 5233SOL     OW27577   2.495   0.187   5.200
 5233SOL    HW127578   2.554   0.124   5.241
 5233SOL    HW227579   2.491   0.160   5.108
 5234SOL     OW27580   4.360   3.847   5.527
 5234SOL    HW127581   4.331   3.756   5.528
 5234SOL    HW227582   4.280   3.898   5.543
 5235SOL     OW27583   0.985   1.495   4.748
 5235SOL    HW127584   1.036   1.564   4.791
 5235SOL    HW227585   1.044   1.420   4.745
 5236SOL     OW27586   3.391   2.228   3.085
 5236SOL    HW127587   3.306   2.243   3.043
 5236SOL    HW227588   3.437   2.169   3.025
 5237SOL     OW27589   1.607   4.672  19.355
 5237SOL    HW127590   1.607   4.761  19.390
 5237SOL    HW227591   1.631   4.682  19.263
 5238SOL     OW27592   2.846   3.810   1.383
 5238SOL    HW127593   2.938   3.819   1.359
 5238SOL    HW227594   2.814   3.736   1.331
 5239SOL     OW27595   2.199   2.722  14.495
 5239SOL    HW127596   2.286   2.731  14.535
 5239SOL    HW227597   2.167   2.812  14.486
 5240SOL     OW27598   4.000   0.028  18.211
 5240SOL    HW127599   4.042   0.114  18.213
 5240SOL    HW227600   4.034   4.773  18.288
 5241SOL     OW27601   2.363   3.421   0.736
 5241SOL    HW127602   2.373   3.332   0.771
 5241SOL    HW227603   2.431   3.472   0.780
 5242SOL     OW27604   1.647   0.670   9.539
 5242SOL    HW127605   1.570   0.616   9.554
 5242SOL    HW227606   1.703   0.617   9.482
 5243SOL     OW27607   4.785   1.390   5.098
 5243SOL    HW127608   4.693   1.400   5.075
 5243SOL    HW227609   0.043   1.410   5.017
 5244SOL     OW27610   3.514   2.462  14.794
 5244SOL    HW127611   3.564   2.462  14.712
 5244SOL    HW227612   3.461   2.383  14.790
 5245SOL     OW27613   1.580   0.056   5.274
 5245SOL    HW127614   1.508   0.014   5.227
 5245SOL    HW227615   1.582   0.146   5.241
 5246SOL     OW27616   2.497   1.188   0.974
 5246SOL    HW127617   2.431   1.172   1.041
 5246SOL    HW227618   2.517   1.281   0.982
 5247SOL     OW27619   3.204   4.544  18.981
 5247SOL    HW127620   3.278   4.599  19.004
 5247SOL    HW227621   3.136   4.567  19.045
 5248SOL     OW27622   0.041   0.103   1.135
 5248SOL    HW127623   4.784   0.110   1.218
 5248SOL    HW227624   0.132   0.121   1.157
 5249SOL     OW27625   3.358   1.445   2.998
 5249SOL    HW127626   3.393   1.375   3.053
 5249SOL    HW227627   3.348   1.405   2.912
 5250SOL     OW27628   1.385   2.499  19.729
 5250SOL    HW127629   1.352   2.568  19.786
 5250SOL    HW227630   1.382   2.537  19.641
 5251SOL     OW27631   3.212   3.016  17.622
 5251SOL    HW127632   3.194   3.106  17.649
 5251SOL    HW227633   3.307   3.006  17.632
 5252SOL     OW27634   0.680   2.670   3.687
 5252SOL    HW127635   0.773   2.675   3.665
 5252SOL    HW227636   0.644   2.608   3.623
 5253SOL     OW27637   1.761   0.233   1.692
 5253SOL    HW127638   1.736   0.288   1.618
 5253SOL    HW227639   1.823   0.286   1.742
 5254SOL     OW27640   3.781   3.816  15.410
 5254SOL    HW127641   3.871   3.796  15.435
 5254SOL    HW227642   3.771   3.775  15.324
 5255SOL     OW27643   4.784   1.609   7.860
 5255SOL    HW127644   4.704   1.579   7.817
 5255SOL    HW227645   0.064   1.585   7.799
 5256SOL     OW27646   3.645   1.188   5.406
 5256SOL    HW127647   3.665   1.134   5.482
 5256SOL    HW227648   3.720   1.248   5.398
 5257SOL     OW27649   4.519   0.157  15.986
 5257SOL    HW127650   4.581   0.092  16.018
 5257SOL    HW227651   4.573   0.220  15.939
 5258SOL     OW27652   1.872   4.029   2.827
 5258SOL    HW127653   1.848   4.086   2.900
 5258SOL    HW227654   1.854   4.081   2.749
 5259SOL     OW27655   0.700   0.749  12.598
 5259SOL    HW127656   0.712   0.827  12.544
 5259SOL    HW227657   0.761   0.685  12.562
 5260SOL     OW27658   3.527   0.357   7.231
 5260SOL    HW127659   3.442   0.395   7.209
 5260SOL    HW227660   3.577   0.362   7.149
 5261SOL     OW27661   2.172   0.167  13.416
 5261SOL    HW127662   2.150   0.251  13.375
 5261SOL    HW227663   2.195   0.110  13.343
 5262SOL     OW27664   1.902   2.752  16.126
 5262SOL    HW127665   1.977   2.804  16.156
 5262SOL    HW227666   1.868   2.711  16.205
 5263SOL     OW27667   2.602   3.712   1.561
 5263SOL    HW127668   2.680   3.755   1.596
 5263SOL    HW227669   2.529   3.753   1.608
 5264SOL     OW27670   1.554   0.962   5.360
 5264SOL    HW127671   1.545   1.047   5.403
 5264SOL    HW227672   1.541   0.898   5.430
 5265SOL     OW27673   0.263   3.490   4.242
 5265SOL    HW127674   0.213   3.410   4.258
 5265SOL    HW227675   0.350   3.472   4.279
 5266SOL     OW27676   3.793   2.447  17.177
 5266SOL    HW127677   3.851   2.374  17.155
 5266SOL    HW227678   3.810   2.464  17.270
 5267SOL     OW27679   4.123   0.654  15.476
 5267SOL    HW127680   4.162   0.728  15.429
 5267SOL    HW227681   4.119   0.584  15.411
 5268SOL     OW27682   2.048   4.440  17.555
 5268SOL    HW127683   2.063   4.357  17.510
 5268SOL    HW227684   2.135   4.480  17.562
 5269SOL     OW27685   1.507   0.360  18.199
 5269SOL    HW127686   1.571   0.390  18.135
 5269SOL    HW227687   1.453   0.437  18.217
 5270SOL     OW27688   2.546   0.811  20.384
 5270SOL    HW127689   2.519   0.746  20.319
 5270SOL    HW227690   2.465   0.857  20.407
 5271SOL     OW27691   4.023   3.963  20.565
 5271SOL    HW127692   4.056   4.049  20.540
 5271SOL    HW227693   3.928   3.974  20.567
 5272SOL     OW27694   3.466   3.325   2.579
 5272SOL    HW127695   3.432   3.299   2.664
 5272SOL    HW227696   3.537   3.263   2.562
 5273SOL     OW27697   2.389   3.133   5.804
 5273SOL    HW127698   2.453   3.109   5.871
 5273SOL    HW227699   2.304   3.123   5.847
 5274SOL     OW27700   4.067   2.606   7.768
 5274SOL    HW127701   4.113   2.668   7.712
 5274SOL    HW227702   4.137   2.560   7.815
 5275SOL     OW27703   2.807   0.634  14.771
 5275SOL    HW127704   2.874   0.635  14.703
 5275SOL    HW227705   2.810   0.722  14.810
 5276SOL     OW27706   1.124   1.268  17.234
 5276SOL    HW127707   1.192   1.334  17.225
 5276SOL    HW227708   1.070   1.278  17.156
 5277SOL     OW27709   1.210   2.243  19.597
 5277SOL    HW127710   1.155   2.316  19.570
 5277SOL    HW227711   1.294   2.260  19.555
 5278SOL     OW27712   1.214   1.014   2.946
 5278SOL    HW127713   1.215   1.028   3.041
 5278SOL    HW227714   1.123   0.992   2.926
 5279SOL     OW27715   3.729   2.731   6.179
 5279SOL    HW127716   3.803   2.761   6.126
 5279SOL    HW227717   3.726   2.792   6.253
 5280SOL     OW27718   3.578   1.177  19.447
 5280SOL    HW127719   3.624   1.126  19.380
 5280SOL    HW227720   3.617   1.264  19.441
 5281SOL     OW27721   0.931   1.813  12.292
 5281SOL    HW127722   0.910   1.790  12.201
 5281SOL    HW227723   0.857   1.779  12.343
 5282SOL     OW27724   1.910   0.874  16.900
 5282SOL    HW127725   1.985   0.902  16.952
 5282SOL    HW227726   1.938   0.886  16.809
 5283SOL     OW27727   2.613   1.213   5.069
 5283SOL    HW127728   2.537   1.191   5.123
 5283SOL    HW227729   2.585   1.195   4.979
 5284SOL     OW27730   1.526   1.829   2.885
 5284SOL    HW127731   1.557   1.774   2.956
 5284SOL    HW227732   1.527   1.772   2.808
 5285SOL     OW27733   3.148   3.460  18.645
 5285SOL    HW127734   3.229   3.511  18.649
 5285SOL    HW227735   3.085   3.510  18.697
 5286SOL     OW27736   1.098   2.993  17.989
 5286SOL    HW127737   1.008   3.018  17.967
 5286SOL    HW227738   1.092   2.901  18.015
 5287SOL     OW27739   2.879   0.199   2.724
 5287SOL    HW127740   2.783   0.195   2.722
 5287SOL    HW227741   2.899   0.287   2.692
 5288SOL     OW27742   0.046   3.443  13.761
 5288SOL    HW127743   0.088   3.367  13.720
 5288SOL    HW227744   0.119   3.499  13.788
 5289SOL     OW27745   4.133   0.798  20.477
 5289SOL    HW127746   4.205   0.752  20.434
 5289SOL    HW227747   4.065   0.732  20.487
 5290SOL     OW27748   3.503   4.190   0.856
 5290SOL    HW127749   3.597   4.196   0.873
 5290SOL    HW227750   3.486   4.096   0.850
 5291SOL     OW27751   2.981   3.865  15.559
 5291SOL    HW127752   2.948   3.953  15.576
 5291SOL    HW227753   2.919   3.807  15.604
 5292SOL     OW27754   0.756   0.117   6.606
 5292SOL    HW127755   0.835   0.165   6.582
 5292SOL    HW227756   0.787   0.030   6.631
 5293SOL     OW27757   4.165   0.895   4.991
 5293SOL    HW127758   4.177   0.832   5.062
 5293SOL    HW227759   4.243   0.885   4.936
 5294SOL     OW27760   2.055   0.087   1.849
 5294SOL    HW127761   2.005   0.165   1.824
 5294SOL    HW227762   2.062   0.036   1.768
 5295SOL     OW27763   0.989   2.898   4.876
 5295SOL    HW127764   0.938   2.892   4.795
 5295SOL    HW227765   1.066   2.843   4.859
 5296SOL     OW27766   1.975   0.096  19.537
 5296SOL    HW127767   2.061   0.113  19.575
 5296SOL    HW227768   1.967   0.160  19.466
 5297SOL     OW27769   3.258   0.402  18.699
 5297SOL    HW127770   3.293   0.354  18.774
 5297SOL    HW227771   3.178   0.354  18.676
 5298SOL     OW27772   1.968   0.869   5.523
 5298SOL    HW127773   1.908   0.928   5.568
 5298SOL    HW227774   2.055   0.904   5.542
 5299SOL     OW27775   1.910   2.459  19.703
 5299SOL    HW127776   1.864   2.511  19.769
 5299SOL    HW227777   1.845   2.447  19.634
 5300SOL     OW27778   0.706   2.846  19.325
 5300SOL    HW127779   0.657   2.885  19.397
 5300SOL    HW227780   0.798   2.863  19.346
 5301SOL     OW27781   1.382   4.735  20.358
 5301SOL    HW127782   1.407   4.647  20.330
 5301SOL    HW227783   1.463   4.773  20.392
 5302SOL     OW27784   2.414   1.876  13.662
 5302SOL    HW127785   2.355   1.949  13.682
 5302SOL    HW227786   2.491   1.891  13.717
 5303SOL     OW27787   3.296   3.650  18.987
 5303SOL    HW127788   3.275   3.570  18.938
 5303SOL    HW227789   3.331   3.619  19.070
 5304SOL     OW27790   3.658   3.557   1.799
 5304SOL    HW127791   3.631   3.500   1.871
 5304SOL    HW227792   3.595   3.538   1.729
 5305SOL     OW27793   0.188   0.403   5.922
 5305SOL    HW127794   0.170   0.495   5.905
 5305SOL    HW227795   0.204   0.398   6.016
 5306SOL     OW27796   0.317   0.325  20.045
 5306SOL    HW127797   0.268   0.243  20.035
 5306SOL    HW227798   0.300   0.352  20.135
 5307SOL     OW27799   0.866   3.833   5.590
 5307SOL    HW127800   0.799   3.886   5.548
 5307SOL    HW227801   0.822   3.751   5.612
 5308SOL     OW27802   3.862   2.860   2.377
 5308SOL    HW127803   3.955   2.855   2.400
 5308SOL    HW227804   3.862   2.880   2.283
 5309SOL     OW27805   0.346   1.348  14.948
 5309SOL    HW127806   0.270   1.364  14.892
 5309SOL    HW227807   0.311   1.301  15.024
 5310SOL     OW27808   0.474   2.112   9.623
 5310SOL    HW127809   0.512   2.163   9.552
 5310SOL    HW227810   0.444   2.031   9.582
 5311SOL     OW27811   1.457   0.276   5.914
 5311SOL    HW127812   1.472   0.322   5.831
 5311SOL    HW227813   1.420   0.192   5.889
 5312SOL     OW27814   0.546   3.633   4.265
 5312SOL    HW127815   0.495   3.660   4.341
 5312SOL    HW227816   0.575   3.544   4.286
 5313SOL     OW27817   3.565   4.036   1.097
 5313SOL    HW127818   3.636   4.073   1.045
 5313SOL    HW227819   3.560   3.945   1.069
 5314SOL     OW27820   3.446   0.020  16.225
 5314SOL    HW127821   3.351   0.028  16.221
 5314SOL    HW227822   3.462   4.725  16.267
 5315SOL     OW27823   4.321   1.029  17.260
 5315SOL    HW127824   4.320   1.110  17.311
 5315SOL    HW227825   4.243   0.981  17.289
 5316SOL     OW27826   1.636   4.368  18.371
 5316SOL    HW127827   1.693   4.424  18.423
 5316SOL    HW227828   1.549   4.406  18.382
 5317SOL     OW27829   4.567   4.717  19.459
 5317SOL    HW127830   4.520   4.743  19.538
 5317SOL    HW227831   4.503   4.667  19.408
 5318SOL     OW27832   3.052   0.657  12.708
 5318SOL    HW127833   3.002   0.713  12.649
 5318SOL    HW227834   2.986   0.611  12.760
 5319SOL     OW27835   4.523   4.491   4.164
 5319SOL    HW127836   4.431   4.469   4.153
 5319SOL    HW227837   4.565   4.461   4.083
 5320SOL     OW27838   1.179   2.514  15.798
 5320SOL    HW127839   1.141   2.585  15.746
 5320SOL    HW227840   1.249   2.556  15.848
 5321SOL     OW27841   2.396   0.790   4.704
 5321SOL    HW127842   2.355   0.747   4.629
 5321SOL    HW227843   2.431   0.718   4.756
 5322SOL     OW27844   4.363   4.319   8.543
 5322SOL    HW127845   4.432   4.317   8.610
 5322SOL    HW227846   4.386   4.249   8.482
 5323SOL     OW27847   4.017   2.841   1.162
 5323SOL    HW127848   3.928   2.840   1.127
 5323SOL    HW227849   4.064   2.905   1.109
 5324SOL     OW27850   1.426   1.517   7.251
 5324SOL    HW127851   1.339   1.552   7.233
 5324SOL    HW227852   1.410   1.427   7.280
 5325SOL     OW27853   3.278   4.674  13.974
 5325SOL    HW127854   3.317   4.747  13.925
 5325SOL    HW227855   3.188   4.669  13.941
 5326SOL     OW27856   3.593   1.859   1.026
 5326SOL    HW127857   3.641   1.868   1.108
 5326SOL    HW227858   3.532   1.787   1.041
 5327SOL     OW27859   3.415   1.902  19.253
 5327SOL    HW127860   3.361   1.838  19.208
 5327SOL    HW227861   3.423   1.975  19.191
 5328SOL     OW27862   3.198   1.058   1.142
 5328SOL    HW127863   3.126   1.093   1.195
 5328SOL    HW227864   3.204   0.966   1.169
 5329SOL     OW27865   2.112   4.740   1.634
 5329SOL    HW127866   2.092   4.694   1.552
 5329SOL    HW227867   2.207   4.749   1.633
 5330SOL     OW27868   2.200   1.411   2.176
 5330SOL    HW127869   2.170   1.321   2.163
 5330SOL    HW227870   2.121   1.459   2.202
 5331SOL     OW27871   3.527   1.456  19.163
 5331SOL    HW127872   3.525   1.435  19.256
 5331SOL    HW227873   3.589   1.529  19.157
 5332SOL     OW27874   1.726   2.021   2.647
 5332SOL    HW127875   1.736   2.020   2.552
 5332SOL    HW227876   1.644   2.068   2.662
 5333SOL     OW27877   2.922   0.400  18.814
 5333SOL    HW127878   2.854   0.375  18.751
 5333SOL    HW227879   2.890   0.482  18.853
 5334SOL     OW27880   1.889   2.393   3.151
 5334SOL    HW127881   1.867   2.352   3.067
 5334SOL    HW227882   1.975   2.432   3.137
 5335SOL     OW27883   2.750   3.430  18.394
 5335SOL    HW127884   2.732   3.377  18.316
 5335SOL    HW227885   2.791   3.369  18.455
 5336SOL     OW27886   1.920   2.340  18.527
 5336SOL    HW127887   1.832   2.359  18.493
 5336SOL    HW227888   1.977   2.346  18.451
 5337SOL     OW27889   2.892   0.212  17.469
 5337SOL    HW127890   2.865   0.240  17.556
 5337SOL    HW227891   2.893   0.292  17.417
 5338SOL     OW27892   2.555   1.610  19.342
 5338SOL    HW127893   2.471   1.634  19.382
 5338SOL    HW227894   2.612   1.686  19.357
 5339SOL     OW27895   3.038   3.028   0.019
 5339SOL    HW127896   2.987   3.094  21.230
 5339SOL    HW227897   2.987   3.009   0.098
 5340SOL     OW27898   4.463   3.506   8.189
 5340SOL    HW127899   4.434   3.539   8.104
 5340SOL    HW227900   4.550   3.544   8.201
 5341SOL     OW27901   1.451   2.128  20.314
 5341SOL    HW127902   1.443   2.036  20.338
 5341SOL    HW227903   1.446   2.128  20.218
 5342SOL     OW27904   0.117   3.902   3.452
 5342SOL    HW127905   0.194   3.875   3.502
 5342SOL    HW227906   0.101   3.992   3.481
 5343SOL     OW27907   1.377   0.193   0.167
 5343SOL    HW127908   1.406   0.123   0.109
 5343SOL    HW227909   1.297   0.160   0.207
 5344SOL     OW27910   2.919   0.747   0.220
 5344SOL    HW127911   2.855   0.751   0.291
 5344SOL    HW227912   2.983   0.815   0.241
 5345SOL     OW27913   1.664   1.880  16.085
 5345SOL    HW127914   1.729   1.947  16.109
 5345SOL    HW227915   1.695   1.845  16.002
 5346SOL     OW27916   0.658   1.580  18.460
 5346SOL    HW127917   0.663   1.605  18.368
 5346SOL    HW227918   0.719   1.507  18.469
 5347SOL     OW27919   0.350   3.741   6.251
 5347SOL    HW127920   0.414   3.808   6.227
 5347SOL    HW227921   0.278   3.753   6.189
 5348SOL     OW27922   2.089   1.275   5.237
 5348SOL    HW127923   2.025   1.204   5.229
 5348SOL    HW227924   2.143   1.251   5.312
 5349SOL     OW27925   0.759   2.096  19.480
 5349SOL    HW127926   0.728   2.044  19.406
 5349SOL    HW227927   0.789   2.031  19.544
 5350SOL     OW27928   2.556   0.285   1.154
 5350SOL    HW127929   2.526   0.265   1.065
 5350SOL    HW227930   2.563   0.380   1.157
 5351SOL     OW27931   4.469   2.859  19.399
 5351SOL    HW127932   4.403   2.860  19.468
 5351SOL    HW227933   4.449   2.936  19.345
 5352SOL     OW27934   2.827   0.901  20.173
 5352SOL    HW127935   2.763   0.943  20.231
 5352SOL    HW227936   2.886   0.854  20.232
 5353SOL     OW27937   4.512   2.127  18.429
 5353SOL    HW127938   4.430   2.099  18.470
 5353SOL    HW227939   4.573   2.054  18.444
 5354SOL     OW27940   4.290   1.373   3.495
 5354SOL    HW127941   4.336   1.337   3.419
 5354SOL    HW227942   4.289   1.467   3.479
 5355SOL     OW27943   3.254   0.036  19.086
 5355SOL    HW127944   3.287   0.071  19.003
 5355SOL    HW227945   3.303   0.083  19.153
 5356SOL     OW27946   0.654   4.573   3.874
 5356SOL    HW127947   0.626   4.500   3.930
 5356SOL    HW227948   0.748   4.558   3.861
 5357SOL     OW27949   0.643   1.569   3.506
 5357SOL    HW127950   0.574   1.518   3.548
 5357SOL    HW227951   0.723   1.517   3.520
 5358SOL     OW27952   3.428   1.615   0.300
 5358SOL    HW127953   3.473   1.530   0.294
 5358SOL    HW227954   3.478   1.672   0.242
 5359SOL     OW27955   1.048   2.971   5.595
 5359SOL    HW127956   1.132   2.966   5.549
 5359SOL    HW227957   1.012   2.883   5.588
 5360SOL     OW27958   4.275   2.832   4.839
 5360SOL    HW127959   4.336   2.874   4.778
 5360SOL    HW227960   4.189   2.842   4.797
 5361SOL     OW27961   2.385   2.251   0.867
 5361SOL    HW127962   2.333   2.183   0.824
 5361SOL    HW227963   2.321   2.313   0.901
 5362SOL     OW27964   3.824   0.753   3.357
 5362SOL    HW127965   3.910   0.793   3.371
 5362SOL    HW227966   3.787   0.801   3.283
 5363SOL     OW27967   1.416   2.819  20.263
 5363SOL    HW127968   1.340   2.864  20.300
 5363SOL    HW227969   1.379   2.747  20.213
 5364SOL     OW27970   0.401   0.137   0.887
 5364SOL    HW127971   0.430   0.075   0.954
 5364SOL    HW227972   0.412   0.091   0.804
 5365SOL     OW27973   0.462   4.448   0.923
 5365SOL    HW127974   0.374   4.412   0.914
 5365SOL    HW227975   0.503   4.395   0.991
 5366SOL     OW27976   2.901   2.790  18.774
 5366SOL    HW127977   2.912   2.801  18.868
 5366SOL    HW227978   2.990   2.785  18.740
 5367SOL     OW27979   1.114   3.919   0.869
 5367SOL    HW127980   1.038   3.871   0.902
 5367SOL    HW227981   1.137   3.873   0.788
 5368SOL     OW27982   4.310   2.764   0.916
 5368SOL    HW127983   4.366   2.836   0.886
 5368SOL    HW227984   4.221   2.794   0.896
 5369SOL     OW27985   3.372   3.425  17.205
 5369SOL    HW127986   3.443   3.485  17.230
 5369SOL    HW227987   3.292   3.474  17.222
 5370SOL     OW27988   2.271   2.442  20.713
 5370SOL    HW127989   2.353   2.394  20.698
 5370SOL    HW227990   2.247   2.475  20.626
 5371SOL     OW27991   1.143   3.211  13.997
 5371SOL    HW127992   1.207   3.247  13.935
 5371SOL    HW227993   1.063   3.261  13.979
 5372SOL     OW27994   2.803   3.244   6.448
 5372SOL    HW127995   2.893   3.219   6.468
 5372SOL    HW227996   2.753   3.218   6.525
 5373SOL     OW27997   3.670   1.952   6.588
 5373SOL    HW127998   3.731   1.993   6.650
 5373SOL    HW227999   3.711   1.965   6.502
 5374SOL     OW28000   4.150   0.511   4.065
 5374SOL    HW128001   4.152   0.510   3.969
 5374SOL    HW228002   4.239   0.489   4.091
 5375SOL     OW28003   0.195   2.502   8.474
 5375SOL    HW128004   0.255   2.460   8.535
 5375SOL    HW228005   0.108   2.490   8.513
 5376SOL     OW28006   3.682   2.087  15.693
 5376SOL    HW128007   3.681   2.083  15.597
 5376SOL    HW228008   3.668   1.997  15.721
 5377SOL     OW28009   1.339   1.603   4.723
 5377SOL    HW128010   1.370   1.659   4.652
 5377SOL    HW228011   1.336   1.515   4.685
 5378SOL     OW28012   4.603   4.092  19.662
 5378SOL    HW128013   4.666   4.050  19.603
 5378SOL    HW228014   4.521   4.094  19.612
 5379SOL     OW28015   3.132   4.574  13.106
 5379SOL    HW128016   3.056   4.624  13.135
 5379SOL    HW228017   3.207   4.622  13.140
 5380SOL     OW28018   1.013   0.505   3.873
 5380SOL    HW128019   0.985   0.563   3.803
 5380SOL    HW228020   1.049   0.564   3.940
 5381SOL     OW28021   1.155   2.889  18.408
 5381SOL    HW128022   1.208   2.823  18.363
 5381SOL    HW228023   1.212   2.923  18.477
 5382SOL     OW28024   2.635   2.864   3.600
 5382SOL    HW128025   2.642   2.896   3.510
 5382SOL    HW228026   2.543   2.838   3.609
 5383SOL     OW28027   1.146   2.964   3.965
 5383SOL    HW128028   1.076   3.029   3.955
 5383SOL    HW228029   1.150   2.948   4.059
 5384SOL     OW28030   4.163   1.250   0.385
 5384SOL    HW128031   4.218   1.318   0.425
 5384SOL    HW228032   4.216   1.215   0.314
 5385SOL     OW28033   3.550   0.677   5.506
 5385SOL    HW128034   3.548   0.773   5.511
 5385SOL    HW228035   3.598   0.658   5.425
 5386SOL     OW28036   2.473   1.167   3.911
 5386SOL    HW128037   2.518   1.123   3.839
 5386SOL    HW228038   2.382   1.174   3.882
 5387SOL     OW28039   0.568   4.693  15.131
 5387SOL    HW128040   0.641   4.693  15.069
 5387SOL    HW228041   0.509   4.761  15.098
 5388SOL     OW28042   4.125   3.476   2.749
 5388SOL    HW128043   4.052   3.434   2.795
 5388SOL    HW228044   4.141   3.557   2.798
 5389SOL     OW28045   4.593   4.073   3.411
 5389SOL    HW128046   4.638   4.007   3.357
 5389SOL    HW228047   4.589   4.034   3.498
 5390SOL     OW28048   3.228   3.141   6.760
 5390SOL    HW128049   3.259   3.052   6.774
 5390SOL    HW228050   3.177   3.161   6.838
 5391SOL     OW28051   2.203   1.250   3.880
 5391SOL    HW128052   2.169   1.286   3.962
 5391SOL    HW228053   2.145   1.176   3.860
 5392SOL     OW28054   3.499   2.019  12.575
 5392SOL    HW128055   3.458   2.060  12.651
 5392SOL    HW228056   3.455   2.058  12.500
 5393SOL     OW28057   4.601   0.824   1.916
 5393SOL    HW128058   4.523   0.855   1.962
 5393SOL    HW228059   4.568   0.785   1.835
 5394SOL     OW28060   0.561   4.511   4.422
 5394SOL    HW128061   0.575   4.575   4.352
 5394SOL    HW228062   0.520   4.561   4.493
 5395SOL     OW28063   4.221   2.333   0.954
 5395SOL    HW128064   4.277   2.298   1.023
 5395SOL    HW228065   4.282   2.357   0.884
 5396SOL     OW28066   0.506   2.616   3.886
 5396SOL    HW128067   0.481   2.708   3.886
 5396SOL    HW228068   0.585   2.612   3.832
 5397SOL     OW28069   1.611   3.092   5.036
 5397SOL    HW128070   1.639   3.016   4.984
 5397SOL    HW228071   1.663   3.086   5.116
 5398SOL     OW28072   3.367   4.540  18.366
 5398SOL    HW128073   3.453   4.570  18.396
 5398SOL    HW228074   3.384   4.456  18.324
 5399SOL     OW28075   4.676   2.285   1.048
 5399SOL    HW128076   4.592   2.252   1.015
 5399SOL    HW228077   4.727   2.206   1.065
 5400SOL     OW28078   1.995   4.111   3.271
 5400SOL    HW128079   1.923   4.047   3.270
 5400SOL    HW228080   1.967   4.178   3.333
 5401SOL     OW28081   1.092   0.748   0.591
 5401SOL    HW128082   1.165   0.686   0.600
 5401SOL    HW228083   1.132   0.834   0.606
 5402SOL     OW28084   2.041   3.796  16.176
 5402SOL    HW128085   1.970   3.744  16.213
 5402SOL    HW228086   2.024   3.885  16.207
 5403SOL     OW28087   4.364   2.226  17.671
 5403SOL    HW128088   4.393   2.153  17.725
 5403SOL    HW228089   4.440   2.283  17.665
 5404SOL     OW28090   3.849   3.378   3.784
 5404SOL    HW128091   3.903   3.323   3.841
 5404SOL    HW228092   3.761   3.370   3.820
 5405SOL     OW28093   3.218   2.161   2.103
 5405SOL    HW128094   3.237   2.209   2.184
 5405SOL    HW228095   3.263   2.077   2.114
 5406SOL     OW28096   4.084   0.913   3.061
 5406SOL    HW128097   3.998   0.950   3.042
 5406SOL    HW228098   4.065   0.835   3.113
 5407SOL     OW28099   4.612   0.944  18.071
 5407SOL    HW128100   4.664   0.955  17.991
 5407SOL    HW228101   4.676   0.949  18.142
 5408SOL     OW28102   0.176   0.468   3.886
 5408SOL    HW128103   0.149   0.426   3.804
 5408SOL    HW228104   0.112   0.538   3.899
 5409SOL     OW28105   0.836   1.558  11.950
 5409SOL    HW128106   0.862   1.600  11.868
 5409SOL    HW228107   0.887   1.477  11.952
 5410SOL     OW28108   2.601   3.393  15.785
 5410SOL    HW128109   2.613   3.426  15.696
 5410SOL    HW228110   2.575   3.470  15.836
 5411SOL     OW28111   4.062   4.651   2.726
 5411SOL    HW128112   3.989   4.642   2.787
 5411SOL    HW228113   4.138   4.621   2.776
 5412SOL     OW28114   3.362   3.550  13.198
 5412SOL    HW128115   3.298   3.617  13.174
 5412SOL    HW228116   3.376   3.500  13.118
 5413SOL     OW28117   2.115   3.499  19.608
 5413SOL    HW128118   2.087   3.464  19.523
 5413SOL    HW228119   2.034   3.530  19.649
 5414SOL     OW28120   3.493   0.746  18.961
 5414SOL    HW128121   3.486   0.840  18.979
 5414SOL    HW228122   3.507   0.740  18.867
 5415SOL     OW28123   4.512   0.249   5.720
 5415SOL    HW128124   4.458   0.191   5.666
 5415SOL    HW228125   4.475   0.336   5.704
 5416SOL     OW28126   1.241   4.183  17.425
 5416SOL    HW128127   1.210   4.243  17.493
 5416SOL    HW228128   1.225   4.096  17.461
 5417SOL     OW28129   0.316   1.407  17.972
 5417SOL    HW128130   0.296   1.473  17.906
 5417SOL    HW228131   0.248   1.341  17.962
 5418SOL     OW28132   3.223   1.638  18.791
 5418SOL    HW128133   3.185   1.604  18.872
 5418SOL    HW228134   3.200   1.574  18.724
 5419SOL     OW28135   2.500   1.164   3.444
 5419SOL    HW128136   2.417   1.211   3.453
 5419SOL    HW228137   2.565   1.232   3.427
 5420SOL     OW28138   1.271   1.461  20.429
 5420SOL    HW128139   1.250   1.481  20.520
 5420SOL    HW228140   1.187   1.468  20.383
 5421SOL     OW28141   0.284   0.950  15.500
 5421SOL    HW128142   0.213   1.015  15.503
 5421SOL    HW228143   0.364   1.001  15.513
 5422SOL     OW28144   2.771   1.949   4.341
 5422SOL    HW128145   2.721   2.027   4.366
 5422SOL    HW228146   2.848   1.951   4.398
 5423SOL     OW28147   3.766   0.912   3.578
 5423SOL    HW128148   3.785   0.885   3.668
 5423SOL    HW228149   3.799   0.840   3.524
 5424SOL     OW28150   0.896   3.844  13.839
 5424SOL    HW128151   0.808   3.835  13.876
 5424SOL    HW228152   0.895   3.929  13.794
 5425SOL     OW28153   1.573   1.200  19.134
 5425SOL    HW128154   1.511   1.158  19.075
 5425SOL    HW228155   1.529   1.280  19.162
 5426SOL     OW28156   2.174   4.332  18.839
 5426SOL    HW128157   2.216   4.336  18.753
 5426SOL    HW228158   2.080   4.332  18.820
 5427SOL     OW28159   2.266   2.020  19.190
 5427SOL    HW128160   2.186   2.064  19.218
 5427SOL    HW228161   2.268   1.939  19.241
 5428SOL     OW28162   1.767   1.934   0.463
 5428SOL    HW128163   1.776   1.841   0.442
 5428SOL    HW228164   1.785   1.939   0.557
 5429SOL     OW28165   2.467   0.217  20.284
 5429SOL    HW128166   2.544   0.176  20.323
 5429SOL    HW228167   2.436   0.278  20.351
 5430SOL     OW28168   2.151   0.283   5.923
 5430SOL    HW128169   2.209   0.210   5.946
 5430SOL    HW228170   2.125   0.265   5.833
 5431SOL     OW28171   4.239   1.861   2.592
 5431SOL    HW128172   4.246   1.918   2.668
 5431SOL    HW228173   4.328   1.858   2.556
 5432SOL     OW28174   4.368   0.207  18.682
 5432SOL    HW128175   4.448   0.193  18.631
 5432SOL    HW228176   4.376   0.296  18.716
 5433SOL     OW28177   4.682   0.685   2.838
 5433SOL    HW128178   4.692   0.759   2.897
 5433SOL    HW228179   4.748   0.699   2.771
 5434SOL     OW28180   0.306   0.794   3.861
 5434SOL    HW128181   0.253   0.839   3.927
 5434SOL    HW228182   0.388   0.844   3.858
 5435SOL     OW28183   1.953   1.992  21.159
 5435SOL    HW128184   2.020   2.000  21.227
 5435SOL    HW228185   1.962   2.072  21.107
 5436SOL     OW28186   2.854   0.758  17.108
 5436SOL    HW128187   2.851   0.843  17.065
 5436SOL    HW228188   2.881   0.778  17.198
 5437SOL     OW28189   1.864   1.789  19.654
 5437SOL    HW128190   1.814   1.775  19.734
 5437SOL    HW228191   1.799   1.787  19.584
 5438SOL     OW28192   0.679   0.156  20.881
 5438SOL    HW128193   0.618   0.224  20.910
 5438SOL    HW228194   0.763   0.201  20.871
 5439SOL     OW28195   3.248   3.937   7.567
 5439SOL    HW128196   3.291   3.957   7.484
 5439SOL    HW228197   3.154   3.940   7.547
 5440SOL     OW28198   1.556   1.426   1.282
 5440SOL    HW128199   1.631   1.444   1.339
 5440SOL    HW228200   1.509   1.509   1.278
 5441SOL     OW28201   3.916   1.283   5.140
 5441SOL    HW128202   3.899   1.323   5.225
 5441SOL    HW228203   3.891   1.191   5.151
 5442SOL     OW28204   2.865   0.190  19.757
 5442SOL    HW128205   2.795   0.168  19.695
 5442SOL    HW228206   2.877   0.284  19.747
 5443SOL     OW28207   2.547   3.151   3.680
 5443SOL    HW128208   2.566   3.059   3.660
 5443SOL    HW228209   2.490   3.147   3.757
 5444SOL     OW28210   4.008   1.587   3.386
 5444SOL    HW128211   4.025   1.498   3.416
 5444SOL    HW228212   3.943   1.577   3.317
 5445SOL     OW28213   0.476   0.347   3.215
 5445SOL    HW128214   0.511   0.436   3.219
 5445SOL    HW228215   0.537   0.300   3.158
 5446SOL     OW28216   2.095   4.343  13.999
 5446SOL    HW128217   2.074   4.436  13.996
 5446SOL    HW228218   2.175   4.335  13.947
 5447SOL     OW28219   3.074   0.740   4.371
 5447SOL    HW128220   3.014   0.682   4.324
 5447SOL    HW228221   3.161   0.703   4.356
 5448SOL     OW28222   4.334   4.614  19.355
 5448SOL    HW128223   4.299   4.609  19.266
 5448SOL    HW228224   4.268   4.663  19.404
 5449SOL     OW28225   4.246   2.785   1.829
 5449SOL    HW128226   4.255   2.730   1.751
 5449SOL    HW228227   4.181   2.739   1.882
 5450SOL     OW28228   1.848   3.857   0.748
 5450SOL    HW128229   1.857   3.839   0.654
 5450SOL    HW228230   1.756   3.838   0.768
 5451SOL     OW28231   1.648   4.140  19.181
 5451SOL    HW128232   1.635   4.226  19.141
 5451SOL    HW228233   1.684   4.159  19.268
 5452SOL     OW28234   3.812   2.466   5.414
 5452SOL    HW128235   3.728   2.468   5.369
 5452SOL    HW228236   3.795   2.417   5.495
 5453SOL     OW28237   0.625   4.635  19.859
 5453SOL    HW128238   0.687   4.610  19.790
 5453SOL    HW228239   0.671   4.702  19.909
 5454SOL     OW28240   1.327   1.422  16.020
 5454SOL    HW128241   1.331   1.437  15.926
 5454SOL    HW228242   1.363   1.334  16.032
 5455SOL     OW28243   1.340   3.828  20.875
 5455SOL    HW128244   1.286   3.749  20.875
 5455SOL    HW228245   1.320   3.870  20.791
 5456SOL     OW28246   2.411   2.909   8.282
 5456SOL    HW128247   2.349   2.881   8.214
 5456SOL    HW228248   2.456   2.984   8.244
 5457SOL     OW28249   1.637   3.360   2.354
 5457SOL    HW128250   1.700   3.430   2.372
 5457SOL    HW228251   1.607   3.378   2.265
 5458SOL     OW28252   1.714   0.573   0.700
 5458SOL    HW128253   1.756   0.530   0.775
 5458SOL    HW228254   1.655   0.507   0.664
 5459SOL     OW28255   3.796   0.140   4.118
 5459SOL    HW128256   3.707   0.174   4.113
 5459SOL    HW228257   3.850   0.217   4.137
 5460SOL     OW28258   3.007   1.259   3.569
 5460SOL    HW128259   2.962   1.343   3.575
 5460SOL    HW228260   2.988   1.216   3.653
 5461SOL     OW28261   0.143   0.839   6.078
 5461SOL    HW128262   0.131   0.850   5.984
 5461SOL    HW228263   0.091   0.762   6.099
 5462SOL     OW28264   4.220   2.980   3.601
 5462SOL    HW128265   4.154   2.978   3.670
 5462SOL    HW228266   4.191   2.915   3.538
 5463SOL     OW28267   0.243   1.280   1.401
 5463SOL    HW128268   0.289   1.197   1.391
 5463SOL    HW228269   0.311   1.342   1.428
 5464SOL     OW28270   3.051   3.541   6.040
 5464SOL    HW128271   3.046   3.449   6.067
 5464SOL    HW228272   3.134   3.572   6.075
 5465SOL     OW28273   1.789   3.735   4.018
 5465SOL    HW128274   1.768   3.707   4.107
 5465SOL    HW228275   1.885   3.733   4.014
 5466SOL     OW28276   2.083   0.208   5.663
 5466SOL    HW128277   2.099   0.115   5.676
 5466SOL    HW228278   2.139   0.232   5.589
 5467SOL     OW28279   2.436   1.934  18.280
 5467SOL    HW128280   2.432   1.998  18.351
 5467SOL    HW228281   2.356   1.949  18.230
 5468SOL     OW28282   1.037   1.775  20.349
 5468SOL    HW128283   1.114   1.823  20.317
 5468SOL    HW228284   1.047   1.687  20.313
 5469SOL     OW28285   1.863   4.697   3.750
 5469SOL    HW128286   1.892   4.734   3.666
 5469SOL    HW228287   1.779   4.739   3.767
 5470SOL     OW28288   1.163   3.460   1.124
 5470SOL    HW128289   1.082   3.480   1.076
 5470SOL    HW228290   1.143   3.482   1.215
 5471SOL     OW28291   4.579   1.960  14.295
 5471SOL    HW128292   4.575   2.054  14.277
 5471SOL    HW228293   4.672   1.939  14.290
 5472SOL     OW28294   1.461   4.421  21.144
 5472SOL    HW128295   1.440   4.330  21.125
 5472SOL    HW228296   1.469   4.425  21.239
 5473SOL     OW28297   4.740   2.853   3.350
 5473SOL    HW128298   4.710   2.929   3.300
 5473SOL    HW228299   0.043   2.869   3.366
 5474SOL     OW28300   1.996   0.706   5.836
 5474SOL    HW128301   2.055   0.760   5.783
 5474SOL    HW228302   1.954   0.647   5.773
 5475SOL     OW28303   1.593   1.279  15.556
 5475SOL    HW128304   1.558   1.196  15.587
 5475SOL    HW228305   1.548   1.295  15.473
 5476SOL     OW28306   0.782   2.963  20.025
 5476SOL    HW128307   0.803   2.937  20.115
 5476SOL    HW228308   0.694   3.000  20.030
 5477SOL     OW28309   3.709   1.411  15.189
 5477SOL    HW128310   3.779   1.374  15.243
 5477SOL    HW228311   3.658   1.465  15.249
 5478SOL     OW28312   4.364   4.068  20.011
 5478SOL    HW128313   4.338   4.101  19.925
 5478SOL    HW228314   4.309   4.115  20.073
 5479SOL     OW28315   0.983   2.307   0.164
 5479SOL    HW128316   0.928   2.386   0.161
 5479SOL    HW228317   0.968   2.265   0.079
 5480SOL     OW28318   3.813   1.906   9.722
 5480SOL    HW128319   3.906   1.883   9.715
 5480SOL    HW228320   3.809   1.972   9.791
 5481SOL     OW28321   4.020   4.254   0.122
 5481SOL    HW128322   4.004   4.314   0.049
 5481SOL    HW228323   4.111   4.269   0.146
 5482SOL     OW28324   1.822   2.657   0.228
 5482SOL    HW128325   1.774   2.600   0.288
 5482SOL    HW228326   1.795   2.745   0.252
 5483SOL     OW28327   2.189   1.556  14.273
 5483SOL    HW128328   2.165   1.553  14.180
 5483SOL    HW228329   2.148   1.636  14.305
 5484SOL     OW28330   2.817   3.534   1.315
 5484SOL    HW128331   2.886   3.566   1.257
 5484SOL    HW228332   2.863   3.486   1.384
 5485SOL     OW28333   3.112   0.819   2.990
 5485SOL    HW128334   3.068   0.745   3.031
 5485SOL    HW228335   3.057   0.842   2.915
 5486SOL     OW28336   2.073   2.347   4.096
 5486SOL    HW128337   2.078   2.317   4.005
 5486SOL    HW228338   1.993   2.308   4.130
 5487SOL     OW28339   4.487   1.674   1.504
 5487SOL    HW128340   4.425   1.700   1.572
 5487SOL    HW228341   4.528   1.756   1.476
 5488SOL     OW28342   4.630   2.463  19.017
 5488SOL    HW128343   4.568   2.518  18.969
 5488SOL    HW228344   4.693   2.435  18.951
 5489SOL     OW28345   3.943   3.200   0.970
 5489SOL    HW128346   3.911   3.290   0.980
 5489SOL    HW228347   3.929   3.180   0.877
 5490SOL     OW28348   2.503   3.195   0.452
 5490SOL    HW128349   2.471   3.285   0.446
 5490SOL    HW228350   2.470   3.152   0.373
 5491SOL     OW28351   3.115   1.425   5.210
 5491SOL    HW128352   3.084   1.404   5.122
 5491SOL    HW228353   3.206   1.452   5.198
 5492SOL     OW28354   4.007   0.532   0.118
 5492SOL    HW128355   3.998   0.624   0.143
 5492SOL    HW228356   4.089   0.504   0.159
 5493SOL     OW28357   4.667   0.030  17.389
 5493SOL    HW128358   4.599   4.758  17.363
 5493SOL    HW228359   4.749   4.771  17.379
 5494SOL     OW28360   1.708   3.862  18.309
 5494SOL    HW128361   1.659   3.925  18.362
 5494SOL    HW228362   1.775   3.914  18.265
 5495SOL     OW28363   2.928   2.296   6.689
 5495SOL    HW128364   3.018   2.264   6.678
 5495SOL    HW228365   2.912   2.289   6.783
 5496SOL     OW28366   1.169   4.459   2.652
 5496SOL    HW128367   1.134   4.548   2.650
 5496SOL    HW228368   1.133   4.417   2.574
 5497SOL     OW28369   0.201   1.611   5.384
 5497SOL    HW128370   0.186   1.594   5.477
 5497SOL    HW228371   0.130   1.670   5.359
 5498SOL     OW28372   4.759   3.204  17.197
 5498SOL    HW128373   4.685   3.255  17.166
 5498SOL    HW228374   0.020   3.265  17.250
 5499SOL     OW28375   4.584   0.658  16.951
 5499SOL    HW128376   4.553   0.688  17.036
 5499SOL    HW228377   4.606   0.566  16.964
 5500SOL     OW28378   1.370   2.303  15.874
 5500SOL    HW128379   1.293   2.354  15.847
 5500SOL    HW228380   1.345   2.266  15.959
 5501SOL     OW28381   4.617   3.141  16.800
 5501SOL    HW128382   4.583   3.076  16.862
 5501SOL    HW228383   4.690   3.182  16.847
 5502SOL     OW28384   3.536   2.252  15.850
 5502SOL    HW128385   3.577   2.337  15.832
 5502SOL    HW228386   3.593   2.188  15.807
 5503SOL     OW28387   3.578   2.004  18.197
 5503SOL    HW128388   3.602   2.050  18.277
 5503SOL    HW228389   3.506   2.055  18.160
 5504SOL     OW28390   0.271   4.541  17.176
 5504SOL    HW128391   0.347   4.539  17.234
 5504SOL    HW228392   0.243   4.450  17.170
 5505SOL     OW28393   0.062   3.555   3.195
 5505SOL    HW128394   0.131   3.489   3.189
 5505SOL    HW228395   0.007   3.526   3.267
 5506SOL     OW28396   3.413   1.167   0.947
 5506SOL    HW128397   3.348   1.133   1.009
 5506SOL    HW228398   3.399   1.117   0.867
 5507SOL     OW28399   1.174   4.325   5.735
 5507SOL    HW128400   1.111   4.314   5.664
 5507SOL    HW228401   1.158   4.252   5.794
 5508SOL     OW28402   2.043   3.218  21.098
 5508SOL    HW128403   2.136   3.240  21.102
 5508SOL    HW228404   2.034   3.168  21.017
 5509SOL     OW28405   4.268   3.884   4.759
 5509SOL    HW128406   4.217   3.841   4.690
 5509SOL    HW228407   4.333   3.819   4.785
 5510SOL     OW28408   0.421   2.559  17.462
 5510SOL    HW128409   0.390   2.620  17.529
 5510SOL    HW228410   0.439   2.478  17.510
 5511SOL     OW28411   4.348   1.072   1.778
 5511SOL    HW128412   4.389   1.130   1.843
 5511SOL    HW228413   4.326   0.993   1.827
 5512SOL     OW28414   3.160   1.834  18.610
 5512SOL    HW128415   3.127   1.781  18.537
 5512SOL    HW228416   3.204   1.771  18.667
 5513SOL     OW28417   3.836   2.919   9.286
 5513SOL    HW128418   3.894   2.852   9.250
 5513SOL    HW228419   3.748   2.891   9.259
 5514SOL     OW28420   3.404   4.531  20.215
 5514SOL    HW128421   3.497   4.538  20.237
 5514SOL    HW228422   3.396   4.446  20.171
 5515SOL     OW28423   2.612   3.914  18.739
 5515SOL    HW128424   2.618   3.825  18.703
 5515SOL    HW228425   2.702   3.935  18.765
 5516SOL     OW28426   2.766   1.344   5.534
 5516SOL    HW128427   2.803   1.312   5.452
 5516SOL    HW228428   2.679   1.375   5.510
 5517SOL     OW28429   3.375   1.072  20.119
 5517SOL    HW128430   3.299   1.054  20.174
 5517SOL    HW228431   3.355   1.029  20.036
 5518SOL     OW28432   4.713   2.645  17.548
 5518SOL    HW128433   4.626   2.617  17.578
 5518SOL    HW228434   4.753   2.566  17.512
 5519SOL     OW28435   4.419   4.694  14.279
 5519SOL    HW128436   4.371   4.612  14.289
 5519SOL    HW228437   4.481   4.678  14.208
 5520SOL     OW28438   3.782   4.159   0.968
 5520SOL    HW128439   3.846   4.221   1.003
 5520SOL    HW228440   3.812   4.141   0.879
 5521SOL     OW28441   3.910   2.551   2.629
 5521SOL    HW128442   3.981   2.606   2.662
 5521SOL    HW228443   3.872   2.512   2.707
 5522SOL     OW28444   0.209   2.403   3.370
 5522SOL    HW128445   0.218   2.390   3.276
 5522SOL    HW228446   0.142   2.471   3.378
 5523SOL     OW28447   2.796   1.880   2.346
 5523SOL    HW128448   2.881   1.924   2.355
 5523SOL    HW228449   2.781   1.875   2.252
 5524SOL     OW28450   2.313   1.293  17.916
 5524SOL    HW128451   2.380   1.296  17.984
 5524SOL    HW228452   2.360   1.270  17.836
 5525SOL     OW28453   3.284   0.060   7.472
 5525SOL    HW128454   3.244   4.771   7.434
 5525SOL    HW228455   3.245   0.133   7.423
 5526SOL     OW28456   3.716   2.941  17.826
 5526SOL    HW128457   3.788   2.932  17.764
 5526SOL    HW228458   3.742   2.888  17.901
 5527SOL     OW28459   3.229   1.008  21.028
 5527SOL    HW128460   3.237   0.996  20.933
 5527SOL    HW228461   3.319   1.013  21.059
 5528SOL     OW28462   3.463   1.878  21.056
 5528SOL    HW128463   3.556   1.899  21.048
 5528SOL    HW228464   3.422   1.962  21.076
 5529SOL     OW28465   0.245   1.400   5.238
 5529SOL    HW128466   0.171   1.419   5.181
 5529SOL    HW228467   0.239   1.465   5.308
 5530SOL     OW28468   0.430   0.442   2.546
 5530SOL    HW128469   0.441   0.464   2.453
 5530SOL    HW228470   0.385   0.518   2.583
 5531SOL     OW28471   2.992   1.652   1.609
 5531SOL    HW128472   2.897   1.639   1.605
 5531SOL    HW228473   3.016   1.625   1.698
 5532SOL     OW28474   2.588   0.965  17.114
 5532SOL    HW128475   2.566   1.004  17.030
 5532SOL    HW228476   2.660   1.019  17.148
 5533SOL     OW28477   3.750   2.732   3.211
 5533SOL    HW128478   3.684   2.702   3.273
 5533SOL    HW228479   3.808   2.789   3.262
 5534SOL     OW28480   1.276   0.706  13.029
 5534SOL    HW128481   1.271   0.613  13.051
 5534SOL    HW228482   1.317   0.708  12.942
 5535SOL     OW28483   4.185   1.156   4.714
 5535SOL    HW128484   4.160   1.142   4.623
 5535SOL    HW228485   4.272   1.116   4.722
 5536SOL     OW28486   1.965   4.311  12.439
 5536SOL    HW128487   1.885   4.317  12.388
 5536SOL    HW228488   2.032   4.351  12.384
 5537SOL     OW28489   4.055   4.187  16.615
 5537SOL    HW128490   4.129   4.148  16.662
 5537SOL    HW228491   3.984   4.187  16.679
 5538SOL     OW28492   1.008   1.581   0.198
 5538SOL    HW128493   1.021   1.604   0.106
 5538SOL    HW228494   0.952   1.651   0.233
 5539SOL     OW28495   3.586   0.673  15.316
 5539SOL    HW128496   3.525   0.621  15.264
 5539SOL    HW228497   3.673   0.651  15.281
 5540SOL     OW28498   0.924   2.756  14.828
 5540SOL    HW128499   0.886   2.727  14.911
 5540SOL    HW228500   0.854   2.806  14.785
 5541SOL     OW28501   4.155   2.836   3.391
 5541SOL    HW128502   4.171   2.899   3.320
 5541SOL    HW228503   4.061   2.839   3.406
 5542SOL     OW28504   3.004   1.290   3.106
 5542SOL    HW128505   3.042   1.376   3.125
 5542SOL    HW228506   3.037   1.234   3.176
 5543SOL     OW28507   2.683   4.215  16.481
 5543SOL    HW128508   2.697   4.308  16.501
 5543SOL    HW228509   2.770   4.182  16.459
 5544SOL     OW28510   0.639   1.045   0.747
 5544SOL    HW128511   0.601   0.957   0.745
 5544SOL    HW228512   0.599   1.089   0.672
 5545SOL     OW28513   4.554   2.020  16.364
 5545SOL    HW128514   4.523   2.090  16.421
 5545SOL    HW228515   4.515   2.038  16.279
 5546SOL     OW28516   1.770   2.689  15.210
 5546SOL    HW128517   1.809   2.713  15.294
 5546SOL    HW228518   1.694   2.636  15.233
 5547SOL     OW28519   2.759   1.933   8.341
 5547SOL    HW128520   2.769   2.026   8.361
 5547SOL    HW228521   2.842   1.894   8.367
 5548SOL     OW28522   0.014   2.585   3.427
 5548SOL    HW128523   4.759   2.590   3.511
 5548SOL    HW228524   4.785   2.669   3.385
 5549SOL     OW28525   0.316   1.061  20.512
 5549SOL    HW128526   0.243   0.999  20.509
 5549SOL    HW228527   0.378   1.022  20.574
 5550SOL     OW28528   3.368   4.113  20.383
 5550SOL    HW128529   3.280   4.141  20.359
 5550SOL    HW228530   3.409   4.087  20.300
 5551SOL     OW28531   3.073   3.908   4.803
 5551SOL    HW128532   3.028   3.911   4.888
 5551SOL    HW228533   3.009   3.871   4.743
 5552SOL     OW28534   0.006   1.635   6.111
 5552SOL    HW128535   4.770   1.725   6.129
 5552SOL    HW228536   0.008   1.593   6.197
 5553SOL     OW28537   0.206   0.382  16.971
 5553SOL    HW128538   0.118   0.420  16.980
 5553SOL    HW228539   0.244   0.389  17.059
 5554SOL     OW28540   3.505   4.187   0.137
 5554SOL    HW128541   3.524   4.114   0.078
 5554SOL    HW228542   3.451   4.148   0.206
 5555SOL     OW28543   0.381   4.324   4.171
 5555SOL    HW128544   0.353   4.399   4.223
 5555SOL    HW228545   0.300   4.277   4.151
 5556SOL     OW28546   2.761   1.747  20.029
 5556SOL    HW128547   2.837   1.691  20.045
 5556SOL    HW228548   2.779   1.788  19.945
 5557SOL     OW28549   3.679   2.275  19.032
 5557SOL    HW128550   3.586   2.261  19.052
 5557SOL    HW228551   3.694   2.367  19.053
 5558SOL     OW28552   1.772   3.475  17.455
 5558SOL    HW128553   1.700   3.519  17.409
 5558SOL    HW228554   1.847   3.485  17.397
 5559SOL     OW28555   4.557   0.912  17.394
 5559SOL    HW128556   4.488   0.976  17.412
 5559SOL    HW228557   4.548   0.848  17.465
 5560SOL     OW28558   4.485   4.534   4.641
 5560SOL    HW128559   4.435   4.610   4.670
 5560SOL    HW228560   4.468   4.528   4.547
 5561SOL     OW28561   0.347   3.699   5.199
 5561SOL    HW128562   0.387   3.693   5.112
 5561SOL    HW228563   0.407   3.650   5.256
 5562SOL     OW28564   2.832   2.855   5.895
 5562SOL    HW128565   2.797   2.776   5.935
 5562SOL    HW228566   2.912   2.874   5.945
 5563SOL     OW28567   1.272   3.491   2.679
 5563SOL    HW128568   1.367   3.480   2.688
 5563SOL    HW228569   1.261   3.542   2.598
 5564SOL     OW28570   2.465   3.645  17.787
 5564SOL    HW128571   2.471   3.690  17.871
 5564SOL    HW228572   2.555   3.645  17.754
 5565SOL     OW28573   0.357   0.726   2.604
 5565SOL    HW128574   0.389   0.755   2.519
 5565SOL    HW228575   0.360   0.804   2.659
 5566SOL     OW28576   1.017   0.940  17.751
 5566SOL    HW128577   0.992   0.886  17.826
 5566SOL    HW228578   1.053   1.020  17.790
 5567SOL     OW28579   3.040   3.886  18.459
 5567SOL    HW128580   3.128   3.848  18.465
 5567SOL    HW228581   2.986   3.830  18.514
 5568SOL     OW28582   4.624   4.639   4.363
 5568SOL    HW128583   4.610   4.586   4.285
 5568SOL    HW228584   4.558   4.708   4.358
 5569SOL     OW28585   2.789   0.861   5.402
 5569SOL    HW128586   2.868   0.810   5.420
 5569SOL    HW228587   2.778   0.916   5.480
 5570SOL     OW28588   0.056   3.643   4.104
 5570SOL    HW128589   0.100   3.715   4.059
 5570SOL    HW228590   0.127   3.591   4.142
 5571SOL     OW28591   3.760   0.190   1.102
 5571SOL    HW128592   3.751   0.230   1.015
 5571SOL    HW228593   3.837   0.232   1.140
 5572SOL     OW28594   2.548   3.489  19.802
 5572SOL    HW128595   2.477   3.553  19.794
 5572SOL    HW228596   2.555   3.450  19.715
 5573SOL     OW28597   3.142   2.135   7.313
 5573SOL    HW128598   3.101   2.102   7.233
 5573SOL    HW228599   3.236   2.120   7.300
 5574SOL     OW28600   2.228   0.374   3.182
 5574SOL    HW128601   2.206   0.466   3.198
 5574SOL    HW228602   2.215   0.331   3.266
 5575SOL     OW28603   4.261   3.452  19.802
 5575SOL    HW128604   4.273   3.539  19.763
 5575SOL    HW228605   4.350   3.422  19.820
 5576SOL     OW28606   0.087   1.774  19.334
 5576SOL    HW128607   0.155   1.712  19.308
 5576SOL    HW228608   0.072   1.755  19.427
 5577SOL     OW28609   1.721   0.700   4.230
 5577SOL    HW128610   1.695   0.786   4.262
 5577SOL    HW228611   1.645   0.644   4.245
 5578SOL     OW28612   4.378   1.976  20.126
 5578SOL    HW128613   4.398   2.062  20.162
 5578SOL    HW228614   4.364   1.921  20.203
 5579SOL     OW28615   3.149   0.855  17.092
 5579SOL    HW128616   3.131   0.859  17.186
 5579SOL    HW228617   3.166   0.946  17.067
 5580SOL     OW28618   3.100   2.187   4.346
 5580SOL    HW128619   3.148   2.111   4.313
 5580SOL    HW228620   3.162   2.259   4.338
 5581SOL     OW28621   0.156   0.333  17.671
 5581SOL    HW128622   0.064   0.322  17.646
 5581SOL    HW228623   0.187   0.244  17.689
 5582SOL     OW28624   1.489   1.360  12.877
 5582SOL    HW128625   1.518   1.339  12.966
 5582SOL    HW228626   1.394   1.370  12.885
 5583SOL     OW28627   1.575   4.749  13.827
 5583SOL    HW128628   1.599   0.037  13.776
 5583SOL    HW228629   1.486   4.728  13.798
 5584SOL     OW28630   0.717   3.190  19.370
 5584SOL    HW128631   0.623   3.197  19.352
 5584SOL    HW228632   0.723   3.122  19.438
 5585SOL     OW28633   1.600   4.103   5.524
 5585SOL    HW128634   1.630   4.024   5.569
 5585SOL    HW228635   1.506   4.107   5.544
 5586SOL     OW28636   4.638   0.700   2.259
 5586SOL    HW128637   4.577   0.635   2.293
 5586SOL    HW228638   4.663   0.666   2.173
 5587SOL     OW28639   0.182   3.727  19.133
 5587SOL    HW128640   0.144   3.794  19.077
 5587SOL    HW228641   0.261   3.768  19.168
 5588SOL     OW28642   2.404   2.220  16.679
 5588SOL    HW128643   2.344   2.174  16.737
 5588SOL    HW228644   2.460   2.151  16.642
 5589SOL     OW28645   3.204   0.988   1.970
 5589SOL    HW128646   3.286   0.944   1.947
 5589SOL    HW228647   3.136   0.922   1.953
 5590SOL     OW28648   3.099   0.789  18.333
 5590SOL    HW128649   3.195   0.787  18.337
 5590SOL    HW228650   3.075   0.873  18.371
 5591SOL     OW28651   3.695   0.519  17.775
 5591SOL    HW128652   3.696   0.569  17.693
 5591SOL    HW228653   3.685   0.428  17.747
 5592SOL     OW28654   3.236   3.658   2.759
 5592SOL    HW128655   3.147   3.694   2.758
 5592SOL    HW228656   3.292   3.731   2.733
 5593SOL     OW28657   2.660   1.110  18.466
 5593SOL    HW128658   2.733   1.172  18.465
 5593SOL    HW228659   2.699   1.028  18.497
 5594SOL     OW28660   1.259   1.951   5.673
 5594SOL    HW128661   1.189   1.938   5.737
 5594SOL    HW228662   1.218   1.931   5.589
 5595SOL     OW28663   3.537   2.735   4.820
 5595SOL    HW128664   3.621   2.741   4.865
 5595SOL    HW228665   3.481   2.686   4.880
 5596SOL     OW28666   1.002   2.238   6.108
 5596SOL    HW128667   0.968   2.152   6.132
 5596SOL    HW228668   1.030   2.276   6.191
 5597SOL     OW28669   2.304   2.967  15.328
 5597SOL    HW128670   2.348   2.991  15.246
 5597SOL    HW228671   2.339   2.881  15.350
 5598SOL     OW28672   0.891   3.738  20.430
 5598SOL    HW128673   0.925   3.653  20.459
 5598SOL    HW228674   0.805   3.718  20.392
 5599SOL     OW28675   4.340   0.447   4.270
 5599SOL    HW128676   4.413   0.487   4.317
 5599SOL    HW228677   4.379   0.373   4.223
 5600SOL     OW28678   2.920   2.785   1.895
 5600SOL    HW128679   2.911   2.879   1.882
 5600SOL    HW228680   2.887   2.746   1.814
 5601SOL     OW28681   0.058   2.740   5.003
 5601SOL    HW128682   0.113   2.809   5.041
 5601SOL    HW228683   0.036   2.773   4.916
 5602SOL     OW28684   0.738   4.731   0.703
 5602SOL    HW128685   0.785   4.656   0.667
 5602SOL    HW228686   0.757   4.728   0.797
 5603SOL     OW28687   3.337   0.835   4.698
 5603SOL    HW128688   3.293   0.880   4.625
 5603SOL    HW228689   3.428   0.827   4.670
 5604SOL     OW28690   1.429   3.785   5.016
 5604SOL    HW128691   1.466   3.869   5.043
 5604SOL    HW228692   1.491   3.720   5.049
 5605SOL     OW28693   2.654   0.240  17.874
 5605SOL    HW128694   2.638   0.328  17.907
 5605SOL    HW228695   2.656   0.185  17.952
 5606SOL     OW28696   2.007   3.649  16.738
 5606SOL    HW128697   2.065   3.663  16.663
 5606SOL    HW228698   2.010   3.555  16.754
 5607SOL     OW28699   1.152   1.332   5.123
 5607SOL    HW128700   1.204   1.313   5.201
 5607SOL    HW228701   1.106   1.250   5.105
 5608SOL     OW28702   4.478   0.363   6.310
 5608SOL    HW128703   4.441   0.322   6.232
 5608SOL    HW228704   4.404   0.409   6.350
 5609SOL     OW28705   3.088   4.303  13.931
 5609SOL    HW128706   3.057   4.357  14.004
 5609SOL    HW228707   3.054   4.216  13.950
 5610SOL     OW28708   0.982   1.906   4.309
 5610SOL    HW128709   0.965   1.993   4.346
 5610SOL    HW228710   0.928   1.847   4.361
 5611SOL     OW28711   3.085   0.459   5.280
 5611SOL    HW128712   3.078   0.430   5.189
 5611SOL    HW228713   3.155   0.405   5.318
 5612SOL     OW28714   2.195   1.907   0.939
 5612SOL    HW128715   2.110   1.892   0.981
 5612SOL    HW228716   2.253   1.842   0.978
 5613SOL     OW28717   1.536   2.583   4.084
 5613SOL    HW128718   1.503   2.669   4.109
 5613SOL    HW228719   1.458   2.528   4.079
 5614SOL     OW28720   4.056   3.160  19.282
 5614SOL    HW128721   4.080   3.130  19.194
 5614SOL    HW228722   4.125   3.221  19.307
 5615SOL     OW28723   4.303   2.826  15.388
 5615SOL    HW128724   4.236   2.846  15.453
 5615SOL    HW228725   4.340   2.742  15.417
 5616SOL     OW28726   4.040   4.355   0.412
 5616SOL    HW128727   4.063   4.389   0.498
 5616SOL    HW228728   3.954   4.314   0.424
 5617SOL     OW28729   1.773   4.302   1.904
 5617SOL    HW128730   1.719   4.320   1.827
 5617SOL    HW228731   1.859   4.338   1.883
 5618SOL     OW28732   2.053   0.013  17.660
 5618SOL    HW128733   2.106   4.741  17.711
 5618SOL    HW228734   2.008   4.748  17.596
 5619SOL     OW28735   1.031   3.488  20.206
 5619SOL    HW128736   1.061   3.550  20.272
 5619SOL    HW228737   0.997   3.543  20.135
 5620SOL     OW28738   0.931   4.052   6.275
 5620SOL    HW128739   0.908   4.088   6.189
 5620SOL    HW228740   0.912   4.123   6.336
 5621SOL     OW28741   0.069   2.992   6.847
 5621SOL    HW128742   4.789   2.928   6.836
 5621SOL    HW228743   0.034   3.055   6.911
 5622SOL     OW28744   0.571   2.195  15.657
 5622SOL    HW128745   0.524   2.143  15.722
 5622SOL    HW228746   0.505   2.216  15.591
 5623SOL     OW28747   2.245   1.733   1.149
 5623SOL    HW128748   2.279   1.798   1.210
 5623SOL    HW228749   2.302   1.657   1.160
 5624SOL     OW28750   0.535   2.692   0.781
 5624SOL    HW128751   0.588   2.761   0.741
 5624SOL    HW228752   0.508   2.728   0.866
 5625SOL     OW28753   1.425   2.932  20.681
 5625SOL    HW128754   1.484   2.859  20.698
 5625SOL    HW228755   1.351   2.893  20.635
 5626SOL     OW28756   1.817   1.152  15.455
 5626SOL    HW128757   1.860   1.237  15.459
 5626SOL    HW228758   1.766   1.147  15.536
 5627SOL     OW28759   1.717   2.575  17.209
 5627SOL    HW128760   1.699   2.635  17.137
 5627SOL    HW228761   1.812   2.565  17.208
 5628SOL     OW28762   3.471   4.118  15.346
 5628SOL    HW128763   3.433   4.206  15.346
 5628SOL    HW228764   3.433   4.075  15.423
 5629SOL     OW28765   2.131   3.530   3.554
 5629SOL    HW128766   2.080   3.562   3.629
 5629SOL    HW228767   2.216   3.574   3.563
 5630SOL     OW28768   2.955   2.540   0.493
 5630SOL    HW128769   3.006   2.603   0.544
 5630SOL    HW228770   2.891   2.505   0.555
 5631SOL     OW28771   0.024   3.789   2.798
 5631SOL    HW128772   0.100   3.767   2.744
 5631SOL    HW228773   0.005   3.708   2.846
 5632SOL     OW28774   4.487   2.958   4.230
 5632SOL    HW128775   4.579   2.946   4.207
 5632SOL    HW228776   4.441   2.889   4.182
 5633SOL     OW28777   2.919   2.882  17.213
 5633SOL    HW128778   2.869   2.809  17.178
 5633SOL    HW228779   2.934   2.939  17.138
 5634SOL     OW28780   0.316   1.724  18.068
 5634SOL    HW128781   0.327   1.699  17.976
 5634SOL    HW228782   0.221   1.724  18.081
 5635SOL     OW28783   1.384   1.478   4.351
 5635SOL    HW128784   1.371   1.463   4.445
 5635SOL    HW228785   1.476   1.455   4.336
 5636SOL     OW28786   0.105   4.110  15.270
 5636SOL    HW128787   0.050   4.170  15.321
 5636SOL    HW228788   0.074   4.120  15.180
 5637SOL     OW28789   2.767   1.311   2.079
 5637SOL    HW128790   2.851   1.357   2.079
 5637SOL    HW228791   2.702   1.381   2.069
 5638SOL     OW28792   1.028   3.904   4.219
 5638SOL    HW128793   1.065   3.818   4.238
 5638SOL    HW228794   0.943   3.886   4.179
 5639SOL     OW28795   4.361   1.981  18.745
 5639SOL    HW128796   4.331   2.015  18.661
 5639SOL    HW228797   4.432   1.921  18.723
 5640SOL     OW28798   2.678   2.926  16.393
 5640SOL    HW128799   2.599   2.965  16.355
 5640SOL    HW228800   2.722   2.884  16.319
 5641SOL     OW28801   3.143   1.945   4.203
 5641SOL    HW128802   3.188   1.960   4.120
 5641SOL    HW228803   3.141   1.850   4.212
 5642SOL     OW28804   3.821   2.484   6.303
 5642SOL    HW128805   3.743   2.468   6.356
 5642SOL    HW228806   3.801   2.563   6.253
 5643SOL     OW28807   4.761   0.096  15.639
 5643SOL    HW128808   4.790   0.054  15.720
 5643SOL    HW228809   4.689   0.042  15.608
 5644SOL     OW28810   1.645   1.414  20.098
 5644SOL    HW128811   1.638   1.493  20.044
 5644SOL    HW228812   1.630   1.445  20.187
 5645SOL     OW28813   3.030   4.583   5.605
 5645SOL    HW128814   3.116   4.622   5.619
 5645SOL    HW228815   3.031   4.502   5.656
 5646SOL     OW28816   1.910   2.743  18.432
 5646SOL    HW128817   1.834   2.777  18.384
 5646SOL    HW228818   1.907   2.789  18.516
 5647SOL     OW28819   1.629   3.996  14.268
 5647SOL    HW128820   1.565   4.067  14.270
 5647SOL    HW228821   1.647   3.978  14.360
 5648SOL     OW28822   1.956   3.418   1.773
 5648SOL    HW128823   1.954   3.327   1.744
 5648SOL    HW228824   2.046   3.447   1.758
 5649SOL     OW28825   2.162   2.137   1.843
 5649SOL    HW128826   2.124   2.131   1.931
 5649SOL    HW228827   2.207   2.221   1.841
 5650SOL     OW28828   3.640   1.029   2.482
 5650SOL    HW128829   3.670   1.067   2.399
 5650SOL    HW228830   3.721   1.004   2.527
 5651SOL     OW28831   4.107   2.674   6.495
 5651SOL    HW128832   4.036   2.687   6.557
 5651SOL    HW228833   4.089   2.736   6.424
 5652SOL     OW28834   3.698   1.904   3.446
 5652SOL    HW128835   3.698   1.987   3.493
 5652SOL    HW228836   3.643   1.846   3.499
 5653SOL     OW28837   3.352   0.212  19.272
 5653SOL    HW128838   3.259   0.224  19.291
 5653SOL    HW228839   3.394   0.290  19.309
 5654SOL     OW28840   3.783   2.066   9.164
 5654SOL    HW128841   3.800   2.067   9.070
 5654SOL    HW228842   3.832   1.991   9.196
 5655SOL     OW28843   4.616   0.268  21.060
 5655SOL    HW128844   4.710   0.257  21.073
 5655SOL    HW228845   4.599   0.358  21.088
 5656SOL     OW28846   3.298   3.837   6.567
 5656SOL    HW128847   3.304   3.846   6.662
 5656SOL    HW228848   3.370   3.890   6.533
 5657SOL     OW28849   3.825   2.382  12.427
 5657SOL    HW128850   3.860   2.404  12.341
 5657SOL    HW228851   3.860   2.450  12.485
 5658SOL     OW28852   1.610   3.353  16.213
 5658SOL    HW128853   1.588   3.446  16.206
 5658SOL    HW228854   1.562   3.323  16.290
 5659SOL     OW28855   2.779   0.826   2.178
 5659SOL    HW128856   2.812   0.914   2.160
 5659SOL    HW228857   2.773   0.822   2.273
 5660SOL     OW28858   3.179   1.415  19.593
 5660SOL    HW128859   3.257   1.361  19.608
 5660SOL    HW228860   3.134   1.416  19.678
 5661SOL     OW28861   4.683   4.622  15.190
 5661SOL    HW128862   4.598   4.653  15.220
 5661SOL    HW228863   4.669   4.530  15.169
 5662SOL     OW28864   0.450   1.995   4.627
 5662SOL    HW128865   0.376   1.964   4.678
 5662SOL    HW228866   0.467   2.083   4.660
 5663SOL     OW28867   1.412   2.858   3.867
 5663SOL    HW128868   1.339   2.906   3.906
 5663SOL    HW228869   1.381   2.834   3.780
 5664SOL     OW28870   3.320   3.700  17.918
 5664SOL    HW128871   3.344   3.742  17.835
 5664SOL    HW228872   3.395   3.717  17.976
 5665SOL     OW28873   1.732   4.136   1.649
 5665SOL    HW128874   1.739   4.100   1.560
 5665SOL    HW228875   1.814   4.111   1.691
 5666SOL     OW28876   4.773   0.313  16.166
 5666SOL    HW128877   4.774   0.402  16.130
 5666SOL    HW228878   0.063   0.273  16.132
 5667SOL     OW28879   3.730   1.982  21.045
 5667SOL    HW128880   3.773   1.901  21.071
 5667SOL    HW228881   3.791   2.023  20.984
 5668SOL     OW28882   1.427   2.152   0.460
 5668SOL    HW128883   1.507   2.193   0.493
 5668SOL    HW228884   1.356   2.202   0.501
 5669SOL     OW28885   4.465   3.826  20.075
 5669SOL    HW128886   4.421   3.910  20.063
 5669SOL    HW228887   4.531   3.823  20.006
 5670SOL     OW28888   3.542   3.102  18.100
 5670SOL    HW128889   3.504   3.020  18.069
 5670SOL    HW228890   3.599   3.077  18.173
 5671SOL     OW28891   4.750   1.916   0.453
 5671SOL    HW128892   4.721   2.005   0.472
 5671SOL    HW228893   0.032   1.900   0.514
 5672SOL     OW28894   3.826   1.110   2.905
 5672SOL    HW128895   3.793   1.182   2.852
 5672SOL    HW228896   3.850   1.042   2.842
 5673SOL     OW28897   0.632   1.889  20.000
 5673SOL    HW128898   0.632   1.794  19.985
 5673SOL    HW228899   0.552   1.920  19.958
 5674SOL     OW28900   3.114   2.438  19.062
 5674SOL    HW128901   3.041   2.438  19.000
 5674SOL    HW228902   3.102   2.359  19.114
 5675SOL     OW28903   3.773   2.676  17.955
 5675SOL    HW128904   3.678   2.668  17.948
 5675SOL    HW228905   3.807   2.627  17.880
 5676SOL     OW28906   1.575   0.051   3.168
 5676SOL    HW128907   1.573   0.077   3.076
 5676SOL    HW228908   1.501   4.780   3.178
 5677SOL     OW28909   2.878   1.161  17.358
 5677SOL    HW128910   2.949   1.221  17.379
 5677SOL    HW228911   2.840   1.196  17.277
 5678SOL     OW28912   4.698   4.208  19.889
 5678SOL    HW128913   4.657   4.172  19.810
 5678SOL    HW228914   0.001   4.185  19.881
 5679SOL     OW28915   0.279   0.076  18.402
 5679SOL    HW128916   0.225   0.049  18.476
 5679SOL    HW228917   0.253   0.166  18.384
 5680SOL     OW28918   4.029   0.440  19.019
 5680SOL    HW128919   4.046   0.481  18.934
 5680SOL    HW228920   3.945   0.477  19.048
 5681SOL     OW28921   2.646   0.871  21.008
 5681SOL    HW128922   2.736   0.901  20.994
 5681SOL    HW228923   2.633   0.802  20.943
 5682SOL     OW28924   4.191   1.524   5.874
 5682SOL    HW128925   4.137   1.453   5.908
 5682SOL    HW228926   4.272   1.519   5.926
 5683SOL     OW28927   4.001   0.539   1.178
 5683SOL    HW128928   3.931   0.474   1.183
 5683SOL    HW228929   3.986   0.596   1.254
 5684SOL     OW28930   4.352   0.482  16.869
 5684SOL    HW128931   4.402   0.401  16.863
 5684SOL    HW228932   4.418   0.550  16.882
 5685SOL     OW28933   0.842   0.746   5.398
 5685SOL    HW128934   0.902   0.716   5.466
 5685SOL    HW228935   0.772   0.681   5.397
 5686SOL     OW28936   3.030   0.405   3.353
 5686SOL    HW128937   3.110   0.361   3.323
 5686SOL    HW228938   2.959   0.348   3.325
 5687SOL     OW28939   1.652   0.852  16.781
 5687SOL    HW128940   1.738   0.886  16.806
 5687SOL    HW228941   1.635   0.781  16.843
 5688SOL     OW28942   0.447   1.152   0.262
 5688SOL    HW128943   0.448   1.192   0.175
 5688SOL    HW228944   0.532   1.109   0.269
 5689SOL     OW28945   1.400   4.067  16.889
 5689SOL    HW128946   1.494   4.069  16.870
 5689SOL    HW228947   1.371   3.980  16.861
 5690SOL     OW28948   4.673   0.461  12.996
 5690SOL    HW128949   4.738   0.479  12.928
 5690SOL    HW228950   4.597   0.429  12.948
 5691SOL     OW28951   3.316   3.225   5.783
 5691SOL    HW128952   3.229   3.194   5.807
 5691SOL    HW228953   3.315   3.228   5.687
 5692SOL     OW28954   2.435   4.624   5.448
 5692SOL    HW128955   2.529   4.628   5.432
 5692SOL    HW228956   2.426   4.647   5.541
 5693SOL     OW28957   3.293   4.227  16.485
 5693SOL    HW128958   3.251   4.301  16.529
 5693SOL    HW228959   3.370   4.208  16.539
 5694SOL     OW28960   1.866   2.770  20.744
 5694SOL    HW128961   1.949   2.735  20.777
 5694SOL    HW228962   1.874   2.764  20.649
 5695SOL     OW28963   2.775   3.004   1.682
 5695SOL    HW128964   2.813   3.021   1.768
 5695SOL    HW228965   2.848   2.969   1.631
 5696SOL     OW28966   2.313   0.637  19.220
 5696SOL    HW128967   2.269   0.674  19.144
 5696SOL    HW228968   2.270   0.552  19.234
 5697SOL     OW28969   1.660   0.805  15.398
 5697SOL    HW128970   1.748   0.785  15.431
 5697SOL    HW228971   1.673   0.876  15.336
 5698SOL     OW28972   0.602   4.254  20.018
 5698SOL    HW128973   0.568   4.204  19.944
 5698SOL    HW228974   0.591   4.345  19.992
 5699SOL     OW28975   1.348   2.828  18.141
 5699SOL    HW128976   1.377   2.918  18.158
 5699SOL    HW228977   1.402   2.798  18.068
 5700SOL     OW28978   3.608   1.510   2.622
 5700SOL    HW128979   3.602   1.416   2.605
 5700SOL    HW228980   3.519   1.542   2.610
 5701SOL     OW28981   1.391   1.874   1.695
 5701SOL    HW128982   1.466   1.915   1.652
 5701SOL    HW228983   1.404   1.893   1.788
 5702SOL     OW28984   0.652   3.792   5.317
 5702SOL    HW128985   0.605   3.836   5.388
 5702SOL    HW228986   0.634   3.699   5.330
 5703SOL     OW28987   2.350   0.401  20.921
 5703SOL    HW128988   2.305   0.472  20.966
 5703SOL    HW228989   2.433   0.440  20.892
 5704SOL     OW28990   2.356   0.349   4.551
 5704SOL    HW128991   2.297   0.325   4.622
 5704SOL    HW228992   2.299   0.382   4.482
 5705SOL     OW28993   1.094   3.090  17.406
 5705SOL    HW128994   1.133   3.097  17.493
 5705SOL    HW228995   1.155   3.036  17.357
 5706SOL     OW28996   0.508   3.098  16.790
 5706SOL    HW128997   0.508   3.111  16.695
 5706SOL    HW228998   0.569   3.164  16.823
 5707SOL     OW28999   3.465   4.480   0.519
 5707SOL    HW129000   3.411   4.539   0.465
 5707SOL    HW229001   3.508   4.538   0.582
 5708SOL     OW29002   2.254   1.683  13.875
 5708SOL    HW129003   2.184   1.740  13.907
 5708SOL    HW229004   2.290   1.729  13.800
 5709SOL     OW29005   4.597   2.334  17.844
 5709SOL    HW129006   4.683   2.320  17.884
 5709SOL    HW229007   4.539   2.353  17.918
 5710SOL     OW29008   1.753   0.066  16.096
 5710SOL    HW129009   1.668   0.048  16.057
 5710SOL    HW229010   1.809   4.784  16.067
 5711SOL     OW29011   0.223   3.536  19.869
 5711SOL    HW129012   0.227   3.457  19.815
 5711SOL    HW229013   0.230   3.504  19.959
 5712SOL     OW29014   1.190   1.842  17.270
 5712SOL    HW129015   1.206   1.757  17.228
 5712SOL    HW229016   1.108   1.872  17.232
 5713SOL     OW29017   2.028   3.162  20.524
 5713SOL    HW129018   2.017   3.239  20.580
 5713SOL    HW229019   1.966   3.098  20.558
 5714SOL     OW29020   1.144   1.108   0.335
 5714SOL    HW129021   1.106   1.138   0.253
 5714SOL    HW229022   1.160   1.188   0.385
 5715SOL     OW29023   2.478   2.286  15.585
 5715SOL    HW129024   2.429   2.204  15.590
 5715SOL    HW229025   2.567   2.260  15.560
 5716SOL     OW29026   3.081   3.761   5.117
 5716SOL    HW129027   3.016   3.831   5.123
 5716SOL    HW229028   3.049   3.694   5.178
 5717SOL     OW29029   3.156   2.026  14.319
 5717SOL    HW129030   3.216   2.100  14.331
 5717SOL    HW229031   3.177   1.967  14.392
 5718SOL     OW29032   3.121   2.155  20.317
 5718SOL    HW129033   3.086   2.078  20.271
 5718SOL    HW229034   3.103   2.138  20.409
 5719SOL     OW29035   0.737   2.605   0.964
 5719SOL    HW129036   0.682   2.629   0.890
 5719SOL    HW229037   0.716   2.513   0.981
 5720SOL     OW29038   4.371   2.197  19.367
 5720SOL    HW129039   4.404   2.286  19.381
 5720SOL    HW229040   4.382   2.182  19.273
 5721SOL     OW29041   4.326   4.618   3.419
 5721SOL    HW129042   4.341   4.626   3.513
 5721SOL    HW229043   4.406   4.576   3.386
 5722SOL     OW29044   2.413   2.662  15.640
 5722SOL    HW129045   2.470   2.739  15.633
 5722SOL    HW229046   2.347   2.687  15.705
 5723SOL     OW29047   0.685   4.738  20.678
 5723SOL    HW129048   0.667   0.042  20.688
 5723SOL    HW229049   0.687   4.704  20.767
 5724SOL     OW29050   1.227   1.388  18.161
 5724SOL    HW129051   1.223   1.375  18.066
 5724SOL    HW229052   1.321   1.390  18.181
 5725SOL     OW29053   2.622   0.028   1.224
 5725SOL    HW129054   2.622   0.122   1.205
 5725SOL    HW229055   2.713   0.001   1.213
 5726SOL     OW29056   2.344   4.352  12.267
 5726SOL    HW129057   2.283   4.313  12.205
 5726SOL    HW229058   2.292   4.417  12.314
 5727SOL     OW29059   2.792   4.509   0.190
 5727SOL    HW129060   2.822   4.418   0.191
 5727SOL    HW229061   2.861   4.558   0.236
 5728SOL     OW29062   4.006   0.718   5.569
 5728SOL    HW129063   3.964   0.747   5.650
 5728SOL    HW229064   4.008   0.623   5.575
 5729SOL     OW29065   1.974   0.899  15.414
 5729SOL    HW129066   2.038   0.872  15.479
 5729SOL    HW229067   1.978   0.995  15.414
 5730SOL     OW29068   4.225   3.696  20.067
 5730SOL    HW129069   4.317   3.702  20.040
 5730SOL    HW229070   4.229   3.679  20.161
 5731SOL     OW29071   3.446   1.320  15.416
 5731SOL    HW129072   3.405   1.406  15.409
 5731SOL    HW229073   3.381   1.266  15.460
 5732SOL     OW29074   0.233   0.881   1.103
 5732SOL    HW129075   0.151   0.922   1.076
 5732SOL    HW229076   0.256   0.926   1.185
 5733SOL     OW29077   2.935   3.256  18.897
 5733SOL    HW129078   2.842   3.234  18.890
 5733SOL    HW229079   2.977   3.211  18.824
 5734SOL     OW29080   4.511   3.866   2.313
 5734SOL    HW129081   4.504   3.900   2.224
 5734SOL    HW229082   4.423   3.834   2.334
 5735SOL     OW29083   2.921   0.804   4.676
 5735SOL    HW129084   2.996   0.793   4.735
 5735SOL    HW229085   2.844   0.799   4.733
 5736SOL     OW29086   3.024   2.179   2.487
 5736SOL    HW129087   3.066   2.100   2.452
 5736SOL    HW229088   2.980   2.149   2.566
 5737SOL     OW29089   2.137   1.531  16.922
 5737SOL    HW129090   2.063   1.481  16.956
 5737SOL    HW229091   2.137   1.612  16.972
 5738SOL     OW29092   0.546   1.523  17.098
 5738SOL    HW129093   0.484   1.454  17.122
 5738SOL    HW229094   0.565   1.568  17.180
 5739SOL     OW29095   4.742   2.876   5.338
 5739SOL    HW129096   4.698   2.880   5.253
 5739SOL    HW229097   0.029   2.820   5.322
 5740SOL     OW29098   0.578   4.122  18.553
 5740SOL    HW129099   0.669   4.093  18.551
 5740SOL    HW229100   0.558   4.135  18.646
 5741SOL     OW29101   2.526   2.629  19.408
 5741SOL    HW129102   2.445   2.632  19.459
 5741SOL    HW229103   2.499   2.603  19.320
 5742SOL     OW29104   0.187   1.079   0.869
 5742SOL    HW129105   0.214   1.137   0.798
 5742SOL    HW229106   0.269   1.043   0.903
 5743SOL     OW29107   3.732   3.734   5.891
 5743SOL    HW129108   3.670   3.727   5.964
 5743SOL    HW229109   3.745   3.643   5.863
 5744SOL     OW29110   1.865   1.357  15.154
 5744SOL    HW129111   1.927   1.285  15.164
 5744SOL    HW229112   1.785   1.327  15.198
 5745SOL     OW29113   2.037   1.005   2.577
 5745SOL    HW129114   1.990   1.050   2.507
 5745SOL    HW229115   2.006   0.914   2.571
 5746SOL     OW29116   1.078   4.691   3.637
 5746SOL    HW129117   1.046   4.780   3.622
 5746SOL    HW229118   1.117   4.666   3.553
 5747SOL     OW29119   2.165   4.669   6.977
 5747SOL    HW129120   2.134   4.724   6.906
 5747SOL    HW229121   2.205   4.730   7.039
 5748SOL     OW29122   3.042   0.257   4.387
 5748SOL    HW129123   2.994   0.178   4.411
 5748SOL    HW229124   3.133   0.238   4.410
 5749SOL     OW29125   2.904   0.493  20.306
 5749SOL    HW129126   2.901   0.553  20.381
 5749SOL    HW229127   2.887   0.407  20.344
 5750SOL     OW29128   2.009   0.661  20.488
 5750SOL    HW129129   1.932   0.604  20.493
 5750SOL    HW229130   1.977   0.742  20.450
 5751SOL     OW29131   3.340   0.498   7.093
 5751SOL    HW129132   3.300   0.500   7.006
 5751SOL    HW229133   3.290   0.562   7.144
 5752SOL     OW29134   2.903   4.481  20.568
 5752SOL    HW129135   2.822   4.450  20.528
 5752SOL    HW229136   2.964   4.408  20.559
 5753SOL     OW29137   0.183   3.450   2.857
 5753SOL    HW129138   0.239   3.494   2.922
 5753SOL    HW229139   0.094   3.467   2.887
 5754SOL     OW29140   2.485   2.889  18.197
 5754SOL    HW129141   2.506   2.974  18.158
 5754SOL    HW229142   2.413   2.908  18.257
 5755SOL     OW29143   4.627   1.971  20.380
 5755SOL    HW129144   4.613   2.065  20.389
 5755SOL    HW229145   4.670   1.961  20.295
 5756SOL     OW29146   2.273   2.698  17.043
 5756SOL    HW129147   2.247   2.608  17.024
 5756SOL    HW229148   2.295   2.698  17.136
 5757SOL     OW29149   4.670   1.126  15.395
 5757SOL    HW129150   4.643   1.035  15.381
 5757SOL    HW229151   4.748   1.119  15.450
 5758SOL     OW29152   2.877   0.970  16.303
 5758SOL    HW129153   2.909   0.996  16.217
 5758SOL    HW229154   2.798   0.920  16.285
 5759SOL     OW29155   4.092   4.777  19.251
 5759SOL    HW129156   4.055   4.786  19.339
 5759SOL    HW229157   4.141   0.069  19.238
 5760SOL     OW29158   3.352   0.663  20.664
 5760SOL    HW129159   3.347   0.578  20.708
 5760SOL    HW229160   3.394   0.721  20.727
 5761SOL     OW29161   1.533   3.895   6.954
 5761SOL    HW129162   1.596   3.939   7.011
 5761SOL    HW229163   1.566   3.806   6.945
 5762SOL     OW29164   3.711   2.692   2.949
 5762SOL    HW129165   3.729   2.709   3.041
 5762SOL    HW229166   3.623   2.728   2.935
 5763SOL     OW29167   2.156   0.981   0.843
 5763SOL    HW129168   2.229   0.925   0.816
 5763SOL    HW229169   2.078   0.928   0.826
 5764SOL     OW29170   0.620   2.576  15.942
 5764SOL    HW129171   0.675   2.499  15.929
 5764SOL    HW229172   0.588   2.568  16.032
 5765SOL     OW29173   1.451   4.505   0.151
 5765SOL    HW129174   1.393   4.537   0.220
 5765SOL    HW229175   1.455   4.411   0.166
 5766SOL     OW29176   2.057   2.903   5.853
 5766SOL    HW129177   2.064   2.891   5.758
 5766SOL    HW229178   1.990   2.840   5.880
 5767SOL     OW29179   2.952   1.090  16.034
 5767SOL    HW129180   2.966   1.105  15.941
 5767SOL    HW229181   3.025   1.135  16.077
 5768SOL     OW29182   0.353   2.781   1.559
 5768SOL    HW129183   0.266   2.742   1.569
 5768SOL    HW229184   0.393   2.732   1.487
 5769SOL     OW29185   2.586   2.542   3.359
 5769SOL    HW129186   2.588   2.509   3.449
 5769SOL    HW229187   2.525   2.615   3.362
 5770SOL     OW29188   1.651   0.856   2.788
 5770SOL    HW129189   1.734   0.830   2.828
 5770SOL    HW229190   1.626   0.782   2.733
 5771SOL     OW29191   3.744   1.805  13.580
 5771SOL    HW129192   3.734   1.881  13.637
 5771SOL    HW229193   3.837   1.783  13.585
 5772SOL     OW29194   1.409   1.407  19.175
 5772SOL    HW129195   1.397   1.467  19.248
 5772SOL    HW229196   1.396   1.461  19.097
 5773SOL     OW29197   3.109   2.483   2.902
 5773SOL    HW129198   3.119   2.473   2.997
 5773SOL    HW229199   3.030   2.535   2.891
 5774SOL     OW29200   0.777   3.246   4.227
 5774SOL    HW129201   0.796   3.328   4.182
 5774SOL    HW229202   0.783   3.267   4.320
 5775SOL     OW29203   0.187   1.165  20.894
 5775SOL    HW129204   0.219   1.086  20.937
 5775SOL    HW229205   0.095   1.146  20.874
 5776SOL     OW29206   0.029   0.864  18.254
 5776SOL    HW129207   0.046   0.805  18.327
 5776SOL    HW229208   0.080   0.943  18.274
 5777SOL     OW29209   3.093   0.916   3.451
 5777SOL    HW129210   3.084   0.827   3.484
 5777SOL    HW229211   3.003   0.949   3.446
 5778SOL     OW29212   3.425   1.746  19.596
 5778SOL    HW129213   3.477   1.725  19.519
 5778SOL    HW229214   3.446   1.677  19.659
 5779SOL     OW29215   2.244   4.574  19.627
 5779SOL    HW129216   2.277   4.494  19.669
 5779SOL    HW229217   2.247   4.640  19.696
 5780SOL     OW29218   0.424   2.701   3.337
 5780SOL    HW129219   0.512   2.689   3.301
 5780SOL    HW229220   0.403   2.617   3.377
 5781SOL     OW29221   3.169   0.384   1.377
 5781SOL    HW129222   3.235   0.426   1.432
 5781SOL    HW229223   3.209   0.301   1.350
 5782SOL     OW29224   0.902   1.411   1.097
 5782SOL    HW129225   0.979   1.376   1.053
 5782SOL    HW229226   0.936   1.447   1.179
 5783SOL     OW29227   3.024   4.552  20.828
 5783SOL    HW129228   2.989   4.520  20.745
 5783SOL    HW229229   2.976   4.634  20.844
 5784SOL     OW29230   4.101   3.295   7.092
 5784SOL    HW129231   4.020   3.262   7.130
 5784SOL    HW229232   4.132   3.361   7.155
 5785SOL     OW29233   2.829   1.425  17.826
 5785SOL    HW129234   2.805   1.349  17.879
 5785SOL    HW229235   2.796   1.500  17.875
 5786SOL     OW29236   2.665   0.314   2.271
 5786SOL    HW129237   2.726   0.385   2.292
 5786SOL    HW229238   2.672   0.304   2.176
 5787SOL     OW29239   0.651   3.484   0.830
 5787SOL    HW129240   0.573   3.508   0.879
 5787SOL    HW229241   0.657   3.549   0.760
 5788SOL     OW29242   0.554   3.316   2.865
 5788SOL    HW129243   0.476   3.368   2.844
 5788SOL    HW229244   0.615   3.378   2.904
 5789SOL     OW29245   3.248   1.472   5.564
 5789SOL    HW129246   3.177   1.489   5.626
 5789SOL    HW229247   3.204   1.455   5.481
 5790SOL     OW29248   4.197   3.723   1.627
 5790SOL    HW129249   4.278   3.722   1.678
 5790SOL    HW229250   4.210   3.794   1.564
 5791SOL     OW29251   3.530   2.655  14.987
 5791SOL    HW129252   3.534   2.576  14.934
 5791SOL    HW229253   3.441   2.657  15.021
 5792SOL     OW29254   4.448   2.547   1.766
 5792SOL    HW129255   4.371   2.598   1.741
 5792SOL    HW229256   4.462   2.487   1.693
 5793SOL     OW29257   3.930   0.916   7.134
 5793SOL    HW129258   3.899   0.954   7.052
 5793SOL    HW229259   4.025   0.926   7.130
 5794SOL     OW29260   1.398   3.549  19.314
 5794SOL    HW129261   1.467   3.529  19.377
 5794SOL    HW229262   1.332   3.482  19.329
 5795SOL     OW29263   0.533   0.287  17.011
 5795SOL    HW129264   0.497   0.336  17.085
 5795SOL    HW229265   0.544   0.198  17.044
 5796SOL     OW29266   4.388   2.968  16.417
 5796SOL    HW129267   4.306   3.016  16.429
 5796SOL    HW229268   4.450   3.012  16.476
 5797SOL     OW29269   2.550   4.381  16.782
 5797SOL    HW129270   2.513   4.293  16.791
 5797SOL    HW229271   2.587   4.382  16.694
 5798SOL     OW29272   1.343   1.659  16.141
 5798SOL    HW129273   1.333   1.716  16.065
 5798SOL    HW229274   1.353   1.571  16.105
 5799SOL     OW29275   2.334   0.829   3.706
 5799SOL    HW129276   2.383   0.770   3.650
 5799SOL    HW229277   2.389   0.907   3.713
 5800SOL     OW29278   0.583   1.418   4.718
 5800SOL    HW129279   0.661   1.418   4.773
 5800SOL    HW229280   0.604   1.476   4.645
 5801SOL     OW29281   3.164   3.984  12.109
 5801SOL    HW129282   3.169   4.066  12.158
 5801SOL    HW229283   3.255   3.954  12.103
 5802SOL     OW29284   3.898   4.033  16.409
 5802SOL    HW129285   3.951   3.986  16.474
 5802SOL    HW229286   3.852   4.100  16.460
 5803SOL     OW29287   2.780   3.534  15.300
 5803SOL    HW129288   2.799   3.623  15.330
 5803SOL    HW229289   2.866   3.496  15.283
 5804SOL     OW29290   3.776   4.427   6.736
 5804SOL    HW129291   3.785   4.351   6.793
 5804SOL    HW229292   3.687   4.421   6.702
 5805SOL     OW29293   3.443   0.894  19.577
 5805SOL    HW129294   3.508   0.937  19.632
 5805SOL    HW229295   3.459   0.930  19.489
 5806SOL     OW29296   3.886   1.025   5.153
 5806SOL    HW129297   3.900   0.974   5.233
 5806SOL    HW229298   3.887   0.960   5.083
 5807SOL     OW29299   1.926   1.557   1.894
 5807SOL    HW129300   1.878   1.475   1.902
 5807SOL    HW229301   1.858   1.625   1.898
 5808SOL     OW29302   2.422   2.964   6.397
 5808SOL    HW129303   2.494   3.025   6.411
 5808SOL    HW229304   2.414   2.916   6.479
 5809SOL     OW29305   0.047   1.419   0.042
 5809SOL    HW129306   0.084   1.359   0.107
 5809SOL    HW229307   4.744   1.396   0.038
 5810SOL     OW29308   2.848   2.149   2.699
 5810SOL    HW129309   2.772   2.092   2.695
 5810SOL    HW229310   2.863   2.164   2.792
 5811SOL     OW29311   2.344   3.569   6.116
 5811SOL    HW129312   2.366   3.477   6.132
 5811SOL    HW229313   2.296   3.596   6.194
 5812SOL     OW29314   2.331   4.449   3.103
 5812SOL    HW129315   2.298   4.373   3.152
 5812SOL    HW229316   2.401   4.485   3.158
 5813SOL     OW29317   2.225   1.352  18.905
 5813SOL    HW129318   2.175   1.354  18.823
 5813SOL    HW229319   2.162   1.379  18.972
 5814SOL     OW29320   0.230   4.499   0.577
 5814SOL    HW129321   0.220   4.545   0.660
 5814SOL    HW229322   0.176   4.421   0.586
 5815SOL     OW29323   0.321   3.847   3.629
 5815SOL    HW129324   0.406   3.886   3.650
 5815SOL    HW229325   0.290   3.809   3.712
 5816SOL     OW29326   2.531   1.926  19.470
 5816SOL    HW129327   2.608   1.950  19.419
 5816SOL    HW229328   2.490   2.010  19.493
 5817SOL     OW29329   1.763   0.903   3.928
 5817SOL    HW129330   1.763   0.893   4.023
 5817SOL    HW229331   1.694   0.844   3.897
 5818SOL     OW29332   2.366   2.320   1.821
 5818SOL    HW129333   2.329   2.401   1.787
 5818SOL    HW229334   2.419   2.347   1.896
 5819SOL     OW29335   1.629   2.759  16.954
 5819SOL    HW129336   1.565   2.820  16.918
 5819SOL    HW229337   1.697   2.815  16.992
 5820SOL     OW29338   4.027   2.496   5.204
 5820SOL    HW129339   4.077   2.415   5.211
 5820SOL    HW229340   3.969   2.495   5.280
 5821SOL     OW29341   4.573   4.737  15.466
 5821SOL    HW129342   4.556   4.694  15.550
 5821SOL    HW229343   4.491   4.727  15.417
 5822SOL     OW29344   1.889   2.417   4.333
 5822SOL    HW129345   1.983   2.429   4.347
 5822SOL    HW229346   1.847   2.476   4.395
 5823SOL     OW29347   1.256   0.128  16.270
 5823SOL    HW129348   1.176   0.076  16.267
 5823SOL    HW229349   1.321   0.070  16.309
 5824SOL     OW29350   2.103   4.254   0.076
 5824SOL    HW129351   2.161   4.300   0.136
 5824SOL    HW229352   2.029   4.314   0.064
 5825SOL     OW29353   3.643   3.545  19.003
 5825SOL    HW129354   3.589   3.466  19.005
 5825SOL    HW229355   3.597   3.607  19.061
 5826SOL     OW29356   1.827   0.065   0.922
 5826SOL    HW129357   1.814   0.133   0.988
 5826SOL    HW229358   1.922   0.054   0.918
 5827SOL     OW29359   3.147   1.684  16.390
 5827SOL    HW129360   3.193   1.766  16.375
 5827SOL    HW229361   3.087   1.703  16.463
 5828SOL     OW29362   2.537   4.183  16.006
 5828SOL    HW129363   2.526   4.097  16.048
 5828SOL    HW229364   2.457   4.230  16.028
 5829SOL     OW29365   1.535   3.433  20.006
 5829SOL    HW129366   1.474   3.466  20.072
 5829SOL    HW229367   1.527   3.494  19.933
 5830SOL     OW29368   0.948   3.937   1.508
 5830SOL    HW129369   0.863   3.896   1.522
 5830SOL    HW229370   0.985   3.891   1.432
 5831SOL     OW29371   1.757   4.570   5.756
 5831SOL    HW129372   1.678   4.550   5.806
 5831SOL    HW229373   1.725   4.606   5.673
 5832SOL     OW29374   2.769   1.529   6.196
 5832SOL    HW129375   2.774   1.448   6.247
 5832SOL    HW229376   2.857   1.567   6.204
 5833SOL     OW29377   4.568   2.827   2.706
 5833SOL    HW129378   4.639   2.822   2.642
 5833SOL    HW229379   4.598   2.893   2.769
 5834SOL     OW29380   0.102   0.856  20.469
 5834SOL    HW129381   0.016   0.898  20.463
 5834SOL    HW229382   0.102   0.815  20.555
 5835SOL     OW29383   3.885   0.418   2.392
 5835SOL    HW129384   3.931   0.348   2.438
 5835SOL    HW229385   3.854   0.378   2.311
 5836SOL     OW29386   0.292   3.072   6.751
 5836SOL    HW129387   0.339   3.120   6.819
 5836SOL    HW229388   0.212   3.042   6.793
 5837SOL     OW29389   1.370   4.613  17.486
 5837SOL    HW129390   1.358   4.578  17.398
 5837SOL    HW229391   1.453   4.660  17.482
 5838SOL     OW29392   2.159   1.869  14.330
 5838SOL    HW129393   2.067   1.891  14.312
 5838SOL    HW229394   2.204   1.888  14.248
 5839SOL     OW29395   4.464   1.772  17.772
 5839SOL    HW129396   4.438   1.680  17.776
 5839SOL    HW229397   4.546   1.771  17.723
 5840SOL     OW29398   2.029   0.426  19.785
 5840SOL    HW129399   2.082   0.444  19.708
 5840SOL    HW229400   2.091   0.429  19.858
 5841SOL     OW29401   3.638   0.370  21.093
 5841SOL    HW129402   3.667   0.296  21.147
 5841SOL    HW229403   3.719   0.417  21.071
 5842SOL     OW29404   0.788   1.940   5.668
 5842SOL    HW129405   0.828   1.901   5.590
 5842SOL    HW229406   0.783   1.868   5.731
 5843SOL     OW29407   1.686   1.107  20.677
 5843SOL    HW129408   1.639   1.073  20.753
 5843SOL    HW229409   1.772   1.133  20.711
 5844SOL     OW29410   2.863   1.794   3.808
 5844SOL    HW129411   2.886   1.864   3.747
 5844SOL    HW229412   2.878   1.831   3.895
 5845SOL     OW29413   2.837   0.513  16.168
 5845SOL    HW129414   2.761   0.561  16.136
 5845SOL    HW229415   2.820   0.422  16.145
 5846SOL     OW29416   1.193   2.277  18.446
 5846SOL    HW129417   1.126   2.212  18.466
 5846SOL    HW229418   1.196   2.333  18.524
 5847SOL     OW29419   2.277   3.080   6.215
 5847SOL    HW129420   2.336   3.028   6.270
 5847SOL    HW229421   2.279   3.168   6.253
 5848SOL     OW29422   2.830   0.276   3.926
 5848SOL    HW129423   2.806   0.286   4.018
 5848SOL    HW229424   2.765   0.215   3.890
 5849SOL     OW29425   0.547   4.355  14.432
 5849SOL    HW129426   0.633   4.396  14.422
 5849SOL    HW229427   0.527   4.318  14.346
 5850SOL     OW29428   0.257   2.415  18.639
 5850SOL    HW129429   0.308   2.496  18.641
 5850SOL    HW229430   0.292   2.362  18.710
 5851SOL     OW29431   2.268   4.008   6.620
 5851SOL    HW129432   2.247   3.965   6.703
 5851SOL    HW229433   2.305   4.093   6.646
 5852SOL     OW29434   1.264   2.948  17.259
 5852SOL    HW129435   1.213   2.873  17.227
 5852SOL    HW229436   1.300   2.989  17.180
 5853SOL     OW29437   3.941   4.752   1.117
 5853SOL    HW129438   4.005   4.740   1.187
 5853SOL    HW229439   3.861   4.780   1.162
 5854SOL     OW29440   4.600   1.342  19.307
 5854SOL    HW129441   4.505   1.329  19.301
 5854SOL    HW229442   4.630   1.271  19.364
 5855SOL     OW29443   3.137   1.549  14.726
 5855SOL    HW129444   3.182   1.596  14.796
 5855SOL    HW229445   3.199   1.481  14.699
 5856SOL     OW29446   2.539   3.411  15.232
 5856SOL    HW129447   2.544   3.351  15.307
 5856SOL    HW229448   2.612   3.471  15.244
 5857SOL     OW29449   1.616   0.694   3.306
 5857SOL    HW129450   1.639   0.743   3.385
 5857SOL    HW229451   1.550   0.631   3.335
 5858SOL     OW29452   4.208   4.350   0.915
 5858SOL    HW129453   4.144   4.315   0.977
 5858SOL    HW229454   4.256   4.416   0.965
 5859SOL     OW29455   4.506   1.502  16.253
 5859SOL    HW129456   4.576   1.515  16.189
 5859SOL    HW229457   4.447   1.576  16.239
 5860SOL     OW29458   3.504   3.984   6.145
 5860SOL    HW129459   3.438   3.966   6.078
 5860SOL    HW229460   3.563   3.909   6.142
 5861SOL     OW29461   1.162   4.173   0.877
 5861SOL    HW129462   1.150   4.185   0.971
 5861SOL    HW229463   1.130   4.085   0.859
 5862SOL     OW29464   0.848   3.105   5.471
 5862SOL    HW129465   0.776   3.092   5.532
 5862SOL    HW229466   0.925   3.070   5.516
 5863SOL     OW29467   3.352   3.336   2.838
 5863SOL    HW129468   3.376   3.429   2.835
 5863SOL    HW229469   3.257   3.336   2.826
 5864SOL     OW29470   2.584   1.827   1.257
 5864SOL    HW129471   2.645   1.855   1.189
 5864SOL    HW229472   2.579   1.732   1.247
 5865SOL     OW29473   3.380   3.101   2.976
 5865SOL    HW129474   3.415   3.137   3.058
 5865SOL    HW229475   3.369   3.177   2.919
 5866SOL     OW29476   2.636   2.261   5.395
 5866SOL    HW129477   2.721   2.218   5.399
 5866SOL    HW229478   2.651   2.347   5.434
 5867SOL     OW29479   3.794   0.954  18.689
 5867SOL    HW129480   3.845   0.897  18.747
 5867SOL    HW229481   3.725   0.897  18.655
 5868SOL     OW29482   2.049   1.170   3.510
 5868SOL    HW129483   2.119   1.221   3.470
 5868SOL    HW229484   2.072   1.079   3.491
 5869SOL     OW29485   3.791   2.881   1.026
 5869SOL    HW129486   3.822   2.966   1.058
 5869SOL    HW229487   3.745   2.902   0.945
 5870SOL     OW29488   1.756   0.352  18.389
 5870SOL    HW129489   1.695   0.375  18.459
 5870SOL    HW229490   1.700   0.329  18.315
 5871SOL     OW29491   0.898   3.788  17.337
 5871SOL    HW129492   0.872   3.717  17.279
 5871SOL    HW229493   0.994   3.784  17.339
 5872SOL     OW29494   3.569   0.096  20.152
 5872SOL    HW129495   3.498   0.049  20.108
 5872SOL    HW229496   3.542   0.099  20.244
 5873SOL     OW29497   3.214   4.106  15.102
 5873SOL    HW129498   3.282   4.140  15.160
 5873SOL    HW229499   3.136   4.100  15.157
 5874SOL     OW29500   4.296   2.083   1.311
 5874SOL    HW129501   4.351   2.009   1.284
 5874SOL    HW229502   4.244   2.049   1.384
 5875SOL     OW29503   2.191   2.899  21.022
 5875SOL    HW129504   2.236   2.944  20.950
 5875SOL    HW229505   2.107   2.944  21.030
 5876SOL     OW29506   2.964   1.039  18.374
 5876SOL    HW129507   2.920   1.039  18.289
 5876SOL    HW229508   3.056   1.057  18.354
 5877SOL     OW29509   1.656   0.183  19.754
 5877SOL    HW129510   1.591   0.224  19.697
 5877SOL    HW229511   1.606   0.152  19.829
 5878SOL     OW29512   4.045   0.734  15.985
 5878SOL    HW129513   4.106   0.729  15.911
 5878SOL    HW229514   4.099   0.764  16.058
 5879SOL     OW29515   1.876   1.281  19.599
 5879SOL    HW129516   1.906   1.193  19.622
 5879SOL    HW229517   1.927   1.339  19.656
 5880SOL     OW29518   0.391   3.190   0.692
 5880SOL    HW129519   0.406   3.264   0.633
 5880SOL    HW229520   0.319   3.219   0.749
 5881SOL     OW29521   0.076   3.199  18.422
 5881SOL    HW129522   0.045   3.263  18.358
 5881SOL    HW229523   0.096   3.121  18.370
 5882SOL     OW29524   2.728   4.008   2.752
 5882SOL    HW129525   2.678   3.935   2.717
 5882SOL    HW229526   2.746   4.063   2.676
 5883SOL     OW29527   4.224   2.661   5.051
 5883SOL    HW129528   4.187   2.582   5.012
 5883SOL    HW229529   4.227   2.724   4.979
 5884SOL     OW29530   3.047   3.604  17.607
 5884SOL    HW129531   3.143   3.607  17.602
 5884SOL    HW229532   3.023   3.523  17.562
 5885SOL     OW29533   1.913   3.098  17.469
 5885SOL    HW129534   2.008   3.110  17.464
 5885SOL    HW229535   1.881   3.127  17.384
 5886SOL     OW29536   0.758   1.984   4.995
 5886SOL    HW129537   0.720   1.918   5.053
 5886SOL    HW229538   0.837   2.013   5.040
 5887SOL     OW29539   1.050   0.698   4.113
 5887SOL    HW129540   1.076   0.785   4.083
 5887SOL    HW229541   0.957   0.692   4.093
 5888SOL     OW29542   1.340   4.270  18.670
 5888SOL    HW129543   1.366   4.214  18.743
 5888SOL    HW229544   1.303   4.210  18.605
 5889SOL     OW29545   2.248   3.636  15.534
 5889SOL    HW129546   2.256   3.600  15.622
 5889SOL    HW229547   2.211   3.564  15.482
 5890SOL     OW29548   2.435   3.791  13.380
 5890SOL    HW129549   2.431   3.804  13.285
 5890SOL    HW229550   2.344   3.793  13.408
 5891SOL     OW29551   0.559   4.050  16.454
 5891SOL    HW129552   0.570   4.030  16.547
 5891SOL    HW229553   0.488   3.992  16.425
 5892SOL     OW29554   3.865   1.978   2.836
 5892SOL    HW129555   3.904   1.913   2.894
 5892SOL    HW229556   3.865   2.059   2.887
 5893SOL     OW29557   4.389   0.816  18.167
 5893SOL    HW129558   4.395   0.736  18.115
 5893SOL    HW229559   4.468   0.865  18.146
 5894SOL     OW29560   3.425   4.458   6.140
 5894SOL    HW129561   3.334   4.486   6.149
 5894SOL    HW229562   3.474   4.539   6.126
 5895SOL     OW29563   0.489   4.307  20.339
 5895SOL    HW129564   0.453   4.358  20.267
 5895SOL    HW229565   0.429   4.233  20.349
 5896SOL     OW29566   2.483   2.312   2.927
 5896SOL    HW129567   2.404   2.266   2.898
 5896SOL    HW229568   2.452   2.398   2.954
 5897SOL     OW29569   0.870   1.053   0.445
 5897SOL    HW129570   0.948   1.034   0.393
 5897SOL    HW229571   0.897   1.039   0.536
 5898SOL     OW29572   0.978   2.090  20.212
 5898SOL    HW129573   0.911   2.081  20.280
 5898SOL    HW229574   0.973   2.182  20.185
 5899SOL     OW29575   1.516   4.512  16.224
 5899SOL    HW129576   1.583   4.464  16.175
 5899SOL    HW229577   1.437   4.504  16.171
 5900SOL     OW29578   1.705   4.746  18.329
 5900SOL    HW129579   1.734   4.694  18.404
 5900SOL    HW229580   1.786   4.769  18.284
 5901SOL     OW29581   3.756   2.299   1.617
 5901SOL    HW129582   3.725   2.303   1.527
 5901SOL    HW229583   3.771   2.390   1.641
 5902SOL     OW29584   4.353   1.693  18.110
 5902SOL    HW129585   4.266   1.719  18.140
 5902SOL    HW229586   4.392   1.774  18.076
 5903SOL     OW29587   1.829   0.604  15.197
 5903SOL    HW129588   1.802   0.690  15.165
 5903SOL    HW229589   1.917   0.619  15.233
 5904SOL     OW29590   2.507   1.620  20.110
 5904SOL    HW129591   2.577   1.676  20.077
 5904SOL    HW229592   2.444   1.680  20.149
 5905SOL     OW29593   2.054   3.590  16.419
 5905SOL    HW129594   2.078   3.681  16.404
 5905SOL    HW229595   2.137   3.543  16.414
 5906SOL     OW29596   1.509   1.921   0.314
 5906SOL    HW129597   1.582   1.927   0.375
 5906SOL    HW229598   1.459   2.001   0.329
 5907SOL     OW29599   1.729   3.275   7.618
 5907SOL    HW129600   1.678   3.269   7.699
 5907SOL    HW229601   1.738   3.369   7.603
 5908SOL     OW29602   2.241   4.478  19.054
 5908SOL    HW129603   2.256   4.402  19.111
 5908SOL    HW229604   2.209   4.440  18.972
 5909SOL     OW29605   4.328   1.983   4.478
 5909SOL    HW129606   4.397   1.920   4.455
 5909SOL    HW229607   4.371   2.068   4.472
 5910SOL     OW29608   4.005   0.737   2.016
 5910SOL    HW129609   4.074   0.707   2.075
 5910SOL    HW229610   3.996   0.667   1.952
 5911SOL     OW29611   1.090   1.816   8.948
 5911SOL    HW129612   1.149   1.887   8.924
 5911SOL    HW229613   1.019   1.859   8.996
 5912SOL     OW29614   2.912   2.309  16.583
 5912SOL    HW129615   2.834   2.357  16.612
 5912SOL    HW229616   2.897   2.219  16.612
 5913SOL     OW29617   0.013   1.328   1.140
 5913SOL    HW129618   0.072   1.403   1.128
 5913SOL    HW229619   0.069   1.251   1.127
 5914SOL     OW29620   2.093   0.576  20.865
 5914SOL    HW129621   2.145   0.554  20.942
 5914SOL    HW229622   2.009   0.532  20.880
 5915SOL     OW29623   1.656   4.738   0.383
 5915SOL    HW129624   1.637   0.042   0.391
 5915SOL    HW229625   1.668   4.709   0.473
 5916SOL     OW29626   1.612   3.941  19.453
 5916SOL    HW129627   1.551   4.013  19.470
 5916SOL    HW229628   1.632   3.906  19.540
 5917SOL     OW29629   3.736   3.458   5.833
 5917SOL    HW129630   3.641   3.444   5.832
 5917SOL    HW229631   3.773   3.373   5.810
 5918SOL     OW29632   1.864   4.773  19.804
 5918SOL    HW129633   1.872   0.045  19.877
 5918SOL    HW229634   1.909   0.027  19.731
 5919SOL     OW29635   1.481   2.186  20.006
 5919SOL    HW129636   1.402   2.210  19.958
 5919SOL    HW229637   1.551   2.189  19.941
 5920SOL     OW29638   0.044   2.529  18.524
 5920SOL    HW129639   0.111   2.470  18.558
 5920SOL    HW229640   4.753   2.478  18.529
 5921SOL     OW29641   3.999   0.769   6.888
 5921SOL    HW129642   3.925   0.714   6.863
 5921SOL    HW229643   3.986   0.787   6.981
 5922SOL     OW29644   0.081   4.058  14.198
 5922SOL    HW129645   0.094   3.993  14.267
 5922SOL    HW229646   4.776   4.060  14.185
 5923SOL     OW29647   4.308   2.167   4.765
 5923SOL    HW129648   4.320   2.083   4.810
 5923SOL    HW229649   4.377   2.169   4.698
 5924SOL     OW29650   0.304   3.358  20.578
 5924SOL    HW129651   0.305   3.407  20.660
 5924SOL    HW229652   0.334   3.420  20.512
 5925SOL     OW29653   2.021   2.851   6.168
 5925SOL    HW129654   2.112   2.872   6.148
 5925SOL    HW229655   2.018   2.755   6.170
 5926SOL     OW29656   1.133   3.832   3.438
 5926SOL    HW129657   1.226   3.814   3.427
 5926SOL    HW229658   1.089   3.758   3.396
 5927SOL     OW29659   0.170   1.325  19.585
 5927SOL    HW129660   0.255   1.361  19.611
 5927SOL    HW229661   0.179   1.230  19.596
 5928SOL     OW29662   2.007   1.818  16.803
 5928SOL    HW129663   2.043   1.831  16.891
 5928SOL    HW229664   1.973   1.904  16.778
 5929SOL     OW29665   0.065   0.727  15.640
 5929SOL    HW129666   0.146   0.676  15.645
 5929SOL    HW229667   0.080   0.802  15.697
 5930SOL     OW29668   3.225   4.227  18.087
 5930SOL    HW129669   3.261   4.143  18.116
 5930SOL    HW229670   3.173   4.258  18.161
 5931SOL     OW29671   3.120   2.059  20.850
 5931SOL    HW129672   3.132   1.964  20.848
 5931SOL    HW229673   3.034   2.074  20.811
 5932SOL     OW29674   4.583   1.971   6.469
 5932SOL    HW129675   4.520   1.991   6.539
 5932SOL    HW229676   4.529   1.942   6.396
 5933SOL     OW29677   0.397   2.877   3.588
 5933SOL    HW129678   0.322   2.917   3.631
 5933SOL    HW229679   0.364   2.795   3.553
 5934SOL     OW29680   2.625   1.771   4.874
 5934SOL    HW129681   2.586   1.736   4.954
 5934SOL    HW229682   2.556   1.826   4.836
 5935SOL     OW29683   1.972   3.846  19.635
 5935SOL    HW129684   1.927   3.775  19.681
 5935SOL    HW229685   2.059   3.848  19.674
 5936SOL     OW29686   3.480   2.848   5.933
 5936SOL    HW129687   3.566   2.865   5.895
 5936SOL    HW229688   3.450   2.768   5.889
 5937SOL     OW29689   1.780   0.759  17.219
 5937SOL    HW129690   1.735   0.675  17.216
 5937SOL    HW229691   1.710   0.824  17.217
 5938SOL     OW29692   3.125   2.698   2.068
 5938SOL    HW129693   3.057   2.734   2.011
 5938SOL    HW229694   3.144   2.612   2.032
 5939SOL     OW29695   4.556   3.521   1.091
 5939SOL    HW129696   4.574   3.605   1.049
 5939SOL    HW229697   4.642   3.487   1.115
 5940SOL     OW29698   3.978   2.323   5.983
 5940SOL    HW129699   3.952   2.250   5.927
 5940SOL    HW229700   3.916   2.393   5.962
 5941SOL     OW29701   3.642   0.059  15.570
 5941SOL    HW129702   3.677   4.773  15.617
 5941SOL    HW229703   3.621   0.123  15.638
 5942SOL     OW29704   1.484   1.588   2.525
 5942SOL    HW129705   1.544   1.514   2.513
 5942SOL    HW229706   1.537   1.665   2.504
 5943SOL     OW29707   4.752   0.380  19.328
 5943SOL    HW129708   4.713   0.452  19.278
 5943SOL    HW229709   4.680   0.347  19.382
 5944SOL     OW29710   4.281   2.062   4.057
 5944SOL    HW129711   4.279   2.070   3.962
 5944SOL    HW229712   4.304   2.150   4.088
 5945SOL     OW29713   4.080   4.155  21.018
 5945SOL    HW129714   4.045   4.068  21.035
 5945SOL    HW229715   4.157   4.140  20.963
 5946SOL     OW29716   3.421   4.734   6.134
 5946SOL    HW129717   3.505   4.751   6.177
 5946SOL    HW229718   3.438   4.752   6.041
 5947SOL     OW29719   2.163   0.708  18.956
 5947SOL    HW129720   2.167   0.656  18.876
 5947SOL    HW229721   2.140   0.796  18.926
 5948SOL     OW29722   2.290   3.503   7.622
 5948SOL    HW129723   2.215   3.451   7.593
 5948SOL    HW229724   2.290   3.493   7.717
 5949SOL     OW29725   0.155   2.735  15.676
 5949SOL    HW129726   0.102   2.734  15.596
 5949SOL    HW229727   0.244   2.720  15.646
 5950SOL     OW29728   4.001   3.192   7.505
 5950SOL    HW129729   3.961   3.199   7.418
 5950SOL    HW229730   3.944   3.244   7.561
 5951SOL     OW29731   0.002   0.077   4.114
 5951SOL    HW129732   4.752   0.145   4.169
 5951SOL    HW229733   0.073   0.122   4.068
 5952SOL     OW29734   2.261   0.925   2.193
 5952SOL    HW129735   2.344   0.888   2.224
 5952SOL    HW229736   2.256   0.898   2.101
 5953SOL     OW29737   4.076   4.647   9.126
 5953SOL    HW129738   4.137   4.578   9.153
 5953SOL    HW229739   3.998   4.632   9.180
 5954SOL     OW29740   4.600   3.159  17.565
 5954SOL    HW129741   4.639   3.084  17.519
 5954SOL    HW229742   4.592   3.130  17.656
 5955SOL     OW29743   0.884   2.541  19.971
 5955SOL    HW129744   0.806   2.584  20.006
 5955SOL    HW229745   0.956   2.599  19.995
 5956SOL     OW29746   1.877   1.246   7.497
 5956SOL    HW129747   1.815   1.208   7.435
 5956SOL    HW229748   1.844   1.334   7.514
 5957SOL     OW29749   0.213   1.961   3.251
 5957SOL    HW129750   0.220   1.906   3.173
 5957SOL    HW229751   0.282   2.026   3.241
 5958SOL     OW29752   0.201   1.558  16.328
 5958SOL    HW129753   0.203   1.652  16.343
 5958SOL    HW229754   0.123   1.528  16.374
 5959SOL     OW29755   0.195   4.231   5.447
 5959SOL    HW129756   0.139   4.308   5.460
 5959SOL    HW229757   0.247   4.253   5.370
 5960SOL     OW29758   3.407   3.100   7.709
 5960SOL    HW129759   3.455   3.183   7.708
 5960SOL    HW229760   3.396   3.077   7.617
 5961SOL     OW29761   3.792   3.466  20.221
 5961SOL    HW129762   3.712   3.420  20.247
 5961SOL    HW229763   3.816   3.518  20.298
 5962SOL     OW29764   0.778   0.247   3.822
 5962SOL    HW129765   0.721   0.324   3.819
 5962SOL    HW229766   0.719   0.174   3.842
 5963SOL     OW29767   4.480   0.514   0.394
 5963SOL    HW129768   4.462   0.475   0.308
 5963SOL    HW229769   4.562   0.563   0.382
 5964SOL     OW29770   1.874   1.889   3.975
 5964SOL    HW129771   1.923   1.807   3.980
 5964SOL    HW229772   1.843   1.894   3.885
 5965SOL     OW29773   3.732   4.021   2.659
 5965SOL    HW129774   3.701   4.102   2.700
 5965SOL    HW229775   3.738   4.042   2.566
 5966SOL     OW29776   0.537   2.366   2.824
 5966SOL    HW129777   0.466   2.320   2.780
 5966SOL    HW229778   0.617   2.327   2.789
 5967SOL     OW29779   4.543   2.632   3.622
 5967SOL    HW129780   4.448   2.622   3.619
 5967SOL    HW229781   4.573   2.565   3.684
 5968SOL     OW29782   1.609   1.167   1.300
 5968SOL    HW129783   1.559   1.134   1.225
 5968SOL    HW229784   1.576   1.256   1.314
 5969SOL     OW29785   3.805   1.154  15.987
 5969SOL    HW129786   3.825   1.066  15.955
 5969SOL    HW229787   3.738   1.140  16.054
 5970SOL     OW29788   2.381   3.717   0.990
 5970SOL    HW129789   2.460   3.674   0.958
 5970SOL    HW229790   2.337   3.748   0.911
 5971SOL     OW29791   0.709   2.817   7.773
 5971SOL    HW129792   0.655   2.738   7.770
 5971SOL    HW229793   0.734   2.826   7.865
 5972SOL     OW29794   3.949   2.773   0.511
 5972SOL    HW129795   4.027   2.821   0.539
 5972SOL    HW229796   3.901   2.834   0.455
 5973SOL     OW29797   3.709   0.650   8.442
 5973SOL    HW129798   3.697   0.574   8.498
 5973SOL    HW229799   3.722   0.723   8.503
 5974SOL     OW29800   4.246   3.134   6.711
 5974SOL    HW129801   4.157   3.147   6.679
 5974SOL    HW229802   4.254   3.039   6.722
 5975SOL     OW29803   0.991   1.471  17.997
 5975SOL    HW129804   1.000   1.489  18.091
 5975SOL    HW229805   0.897   1.465  17.983
 5976SOL     OW29806   2.172   2.065   4.821
 5976SOL    HW129807   2.107   1.996   4.811
 5976SOL    HW229808   2.142   2.116   4.896
 5977SOL     OW29809   0.495   1.654  19.953
 5977SOL    HW129810   0.496   1.603  20.034
 5977SOL    HW229811   0.407   1.692  19.950
 5978SOL     OW29812   4.496   3.244   8.235
 5978SOL    HW129813   4.555   3.236   8.160
 5978SOL    HW229814   4.466   3.335   8.233
 5979SOL     OW29815   1.220   2.773   4.823
 5979SOL    HW129816   1.293   2.711   4.822
 5979SOL    HW229817   1.242   2.835   4.893
 5980SOL     OW29818   2.949   3.613   1.692
 5980SOL    HW129819   3.020   3.609   1.627
 5980SOL    HW229820   2.929   3.706   1.700
 5981SOL     OW29821   1.883   2.417   6.423
 5981SOL    HW129822   1.859   2.509   6.410
 5981SOL    HW229823   1.977   2.414   6.404
 5982SOL     OW29824   1.595   1.414   6.608
 5982SOL    HW129825   1.646   1.449   6.681
 5982SOL    HW229826   1.506   1.446   6.624
 5983SOL     OW29827   4.200   3.340   1.749
 5983SOL    HW129828   4.196   3.251   1.785
 5983SOL    HW229829   4.293   3.362   1.749
 5984SOL     OW29830   3.401   0.113   2.123
 5984SOL    HW129831   3.455   0.186   2.094
 5984SOL    HW229832   3.360   0.144   2.204
 5985SOL     OW29833   2.821   3.838   0.776
 5985SOL    HW129834   2.831   3.924   0.817
 5985SOL    HW229835   2.799   3.857   0.685
 5986SOL     OW29836   2.163   3.377  17.993
 5986SOL    HW129837   2.173   3.397  17.900
 5986SOL    HW229838   2.201   3.453  18.038
 5987SOL     OW29839   1.973   4.234   4.219
 5987SOL    HW129840   2.052   4.273   4.257
 5987SOL    HW229841   1.908   4.238   4.289
 5988SOL     OW29842   3.302   3.238   5.518
 5988SOL    HW129843   3.257   3.167   5.473
 5988SOL    HW229844   3.351   3.283   5.449
 5989SOL     OW29845   3.071   4.663  16.560
 5989SOL    HW129846   3.056   4.756  16.578
 5989SOL    HW229847   2.988   4.631  16.526
 5990SOL     OW29848   1.062   2.763  17.561
 5990SOL    HW129849   1.001   2.776  17.489
 5990SOL    HW229850   1.007   2.739  17.635
 5991SOL     OW29851   4.240   2.772  14.468
 5991SOL    HW129852   4.331   2.800  14.463
 5991SOL    HW229853   4.213   2.793  14.558
 5992SOL     OW29854   1.052   1.844  18.248
 5992SOL    HW129855   0.984   1.796  18.201
 5992SOL    HW229856   1.110   1.877  18.180
 5993SOL     OW29857   3.068   1.840   2.819
 5993SOL    HW129858   2.995   1.864   2.876
 5993SOL    HW229859   3.144   1.837   2.878
 5994SOL     OW29860   1.033   0.637  18.923
 5994SOL    HW129861   1.062   0.564  18.978
 5994SOL    HW229862   0.969   0.684  18.977
 5995SOL     OW29863   3.347   0.289  18.932
 5995SOL    HW129864   3.267   0.290  18.984
 5995SOL    HW229865   3.394   0.368  18.958
 5996SOL     OW29866   0.294   2.829   8.299
 5996SOL    HW129867   0.333   2.865   8.378
 5996SOL    HW229868   0.208   2.870   8.294
 5997SOL     OW29869   0.858   0.710  19.520
 5997SOL    HW129870   0.842   0.802  19.501
 5997SOL    HW229871   0.871   0.707  19.615
 5998SOL     OW29872   3.663   3.768  12.582
 5998SOL    HW129873   3.670   3.673  12.577
 5998SOL    HW229874   3.660   3.787  12.676
 5999SOL     OW29875   3.931   4.693   6.227
 5999SOL    HW129876   3.881   4.612   6.232
 5999SOL    HW229877   4.023   4.665   6.231
 6000SOL     OW29878   4.208   3.399   6.844
 6000SOL    HW129879   4.147   3.368   6.910
 6000SOL    HW229880   4.259   3.322   6.821
 6001SOL     OW29881   4.574   0.125  18.525
 6001SOL    HW129882   4.640   0.112  18.457
 6001SOL    HW229883   4.598   0.063  18.594
 6002SOL     OW29884   3.918   3.390   2.902
 6002SOL    HW129885   3.854   3.326   2.933
 6002SOL    HW229886   3.866   3.466   2.877
 6003SOL     OW29887   1.990   1.871   4.761
 6003SOL    HW129888   1.919   1.893   4.701
 6003SOL    HW229889   2.019   1.784   4.733
 6004SOL     OW29890   3.236   0.308   3.917
 6004SOL    HW129891   3.193   0.380   3.963
 6004SOL    HW229892   3.313   0.348   3.877
 6005SOL     OW29893   4.552   0.584   4.731
 6005SOL    HW129894   4.472   0.580   4.783
 6005SOL    HW229895   4.617   0.539   4.784
 6006SOL     OW29896   2.832   0.828   1.491
 6006SOL    HW129897   2.869   0.756   1.439
 6006SOL    HW229898   2.805   0.787   1.573
 6007SOL     OW29899   2.344   1.770   2.068
 6007SOL    HW129900   2.327   1.862   2.047
 6007SOL    HW229901   2.433   1.754   2.036
 6008SOL     OW29902   0.113   4.008   2.501
 6008SOL    HW129903   0.056   4.020   2.577
 6008SOL    HW229904   0.181   4.075   2.511
 6009SOL     OW29905   0.898   2.952  16.742
 6009SOL    HW129906   0.910   2.897  16.819
 6009SOL    HW229907   0.831   2.908  16.690
 6010SOL     OW29908   3.165   3.453   0.215
 6010SOL    HW129909   3.182   3.359   0.222
 6010SOL    HW229910   3.109   3.461   0.138
 6011SOL     OW29911   1.514   0.831   0.797
 6011SOL    HW129912   1.572   0.900   0.829
 6011SOL    HW229913   1.543   0.815   0.707
 6012SOL     OW29914   4.034   2.918  19.846
 6012SOL    HW129915   4.052   2.992  19.788
 6012SOL    HW229916   4.106   2.857  19.829
 6013SOL     OW29917   3.865   0.153   9.247
 6013SOL    HW129918   3.916   0.079   9.279
 6013SOL    HW229919   3.922   0.195   9.182
 6014SOL     OW29920   1.206   2.173   7.793
 6014SOL    HW129921   1.272   2.239   7.771
 6014SOL    HW229922   1.170   2.202   7.877
 6015SOL     OW29923   2.307   3.131   5.513
 6015SOL    HW129924   2.316   3.146   5.607
 6015SOL    HW229925   2.377   3.183   5.473
 6016SOL     OW29926   1.045   1.854   9.847
 6016SOL    HW129927   0.988   1.930   9.835
 6016SOL    HW229928   1.010   1.788   9.786
 6017SOL     OW29929   0.291   1.786  10.049
 6017SOL    HW129930   0.228   1.797   9.978
 6017SOL    HW229931   0.335   1.871  10.055
 6018SOL     OW29932   1.246   1.932   8.478
 6018SOL    HW129933   1.229   1.875   8.403
 6018SOL    HW229934   1.236   2.021   8.444
 6019SOL     OW29935   0.611   2.201   8.155
 6019SOL    HW129936   0.532   2.186   8.103
 6019SOL    HW229937   0.606   2.136   8.225
 6020SOL     OW29938   1.732   2.211   8.527
 6020SOL    HW129939   1.746   2.151   8.600
 6020SOL    HW229940   1.710   2.154   8.453
 6021SOL     OW29941   0.869   1.146   9.115
 6021SOL    HW129942   0.815   1.078   9.154
 6021SOL    HW229943   0.945   1.153   9.172
 6022SOL     OW29944   1.094   2.762   9.903
 6022SOL    HW129945   1.117   2.730   9.816
 6022SOL    HW229946   1.090   2.683   9.957
 6023SOL     OW29947   0.831   0.894   7.746
 6023SOL    HW129948   0.791   0.895   7.659
 6023SOL    HW229949   0.782   0.828   7.794
 6024SOL     OW29950   4.600   4.145   0.110
 6024SOL    HW129951   4.694   4.155   0.095
 6024SOL    HW229952   4.593   4.077   0.177
 6025SOL     OW29953   1.533   0.438   7.557
 6025SOL    HW129954   1.495   0.494   7.625
 6025SOL    HW229955   1.554   0.356   7.602
 6026SOL     OW29956   1.687   2.315   7.898
 6026SOL    HW129957   1.646   2.386   7.849
 6026SOL    HW229958   1.687   2.346   7.989
 6027SOL     OW29959   0.130   2.107   9.888
 6027SOL    HW129960   0.091   2.094   9.974
 6027SOL    HW229961   0.223   2.087   9.900
 6028SOL     OW29962   1.651   3.292   9.552
 6028SOL    HW129963   1.715   3.236   9.596
 6028SOL    HW229964   1.571   3.239   9.550
 6029SOL     OW29965   4.727   1.545   8.414
 6029SOL    HW129966   4.706   1.591   8.332
 6029SOL    HW229967   4.643   1.537   8.459
 6030SOL     OW29968   4.425   4.111  16.976
 6030SOL    HW129969   4.484   4.040  16.999
 6030SOL    HW229970   4.483   4.185  16.957
 6031SOL     OW29971   0.993   2.183   8.281
 6031SOL    HW129972   1.029   2.095   8.269
 6031SOL    HW229973   0.932   2.174   8.354
 6032SOL     OW29974   1.036   3.187   8.820
 6032SOL    HW129975   1.109   3.162   8.764
 6032SOL    HW229976   1.075   3.202   8.906
 6033SOL     OW29977   0.585   3.167   8.380
 6033SOL    HW129978   0.613   3.240   8.435
 6033SOL    HW229979   0.667   3.126   8.352
 6034SOL     OW29980   0.102   3.603  15.080
 6034SOL    HW129981   0.156   3.527  15.103
 6034SOL    HW229982   0.121   3.667  15.148
 6035SOL     OW29983   2.350   0.384   8.902
 6035SOL    HW129984   2.328   0.449   8.968
 6035SOL    HW229985   2.426   0.420   8.857
 6036SOL     OW29986   0.478   1.359   7.997
 6036SOL    HW129987   0.554   1.301   8.004
 6036SOL    HW229988   0.497   1.430   8.058
 6037SOL     OW29989   0.632   2.604  11.082
 6037SOL    HW129990   0.695   2.532  11.076
 6037SOL    HW229991   0.673   2.675  11.033
 6038SOL     OW29992   0.399   2.299  10.475
 6038SOL    HW129993   0.418   2.212  10.512
 6038SOL    HW229994   0.431   2.360  10.541
 6039SOL     OW29995   4.629   2.936  10.179
 6039SOL    HW129996   4.643   2.984  10.098
 6039SOL    HW229997   4.609   2.847  10.151
 6040SOL     OW29998   0.739   1.459  11.127
 6040SOL    HW129999   0.669   1.453  11.062
 6040SOL    HW230000   0.819   1.468  11.076
 6041SOL     OW30001   0.677   2.773  10.308
 6041SOL    HW130002   0.669   2.718  10.386
 6041SOL    HW230003   0.769   2.800  10.307
 6042SOL     OW30004   4.664   1.456  10.557
 6042SOL    HW130005   4.698   1.539  10.590
 6042SOL    HW230006   4.693   1.453  10.466
 6043SOL     OW30007   0.881   1.754  11.750
 6043SOL    HW130008   0.915   1.788  11.667
 6043SOL    HW230009   0.946   1.781  11.815
 6044SOL     OW30010   1.349   1.386  12.120
 6044SOL    HW130011   1.336   1.480  12.110
 6044SOL    HW230012   1.357   1.354  12.030
 6045SOL     OW30013   4.484   0.147   9.716
 6045SOL    HW130014   4.502   0.171   9.807
 6045SOL    HW230015   4.401   0.100   9.720
 6046SOL     OW30016   0.830   2.050   9.757
 6046SOL    HW130017   0.805   2.137   9.726
 6046SOL    HW230018   0.747   2.009   9.782
 6047SOL     OW30019   1.526   2.291   9.528
 6047SOL    HW130020   1.491   2.204   9.549
 6047SOL    HW230021   1.565   2.322   9.610
 6048SOL     OW30022   1.465   2.277  11.572
 6048SOL    HW130023   1.487   2.188  11.543
 6048SOL    HW230024   1.548   2.312  11.605
 6049SOL     OW30025   3.689   0.800   6.793
 6049SOL    HW130026   3.671   0.707   6.782
 6049SOL    HW230027   3.626   0.843   6.735
 6050SOL     OW30028   3.722   1.310  10.685
 6050SOL    HW130029   3.690   1.378  10.744
 6050SOL    HW230030   3.814   1.299  10.709
 6051SOL     OW30031   3.861   1.461  13.584
 6051SOL    HW130032   3.900   1.441  13.669
 6051SOL    HW230033   3.779   1.506  13.605
 6052SOL     OW30034   0.508   3.241  10.350
 6052SOL    HW130035   0.580   3.219  10.291
 6052SOL    HW230036   0.434   3.189  10.319
 6053SOL     OW30037   1.632   2.088   9.328
 6053SOL    HW130038   1.566   2.152   9.354
 6053SOL    HW230039   1.596   2.048   9.249
 6054SOL     OW30040   1.373   1.632  10.550
 6054SOL    HW130041   1.279   1.649  10.548
 6054SOL    HW230042   1.411   1.713  10.583
 6055SOL     OW30043   0.199   2.081  10.438
 6055SOL    HW130044   0.219   2.174  10.445
 6055SOL    HW230045   0.188   2.052  10.529
 6056SOL     OW30046   1.609   1.494  13.864
 6056SOL    HW130047   1.641   1.481  13.775
 6056SOL    HW230048   1.566   1.579  13.862
 6057SOL     OW30049   0.998   3.031  11.674
 6057SOL    HW130050   1.072   3.091  11.683
 6057SOL    HW230051   0.921   3.086  11.687
 6058SOL     OW30052   3.916   1.448  10.453
 6058SOL    HW130053   3.881   1.448  10.364
 6058SOL    HW230054   3.977   1.522  10.454
 6059SOL     OW30055   2.764   1.292  11.596
 6059SOL    HW130056   2.717   1.344  11.661
 6059SOL    HW230057   2.730   1.203  11.607
 6060SOL     OW30058   2.070   1.233  11.987
 6060SOL    HW130059   2.156   1.238  12.029
 6060SOL    HW230060   2.010   1.272  12.051
 6061SOL     OW30061   1.317   2.297  11.288
 6061SOL    HW130062   1.373   2.291  11.365
 6061SOL    HW230063   1.248   2.359  11.313
 6062SOL     OW30064   0.740   2.774  10.910
 6062SOL    HW130065   0.672   2.835  10.940
 6062SOL    HW230066   0.773   2.813  10.829
 6063SOL     OW30067   0.488   3.259  12.255
 6063SOL    HW130068   0.511   3.191  12.191
 6063SOL    HW230069   0.500   3.341  12.208
 6064SOL     OW30070   4.701   1.181  12.286
 6064SOL    HW130071   4.664   1.222  12.364
 6064SOL    HW230072   4.644   1.106  12.270
 6065SOL     OW30073   2.772   1.980  12.338
 6065SOL    HW130074   2.744   2.044  12.404
 6065SOL    HW230075   2.736   2.013  12.256
 6066SOL     OW30076   1.066   2.413  12.711
 6066SOL    HW130077   1.058   2.431  12.805
 6066SOL    HW230078   1.021   2.329  12.699
 6067SOL     OW30079   3.888   2.063   5.027
 6067SOL    HW130080   3.794   2.080   5.024
 6067SOL    HW230081   3.924   2.116   4.956
 6068SOL     OW30082   0.826   4.380  12.116
 6068SOL    HW130083   0.749   4.330  12.144
 6068SOL    HW230084   0.888   4.314  12.086
 6069SOL     OW30085   1.611   3.709  12.577
 6069SOL    HW130086   1.627   3.801  12.599
 6069SOL    HW230087   1.579   3.670  12.658
 6070SOL     OW30088   1.705   1.860  11.628
 6070SOL    HW130089   1.643   1.915  11.580
 6070SOL    HW230090   1.791   1.899  11.610
 6071SOL     OW30091   4.188   0.548  11.937
 6071SOL    HW130092   4.224   0.467  11.974
 6071SOL    HW230093   4.251   0.574  11.870
 6072SOL     OW30094   3.970   2.838  12.309
 6072SOL    HW130095   3.880   2.806  12.308
 6072SOL    HW230096   3.963   2.928  12.340
 6073SOL     OW30097   0.191   2.550  10.750
 6073SOL    HW130098   0.130   2.530  10.679
 6073SOL    HW230099   0.140   2.603  10.811
 6074SOL     OW30100   0.050   2.116  11.922
 6074SOL    HW130101   0.089   2.179  11.861
 6074SOL    HW230102   0.125   2.075  11.966
 6075SOL     OW30103   0.590   2.253  11.679
 6075SOL    HW130104   0.501   2.285  11.694
 6075SOL    HW230105   0.627   2.315  11.617
 6076SOL     OW30106   1.802   1.881  10.781
 6076SOL    HW130107   1.885   1.893  10.735
 6076SOL    HW230108   1.790   1.962  10.830
 6077SOL     OW30109   1.449   0.962  12.018
 6077SOL    HW130110   1.456   0.867  12.008
 6077SOL    HW230111   1.496   0.982  12.099
 6078SOL     OW30112   1.083   2.564  11.280
 6078SOL    HW130113   0.995   2.586  11.309
 6078SOL    HW230114   1.139   2.583  11.355
 6079SOL     OW30115   3.111   1.741  12.843
 6079SOL    HW130116   3.083   1.791  12.920
 6079SOL    HW230117   3.033   1.692  12.816
 6080SOL     OW30118   0.387   3.271  13.720
 6080SOL    HW130119   0.384   3.364  13.742
 6080SOL    HW230120   0.301   3.253  13.682
 6081SOL     OW30121   4.311   2.344  12.632
 6081SOL    HW130122   4.392   2.395  12.624
 6081SOL    HW230123   4.324   2.271  12.572
 6082SOL     OW30124   1.572   1.836  10.606
 6082SOL    HW130125   1.610   1.865  10.523
 6082SOL    HW230126   1.648   1.814  10.660
 6083SOL     OW30127   3.411   1.279  16.742
 6083SOL    HW130128   3.456   1.305  16.822
 6083SOL    HW230129   3.318   1.279  16.765
 6084SOL     OW30130   1.900   2.963   0.940
 6084SOL    HW130131   1.813   2.994   0.966
 6084SOL    HW230132   1.888   2.869   0.926
 6085SOL     OW30133   4.786   3.728   0.408
 6085SOL    HW130134   4.735   3.791   0.357
 6085SOL    HW230135   0.085   3.764   0.409
 6086SOL     OW30136   3.621   0.307   1.673
 6086SOL    HW130137   3.568   0.230   1.692
 6086SOL    HW230138   3.578   0.349   1.599
 6087SOL     OW30139   1.080   4.660  19.811
 6087SOL    HW130140   1.049   4.609  19.886
 6087SOL    HW230141   1.082   4.750  19.842
 6088SOL     OW30142   4.473   2.558  17.623
 6088SOL    HW130143   4.425   2.532  17.702
 6088SOL    HW230144   4.409   2.550  17.552
 6089SOL     OW30145   3.792   2.040   6.970
 6089SOL    HW130146   3.820   2.051   7.061
 6089SOL    HW230147   3.696   2.045   6.973
 6090SOL     OW30148   4.071   1.751  18.084
 6090SOL    HW130149   3.984   1.790  18.073
 6090SOL    HW230150   4.081   1.693  18.008
 6091SOL     OW30151   2.885   0.493   2.143
 6091SOL    HW130152   2.933   0.420   2.103
 6091SOL    HW230153   2.953   0.553   2.173
 6092SOL     OW30154   3.919   4.676  15.726
 6092SOL    HW130155   3.831   4.652  15.697
 6092SOL    HW230156   3.907   4.754  15.779
 6093SOL     OW30157   4.761   1.191   0.717
 6093SOL    HW130158   4.765   1.103   0.755
 6093SOL    HW230159   4.670   1.219   0.730
 6094SOL     OW30160   2.881   2.121   3.204
 6094SOL    HW130161   2.835   2.122   3.288
 6094SOL    HW230162   2.947   2.052   3.214
 6095SOL     OW30163   4.735   2.516  12.446
 6095SOL    HW130164   4.694   2.481  12.525
 6095SOL    HW230165   4.753   2.439  12.392
 6096SOL     OW30166   2.451   2.110   1.129
 6096SOL    HW130167   2.431   2.065   1.211
 6096SOL    HW230168   2.399   2.190   1.132
 6097SOL     OW30169   0.563   2.138  13.838
 6097SOL    HW130170   0.641   2.129  13.783
 6097SOL    HW230171   0.530   2.226  13.818
 6098SOL     OW30172   0.854   4.588  12.288
 6098SOL    HW130173   0.832   4.512  12.234
 6098SOL    HW230174   0.899   4.551  12.364
 6099SOL     OW30175   2.802   0.759  19.865
 6099SOL    HW130176   2.816   0.835  19.921
 6099SOL    HW230177   2.795   0.686  19.926
 6100SOL     OW30178   1.952   0.318  16.042
 6100SOL    HW130179   1.899   0.246  16.009
 6100SOL    HW230180   2.004   0.279  16.112
 6101SOL     OW30181   4.662   4.387  16.294
 6101SOL    HW130182   4.607   4.312  16.272
 6101SOL    HW230183   4.751   4.351  16.300
 6102SOL     OW30184   2.839   0.883   4.431
 6102SOL    HW130185   2.904   0.838   4.377
 6102SOL    HW230186   2.865   0.863   4.521
 6103SOL     OW30187   0.385   0.747   1.884
 6103SOL    HW130188   0.403   0.762   1.977
 6103SOL    HW230189   0.430   0.819   1.839
 6104SOL     OW30190   2.773   1.928   7.635
 6104SOL    HW130191   2.828   1.967   7.568
 6104SOL    HW230192   2.806   1.964   7.717
 6105SOL     OW30193   0.540   2.553  17.215
 6105SOL    HW130194   0.503   2.620  17.157
 6105SOL    HW230195   0.480   2.551  17.290
 6106SOL     OW30196   4.781   2.279  12.260
 6106SOL    HW130197   4.741   2.193  12.270
 6106SOL    HW230198   0.082   2.267  12.289
 6107SOL     OW30199   2.919   4.450  13.426
 6107SOL    HW130200   2.939   4.456  13.519
 6107SOL    HW230201   2.825   4.432  13.423
 6108SOL     OW30202   1.034   2.062  12.366
 6108SOL    HW130203   1.020   1.982  12.315
 6108SOL    HW230204   0.952   2.075  12.413
 6109SOL     OW30205   4.641   2.974   2.393
 6109SOL    HW130206   4.724   2.928   2.381
 6109SOL    HW230207   4.613   2.996   2.304
 6110SOL     OW30208   1.360   2.558  13.278
 6110SOL    HW130209   1.425   2.495  13.310
 6110SOL    HW230210   1.301   2.506  13.224
 6111SOL     OW30211   1.495   0.105  15.145
 6111SOL    HW130212   1.566   0.166  15.165
 6111SOL    HW230213   1.462   0.134  15.060
 6112SOL     OW30214   0.398   1.971  14.480
 6112SOL    HW130215   0.421   1.937  14.393
 6112SOL    HW230216   0.465   1.934  14.538
 6113SOL     OW30217   0.294   0.733  19.099
 6113SOL    HW130218   0.297   0.691  19.185
 6113SOL    HW230219   0.385   0.735  19.070
 6114SOL     OW30220   1.203   1.419  13.732
 6114SOL    HW130221   1.275   1.370  13.772
 6114SOL    HW230222   1.125   1.368  13.753
 6115SOL     OW30223   2.940   0.924  14.655
 6115SOL    HW130224   2.913   0.917  14.747
 6115SOL    HW230225   2.948   1.018  14.640
 6116SOL     OW30226   1.687   4.690   4.156
 6116SOL    HW130227   1.746   4.764   4.143
 6116SOL    HW230228   1.602   4.721   4.126
 6117SOL     OW30229   0.696   2.861  17.950
 6117SOL    HW130230   0.752   2.831  18.022
 6117SOL    HW230231   0.608   2.832  17.975
 6118SOL     OW30232   0.596   3.991   2.052
 6118SOL    HW130233   0.673   3.948   2.089
 6118SOL    HW230234   0.522   3.943   2.088
 6119SOL     OW30235   0.121   2.096  12.754
 6119SOL    HW130236   0.028   2.113  12.742
 6119SOL    HW230237   0.142   2.135  12.839
 6120SOL     OW30238   1.326   3.042  17.852
 6120SOL    HW130239   1.350   2.949  17.852
 6120SOL    HW230240   1.250   3.047  17.910
 6121SOL     OW30241   4.084   3.183   8.637
 6121SOL    HW130242   4.086   3.270   8.677
 6121SOL    HW230243   4.000   3.180   8.591
 6122SOL     OW30244   1.497   1.316   2.932
 6122SOL    HW130245   1.451   1.260   2.870
 6122SOL    HW230246   1.471   1.405   2.909
 6123SOL     OW30247   0.613   0.226  14.179
 6123SOL    HW130248   0.646   0.142  14.149
 6123SOL    HW230249   0.562   0.260  14.106
 6124SOL     OW30250   4.238   3.647  17.691
 6124SOL    HW130251   4.169   3.606  17.639
 6124SOL    HW230252   4.274   3.715  17.634
 6125SOL     OW30253   4.571   1.301   1.013
 6125SOL    HW130254   4.665   1.304   1.028
 6125SOL    HW230255   4.556   1.216   0.971
 6126SOL     OW30256   3.950   2.578  20.588
 6126SOL    HW130257   4.019   2.572  20.522
 6126SOL    HW230258   3.968   2.660  20.634
 6127SOL     OW30259   1.565   0.770   5.532
 6127SOL    HW130260   1.535   0.747   5.620
 6127SOL    HW230261   1.651   0.728   5.525
 6128SOL     OW30262   0.935   3.301  18.880
 6128SOL    HW130263   1.022   3.275  18.911
 6128SOL    HW230264   0.952   3.365  18.811
 6129SOL     OW30265   0.371   0.988   6.088
 6129SOL    HW130266   0.417   0.991   6.172
 6129SOL    HW230267   0.299   0.926   6.102
 6130SOL     OW30268   3.289   0.550   4.559
 6130SOL    HW130269   3.215   0.570   4.617
 6130SOL    HW230270   3.248   0.520   4.478
 6131SOL     OW30271   4.649   1.685   6.654
 6131SOL    HW130272   4.683   1.638   6.730
 6131SOL    HW230273   4.704   1.763   6.648
 6132SOL     OW30274   3.549   0.818  11.535
 6132SOL    HW130275   3.622   0.770  11.495
 6132SOL    HW230276   3.588   0.862  11.610
 6133SOL     OW30277   4.606   2.373  18.528
 6133SOL    HW130278   4.588   2.286  18.492
 6133SOL    HW230279   4.547   2.381  18.603
 6134SOL     OW30280   1.012   3.953  18.111
 6134SOL    HW130281   0.957   3.879  18.136
 6134SOL    HW230282   0.971   3.988  18.032
 6135SOL     OW30283   0.068   1.889   4.260
 6135SOL    HW130284   4.781   1.882   4.203
 6135SOL    HW230285   0.041   1.848   4.342
 6136SOL     OW30286   1.299   0.749  17.690
 6136SOL    HW130287   1.231   0.715  17.749
 6136SOL    HW230288   1.326   0.673  17.638
 6137SOL     OW30289   1.219   0.854  18.261
 6137SOL    HW130290   1.280   0.805  18.316
 6137SOL    HW230291   1.167   0.905  18.323
 6138SOL     OW30292   1.865   2.316  14.170
 6138SOL    HW130293   1.773   2.308  14.197
 6138SOL    HW230294   1.914   2.321  14.252
 6139SOL     OW30295   0.088   4.568  19.145
 6139SOL    HW130296   0.053   4.591  19.231
 6139SOL    HW230297   0.022   4.600  19.083
 6140SOL     OW30298   2.344   3.091   7.136
 6140SOL    HW130299   2.265   3.078   7.189
 6140SOL    HW230300   2.416   3.093   7.200
 6141SOL     OW30301   3.982   0.901  16.713
 6141SOL    HW130302   4.013   0.991  16.713
 6141SOL    HW230303   3.888   0.908  16.699
 6142SOL     OW30304   0.475   0.030   2.553
 6142SOL    HW130305   0.509   0.058   2.468
 6142SOL    HW230306   0.521   4.738   2.571
 6143SOL     OW30307   3.749   3.213   0.389
 6143SOL    HW130308   3.798   3.202   0.307
 6143SOL    HW230309   3.735   3.307   0.396
 6144SOL     OW30310   4.614   2.452  18.160
 6144SOL    HW130311   4.654   2.510  18.096
 6144SOL    HW230312   4.687   2.402  18.196
 6145SOL     OW30313   1.099   0.643  19.701
 6145SOL    HW130314   1.017   0.679  19.735
 6145SOL    HW230315   1.072   0.567  19.650
 6146SOL     OW30316   2.447   4.123   4.614
 6146SOL    HW130317   2.438   4.122   4.709
 6146SOL    HW230318   2.416   4.210   4.588
 6147SOL     OW30319   1.371   1.483  17.363
 6147SOL    HW130320   1.401   1.562  17.408
 6147SOL    HW230321   1.308   1.515  17.299
 6148SOL     OW30322   1.606   1.693   7.382
 6148SOL    HW130323   1.550   1.634   7.332
 6148SOL    HW230324   1.570   1.780   7.365
 6149SOL     OW30325   4.076   3.739  18.146
 6149SOL    HW130326   4.149   3.680  18.127
 6149SOL    HW230327   4.118   3.821  18.172
 6150SOL     OW30328   3.220   0.525   0.310
 6150SOL    HW130329   3.186   0.498   0.225
 6150SOL    HW230330   3.271   0.604   0.292
 6151SOL     OW30331   2.018   4.387  15.998
 6151SOL    HW130332   2.081   4.459  15.994
 6151SOL    HW230333   1.965   4.397  15.919
 6152SOL     OW30334   4.768   2.914   1.198
 6152SOL    HW130335   0.030   2.879   1.126
 6152SOL    HW230336   4.692   2.855   1.204
 6153SOL     OW30337   0.038   2.379  19.212
 6153SOL    HW130338   0.125   2.419  19.203
 6153SOL    HW230339   4.781   2.406  19.133
 6154SOL     OW30340   2.803   2.711   0.098
 6154SOL    HW130341   2.883   2.686   0.051
 6154SOL    HW230342   2.762   2.776   0.041
 6155SOL     OW30343   0.285   3.140   5.035
 6155SOL    HW130344   0.287   3.230   5.001
 6155SOL    HW230345   0.355   3.138   5.100
 6156SOL     OW30346   2.050   0.224   0.858
 6156SOL    HW130347   2.122   0.280   0.828
 6156SOL    HW230348   1.980   0.239   0.795
 6157SOL     OW30349   3.875   4.505  19.579
 6157SOL    HW130350   3.791   4.535  19.543
 6157SOL    HW230351   3.880   4.412  19.555
 6158SOL     OW30352   2.755   3.998  15.052
 6158SOL    HW130353   2.806   4.070  15.014
 6158SOL    HW230354   2.746   4.021  15.145
 6159SOL     OW30355   3.298   4.473  20.637
 6159SOL    HW130356   3.380   4.440  20.601
 6159SOL    HW230357   3.264   4.532  20.570
 6160SOL     OW30358   1.571   2.714   1.991
 6160SOL    HW130359   1.557   2.634   2.042
 6160SOL    HW230360   1.569   2.785   2.056
 6161SOL     OW30361   0.915   1.797   1.457
 6161SOL    HW130362   1.003   1.819   1.487
 6161SOL    HW230363   0.875   1.882   1.436
 6162SOL     OW30364   1.350   1.355   4.622
 6162SOL    HW130365   1.260   1.338   4.649
 6162SOL    HW230366   1.402   1.290   4.669
 6163SOL     OW30367   1.987   2.405  17.984
 6163SOL    HW130368   1.942   2.442  18.061
 6163SOL    HW230369   1.980   2.473  17.917
 6164SOL     OW30370   3.104   4.312   2.099
 6164SOL    HW130371   3.148   4.360   2.029
 6164SOL    HW230372   3.035   4.263   2.054
 6165SOL     OW30373   2.604   0.253   2.702
 6165SOL    HW130374   2.522   0.290   2.735
 6165SOL    HW230375   2.655   0.329   2.674
 6166SOL     OW30376   1.817   4.577  18.515
 6166SOL    HW130377   1.854   4.623  18.590
 6166SOL    HW230378   1.893   4.554  18.461
 6167SOL     OW30379   1.932   3.398   3.821
 6167SOL    HW130380   1.949   3.487   3.791
 6167SOL    HW230381   2.014   3.371   3.863
 6168SOL     OW30382   4.283   2.867   2.228
 6168SOL    HW130383   4.311   2.936   2.168
 6168SOL    HW230384   4.245   2.913   2.303
 6169SOL     OW30385   3.995   3.438   5.043
 6169SOL    HW130386   3.957   3.524   5.063
 6169SOL    HW230387   4.085   3.458   5.016
 6170SOL     OW30388   3.802   1.962   1.363
 6170SOL    HW130389   3.732   1.897   1.352
 6170SOL    HW230390   3.839   1.943   1.449
 6171SOL     OW30391   0.138   4.057  16.779
 6171SOL    HW130392   0.132   4.108  16.698
 6171SOL    HW230393   0.207   4.101  16.829
 6172SOL     OW30394   3.148   1.897   8.188
 6172SOL    HW130395   3.204   1.955   8.137
 6172SOL    HW230396   3.090   1.857   8.123
 6173SOL     OW30397   3.035   0.003   3.149
 6173SOL    HW130398   3.072   0.027   3.064
 6173SOL    HW230399   3.031   4.697   3.148
 6174SOL     OW30400   3.851   0.281   0.094
 6174SOL    HW130401   3.858   0.231   0.175
 6174SOL    HW230402   3.870   0.371   0.119
 6175SOL     OW30403   1.096   1.379   0.861
 6175SOL    HW130404   1.049   1.454   0.825
 6175SOL    HW230405   1.148   1.415   0.933
 6176SOL     OW30406   2.574   2.518  15.433
 6176SOL    HW130407   2.549   2.552  15.519
 6176SOL    HW230408   2.593   2.596  15.381
 6177SOL     OW30409   0.589   3.196  17.613
 6177SOL    HW130410   0.678   3.193  17.578
 6177SOL    HW230411   0.565   3.289  17.609
 6178SOL     OW30412   0.482   1.609   5.670
 6178SOL    HW130413   0.422   1.661   5.723
 6178SOL    HW230414   0.451   1.519   5.679
 6179SOL     OW30415   1.691   1.777   6.523
 6179SOL    HW130416   1.733   1.863   6.518
 6179SOL    HW230417   1.647   1.777   6.608
 6180SOL     OW30418   2.810   3.179   2.153
 6180SOL    HW130419   2.793   3.269   2.180
 6180SOL    HW230420   2.876   3.147   2.214
 6181SOL     OW30421   4.501   2.253   7.462
 6181SOL    HW130422   4.563   2.319   7.430
 6181SOL    HW230423   4.435   2.303   7.510
 6182SOL     OW30424   4.092   0.461   1.456
 6182SOL    HW130425   4.177   0.478   1.497
 6182SOL    HW230426   4.113   0.441   1.365
 6183SOL     OW30427   1.013   2.329  20.087
 6183SOL    HW130428   0.942   2.383  20.052
 6183SOL    HW230429   1.083   2.337  20.023
 6184SOL     OW30430   0.816   2.778   0.599
 6184SOL    HW130431   0.888   2.838   0.579
 6184SOL    HW230432   0.857   2.692   0.604
 6185SOL     OW30433   1.040   1.526  15.939
 6185SOL    HW130434   1.087   1.559  15.862
 6185SOL    HW230435   0.962   1.582  15.945
 6186SOL     OW30436   4.169   2.565   4.624
 6186SOL    HW130437   4.214   2.546   4.707
 6186SOL    HW230438   4.239   2.568   4.559
 6187SOL     OW30439   1.173   4.184   3.118
 6187SOL    HW130440   1.241   4.166   3.053
 6187SOL    HW230441   1.092   4.153   3.077
 6188SOL     OW30442   3.240   1.798   1.556
 6188SOL    HW130443   3.190   1.716   1.551
 6188SOL    HW230444   3.173   1.867   1.560
 6189SOL     OW30445   4.270   4.432   4.068
 6189SOL    HW130446   4.283   4.495   3.998
 6189SOL    HW230447   4.213   4.365   4.030
 6190SOL     OW30448   4.270   3.443  18.718
 6190SOL    HW130449   4.226   3.419  18.637
 6190SOL    HW230450   4.315   3.363  18.746
 6191SOL     OW30451   4.439   2.332   4.030
 6191SOL    HW130452   4.379   2.374   4.092
 6191SOL    HW230453   4.429   2.382   3.949
 6192SOL     OW30454   1.889   0.159  15.449
 6192SOL    HW130455   1.892   0.182  15.542
 6192SOL    HW230456   1.924   0.236  15.404
 6193SOL     OW30457   4.304   3.458   3.190
 6193SOL    HW130458   4.359   3.479   3.265
 6193SOL    HW230459   4.214   3.468   3.222
 6194SOL     OW30460   4.136   0.820   2.782
 6194SOL    HW130461   4.116   0.843   2.873
 6194SOL    HW230462   4.222   0.779   2.786
 6195SOL     OW30463   1.902   1.990   2.849
 6195SOL    HW130464   1.901   1.913   2.906
 6195SOL    HW230465   1.839   1.970   2.780
 6196SOL     OW30466   2.516   3.909  16.148
 6196SOL    HW130467   2.603   3.939  16.175
 6196SOL    HW230468   2.523   3.814  16.147
 6197SOL     OW30469   2.588   4.540  20.266
 6197SOL    HW130470   2.627   4.455  20.287
 6197SOL    HW230471   2.524   4.554  20.336
 6198SOL     OW30472   0.645   3.443  19.707
 6198SOL    HW130473   0.580   3.379  19.735
 6198SOL    HW230474   0.658   3.499  19.783
 6199SOL     OW30475   0.290   0.481  15.669
 6199SOL    HW130476   0.323   0.462  15.581
 6199SOL    HW230477   0.203   0.441  15.672
 6200SOL     OW30478   0.977   4.512  20.792
 6200SOL    HW130479   1.042   4.457  20.836
 6200SOL    HW230480   0.986   4.491  20.699
 6201SOL     OW30481   2.465   2.173  17.951
 6201SOL    HW130482   2.531   2.178  17.882
 6201SOL    HW230483   2.386   2.142  17.906
 6202SOL     OW30484   4.376   4.026   5.918
 6202SOL    HW130485   4.449   4.014   5.857
 6202SOL    HW230486   4.305   3.975   5.881
 6203SOL     OW30487   2.951   1.225   0.720
 6203SOL    HW130488   2.856   1.220   0.731
 6203SOL    HW230489   2.986   1.163   0.784
 6204SOL     OW30490   3.280   1.978  11.534
 6204SOL    HW130491   3.321   2.047  11.482
 6204SOL    HW230492   3.315   1.991  11.622
 6205SOL     OW30493   2.824   3.205  16.010
 6205SOL    HW130494   2.911   3.174  15.984
 6205SOL    HW230495   2.831   3.300  16.005
 6206SOL     OW30496   1.078   4.718  17.554
 6206SOL    HW130497   1.072   4.738  17.461
 6206SOL    HW230498   1.168   4.688  17.567
 6207SOL     OW30499   0.513   3.968  14.736
 6207SOL    HW130500   0.488   3.929  14.652
 6207SOL    HW230501   0.515   3.894  14.797
 6208SOL     OW30502   1.970   2.174  13.953
 6208SOL    HW130503   1.928   2.235  13.892
 6208SOL    HW230504   1.925   2.189  14.036
 6209SOL     OW30505   0.885   3.603   4.495
 6209SOL    HW130506   0.842   3.561   4.420
 6209SOL    HW230507   0.845   3.690   4.500
 6210SOL     OW30508   1.233   3.527   7.105
 6210SOL    HW130509   1.320   3.544   7.142
 6210SOL    HW230510   1.183   3.606   7.123
 6211SOL     OW30511   4.037   4.240   5.651
 6211SOL    HW130512   4.069   4.162   5.605
 6211SOL    HW230513   3.986   4.205   5.724
 6212SOL     OW30514   3.347   3.988   3.505
 6212SOL    HW130515   3.411   3.939   3.556
 6212SOL    HW230516   3.296   4.036   3.570
 6213SOL     OW30517   3.917   3.360   6.022
 6213SOL    HW130518   3.959   3.363   5.936
 6213SOL    HW230519   3.838   3.413   6.012
 6214SOL     OW30520   3.673   0.245  17.713
 6214SOL    HW130521   3.603   0.215  17.771
 6214SOL    HW230522   3.705   0.165  17.670
 6215SOL     OW30523   2.447   4.654   2.184
 6215SOL    HW130524   2.425   4.599   2.259
 6215SOL    HW230525   2.493   4.729   2.222
 6216SOL     OW30526   2.675   2.133   4.680
 6216SOL    HW130527   2.626   2.082   4.615
 6216SOL    HW230528   2.626   2.121   4.761
 6217SOL     OW30529   3.926   3.769   2.955
 6217SOL    HW130530   3.852   3.718   2.922
 6217SOL    HW230531   3.998   3.706   2.961
 6218SOL     OW30532   0.113   1.128  18.334
 6218SOL    HW130533   0.207   1.145  18.343
 6218SOL    HW230534   0.086   1.093  18.419
 6219SOL     OW30535   0.737   4.544   0.495
 6219SOL    HW130536   0.719   4.610   0.428
 6219SOL    HW230537   0.654   4.533   0.541
 6220SOL     OW30538   1.477   3.404   0.620
 6220SOL    HW130539   1.527   3.478   0.654
 6220SOL    HW230540   1.393   3.409   0.666
 6221SOL     OW30541   2.162   2.711   1.164
 6221SOL    HW130542   2.076   2.731   1.201
 6221SOL    HW230543   2.221   2.776   1.202
 6222SOL     OW30544   0.450   0.241  13.955
 6222SOL    HW130545   0.498   0.166  13.921
 6222SOL    HW230546   0.427   0.292  13.878
 6223SOL     OW30547   3.178   1.189  17.497
 6223SOL    HW130548   3.273   1.197  17.506
 6223SOL    HW230549   3.151   1.272  17.458
 6224SOL     OW30550   0.730   0.776   9.639
 6224SOL    HW130551   0.668   0.711   9.671
 6224SOL    HW230552   0.678   0.855   9.627
 6225SOL     OW30553   0.594   2.097   3.710
 6225SOL    HW130554   0.617   2.040   3.636
 6225SOL    HW230555   0.541   2.041   3.767
 6226SOL     OW30556   1.973   2.088  16.836
 6226SOL    HW130557   1.937   2.079  16.924
 6226SOL    HW230558   1.902   2.128  16.786
 6227SOL     OW30559   2.679   2.405  19.398
 6227SOL    HW130560   2.734   2.399  19.476
 6227SOL    HW230561   2.643   2.494  19.401
 6228SOL     OW30562   1.094   2.322   4.703
 6228SOL    HW130563   1.020   2.262   4.694
 6228SOL    HW230564   1.088   2.379   4.626
 6229SOL     OW30565   3.672   3.668  18.438
 6229SOL    HW130566   3.685   3.724  18.361
 6229SOL    HW230567   3.741   3.694  18.499
 6230SOL     OW30568   3.951   2.951  16.787
 6230SOL    HW130569   3.865   2.939  16.828
 6230SOL    HW230570   4.013   2.951  16.860
 6231SOL     OW30571   3.804   2.558   0.551
 6231SOL    HW130572   3.866   2.631   0.553
 6231SOL    HW230573   3.819   2.515   0.467
 6232SOL     OW30574   4.626   2.821   2.016
 6232SOL    HW130575   4.563   2.768   2.065
 6232SOL    HW230576   4.632   2.903   2.065
 6233SOL     OW30577   3.891   2.232  18.298
 6233SOL    HW130578   3.886   2.217  18.204
 6233SOL    HW230579   3.820   2.179  18.335
 6234SOL     OW30580   0.315   0.158  16.394
 6234SOL    HW130581   0.402   0.121  16.378
 6234SOL    HW230582   0.332   0.242  16.437
 6235SOL     OW30583   2.799   4.139  19.463
 6235SOL    HW130584   2.774   4.085  19.388
 6235SOL    HW230585   2.716   4.176  19.494
 6236SOL     OW30586   0.615   1.456   4.023
 6236SOL    HW130587   0.650   1.393   3.960
 6236SOL    HW230588   0.643   1.541   3.990
 6237SOL     OW30589   2.103   1.306   1.218
 6237SOL    HW130590   2.031   1.336   1.273
 6237SOL    HW230591   2.125   1.382   1.164
 6238SOL     OW30592   2.040   1.764   2.077
 6238SOL    HW130593   2.060   1.722   1.993
 6238SOL    HW230594   2.116   1.745   2.132
 6239SOL     OW30595   1.707   3.845   0.003
 6239SOL    HW130596   1.640   3.888   0.056
 6239SOL    HW230597   1.667   3.763  21.232
 6240SOL     OW30598   4.748   1.410   6.293
 6240SOL    HW130599   0.051   1.389   6.302
 6240SOL    HW230600   4.718   1.358   6.218
 6241SOL     OW30601   1.917   3.284  18.030
 6241SOL    HW130602   2.007   3.315  18.039
 6241SOL    HW230603   1.908   3.264  17.937
 6242SOL     OW30604   4.029   2.394   1.796
 6242SOL    HW130605   4.091   2.400   1.869
 6242SOL    HW230606   4.073   2.339   1.731
 6243SOL     OW30607   3.610   0.096   3.051
 6243SOL    HW130608   3.662   0.086   2.971
 6243SOL    HW230609   3.575   0.185   3.046
 6244SOL     OW30610   3.163   3.700  19.738
 6244SOL    HW130611   3.122   3.616  19.759
 6244SOL    HW230612   3.094   3.765  19.753
 6245SOL     OW30613   2.900   2.663  18.001
 6245SOL    HW130614   2.972   2.602  18.014
 6245SOL    HW230615   2.915   2.701  17.915
 6246SOL     OW30616   2.170   3.662  20.259
 6246SOL    HW130617   2.251   3.623  20.291
 6246SOL    HW230618   2.103   3.596  20.277
 6247SOL     OW30619   3.679   2.716  14.640
 6247SOL    HW130620   3.628   2.730  14.560
 6247SOL    HW230621   3.633   2.767  14.707
 6248SOL     OW30622   1.461   4.207   4.171
 6248SOL    HW130623   1.551   4.234   4.154
 6248SOL    HW230624   1.455   4.119   4.134
 6249SOL     OW30625   3.851   0.164   3.562
 6249SOL    HW130626   3.933   0.205   3.535
 6249SOL    HW230627   3.806   0.142   3.480
 6250SOL     OW30628   2.852   0.598   4.201
 6250SOL    HW130629   2.764   0.635   4.191
 6250SOL    HW230630   2.839   0.518   4.252
 6251SOL     OW30631   2.125   3.012  19.826
 6251SOL    HW130632   2.174   2.962  19.761
 6251SOL    HW230633   2.169   3.097  19.829
 6252SOL     OW30634   4.428   0.779  18.988
 6252SOL    HW130635   4.457   0.829  19.064
 6252SOL    HW230636   4.509   0.754  18.943
 6253SOL     OW30637   1.562   2.485   5.168
 6253SOL    HW130638   1.534   2.535   5.245
 6253SOL    HW230639   1.486   2.432   5.144
 6254SOL     OW30640   3.820   2.280   5.620
 6254SOL    HW130641   3.811   2.226   5.542
 6254SOL    HW230642   3.821   2.218   5.693
 6255SOL     OW30643   0.991   1.141   2.662
 6255SOL    HW130644   0.953   1.200   2.596
 6255SOL    HW230645   1.006   1.059   2.615
 6256SOL     OW30646   2.696   4.425   3.137
 6256SOL    HW130647   2.728   4.501   3.186
 6256SOL    HW230648   2.656   4.369   3.203
 6257SOL     OW30649   1.614   0.431   8.997
 6257SOL    HW130650   1.631   0.349   9.043
 6257SOL    HW230651   1.583   0.404   8.910
 6258SOL     OW30652   1.742   4.013   7.092
 6258SOL    HW130653   1.835   3.990   7.094
 6258SOL    HW230654   1.739   4.104   7.120
 6259SOL     OW30655   0.297   0.934   4.504
 6259SOL    HW130656   0.376   0.982   4.528
 6259SOL    HW230657   0.329   0.856   4.458
 6260SOL     OW30658   3.611   1.405   0.282
 6260SOL    HW130659   3.592   1.374   0.370
 6260SOL    HW230660   3.706   1.397   0.274
 6261SOL     OW30661   3.426   1.408   7.113
 6261SOL    HW130662   3.374   1.397   7.034
 6261SOL    HW230663   3.512   1.372   7.091
 6262SOL     OW30664   4.186   0.466   2.599
 6262SOL    HW130665   4.224   0.401   2.659
 6262SOL    HW230666   4.255   0.531   2.588
 6263SOL     OW30667   0.481   2.859  16.181
 6263SOL    HW130668   0.410   2.923  16.176
 6263SOL    HW230669   0.453   2.788  16.123
 6264SOL     OW30670   2.367   1.512   1.223
 6264SOL    HW130671   2.358   1.417   1.225
 6264SOL    HW230672   2.393   1.536   1.312
 6265SOL     OW30673   3.904   2.681  15.422
 6265SOL    HW130674   3.950   2.678  15.338
 6265SOL    HW230675   3.920   2.595  15.461
 6266SOL     OW30676   1.844   2.149   4.711
 6266SOL    HW130677   1.873   2.165   4.621
 6266SOL    HW230678   1.905   2.083   4.744
 6267SOL     OW30679   0.554   0.563  10.299
 6267SOL    HW130680   0.638   0.562  10.254
 6267SOL    HW230681   0.528   0.655  10.298
 6268SOL     OW30682   1.099   2.999   2.789
 6268SOL    HW130683   1.134   3.066   2.730
 6268SOL    HW230684   1.053   2.938   2.731
 6269SOL     OW30685   3.905   2.949   3.414
 6269SOL    HW130686   3.812   2.948   3.435
 6269SOL    HW230687   3.937   3.032   3.449
 6270SOL     OW30688   3.195   2.364  21.254
 6270SOL    HW130689   3.232   2.352  21.166
 6270SOL    HW230690   3.160   2.278   0.020
 6271SOL     OW30691   0.068   2.057   3.670
 6271SOL    HW130692   0.049   1.995   3.600
 6271SOL    HW230693   0.140   2.018   3.719
 6272SOL     OW30694   1.925   3.441   8.629
 6272SOL    HW130695   1.973   3.416   8.708
 6272SOL    HW230696   1.858   3.373   8.619
 6273SOL     OW30697   1.592   3.310  12.857
 6273SOL    HW130698   1.547   3.279  12.935
 6273SOL    HW230699   1.644   3.235  12.828
 6274SOL     OW30700   0.299   2.266   2.029
 6274SOL    HW130701   0.263   2.313   2.104
 6274SOL    HW230702   0.288   2.174   2.052
 6275SOL     OW30703   0.243   0.687  14.964
 6275SOL    HW130704   0.163   0.728  14.932
 6275SOL    HW230705   0.229   0.593  14.952
 6276SOL     OW30706   4.160   3.300   1.177
 6276SOL    HW130707   4.215   3.312   1.255
 6276SOL    HW230708   4.143   3.389   1.146
 6277SOL     OW30709   1.912   0.458   4.684
 6277SOL    HW130710   1.908   0.430   4.775
 6277SOL    HW230711   2.005   0.458   4.663
 6278SOL     OW30712   3.406   1.982  19.874
 6278SOL    HW130713   3.410   2.074  19.848
 6278SOL    HW230714   3.324   1.950  19.836
 6279SOL     OW30715   0.627   3.761   4.933
 6279SOL    HW130716   0.566   3.688   4.943
 6279SOL    HW230717   0.673   3.743   4.851
 6280SOL     OW30718   0.266   1.857   6.211
 6280SOL    HW130719   0.170   1.860   6.215
 6280SOL    HW230720   0.287   1.765   6.197
 6281SOL     OW30721   0.959   1.858  19.163
 6281SOL    HW130722   0.873   1.840  19.201
 6281SOL    HW230723   0.947   1.938  19.112
 6282SOL     OW30724   0.377   0.872  19.677
 6282SOL    HW130725   0.453   0.912  19.635
 6282SOL    HW230726   0.390   0.886  19.771
 6283SOL     OW30727   2.039   4.289  14.630
 6283SOL    HW130728   1.974   4.286  14.560
 6283SOL    HW230729   2.001   4.348  14.695
 6284SOL     OW30730   0.385   2.780   1.010
 6284SOL    HW130731   0.337   2.702   1.038
 6284SOL    HW230732   0.400   2.829   1.091
 6285SOL     OW30733   1.877   2.922  21.198
 6285SOL    HW130734   1.873   2.830  21.223
 6285SOL    HW230735   1.950   2.958  21.248
 6286SOL     OW30736   0.781   4.429   5.335
 6286SOL    HW130737   0.817   4.431   5.246
 6286SOL    HW230738   0.686   4.421   5.323
 6287SOL     OW30739   2.412   3.514   4.796
 6287SOL    HW130740   2.450   3.513   4.884
 6287SOL    HW230741   2.487   3.524   4.738
 6288SOL     OW30742   2.044   3.626   0.790
 6288SOL    HW130743   2.132   3.657   0.767
 6288SOL    HW230744   1.997   3.705   0.817
 6289SOL     OW30745   2.403   1.293  18.192
 6289SOL    HW130746   2.324   1.239  18.181
 6289SOL    HW230747   2.401   1.321  18.283
 6290SOL     OW30748   2.105   1.777   8.776
 6290SOL    HW130749   2.199   1.762   8.764
 6290SOL    HW230750   2.080   1.831   8.701
 6291SOL     OW30751   3.966   1.467  19.771
 6291SOL    HW130752   4.015   1.537  19.728
 6291SOL    HW230753   3.875   1.497  19.772
 6292SOL     OW30754   1.814   3.572   2.422
 6292SOL    HW130755   1.907   3.560   2.442
 6292SOL    HW230756   1.793   3.660   2.454
 6293SOL     OW30757   0.073   0.347  18.619
 6293SOL    HW130758   0.093   0.330  18.711
 6293SOL    HW230759   0.001   0.287  18.599
 6294SOL     OW30760   1.830   3.957   4.944
 6294SOL    HW130761   1.739   3.928   4.936
 6294SOL    HW230762   1.868   3.899   5.010
 6295SOL     OW30763   1.646   1.892  14.180
 6295SOL    HW130764   1.680   1.822  14.124
 6295SOL    HW230765   1.551   1.889  14.167
 6296SOL     OW30766   3.451   1.980  13.211
 6296SOL    HW130767   3.480   2.064  13.175
 6296SOL    HW230768   3.442   1.923  13.135
 6297SOL     OW30769   4.232   4.620   1.708
 6297SOL    HW130770   4.181   4.627   1.789
 6297SOL    HW230771   4.233   4.526   1.689
 6298SOL     OW30772   0.453   3.525  15.227
 6298SOL    HW130773   0.424   3.482  15.147
 6298SOL    HW230774   0.376   3.523  15.284
 6299SOL     OW30775   4.363   2.541  19.209
 6299SOL    HW130776   4.284   2.543  19.263
 6299SOL    HW230777   4.345   2.601  19.137
 6300SOL     OW30778   1.991   1.634   1.540
 6300SOL    HW130779   2.021   1.552   1.580
 6300SOL    HW230780   2.069   1.690   1.539
 6301SOL     OW30781   3.827   4.251  15.814
 6301SOL    HW130782   3.840   4.326  15.872
 6301SOL    HW230783   3.858   4.176  15.864
 6302SOL     OW30784   2.177   1.414  12.628
 6302SOL    HW130785   2.133   1.344  12.676
 6302SOL    HW230786   2.201   1.374  12.544
 6303SOL     OW30787   0.388   3.986  21.076
 6303SOL    HW130788   0.462   3.928  21.057
 6303SOL    HW230789   0.368   3.970  21.168
 6304SOL     OW30790   2.487   1.125  19.461
 6304SOL    HW130791   2.441   1.193  19.412
 6304SOL    HW230792   2.484   1.048  19.404
 6305SOL     OW30793   2.060   4.596   1.369
 6305SOL    HW130794   2.046   4.519   1.424
 6305SOL    HW230795   2.037   4.567   1.281
 6306SOL     OW30796   4.449   1.137  18.992
 6306SOL    HW130797   4.447   1.093  18.907
 6306SOL    HW230798   4.485   1.072  19.052
 6307SOL     OW30799   3.943   2.256  17.087
 6307SOL    HW130800   4.026   2.232  17.047
 6307SOL    HW230801   3.894   2.174  17.092
 6308SOL     OW30802   3.239   3.606  16.424
 6308SOL    HW130803   3.273   3.527  16.467
 6308SOL    HW230804   3.299   3.621  16.351
 6309SOL     OW30805   1.947   1.533   4.094
 6309SOL    HW130806   2.013   1.486   4.145
 6309SOL    HW230807   1.997   1.580   4.027
 6310SOL     OW30808   1.640   4.307  11.894
 6310SOL    HW130809   1.637   4.399  11.921
 6310SOL    HW230810   1.693   4.264  11.961
 6311SOL     OW30811   4.635   2.196   1.800
 6311SOL    HW130812   4.700   2.145   1.848
 6311SOL    HW230813   4.573   2.131   1.766
 6312SOL     OW30814   2.938   1.677   4.492
 6312SOL    HW130815   2.873   1.664   4.561
 6312SOL    HW230816   2.886   1.694   4.413
 6313SOL     OW30817   0.921   4.179   0.254
 6313SOL    HW130818   0.838   4.222   0.273
 6313SOL    HW230819   0.955   4.225   0.177
 6314SOL     OW30820   2.561   0.536  19.134
 6314SOL    HW130821   2.518   0.456  19.103
 6314SOL    HW230822   2.490   0.587  19.173
 6315SOL     OW30823   0.184   4.249   6.076
 6315SOL    HW130824   0.240   4.322   6.102
 6315SOL    HW230825   0.097   4.288   6.069
 6316SOL     OW30826   3.760   4.102   0.669
 6316SOL    HW130827   3.797   4.042   0.604
 6316SOL    HW230828   3.738   4.181   0.620
 6317SOL     OW30829   2.496   1.957   4.542
 6317SOL    HW130830   2.442   2.035   4.528
 6317SOL    HW230831   2.472   1.897   4.471
 6318SOL     OW30832   3.611   3.653  19.376
 6318SOL    HW130833   3.574   3.657  19.464
 6318SOL    HW230834   3.659   3.735  19.366
 6319SOL     OW30835   2.273   3.932  17.134
 6319SOL    HW130836   2.342   3.991  17.164
 6319SOL    HW230837   2.208   3.932  17.204
 6320SOL     OW30838   4.086   4.503   5.779
 6320SOL    HW130839   4.095   4.416   5.741
 6320SOL    HW230840   4.053   4.488   5.867
 6321SOL     OW30841   3.178   2.521  18.515
 6321SOL    HW130842   3.214   2.446  18.562
 6321SOL    HW230843   3.100   2.545  18.564
 6322SOL     OW30844   0.129   2.257   7.064
 6322SOL    HW130845   0.039   2.276   7.091
 6322SOL    HW230846   0.182   2.280   7.140
 6323SOL     OW30847   0.408   4.521  18.904
 6323SOL    HW130848   0.388   4.615  18.908
 6323SOL    HW230849   0.481   4.509  18.964
 6324SOL     OW30850   0.845   2.975   1.139
 6324SOL    HW130851   0.807   3.051   1.184
 6324SOL    HW230852   0.811   2.980   1.050
 6325SOL     OW30853   0.379   1.164  14.225
 6325SOL    HW130854   0.308   1.159  14.161
 6325SOL    HW230855   0.357   1.097  14.290
 6326SOL     OW30856   1.232   4.501  11.359
 6326SOL    HW130857   1.282   4.548  11.292
 6326SOL    HW230858   1.148   4.546  11.362
 6327SOL     OW30859   0.312   4.775  13.318
 6327SOL    HW130860   0.339   0.019  13.404
 6327SOL    HW230861   0.368   0.032  13.256
 6328SOL     OW30862   3.416   3.722  20.471
 6328SOL    HW130863   3.472   3.684  20.403
 6328SOL    HW230864   3.440   3.815  20.473
 6329SOL     OW30865   1.597   0.627  13.910
 6329SOL    HW130866   1.580   0.664  13.824
 6329SOL    HW230867   1.586   0.700  13.970
 6330SOL     OW30868   0.762   2.224   3.470
 6330SOL    HW130869   0.818   2.236   3.547
 6330SOL    HW230870   0.724   2.311   3.455
 6331SOL     OW30871   0.337   4.269   0.409
 6331SOL    HW130872   0.430   4.245   0.413
 6331SOL    HW230873   0.337   4.362   0.386
 6332SOL     OW30874   0.319   2.656  15.918
 6332SOL    HW130875   0.249   2.641  15.854
 6332SOL    HW230876   0.400   2.642  15.869
 6333SOL     OW30877   3.712   2.035   7.805
 6333SOL    HW130878   3.720   1.960   7.747
 6333SOL    HW230879   3.692   1.997   7.891
 6334SOL     OW30880   1.191   3.039  11.916
 6334SOL    HW130881   1.205   3.024  12.009
 6334SOL    HW230882   1.120   2.979  11.893
 6335SOL     OW30883   1.898   0.540  19.217
 6335SOL    HW130884   1.881   0.538  19.311
 6335SOL    HW230885   1.927   0.630  19.200
 6336SOL     OW30886   2.974   2.860  13.991
 6336SOL    HW130887   3.033   2.923  14.033
 6336SOL    HW230888   2.972   2.887  13.899
 6337SOL     OW30889   0.298   3.834  16.661
 6337SOL    HW130890   0.346   3.817  16.742
 6337SOL    HW230891   0.244   3.911  16.681
 6338SOL     OW30892   2.747   4.598  19.709
 6338SOL    HW130893   2.805   4.531  19.746
 6338SOL    HW230894   2.767   4.598  19.615
 6339SOL     OW30895   1.922   2.396  17.506
 6339SOL    HW130896   1.848   2.447  17.539
 6339SOL    HW230897   1.889   2.306  17.502
 6340SOL     OW30898   1.165   3.221   0.703
 6340SOL    HW130899   1.180   3.211   0.797
 6340SOL    HW230900   1.228   3.161   0.663
 6341SOL     OW30901   1.143   3.024  15.799
 6341SOL    HW130902   1.061   3.010  15.752
 6341SOL    HW230903   1.209   2.981  15.745
 6342SOL     OW30904   2.973   3.813   4.019
 6342SOL    HW130905   2.931   3.897   4.001
 6342SOL    HW230906   3.013   3.824   4.105
 6343SOL     OW30907   3.772   3.425   4.634
 6343SOL    HW130908   3.813   3.364   4.696
 6343SOL    HW230909   3.678   3.417   4.651
 6344SOL     OW30910   2.235   0.709   5.606
 6344SOL    HW130911   2.205   0.786   5.654
 6344SOL    HW230912   2.329   0.721   5.597
 6345SOL     OW30913   1.640   4.781  19.063
 6345SOL    HW130914   1.579   4.728  19.012
 6345SOL    HW230915   1.629   0.080  19.029
 6346SOL     OW30916   1.336   1.287  11.088
 6346SOL    HW130917   1.311   1.364  11.037
 6346SOL    HW230918   1.432   1.288  11.087
 6347SOL     OW30919   3.199   4.591   6.178
 6347SOL    HW130920   3.211   4.604   6.272
 6347SOL    HW230921   3.247   4.663   6.138
 6348SOL     OW30922   4.293   4.752   4.704
 6348SOL    HW130923   4.238   0.032   4.668
 6348SOL    HW230924   4.242   4.716   4.776
 6349SOL     OW30925   2.542   3.320  20.304
 6349SOL    HW130926   2.554   3.225  20.302
 6349SOL    HW230927   2.525   3.344  20.213
 6350SOL     OW30928   0.654   1.019   5.014
 6350SOL    HW130929   0.600   0.977   4.947
 6350SOL    HW230930   0.723   0.955   5.032
 6351SOL     OW30931   3.256   1.063  20.747
 6351SOL    HW130932   3.204   1.143  20.740
 6351SOL    HW230933   3.345   1.093  20.767
 6352SOL     OW30934   0.095   1.770  19.642
 6352SOL    HW130935   0.099   1.776  19.737
 6352SOL    HW230936   0.019   1.823  19.618
 6353SOL     OW30937   3.953   0.558  19.785
 6353SOL    HW130938   4.002   0.565  19.703
 6353SOL    HW230939   3.996   0.487  19.832
 6354SOL     OW30940   3.223   3.221  20.916
 6354SOL    HW130941   3.233   3.206  21.010
 6354SOL    HW230942   3.305   3.189  20.878
 6355SOL     OW30943   3.259   1.852  16.636
 6355SOL    HW130944   3.289   1.777  16.687
 6355SOL    HW230945   3.164   1.841  16.630
 6356SOL     OW30946   1.128   0.628   6.189
 6356SOL    HW130947   1.201   0.583   6.147
 6356SOL    HW230948   1.101   0.570   6.260
 6357SOL     OW30949   0.180   3.579  18.322
 6357SOL    HW130950   0.167   3.641  18.251
 6357SOL    HW230951   0.127   3.613  18.394
 6358SOL     OW30952   3.381   4.367   4.269
 6358SOL    HW130953   3.442   4.440   4.279
 6358SOL    HW230954   3.431   4.300   4.222
 6359SOL     OW30955   4.715   2.458  15.838
 6359SOL    HW130956   4.712   2.546  15.801
 6359SOL    HW230957   0.018   2.445  15.860
 6360SOL     OW30958   0.254   1.139  21.193
 6360SOL    HW130959   0.335   1.181  21.221
 6360SOL    HW230960   0.197   1.211  21.168
 6361SOL     OW30961   1.341   3.793  18.889
 6361SOL    HW130962   1.299   3.708  18.878
 6361SOL    HW230963   1.330   3.837  18.804
 6362SOL     OW30964   4.212   0.791   2.518
 6362SOL    HW130965   4.278   0.728   2.546
 6362SOL    HW230966   4.164   0.813   2.598
 6363SOL     OW30967   2.582   0.037  17.446
 6363SOL    HW130968   2.591   0.007  17.536
 6363SOL    HW230969   2.609   0.129  17.448
 6364SOL     OW30970   4.700   3.497   3.408
 6364SOL    HW130971   4.668   3.417   3.449
 6364SOL    HW230972   4.761   3.534   3.472
 6365SOL     OW30973   3.413   3.889   3.036
 6365SOL    HW130974   3.353   3.815   3.048
 6365SOL    HW230975   3.495   3.849   3.006
 6366SOL     OW30976   1.995   0.558   0.890
 6366SOL    HW130977   1.981   0.620   0.962
 6366SOL    HW230978   1.920   0.499   0.894
 6367SOL     OW30979   2.331   3.564   2.382
 6367SOL    HW130980   2.362   3.550   2.293
 6367SOL    HW230981   2.409   3.556   2.437
 6368SOL     OW30982   0.291   4.368  16.672
 6368SOL    HW130983   0.220   4.311  16.642
 6368SOL    HW230984   0.314   4.334  16.758
 6369SOL     OW30985   1.104   1.861   2.392
 6369SOL    HW130986   1.021   1.849   2.437
 6369SOL    HW230987   1.158   1.787   2.419
 6370SOL     OW30988   3.878   2.420   8.740
 6370SOL    HW130989   3.799   2.474   8.735
 6370SOL    HW230990   3.868   2.371   8.822
 6371SOL     OW30991   2.283   2.240   5.652
 6371SOL    HW130992   2.238   2.198   5.725
 6371SOL    HW230993   2.232   2.319   5.635
 6372SOL     OW30994   0.780   0.916  13.397
 6372SOL    HW130995   0.708   0.868  13.438
 6372SOL    HW230996   0.741   0.999  13.370
 6373SOL     OW30997   0.215   2.297  15.392
 6373SOL    HW130998   0.207   2.206  15.363
 6373SOL    HW230999   0.125   2.329  15.397
 6374SOL     OW31000   1.874   1.358   1.352
 6374SOL    HW131001   1.855   1.367   1.445
 6374SOL    HW231002   1.835   1.274   1.328
 6375SOL     OW31003   0.249   3.946   5.294
 6375SOL    HW131004   0.256   3.934   5.389
 6375SOL    HW231005   0.287   3.866   5.257
 6376SOL     OW31006   0.224   2.865  16.515
 6376SOL    HW131007   0.234   2.875  16.610
 6376SOL    HW231008   0.286   2.796  16.491
 6377SOL     OW31009   0.749   2.221  18.679
 6377SOL    HW131010   0.779   2.253  18.594
 6377SOL    HW231011   0.780   2.287  18.741
 6378SOL     OW31012   0.160   0.088   5.075
 6378SOL    HW131013   0.086   0.058   5.023
 6378SOL    HW231014   0.143   0.181   5.089
 6379SOL     OW31015   2.936   0.156  21.205
 6379SOL    HW131016   2.852   0.129  21.242
 6379SOL    HW231017   2.989   0.181   0.024
 6380SOL     OW31018   3.681   0.328  16.092
 6380SOL    HW131019   3.705   0.420  16.086
 6380SOL    HW231020   3.599   0.328  16.141
 6381SOL     OW31021   2.528   0.812  17.616
 6381SOL    HW131022   2.566   0.739  17.567
 6381SOL    HW231023   2.555   0.890  17.567
 6382SOL     OW31024   3.305   2.576   2.751
 6382SOL    HW131025   3.277   2.515   2.682
 6382SOL    HW231026   3.248   2.555   2.825
 6383SOL     OW31027   1.273   2.286  21.131
 6383SOL    HW131028   1.338   2.355  21.145
 6383SOL    HW231029   1.189   2.329  21.147
 6384SOL     OW31030   2.935   1.375   4.402
 6384SOL    HW131031   2.851   1.411   4.431
 6384SOL    HW231032   2.960   1.431   4.329
 6385SOL     OW31033   0.835   1.622  18.717
 6385SOL    HW131034   0.821   1.716  18.731
 6385SOL    HW231035   0.748   1.587  18.700
 6386SOL     OW31036   4.478   4.260  16.584
 6386SOL    HW131037   4.405   4.274  16.645
 6386SOL    HW231038   4.495   4.346  16.546
 6387SOL     OW31039   3.685   0.084   2.587
 6387SOL    HW131040   3.697   0.131   2.669
 6387SOL    HW231041   3.637   0.005   2.612
 6388SOL     OW31042   2.689   0.459  19.735
 6388SOL    HW131043   2.757   0.505  19.784
 6388SOL    HW231044   2.611   0.514  19.746
 6389SOL     OW31045   3.867   3.687   5.024
 6389SOL    HW131046   3.860   3.704   4.930
 6389SOL    HW231047   3.776   3.686   5.055
 6390SOL     OW31048   3.927   3.671   1.843
 6390SOL    HW131049   3.839   3.646   1.815
 6390SOL    HW231050   3.979   3.670   1.762
 6391SOL     OW31051   1.724   2.344  20.673
 6391SOL    HW131052   1.682   2.421  20.634
 6391SOL    HW231053   1.817   2.353  20.651
 6392SOL     OW31054   2.196   3.247  20.231
 6392SOL    HW131055   2.155   3.298  20.161
 6392SOL    HW231056   2.130   3.242  20.300
 6393SOL     OW31057   2.602   3.575   0.877
 6393SOL    HW131058   2.661   3.623   0.818
 6393SOL    HW231059   2.628   3.483   0.867
 6394SOL     OW31060   4.606   4.472   7.972
 6394SOL    HW131061   4.590   4.496   8.063
 6394SOL    HW231062   4.683   4.415   7.975
 6395SOL     OW31063   4.590   2.440  19.788
 6395SOL    HW131064   4.617   2.360  19.744
 6395SOL    HW231065   4.536   2.486  19.723
 6396SOL     OW31066   1.919   1.071   4.224
 6396SOL    HW131067   1.824   1.063   4.228
 6396SOL    HW231068   1.951   1.014   4.294
 6397SOL     OW31069   4.128   3.161  19.678
 6397SOL    HW131070   4.042   3.197  19.655
 6397SOL    HW231071   4.166   3.226  19.737
 6398SOL     OW31072   3.933   4.546   5.097
 6398SOL    HW131073   3.915   4.453   5.108
 6398SOL    HW231074   3.853   4.590   5.126
 6399SOL     OW31075   4.697   3.591  16.654
 6399SOL    HW131076   4.609   3.565  16.626
 6399SOL    HW231077   4.712   3.540  16.734
 6400SOL     OW31078   0.063   2.786   4.738
 6400SOL    HW131079   4.769   2.763   4.697
 6400SOL    HW231080   0.113   2.828   4.668
 6401SOL     OW31081   3.813   2.733  17.530
 6401SOL    HW131082   3.829   2.652  17.578
 6401SOL    HW231083   3.894   2.783  17.539
 6402SOL     OW31084   0.907   1.099  17.298
 6402SOL    HW131085   0.967   1.031  17.328
 6402SOL    HW231086   0.956   1.181  17.308
 6403SOL     OW31087   0.399   1.229   3.995
 6403SOL    HW131088   0.467   1.296   3.997
 6403SOL    HW231089   0.336   1.256   4.062
 6404SOL     OW31090   2.300   1.423   0.561
 6404SOL    HW131091   2.232   1.490   0.568
 6404SOL    HW231092   2.292   1.372   0.642
 6405SOL     OW31093   1.094   0.106   2.214
 6405SOL    HW131094   1.061   0.100   2.304
 6405SOL    HW231095   1.100   0.200   2.196
 6406SOL     OW31096   2.674   1.050   4.091
 6406SOL    HW131097   2.617   1.111   4.045
 6406SOL    HW231098   2.646   1.055   4.183
 6407SOL     OW31099   0.592   3.823  21.000
 6407SOL    HW131100   0.609   3.863  20.915
 6407SOL    HW231101   0.668   3.847  21.053
 6408SOL     OW31102   2.568   0.977  20.626
 6408SOL    HW131103   2.628   0.902  20.621
 6408SOL    HW231104   2.543   0.994  20.535
 6409SOL     OW31105   2.505   0.739   5.549
 6409SOL    HW131106   2.554   0.812   5.587
 6409SOL    HW231107   2.571   0.671   5.534
 6410SOL     OW31108   0.491   2.100  18.700
 6410SOL    HW131109   0.572   2.122  18.653
 6410SOL    HW231110   0.515   2.104  18.793
 6411SOL     OW31111   0.275   4.193   7.388
 6411SOL    HW131112   0.261   4.284   7.413
 6411SOL    HW231113   0.276   4.194   7.292
 6412SOL     OW31114   4.215   1.455   6.767
 6412SOL    HW131115   4.158   1.531   6.780
 6412SOL    HW231116   4.298   1.481   6.807
 6413SOL     OW31117   1.657   4.166   0.394
 6413SOL    HW131118   1.579   4.210   0.427
 6413SOL    HW231119   1.719   4.237   0.376
 6414SOL     OW31120   2.384   4.384   4.551
 6414SOL    HW131121   2.378   4.410   4.643
 6414SOL    HW231122   2.407   4.464   4.505
 6415SOL     OW31123   1.287   2.846   2.909
 6415SOL    HW131124   1.269   2.934   2.941
 6415SOL    HW231125   1.209   2.822   2.859
 6416SOL     OW31126   2.796   3.253  15.658
 6416SOL    HW131127   2.767   3.301  15.735
 6416SOL    HW231128   2.883   3.220  15.682
 6417SOL     OW31129   3.544   1.734  12.736
 6417SOL    HW131130   3.615   1.767  12.681
 6417SOL    HW231131   3.483   1.693  12.675
 6418SOL     OW31132   0.964   4.240  20.122
 6418SOL    HW131133   0.878   4.199  20.126
 6418SOL    HW231134   0.953   4.322  20.171
 6419SOL     OW31135   3.934   1.774  17.207
 6419SOL    HW131136   3.845   1.744  17.186
 6419SOL    HW231137   3.921   1.846  17.269
 6420SOL     OW31138   1.815   4.746   1.706
 6420SOL    HW131139   1.792   0.047   1.688
 6420SOL    HW231140   1.910   4.744   1.698
 6421SOL     OW31141   2.872   1.353   2.394
 6421SOL    HW131142   2.856   1.441   2.429
 6421SOL    HW231143   2.900   1.302   2.470
 6422SOL     OW31144   1.064   1.626  16.469
 6422SOL    HW131145   1.077   1.631  16.374
 6422SOL    HW231146   1.072   1.533  16.490
 6423SOL     OW31147   3.901   1.351   0.350
 6423SOL    HW131148   3.987   1.310   0.340
 6423SOL    HW231149   3.919   1.444   0.361
 6424SOL     OW31150   0.265   1.187   3.497
 6424SOL    HW131151   0.189   1.199   3.554
 6424SOL    HW231152   0.323   1.129   3.546
 6425SOL     OW31153   1.054   1.404  20.073
 6425SOL    HW131154   1.130   1.406  20.015
 6425SOL    HW231155   1.014   1.318  20.058
 6426SOL     OW31156   3.871   1.367   6.430
 6426SOL    HW131157   3.848   1.360   6.523
 6426SOL    HW231158   3.806   1.427   6.394
 6427SOL     OW31159   0.414   4.614   2.728
 6427SOL    HW131160   0.389   4.688   2.673
 6427SOL    HW231161   0.409   4.647   2.818
 6428SOL     OW31162   1.677   1.975  18.704
 6428SOL    HW131163   1.767   2.000  18.682
 6428SOL    HW231164   1.651   2.037  18.772
 6429SOL     OW31165   2.511   0.718   0.652
 6429SOL    HW131166   2.533   0.789   0.592
 6429SOL    HW231167   2.456   0.759   0.719
 6430SOL     OW31168   1.944   0.016  18.200
 6430SOL    HW131169   1.991   0.098  18.190
 6430SOL    HW231170   1.949   4.764  18.114
 6431SOL     OW31171   2.518   1.133  15.554
 6431SOL    HW131172   2.609   1.109  15.572
 6431SOL    HW231173   2.484   1.163  15.638
 6432SOL     OW31174   4.197   1.433  18.981
 6432SOL    HW131175   4.167   1.395  19.063
 6432SOL    HW231176   4.153   1.518  18.977
 6433SOL     OW31177   1.129   1.200  19.119
 6433SOL    HW131178   1.157   1.277  19.169
 6433SOL    HW231179   1.201   1.184  19.057
 6434SOL     OW31180   0.997   1.829  15.531
 6434SOL    HW131181   1.060   1.890  15.568
 6434SOL    HW231182   0.915   1.850  15.575
 6435SOL     OW31183   3.371   3.727   2.182
 6435SOL    HW131184   3.396   3.785   2.254
 6435SOL    HW231185   3.452   3.680   2.160
 6436SOL     OW31186   4.306   2.503   0.490
 6436SOL    HW131187   4.401   2.495   0.490
 6436SOL    HW231188   4.276   2.432   0.547
 6437SOL     OW31189   3.678   4.157  16.709
 6437SOL    HW131190   3.763   4.194  16.732
 6437SOL    HW231191   3.693   4.063  16.704
 6438SOL     OW31192   2.806   0.312   7.984
 6438SOL    HW131193   2.900   0.293   7.981
 6438SOL    HW231194   2.800   0.406   7.966
 6439SOL     OW31195   0.051   4.754  15.876
 6439SOL    HW131196   4.766   4.734  15.933
 6439SOL    HW231197   0.128   4.747  15.933
 6440SOL     OW31198   0.986   0.308   6.135
 6440SOL    HW131199   0.907   0.358   6.157
 6440SOL    HW231200   0.977   0.290   6.041
 6441SOL     OW31201   2.635   3.393   1.179
 6441SOL    HW131202   2.699   3.456   1.212
 6441SOL    HW231203   2.644   3.397   1.084
 6442SOL     OW31204   2.016   4.397  17.159
 6442SOL    HW131205   2.068   4.468  17.197
 6442SOL    HW231206   2.079   4.345  17.109
 6443SOL     OW31207   1.593   3.619   3.249
 6443SOL    HW131208   1.652   3.550   3.220
 6443SOL    HW231209   1.606   3.690   3.187
 6444SOL     OW31210   1.551   4.455  17.908
 6444SOL    HW131211   1.562   4.518  17.837
 6444SOL    HW231212   1.530   4.509  17.984
 6445SOL     OW31213   2.117   0.700   3.883
 6445SOL    HW131214   2.183   0.632   3.868
 6445SOL    HW231215   2.119   0.753   3.803
 6446SOL     OW31216   0.446   0.797   2.150
 6446SOL    HW131217   0.474   0.787   2.241
 6446SOL    HW231218   0.353   0.817   2.156
 6447SOL     OW31219   3.900   1.647  20.462
 6447SOL    HW131220   3.926   1.617  20.375
 6447SOL    HW231221   3.971   1.617  20.519
 6448SOL     OW31222   4.622   1.157   8.193
 6448SOL    HW131223   4.703   1.204   8.213
 6448SOL    HW231224   4.649   1.084   8.137
 6449SOL     OW31225   0.825   0.359  11.957
 6449SOL    HW131226   0.732   0.336  11.949
 6449SOL    HW231227   0.836   0.434  11.898
 6450SOL     OW31228   4.563   3.629  14.489
 6450SOL    HW131229   4.521   3.712  14.511
 6450SOL    HW231230   4.493   3.576  14.450
 6451SOL     OW31231   1.430   2.599   4.806
 6451SOL    HW131232   1.383   2.517   4.823
 6451SOL    HW231233   1.446   2.599   4.712
 6452SOL     OW31234   1.061   3.937  20.261
 6452SOL    HW131235   1.049   4.032  20.252
 6452SOL    HW231236   0.974   3.904  20.282
 6453SOL     OW31237   3.967   1.392  18.160
 6453SOL    HW131238   3.888   1.439  18.187
 6453SOL    HW231239   4.027   1.403  18.233
 6454SOL     OW31240   2.421   3.761  16.426
 6454SOL    HW131241   2.456   3.844  16.459
 6454SOL    HW231242   2.483   3.695  16.457
 6455SOL     OW31243   3.115   1.972  13.406
 6455SOL    HW131244   3.117   1.885  13.446
 6455SOL    HW231245   3.118   1.955  13.312
 6456SOL     OW31246   3.064   4.645   8.231
 6456SOL    HW131247   2.984   4.680   8.269
 6456SOL    HW231248   3.134   4.701   8.266
 6457SOL     OW31249   1.963   3.472   8.370
 6457SOL    HW131250   1.942   3.473   8.463
 6457SOL    HW231251   2.059   3.477   8.367
 6458SOL     OW31252   3.789   4.403  19.033
 6458SOL    HW131253   3.743   4.321  19.052
 6458SOL    HW231254   3.746   4.468  19.088
 6459SOL     OW31255   1.697   2.585   3.014
 6459SOL    HW131256   1.763   2.544   3.070
 6459SOL    HW231257   1.628   2.612   3.074
 6460SOL     OW31258   2.460   4.214   6.263
 6460SOL    HW131259   2.454   4.127   6.303
 6460SOL    HW231260   2.424   4.202   6.175
 6461SOL     OW31261   2.238   1.550  17.986
 6461SOL    HW131262   2.184   1.572  17.910
 6461SOL    HW231263   2.261   1.458  17.974
 6462SOL     OW31264   4.036   2.881  15.541
 6462SOL    HW131265   3.979   2.835  15.480
 6462SOL    HW231266   4.012   2.847  15.627
 6463SOL     OW31267   1.689   0.427  17.988
 6463SOL    HW131268   1.625   0.453  17.921
 6463SOL    HW231269   1.758   0.493  17.982
 6464SOL     OW31270   3.610   4.096   5.678
 6464SOL    HW131271   3.633   4.007   5.652
 6464SOL    HW231272   3.655   4.152   5.615
 6465SOL     OW31273   2.589   2.082   4.945
 6465SOL    HW131274   2.554   2.011   5.000
 6465SOL    HW231275   2.555   2.162   4.985
 6466SOL     OW31276   4.472   0.103  14.968
 6466SOL    HW131277   4.557   0.061  14.957
 6466SOL    HW231278   4.422   0.042  15.022
 6467SOL     OW31279   2.219   3.444   1.056
 6467SOL    HW131280   2.296   3.494   1.029
 6467SOL    HW231281   2.145   3.491   1.018
 6468SOL     OW31282   3.174   1.696  19.902
 6468SOL    HW131283   3.155   1.778  19.857
 6468SOL    HW231284   3.237   1.652  19.845
 6469SOL     OW31285   1.018   1.666  17.452
 6469SOL    HW131286   1.043   1.595  17.393
 6469SOL    HW231287   1.064   1.743  17.418
 6470SOL     OW31288   0.981   4.781   5.360
 6470SOL    HW131289   0.894   0.031   5.363
 6470SOL    HW231290   1.039   0.063   5.335
 6471SOL     OW31291   3.744   0.564   0.959
 6471SOL    HW131292   3.696   0.637   0.919
 6471SOL    HW231293   3.805   0.535   0.891
 6472SOL     OW31294   3.785   4.344  20.942
 6472SOL    HW131295   3.753   4.254  20.952
 6472SOL    HW231296   3.803   4.353  20.848
 6473SOL     OW31297   3.944   4.327   2.654
 6473SOL    HW131298   3.874   4.285   2.704
 6473SOL    HW231299   3.911   4.415   2.635
 6474SOL     OW31300   2.345   3.655  15.027
 6474SOL    HW131301   2.440   3.652  15.041
 6474SOL    HW231302   2.334   3.631  14.935
 6475SOL     OW31303   2.186   4.622  17.196
 6475SOL    HW131304   2.151   4.704  17.161
 6475SOL    HW231305   2.217   4.645  17.284
 6476SOL     OW31306   1.870   3.501  16.103
 6476SOL    HW131307   1.897   3.571  16.044
 6476SOL    HW231308   1.822   3.546  16.173
 6477SOL     OW31309   4.633   3.625  17.131
 6477SOL    HW131310   4.618   3.640  17.224
 6477SOL    HW231311   4.716   3.670  17.113
 6478SOL     OW31312   2.490   4.211   2.948
 6478SOL    HW131313   2.544   4.211   2.869
 6478SOL    HW231314   2.553   4.216   3.020
 6479SOL     OW31315   2.588   4.091  20.322
 6479SOL    HW131316   2.584   4.136  20.238
 6479SOL    HW231317   2.506   4.041  20.327
 6480SOL     OW31318   0.507   2.307  15.329
 6480SOL    HW131319   0.512   2.218  15.294
 6480SOL    HW231320   0.417   2.315  15.361
 6481SOL     OW31321   3.712   2.188  17.492
 6481SOL    HW131322   3.725   2.183  17.587
 6481SOL    HW231323   3.798   2.210  17.457
 6482SOL     OW31324   2.129   1.953   3.244
 6482SOL    HW131325   2.149   1.953   3.150
 6482SOL    HW231326   2.171   1.874   3.277
 6483SOL     OW31327   4.478   0.219   4.721
 6483SOL    HW131328   4.456   0.126   4.729
 6483SOL    HW231329   4.421   0.262   4.784
 6484SOL     OW31330   1.070   4.135  18.380
 6484SOL    HW131331   1.142   4.139  18.443
 6484SOL    HW231332   1.110   4.162  18.297
 6485SOL     OW31333   2.779   2.470  17.409
 6485SOL    HW131334   2.782   2.564  17.391
 6485SOL    HW231335   2.820   2.460  17.495
 6486SOL     OW31336   4.216   4.724   0.937
 6486SOL    HW131337   4.126   4.722   0.968
 6486SOL    HW231338   4.269   4.725   1.017
 6487SOL     OW31339   2.270   0.297  17.328
 6487SOL    HW131340   2.253   0.358  17.256
 6487SOL    HW231341   2.236   0.342  17.405
 6488SOL     OW31342   2.264   2.414   1.074
 6488SOL    HW131343   2.273   2.447   1.164
 6488SOL    HW231344   2.224   2.328   1.084
 6489SOL     OW31345   2.245   1.314   2.852
 6489SOL    HW131346   2.313   1.325   2.919
 6489SOL    HW231347   2.168   1.286   2.901
 6490SOL     OW31348   4.405   3.897   6.901
 6490SOL    HW131349   4.471   3.830   6.883
 6490SOL    HW231350   4.322   3.856   6.878
 6491SOL     OW31351   1.742   1.726  18.795
 6491SOL    HW131352   1.724   1.669  18.720
 6491SOL    HW231353   1.717   1.813  18.765
 6492SOL     OW31354   2.882   4.595   4.237
 6492SOL    HW131355   2.788   4.608   4.253
 6492SOL    HW231356   2.911   4.677   4.198
 6493SOL     OW31357   4.133   3.659  16.775
 6493SOL    HW131358   4.121   3.728  16.841
 6493SOL    HW231359   4.218   3.620  16.797
 6494SOL     OW31360   2.246   0.081  14.107
 6494SOL    HW131361   2.154   0.089  14.132
 6494SOL    HW231362   2.253   0.133  14.027
 6495SOL     OW31363   4.252   1.177  17.554
 6495SOL    HW131364   4.324   1.155  17.614
 6495SOL    HW231365   4.249   1.273  17.553
 6496SOL     OW31366   4.070   1.940   1.153
 6496SOL    HW131367   4.110   2.017   1.194
 6496SOL    HW231368   4.001   1.913   1.214
 6497SOL     OW31369   3.102   0.317   1.762
 6497SOL    HW131370   3.117   0.229   1.728
 6497SOL    HW231371   3.190   0.353   1.775
 6498SOL     OW31372   0.525   2.304   0.177
 6498SOL    HW131373   0.571   2.255   0.245
 6498SOL    HW231374   0.594   2.332   0.117
 6499SOL     OW31375   2.707   3.954  15.885
 6499SOL    HW131376   2.756   3.874  15.866
 6499SOL    HW231377   2.765   4.004  15.942
 6500SOL     OW31378   3.812   2.937  13.637
 6500SOL    HW131379   3.858   2.891  13.707
 6500SOL    HW231380   3.728   2.961  13.675
 6501SOL     OW31381   2.741   3.039  17.573
 6501SOL    HW131382   2.713   3.119  17.528
 6501SOL    HW231383   2.684   2.971  17.537
 6502SOL     OW31384   0.208   3.080   6.238
 6502SOL    HW131385   0.286   3.031   6.210
 6502SOL    HW231386   0.227   3.171   6.214
 6503SOL     OW31387   4.308   4.513  13.332
 6503SOL    HW131388   4.244   4.452  13.367
 6503SOL    HW231389   4.390   4.463  13.330
 6504SOL     OW31390   3.631   0.350  20.409
 6504SOL    HW131391   3.613   0.266  20.452
 6504SOL    HW231392   3.545   0.383  20.385
 6505SOL     OW31393   3.149   0.157  17.027
 6505SOL    HW131394   3.145   0.230  16.965
 6505SOL    HW231395   3.059   0.125  17.032
 6506SOL     OW31396   1.948   1.143  20.784
 6506SOL    HW131397   2.013   1.182  20.726
 6506SOL    HW231398   1.976   1.052  20.795
 6507SOL     OW31399   4.054   3.814  17.000
 6507SOL    HW131400   4.035   3.783  17.089
 6507SOL    HW231401   4.119   3.883  17.012
 6508SOL     OW31402   2.936   1.049   4.974
 6508SOL    HW131403   2.904   0.982   5.034
 6508SOL    HW231404   3.010   1.008   4.930
 6509SOL     OW31405   4.786   0.969  14.131
 6509SOL    HW131406   4.738   1.006  14.205
 6509SOL    HW231407   4.749   0.881  14.119
 6510SOL     OW31408   2.191   4.266   6.374
 6510SOL    HW131409   2.201   4.280   6.468
 6510SOL    HW231410   2.281   4.263   6.341
 6511SOL     OW31411   3.731   1.143  17.633
 6511SOL    HW131412   3.720   1.060  17.679
 6511SOL    HW231413   3.823   1.144  17.606
 6512SOL     OW31414   1.587   3.538  18.412
 6512SOL    HW131415   1.547   3.523  18.326
 6512SOL    HW231416   1.513   3.555  18.470
 6513SOL     OW31417   3.180   3.630  15.150
 6513SOL    HW131418   3.253   3.644  15.090
 6513SOL    HW231419   3.192   3.695  15.219
 6514SOL     OW31420   2.849   3.857  21.211
 6514SOL    HW131421   2.762   3.876  21.175
 6514SOL    HW231422   2.884   3.789  21.153
 6515SOL     OW31423   1.113   2.257   5.075
 6515SOL    HW131424   1.121   2.279   4.982
 6515SOL    HW231425   1.149   2.333   5.121
 6516SOL     OW31426   0.025   1.198  18.834
 6516SOL    HW131427   4.770   1.217  18.916
 6516SOL    HW231428   4.747   1.206  18.767
 6517SOL     OW31429   2.384   2.399  18.842
 6517SOL    HW131430   2.317   2.408  18.774
 6517SOL    HW231431   2.335   2.400  18.924
 6518SOL     OW31432   3.113   4.728  17.337
 6518SOL    HW131433   3.041   4.781  17.303
 6518SOL    HW231434   3.192   4.773  17.308
 6519SOL     OW31435   0.753   2.998   0.862
 6519SOL    HW131436   0.709   3.073   0.822
 6519SOL    HW231437   0.778   2.943   0.788
 6520SOL     OW31438   3.671   1.538  20.928
 6520SOL    HW131439   3.654   1.508  21.017
 6520SOL    HW231440   3.766   1.528  20.917
 6521SOL     OW31441   0.508   0.904   6.343
 6521SOL    HW131442   0.565   0.886   6.418
 6521SOL    HW231443   0.452   0.976   6.372
 6522SOL     OW31444   4.787   0.769   2.488
 6522SOL    HW131445   4.789   0.674   2.495
 6522SOL    HW231446   4.723   0.787   2.419
 6523SOL     OW31447   1.862   4.133  13.686
 6523SOL    HW131448   1.796   4.069  13.659
 6523SOL    HW231449   1.849   4.143  13.780
 6524SOL     OW31450   1.737   3.356  15.852
 6524SOL    HW131451   1.648   3.387  15.870
 6524SOL    HW231452   1.793   3.415  15.903
 6525SOL     OW31453   4.137   1.801   0.094
 6525SOL    HW131454   4.120   1.868   0.160
 6525SOL    HW231455   4.223   1.765   0.118
 6526SOL     OW31456   1.638   1.769  21.093
 6526SOL    HW131457   1.703   1.757  21.024
 6526SOL    HW231458   1.670   1.844  21.143
 6527SOL     OW31459   2.469   3.420  17.986
 6527SOL    HW131460   2.407   3.470  17.932
 6527SOL    HW231461   2.550   3.471  17.983
 6528SOL     OW31462   2.235   1.771  18.869
 6528SOL    HW131463   2.271   1.706  18.929
 6528SOL    HW231464   2.286   1.850  18.886
 6529SOL     OW31465   1.448   3.650  13.076
 6529SOL    HW131466   1.368   3.598  13.089
 6529SOL    HW231467   1.503   3.627  13.151
 6530SOL     OW31468   0.052   1.110   3.663
 6530SOL    HW131469   0.076   1.024   3.697
 6530SOL    HW231470   0.057   1.168   3.739
 6531SOL     OW31471   2.143   1.507   1.719
 6531SOL    HW131472   2.166   1.414   1.712
 6531SOL    HW231473   2.085   1.512   1.795
 6532SOL     OW31474   2.618   1.574  21.113
 6532SOL    HW131475   2.528   1.574  21.081
 6532SOL    HW231476   2.627   1.490  21.158
 6533SOL     OW31477   4.788   3.281   0.646
 6533SOL    HW131478   0.015   3.359   0.699
 6533SOL    HW231479   4.773   3.211   0.710
 6534SOL     OW31480   4.140   1.037   0.019
 6534SOL    HW131481   4.078   0.968  21.254
 6534SOL    HW231482   4.146   1.091  21.197
 6535SOL     OW31483   4.081   2.018  21.176
 6535SOL    HW131484   4.148   1.970  21.225
 6535SOL    HW231485   3.998   1.991  21.216
 6536SOL     OW31486   2.187   1.726  16.099
 6536SOL    HW131487   2.123   1.797  16.089
 6536SOL    HW231488   2.226   1.741  16.185
 6537SOL     OW31489   2.832   3.917  16.651
 6537SOL    HW131490   2.849   3.900  16.744
 6537SOL    HW231491   2.879   3.847  16.605
 6538SOL     OW31492   1.506   4.074  20.275
 6538SOL    HW131493   1.497   4.162  20.311
 6538SOL    HW231494   1.497   4.086  20.180
 6539SOL     OW31495   2.900   0.158   5.297
 6539SOL    HW131496   2.957   0.099   5.248
 6539SOL    HW231497   2.959   0.220   5.339
 6540SOL     OW31498   1.467   1.574  18.424
 6540SOL    HW131499   1.502   1.610  18.343
 6540SOL    HW231500   1.461   1.480  18.408
 6541SOL     OW31501   3.913   3.168  20.949
 6541SOL    HW131502   3.881   3.106  21.014
 6541SOL    HW231503   3.866   3.249  20.968
 6542SOL     OW31504   3.363   4.765   3.134
 6542SOL    HW131505   3.449   0.009   3.108
 6542SOL    HW231506   3.359   4.777   3.229
 6543SOL     OW31507   2.156   0.528   3.444
 6543SOL    HW131508   2.094   0.582   3.493
 6543SOL    HW231509   2.196   0.472   3.510
 6544SOL     OW31510   2.446   4.531  16.219
 6544SOL    HW131511   2.423   4.443  16.249
 6544SOL    HW231512   2.394   4.589  16.275
 6545SOL     OW31513   1.128   2.025  13.340
 6545SOL    HW131514   1.105   1.935  13.363
 6545SOL    HW231515   1.145   2.067  13.424
 6546SOL     OW31516   4.365   0.278   6.038
 6546SOL    HW131517   4.361   0.346   5.971
 6546SOL    HW231518   4.385   0.198   5.990
 6547SOL     OW31519   0.353   3.455  18.690
 6547SOL    HW131520   0.413   3.492  18.755
 6547SOL    HW231521   0.304   3.530  18.657
 6548SOL     OW31522   3.815   3.527  15.316
 6548SOL    HW131523   3.825   3.532  15.411
 6548SOL    HW231524   3.886   3.469  15.288
 6549SOL     OW31525   4.014   1.299   3.780
 6549SOL    HW131526   4.015   1.386   3.820
 6549SOL    HW231527   3.938   1.255   3.819
 6550SOL     OW31528   1.071   2.417   6.319
 6550SOL    HW131529   1.017   2.484   6.361
 6550SOL    HW231530   1.070   2.343   6.380
 6551SOL     OW31531   2.206   3.914  16.366
 6551SOL    HW131532   2.281   3.858  16.387
 6551SOL    HW231533   2.175   3.945  16.451
 6552SOL     OW31534   2.516   4.752  17.198
 6552SOL    HW131535   2.524   4.658  17.180
 6552SOL    HW231536   2.516   4.758  17.294
 6553SOL     OW31537   0.198   4.486  13.947
 6553SOL    HW131538   0.283   4.489  13.903
 6553SOL    HW231539   0.205   4.413  14.008
 6554SOL     OW31540   0.185   3.515   4.545
 6554SOL    HW131541   0.253   3.558   4.494
 6554SOL    HW231542   0.106   3.566   4.527
 6555SOL     OW31543   0.798   0.286  15.684
 6555SOL    HW131544   0.767   0.267  15.596
 6555SOL    HW231545   0.721   0.272  15.740
 6556SOL     OW31546   3.878   0.123   6.915
 6556SOL    HW131547   3.853   0.041   6.872
 6556SOL    HW231548   3.972   0.114   6.931
 6557SOL     OW31549   3.506   1.609  20.706
 6557SOL    HW131550   3.580   1.572  20.658
 6557SOL    HW231551   3.540   1.627  20.794
 6558SOL     OW31552   4.339   2.767   4.119
 6558SOL    HW131553   4.254   2.795   4.154
 6558SOL    HW231554   4.323   2.750   4.026
 6559SOL     OW31555   4.598   2.304  16.234
 6559SOL    HW131556   4.585   2.295  16.328
 6559SOL    HW231557   4.693   2.302  16.222
 6560SOL     OW31558   3.364   0.499   1.561
 6560SOL    HW131559   3.407   0.584   1.573
 6560SOL    HW231560   3.342   0.471   1.650
 6561SOL     OW31561   2.030   1.463   6.892
 6561SOL    HW131562   2.045   1.447   6.985
 6561SOL    HW231563   2.114   1.496   6.860
 6562SOL     OW31564   0.874   3.459   1.002
 6562SOL    HW131565   0.863   3.383   1.060
 6562SOL    HW231566   0.805   3.449   0.936
 6563SOL     OW31567   3.344   0.728   6.646
 6563SOL    HW131568   3.390   0.812   6.648
 6563SOL    HW231569   3.346   0.697   6.737
 6564SOL     OW31570   0.040   1.890  14.233
 6564SOL    HW131571   0.051   1.944  14.155
 6564SOL    HW231572   0.057   1.801  14.203
 6565SOL     OW31573   2.390   3.912  20.236
 6565SOL    HW131574   2.437   3.885  20.157
 6565SOL    HW231575   2.298   3.893  20.217
 6566SOL     OW31576   2.418   2.721   7.188
 6566SOL    HW131577   2.459   2.785   7.246
 6566SOL    HW231578   2.422   2.638   7.236
 6567SOL     OW31579   3.633   1.060   1.096
 6567SOL    HW131580   3.591   1.008   1.164
 6567SOL    HW231581   3.561   1.090   1.041
 6568SOL     OW31582   1.892   3.384   2.046
 6568SOL    HW131583   1.970   3.381   2.101
 6568SOL    HW231584   1.922   3.358   1.959
 6569SOL     OW31585   1.467   4.604   8.600
 6569SOL    HW131586   1.489   4.517   8.633
 6569SOL    HW231587   1.435   4.652   8.677
 6570SOL     OW31588   2.206   2.097   5.311
 6570SOL    HW131589   2.297   2.105   5.340
 6570SOL    HW231590   2.180   2.186   5.288
 6571SOL     OW31591   1.195   3.261   0.424
 6571SOL    HW131592   1.195   3.357   0.427
 6571SOL    HW231593   1.191   3.234   0.516
 6572SOL     OW31594   3.064   4.118   5.704
 6572SOL    HW131595   3.154   4.121   5.671
 6572SOL    HW231596   3.033   4.031   5.681
 6573SOL     OW31597   1.130   2.339   2.893
 6573SOL    HW131598   1.178   2.361   2.973
 6573SOL    HW231599   1.104   2.248   2.906
 6574SOL     OW31600   1.703   3.260   0.594
 6574SOL    HW131601   1.619   3.306   0.599
 6574SOL    HW231602   1.680   3.172   0.565
 6575SOL     OW31603   3.379   3.906  18.603
 6575SOL    HW131604   3.415   3.980  18.554
 6575SOL    HW231605   3.323   3.947  18.669
 6576SOL     OW31606   3.421   3.311  16.814
 6576SOL    HW131607   3.379   3.245  16.869
 6576SOL    HW231608   3.504   3.272  16.787
 6577SOL     OW31609   4.334   0.727   0.050
 6577SOL    HW131610   4.356   0.801  21.251
 6577SOL    HW231611   4.265   0.760   0.107
 6578SOL     OW31612   2.502   0.544   6.218
 6578SOL    HW131613   2.540   0.577   6.299
 6578SOL    HW231614   2.532   0.453   6.213
 6579SOL     OW31615   2.055   3.940   4.807
 6579SOL    HW131616   1.989   3.924   4.875
 6579SOL    HW231617   2.127   3.882   4.830
 6580SOL     OW31618   4.381   0.148  17.789
 6580SOL    HW131619   4.400   0.096  17.711
 6580SOL    HW231620   4.306   0.104  17.829
 6581SOL     OW31621   2.022   0.127  19.975
 6581SOL    HW131622   2.092   0.169  20.025
 6581SOL    HW231623   2.020   0.037  20.007
 6582SOL     OW31624   2.699   2.117   1.397
 6582SOL    HW131625   2.644   2.057   1.347
 6582SOL    HW231626   2.784   2.073   1.402
 6583SOL     OW31627   1.207   2.998   4.633
 6583SOL    HW131628   1.150   3.073   4.617
 6583SOL    HW231629   1.210   2.991   4.728
 6584SOL     OW31630   2.466   3.840   5.488
 6584SOL    HW131631   2.428   3.753   5.477
 6584SOL    HW231632   2.530   3.847   5.417
 6585SOL     OW31633   4.395   0.842   4.079
 6585SOL    HW131634   4.346   0.867   4.001
 6585SOL    HW231635   4.473   0.799   4.045
 6586SOL     OW31636   1.209   2.051   3.670
 6586SOL    HW131637   1.271   2.115   3.704
 6586SOL    HW231638   1.216   1.977   3.730
 6587SOL     OW31639   4.565   0.216   3.813
 6587SOL    HW131640   4.622   0.163   3.757
 6587SOL    HW231641   4.531   0.284   3.755
 6588SOL     OW31642   3.901   1.760  15.473
 6588SOL    HW131643   3.975   1.821  15.478
 6588SOL    HW231644   3.829   1.813  15.438
 6589SOL     OW31645   4.297   0.263  15.228
 6589SOL    HW131646   4.389   0.243  15.247
 6589SOL    HW231647   4.263   0.185  15.185
 6590SOL     OW31648   1.230   4.398   2.910
 6590SOL    HW131649   1.208   4.435   2.825
 6590SOL    HW231650   1.253   4.307   2.891
 6591SOL     OW31651   0.745   4.162  14.996
 6591SOL    HW131652   0.805   4.186  15.067
 6591SOL    HW231653   0.739   4.240  14.941
 6592SOL     OW31654   2.110   0.364  16.629
 6592SOL    HW131655   2.100   0.453  16.596
 6592SOL    HW231656   2.032   0.349  16.683
 6593SOL     OW31657   3.724   2.319  14.230
 6593SOL    HW131658   3.695   2.253  14.167
 6593SOL    HW231659   3.767   2.386  14.177
 6594SOL     OW31660   0.774   2.568   0.270
 6594SOL    HW131661   0.717   2.542   0.198
 6594SOL    HW231662   0.716   2.614   0.331
 6595SOL     OW31663   3.521   1.436  18.663
 6595SOL    HW131664   3.492   1.394  18.744
 6595SOL    HW231665   3.571   1.368  18.618
 6596SOL     OW31666   0.819   1.349   1.467
 6596SOL    HW131667   0.864   1.412   1.523
 6596SOL    HW231668   0.767   1.403   1.407
 6597SOL     OW31669   1.270   2.995  21.174
 6597SOL    HW131670   1.302   3.081  21.201
 6597SOL    HW231671   1.349   2.942  21.162
 6598SOL     OW31672   2.943   1.975   3.625
 6598SOL    HW131673   2.878   1.980   3.555
 6598SOL    HW231674   3.014   2.032   3.596
 6599SOL     OW31675   0.328   3.630  21.176
 6599SOL    HW131676   0.264   3.559  21.167
 6599SOL    HW231677   0.396   3.610  21.112
 6600SOL     OW31678   3.669   0.939   0.630
 6600SOL    HW131679   3.720   1.012   0.595
 6600SOL    HW231680   3.733   0.870   0.645
 6601SOL     OW31681   1.899   0.386  17.304
 6601SOL    HW131682   1.956   0.379  17.381
 6601SOL    HW231683   1.938   0.457  17.252
 6602SOL     OW31684   2.832   3.143   3.643
 6602SOL    HW131685   2.853   3.236   3.650
 6602SOL    HW231686   2.739   3.141   3.620
 6603SOL     OW31687   1.712   0.565  20.000
 6603SOL    HW131688   1.743   0.483  19.962
 6603SOL    HW231689   1.618   0.551  20.015
 6604SOL     OW31690   2.479   0.784   6.090
 6604SOL    HW131691   2.388   0.812   6.095
 6604SOL    HW231692   2.478   0.695   6.126
 6605SOL     OW31693   0.546   0.426  15.960
 6605SOL    HW131694   0.531   0.353  15.899
 6605SOL    HW231695   0.638   0.419  15.984
 6606SOL     OW31696   0.712   1.404  17.972
 6606SOL    HW131697   0.654   1.436  18.041
 6606SOL    HW231698   0.687   1.312  17.960
 6607SOL     OW31699   3.186   1.118  17.031
 6607SOL    HW131700   3.190   1.188  17.097
 6607SOL    HW231701   3.277   1.101  17.008
 6608SOL     OW31702   4.049   4.083   2.539
 6608SOL    HW131703   4.061   4.047   2.627
 6608SOL    HW231704   4.020   4.173   2.553
 6609SOL     OW31705   0.854   2.204   4.607
 6609SOL    HW131706   0.913   2.179   4.536
 6609SOL    HW231707   0.797   2.128   4.619
 6610SOL     OW31708   0.490   4.523   0.649
 6610SOL    HW131709   0.487   4.497   0.741
 6610SOL    HW231710   0.404   4.499   0.614
 6611SOL     OW31711   3.585   3.733   0.498
 6611SOL    HW131712   3.595   3.794   0.425
 6611SOL    HW231713   3.597   3.787   0.576
 6612SOL     OW31714   0.314   0.286  13.700
 6612SOL    HW131715   0.347   0.251  13.617
 6612SOL    HW231716   0.270   0.367  13.675
 6613SOL     OW31717   1.846   4.737  15.299
 6613SOL    HW131718   1.864   4.742  15.205
 6613SOL    HW231719   1.878   0.031  15.334
 6614SOL     OW31720   0.351   2.209   1.527
 6614SOL    HW131721   0.383   2.161   1.604
 6614SOL    HW231722   0.414   2.281   1.516
 6615SOL     OW31723   2.261   3.441  17.740
 6615SOL    HW131724   2.286   3.533  17.747
 6615SOL    HW231725   2.344   3.394  17.736
 6616SOL     OW31726   3.003   1.471   0.388
 6616SOL    HW131727   3.074   1.412   0.414
 6616SOL    HW231728   3.040   1.559   0.399
 6617SOL     OW31729   4.768   0.087  20.457
 6617SOL    HW131730   0.006   0.077  20.548
 6617SOL    HW231731   4.682   0.044  20.454
 6618SOL     OW31732   2.983   4.071  13.458
 6618SOL    HW131733   2.905   4.035  13.500
 6618SOL    HW231734   3.033   4.111  13.530
 6619SOL     OW31735   1.303   3.247   0.997
 6619SOL    HW131736   1.380   3.213   1.042
 6619SOL    HW231737   1.260   3.303   1.061
 6620SOL     OW31738   3.746   2.518  19.950
 6620SOL    HW131739   3.752   2.604  19.909
 6620SOL    HW231740   3.721   2.536  20.041
 6621SOL     OW31741   4.425   0.625   2.507
 6621SOL    HW131742   4.387   0.585   2.429
 6621SOL    HW231743   4.465   0.552   2.555
 6622SOL     OW31744   1.658   3.209   3.168
 6622SOL    HW131745   1.574   3.201   3.124
 6622SOL    HW231746   1.666   3.128   3.219
 6623SOL     OW31747   1.109   1.387   7.874
 6623SOL    HW131748   1.187   1.380   7.819
 6623SOL    HW231749   1.058   1.458   7.834
 6624SOL     OW31750   3.011   1.906  13.723
 6624SOL    HW131751   2.961   1.838  13.768
 6624SOL    HW231752   3.064   1.858  13.659
 6625SOL     OW31753   0.727   4.398   2.135
 6625SOL    HW131754   0.752   4.326   2.077
 6625SOL    HW231755   0.723   4.359   2.222
 6626SOL     OW31756   4.427   3.345   2.044
 6626SOL    HW131757   4.448   3.345   1.951
 6626SOL    HW231758   4.509   3.368   2.087
 6627SOL     OW31759   3.159   4.411   1.410
 6627SOL    HW131760   3.158   4.356   1.331
 6627SOL    HW231761   3.074   4.395   1.451
 6628SOL     OW31762   0.969   3.575   6.389
 6628SOL    HW131763   0.991   3.668   6.382
 6628SOL    HW231764   0.981   3.554   6.482
 6629SOL     OW31765   2.756   0.846  12.650
 6629SOL    HW131766   2.766   0.760  12.692
 6629SOL    HW231767   2.713   0.827  12.567
 6630SOL     OW31768   4.094   4.309   3.849
 6630SOL    HW131769   4.020   4.369   3.850
 6630SOL    HW231770   4.158   4.351   3.791
 6631SOL     OW31771   0.791   3.377   5.995
 6631SOL    HW131772   0.841   3.363   6.076
 6631SOL    HW231773   0.775   3.471   5.993
 6632SOL     OW31774   2.744   2.197  14.298
 6632SOL    HW131775   2.763   2.104  14.307
 6632SOL    HW231776   2.830   2.238  14.287
 6633SOL     OW31777   1.861   3.495   2.790
 6633SOL    HW131778   1.800   3.567   2.777
 6633SOL    HW231779   1.805   3.420   2.810
 6634SOL     OW31780   0.523   1.473   4.283
 6634SOL    HW131781   0.556   1.494   4.195
 6634SOL    HW231782   0.565   1.390   4.305
 6635SOL     OW31783   1.342   2.506  16.145
 6635SOL    HW131784   1.364   2.540  16.058
 6635SOL    HW231785   1.341   2.411  16.134
 6636SOL     OW31786   2.716   2.394  19.110
 6636SOL    HW131787   2.717   2.405  19.205
 6636SOL    HW231788   2.644   2.449  19.080
 6637SOL     OW31789   4.531   3.992  15.835
 6637SOL    HW131790   4.509   4.080  15.865
 6637SOL    HW231791   4.626   3.993  15.826
 6638SOL     OW31792   3.616   4.290  15.601
 6638SOL    HW131793   3.676   4.234  15.553
 6638SOL    HW231794   3.633   4.270  15.693
 6639SOL     OW31795   3.468   0.627  15.695
 6639SOL    HW131796   3.522   0.551  15.719
 6639SOL    HW231797   3.523   0.703  15.716
 6640SOL     OW31798   0.819   2.567  17.166
 6640SOL    HW131799   0.838   2.481  17.128
 6640SOL    HW231800   0.731   2.557  17.203
 6641SOL     OW31801   4.440   2.481   1.266
 6641SOL    HW131802   4.380   2.549   1.235
 6641SOL    HW231803   4.519   2.529   1.292
 6642SOL     OW31804   4.114   0.300   2.166
 6642SOL    HW131805   4.132   0.220   2.116
 6642SOL    HW231806   4.023   0.291   2.194
 6643SOL     OW31807   2.425   2.269   3.872
 6643SOL    HW131808   2.441   2.358   3.903
 6643SOL    HW231809   2.345   2.276   3.820
 6644SOL     OW31810   3.610   4.614  18.163
 6644SOL    HW131811   3.653   4.648  18.085
 6644SOL    HW231812   3.607   4.519  18.149
 6645SOL     OW31813   3.532   3.154   4.195
 6645SOL    HW131814   3.570   3.079   4.241
 6645SOL    HW231815   3.597   3.176   4.128
 6646SOL     OW31816   3.883   2.701   5.828
 6646SOL    HW131817   3.973   2.681   5.803
 6646SOL    HW231818   3.843   2.615   5.843
 6647SOL     OW31819   2.856   3.456   1.889
 6647SOL    HW131820   2.786   3.408   1.845
 6647SOL    HW231821   2.891   3.514   1.822
 6648SOL     OW31822   0.521   2.145   5.603
 6648SOL    HW131823   0.608   2.106   5.602
 6648SOL    HW231824   0.518   2.193   5.686
 6649SOL     OW31825   1.101   2.154   1.779
 6649SOL    HW131826   1.016   2.180   1.744
 6649SOL    HW231827   1.097   2.179   1.871
 6650SOL     OW31828   1.969   1.125  17.199
 6650SOL    HW131829   1.929   1.177  17.268
 6650SOL    HW231830   1.970   1.036  17.234
 6651SOL     OW31831   4.512   4.123  18.139
 6651SOL    HW131832   4.590   4.161  18.179
 6651SOL    HW231833   4.451   4.112  18.212
 6652SOL     OW31834   2.210   3.351   4.926
 6652SOL    HW131835   2.258   3.415   4.874
 6652SOL    HW231836   2.168   3.403   4.995
 6653SOL     OW31837   0.073   4.187   0.048
 6653SOL    HW131838   0.136   4.117   0.031
 6653SOL    HW231839   0.100   4.258  21.247
 6654SOL     OW31840   4.704   3.739   1.021
 6654SOL    HW131841   0.007   3.755   1.002
 6654SOL    HW231842   4.694   3.764   1.113
 6655SOL     OW31843   4.497   2.712   2.272
 6655SOL    HW131844   4.420   2.769   2.276
 6655SOL    HW231845   4.498   2.668   2.357
 6656SOL     OW31846   0.093   0.650   4.447
 6656SOL    HW131847   0.165   0.684   4.393
 6656SOL    HW231848   0.117   0.675   4.536
 6657SOL     OW31849   2.051   0.601   8.034
 6657SOL    HW131850   2.037   0.507   8.023
 6657SOL    HW231851   1.966   0.635   8.061
 6658SOL     OW31852   0.281   2.544   5.769
 6658SOL    HW131853   0.255   2.634   5.747
 6658SOL    HW231854   0.341   2.518   5.699
 6659SOL     OW31855   3.682   1.438  19.401
 6659SOL    HW131856   3.768   1.473  19.378
 6659SOL    HW231857   3.625   1.515  19.404
 6660SOL     OW31858   1.519   2.088  17.360
 6660SOL    HW131859   1.568   2.170  17.349
 6660SOL    HW231860   1.566   2.042  17.430
 6661SOL     OW31861   0.699   3.291  15.758
 6661SOL    HW131862   0.709   3.340  15.839
 6661SOL    HW231863   0.605   3.287  15.743
 6662SOL     OW31864   4.772   2.703   4.402
 6662SOL    HW131865   4.780   2.649   4.481
 6662SOL    HW231866   0.026   2.785   4.425
 6663SOL     OW31867   4.467   0.037   6.275
 6663SOL    HW131868   4.459   0.019   6.181
 6663SOL    HW231869   4.378   0.059   6.303
 6664SOL     OW31870   2.874   0.187   3.236
 6664SOL    HW131871   2.828   0.212   3.156
 6664SOL    HW231872   2.927   0.111   3.210
 6665SOL     OW31873   2.374   3.647   3.559
 6665SOL    HW131874   2.410   3.684   3.478
 6665SOL    HW231875   2.366   3.722   3.618
 6666SOL     OW31876   0.293   0.630   1.029
 6666SOL    HW131877   0.272   0.717   1.062
 6666SOL    HW231878   0.248   0.625   0.945
 6667SOL     OW31879   0.025   4.594   3.447
 6667SOL    HW131880   0.116   4.568   3.463
 6667SOL    HW231881   4.771   4.582   3.531
 6668SOL     OW31882   2.001   3.652   3.771
 6668SOL    HW131883   1.939   3.712   3.730
 6668SOL    HW231884   2.037   3.702   3.845
 6669SOL     OW31885   2.009   4.292   6.158
 6669SOL    HW131886   2.024   4.301   6.064
 6669SOL    HW231887   2.094   4.310   6.198
 6670SOL     OW31888   1.917   3.232  18.691
 6670SOL    HW131889   2.007   3.199  18.694
 6670SOL    HW231890   1.925   3.327  18.703
 6671SOL     OW31891   1.656   0.781  18.103
 6671SOL    HW131892   1.730   0.799  18.046
 6671SOL    HW231893   1.592   0.849  18.082
 6672SOL     OW31894   3.581   2.671  13.645
 6672SOL    HW131895   3.489   2.675  13.671
 6672SOL    HW231896   3.580   2.693  13.552
 6673SOL     OW31897   2.682   3.298   0.869
 6673SOL    HW131898   2.775   3.291   0.890
 6673SOL    HW231899   2.663   3.221   0.816
 6674SOL     OW31900   0.677   2.986   3.683
 6674SOL    HW131901   0.741   3.001   3.614
 6674SOL    HW231902   0.626   2.910   3.653
 6675SOL     OW31903   2.363   1.929   5.786
 6675SOL    HW131904   2.356   1.933   5.691
 6675SOL    HW231905   2.283   1.970   5.818
 6676SOL     OW31906   2.217   3.529   6.838
 6676SOL    HW131907   2.307   3.558   6.856
 6676SOL    HW231908   2.204   3.453   6.895
 6677SOL     OW31909   1.532   0.195   3.424
 6677SOL    HW131910   1.493   0.124   3.475
 6677SOL    HW231911   1.524   0.166   3.333
 6678SOL     OW31912   3.483   3.226   4.838
 6678SOL    HW131913   3.513   3.140   4.868
 6678SOL    HW231914   3.541   3.289   4.880
 6679SOL     OW31915   1.685   3.127  16.650
 6679SOL    HW131916   1.762   3.104  16.703
 6679SOL    HW231917   1.720   3.140  16.562
 6680SOL     OW31918   2.086   2.492   1.857
 6680SOL    HW131919   1.994   2.516   1.862
 6680SOL    HW231920   2.132   2.566   1.896
 6681SOL     OW31921   1.178   2.331  17.819
 6681SOL    HW131922   1.255   2.346  17.874
 6681SOL    HW231923   1.111   2.388  17.856
 6682SOL     OW31924   1.394   3.169  20.811
 6682SOL    HW131925   1.407   3.148  20.903
 6682SOL    HW231926   1.409   3.086  20.765
 6683SOL     OW31927   2.447   0.741   2.351
 6683SOL    HW131928   2.420   0.688   2.276
 6683SOL    HW231929   2.428   0.686   2.427
 6684SOL     OW31930   2.964   1.095   3.809
 6684SOL    HW131931   3.049   1.052   3.799
 6684SOL    HW231932   2.975   1.154   3.884
 6685SOL     OW31933   4.745   1.967  18.483
 6685SOL    HW131934   0.001   2.050  18.498
 6685SOL    HW231935   4.779   1.909  18.551
 6686SOL     OW31936   0.035   4.622  17.292
 6686SOL    HW131937   0.113   4.609  17.238
 6686SOL    HW231938   4.754   4.636  17.229
 6687SOL     OW31939   4.625   1.077  21.126
 6687SOL    HW131940   4.681   1.020  21.178
 6687SOL    HW231941   4.625   1.160  21.173
 6688SOL     OW31942   2.674   3.650  16.153
 6688SOL    HW131943   2.715   3.576  16.198
 6688SOL    HW231944   2.746   3.692  16.106
 6689SOL     OW31945   2.959   2.336  15.725
 6689SOL    HW131946   2.991   2.400  15.662
 6689SOL    HW231947   2.994   2.365  15.809
 6690SOL     OW31948   0.736   2.716  16.699
 6690SOL    HW131949   0.670   2.749  16.638
 6690SOL    HW231950   0.756   2.628  16.666
 6691SOL     OW31951   2.681   0.851  14.204
 6691SOL    HW131952   2.673   0.859  14.299
 6691SOL    HW231953   2.599   0.809  14.177
 6692SOL     OW31954   0.647   1.555  19.757
 6692SOL    HW131955   0.594   1.594  19.827
 6692SOL    HW231956   0.729   1.529  19.800
 6693SOL     OW31957   2.487   2.009   6.268
 6693SOL    HW131958   2.550   1.982   6.201
 6693SOL    HW231959   2.493   2.105   6.270
 6694SOL     OW31960   1.352   1.831  15.563
 6694SOL    HW131961   1.413   1.813  15.635
 6694SOL    HW231962   1.288   1.892  15.600
 6695SOL     OW31963   3.502   4.666   5.583
 6695SOL    HW131964   3.476   4.602   5.517
 6695SOL    HW231965   3.453   4.745   5.561
 6696SOL     OW31966   3.691   4.249   2.811
 6696SOL    HW131967   3.706   4.309   2.884
 6696SOL    HW231968   3.614   4.285   2.766
 6697SOL     OW31969   1.368   0.284   4.168
 6697SOL    HW131970   1.419   0.221   4.219
 6697SOL    HW231971   1.312   0.230   4.112
 6698SOL     OW31972   3.802   0.178  14.705
 6698SOL    HW131973   3.810   0.273  14.718
 6698SOL    HW231974   3.803   0.167  14.610
 6699SOL     OW31975   0.296   0.699   1.433
 6699SOL    HW131976   0.210   0.669   1.404
 6699SOL    HW231977   0.326   0.631   1.493
 6700SOL     OW31978   1.227   2.571   3.882
 6700SOL    HW131979   1.159   2.635   3.861
 6700SOL    HW231980   1.263   2.545   3.797
 6701SOL     OW31981   2.237   1.386   6.353
 6701SOL    HW131982   2.234   1.446   6.427
 6701SOL    HW231983   2.153   1.398   6.308
 6702SOL     OW31984   2.547   2.150   8.721
 6702SOL    HW131985   2.538   2.218   8.788
 6702SOL    HW231986   2.458   2.138   8.687
 6703SOL     OW31987   2.832   0.469  14.442
 6703SOL    HW131988   2.895   0.458  14.514
 6703SOL    HW231989   2.830   0.564  14.427
 6704SOL     OW31990   3.996   0.433  17.622
 6704SOL    HW131991   3.991   0.386  17.705
 6704SOL    HW231992   4.012   0.524  17.647
 6705SOL     OW31993   0.829   3.218  17.221
 6705SOL    HW131994   0.844   3.196  17.313
 6705SOL    HW231995   0.808   3.134  17.180
 6706SOL     OW31996   0.718   1.286   0.402
 6706SOL    HW131997   0.778   1.212   0.393
 6706SOL    HW231998   0.718   1.327   0.316
 6707SOL     OW31999   1.021   1.100   0.057
 6707SOL    HW132000   0.933   1.137   0.048
 6707SOL    HW232001   1.079   1.167   0.021
 6708SOL     OW32002   4.355   3.166   0.515
 6708SOL    HW132003   4.395   3.238   0.564
 6708SOL    HW232004   4.411   3.091   0.532
 6709SOL     OW32005   1.985   2.563   5.611
 6709SOL    HW132006   1.963   2.545   5.520
 6709SOL    HW232007   2.038   2.643   5.608
 6710SOL     OW32008   1.927   2.585   7.245
 6710SOL    HW132009   1.854   2.640   7.273
 6710SOL    HW232010   1.891   2.497   7.242
 6711SOL     OW32011   1.683   1.044  16.305
 6711SOL    HW132012   1.669   1.020  16.397
 6711SOL    HW232013   1.648   1.133  16.297
 6712SOL     OW32014   4.244   1.937   3.141
 6712SOL    HW132015   4.337   1.946   3.120
 6712SOL    HW232016   4.238   1.962   3.233
 6713SOL     OW32017   0.749   3.542   3.832
 6713SOL    HW132018   0.819   3.595   3.794
 6713SOL    HW232019   0.690   3.525   3.759
 6714SOL     OW32020   2.804   2.687   1.203
 6714SOL    HW132021   2.864   2.663   1.132
 6714SOL    HW232022   2.770   2.604   1.235
 6715SOL     OW32023   0.650   2.137   4.344
 6715SOL    HW132024   0.603   2.135   4.261
 6715SOL    HW232025   0.730   2.186   4.325
 6716SOL     OW32026   3.481   1.584   3.285
 6716SOL    HW132027   3.409   1.590   3.223
 6716SOL    HW232028   3.521   1.499   3.268
 6717SOL     OW32029   2.327   3.352   2.920
 6717SOL    HW132030   2.264   3.412   2.958
 6717SOL    HW232031   2.304   3.349   2.827
 6718SOL     OW32032   0.239   4.056  12.902
 6718SOL    HW132033   0.270   4.124  12.962
 6718SOL    HW232034   0.177   4.005  12.954
 6719SOL     OW32035   0.545   4.477   7.446
 6719SOL    HW132036   0.455   4.502   7.425
 6719SOL    HW232037   0.599   4.538   7.395
 6720SOL     OW32038   0.948   0.476   2.042
 6720SOL    HW132039   0.892   0.484   2.119
 6720SOL    HW232040   0.894   0.508   1.970
 6721SOL     OW32041   3.222   2.245   2.806
 6721SOL    HW132042   3.192   2.336   2.808
 6721SOL    HW232043   3.155   2.196   2.853
 6722SOL     OW32044   4.470   1.457   8.488
 6722SOL    HW132045   4.443   1.380   8.437
 6722SOL    HW232046   4.416   1.454   8.567
 6723SOL     OW32047   0.779   1.678  17.921
 6723SOL    HW132048   0.748   1.607  17.865
 6723SOL    HW232049   0.802   1.748  17.860
 6724SOL     OW32050   0.646   0.257   0.386
 6724SOL    HW132051   0.645   0.351   0.405
 6724SOL    HW232052   0.641   0.252   0.291
 6725SOL     OW32053   0.975   0.570   0.302
 6725SOL    HW132054   1.049   0.600   0.355
 6725SOL    HW232055   1.010   0.499   0.249
 6726SOL     OW32056   4.700   4.603  18.375
 6726SOL    HW132057   4.704   4.695  18.348
 6726SOL    HW232058   4.733   4.554  18.300
 6727SOL     OW32059   2.240   0.146  16.518
 6727SOL    HW132060   2.316   0.198  16.492
 6727SOL    HW232061   2.184   0.208  16.564
 6728SOL     OW32062   2.257   2.468   0.455
 6728SOL    HW132063   2.340   2.500   0.490
 6728SOL    HW232064   2.254   2.376   0.482
 6729SOL     OW32065   2.189   2.618  13.623
 6729SOL    HW132066   2.203   2.713  13.621
 6729SOL    HW232067   2.156   2.600  13.711
 6730SOL     OW32068   1.197   4.596   5.617
 6730SOL    HW132069   1.199   4.571   5.525
 6730SOL    HW232070   1.172   4.516   5.663
 6731SOL     OW32071   1.970   1.300   2.678
 6731SOL    HW132072   2.030   1.250   2.623
 6731SOL    HW232073   2.009   1.387   2.683
 6732SOL     OW32074   4.744   3.674  19.303
 6732SOL    HW132075   4.692   3.753  19.318
 6732SOL    HW232076   0.010   3.696  19.228
 6733SOL     OW32077   1.723   1.223   2.709
 6733SOL    HW132078   1.815   1.246   2.697
 6733SOL    HW232079   1.687   1.295   2.762
 6734SOL     OW32080   3.823   0.183  14.441
 6734SOL    HW132081   3.750   0.170  14.380
 6734SOL    HW232082   3.895   0.214  14.386
 6735SOL     OW32083   3.179   0.225   5.411
 6735SOL    HW132084   3.219   0.226   5.498
 6735SOL    HW232085   3.212   0.145   5.370
 6736SOL     OW32086   3.917   0.361   5.957
 6736SOL    HW132087   3.898   0.274   5.993
 6736SOL    HW232088   3.952   0.344   5.869
 6737SOL     OW32089   3.129   3.082  16.231
 6737SOL    HW132090   3.125   2.989  16.255
 6737SOL    HW232091   3.068   3.091  16.158
 6738SOL     OW32092   0.583   4.700   4.215
 6738SOL    HW132093   0.517   4.744   4.161
 6738SOL    HW232094   0.591   4.613   4.176
 6739SOL     OW32095   3.488   4.207   2.457
 6739SOL    HW132096   3.574   4.248   2.468
 6739SOL    HW232097   3.439   4.268   2.402
 6740SOL     OW32098   1.989   4.414   1.553
 6740SOL    HW132099   1.980   4.445   1.643
 6740SOL    HW232100   1.948   4.328   1.553
 6741SOL     OW32101   3.198   2.328  19.752
 6741SOL    HW132102   3.141   2.371  19.816
 6741SOL    HW232103   3.280   2.313  19.799
 6742SOL     OW32104   4.543   2.475  15.250
 6742SOL    HW132105   4.533   2.445  15.159
 6742SOL    HW232106   4.458   2.457  15.290
 6743SOL     OW32107   2.384   1.893   4.793
 6743SOL    HW132108   2.317   1.960   4.809
 6743SOL    HW232109   2.400   1.897   4.699
 6744SOL     OW32110   2.685   0.271   3.037
 6744SOL    HW132111   2.604   0.321   3.034
 6744SOL    HW232112   2.662   0.186   2.999
 6745SOL     OW32113   1.380   1.161  18.416
 6745SOL    HW132114   1.443   1.204  18.358
 6745SOL    HW232115   1.413   1.071  18.425
 6746SOL     OW32116   4.023   1.864   0.637
 6746SOL    HW132117   3.989   1.944   0.596
 6746SOL    HW232118   4.081   1.895   0.707
 6747SOL     OW32119   1.381   0.821   3.216
 6747SOL    HW132120   1.402   0.757   3.284
 6747SOL    HW232121   1.466   0.857   3.189
 6748SOL     OW32122   1.705   1.783  19.444
 6748SOL    HW132123   1.652   1.718  19.398
 6748SOL    HW232124   1.761   1.822  19.376
 6749SOL     OW32125   0.055   2.966  16.309
 6749SOL    HW132126   0.102   2.921  16.379
 6749SOL    HW232127   4.774   3.013  16.354
 6750SOL     OW32128   1.402   1.502   0.043
 6750SOL    HW132129   1.355   1.575   0.084
 6750SOL    HW232130   1.432   1.538  21.217
 6751SOL     OW32131   3.882   4.431  16.327
 6751SOL    HW132132   3.901   4.486  16.251
 6751SOL    HW232133   3.965   4.427  16.375
 6752SOL     OW32134   1.631   4.467  17.264
 6752SOL    HW132135   1.669   4.555  17.265
 6752SOL    HW232136   1.668   4.425  17.186
 6753SOL     OW32137   2.543   4.012  18.257
 6753SOL    HW132138   2.622   4.054  18.291
 6753SOL    HW232139   2.478   4.082  18.257
 6754SOL     OW32140   3.606   0.321   0.375
 6754SOL    HW132141   3.688   0.277   0.398
 6754SOL    HW232142   3.631   0.413   0.363
 6755SOL     OW32143   2.292   3.307   8.634
 6755SOL    HW132144   2.375   3.329   8.677
 6755SOL    HW232145   2.224   3.338   8.694
 6756SOL     OW32146   4.173   4.053  17.025
 6756SOL    HW132147   4.135   4.097  17.101
 6756SOL    HW232148   4.267   4.069  17.032
 6757SOL     OW32149   4.485   1.762  19.992
 6757SOL    HW132150   4.468   1.850  20.026
 6757SOL    HW232151   4.561   1.731  20.042
 6758SOL     OW32152   2.199   4.411   2.163
 6758SOL    HW132153   2.157   4.482   2.114
 6758SOL    HW232154   2.192   4.438   2.255
 6759SOL     OW32155   3.011   1.662   0.637
 6759SOL    HW132156   3.013   1.719   0.714
 6759SOL    HW232157   3.039   1.576   0.670
 6760SOL     OW32158   2.110   2.816  20.321
 6760SOL    HW132159   2.131   2.810  20.228
 6760SOL    HW232160   2.161   2.891  20.353
 6761SOL     OW32161   1.982   1.625  15.897
 6761SOL    HW132162   1.954   1.552  15.953
 6761SOL    HW232163   2.075   1.609  15.882
 6762SOL     OW32164   0.770   0.099  16.710
 6762SOL    HW132165   0.692   0.047  16.692
 6762SOL    HW232166   0.811   0.112  16.624
 6763SOL     OW32167   0.650   0.201  20.424
 6763SOL    HW132168   0.643   0.255  20.345
 6763SOL    HW232169   0.688   0.260  20.490
 6764SOL     OW32170   1.656   3.791  17.620
 6764SOL    HW132171   1.677   3.858  17.555
 6764SOL    HW232172   1.583   3.742  17.581
 6765SOL     OW32173   2.807   2.141  19.078
 6765SOL    HW132174   2.781   2.228  19.108
 6765SOL    HW232175   2.788   2.141  18.984
 6766SOL     OW32176   0.453   1.966  15.816
 6766SOL    HW132177   0.464   1.924  15.731
 6766SOL    HW232178   0.434   1.894  15.876
 6767SOL     OW32179   1.751   1.342   1.918
 6767SOL    HW132180   1.664   1.381   1.918
 6767SOL    HW232181   1.735   1.249   1.937
 6768SOL     OW32182   4.183   1.703  20.141
 6768SOL    HW132183   4.144   1.754  20.070
 6768SOL    HW232184   4.114   1.641  20.167
 6769SOL     OW32185   4.276   1.517  20.352
 6769SOL    HW132186   4.323   1.525  20.269
 6769SOL    HW232187   4.261   1.423  20.362
 6770SOL     OW32188   0.981   0.394  11.553
 6770SOL    HW132189   0.903   0.352  11.516
 6770SOL    HW232190   1.054   0.349  11.510
 6771SOL     OW32191   3.596   1.007  14.500
 6771SOL    HW132192   3.654   0.988  14.573
 6771SOL    HW232193   3.655   1.034  14.429
 6772SOL     OW32194   0.926   3.120   5.831
 6772SOL    HW132195   0.931   3.039   5.779
 6772SOL    HW232196   0.842   3.159   5.806
 6773SOL     OW32197   3.226   0.322  16.778
 6773SOL    HW132198   3.285   0.285  16.713
 6773SOL    HW232199   3.283   0.365  16.841
 6774SOL     OW32200   0.037   4.311  18.846
 6774SOL    HW132201   0.101   4.334  18.914
 6774SOL    HW232202   4.742   4.322  18.889
 6775SOL     OW32203   3.021   2.965  17.861
 6775SOL    HW132204   3.030   3.057  17.837
 6775SOL    HW232205   3.106   2.942  17.899
 6776SOL     OW32206   0.167   2.258  17.716
 6776SOL    HW132207   0.248   2.279  17.669
 6776SOL    HW232208   0.194   2.196  17.784
 6777SOL     OW32209   4.067   1.547   8.615
 6777SOL    HW132210   4.114   1.565   8.533
 6777SOL    HW232211   4.124   1.486   8.662
 6778SOL     OW32212   0.759   3.784   3.702
 6778SOL    HW132213   0.777   3.800   3.609
 6778SOL    HW232214   0.675   3.828   3.718
 6779SOL     OW32215   4.578   3.609   0.528
 6779SOL    HW132216   4.663   3.635   0.493
 6779SOL    HW232217   4.596   3.579   0.617
 6780SOL     OW32218   4.428   3.889   5.192
 6780SOL    HW132219   4.351   3.909   5.139
 6780SOL    HW232220   4.410   3.929   5.277
 6781SOL     OW32221   3.075   0.651  18.747
 6781SOL    HW132222   3.120   0.567  18.739
 6781SOL    HW232223   2.996   0.641  18.693
 6782SOL     OW32224   0.615   1.229   1.632
 6782SOL    HW132225   0.611   1.285   1.710
 6782SOL    HW232226   0.669   1.278   1.570
 6783SOL     OW32227   1.143   1.470  15.395
 6783SOL    HW132228   1.086   1.490  15.321
 6783SOL    HW232229   1.217   1.531  15.386
 6784SOL     OW32230   1.541   1.323  18.244
 6784SOL    HW132231   1.620   1.271  18.231
 6784SOL    HW232232   1.523   1.361  18.158
 6785SOL     OW32233   2.310   0.469   1.022
 6785SOL    HW132234   2.268   0.402   1.076
 6785SOL    HW232235   2.376   0.508   1.079
 6786SOL     OW32236   4.727   3.380  17.667
 6786SOL    HW132237   4.672   3.336  17.602
 6786SOL    HW232238   4.731   3.318  17.740
 6787SOL     OW32239   4.021   3.482  19.123
 6787SOL    HW132240   3.974   3.547  19.071
 6787SOL    HW232241   3.970   3.474  19.204
 6788SOL     OW32242   3.875   0.215   8.081
 6788SOL    HW132243   3.874   0.162   8.001
 6788SOL    HW232244   3.789   0.256   8.083
 6789SOL     OW32245   3.707   2.925   1.335
 6789SOL    HW132246   3.761   2.991   1.291
 6789SOL    HW232247   3.622   2.967   1.345
 6790SOL     OW32248   2.949   4.662  18.019
 6790SOL    HW132249   2.995   4.676  18.102
 6790SOL    HW232250   2.986   4.728  17.960
 6791SOL     OW32251   3.012   4.419   6.056
 6791SOL    HW132252   3.062   4.473   6.116
 6791SOL    HW232253   3.017   4.331   6.093
 6792SOL     OW32254   4.306   2.128   6.825
 6792SOL    HW132255   4.262   2.137   6.740
 6792SOL    HW232256   4.340   2.038   6.825
 6793SOL     OW32257   2.367   3.541   5.828
 6793SOL    HW132258   2.281   3.560   5.791
 6793SOL    HW232259   2.361   3.571   5.919
 6794SOL     OW32260   2.293   4.335  17.154
 6794SOL    HW132261   2.341   4.285  17.221
 6794SOL    HW232262   2.347   4.412  17.138
 6795SOL     OW32263   2.777   4.359  12.842
 6795SOL    HW132264   2.869   4.347  12.866
 6795SOL    HW232265   2.756   4.449  12.869
 6796SOL     OW32266   0.554   4.263   3.616
 6796SOL    HW132267   0.602   4.333   3.573
 6796SOL    HW232268   0.462   4.287   3.606
 6797SOL     OW32269   1.872   4.607  19.077
 6797SOL    HW132270   1.955   4.651  19.094
 6797SOL    HW232271   1.810   4.678  19.061
 6798SOL     OW32272   3.889   1.187   1.794
 6798SOL    HW132273   3.910   1.242   1.719
 6798SOL    HW232274   3.944   1.109   1.783
 6799SOL     OW32275   4.773   2.781   0.951
 6799SOL    HW132276   4.756   2.694   0.988
 6799SOL    HW232277   0.056   2.767   0.890
 6800SOL     OW32278   1.869   4.759  18.747
 6800SOL    HW132279   1.901   0.025  18.676
 6800SOL    HW232280   1.897   0.014  18.827
 6801SOL     OW32281   4.163   3.841  20.968
 6801SOL    HW132282   4.119   3.855  21.052
 6801SOL    HW232283   4.150   3.748  20.949
 6802SOL     OW32284   4.482   2.356  20.733
 6802SOL    HW132285   4.470   2.302  20.811
 6802SOL    HW232286   4.558   2.411  20.753
 6803SOL     OW32287   4.772   2.434  15.420
 6803SOL    HW132288   4.690   2.446  15.372
 6803SOL    HW232289   0.005   2.521  15.453
 6804SOL     OW32290   1.676   4.553  13.050
 6804SOL    HW132291   1.764   4.533  13.018
 6804SOL    HW232292   1.679   4.646  13.073
 6805SOL     OW32293   2.836   1.121  16.537
 6805SOL    HW132294   2.861   1.088  16.451
 6805SOL    HW232295   2.856   1.215  16.534
 6806SOL     OW32296   1.952   0.466   0.317
 6806SOL    HW132297   1.857   0.459   0.324
 6806SOL    HW232298   1.980   0.380   0.287
 6807SOL     OW32299   2.532   1.600  16.757
 6807SOL    HW132300   2.457   1.546  16.732
 6807SOL    HW232301   2.520   1.682  16.708
 6808SOL     OW32302   2.111   2.655   0.879
 6808SOL    HW132303   2.034   2.647   0.936
 6808SOL    HW232304   2.184   2.669   0.939
 6809SOL     OW32305   4.437   1.193   4.295
 6809SOL    HW132306   4.428   1.098   4.303
 6809SOL    HW232307   4.471   1.221   4.380
 6810SOL     OW32308   1.107   3.473   4.112
 6810SOL    HW132309   1.137   3.384   4.132
 6810SOL    HW232310   1.129   3.524   4.190
 6811SOL     OW32311   4.027   3.149   6.538
 6811SOL    HW132312   3.975   3.069   6.544
 6811SOL    HW232313   4.093   3.130   6.471
 6812SOL     OW32314   3.451   2.460   2.126
 6812SOL    HW132315   3.452   2.487   2.218
 6812SOL    HW232316   3.429   2.540   2.078
 6813SOL     OW32317   2.253   4.702   4.722
 6813SOL    HW132318   2.175   4.654   4.751
 6813SOL    HW232319   2.229   0.005   4.733
 6814SOL     OW32320   2.656   0.115   5.943
 6814SOL    HW132321   2.725   0.170   5.907
 6814SOL    HW232322   2.611   0.080   5.866
 6815SOL     OW32323   4.366   2.644  17.286
 6815SOL    HW132324   4.304   2.680  17.223
 6815SOL    HW232325   4.312   2.593  17.347
 6816SOL     OW32326   3.665   2.926  20.628
 6816SOL    HW132327   3.576   2.895  20.646
 6816SOL    HW232328   3.655   3.019  20.608
 6817SOL     OW32329   3.916   0.241   0.820
 6817SOL    HW132330   3.989   0.209   0.873
 6817SOL    HW232331   3.951   0.319   0.776
 6818SOL     OW32332   1.912   3.592   5.488
 6818SOL    HW132333   1.831   3.543   5.499
 6818SOL    HW232334   1.897   3.674   5.535
 6819SOL     OW32335   1.664   0.940   7.946
 6819SOL    HW132336   1.724   0.885   7.895
 6819SOL    HW232337   1.627   1.001   7.882
 6820SOL     OW32338   2.946   2.543  18.650
 6820SOL    HW132339   2.962   2.479  18.720
 6820SOL    HW232340   2.891   2.610  18.690
 6821SOL     OW32341   0.969   3.975  20.587
 6821SOL    HW132342   0.911   4.035  20.539
 6821SOL    HW232343   0.959   3.891  20.541
 6822SOL     OW32344   0.993   0.959  12.572
 6822SOL    HW132345   1.076   0.964  12.620
 6822SOL    HW232346   0.947   0.886  12.613
 6823SOL     OW32347   2.432   4.060  13.844
 6823SOL    HW132348   2.435   4.027  13.754
 6823SOL    HW232349   2.496   4.007  13.891
 6824SOL     OW32350   1.423   3.672   3.708
 6824SOL    HW132351   1.438   3.705   3.796
 6824SOL    HW232352   1.341   3.623   3.715
 6825SOL     OW32353   1.517   0.142  21.009
 6825SOL    HW132354   1.440   0.180  20.967
 6825SOL    HW232355   1.494   0.137  21.102
 6826SOL     OW32356   2.015   0.022   0.453
 6826SOL    HW132357   2.030   0.059   0.366
 6826SOL    HW232358   2.097   0.037   0.500
 6827SOL     OW32359   0.508   1.162   2.868
 6827SOL    HW132360   0.430   1.217   2.878
 6827SOL    HW232361   0.553   1.169   2.952
 6828SOL     OW32362   0.886   3.057   4.521
 6828SOL    HW132363   0.896   3.151   4.506
 6828SOL    HW232364   0.894   3.017   4.434
 6829SOL     OW32365   2.979   3.516   4.967
 6829SOL    HW132366   2.884   3.524   4.971
 6829SOL    HW232367   3.004   3.569   4.891
 6830SOL     OW32368   3.113   2.715   3.503
 6830SOL    HW132369   3.098   2.809   3.493
 6830SOL    HW232370   3.036   2.674   3.464
 6831SOL     OW32371   0.248   4.666  15.092
 6831SOL    HW132372   0.215   4.654  15.181
 6831SOL    HW232373   0.201   4.600  15.041
 6832SOL     OW32374   4.547   1.367   0.714
 6832SOL    HW132375   4.459   1.403   0.727
 6832SOL    HW232376   4.596   1.438   0.672
 6833SOL     OW32377   1.506   3.019  18.429
 6833SOL    HW132378   1.477   3.040  18.340
 6833SOL    HW232379   1.496   3.101  18.478
 6834SOL     OW32380   1.663   0.764   1.175
 6834SOL    HW132381   1.589   0.722   1.132
 6834SOL    HW232382   1.659   0.855   1.145
 6835SOL     OW32383   3.274   1.722  19.111
 6835SOL    HW132384   3.214   1.676  19.170
 6835SOL    HW232385   3.232   1.715  19.025
 6836SOL     OW32386   0.530   2.500  19.282
 6836SOL    HW132387   0.494   2.588  19.289
 6836SOL    HW232388   0.458   2.442  19.307
 6837SOL     OW32389   1.646   1.741   5.303
 6837SOL    HW132390   1.647   1.716   5.211
 6837SOL    HW232391   1.566   1.792   5.313
 6838SOL     OW32392   0.533   3.709   2.539
 6838SOL    HW132393   0.522   3.631   2.485
 6838SOL    HW232394   0.509   3.782   2.482
 6839SOL     OW32395   2.287   3.786   4.861
 6839SOL    HW132396   2.317   3.822   4.945
 6839SOL    HW232397   2.352   3.719   4.839
 6840SOL     OW32398   2.710   0.825   0.356
 6840SOL    HW132399   2.629   0.811   0.307
 6840SOL    HW232400   2.691   0.898   0.414
 6841SOL     OW32401   4.177   1.912  20.630
 6841SOL    HW132402   4.197   1.943  20.718
 6841SOL    HW232403   4.187   1.817  20.635
 6842SOL     OW32404   3.963   0.906   6.470
 6842SOL    HW132405   3.906   0.874   6.400
 6842SOL    HW232406   4.000   0.987   6.435
 6843SOL     OW32407   0.774   3.846   2.963
 6843SOL    HW132408   0.843   3.912   2.959
 6843SOL    HW232409   0.720   3.872   3.038
 6844SOL     OW32410   4.251   3.228   5.262
 6844SOL    HW132411   4.275   3.143   5.224
 6844SOL    HW232412   4.315   3.289   5.226
 6845SOL     OW32413   1.215   0.425  17.941
 6845SOL    HW132414   1.189   0.428  18.033
 6845SOL    HW232415   1.184   0.508  17.905
 6846SOL     OW32416   2.976   0.639  19.668
 6846SOL    HW132417   2.957   0.701  19.738
 6846SOL    HW232418   3.068   0.654  19.646
 6847SOL     OW32419   1.067   0.648  17.188
 6847SOL    HW132420   1.119   0.707  17.134
 6847SOL    HW232421   1.039   0.579  17.128
 6848SOL     OW32422   4.195   1.613   1.330
 6848SOL    HW132423   4.130   1.571   1.273
 6848SOL    HW232424   4.243   1.540   1.370
 6849SOL     OW32425   0.421   4.222   4.858
 6849SOL    HW132426   0.408   4.187   4.946
 6849SOL    HW232427   0.351   4.183   4.806
 6850SOL     OW32428   2.144   0.926   4.651
 6850SOL    HW132429   2.099   0.936   4.735
 6850SOL    HW232430   2.226   0.883   4.674
 6851SOL     OW32431   0.435   2.556  17.937
 6851SOL    HW132432   0.467   2.468  17.918
 6851SOL    HW232433   0.460   2.608  17.860
 6852SOL     OW32434   2.487   3.458   4.077
 6852SOL    HW132435   2.581   3.466   4.063
 6852SOL    HW232436   2.455   3.409   4.001
 6853SOL     OW32437   2.944   0.370   2.964
 6853SOL    HW132438   2.865   0.319   2.981
 6853SOL    HW232439   3.015   0.306   2.967
 6854SOL     OW32440   2.795   1.719  16.073
 6854SOL    HW132441   2.761   1.640  16.031
 6854SOL    HW232442   2.786   1.787  16.007
 6855SOL     OW32443   0.135   2.127   6.252
 6855SOL    HW132444   0.154   2.160   6.340
 6855SOL    HW232445   0.072   2.189   6.216
 6856SOL     OW32446   2.773   1.187  21.080
 6856SOL    HW132447   2.748   1.272  21.115
 6856SOL    HW232448   2.861   1.171  21.114
 6857SOL     OW32449   1.949   2.199   2.111
 6857SOL    HW132450   2.036   2.237   2.124
 6857SOL    HW232451   1.892   2.274   2.098
 6858SOL     OW32452   1.184   3.189  18.904
 6858SOL    HW132453   1.239   3.171  18.828
 6858SOL    HW232454   1.223   3.266  18.945
 6859SOL     OW32455   0.659   1.865  18.965
 6859SOL    HW132456   0.582   1.922  18.970
 6859SOL    HW232457   0.698   1.886  18.880
 6860SOL     OW32458   2.195   0.781  13.445
 6860SOL    HW132459   2.113   0.810  13.405
 6860SOL    HW232460   2.260   0.844  13.415
 6861SOL     OW32461   0.011   3.456  20.642
 6861SOL    HW132462   4.753   3.410  20.711
 6861SOL    HW232463   0.047   3.386  20.588
 6862SOL     OW32464   4.459   2.261   5.762
 6862SOL    HW132465   4.544   2.305   5.757
 6862SOL    HW232466   4.415   2.285   5.680
 6863SOL     OW32467   2.351   3.413  19.449
 6863SOL    HW132468   2.370   3.409  19.355
 6863SOL    HW232469   2.431   3.383  19.492
 6864SOL     OW32470   3.836   1.874   5.517
 6864SOL    HW132471   3.857   1.891   5.425
 6864SOL    HW232472   3.830   1.779   5.523
 6865SOL     OW32473   3.737   3.273   8.565
 6865SOL    HW132474   3.785   3.342   8.519
 6865SOL    HW232475   3.794   3.196   8.561
 6866SOL     OW32476   1.969   4.592  20.708
 6866SOL    HW132477   1.970   4.624  20.798
 6866SOL    HW232478   2.024   4.514  20.710
 6867SOL     OW32479   4.366   4.440   6.229
 6867SOL    HW132480   4.369   4.355   6.273
 6867SOL    HW232481   4.291   4.485   6.268
 6868SOL     OW32482   2.433   2.680   5.468
 6868SOL    HW132483   2.427   2.668   5.563
 6868SOL    HW232484   2.513   2.634   5.443
 6869SOL     OW32485   2.999   4.580  12.597
 6869SOL    HW132486   2.931   4.617  12.653
 6869SOL    HW232487   3.052   4.527  12.656
 6870SOL     OW32488   2.519   1.127  16.293
 6870SOL    HW132489   2.566   1.045  16.279
 6870SOL    HW232490   2.532   1.147  16.386
 6871SOL     OW32491   4.258   3.359  18.995
 6871SOL    HW132492   4.185   3.405  19.036
 6871SOL    HW232493   4.333   3.379  19.050
 6872SOL     OW32494   4.627   2.670  20.920
 6872SOL    HW132495   4.684   2.635  20.851
 6872SOL    HW232496   4.567   2.728  20.874
 6873SOL     OW32497   2.938   0.583  20.556
 6873SOL    HW132498   2.959   0.540  20.639
 6873SOL    HW232499   2.872   0.648  20.579
 6874SOL     OW32500   3.486   1.250   2.038
 6874SOL    HW132501   3.533   1.216   1.962
 6874SOL    HW232502   3.412   1.297   2.001
 6875SOL     OW32503   3.278   2.373   4.308
 6875SOL    HW132504   3.233   2.412   4.233
 6875SOL    HW232505   3.350   2.323   4.269
 6876SOL     OW32506   2.091   1.372  18.669
 6876SOL    HW132507   2.045   1.330  18.596
 6876SOL    HW232508   2.082   1.466  18.652
 6877SOL     OW32509   3.853   4.123   5.846
 6877SOL    HW132510   3.761   4.116   5.821
 6877SOL    HW232511   3.873   4.039   5.887
 6878SOL     OW32512   2.852   2.295   6.943
 6878SOL    HW132513   2.816   2.214   6.979
 6878SOL    HW232514   2.836   2.360   7.011
 6879SOL     OW32515   1.931   3.366  19.034
 6879SOL    HW132516   2.012   3.404  19.069
 6879SOL    HW232517   1.861   3.411  19.081
 6880SOL     OW32518   0.373   4.386  14.655
 6880SOL    HW132519   0.413   4.390  14.568
 6880SOL    HW232520   0.447   4.397  14.715
 6881SOL     OW32521   0.322   3.339   5.331
 6881SOL    HW132522   0.245   3.287   5.308
 6881SOL    HW232523   0.358   3.295   5.408
 6882SOL     OW32524   1.255   3.831  19.471
 6882SOL    HW132525   1.207   3.832  19.554
 6882SOL    HW232526   1.211   3.764  19.418
 6883SOL     OW32527   0.706   3.969  19.874
 6883SOL    HW132528   0.682   3.878  19.856
 6883SOL    HW232529   0.631   4.020  19.843
 6884SOL     OW32530   1.706   4.686  15.695
 6884SOL    HW132531   1.650   4.625  15.742
 6884SOL    HW232532   1.730   4.752  15.760
 6885SOL     OW32533   4.769   0.429  14.774
 6885SOL    HW132534   4.707   0.452  14.844
 6885SOL    HW232535   0.013   0.343  14.799
 6886SOL     OW32536   0.174   2.828  20.214
 6886SOL    HW132537   0.235   2.780  20.158
 6886SOL    HW232538   0.197   2.802  20.303
 6887SOL     OW32539   3.568   3.425   6.608
 6887SOL    HW132540   3.648   3.389   6.570
 6887SOL    HW232541   3.529   3.477   6.537
 6888SOL     OW32542   4.461   2.590   5.202
 6888SOL    HW132543   4.463   2.631   5.288
 6888SOL    HW232544   4.376   2.616   5.165
 6889SOL     OW32545   4.730   4.407   5.036
 6889SOL    HW132546   4.663   4.404   4.968
 6889SOL    HW232547   4.697   4.351   5.106
 6890SOL     OW32548   0.128   0.767   5.137
 6890SOL    HW132549   0.081   0.814   5.068
 6890SOL    HW232550   0.060   0.722   5.187
 6891SOL     OW32551   0.318   3.359   4.846
 6891SOL    HW132552   0.234   3.363   4.801
 6891SOL    HW232553   0.380   3.330   4.779
 6892SOL     OW32554   4.722   3.969  18.508
 6892SOL    HW132555   4.703   4.032  18.439
 6892SOL    HW232556   0.020   3.993  18.538
 6893SOL     OW32557   0.374   3.380  16.692
 6893SOL    HW132558   0.368   3.464  16.646
 6893SOL    HW232559   0.337   3.316  16.631
 6894SOL     OW32560   2.634   3.641  20.553
 6894SOL    HW132561   2.599   3.728  20.532
 6894SOL    HW232562   2.596   3.620  20.638
 6895SOL     OW32563   4.005   4.299  19.327
 6895SOL    HW132564   3.939   4.295  19.396
 6895SOL    HW232565   3.993   4.218  19.277
 6896SOL     OW32566   3.058   2.073  15.535
 6896SOL    HW132567   2.963   2.076  15.524
 6896SOL    HW232568   3.072   2.015  15.610
 6897SOL     OW32569   1.657   2.099   4.242
 6897SOL    HW132570   1.611   2.101   4.158
 6897SOL    HW232571   1.742   2.138   4.224
 6898SOL     OW32572   0.671   4.298  13.364
 6898SOL    HW132573   0.592   4.282  13.312
 6898SOL    HW232574   0.738   4.242  13.325
 6899SOL     OW32575   2.086   1.182  18.070
 6899SOL    HW132576   2.159   1.224  18.025
 6899SOL    HW232577   2.124   1.146  18.150
 6900SOL     OW32578   1.541   4.143   4.641
 6900SOL    HW132579   1.557   4.231   4.606
 6900SOL    HW232580   1.610   4.089   4.603
 6901SOL     OW32581   2.344   2.399  17.795
 6901SOL    HW132582   2.358   2.480  17.745
 6901SOL    HW232583   2.349   2.426  17.887
 6902SOL     OW32584   2.030   0.623  16.567
 6902SOL    HW132585   2.076   0.697  16.606
 6902SOL    HW232586   1.943   0.658  16.545
 6903SOL     OW32587   2.831   1.402  18.153
 6903SOL    HW132588   2.885   1.461  18.100
 6903SOL    HW232589   2.834   1.440  18.241
 6904SOL     OW32590   3.431   0.007  18.866
 6904SOL    HW132591   3.413   0.099  18.846
 6904SOL    HW232592   3.525   4.787  18.851
 6905SOL     OW32593   2.174   2.968   3.261
 6905SOL    HW132594   2.098   2.953   3.317
 6905SOL    HW232595   2.228   3.030   3.310
 6906SOL     OW32596   1.032   0.651   5.572
 6906SOL    HW132597   1.001   0.640   5.662
 6906SOL    HW232598   1.120   0.687   5.582
 6907SOL     OW32599   2.576   0.600   5.237
 6907SOL    HW132600   2.580   0.594   5.332
 6907SOL    HW232601   2.645   0.542   5.206
 6908SOL     OW32602   0.071   3.623   5.846
 6908SOL    HW132603   0.064   3.540   5.894
 6908SOL    HW232604   0.079   3.690   5.914
 6909SOL     OW32605   2.714   3.199   8.902
 6909SOL    HW132606   2.774   3.242   8.963
 6909SOL    HW232607   2.684   3.121   8.949
 6910SOL     OW32608   3.231   1.710   5.949
 6910SOL    HW132609   3.318   1.736   5.918
 6910SOL    HW232610   3.203   1.642   5.887
 6911SOL     OW32611   0.435   4.332   2.116
 6911SOL    HW132612   0.410   4.246   2.150
 6911SOL    HW232613   0.388   4.395   2.171
 6912SOL     OW32614   1.942   3.455   0.961
 6912SOL    HW132615   1.972   3.518   0.895
 6912SOL    HW232616   1.856   3.426   0.929
 6913SOL     OW32617   1.419   4.173  21.057
 6913SOL    HW132618   1.405   4.139  20.968
 6913SOL    HW232619   1.504   4.136  21.083
 6914SOL     OW32620   3.014   2.299  14.161
 6914SOL    HW132621   3.027   2.314  14.067
 6914SOL    HW232622   3.056   2.374  14.203
 6915SOL     OW32623   2.640   2.815   1.522
 6915SOL    HW132624   2.639   2.841   1.430
 6915SOL    HW232625   2.666   2.894   1.569
 6916SOL     OW32626   4.786   0.269  11.470
 6916SOL    HW132627   0.020   0.177  11.459
 6916SOL    HW232628   4.747   0.274  11.557
 6917SOL     OW32629   4.014   2.622   3.240
 6917SOL    HW132630   4.037   2.706   3.200
 6917SOL    HW232631   3.919   2.626   3.249
 6918SOL     OW32632   0.384   0.085  15.004
 6918SOL    HW132633   0.376   0.138  15.083
 6918SOL    HW232634   0.328   0.009  15.021
 6919SOL     OW32635   4.713   1.554   2.977
 6919SOL    HW132636   4.620   1.567   2.998
 6919SOL    HW232637   4.752   1.527   3.060
 6920SOL     OW32638   4.509   3.001   3.854
 6920SOL    HW132639   4.482   3.084   3.815
 6920SOL    HW232640   4.547   2.951   3.781
 6921SOL     OW32641   0.540   3.097  20.087
 6921SOL    HW132642   0.562   3.185  20.118
 6921SOL    HW232643   0.458   3.075  20.131
 6922SOL     OW32644   0.944   3.730  20.072
 6922SOL    HW132645   0.868   3.760  20.122
 6922SOL    HW232646   1.011   3.797  20.088
 6923SOL     OW32647   3.351   0.897   0.177
 6923SOL    HW132648   3.417   0.934   0.118
 6923SOL    HW232649   3.384   0.917   0.265
 6924SOL     OW32650   0.317   3.016  18.008
 6924SOL    HW132651   0.297   2.934  18.053
 6924SOL    HW232652   0.354   3.072  18.076
 6925SOL     OW32653   0.423   2.680   5.237
 6925SOL    HW132654   0.502   2.636   5.268
 6925SOL    HW232655   0.422   2.666   5.142
 6926SOL     OW32656   3.959   4.734  16.287
 6926SOL    HW132657   3.984   4.767  16.373
 6926SOL    HW232658   3.958   0.022  16.231
 6927SOL     OW32659   3.927   0.522  21.088
 6927SOL    HW132660   3.948   0.534  21.181
 6927SOL    HW232661   3.930   0.427  21.075
 6928SOL     OW32662   3.341   0.431  20.793
 6928SOL    HW132663   3.365   0.360  20.852
 6928SOL    HW232664   3.272   0.394  20.737
 6929SOL     OW32665   4.329   4.199   0.139
 6929SOL    HW132666   4.326   4.176   0.232
 6929SOL    HW232667   4.422   4.207   0.120
 6930SOL     OW32668   1.646   3.879   5.660
 6930SOL    HW132669   1.615   3.858   5.748
 6930SOL    HW232670   1.739   3.855   5.661
 6931SOL     OW32671   0.403   3.111   6.507
 6931SOL    HW132672   0.326   3.119   6.451
 6931SOL    HW232673   0.368   3.108   6.596
 6932SOL     OW32674   2.377   1.586  20.947
 6932SOL    HW132675   2.299   1.536  20.972
 6932SOL    HW232676   2.355   1.676  20.970
 6933SOL     OW32677   1.506   0.253   1.863
 6933SOL    HW132678   1.580   0.199   1.834
 6933SOL    HW232679   1.545   0.338   1.885
 6934SOL     OW32680   1.015   4.607   2.164
 6934SOL    HW132681   1.033   4.701   2.161
 6934SOL    HW232682   0.952   4.592   2.094
 6935SOL     OW32683   1.698   4.267  18.112
 6935SOL    HW132684   1.608   4.257  18.081
 6935SOL    HW232685   1.689   4.283  18.206
 6936SOL     OW32686   4.763   2.046   1.960
 6936SOL    HW132687   0.020   1.964   1.947
 6936SOL    HW232688   4.698   2.026   2.028
 6937SOL     OW32689   3.883   2.949   6.703
 6937SOL    HW132690   3.951   2.902   6.750
 6937SOL    HW232691   3.816   2.966   6.769
 6938SOL     OW32692   4.081   2.870  18.841
 6938SOL    HW132693   4.077   2.953  18.794
 6938SOL    HW232694   4.045   2.890  18.927
 6939SOL     OW32695   4.201   4.122   0.700
 6939SOL    HW132696   4.189   4.047   0.758
 6939SOL    HW232697   4.197   4.198   0.758
 6940SOL     OW32698   2.261   0.005  16.280
 6940SOL    HW132699   2.314   0.075  16.242
 6940SOL    HW232700   2.247   0.032  16.371
 6941SOL     OW32701   4.470   2.864  20.781
 6941SOL    HW132702   4.453   2.934  20.718
 6941SOL    HW232703   4.428   2.894  20.862
 6942SOL     OW32704   4.704   3.373   2.191
 6942SOL    HW132705   4.652   3.452   2.204
 6942SOL    HW232706   4.760   3.368   2.269
 6943SOL     OW32707   3.127   2.988   2.898
 6943SOL    HW132708   3.216   3.018   2.919
 6943SOL    HW232709   3.136   2.939   2.817
 6944SOL     OW32710   3.977   4.089  14.031
 6944SOL    HW132711   4.031   4.099  14.110
 6944SOL    HW232712   3.890   4.065  14.064
 6945SOL     OW32713   0.130   0.254  18.192
 6945SOL    HW132714   0.220   0.282  18.210
 6945SOL    HW232715   0.094   0.323  18.137
 6946SOL     OW32716   1.014   0.264   2.478
 6946SOL    HW132717   0.936   0.209   2.483
 6946SOL    HW232718   0.980   0.353   2.480
 6947SOL     OW32719   1.995   0.444  17.892
 6947SOL    HW132720   2.000   0.384  17.966
 6947SOL    HW232721   1.971   0.528  17.931
 6948SOL     OW32722   2.629   1.767   3.029
 6948SOL    HW132723   2.691   1.695   3.041
 6948SOL    HW232724   2.569   1.760   3.103
 6949SOL     OW32725   0.735   4.629   5.771
 6949SOL    HW132726   0.779   4.567   5.829
 6949SOL    HW232727   0.788   4.629   5.691
 6950SOL     OW32728   0.503   1.272  18.802
 6950SOL    HW132729   0.574   1.257  18.739
 6950SOL    HW232730   0.530   1.226  18.881
 6951SOL     OW32731   2.539   4.264  21.065
 6951SOL    HW132732   2.563   4.355  21.046
 6951SOL    HW232733   2.510   4.265  21.156
 6952SOL     OW32734   0.118   3.591  20.894
 6952SOL    HW132735   0.080   3.527  20.834
 6952SOL    HW232736   0.073   3.576  20.977
 6953SOL     OW32737   4.676   1.905  19.600
 6953SOL    HW132738   4.637   1.927  19.515
 6953SOL    HW232739   4.601   1.895  19.659
 6954SOL     OW32740   3.049   1.539  20.467
 6954SOL    HW132741   3.091   1.508  20.387
 6954SOL    HW232742   3.037   1.460  20.520
 6955SOL     OW32743   2.339   1.810   6.301
 6955SOL    HW132744   2.377   1.898   6.295
 6955SOL    HW232745   2.414   1.752   6.311
 6956SOL     OW32746   4.208   0.260   0.001
 6956SOL    HW132747   4.114   0.252  21.243
 6956SOL    HW232748   4.248   0.211  21.186
 6957SOL     OW32749   0.568   2.602  20.498
 6957SOL    HW132750   0.487   2.577  20.542
 6957SOL    HW232751   0.608   2.666  20.556
 6958SOL     OW32752   0.875   3.357  20.691
 6958SOL    HW132753   0.785   3.380  20.667
 6958SOL    HW232754   0.875   3.356  20.787
 6959SOL     OW32755   0.349   0.470   5.655
 6959SOL    HW132756   0.381   0.442   5.741
 6959SOL    HW232757   0.315   0.390   5.615
 6960SOL     OW32758   3.083   4.176  17.863
 6960SOL    HW132759   3.130   4.221  17.933
 6960SOL    HW232760   3.094   4.083  17.883
 6961SOL     OW32761   2.524   4.130  18.592
 6961SOL    HW132762   2.551   4.054  18.643
 6961SOL    HW232763   2.433   4.113  18.568
 6962SOL     OW32764   3.487   4.737   4.846
 6962SOL    HW132765   3.460   4.725   4.755
 6962SOL    HW232766   3.501   0.042   4.855
 6963SOL     OW32767   1.508   3.425   0.067
 6963SOL    HW132768   1.521   3.494   0.002
 6963SOL    HW232769   1.480   3.471   0.146
 6964SOL     OW32770   4.265   0.189  19.369
 6964SOL    HW132771   4.274   0.205  19.275
 6964SOL    HW232772   4.177   0.219  19.391
 6965SOL     OW32773   4.040   4.533  17.996
 6965SOL    HW132774   4.003   4.483  18.068
 6965SOL    HW232775   4.128   4.556  18.025
 6966SOL     OW32776   4.625   1.019  16.226
 6966SOL    HW132777   4.650   0.989  16.314
 6966SOL    HW232778   4.686   1.091  16.208
 6967SOL     OW32779   1.788   2.058   5.397
 6967SOL    HW132780   1.746   2.010   5.325
 6967SOL    HW232781   1.789   2.149   5.368
 6968SOL     OW32782   4.125   1.439  18.713
 6968SOL    HW132783   4.036   1.447  18.747
 6968SOL    HW232784   4.181   1.456  18.789
 6969SOL     OW32785   3.579   1.685  18.761
 6969SOL    HW132786   3.666   1.647  18.773
 6969SOL    HW232787   3.523   1.610  18.740
 6970SOL     OW32788   1.706   1.965   0.030
 6970SOL    HW132789   1.667   2.012   0.103
 6970SOL    HW232790   1.784   2.015   0.008
 6971SOL     OW32791   3.306   3.982   3.919
 6971SOL    HW132792   3.351   4.066   3.905
 6971SOL    HW232793   3.336   3.953   4.005
 6972SOL     OW32794   2.437   3.388   0.070
 6972SOL    HW132795   2.400   3.362   0.154
 6972SOL    HW232796   2.467   3.478   0.084
 6973SOL     OW32797   3.801   0.731  19.930
 6973SOL    HW132798   3.826   0.653  19.881
 6973SOL    HW232799   3.877   0.750  19.986
 6974SOL     OW32800   3.044   1.452   4.159
 6974SOL    HW132801   3.023   1.422   4.070
 6974SOL    HW232802   3.110   1.521   4.146
 6975SOL     OW32803   3.980   1.497  15.623
 6975SOL    HW132804   3.933   1.579  15.609
 6975SOL    HW232805   3.912   1.433  15.645
 6976SOL     OW32806   1.035   3.478   0.760
 6976SOL    HW132807   0.999   3.443   0.841
 6976SOL    HW232808   1.084   3.405   0.722
 6977SOL     OW32809   4.568   3.009   0.598
 6977SOL    HW132810   4.507   2.943   0.630
 6977SOL    HW232811   4.612   3.041   0.677
 6978SOL     OW32812   4.567   3.949   5.684
 6978SOL    HW132813   4.519   3.900   5.618
 6978SOL    HW232814   4.629   4.003   5.634
 6979SOL     OW32815   3.268   4.560   3.518
 6979SOL    HW132816   3.218   4.522   3.446
 6979SOL    HW232817   3.288   4.486   3.575
 6980SOL     OW32818   3.104   2.197  13.588
 6980SOL    HW132819   3.015   2.169  13.610
 6980SOL    HW232820   3.132   2.138  13.518
 6981SOL     OW32821   2.852   0.812   5.095
 6981SOL    HW132822   2.886   0.723   5.098
 6981SOL    HW232823   2.782   0.814   5.160
 6982SOL     OW32824   2.738   2.428   2.693
 6982SOL    HW132825   2.762   2.347   2.738
 6982SOL    HW232826   2.719   2.401   2.603
 6983SOL     OW32827   4.588   1.910  20.879
 6983SOL    HW132828   4.612   1.994  20.919
 6983SOL    HW232829   4.624   1.914  20.791
 6984SOL     OW32830   4.574   2.008  19.367
 6984SOL    HW132831   4.581   2.005  19.272
 6984SOL    HW232832   4.534   2.093  19.386
 6985SOL     OW32833   0.114   3.067   3.058
 6985SOL    HW132834   0.097   2.992   3.115
 6985SOL    HW232835   0.209   3.079   3.062
 6986SOL     OW32836   4.173   3.467  20.663
 6986SOL    HW132837   4.160   3.377  20.633
 6986SOL    HW232838   4.096   3.515  20.632
 6987SOL     OW32839   3.038   0.706   2.060
 6987SOL    HW132840   3.004   0.792   2.083
 6987SOL    HW232841   2.987   0.680   1.984
 6988SOL     OW32842   3.058   0.571   2.464
 6988SOL    HW132843   3.053   0.510   2.537
 6988SOL    HW232844   2.975   0.619   2.468
 6989SOL     OW32845   0.040   1.965   7.673
 6989SOL    HW132846   0.081   1.885   7.706
 6989SOL    HW232847   0.113   2.018   7.641
 6990SOL     OW32848   1.864   2.875  17.072
 6990SOL    HW132849   1.879   2.963  17.038
 6990SOL    HW232850   1.889   2.881  17.164
 6991SOL     OW32851   0.269   0.431   3.375
 6991SOL    HW132852   0.236   0.495   3.312
 6991SOL    HW232853   0.342   0.389   3.331
 6992SOL     OW32854   0.623   2.000   6.129
 6992SOL    HW132855   0.663   2.042   6.053
 6992SOL    HW232856   0.650   1.908   6.122
 6993SOL     OW32857   4.770   0.556   8.176
 6993SOL    HW132858   0.057   0.577   8.123
 6993SOL    HW232859   0.013   0.558   8.266
 6994SOL     OW32860   4.283   1.473   0.717
 6994SOL    HW132861   4.258   1.510   0.801
 6994SOL    HW232862   4.212   1.412   0.695
 6995SOL     OW32863   0.272   0.658   3.631
 6995SOL    HW132864   0.227   0.598   3.690
 6995SOL    HW232865   0.286   0.737   3.684
 6996SOL     OW32866   1.896   4.550  16.536
 6996SOL    HW132867   1.838   4.478  16.509
 6996SOL    HW232868   1.900   4.608  16.460
 6997SOL     OW32869   0.990   0.338  17.392
 6997SOL    HW132870   1.007   0.412  17.450
 6997SOL    HW232871   0.966   0.378  17.308
 6998SOL     OW32872   1.257   0.900   0.202
 6998SOL    HW132873   1.227   0.820   0.245
 6998SOL    HW232874   1.243   0.969   0.267
 6999SOL     OW32875   2.437   0.911  19.309
 6999SOL    HW132876   2.508   0.924  19.246
 6999SOL    HW232877   2.371   0.862  19.261
 7000SOL     OW32878   0.714   1.797   2.783
 7000SOL    HW132879   0.675   1.792   2.870
 7000SOL    HW232880   0.659   1.741   2.728
 7001SOL     OW32881   0.529   1.558   0.121
 7001SOL    HW132882   0.618   1.529   0.101
 7001SOL    HW232883   0.540   1.636   0.175
 7002SOL     OW32884   3.836   2.637  18.211
 7002SOL    HW132885   3.795   2.637  18.125
 7002SOL    HW232886   3.869   2.548  18.221
 7003SOL     OW32887   2.526   1.311   8.087
 7003SOL    HW132888   2.452   1.354   8.131
 7003SOL    HW232889   2.557   1.376   8.024
 7004SOL     OW32890   3.053   3.111  15.938
 7004SOL    HW132891   3.098   3.027  15.927
 7004SOL    HW232892   3.111   3.175  15.896
 7005SOL     OW32893   2.774   3.452   4.252
 7005SOL    HW132894   2.749   3.526   4.196
 7005SOL    HW232895   2.692   3.406   4.269
 7006SOL     OW32896   3.332   2.493  15.639
 7006SOL    HW132897   3.267   2.444  15.589
 7006SOL    HW232898   3.297   2.494  15.728
 7007SOL     OW32899   1.623   3.686  15.833
 7007SOL    HW132900   1.561   3.632  15.881
 7007SOL    HW232901   1.691   3.708  15.897
 7008SOL     OW32902   3.141   1.489   5.831
 7008SOL    HW132903   3.046   1.479   5.825
 7008SOL    HW232904   3.170   1.411   5.877
 7009SOL     OW32905   4.216   0.968  16.990
 7009SOL    HW132906   4.283   1.010  17.044
 7009SOL    HW232907   4.260   0.946  16.908
 7010SOL     OW32908   3.491   2.044   5.808
 7010SOL    HW132909   3.464   1.954   5.826
 7010SOL    HW232910   3.582   2.048   5.836
 7011SOL     OW32911   2.187   0.324   0.530
 7011SOL    HW132912   2.199   0.393   0.595
 7011SOL    HW232913   2.263   0.267   0.540
 7012SOL     OW32914   1.781   3.269  18.444
 7012SOL    HW132915   1.707   3.311  18.487
 7012SOL    HW232916   1.852   3.273  18.508
 7013SOL     OW32917   1.417   4.494  20.234
 7013SOL    HW132918   1.402   4.487  20.140
 7013SOL    HW232919   1.371   4.419  20.272
 7014SOL     OW32920   2.923   2.275  17.918
 7014SOL    HW132921   2.913   2.180  17.913
 7014SOL    HW232922   2.991   2.288  17.985
 7015SOL     OW32923   1.238   2.402  17.568
 7015SOL    HW132924   1.211   2.384  17.658
 7015SOL    HW232925   1.158   2.428  17.523
 7016SOL     OW32926   1.797   2.385   0.386
 7016SOL    HW132927   1.865   2.395   0.453
 7016SOL    HW232928   1.735   2.323   0.424
 7017SOL     OW32929   0.332   3.225  17.419
 7017SOL    HW132930   0.415   3.270  17.404
 7017SOL    HW232931   0.306   3.253  17.507
 7018SOL     OW32932   3.078   1.918   2.381
 7018SOL    HW132933   3.121   1.886   2.460
 7018SOL    HW232934   3.149   1.951   2.326
 7019SOL     OW32935   3.991   0.296  19.888
 7019SOL    HW132936   3.908   0.251  19.871
 7019SOL    HW232937   4.028   0.250  19.964
 7020SOL     OW32938   0.322   4.036  17.813
 7020SOL    HW132939   0.393   4.084  17.856
 7020SOL    HW232940   0.297   3.969  17.876
 7021SOL     OW32941   4.120   2.403  17.719
 7021SOL    HW132942   4.183   2.466  17.753
 7021SOL    HW232943   4.146   2.319  17.757
 7022SOL     OW32944   2.425   3.421  18.256
 7022SOL    HW132945   2.424   3.502  18.307
 7022SOL    HW232946   2.423   3.451  18.165
 7023SOL     OW32947   1.648   0.510   3.609
 7023SOL    HW132948   1.688   0.423   3.606
 7023SOL    HW232949   1.632   0.532   3.517
 7024SOL     OW32950   0.999   2.747   1.843
 7024SOL    HW132951   1.083   2.792   1.849
 7024SOL    HW232952   0.967   2.743   1.933
 7025SOL     OW32953   1.017   0.192  15.821
 7025SOL    HW132954   1.102   0.223  15.788
 7025SOL    HW232955   0.953   0.245  15.774
 7026SOL     OW32956   4.194   1.193  21.040
 7026SOL    HW132957   4.191   1.165  20.948
 7026SOL    HW232958   4.222   1.284  21.036
 7027SOL     OW32959   1.505   3.850   2.283
 7027SOL    HW132960   1.512   3.805   2.199
 7027SOL    HW232961   1.419   3.892   2.281
 7028SOL     OW32962   2.267   1.447  16.701
 7028SOL    HW132963   2.266   1.522  16.641
 7028SOL    HW232964   2.214   1.475  16.776
 7029SOL     OW32965   0.128   4.723  18.579
 7029SOL    HW132966   0.163   4.650  18.630
 7029SOL    HW232967   0.034   4.721  18.596
 7030SOL     OW32968   3.454   1.760   5.430
 7030SOL    HW132969   3.396   1.764   5.354
 7030SOL    HW232970   3.415   1.822   5.492
 7031SOL     OW32971   2.837   0.248  18.550
 7031SOL    HW132972   2.770   0.181  18.534
 7031SOL    HW232973   2.788   0.330  18.558
 7032SOL     OW32974   2.453   0.234   0.080
 7032SOL    HW132975   2.361   0.254   0.095
 7032SOL    HW232976   2.500   0.304   0.126
 7033SOL     OW32977   1.919   0.591  18.767
 7033SOL    HW132978   1.898   0.646  18.843
 7033SOL    HW232979   1.953   0.510  18.805
 7034SOL     OW32980   0.512   3.187  20.606
 7034SOL    HW132981   0.524   3.221  20.695
 7034SOL    HW232982   0.431   3.228  20.575
 7035SOL     OW32983   1.549   2.245   1.973
 7035SOL    HW132984   1.492   2.262   1.898
 7035SOL    HW232985   1.601   2.325   1.982
 7036SOL     OW32986   0.392   3.743   4.013
 7036SOL    HW132987   0.441   3.825   4.014
 7036SOL    HW232988   0.444   3.684   4.068
 7037SOL     OW32989   1.666   3.930   7.732
 7037SOL    HW132990   1.671   3.835   7.726
 7037SOL    HW232991   1.583   3.946   7.777
 7038SOL     OW32992   1.090   2.634  15.580
 7038SOL    HW132993   1.012   2.689  15.582
 7038SOL    HW232994   1.060   2.551  15.543
 7039SOL     OW32995   4.093   2.325   7.531
 7039SOL    HW132996   4.147   2.296   7.457
 7039SOL    HW232997   4.138   2.402   7.565
 7040SOL     OW32998   4.056   3.394   0.764
 7040SOL    HW132999   4.013   3.322   0.718
 7040SOL    HW233000   4.092   3.449   0.694
 7041SOL     OW33001   2.901   4.523  16.175
 7041SOL    HW133002   2.847   4.476  16.111
 7041SOL    HW233003   2.858   4.508  16.259
 7042SOL     OW33004   3.556   0.118  20.503
 7042SOL    HW133005   3.574   0.098  20.595
 7042SOL    HW233006   3.461   0.113  20.496
 7043SOL     OW33007   0.213   1.280  16.848
 7043SOL    HW133008   0.170   1.204  16.887
 7043SOL    HW233009   0.141   1.335  16.818
 7044SOL     OW33010   4.039   0.523  20.825
 7044SOL    HW133011   3.988   0.519  20.906
 7044SOL    HW233012   4.101   0.594  20.839
 7045SOL     OW33013   2.149   3.499   5.392
 7045SOL    HW133014   2.116   3.471   5.307
 7045SOL    HW233015   2.080   3.554   5.428
 7046SOL     OW33016   2.714   2.196  19.802
 7046SOL    HW133017   2.635   2.151  19.772
 7046SOL    HW233018   2.690   2.232  19.888
 7047SOL     OW33019   0.266   2.076  14.213
 7047SOL    HW133020   0.299   1.986  14.213
 7047SOL    HW233021   0.194   2.075  14.150
 7048SOL     OW33022   4.423   1.742  17.479
 7048SOL    HW133023   4.393   1.812  17.537
 7048SOL    HW233024   4.343   1.707  17.440
 7049SOL     OW33025   3.469   2.075   6.979
 7049SOL    HW133026   3.478   2.161   6.939
 7049SOL    HW233027   3.442   2.018   6.907
 7050SOL     OW33028   1.742   4.497  19.495
 7050SOL    HW133029   1.833   4.526  19.495
 7050SOL    HW233030   1.698   4.555  19.433
 7051SOL     OW33031   4.440   3.827  17.516
 7051SOL    HW133032   4.520   3.853  17.561
 7051SOL    HW233033   4.467   3.759  17.455
 7052SOL     OW33034   2.789   1.992  21.092
 7052SOL    HW133035   2.713   1.953  21.049
 7052SOL    HW233036   2.814   1.928  21.159
 7053SOL     OW33037   0.171   1.840   1.188
 7053SOL    HW133038   0.151   1.906   1.255
 7053SOL    HW233039   0.257   1.806   1.213
 7054SOL     OW33040   2.234   1.447  19.485
 7054SOL    HW133041   2.295   1.521  19.491
 7054SOL    HW233042   2.148   1.488  19.472
 7055SOL     OW33043   4.472   3.699   4.836
 7055SOL    HW133044   4.472   3.604   4.825
 7055SOL    HW233045   4.514   3.713   4.921
 7056SOL     OW33046   1.802   1.690   5.844
 7056SOL    HW133047   1.749   1.632   5.790
 7056SOL    HW233048   1.738   1.743   5.892
 7057SOL     OW33049   4.720   2.550   1.145
 7057SOL    HW133050   4.720   2.538   1.240
 7057SOL    HW233051   4.733   2.462   1.110
 7058SOL     OW33052   4.014   2.121  19.539
 7058SOL    HW133053   4.007   2.192  19.475
 7058SOL    HW233054   4.052   2.048  19.490
 7059SOL     OW33055   4.541   1.543  15.223
 7059SOL    HW133056   4.613   1.569  15.280
 7059SOL    HW233057   4.576   1.549  15.134
 7060SOL     OW33058   1.316   2.691  19.972
 7060SOL    HW133059   1.366   2.641  20.037
 7060SOL    HW233060   1.381   2.720  19.908
 7061SOL     OW33061   3.095   3.807   1.994
 7061SOL    HW133062   3.019   3.760   2.028
 7061SOL    HW233063   3.170   3.755   2.022
 7062SOL     OW33064   0.094   2.882  19.813
 7062SOL    HW133065   0.180   2.853  19.843
 7062SOL    HW233066   0.045   2.801  19.798
 7063SOL     OW33067   1.649   3.158  15.180
 7063SOL    HW133068   1.569   3.196  15.144
 7063SOL    HW233069   1.645   3.180  15.273
 7064SOL     OW33070   4.372   4.098  18.390
 7064SOL    HW133071   4.332   4.085  18.476
 7064SOL    HW233072   4.422   4.018  18.374
 7065SOL     OW33073   2.792   4.555   1.510
 7065SOL    HW133074   2.831   4.475   1.544
 7065SOL    HW233075   2.817   4.557   1.418
 7066SOL     OW33076   3.637   1.157   2.245
 7066SOL    HW133077   3.591   1.212   2.182
 7066SOL    HW233078   3.729   1.182   2.236
 7067SOL     OW33079   3.395   2.976  18.780
 7067SOL    HW133080   3.413   3.018  18.696
 7067SOL    HW233081   3.472   2.994  18.833
 7068SOL     OW33082   1.145   4.069  15.451
 7068SOL    HW133083   1.143   4.160  15.421
 7068SOL    HW233084   1.228   4.035  15.417
 7069SOL     OW33085   2.513   1.726  18.491
 7069SOL    HW133086   2.567   1.648  18.503
 7069SOL    HW233087   2.563   1.780  18.430
 7070SOL     OW33088   3.485   0.288   0.723
 7070SOL    HW133089   3.434   0.335   0.789
 7070SOL    HW233090   3.435   0.299   0.642
 7071SOL     OW33091   2.847   3.096  16.518
 7071SOL    HW133092   2.879   3.150  16.446
 7071SOL    HW233093   2.790   3.031  16.476
 7072SOL     OW33094   1.653   1.600  16.183
 7072SOL    HW133095   1.622   1.690  16.171
 7072SOL    HW233096   1.747   1.608  16.196
 7073SOL     OW33097   1.352   4.093   1.625
 7073SOL    HW133098   1.359   4.006   1.586
 7073SOL    HW233099   1.363   4.153   1.551
 7074SOL     OW33100   0.231   2.403   2.274
 7074SOL    HW133101   0.136   2.399   2.287
 7074SOL    HW233102   0.249   2.495   2.255
 7075SOL     OW33103   3.173   3.784   3.815
 7075SOL    HW133104   3.237   3.843   3.854
 7075SOL    HW233105   3.100   3.782   3.877
 7076SOL     OW33106   0.290   0.225   5.328
 7076SOL    HW133107   0.359   0.167   5.360
 7076SOL    HW233108   0.336   0.289   5.273
 7077SOL     OW33109   2.425   1.809   0.583
 7077SOL    HW133110   2.403   1.760   0.504
 7077SOL    HW233111   2.515   1.839   0.568
 7078SOL     OW33112   3.347   0.415  20.330
 7078SOL    HW133113   3.301   0.392  20.249
 7078SOL    HW233114   3.298   0.490  20.364
 7079SOL     OW33115   2.847   2.784   4.494
 7079SOL    HW133116   2.902   2.711   4.465
 7079SOL    HW233117   2.807   2.753   4.575
 7080SOL     OW33118   3.705   2.440   4.556
 7080SOL    HW133119   3.712   2.387   4.476
 7080SOL    HW233120   3.794   2.441   4.592
 7081SOL     OW33121   3.204   1.395  15.652
 7081SOL    HW133122   3.282   1.442  15.681
 7081SOL    HW233123   3.172   1.350  15.731
 7082SOL     OW33124   1.596   1.317  16.309
 7082SOL    HW133125   1.646   1.331  16.390
 7082SOL    HW233126   1.629   1.383  16.249
 7083SOL     OW33127   4.316   2.348  18.642
 7083SOL    HW133128   4.227   2.345  18.608
 7083SOL    HW233129   4.310   2.407  18.717
 7084SOL     OW33130   0.736   3.795   0.719
 7084SOL    HW133131   0.772   3.790   0.807
 7084SOL    HW233132   0.799   3.848   0.670
 7085SOL     OW33133   4.343   0.900   0.774
 7085SOL    HW133134   4.350   0.820   0.722
 7085SOL    HW233135   4.299   0.962   0.717
 7086SOL     OW33136   4.166   2.001  20.900
 7086SOL    HW133137   4.218   1.923  20.922
 7086SOL    HW233138   4.124   2.025  20.982
 7087SOL     OW33139   1.140   4.159   1.149
 7087SOL    HW133140   1.225   4.201   1.165
 7087SOL    HW233141   1.100   4.153   1.236
 7088SOL     OW33142   0.495   2.951   1.238
 7088SOL    HW133143   0.416   2.995   1.271
 7088SOL    HW233144   0.565   2.983   1.295
 7089SOL     OW33145   1.838   1.389  17.911
 7089SOL    HW133146   1.768   1.339  17.870
 7089SOL    HW233147   1.798   1.428  17.989
 7090SOL     OW33148   2.676   4.081   6.786
 7090SOL    HW133149   2.687   4.111   6.696
 7090SOL    HW233150   2.765   4.059   6.815
 7091SOL     OW33151   1.131   3.067  16.720
 7091SOL    HW133152   1.164   2.994  16.772
 7091SOL    HW233153   1.037   3.050  16.712
 7092SOL     OW33154   4.206   1.184   6.719
 7092SOL    HW133155   4.151   1.205   6.644
 7092SOL    HW233156   4.238   1.269   6.750
 7093SOL     OW33157   0.708   0.132   4.326
 7093SOL    HW133158   0.667   0.056   4.286
 7093SOL    HW233159   0.753   0.176   4.254
 7094SOL     OW33160   4.232   4.154  20.255
 7094SOL    HW133161   4.254   4.153  20.348
 7094SOL    HW233162   4.136   4.152  20.253
 7095SOL     OW33163   2.884   1.015  17.014
 7095SOL    HW133164   2.844   1.036  16.930
 7095SOL    HW233165   2.975   1.043  17.004
 7096SOL     OW33166   3.833   1.035  15.557
 7096SOL    HW133167   3.882   1.087  15.493
 7096SOL    HW233168   3.873   0.948  15.553
 7097SOL     OW33169   0.448   3.568  18.110
 7097SOL    HW133170   0.388   3.588  18.182
 7097SOL    HW233171   0.487   3.652  18.088
 7098SOL     OW33172   2.809   0.521  20.048
 7098SOL    HW133173   2.716   0.497  20.045
 7098SOL    HW233174   2.833   0.510  20.140
 7099SOL     OW33175   2.217   3.260   1.969
 7099SOL    HW133176   2.227   3.197   2.040
 7099SOL    HW233177   2.307   3.284   1.946
 7100SOL     OW33178   1.469   0.077   0.868
 7100SOL    HW133179   1.501   4.777   0.877
 7100SOL    HW233180   1.379   0.068   0.837
 7101SOL     OW33181   2.791   2.197  12.979
 7101SOL    HW133182   2.828   2.272  12.933
 7101SOL    HW233183   2.853   2.126  12.963
 7102SOL     OW33184   3.108   3.407   5.180
 7102SOL    HW133185   3.064   3.434   5.100
 7102SOL    HW233186   3.165   3.335   5.153
 7103SOL     OW33187   1.442   0.954  20.359
 7103SOL    HW133188   1.452   0.949  20.454
 7103SOL    HW233189   1.426   1.047  20.342
 7104SOL     OW33190   4.473   0.851  17.145
 7104SOL    HW133191   4.399   0.911  17.156
 7104SOL    HW233192   4.545   0.892  17.193
 7105SOL     OW33193   4.779   1.814   5.517
 7105SOL    HW133194   0.039   1.865   5.581
 7105SOL    HW233195   0.028   1.837   5.433
 7106SOL     OW33196   1.613   3.577  12.841
 7106SOL    HW133197   1.611   3.482  12.828
 7106SOL    HW233198   1.556   3.591  12.916
 7107SOL     OW33199   1.910   0.531   4.322
 7107SOL    HW133200   1.860   0.606   4.289
 7107SOL    HW233201   1.844   0.468   4.349
 7108SOL     OW33202   4.179   2.622   2.188
 7108SOL    HW133203   4.237   2.689   2.223
 7108SOL    HW233204   4.232   2.542   2.188
 7109SOL     OW33205   4.453   0.083  21.177
 7109SOL    HW133206   4.516   0.014  21.155
 7109SOL    HW233207   4.487   0.161  21.133
 7110SOL     OW33208   4.170   4.020  12.818
 7110SOL    HW133209   4.099   4.077  12.848
 7110SOL    HW233210   4.129   3.935  12.805
 7111SOL     OW33211   4.144   0.224  17.501
 7111SOL    HW133212   4.093   0.286  17.552
 7111SOL    HW233213   4.226   0.269  17.483
 7112SOL     OW33214   2.932   0.432  17.253
 7112SOL    HW133215   2.897   0.387  17.176
 7112SOL    HW233216   3.017   0.466  17.224
 7113SOL     OW33217   0.009   0.149  20.191
 7113SOL    HW133218   4.767   0.061  20.170
 7113SOL    HW233219   0.016   0.150  20.287
 7114SOL     OW33220   1.546   3.850   3.889
 7114SOL    HW133221   1.549   3.908   3.813
 7114SOL    HW233222   1.637   3.822   3.901
 7115SOL     OW33223   2.957   0.963   8.964
 7115SOL    HW133224   2.914   1.043   8.935
 7115SOL    HW233225   2.928   0.951   9.054
 7116SOL     OW33226   3.151   0.871   2.380
 7116SOL    HW133227   3.057   0.876   2.396
 7116SOL    HW233228   3.172   0.778   2.390
 7117SOL     OW33229   0.256   2.665   2.221
 7117SOL    HW133230   0.307   2.684   2.142
 7117SOL    HW233231   0.314   2.688   2.294
 7118SOL     OW33232   3.054   4.307  18.291
 7118SOL    HW133233   2.998   4.366  18.341
 7118SOL    HW233234   2.993   4.252  18.243
 7119SOL     OW33235   3.723   2.144   5.395
 7119SOL    HW133236   3.731   2.166   5.302
 7119SOL    HW233237   3.749   2.052   5.400
 7120SOL     OW33238   2.076   2.102  19.589
 7120SOL    HW133239   2.107   2.015  19.612
 7120SOL    HW233240   2.018   2.127  19.661
 7121SOL     OW33241   1.267   0.745  19.512
 7121SOL    HW133242   1.318   0.819  19.545
 7121SOL    HW233243   1.205   0.724  19.582
 7122SOL     OW33244   3.183   2.473   5.207
 7122SOL    HW133245   3.160   2.545   5.266
 7122SOL    HW233246   3.130   2.399   5.238
 7123SOL     OW33247   3.409   2.269  19.185
 7123SOL    HW133248   3.317   2.245  19.170
 7123SOL    HW233249   3.405   2.356  19.225
 7124SOL     OW33250   3.257   4.457  20.906
 7124SOL    HW133251   3.306   4.451  20.824
 7124SOL    HW233252   3.168   4.479  20.879
 7125SOL     OW33253   2.794   1.394  20.400
 7125SOL    HW133254   2.766   1.340  20.474
 7125SOL    HW233255   2.740   1.473  20.407
 7126SOL     OW33256   3.904   4.055   2.258
 7126SOL    HW133257   3.919   4.144   2.289
 7126SOL    HW233258   3.963   4.001   2.311
 7127SOL     OW33259   3.659   3.753   4.400
 7127SOL    HW133260   3.629   3.844   4.402
 7127SOL    HW233261   3.583   3.703   4.370
 7128SOL     OW33262   0.696   3.983  15.955
 7128SOL    HW133263   0.784   3.952  15.978
 7128SOL    HW233264   0.667   3.924  15.886
 7129SOL     OW33265   1.431   0.533   2.433
 7129SOL    HW133266   1.409   0.626   2.424
 7129SOL    HW233267   1.494   0.516   2.363
 7130SOL     OW33268   4.392   1.088   3.462
 7130SOL    HW133269   4.331   1.134   3.519
 7130SOL    HW233270   4.473   1.138   3.469
 7131SOL     OW33271   2.465   0.255   4.004
 7131SOL    HW133272   2.508   0.248   3.919
 7131SOL    HW233273   2.426   0.169   4.019
 7132SOL     OW33274   1.267   0.078  18.853
 7132SOL    HW133275   1.212   0.018  18.904
 7132SOL    HW233276   1.265   0.042  18.764
 7133SOL     OW33277   2.832   1.834   5.411
 7133SOL    HW133278   2.824   1.835   5.316
 7133SOL    HW233279   2.842   1.741   5.434
 7134SOL     OW33280   1.944   3.446  20.989
 7134SOL    HW133281   1.975   3.367  21.032
 7134SOL    HW233282   1.852   3.428  20.971
 7135SOL     OW33283   2.728   2.673   4.083
 7135SOL    HW133284   2.719   2.732   4.008
 7135SOL    HW233285   2.764   2.593   4.046
 7136SOL     OW33286   2.989   4.604  15.761
 7136SOL    HW133287   3.043   4.612  15.840
 7136SOL    HW233288   2.958   4.514  15.762
 7137SOL     OW33289   3.083   1.757  21.241
 7137SOL    HW133290   2.988   1.762  21.227
 7137SOL    HW233291   3.092   1.715   0.069
 7138SOL     OW33292   2.239   4.677  20.837
 7138SOL    HW133293   2.331   4.690  20.860
 7138SOL    HW233294   2.240   4.656  20.744
 7139SOL     OW33295   0.988   2.602   4.261
 7139SOL    HW133296   0.903   2.566   4.287
 7139SOL    HW233297   1.034   2.618   4.344
 7140SOL     OW33298   3.614   2.623  16.702
 7140SOL    HW133299   3.656   2.591  16.782
 7140SOL    HW233300   3.687   2.656  16.649
 7141SOL     OW33301   2.764   1.612   4.232
 7141SOL    HW133302   2.830   1.576   4.173
 7141SOL    HW233303   2.719   1.679   4.180
 7142SOL     OW33304   0.728   4.412   1.349
 7142SOL    HW133305   0.742   4.388   1.441
 7142SOL    HW233306   0.797   4.365   1.301
 7143SOL     OW33307   2.188   4.374   3.646
 7143SOL    HW133308   2.189   4.315   3.721
 7143SOL    HW233309   2.182   4.316   3.570
 7144SOL     OW33310   0.210   3.217   0.882
 7144SOL    HW133311   0.190   3.131   0.844
 7144SOL    HW233312   0.221   3.199   0.976
 7145SOL     OW33313   2.142   2.361   4.455
 7145SOL    HW133314   2.175   2.275   4.482
 7145SOL    HW233315   2.189   2.423   4.510
 7146SOL     OW33316   1.480   3.856  14.703
 7146SOL    HW133317   1.528   3.776  14.725
 7146SOL    HW233318   1.464   3.850  14.609
 7147SOL     OW33319   1.490   0.198   0.430
 7147SOL    HW133320   1.455   0.202   0.341
 7147SOL    HW233321   1.413   0.199   0.486
 7148SOL     OW33322   0.815   0.506   5.803
 7148SOL    HW133323   0.871   0.569   5.847
 7148SOL    HW233324   0.853   0.421   5.825
 7149SOL     OW33325   0.403   0.457  19.820
 7149SOL    HW133326   0.455   0.383  19.790
 7149SOL    HW233327   0.363   0.427  19.902
 7150SOL     OW33328   1.750   3.865  13.740
 7150SOL    HW133329   1.790   3.806  13.805
 7150SOL    HW233330   1.658   3.871  13.766
 7151SOL     OW33331   3.738   3.704  15.657
 7151SOL    HW133332   3.800   3.632  15.667
 7151SOL    HW233333   3.747   3.731  15.566
 7152SOL     OW33334   0.186   3.072  15.836
 7152SOL    HW133335   0.272   3.035  15.855
 7152SOL    HW233336   0.124   3.010  15.874
 7153SOL     OW33337   1.490   1.101   3.374
 7153SOL    HW133338   1.529   1.158   3.441
 7153SOL    HW233339   1.429   1.045   3.423
 7154SOL     OW33340   4.219   0.734  15.224
 7154SOL    HW133341   4.183   0.713  15.138
 7154SOL    HW233342   4.275   0.810  15.208
 7155SOL     OW33343   0.104   3.121  19.178
 7155SOL    HW133344   0.110   3.110  19.083
 7155SOL    HW233345   0.111   3.216  19.191
 7156SOL     OW33346   0.356   0.441  21.113
 7156SOL    HW133347   0.374   0.371  21.175
 7156SOL    HW233348   0.363   0.400  21.027
 7157SOL     OW33349   2.749   0.617   5.797
 7157SOL    HW133350   2.801   0.622   5.878
 7157SOL    HW233351   2.677   0.557   5.818
 7158SOL     OW33352   1.759   4.392  17.022
 7158SOL    HW133353   1.848   4.372  17.053
 7158SOL    HW233354   1.772   4.438  16.939
 7159SOL     OW33355   1.063   3.197  17.017
 7159SOL    HW133356   0.991   3.181  17.078
 7159SOL    HW233357   1.020   3.221  16.935
 7160SOL     OW33358   2.700   4.339  20.451
 7160SOL    HW133359   2.634   4.365  20.515
 7160SOL    HW233360   2.671   4.253  20.420
 7161SOL     OW33361   1.407   0.921  16.856
 7161SOL    HW133362   1.410   1.012  16.827
 7161SOL    HW233363   1.493   0.885  16.833
 7162SOL     OW33364   3.300   0.503   1.827
 7162SOL    HW133365   3.323   0.527   1.917
 7162SOL    HW233366   3.245   0.575   1.796
 7163SOL     OW33367   4.141   3.212  17.213
 7163SOL    HW133368   4.050   3.237  17.197
 7163SOL    HW233369   4.155   3.230  17.306
 7164SOL     OW33370   2.151   2.843   3.807
 7164SOL    HW133371   2.095   2.828   3.884
 7164SOL    HW233372   2.126   2.930   3.776
 7165SOL     OW33373   1.639   1.540   7.085
 7165SOL    HW133374   1.544   1.548   7.093
 7165SOL    HW233375   1.653   1.447   7.068
 7166SOL     OW33376   3.496   0.332   3.007
 7166SOL    HW133377   3.491   0.348   3.101
 7166SOL    HW233378   3.470   0.415   2.967
 7167SOL     OW33379   3.736   4.040   3.363
 7167SOL    HW133380   3.683   4.061   3.286
 7167SOL    HW233381   3.826   4.042   3.332
 7168SOL     OW33382   2.298   4.160  16.718
 7168SOL    HW133383   2.244   4.100  16.667
 7168SOL    HW233384   2.252   4.169  16.802
 7169SOL     OW33385   0.142   3.366  16.174
 7169SOL    HW133386   0.129   3.459  16.156
 7169SOL    HW233387   0.217   3.341  16.120
 7170SOL     OW33388   3.840   3.949   0.451
 7170SOL    HW133389   3.928   3.977   0.428
 7170SOL    HW233390   3.793   3.946   0.368
 7171SOL     OW33391   4.238   3.281  18.481
 7171SOL    HW133392   4.228   3.214  18.413
 7171SOL    HW233393   4.298   3.345  18.442
 7172SOL     OW33394   1.225   1.062   3.210
 7172SOL    HW133395   1.202   1.070   3.303
 7172SOL    HW233396   1.301   1.003   3.209
 7173SOL     OW33397   0.205   0.999   2.392
 7173SOL    HW133398   0.241   0.996   2.481
 7173SOL    HW233399   0.112   1.017   2.405
 7174SOL     OW33400   1.492   1.870   4.839
 7174SOL    HW133401   1.464   1.780   4.856
 7174SOL    HW233402   1.527   1.868   4.750
 7175SOL     OW33403   1.511   4.240   4.888
 7175SOL    HW133404   1.563   4.320   4.877
 7175SOL    HW233405   1.501   4.205   4.799
 7176SOL     OW33406   4.772   1.304   1.819
 7176SOL    HW133407   4.776   1.208   1.823
 7176SOL    HW233408   4.790   1.325   1.727
 7177SOL     OW33409   2.904   1.068   2.137
 7177SOL    HW133410   2.985   1.110   2.166
 7177SOL    HW233411   2.841   1.140   2.132
 7178SOL     OW33412   2.814   2.396  18.469
 7178SOL    HW133413   2.856   2.444  18.540
 7178SOL    HW233414   2.803   2.460  18.399
 7179SOL     OW33415   2.922   0.562  20.838
 7179SOL    HW133416   2.999   0.619  20.847
 7179SOL    HW233417   2.945   0.483  20.887
 7180SOL     OW33418   4.405   3.723   4.452
 7180SOL    HW133419   4.356   3.757   4.377
 7180SOL    HW233420   4.338   3.693   4.513
 7181SOL     OW33421   0.820   4.438  20.263
 7181SOL    HW133422   0.739   4.396  20.235
 7181SOL    HW233423   0.792   4.507  20.323
 7182SOL     OW33424   0.874   4.207  13.200
 7182SOL    HW133425   0.901   4.141  13.136
 7182SOL    HW233426   0.950   4.218  13.257
 7183SOL     OW33427   2.878   3.960  16.932
 7183SOL    HW133428   2.890   4.043  16.886
 7183SOL    HW233429   2.892   3.981  17.024
 7184SOL     OW33430   2.800   2.334  17.189
 7184SOL    HW133431   2.786   2.405  17.252
 7184SOL    HW233432   2.731   2.271  17.208
 7185SOL     OW33433   2.108   4.565  18.678
 7185SOL    HW133434   2.154   4.593  18.757
 7185SOL    HW233435   2.040   4.506  18.709
 7186SOL     OW33436   2.999   2.490  19.476
 7186SOL    HW133437   3.016   2.579  19.444
 7186SOL    HW233438   2.915   2.497  19.522
 7187SOL     OW33439   1.981   4.137  19.891
 7187SOL    HW133440   2.005   4.184  19.971
 7187SOL    HW233441   1.906   4.083  19.916
 7188SOL     OW33442   3.972   1.286   8.183
 7188SOL    HW133443   3.938   1.228   8.115
 7188SOL    HW233444   3.965   1.235   8.264
 7189SOL     OW33445   3.415   3.160  17.281
 7189SOL    HW133446   3.371   3.230  17.232
 7189SOL    HW233447   3.350   3.090  17.285
 7190SOL     OW33448   4.349   0.863   4.798
 7190SOL    HW133449   4.310   0.858   4.711
 7190SOL    HW233450   4.443   0.856   4.783
 7191SOL     OW33451   4.439   3.321  16.260
 7191SOL    HW133452   4.433   3.227  16.242
 7191SOL    HW233453   4.418   3.362  16.176
 7192SOL     OW33454   2.392   1.144   5.263
 7192SOL    HW133455   2.353   1.180   5.343
 7192SOL    HW233456   2.441   1.067   5.293
 7193SOL     OW33457   2.690   0.844   0.998
 7193SOL    HW133458   2.615   0.826   1.055
 7193SOL    HW233459   2.678   0.785   0.923
 7194SOL     OW33460   0.598   2.823   5.498
 7194SOL    HW133461   0.509   2.844   5.469
 7194SOL    HW233462   0.630   2.761   5.432
 7195SOL     OW33463   0.927   3.448   5.203
 7195SOL    HW133464   1.000   3.455   5.265
 7195SOL    HW233465   0.880   3.531   5.211
 7196SOL     OW33466   1.646   2.686   8.907
 7196SOL    HW133467   1.681   2.610   8.861
 7196SOL    HW233468   1.713   2.708   8.972
 7197SOL     OW33469   0.654   4.306   6.046
 7197SOL    HW133470   0.678   4.309   5.953
 7197SOL    HW233471   0.570   4.351   6.051
 7198SOL     OW33472   0.900   1.367   2.232
 7198SOL    HW133473   0.833   1.310   2.195
 7198SOL    HW233474   0.960   1.383   2.160
 7199SOL     OW33475   0.287   4.643   5.987
 7199SOL    HW133476   0.196   4.650   5.958
 7199SOL    HW233477   0.330   4.721   5.952
 7200SOL     OW33478   0.195   2.528  15.197
 7200SOL    HW133479   0.217   2.438  15.221
 7200SOL    HW233480   0.272   2.579  15.222
 7201SOL     OW33481   2.353   0.419  17.068
 7201SOL    HW133482   2.414   0.491  17.053
 7201SOL    HW233483   2.401   0.358  17.123
 7202SOL     OW33484   0.227   2.593   1.144
 7202SOL    HW133485   0.264   2.508   1.169
 7202SOL    HW233486   0.137   2.573   1.117
 7203SOL     OW33487   2.461   2.074   2.682
 7203SOL    HW133488   2.497   2.146   2.735
 7203SOL    HW233489   2.398   2.116   2.624
 7204SOL     OW33490   2.776   0.804  20.560
 7204SOL    HW133491   2.838   0.876  20.550
 7204SOL    HW233492   2.717   0.812  20.485
 7205SOL     OW33493   3.304   1.030  17.792
 7205SOL    HW133494   3.360   1.042  17.716
 7205SOL    HW233495   3.339   0.952  17.836
 7206SOL     OW33496   1.720   4.455   0.699
 7206SOL    HW133497   1.631   4.428   0.676
 7206SOL    HW233498   1.775   4.414   0.632
 7207SOL     OW33499   1.755   1.751   0.789
 7207SOL    HW133500   1.847   1.767   0.769
 7207SOL    HW233501   1.723   1.697   0.717
 7208SOL     OW33502   2.005   1.836   0.722
 7208SOL    HW133503   2.041   1.830   0.811
 7208SOL    HW233504   1.985   1.929   0.710
 7209SOL     OW33505   2.514   2.963  11.149
 7209SOL    HW133506   2.603   2.938  11.176
 7209SOL    HW233507   2.472   2.880  11.127
 7210SOL     OW33508   4.509   3.767  12.969
 7210SOL    HW133509   4.422   3.742  12.938
 7210SOL    HW233510   4.515   3.861  12.953
 7211SOL     OW33511   1.961   0.889  17.369
 7211SOL    HW133512   1.899   0.834  17.322
 7211SOL    HW233513   1.957   0.858  17.460
 7212SOL     OW33514   0.680   3.308   3.182
 7212SOL    HW133515   0.617   3.322   3.252
 7212SOL    HW233516   0.733   3.234   3.212
 7213SOL     OW33517   1.177   3.252  16.538
 7213SOL    HW133518   1.159   3.182  16.601
 7213SOL    HW233519   1.177   3.208  16.453
 7214SOL     OW33520   0.127   2.408  17.223
 7214SOL    HW133521   0.109   2.314  17.231
 7214SOL    HW233522   0.215   2.419  17.259
 7215SOL     OW33523   3.780   2.653   1.513
 7215SOL    HW133524   3.751   2.599   1.440
 7215SOL    HW233525   3.797   2.739   1.474
 7216SOL     OW33526   1.607   1.302  13.120
 7216SOL    HW133527   1.577   1.240  13.186
 7216SOL    HW233528   1.674   1.354  13.164
 7217SOL     OW33529   0.940   0.229   1.395
 7217SOL    HW133530   0.942   0.138   1.367
 7217SOL    HW233531   0.960   0.279   1.316
 7218SOL     OW33532   0.081   4.141  20.979
 7218SOL    HW133533   0.099   4.153  20.886
 7218SOL    HW233534   0.140   4.203  21.022
 7219SOL     OW33535   2.098   2.395   0.831
 7219SOL    HW133536   2.066   2.379   0.920
 7219SOL    HW233537   2.142   2.480   0.836
 7220SOL     OW33538   1.203   2.521   5.481
 7220SOL    HW133539   1.192   2.614   5.463
 7220SOL    HW233540   1.259   2.517   5.558
 7221SOL     OW33541   4.630   4.177   2.279
 7221SOL    HW133542   4.548   4.154   2.236
 7221SOL    HW233543   4.634   4.120   2.356
 7222SOL     OW33544   1.474   4.171  15.931
 7222SOL    HW133545   1.561   4.141  15.904
 7222SOL    HW233546   1.447   4.231  15.862
 7223SOL     OW33547   2.230   4.403   0.242
 7223SOL    HW133548   2.195   4.492   0.249
 7223SOL    HW233549   2.264   4.384   0.329
 7224SOL     OW33550   3.133   3.811   2.336
 7224SOL    HW133551   3.177   3.731   2.307
 7224SOL    HW233552   3.174   3.832   2.420
 7225SOL     OW33553   2.122   1.268  12.392
 7225SOL    HW133554   2.141   1.199  12.328
 7225SOL    HW233555   2.029   1.288  12.380
 7226SOL     OW33556   4.630   0.876   4.720
 7226SOL    HW133557   4.719   0.893   4.750
 7226SOL    HW233558   4.616   0.783   4.738
 7227SOL     OW33559   1.873   2.065  15.867
 7227SOL    HW133560   1.829   2.068  15.782
 7227SOL    HW233561   1.962   2.095  15.849
 7228SOL     OW33562   4.058   4.392  13.774
 7228SOL    HW133563   4.117   4.468  13.772
 7228SOL    HW233564   4.009   4.401  13.856
 7229SOL     OW33565   1.071   3.341  11.500
 7229SOL    HW133566   1.081   3.432  11.526
 7229SOL    HW233567   1.107   3.291  11.573
 7230SOL     OW33568   1.925   0.407   5.649
 7230SOL    HW133569   1.970   0.323   5.651
 7230SOL    HW233570   1.848   0.394   5.705
 7231SOL     OW33571   3.435   2.172   4.193
 7231SOL    HW133572   3.463   2.100   4.250
 7231SOL    HW233573   3.355   2.140   4.151
 7232SOL     OW33574   3.647   3.309   1.996
 7232SOL    HW133575   3.722   3.250   2.006
 7232SOL    HW233576   3.594   3.268   1.928
 7233SOL     OW33577   1.573   0.018  17.496
 7233SOL    HW133578   1.666   0.011  17.518
 7233SOL    HW233579   1.569   0.083  17.426
 7234SOL     OW33580   3.668   3.622   2.251
 7234SOL    HW133581   3.748   3.579   2.222
 7234SOL    HW233582   3.696   3.682   2.321
 7235SOL     OW33583   1.094   1.879  15.277
 7235SOL    HW133584   1.163   1.814  15.287
 7235SOL    HW233585   1.027   1.854  15.340
 7236SOL     OW33586   4.347   2.798  18.762
 7236SOL    HW133587   4.264   2.827  18.801
 7236SOL    HW233588   4.403   2.876  18.763
 7237SOL     OW33589   4.608   0.388  16.992
 7237SOL    HW133590   4.538   0.323  16.983
 7237SOL    HW233591   4.666   0.352  17.059
 7238SOL     OW33592   0.380   0.926  17.435
 7238SOL    HW133593   0.356   0.880  17.354
 7238SOL    HW233594   0.470   0.954  17.420
 7239SOL     OW33595   3.077   2.734  16.331
 7239SOL    HW133596   3.076   2.683  16.412
 7239SOL    HW233597   3.170   2.744  16.311
 7240SOL     OW33598   4.572   2.903   6.838
 7240SOL    HW133599   4.528   2.830   6.795
 7240SOL    HW233600   4.511   2.931   6.906
 7241SOL     OW33601   1.914   1.598  16.210
 7241SOL    HW133602   2.005   1.596  16.240
 7241SOL    HW233603   1.911   1.533  16.140
 7242SOL     OW33604   4.080   0.206   3.825
 7242SOL    HW133605   4.114   0.143   3.761
 7242SOL    HW233606   4.131   0.285   3.809
 7243SOL     OW33607   1.811   4.096   4.014
 7243SOL    HW133608   1.798   4.078   4.107
 7243SOL    HW233609   1.849   4.015   3.979
 7244SOL     OW33610   0.085   0.727  17.983
 7244SOL    HW133611   0.095   0.757  18.073
 7244SOL    HW233612   0.036   0.645  17.990
 7245SOL     OW33613   2.490   4.788   0.244
 7245SOL    HW133614   2.493   0.094   0.242
 7245SOL    HW233615   2.552   4.763   0.313
 7246SOL     OW33616   1.708   2.067   1.396
 7246SOL    HW133617   1.741   2.157   1.389
 7246SOL    HW233618   1.694   2.040   1.305
 7247SOL     OW33619   4.493   3.444  19.133
 7247SOL    HW133620   4.527   3.476  19.216
 7247SOL    HW233621   4.569   3.445  19.074
 7248SOL     OW33622   4.549   3.540  15.627
 7248SOL    HW133623   4.469   3.576  15.666
 7248SOL    HW233624   4.580   3.609  15.568
 7249SOL     OW33625   3.700   0.912  16.708
 7249SOL    HW133626   3.704   0.828  16.662
 7249SOL    HW233627   3.613   0.946  16.688
 7250SOL     OW33628   1.778   3.238  17.238
 7250SOL    HW133629   1.710   3.236  17.171
 7250SOL    HW233630   1.733   3.267  17.317
 7251SOL     OW33631   1.483   2.155   2.680
 7251SOL    HW133632   1.513   2.191   2.764
 7251SOL    HW233633   1.459   2.232   2.628
 7252SOL     OW33634   2.599   1.457   7.882
 7252SOL    HW133635   2.584   1.551   7.872
 7252SOL    HW233636   2.693   1.449   7.897
 7253SOL     OW33637   2.804   1.418  17.165
 7253SOL    HW133638   2.746   1.364  17.111
 7253SOL    HW233639   2.758   1.501  17.174
 7254SOL     OW33640   3.289   2.411   6.301
 7254SOL    HW133641   3.367   2.387   6.251
 7254SOL    HW233642   3.318   2.481   6.359
 7255SOL     OW33643   4.244   0.835   1.873
 7255SOL    HW133644   4.220   0.866   1.960
 7255SOL    HW233645   4.219   0.743   1.873
 7256SOL     OW33646   0.434   0.381  18.007
 7256SOL    HW133647   0.435   0.324  18.084
 7256SOL    HW233648   0.495   0.451  18.029
 7257SOL     OW33649   3.328   0.142   0.997
 7257SOL    HW133650   3.291   0.202   0.932
 7257SOL    HW233651   3.331   0.193   1.078
 7258SOL     OW33652   4.398   3.708  19.724
 7258SOL    HW133653   4.383   3.742  19.636
 7258SOL    HW233654   4.411   3.786  19.778
 7259SOL     OW33655   4.623   4.382  17.673
 7259SOL    HW133656   4.697   4.323  17.685
 7259SOL    HW233657   4.550   4.338  17.717
 7260SOL     OW33658   0.545   3.935   6.190
 7260SOL    HW133659   0.487   3.979   6.128
 7260SOL    HW233660   0.633   3.952   6.157
 7261SOL     OW33661   3.642   3.378  17.713
 7261SOL    HW133662   3.620   3.456  17.662
 7261SOL    HW233663   3.558   3.348  17.747
 7262SOL     OW33664   1.132   4.263  14.359
 7262SOL    HW133665   1.061   4.215  14.402
 7262SOL    HW233666   1.181   4.303  14.431
 7263SOL     OW33667   4.020   3.311   5.510
 7263SOL    HW133668   4.071   3.280   5.435
 7263SOL    HW233669   3.929   3.303   5.481
 7264SOL     OW33670   3.180   4.181   2.488
 7264SOL    HW133671   3.141   4.122   2.552
 7264SOL    HW233672   3.270   4.150   2.478
 7265SOL     OW33673   3.288   2.227   1.831
 7265SOL    HW133674   3.277   2.226   1.926
 7265SOL    HW233675   3.369   2.275   1.816
 7266SOL     OW33676   1.589   1.116   9.261
 7266SOL    HW133677   1.566   1.147   9.348
 7266SOL    HW233678   1.643   1.186   9.224
 7267SOL     OW33679   4.406   4.754  16.882
 7267SOL    HW133680   4.466   4.744  16.809
 7267SOL    HW233681   4.413   4.672  16.931
 7268SOL     OW33682   3.625   1.071   3.136
 7268SOL    HW133683   3.553   1.040   3.082
 7268SOL    HW233684   3.703   1.052   3.085
 7269SOL     OW33685   2.862   0.661  18.970
 7269SOL    HW133686   2.944   0.694  18.932
 7269SOL    HW233687   2.820   0.738  19.008
 7270SOL     OW33688   2.218   2.265  13.999
 7270SOL    HW133689   2.243   2.230  14.085
 7270SOL    HW233690   2.132   2.225  13.982
 7271SOL     OW33691   3.058   2.794   4.191
 7271SOL    HW133692   3.151   2.814   4.203
 7271SOL    HW233693   3.033   2.747   4.271
 7272SOL     OW33694   2.499   0.291  17.627
 7272SOL    HW133695   2.572   0.290  17.689
 7272SOL    HW233696   2.422   0.314  17.680
 7273SOL     OW33697   0.647   0.848   4.295
 7273SOL    HW133698   0.701   0.923   4.320
 7273SOL    HW233699   0.615   0.869   4.207
 7274SOL     OW33700   1.181   4.520  18.505
 7274SOL    HW133701   1.107   4.464  18.483
 7274SOL    HW233702   1.144   4.608  18.511
 7275SOL     OW33703   4.577   3.749  15.120
 7275SOL    HW133704   4.589   3.683  15.052
 7275SOL    HW233705   4.516   3.709  15.182
 7276SOL     OW33706   3.170   3.716  18.155
 7276SOL    HW133707   3.229   3.667  18.098
 7276SOL    HW233708   3.210   3.711  18.242
 7277SOL     OW33709   1.210   2.725  16.264
 7277SOL    HW133710   1.225   2.645  16.213
 7277SOL    HW233711   1.144   2.773  16.214
 7278SOL     OW33712   1.508   3.251  19.159
 7278SOL    HW133713   1.430   3.287  19.116
 7278SOL    HW233714   1.533   3.176  19.105
 7279SOL     OW33715   3.328   1.075  14.491
 7279SOL    HW133716   3.310   1.155  14.541
 7279SOL    HW233717   3.421   1.080  14.471
 7280SOL     OW33718   2.411   0.733   2.738
 7280SOL    HW133719   2.389   0.733   2.831
 7280SOL    HW233720   2.374   0.815   2.705
 7281SOL     OW33721   2.064   2.150  19.320
 7281SOL    HW133722   2.095   2.149  19.410
 7281SOL    HW233723   2.052   2.243  19.300
 7282SOL     OW33724   4.308   2.277   3.675
 7282SOL    HW133725   4.319   2.364   3.713
 7282SOL    HW233726   4.365   2.277   3.598
 7283SOL     OW33727   2.857   1.480   3.644
 7283SOL    HW133728   2.779   1.516   3.686
 7283SOL    HW233729   2.863   1.527   3.561
 7284SOL     OW33730   0.857   0.875   2.271
 7284SOL    HW133731   0.923   0.898   2.206
 7284SOL    HW233732   0.802   0.809   2.228
 7285SOL     OW33733   2.986   0.396  19.882
 7285SOL    HW133734   3.030   0.460  19.826
 7285SOL    HW233735   2.927   0.448  19.937
 7286SOL     OW33736   1.316   3.047  17.003
 7286SOL    HW133737   1.245   3.110  17.010
 7286SOL    HW233738   1.358   3.067  16.920
 7287SOL     OW33739   1.957   3.135  17.052
 7287SOL    HW133740   1.912   3.166  17.131
 7287SOL    HW233741   2.045   3.111  17.082
 7288SOL     OW33742   3.464   2.723   4.135
 7288SOL    HW133743   3.552   2.686   4.141
 7288SOL    HW233744   3.417   2.665   4.076
 7289SOL     OW33745   3.921   3.998   3.168
 7289SOL    HW133746   3.938   4.053   3.091
 7289SOL    HW233747   3.928   3.908   3.136
 7290SOL     OW33748   4.150   4.202  13.600
 7290SOL    HW133749   4.235   4.244  13.587
 7290SOL    HW233750   4.103   4.261  13.658
 7291SOL     OW33751   1.824   1.043   5.929
 7291SOL    HW133752   1.818   1.100   6.005
 7291SOL    HW233753   1.892   1.083   5.874
 7292SOL     OW33754   0.700   4.633  20.431
 7292SOL    HW133755   0.686   4.677  20.515
 7292SOL    HW233756   0.638   4.676  20.371
 7293SOL     OW33757   2.958   4.291  16.595
 7293SOL    HW133758   3.052   4.310  16.602
 7293SOL    HW233759   2.929   4.282  16.686
 7294SOL     OW33760   2.501   0.259   1.425
 7294SOL    HW133761   2.407   0.276   1.425
 7294SOL    HW233762   2.525   0.262   1.332
 7295SOL     OW33763   4.729   1.409  15.445
 7295SOL    HW133764   4.656   1.416  15.507
 7295SOL    HW233765   4.734   1.316  15.424
 7296SOL     OW33766   3.986   1.093  17.547
 7296SOL    HW133767   4.066   1.072  17.595
 7296SOL    HW233768   3.997   1.049  17.462
 7297SOL     OW33769   1.044   4.335  15.333
 7297SOL    HW133770   1.055   4.430  15.340
 7297SOL    HW233771   1.004   4.321  15.247
 7298SOL     OW33772   0.417   0.575   1.666
 7298SOL    HW133773   0.410   0.645   1.731
 7298SOL    HW233774   0.484   0.517   1.701
 7299SOL     OW33775   4.749   1.039   5.058
 7299SOL    HW133776   4.713   1.119   5.020
 7299SOL    HW233777   4.727   1.045   5.151
 7300SOL     OW33778   1.305   0.489  13.794
 7300SOL    HW133779   1.280   0.576  13.764
 7300SOL    HW233780   1.340   0.502  13.882
 7301SOL     OW33781   3.703   0.310   4.904
 7301SOL    HW133782   3.674   0.391   4.862
 7301SOL    HW233783   3.638   0.294   4.972
 7302SOL     OW33784   1.026   1.483  20.327
 7302SOL    HW133785   1.044   1.460  20.236
 7302SOL    HW233786   0.933   1.462  20.339
 7303SOL     OW33787   0.374   3.171  15.467
 7303SOL    HW133788   0.286   3.135  15.476
 7303SOL    HW233789   0.383   3.189  15.373
 7304SOL     OW33790   3.109   1.249  15.439
 7304SOL    HW133791   3.145   1.331  15.472
 7304SOL    HW233792   3.148   1.181  15.494
 7305SOL     OW33793   2.798   1.492   3.322
 7305SOL    HW133794   2.802   1.532   3.235
 7305SOL    HW233795   2.889   1.494   3.353
 7306SOL     OW33796   4.763   0.297  19.013
 7306SOL    HW133797   0.030   0.374  19.015
 7306SOL    HW233798   4.674   0.332  19.015
 7307SOL     OW33799   1.981   1.132  15.949
 7307SOL    HW133800   2.036   1.057  15.972
 7307SOL    HW233801   1.892   1.100  15.960
 7308SOL     OW33802   4.086   2.170   5.409
 7308SOL    HW133803   4.025   2.230   5.366
 7308SOL    HW233804   4.030   2.117   5.466
 7309SOL     OW33805   4.119   0.140  20.167
 7309SOL    HW133806   4.171   0.207  20.211
 7309SOL    HW233807   4.029   0.171  20.175
 7310SOL     OW33808   0.102   2.628  21.246
 7310SOL    HW133809   0.036   2.576   0.036
 7310SOL    HW233810   0.121   2.577  21.167
 7311SOL     OW33811   3.409   0.554  21.046
 7311SOL    HW133812   3.484   0.504  21.078
 7311SOL    HW233813   3.399   0.526  20.955
 7312SOL     OW33814   3.570   0.539   6.787
 7312SOL    HW133815   3.502   0.568   6.848
 7312SOL    HW233816   3.570   0.444   6.796
 7313SOL     OW33817   3.817   3.189  15.502
 7313SOL    HW133818   3.774   3.118  15.550
 7313SOL    HW233819   3.908   3.160  15.494
 7314SOL     OW33820   4.733   0.430   1.251
 7314SOL    HW133821   4.757   0.419   1.159
 7314SOL    HW233822   4.638   0.418   1.253
 7315SOL     OW33823   4.733   0.086  18.328
 7315SOL    HW133824   4.669   0.144  18.288
 7315SOL    HW233825   0.026   0.106  18.284
 7316SOL     OW33826   0.680   1.330  19.305
 7316SOL    HW133827   0.648   1.284  19.382
 7316SOL    HW233828   0.610   1.391  19.283
 7317SOL     OW33829   3.294   1.888  16.090
 7317SOL    HW133830   3.294   1.798  16.057
 7317SOL    HW233831   3.203   1.905  16.115
 7318SOL     OW33832   2.890   3.116   1.110
 7318SOL    HW133833   2.844   3.194   1.140
 7318SOL    HW233834   2.900   3.128   1.016
 7319SOL     OW33835   1.156   1.206  16.817
 7319SOL    HW133836   1.092   1.200  16.888
 7319SOL    HW233837   1.138   1.129  16.762
 7320SOL     OW33838   0.985   3.170   5.174
 7320SOL    HW133839   1.027   3.134   5.252
 7320SOL    HW233840   0.916   3.228   5.208
 7321SOL     OW33841   0.109   3.400   8.093
 7321SOL    HW133842   0.195   3.361   8.078
 7321SOL    HW233843   0.114   3.438   8.181
 7322SOL     OW33844   0.604   1.633  16.570
 7322SOL    HW133845   0.538   1.702  16.564
 7322SOL    HW233846   0.554   1.551  16.565
 7323SOL     OW33847   3.135   0.734  19.956
 7323SOL    HW133848   3.114   0.799  20.023
 7323SOL    HW233849   3.156   0.654  20.005
 7324SOL     OW33850   1.944   0.726   1.105
 7324SOL    HW133851   1.948   0.665   1.178
 7324SOL    HW233852   1.850   0.741   1.091
 7325SOL     OW33853   4.466   0.411   1.242
 7325SOL    HW133854   4.413   0.490   1.231
 7325SOL    HW233855   4.484   0.406   1.336
 7326SOL     OW33856   4.156   4.018   4.066
 7326SOL    HW133857   4.088   4.012   3.999
 7326SOL    HW233858   4.223   4.075   4.027
 7327SOL     OW33859   0.737   0.641  18.452
 7327SOL    HW133860   0.732   0.717  18.509
 7327SOL    HW233861   0.783   0.575  18.504
 7328SOL     OW33862   1.698   2.767  20.301
 7328SOL    HW133863   1.735   2.824  20.233
 7328SOL    HW233864   1.603   2.775  20.290
 7329SOL     OW33865   0.236   4.038  13.480
 7329SOL    HW133866   0.232   4.124  13.439
 7329SOL    HW233867   0.328   4.026  13.502
 7330SOL     OW33868   1.030   2.873   0.455
 7330SOL    HW133869   1.090   2.828   0.514
 7330SOL    HW233870   1.082   2.889   0.376
 7331SOL     OW33871   3.933   3.211  20.048
 7331SOL    HW133872   4.013   3.184  20.094
 7331SOL    HW233873   3.948   3.303  20.025
 7332SOL     OW33874   4.604   3.764   4.110
 7332SOL    HW133875   4.673   3.703   4.085
 7332SOL    HW233876   4.523   3.713   4.103
 7333SOL     OW33877   0.677   3.792  16.285
 7333SOL    HW133878   0.615   3.865  16.290
 7333SOL    HW233879   0.623   3.714  16.299
 7334SOL     OW33880   4.160   1.644  17.338
 7334SOL    HW133881   4.106   1.703  17.285
 7334SOL    HW233882   4.097   1.592  17.388
 7335SOL     OW33883   0.556   0.687   1.315
 7335SOL    HW133884   0.585   0.614   1.369
 7335SOL    HW233885   0.471   0.712   1.351
 7336SOL     OW33886   4.380   3.170   4.549
 7336SOL    HW133887   4.296   3.173   4.503
 7336SOL    HW233888   4.445   3.192   4.482
 7337SOL     OW33889   1.169   2.984  20.448
 7337SOL    HW133890   1.106   3.037  20.497
 7337SOL    HW233891   1.180   2.905  20.501
 7338SOL     OW33892   4.318   4.277  17.420
 7338SOL    HW133893   4.312   4.191  17.379
 7338SOL    HW233894   4.287   4.338  17.353
 7339SOL     OW33895   1.603   4.473  15.799
 7339SOL    HW133896   1.600   4.413  15.725
 7339SOL    HW233897   1.649   4.424  15.868
 7340SOL     OW33898   2.223   1.786  19.336
 7340SOL    HW133899   2.277   1.762  19.412
 7340SOL    HW233900   2.151   1.723  19.338
 7341SOL     OW33901   0.474   3.026   3.364
 7341SOL    HW133902   0.428   2.980   3.434
 7341SOL    HW233903   0.460   3.119   3.382
 7342SOL     OW33904   0.366   2.460  18.298
 7342SOL    HW133905   0.286   2.505  18.269
 7342SOL    HW233906   0.363   2.466  18.393
 7343SOL     OW33907   3.453   4.469   3.135
 7343SOL    HW133908   3.396   4.541   3.106
 7343SOL    HW233909   3.481   4.495   3.223
 7344SOL     OW33910   1.618   3.140  13.889
 7344SOL    HW133911   1.657   3.094  13.815
 7344SOL    HW233912   1.653   3.229  13.882
 7345SOL     OW33913   3.471   0.796  16.032
 7345SOL    HW133914   3.414   0.873  16.034
 7345SOL    HW233915   3.535   0.816  15.963
 7346SOL     OW33916   3.359   4.498   5.379
 7346SOL    HW133917   3.427   4.450   5.426
 7346SOL    HW233918   3.321   4.433   5.320
 7347SOL     OW33919   0.158   1.733   7.615
 7347SOL    HW133920   0.228   1.754   7.553
 7347SOL    HW233921   0.202   1.692   7.689
 7348SOL     OW33922   3.976   0.840  18.874
 7348SOL    HW133923   3.979   0.747  18.895
 7348SOL    HW233924   4.063   0.859  18.840
 7349SOL     OW33925   0.523   3.892   6.792
 7349SOL    HW133926   0.536   3.955   6.721
 7349SOL    HW233927   0.611   3.860   6.813
 7350SOL     OW33928   3.944   4.420  14.534
 7350SOL    HW133929   3.929   4.364  14.458
 7350SOL    HW233930   4.010   4.483  14.505
 7351SOL     OW33931   0.824   4.608  14.979
 7351SOL    HW133932   0.812   4.549  14.904
 7351SOL    HW233933   0.843   4.693  14.940
 7352SOL     OW33934   3.480   4.453   0.044
 7352SOL    HW133935   3.492   4.427  21.210
 7352SOL    HW233936   3.472   4.370   0.091
 7353SOL     OW33937   1.652   2.312  17.215
 7353SOL    HW133938   1.585   2.319  17.147
 7353SOL    HW233939   1.682   2.402  17.228
 7354SOL     OW33940   0.419   1.979   1.402
 7354SOL    HW133941   0.409   2.061   1.450
 7354SOL    HW233942   0.499   1.990   1.351
 7355SOL     OW33943   1.778   0.011   6.827
 7355SOL    HW133944   1.717   4.739   6.868
 7355SOL    HW233945   1.722   0.080   6.791
 7356SOL     OW33946   0.957   1.118  20.009
 7356SOL    HW133947   0.946   1.085  19.920
 7356SOL    HW233948   0.875   1.095  20.053
 7357SOL     OW33949   0.554   1.364  14.786
 7357SOL    HW133950   0.541   1.282  14.738
 7357SOL    HW233951   0.499   1.355  14.864
 7358SOL     OW33952   1.507   3.683   0.241
 7358SOL    HW133953   1.595   3.660   0.212
 7358SOL    HW233954   1.518   3.763   0.292
 7359SOL     OW33955   0.275   2.330  18.044
 7359SOL    HW133956   0.208   2.300  17.982
 7359SOL    HW233957   0.286   2.423  18.023
 7360SOL     OW33958   0.132   2.744   5.647
 7360SOL    HW133959   0.161   2.721   5.559
 7360SOL    HW233960   0.057   2.802   5.634
 7361SOL     OW33961   3.855   3.628   0.906
 7361SOL    HW133962   3.793   3.569   0.863
 7361SOL    HW233963   3.903   3.572   0.967
 7362SOL     OW33964   2.045   0.071   6.799
 7362SOL    HW133965   2.055   0.094   6.707
 7362SOL    HW233966   1.958   0.031   6.805
 7363SOL     OW33967   0.695   1.549   1.303
 7363SOL    HW133968   0.658   1.603   1.372
 7363SOL    HW233969   0.638   1.565   1.227
 7364SOL     OW33970   4.639   1.598   7.608
 7364SOL    HW133971   4.608   1.683   7.577
 7364SOL    HW233972   4.565   1.539   7.594
 7365SOL     OW33973   2.448   3.897  20.903
 7365SOL    HW133974   2.365   3.865  20.868
 7365SOL    HW233975   2.429   3.986  20.933
 7366SOL     OW33976   3.672   0.395  19.365
 7366SOL    HW133977   3.711   0.411  19.451
 7366SOL    HW233978   3.650   0.302  19.365
 7367SOL     OW33979   2.928   1.225  18.592
 7367SOL    HW133980   2.874   1.203  18.668
 7367SOL    HW233981   2.976   1.144  18.573
 7368SOL     OW33982   0.442   2.969   8.486
 7368SOL    HW133983   0.472   2.955   8.576
 7368SOL    HW233984   0.497   3.040   8.453
 7369SOL     OW33985   0.354   4.058  18.983
 7369SOL    HW133986   0.343   4.132  19.042
 7369SOL    HW233987   0.410   3.997  19.031
 7370SOL     OW33988   2.743   2.939  15.994
 7370SOL    HW133989   2.777   2.887  16.067
 7370SOL    HW233990   2.777   3.027  16.009
 7371SOL     OW33991   1.993   2.442   2.662
 7371SOL    HW133992   1.948   2.360   2.680
 7371SOL    HW233993   1.930   2.510   2.684
 7372SOL     OW33994   1.996   1.274  16.406
 7372SOL    HW133995   2.032   1.253  16.492
 7372SOL    HW233996   1.977   1.189  16.366
 7373SOL     OW33997   2.896   2.645  15.792
 7373SOL    HW133998   2.842   2.595  15.854
 7373SOL    HW233999   2.841   2.719  15.767
 7374SOL     OW34000   3.674   3.830   5.638
 7374SOL    HW134001   3.695   3.787   5.721
 7374SOL    HW234002   3.687   3.762   5.572
 7375SOL     OW34003   3.523   1.983   4.356
 7375SOL    HW134004   3.613   1.964   4.381
 7375SOL    HW234005   3.488   1.898   4.328
 7376SOL     OW34006   2.676   0.971   5.634
 7376SOL    HW134007   2.642   0.964   5.723
 7376SOL    HW234008   2.744   1.038   5.640
 7377SOL     OW34009   0.345   2.803  17.252
 7377SOL    HW134010   0.319   2.892  17.229
 7377SOL    HW234011   0.262   2.759  17.271
 7378SOL     OW34012   2.072   3.998   6.251
 7378SOL    HW134013   2.030   4.083   6.263
 7378SOL    HW234014   2.150   4.002   6.306
 7379SOL     OW34015   1.391   4.278   1.162
 7379SOL    HW134016   1.351   4.365   1.157
 7379SOL    HW234017   1.458   4.278   1.093
 7380SOL     OW34018   4.144   1.562   4.929
 7380SOL    HW134019   4.139   1.493   4.863
 7380SOL    HW234020   4.077   1.625   4.902
 7381SOL     OW34021   0.509   3.837  18.082
 7381SOL    HW134022   0.577   3.876  18.137
 7381SOL    HW234023   0.547   3.838  17.994
 7382SOL     OW34024   2.216   2.151  16.873
 7382SOL    HW134025   2.122   2.147  16.855
 7382SOL    HW234026   2.229   2.091  16.946
 7383SOL     OW34027   3.906   0.797   0.729
 7383SOL    HW134028   3.997   0.791   0.701
 7383SOL    HW234029   3.904   0.869   0.792
 7384SOL     OW34030   3.719   4.579  14.653
 7384SOL    HW134031   3.785   4.513  14.633
 7384SOL    HW234032   3.701   4.621  14.569
 7385SOL     OW34033   0.923   2.028   3.320
 7385SOL    HW134034   0.858   2.084   3.362
 7385SOL    HW234035   0.985   2.089   3.280
 7386SOL     OW34036   4.752   3.143  20.520
 7386SOL    HW134037   4.705   3.083  20.463
 7386SOL    HW234038   4.683   3.189  20.568
 7387SOL     OW34039   0.922   3.611  18.996
 7387SOL    HW134040   0.902   3.704  19.010
 7387SOL    HW234041   0.965   3.583  19.077
 7388SOL     OW34042   2.328   1.512  18.449
 7388SOL    HW134043   2.348   1.422  18.475
 7388SOL    HW234044   2.395   1.565  18.493
 7389SOL     OW34045   2.762   0.246  15.791
 7389SOL    HW134046   2.789   0.154  15.785
 7389SOL    HW234047   2.844   0.296  15.787
 7390SOL     OW34048   3.885   0.261  18.769
 7390SOL    HW134049   3.969   0.231  18.804
 7390SOL    HW234050   3.883   0.228  18.679
 7391SOL     OW34051   3.009   4.254   4.650
 7391SOL    HW134052   2.930   4.204   4.671
 7391SOL    HW234053   2.994   4.340   4.688
 7392SOL     OW34054   2.674   0.237   5.408
 7392SOL    HW134055   2.625   0.279   5.337
 7392SOL    HW234056   2.753   0.203   5.365
 7393SOL     OW34057   0.089   1.166  16.165
 7393SOL    HW134058   0.153   1.097  16.148
 7393SOL    HW234059   0.141   1.247  16.168
 7394SOL     OW34060   4.500   1.794   4.409
 7394SOL    HW134061   4.593   1.796   4.432
 7394SOL    HW234062   4.478   1.701   4.407
 7395SOL     OW34063   0.876   1.094   1.742
 7395SOL    HW134064   0.934   1.154   1.695
 7395SOL    HW234065   0.793   1.141   1.747
 7396SOL     OW34066   4.365   0.543   4.944
 7396SOL    HW134067   4.330   0.456   4.927
 7396SOL    HW234068   4.315   0.574   5.020
 7397SOL     OW34069   2.309   2.186  11.611
 7397SOL    HW134070   2.299   2.176  11.706
 7397SOL    HW234071   2.363   2.264  11.601
 7398SOL     OW34072   4.222   1.947  16.569
 7398SOL    HW134073   4.219   1.994  16.486
 7398SOL    HW234074   4.288   1.879  16.555
 7399SOL     OW34075   2.896   0.684   6.033
 7399SOL    HW134076   2.873   0.774   6.057
 7399SOL    HW234077   2.954   0.654   6.103
 7400SOL     OW34078   2.489   4.455  19.747
 7400SOL    HW134079   2.554   4.522  19.725
 7400SOL    HW234080   2.500   4.440  19.841
 7401SOL     OW34081   3.653   3.666   3.822
 7401SOL    HW134082   3.705   3.716   3.885
 7401SOL    HW234083   3.717   3.629   3.762
 7402SOL     OW34084   4.480   1.184   9.077
 7402SOL    HW134085   4.458   1.187   8.984
 7402SOL    HW234086   4.529   1.265   9.092
 7403SOL     OW34087   2.866   0.798  17.430
 7403SOL    HW134088   2.890   0.889  17.446
 7403SOL    HW234089   2.807   0.776  17.502
 7404SOL     OW34090   0.510   3.448  19.397
 7404SOL    HW134091   0.417   3.453  19.419
 7404SOL    HW234092   0.529   3.354  19.393
 7405SOL     OW34093   4.771   2.912   4.158
 7405SOL    HW134094   4.766   2.842   4.223
 7405SOL    HW234095   0.075   2.928   4.147
 7406SOL     OW34096   4.428   1.351  18.822
 7406SOL    HW134097   4.454   1.302  18.900
 7406SOL    HW234098   4.355   1.406  18.851
 7407SOL     OW34099   2.300   3.168  18.118
 7407SOL    HW134100   2.255   3.238  18.071
 7407SOL    HW234101   2.367   3.213  18.169
 7408SOL     OW34102   2.886   2.568   8.241
 7408SOL    HW134103   2.859   2.489   8.194
 7408SOL    HW234104   2.956   2.539   8.299
 7409SOL     OW34105   3.423   3.271   3.170
 7409SOL    HW134106   3.440   3.253   3.263
 7409SOL    HW234107   3.343   3.324   3.169
 7410SOL     OW34108   2.182   0.148  18.797
 7410SOL    HW134109   2.201   0.058  18.771
 7410SOL    HW234110   2.165   0.193  18.714
 7411SOL     OW34111   2.553   4.575   0.116
 7411SOL    HW134112   2.515   4.638   0.177
 7411SOL    HW234113   2.641   4.559   0.150
 7412SOL     OW34114   0.545   3.813  15.522
 7412SOL    HW134115   0.593   3.757  15.461
 7412SOL    HW234116   0.552   3.769  15.607
 7413SOL     OW34117   0.318   0.202   2.678
 7413SOL    HW134118   0.344   0.289   2.647
 7413SOL    HW234119   0.381   0.143   2.636
 7414SOL     OW34120   3.289   0.212   4.462
 7414SOL    HW134121   3.377   0.193   4.429
 7414SOL    HW234122   3.300   0.219   4.557
 7415SOL     OW34123   4.264   1.722  13.938
 7415SOL    HW134124   4.265   1.792  13.872
 7415SOL    HW234125   4.348   1.731  13.984
 7416SOL     OW34126   3.339   0.317   0.447
 7416SOL    HW134127   3.304   0.390   0.396
 7416SOL    HW234128   3.432   0.315   0.426
 7417SOL     OW34129   2.626   2.973   0.086
 7417SOL    HW134130   2.619   2.925   0.003
 7417SOL    HW234131   2.580   2.918   0.149
 7418SOL     OW34132   3.973   3.471  18.622
 7418SOL    HW134133   3.886   3.485  18.659
 7418SOL    HW234134   4.032   3.470  18.698
 7419SOL     OW34135   4.603   4.622  15.993
 7419SOL    HW134136   4.646   4.537  16.003
 7419SOL    HW234137   4.629   4.672  16.071
 7420SOL     OW34138   0.126   1.293   6.537
 7420SOL    HW134139   0.139   1.336   6.621
 7420SOL    HW234140   0.056   1.229   6.553
 7421SOL     OW34141   2.749   4.672  20.822
 7421SOL    HW134142   2.680   4.645  20.761
 7421SOL    HW234143   2.728   4.763  20.843
 7422SOL     OW34144   0.040   0.370  12.449
 7422SOL    HW134145   0.034   0.392  12.542
 7422SOL    HW234146   0.075   0.281  12.448
 7423SOL     OW34147   4.519   2.626  16.182
 7423SOL    HW134148   4.573   2.697  16.147
 7423SOL    HW234149   4.446   2.620  16.121
 7424SOL     OW34150   3.746   3.757   2.500
 7424SOL    HW134151   3.733   3.837   2.551
 7424SOL    HW234152   3.696   3.690   2.547
 7425SOL     OW34153   2.921   2.467   2.221
 7425SOL    HW134154   2.888   2.497   2.136
 7425SOL    HW234155   2.964   2.384   2.201
 7426SOL     OW34156   1.709   1.482  17.190
 7426SOL    HW134157   1.680   1.392  17.206
 7426SOL    HW234158   1.637   1.521  17.140
 7427SOL     OW34159   0.153   4.077   4.155
 7427SOL    HW134160   0.151   4.082   4.059
 7427SOL    HW234161   0.092   4.144   4.184
 7428SOL     OW34162   0.898   1.133  16.326
 7428SOL    HW134163   0.970   1.184  16.289
 7428SOL    HW234164   0.888   1.166  16.415
 7429SOL     OW34165   1.202   0.845   1.188
 7429SOL    HW134166   1.208   0.854   1.093
 7429SOL    HW234167   1.276   0.789   1.211
 7430SOL     OW34168   0.502   3.870   0.467
 7430SOL    HW134169   0.415   3.894   0.436
 7430SOL    HW234170   0.537   3.950   0.506
 7431SOL     OW34171   0.330   2.055  20.081
 7431SOL    HW134172   0.419   2.090  20.087
 7431SOL    HW234173   0.333   1.993  20.008
 7432SOL     OW34174   3.632   4.098   5.214
 7432SOL    HW134175   3.707   4.143   5.176
 7432SOL    HW234176   3.647   4.005   5.195
 7433SOL     OW34177   3.420   4.189  17.029
 7433SOL    HW134178   3.451   4.258  16.971
 7433SOL    HW234179   3.376   4.127  16.971
 7434SOL     OW34180   4.482   0.465  15.687
 7434SOL    HW134181   4.416   0.451  15.619
 7434SOL    HW234182   4.441   0.433  15.767
 7435SOL     OW34183   2.470   3.345   8.835
 7435SOL    HW134184   2.502   3.433   8.853
 7435SOL    HW234185   2.535   3.287   8.876
 7436SOL     OW34186   4.195   3.019  20.118
 7436SOL    HW134187   4.145   2.997  20.040
 7436SOL    HW234188   4.253   3.090  20.090
 7437SOL     OW34189   1.536   3.122   5.883
 7437SOL    HW134190   1.572   3.153   5.966
 7437SOL    HW234191   1.467   3.061   5.908
 7438SOL     OW34192   3.063   0.106  19.547
 7438SOL    HW134193   3.062   0.178  19.484
 7438SOL    HW234194   2.989   0.124  19.605
 7439SOL     OW34195   0.950   4.383  18.437
 7439SOL    HW134196   0.968   4.290  18.447
 7439SOL    HW234197   0.855   4.391  18.446
 7440SOL     OW34198   0.409   3.966  20.205
 7440SOL    HW134199   0.365   3.961  20.290
 7440SOL    HW234200   0.374   4.045  20.164
 7441SOL     OW34201   2.261   3.900   3.421
 7441SOL    HW134202   2.244   3.836   3.352
 7441SOL    HW234203   2.174   3.921   3.456
 7442SOL     OW34204   0.661   3.951  20.745
 7442SOL    HW134205   0.622   4.038  20.740
 7442SOL    HW234206   0.755   3.967  20.739
 7443SOL     OW34207   3.748   1.257   3.891
 7443SOL    HW134208   3.705   1.171   3.897
 7443SOL    HW234209   3.678   1.316   3.863
 7444SOL     OW34210   1.737   2.942  17.616
 7444SOL    HW134211   1.779   2.897  17.689
 7444SOL    HW234212   1.809   2.985  17.569
 7445SOL     OW34213   0.506   3.231   1.129
 7445SOL    HW134214   0.559   3.278   1.193
 7445SOL    HW234215   0.542   3.142   1.128
 7446SOL     OW34216   3.258   2.830   2.689
 7446SOL    HW134217   3.278   2.743   2.724
 7446SOL    HW234218   3.334   2.852   2.635
 7447SOL     OW34219   0.737   0.745  15.654
 7447SOL    HW134220   0.664   0.738  15.715
 7447SOL    HW234221   0.717   0.682  15.585
 7448SOL     OW34222   2.096   2.299   3.786
 7448SOL    HW134223   2.128   2.385   3.760
 7448SOL    HW234224   2.001   2.303   3.774
 7449SOL     OW34225   0.861   2.933   3.141
 7449SOL    HW134226   0.855   2.988   3.063
 7449SOL    HW234227   0.919   2.981   3.200
 7450SOL     OW34228   2.752   2.713   2.108
 7450SOL    HW134229   2.731   2.797   2.149
 7450SOL    HW234230   2.794   2.737   2.025
 7451SOL     OW34231   2.300   0.292   5.537
 7451SOL    HW134232   2.376   0.234   5.544
 7451SOL    HW234233   2.308   0.331   5.450
 7452SOL     OW34234   0.690   4.042  19.171
 7452SOL    HW134235   0.729   4.035  19.084
 7452SOL    HW234236   0.765   4.049  19.230
 7453SOL     OW34237   1.343   1.386   3.464
 7453SOL    HW134238   1.413   1.420   3.408
 7453SOL    HW234239   1.389   1.349   3.539
 7454SOL     OW34240   1.005   4.455  17.466
 7454SOL    HW134241   1.004   4.524  17.532
 7454SOL    HW234242   1.093   4.418  17.470
 7455SOL     OW34243   3.228   0.638  17.696
 7455SOL    HW134244   3.305   0.685  17.663
 7455SOL    HW234245   3.169   0.632  17.621
 7456SOL     OW34246   1.510   3.171  15.977
 7456SOL    HW134247   1.539   3.221  16.053
 7456SOL    HW234248   1.587   3.167  15.920
 7457SOL     OW34249   2.551   4.161  17.979
 7457SOL    HW134250   2.568   4.190  18.069
 7457SOL    HW234251   2.466   4.117  17.984
 7458SOL     OW34252   0.522   2.792  19.143
 7458SOL    HW134253   0.599   2.796  19.200
 7458SOL    HW234254   0.557   2.800  19.054
 7459SOL     OW34255   4.596   0.128  19.152
 7459SOL    HW134256   4.575   0.178  19.231
 7459SOL    HW234257   4.678   0.165  19.121
 7460SOL     OW34258   0.372   3.533   1.310
 7460SOL    HW134259   0.391   3.447   1.347
 7460SOL    HW234260   0.276   3.539   1.313
 7461SOL     OW34261   4.500   0.264  16.233
 7461SOL    HW134262   4.476   0.230  16.147
 7461SOL    HW234263   4.595   0.276  16.229
 7462SOL     OW34264   3.513   2.914  19.988
 7462SOL    HW134265   3.508   2.821  20.009
 7462SOL    HW234266   3.423   2.940  19.970
 7463SOL     OW34267   3.066   2.434  19.953
 7463SOL    HW134268   3.052   2.449  20.047
 7463SOL    HW234269   3.000   2.489  19.910
 7464SOL     OW34270   2.273   4.738   1.289
 7464SOL    HW134271   2.186   4.702   1.306
 7464SOL    HW234272   2.330   4.692   1.351
 7465SOL     OW34273   4.659   4.255  20.785
 7465SOL    HW134274   4.625   4.209  20.709
 7465SOL    HW234275   4.652   4.192  20.857
 7466SOL     OW34276   4.776   3.668  12.861
 7466SOL    HW134277   4.690   3.698  12.890
 7466SOL    HW234278   4.759   3.583  12.819
 7467SOL     OW34279   2.494   0.445  16.106
 7467SOL    HW134280   2.506   0.381  16.036
 7467SOL    HW234281   2.437   0.512  16.068
 7468SOL     OW34282   4.698   0.520  17.930
 7468SOL    HW134283   4.674   0.435  17.894
 7468SOL    HW234284   4.618   0.552  17.971
 7469SOL     OW34285   2.320   3.649  20.013
 7469SOL    HW134286   2.253   3.620  20.075
 7469SOL    HW234287   2.283   3.629  19.927
 7470SOL     OW34288   0.933   2.690   0.080
 7470SOL    HW134289   0.873   2.634   0.130
 7470SOL    HW234290   0.881   2.767   0.058
 7471SOL     OW34291   4.384   1.710  16.577
 7471SOL    HW134292   4.479   1.714  16.588
 7471SOL    HW234293   4.354   1.653  16.647
 7472SOL     OW34294   4.370   1.848  16.114
 7472SOL    HW134295   4.370   1.898  16.033
 7472SOL    HW234296   4.279   1.822  16.127
 7473SOL     OW34297   1.550   1.512  17.764
 7473SOL    HW134298   1.473   1.563  17.737
 7473SOL    HW234299   1.622   1.549  17.713
 7474SOL     OW34300   3.998   1.847  15.030
 7474SOL    HW134301   4.002   1.779  15.097
 7474SOL    HW234302   4.084   1.889  15.032
 7475SOL     OW34303   2.961   3.696   2.814
 7475SOL    HW134304   2.866   3.684   2.804
 7475SOL    HW234305   2.970   3.775   2.867
 7476SOL     OW34306   0.608   1.283   5.523
 7476SOL    HW134307   0.656   1.270   5.441
 7476SOL    HW234308   0.516   1.286   5.497
 7477SOL     OW34309   3.252   1.025   3.810
 7477SOL    HW134310   3.261   1.037   3.905
 7477SOL    HW234311   3.271   0.932   3.795
 7478SOL     OW34312   2.183   1.250   8.834
 7478SOL    HW134313   2.246   1.283   8.770
 7478SOL    HW234314   2.204   1.297   8.915
 7479SOL     OW34315   1.151   0.313   8.635
 7479SOL    HW134316   1.160   0.280   8.725
 7479SOL    HW234317   1.195   0.398   8.636
 7480SOL     OW34318   1.041   2.232   0.738
 7480SOL    HW134319   1.041   2.216   0.832
 7480SOL    HW234320   0.952   2.212   0.710
 7481SOL     OW34321   3.277   0.457  18.030
 7481SOL    HW134322   3.239   0.544  18.045
 7481SOL    HW234323   3.206   0.405  17.993
 7482SOL     OW34324   2.800   4.232  14.915
 7482SOL    HW134325   2.730   4.285  14.952
 7482SOL    HW234326   2.824   4.277  14.834
 7483SOL     OW34327   4.205   3.102   2.382
 7483SOL    HW134328   4.121   3.131   2.347
 7483SOL    HW234329   4.253   3.183   2.400
 7484SOL     OW34330   3.807   2.534   5.050
 7484SOL    HW134331   3.835   2.462   4.993
 7484SOL    HW234332   3.879   2.545   5.112
 7485SOL     OW34333   2.630   1.058   0.020
 7485SOL    HW134334   2.656   1.129   0.079
 7485SOL    HW234335   2.679   1.074  21.196
 7486SOL     OW34336   3.948   3.878   0.991
 7486SOL    HW134337   3.897   3.802   0.963
 7486SOL    HW234338   3.910   3.903   1.075
 7487SOL     OW34339   2.109   2.370  16.331
 7487SOL    HW134340   2.077   2.373  16.421
 7487SOL    HW234341   2.032   2.391  16.277
 7488SOL     OW34342   4.699   2.440   1.919
 7488SOL    HW134343   4.637   2.502   1.880
 7488SOL    HW234344   4.668   2.354   1.891
 7489SOL     OW34345   1.577   4.645   1.303
 7489SOL    HW134346   1.631   4.585   1.251
 7489SOL    HW234347   1.639   4.708   1.339
 7490SOL     OW34348   4.692   2.262  19.418
 7490SOL    HW134349   4.742   2.307  19.350
 7490SOL    HW234350   4.618   2.320  19.436
 7491SOL     OW34351   1.040   0.154  18.333
 7491SOL    HW134352   1.048   0.105  18.251
 7491SOL    HW234353   1.016   0.088  18.398
 7492SOL     OW34354   1.936   4.631  20.445
 7492SOL    HW134355   1.937   4.623  20.540
 7492SOL    HW234356   2.021   4.598  20.417
 7493SOL     OW34357   2.210   0.374   0.158
 7493SOL    HW134358   2.197   0.412   0.245
 7493SOL    HW234359   2.210   0.449   0.098
 7494SOL     OW34360   4.062   3.652   6.954
 7494SOL    HW134361   3.986   3.595   6.945
 7494SOL    HW234362   4.124   3.620   6.889
 7495SOL     OW34363   2.879   0.198   5.781
 7495SOL    HW134364   2.898   0.276   5.728
 7495SOL    HW234365   2.899   0.124   5.723
 7496SOL     OW34366   3.370   0.729  17.484
 7496SOL    HW134367   3.279   0.705  17.468
 7496SOL    HW234368   3.378   0.818  17.450
 7497SOL     OW34369   0.385   2.020   1.828
 7497SOL    HW134370   0.459   1.963   1.850
 7497SOL    HW234371   0.308   1.968   1.851
 7498SOL     OW34372   3.740   2.396   3.881
 7498SOL    HW134373   3.669   2.333   3.894
 7498SOL    HW234374   3.798   2.354   3.817
 7499SOL     OW34375   0.991   2.303  17.101
 7499SOL    HW134376   1.057   2.343  17.157
 7499SOL    HW234377   1.030   2.303  17.014
 7500SOL     OW34378   1.114   2.555   2.407
 7500SOL    HW134379   1.100   2.562   2.313
 7500SOL    HW234380   1.209   2.545   2.417
 7501SOL     OW34381   2.146   1.427  15.329
 7501SOL    HW134382   2.151   1.423  15.234
 7501SOL    HW234383   2.188   1.346  15.359
 7502SOL     OW34384   1.369   1.520   5.927
 7502SOL    HW134385   1.407   1.530   5.840
 7502SOL    HW234386   1.366   1.609   5.963
 7503SOL     OW34387   3.746   1.087  20.292
 7503SOL    HW134388   3.814   1.141  20.252
 7503SOL    HW234389   3.727   1.021  20.226
 7504SOL     OW34390   0.583   4.686   3.000
 7504SOL    HW134391   0.655   4.686   2.937
 7504SOL    HW234392   0.563   4.593   3.014
 7505SOL     OW34393   4.450   1.152   7.497
 7505SOL    HW134394   4.480   1.084   7.557
 7505SOL    HW234395   4.359   1.167   7.521
 7506SOL     OW34396   2.201   3.727  18.975
 7506SOL    HW134397   2.295   3.729  18.994
 7506SOL    HW234398   2.164   3.798  19.028
 7507SOL     OW34399   2.163   4.585   2.394
 7507SOL    HW134400   2.163   4.672   2.354
 7507SOL    HW234401   2.246   4.580   2.441
 7508SOL     OW34402   2.752   2.596  16.024
 7508SOL    HW134403   2.765   2.503  16.044
 7508SOL    HW234404   2.657   2.608  16.029
 7509SOL     OW34405   3.498   0.524  18.667
 7509SOL    HW134406   3.408   0.513  18.699
 7509SOL    HW234407   3.493   0.505  18.573
 7510SOL     OW34408   0.085   4.341   4.681
 7510SOL    HW134409   0.007   4.315   4.729
 7510SOL    HW234410   0.131   4.259   4.664
 7511SOL     OW34411   3.353   1.626   2.511
 7511SOL    HW134412   3.340   1.623   2.416
 7511SOL    HW234413   3.307   1.705   2.539
 7512SOL     OW34414   4.073   3.918  19.415
 7512SOL    HW134415   4.073   3.967  19.333
 7512SOL    HW234416   4.125   3.840  19.397
 7513SOL     OW34417   2.922   2.877  13.524
 7513SOL    HW134418   2.863   2.802  13.530
 7513SOL    HW234419   2.908   2.912  13.436
 7514SOL     OW34420   4.739   0.049   7.095
 7514SOL    HW134421   0.019   0.038   7.159
 7514SOL    HW234422   4.687   0.122   7.128
 7515SOL     OW34423   2.755   2.918   4.776
 7515SOL    HW134424   2.755   2.974   4.698
 7515SOL    HW234425   2.728   2.976   4.847
 7516SOL     OW34426   3.691   3.339   0.989
 7516SOL    HW134427   3.631   3.265   0.980
 7516SOL    HW234428   3.678   3.369   1.079
 7517SOL     OW34429   3.447   2.897  16.032
 7517SOL    HW134430   3.518   2.854  16.080
 7517SOL    HW234431   3.467   2.881  15.940
 7518SOL     OW34432   2.336   1.922  20.660
 7518SOL    HW134433   2.391   1.980  20.713
 7518SOL    HW234434   2.353   1.834  20.694
 7519SOL     OW34435   2.197   3.161   0.631
 7519SOL    HW134436   2.241   3.195   0.709
 7519SOL    HW234437   2.105   3.184   0.643
 7520SOL     OW34438   1.319   4.480  16.983
 7520SOL    HW134439   1.283   4.434  16.907
 7520SOL    HW234440   1.286   4.431  17.058
 7521SOL     OW34441   4.393   2.911  17.424
 7521SOL    HW134442   4.382   2.824  17.386
 7521SOL    HW234443   4.486   2.916  17.444
 7522SOL     OW34444   3.389   4.019  14.884
 7522SOL    HW134445   3.354   4.058  14.964
 7522SOL    HW234446   3.324   3.954  14.859
 7523SOL     OW34447   0.265   2.965   4.132
 7523SOL    HW134448   0.322   2.973   4.055
 7523SOL    HW234449   0.316   2.915   4.195
 7524SOL     OW34450   4.051   0.816   8.364
 7524SOL    HW134451   3.985   0.751   8.341
 7524SOL    HW234452   4.130   0.788   8.318
 7525SOL     OW34453   1.353   3.756   2.945
 7525SOL    HW134454   1.394   3.670   2.936
 7525SOL    HW234455   1.260   3.737   2.956
 7526SOL     OW34456   0.096   1.817  20.352
 7526SOL    HW134457   0.118   1.896  20.303
 7526SOL    HW234458   0.180   1.774  20.368
 7527SOL     OW34459   0.481   4.441   5.350
 7527SOL    HW134460   0.435   4.429   5.267
 7527SOL    HW234461   0.430   4.508   5.396
 7528SOL     OW34462   4.354   0.943   6.708
 7528SOL    HW134463   4.279   0.894   6.742
 7528SOL    HW234464   4.324   1.034   6.703
 7529SOL     OW34465   2.558   2.161  20.318
 7529SOL    HW134466   2.499   2.102  20.364
 7529SOL    HW234467   2.624   2.104  20.280
 7530SOL     OW34468   4.233   2.753  16.380
 7530SOL    HW134469   4.245   2.710  16.464
 7530SOL    HW234470   4.314   2.803  16.367
 7531SOL     OW34471   1.027   1.005   3.861
 7531SOL    HW134472   1.041   1.100   3.856
 7531SOL    HW234473   0.935   0.993   3.837
 7532SOL     OW34474   1.652   0.585   3.047
 7532SOL    HW134475   1.740   0.621   3.039
 7532SOL    HW234476   1.632   0.592   3.140
 7533SOL     OW34477   3.152   1.038  20.315
 7533SOL    HW134478   3.099   0.959  20.320
 7533SOL    HW234479   3.089   1.108  20.300
 7534SOL     OW34480   4.692   3.818   6.589
 7534SOL    HW134481   4.710   3.840   6.680
 7534SOL    HW234482   4.621   3.754   6.594
 7535SOL     OW34483   2.503   2.819   0.251
 7535SOL    HW134484   2.566   2.756   0.285
 7535SOL    HW234485   2.420   2.794   0.290
 7536SOL     OW34486   4.458   1.807   0.148
 7536SOL    HW134487   4.466   1.899   0.122
 7536SOL    HW234488   4.548   1.780   0.168
 7537SOL     OW34489   1.201   3.604   5.736
 7537SOL    HW134490   1.214   3.513   5.764
 7537SOL    HW234491   1.252   3.612   5.655
 7538SOL     OW34492   1.201   4.489   7.997
 7538SOL    HW134493   1.179   4.420   8.060
 7538SOL    HW234494   1.172   4.454   7.913
 7539SOL     OW34495   4.357   4.594   3.838
 7539SOL    HW134496   4.421   4.635   3.780
 7539SOL    HW234497   4.318   4.667   3.886
 7540SOL     OW34498   4.395   1.534   4.405
 7540SOL    HW134499   4.466   1.474   4.428
 7540SOL    HW234500   4.364   1.503   4.320
 7541SOL     OW34501   3.150   2.276   6.953
 7541SOL    HW134502   3.055   2.268   6.954
 7541SOL    HW234503   3.172   2.304   7.042
 7542SOL     OW34504   0.401   4.524   0.306
 7542SOL    HW134505   0.312   4.556   0.317
 7542SOL    HW234506   0.456   4.591   0.347
 7543SOL     OW34507   4.571   1.167  18.406
 7543SOL    HW134508   4.486   1.205  18.384
 7543SOL    HW234509   4.601   1.127  18.324
 7544SOL     OW34510   1.418   4.418  19.119
 7544SOL    HW134511   1.416   4.348  19.053
 7544SOL    HW234512   1.435   4.373  19.202
 7545SOL     OW34513   0.165   1.866  15.561
 7545SOL    HW134514   0.229   1.933  15.539
 7545SOL    HW234515   0.112   1.857  15.482
 7546SOL     OW34516   2.283   0.664   1.571
 7546SOL    HW134517   2.353   0.728   1.583
 7546SOL    HW234518   2.226   0.702   1.504
 7547SOL     OW34519   0.563   2.324   3.948
 7547SOL    HW134520   0.484   2.351   3.901
 7547SOL    HW234521   0.552   2.360   4.036
 7548SOL     OW34522   0.150   0.246   0.322
 7548SOL    HW134523   0.174   0.171   0.377
 7548SOL    HW234524   0.166   0.216   0.233
 7549SOL     OW34525   4.479   2.285   6.048
 7549SOL    HW134526   4.459   2.259   5.958
 7549SOL    HW234527   4.398   2.267   6.097
 7550SOL     OW34528   0.801   3.681  17.101
 7550SOL    HW134529   0.847   3.742  17.044
 7550SOL    HW234530   0.847   3.598  17.090
 7551SOL     OW34531   2.954   1.038  20.539
 7551SOL    HW134532   3.007   1.046  20.460
 7551SOL    HW234533   2.914   1.124  20.551
 7552SOL     OW34534   3.574   4.482   3.872
 7552SOL    HW134535   3.559   4.449   3.783
 7552SOL    HW234536   3.534   4.569   3.873
 7553SOL     OW34537   1.185   0.432  20.114
 7553SOL    HW134538   1.159   0.503  20.055
 7553SOL    HW234539   1.280   0.440  20.119
 7554SOL     OW34540   4.386   1.549  20.747
 7554SOL    HW134541   4.479   1.570  20.735
 7554SOL    HW234542   4.380   1.455  20.728
 7555SOL     OW34543   2.487   3.760  16.842
 7555SOL    HW134544   2.480   3.726  16.753
 7555SOL    HW234545   2.397   3.759  16.875
 7556SOL     OW34546   4.535   3.403   6.759
 7556SOL    HW134547   4.510   3.312   6.746
 7556SOL    HW234548   4.626   3.399   6.789
 7557SOL     OW34549   1.791   4.350   2.462
 7557SOL    HW134550   1.806   4.344   2.368
 7557SOL    HW234551   1.791   4.444   2.481
 7558SOL     OW34552   0.688   0.209  19.060
 7558SOL    HW134553   0.748   0.148  19.016
 7558SOL    HW234554   0.615   0.219  18.999
 7559SOL     OW34555   1.124   1.145   1.078
 7559SOL    HW134556   1.136   1.185   1.164
 7559SOL    HW234557   1.186   1.072   1.077
 7560SOL     OW34558   1.006   0.789   4.519
 7560SOL    HW134559   1.025   0.735   4.596
 7560SOL    HW234560   0.990   0.726   4.449
 7561SOL     OW34561   3.899   0.015  19.010
 7561SOL    HW134562   3.933   4.788  19.098
 7561SOL    HW234563   3.976   0.036  18.958
 7562SOL     OW34564   1.218   1.322  11.789
 7562SOL    HW134565   1.201   1.342  11.697
 7562SOL    HW234566   1.312   1.335  11.800
 7563SOL     OW34567   2.094   3.384   8.843
 7563SOL    HW134568   2.067   3.373   8.934
 7563SOL    HW234569   2.146   3.464   8.842
 7564SOL     OW34570   1.142   4.039   0.004
 7564SOL    HW134571   1.099   4.120  21.233
 7564SOL    HW234572   1.074   3.992   0.052
 7565SOL     OW34573   3.585   4.088  18.431
 7565SOL    HW134574   3.640   4.137  18.370
 7565SOL    HW234575   3.520   4.152  18.461
 7566SOL     OW34576   0.849   1.060  21.007
 7566SOL    HW134577   0.935   1.093  20.982
 7566SOL    HW234578   0.862   0.966  21.018
 7567SOL     OW34579   1.961   2.537  16.888
 7567SOL    HW134580   2.005   2.522  16.972
 7567SOL    HW234581   1.980   2.628  16.866
 7568SOL     OW34582   2.973   4.473   7.354
 7568SOL    HW134583   3.048   4.522   7.320
 7568SOL    HW234584   2.904   4.539   7.365
 7569SOL     OW34585   1.008   4.026   5.755
 7569SOL    HW134586   1.097   3.991   5.758
 7569SOL    HW234587   0.974   3.998   5.670
 7570SOL     OW34588   3.928   1.343  15.355
 7570SOL    HW134589   3.949   1.366  15.446
 7570SOL    HW234590   4.007   1.300  15.322
 7571SOL     OW34591   2.289   1.006   4.956
 7571SOL    HW134592   2.278   1.052   5.039
 7571SOL    HW234593   2.308   0.916   4.981
 7572SOL     OW34594   2.611   1.722   1.996
 7572SOL    HW134595   2.614   1.744   1.903
 7572SOL    HW234596   2.588   1.629   1.998
 7573SOL     OW34597   1.709   2.566   3.645
 7573SOL    HW134598   1.712   2.621   3.723
 7573SOL    HW234599   1.798   2.570   3.610
 7574SOL     OW34600   4.491   0.573  19.389
 7574SOL    HW134601   4.498   0.511  19.462
 7574SOL    HW234602   4.537   0.651  19.420
 7575SOL     OW34603   3.292   0.289   4.730
 7575SOL    HW134604   3.367   0.348   4.742
 7575SOL    HW234605   3.216   0.347   4.733
 7576SOL     OW34606   3.200   4.416  16.662
 7576SOL    HW134607   3.280   4.425  16.713
 7576SOL    HW234608   3.146   4.490  16.689
 7577SOL     OW34609   0.508   0.051  16.649
 7577SOL    HW134610   0.529   0.093  16.566
 7577SOL    HW234611   0.462   0.118  16.699
 7578SOL     OW34612   4.053   2.651  21.244
 7578SOL    HW134613   3.960   2.632   0.002
 7578SOL    HW234614   4.081   2.701   0.064
 7579SOL     OW34615   3.338   4.158   5.678
 7579SOL    HW134616   3.428   4.126   5.666
 7579SOL    HW234617   3.345   4.225   5.745
 7580SOL     OW34618   2.436   2.087   5.493
 7580SOL    HW134619   2.379   2.148   5.540
 7580SOL    HW234620   2.514   2.138   5.471
 7581SOL     OW34621   4.221   1.936   5.216
 7581SOL    HW134622   4.164   1.989   5.272
 7581SOL    HW234623   4.252   1.997   5.149
 7582SOL     OW34624   0.890   2.813   1.483
 7582SOL    HW134625   0.910   2.805   1.390
 7582SOL    HW234626   0.974   2.800   1.526
 7583SOL     OW34627   2.471   2.916   0.988
 7583SOL    HW134628   2.534   2.846   0.970
 7583SOL    HW234629   2.468   2.966   0.906
 7584SOL     OW34630   0.503   2.183  19.590
 7584SOL    HW134631   0.590   2.222  19.594
 7584SOL    HW234632   0.443   2.258  19.592
 7585SOL     OW34633   1.036   1.930   1.241
 7585SOL    HW134634   0.987   1.898   1.165
 7585SOL    HW234635   1.100   1.861   1.259
 7586SOL     OW34636   2.372   1.873  20.159
 7586SOL    HW134637   2.419   1.947  20.197
 7586SOL    HW234638   2.332   1.829  20.234
 7587SOL     OW34639   3.927   1.272  21.111
 7587SOL    HW134640   3.908   1.250  21.202
 7587SOL    HW234641   4.008   1.225  21.091
 7588SOL     OW34642   0.866   4.658   6.712
 7588SOL    HW134643   0.898   4.591   6.652
 7588SOL    HW234644   0.775   4.635   6.728
 7589SOL     OW34645   2.378   0.445  15.453
 7589SOL    HW134646   2.360   0.482  15.539
 7589SOL    HW234647   2.306   0.476  15.398
 7590SOL     OW34648   3.226   0.845   0.519
 7590SOL    HW134649   3.175   0.815   0.594
 7590SOL    HW234650   3.161   0.884   0.460
 7591SOL     OW34651   1.636   0.683   3.843
 7591SOL    HW134652   1.653   0.644   3.757
 7591SOL    HW234653   1.594   0.613   3.893
 7592SOL     OW34654   3.831   2.107   0.105
 7592SOL    HW134655   3.762   2.071   0.049
 7592SOL    HW234656   3.793   2.187   0.141
 7593SOL     OW34657   4.023   4.305  20.398
 7593SOL    HW134658   4.103   4.356  20.409
 7593SOL    HW234659   3.963   4.364  20.353
 7594SOL     OW34660   2.218   0.222  20.163
 7594SOL    HW134661   2.295   0.219  20.220
 7594SOL    HW234662   2.198   0.315  20.153
 7595SOL     OW34663   0.122   1.022   4.703
 7595SOL    HW134664   0.155   1.035   4.614
 7595SOL    HW234665   0.167   0.943   4.733
 7596SOL     OW34666   3.107   4.590  15.512
 7596SOL    HW134667   3.029   4.542  15.484
 7596SOL    HW234668   3.077   4.644  15.585
 7597SOL     OW34669   0.414   0.967  16.198
 7597SOL    HW134670   0.507   0.948  16.208
 7597SOL    HW234671   0.371   0.915  16.265
 7598SOL     OW34672   3.733   2.793  19.463
 7598SOL    HW134673   3.824   2.823  19.465
 7598SOL    HW234674   3.740   2.699  19.445
 7599SOL     OW34675   2.248   2.067  18.918
 7599SOL    HW134676   2.215   2.153  18.942
 7599SOL    HW234677   2.276   2.028  19.001
 7600SOL     OW34678   0.469   1.749  18.552
 7600SOL    HW134679   0.399   1.737  18.488
 7600SOL    HW234680   0.542   1.698  18.517
 7601SOL     OW34681   2.136   0.940  16.035
 7601SOL    HW134682   2.212   0.921  16.091
 7601SOL    HW234683   2.077   0.866  16.049
 7602SOL     OW34684   0.445   3.395   3.748
 7602SOL    HW134685   0.466   3.306   3.775
 7602SOL    HW234686   0.378   3.424   3.810
 7603SOL     OW34687   4.274   1.648   3.455
 7603SOL    HW134688   4.276   1.712   3.526
 7603SOL    HW234689   4.182   1.643   3.431
 7604SOL     OW34690   0.859   3.299  18.068
 7604SOL    HW134691   0.789   3.276  18.007
 7604SOL    HW234692   0.813   3.328  18.147
 7605SOL     OW34693   3.943   3.762   7.450
 7605SOL    HW134694   3.998   3.776   7.373
 7605SOL    HW234695   4.005   3.742   7.520
 7606SOL     OW34696   3.433   2.198  20.526
 7606SOL    HW134697   3.487   2.142  20.470
 7606SOL    HW234698   3.406   2.141  20.598
 7607SOL     OW34699   1.529   0.510   4.841
 7607SOL    HW134700   1.507   0.417   4.831
 7607SOL    HW234701   1.622   0.511   4.862
 7608SOL     OW34702   2.901   1.177   4.087
 7608SOL    HW134703   2.845   1.100   4.082
 7608SOL    HW234704   2.840   1.251   4.088
 7609SOL     OW34705   0.537   4.429   3.041
 7609SOL    HW134706   0.537   4.410   3.135
 7609SOL    HW234707   0.626   4.410   3.013
 7610SOL     OW34708   2.485   1.153   2.227
 7610SOL    HW134709   2.521   1.230   2.271
 7610SOL    HW234710   2.406   1.185   2.183
 7611SOL     OW34711   2.855   1.921   2.987
 7611SOL    HW134712   2.767   1.899   3.018
 7611SOL    HW234713   2.860   2.016   2.995
 7612SOL     OW34714   0.772   1.837   3.577
 7612SOL    HW134715   0.725   1.885   3.509
 7612SOL    HW234716   0.737   1.748   3.571
 7613SOL     OW34717   2.355   4.131  18.968
 7613SOL    HW134718   2.342   4.161  19.058
 7613SOL    HW234719   2.291   4.181  18.917
 7614SOL     OW34720   2.184   3.302   3.905
 7614SOL    HW134721   2.180   3.357   3.983
 7614SOL    HW234722   2.268   3.324   3.864
 7615SOL     OW34723   0.822   3.215  19.670
 7615SOL    HW134724   0.790   3.298  19.636
 7615SOL    HW234725   0.743   3.161  19.680
 7616SOL     OW34726   3.381   2.670   6.988
 7616SOL    HW134727   3.286   2.656   6.992
 7616SOL    HW234728   3.393   2.731   6.915
 7617SOL     OW34729   4.040   3.364   4.588
 7617SOL    HW134730   4.052   3.333   4.498
 7617SOL    HW234731   3.948   3.392   4.591
 7618SOL     OW34732   3.220   3.447  17.858
 7618SOL    HW134733   3.284   3.386  17.821
 7618SOL    HW234734   3.269   3.528  17.872
 7619SOL     OW34735   4.013   2.870   3.095
 7619SOL    HW134736   3.924   2.889   3.064
 7619SOL    HW234737   4.070   2.918   3.036
 7620SOL     OW34738   1.352   2.529   0.503
 7620SOL    HW134739   1.284   2.589   0.473
 7620SOL    HW234740   1.306   2.446   0.518
 7621SOL     OW34741   2.615   1.237  14.587
 7621SOL    HW134742   2.597   1.274  14.501
 7621SOL    HW234743   2.699   1.274  14.612
 7622SOL     OW34744   1.348   2.073   5.114
 7622SOL    HW134745   1.433   2.117   5.122
 7622SOL    HW234746   1.291   2.138   5.073
 7623SOL     OW34747   1.259   0.955  15.862
 7623SOL    HW134748   1.349   0.989  15.862
 7623SOL    HW234749   1.220   0.991  15.782
 7624SOL     OW34750   0.786   3.532  15.211
 7624SOL    HW134751   0.802   3.512  15.119
 7624SOL    HW234752   0.693   3.515  15.224
 7625SOL     OW34753   2.613   3.233  17.376
 7625SOL    HW134754   2.556   3.199  17.307
 7625SOL    HW234755   2.699   3.241  17.335
 7626SOL     OW34756   1.052   2.318  18.166
 7626SOL    HW134757   1.111   2.286  18.234
 7626SOL    HW234758   1.024   2.239  18.119
 7627SOL     OW34759   3.123   0.649  17.435
 7627SOL    HW134760   3.039   0.681  17.402
 7627SOL    HW234761   3.162   0.603  17.361
 7628SOL     OW34762   3.137   3.906  17.508
 7628SOL    HW134763   3.103   3.990  17.539
 7628SOL    HW234764   3.059   3.858  17.479
 7629SOL     OW34765   4.390   3.813   3.142
 7629SOL    HW134766   4.434   3.748   3.197
 7629SOL    HW234767   4.316   3.844   3.195
 7630SOL     OW34768   1.257   3.135  15.319
 7630SOL    HW134769   1.176   3.083  15.317
 7630SOL    HW234770   1.233   3.216  15.363
 7631SOL     OW34771   1.097   1.132  20.501
 7631SOL    HW134772   1.040   1.069  20.546
 7631SOL    HW234773   1.090   1.212  20.554
 7632SOL     OW34774   4.412   3.534  17.896
 7632SOL    HW134775   4.375   3.582  17.822
 7632SOL    HW234776   4.415   3.443  17.867
 7633SOL     OW34777   2.319   1.633   4.868
 7633SOL    HW134778   2.372   1.623   4.947
 7633SOL    HW234779   2.337   1.723   4.839
 7634SOL     OW34780   4.421   4.725   1.859
 7634SOL    HW134781   4.477   4.650   1.879
 7634SOL    HW234782   4.356   4.690   1.798
 7635SOL     OW34783   2.106   1.179   0.124
 7635SOL    HW134784   2.110   1.270   0.153
 7635SOL    HW234785   2.128   1.183   0.031
 7636SOL     OW34786   3.684   4.786   6.224
 7636SOL    HW134787   3.767   4.738   6.225
 7636SOL    HW234788   3.699   0.071   6.283
 7637SOL     OW34789   2.291   4.369   0.879
 7637SOL    HW134790   2.381   4.353   0.908
 7637SOL    HW234791   2.239   4.365   0.959
 7638SOL     OW34792   3.549   1.390   3.745
 7638SOL    HW134793   3.520   1.390   3.836
 7638SOL    HW234794   3.472   1.362   3.696
 7639SOL     OW34795   2.397   0.905  14.494
 7639SOL    HW134796   2.344   0.827  14.479
 7639SOL    HW234797   2.391   0.954  14.412
 7640SOL     OW34798   2.917   2.848   5.374
 7640SOL    HW134799   2.829   2.869   5.344
 7640SOL    HW234800   2.913   2.857   5.469
 7641SOL     OW34801   0.315   2.306  19.291
 7641SOL    HW134802   0.232   2.261  19.276
 7641SOL    HW234803   0.380   2.251  19.248
 7642SOL     OW34804   2.310   2.290   6.004
 7642SOL    HW134805   2.266   2.237   6.070
 7642SOL    HW234806   2.399   2.302   6.039
 7643SOL     OW34807   1.424   1.281  13.820
 7643SOL    HW134808   1.485   1.210  13.797
 7643SOL    HW234809   1.481   1.354  13.846
 7644SOL     OW34810   4.181   2.374   9.351
 7644SOL    HW134811   4.244   2.446   9.353
 7644SOL    HW234812   4.208   2.317   9.423
 7645SOL     OW34813   3.920   0.013  17.721
 7645SOL    HW134814   3.961   4.726  17.760
 7645SOL    HW234815   3.899   0.070  17.795
 7646SOL     OW34816   1.413   1.650  16.807
 7646SOL    HW134817   1.329   1.605  16.816
 7646SOL    HW234818   1.400   1.711  16.734
 7647SOL     OW34819   0.828   3.046   8.689
 7647SOL    HW134820   0.878   3.096   8.753
 7647SOL    HW234821   0.840   3.093   8.606
 7648SOL     OW34822   3.391   2.687   1.591
 7648SOL    HW134823   3.469   2.645   1.628
 7648SOL    HW234824   3.371   2.758   1.651
 7649SOL     OW34825   1.107   3.042   9.832
 7649SOL    HW134826   1.134   3.031   9.741
 7649SOL    HW234827   1.095   2.953   9.865
 7650SOL     OW34828   3.078   2.078  18.433
 7650SOL    HW134829   3.070   2.002  18.376
 7650SOL    HW234830   3.169   2.107  18.423
 7651SOL     OW34831   2.442   1.060  14.285
 7651SOL    HW134832   2.428   1.090  14.195
 7651SOL    HW234833   2.488   1.132  14.327
 7652SOL     OW34834   2.419   4.039   8.981
 7652SOL    HW134835   2.479   4.097   8.934
 7652SOL    HW234836   2.475   3.967   9.012
 7653SOL     OW34837   0.621   3.822   5.806
 7653SOL    HW134838   0.622   3.727   5.813
 7653SOL    HW234839   0.697   3.851   5.856
 7654SOL     OW34840   2.174   4.108   8.849
 7654SOL    HW134841   2.202   4.066   8.768
 7654SOL    HW234842   2.254   4.115   8.901
 7655SOL     OW34843   3.270   0.127  20.487
 7655SOL    HW134844   3.248   0.038  20.461
 7655SOL    HW234845   3.248   0.181  20.411
 7656SOL     OW34846   4.238   1.564  16.767
 7656SOL    HW134847   4.194   1.613  16.837
 7656SOL    HW234848   4.167   1.527  16.715
 7657SOL     OW34849   1.465   2.639  18.452
 7657SOL    HW134850   1.409   2.584  18.507
 7657SOL    HW234851   1.480   2.718  18.504
 7658SOL     OW34852   2.594   0.559   8.473
 7658SOL    HW134853   2.615   0.634   8.418
 7658SOL    HW234854   2.595   0.484   8.413
 7659SOL     OW34855   0.123   1.785   6.565
 7659SOL    HW134856   0.190   1.844   6.530
 7659SOL    HW234857   0.062   1.771   6.493
 7660SOL     OW34858   4.677   3.251   8.031
 7660SOL    HW134859   4.711   3.161   8.027
 7660SOL    HW234860   4.748   3.301   8.071
 7661SOL     OW34861   0.336   1.281   5.489
 7661SOL    HW134862   0.289   1.301   5.408
 7661SOL    HW234863   0.269   1.244   5.547
 7662SOL     OW34864   0.336   3.758   8.380
 7662SOL    HW134865   0.375   3.793   8.460
 7662SOL    HW234866   0.375   3.809   8.309
 7663SOL     OW34867   3.764   0.797   8.121
 7663SOL    HW134868   3.809   0.718   8.150
 7663SOL    HW234869   3.774   0.796   8.026
 7664SOL     OW34870   3.770   1.052   8.274
 7664SOL    HW134871   3.843   1.057   8.336
 7664SOL    HW234872   3.754   0.958   8.263
 7665SOL     OW34873   0.598   2.877   8.709
 7665SOL    HW134874   0.666   2.940   8.688
 7665SOL    HW234875   0.598   2.816   8.635
 7666SOL     OW34876   0.816   3.048   7.664
 7666SOL    HW134877   0.810   3.072   7.572
 7666SOL    HW234878   0.785   2.957   7.667
 7667SOL     OW34879   2.317   1.520   8.800
 7667SOL    HW134880   2.362   1.605   8.803
 7667SOL    HW234881   2.332   1.483   8.887
 7668SOL     OW34882   0.305   3.813   9.546
 7668SOL    HW134883   0.238   3.826   9.479
 7668SOL    HW234884   0.333   3.722   9.535
 7669SOL     OW34885   3.567   1.961   0.538
 7669SOL    HW134886   3.646   1.995   0.580
 7669SOL    HW234887   3.595   1.939   0.449
 7670SOL     OW34888   2.801   0.723  18.334
 7670SOL    HW134889   2.824   0.691  18.421
 7670SOL    HW234890   2.869   0.787  18.312
 7671SOL     OW34891   0.229   3.939   8.131
 7671SOL    HW134892   0.321   3.931   8.154
 7671SOL    HW234893   0.204   3.852   8.099
 7672SOL     OW34894   1.752   0.563   7.605
 7672SOL    HW134895   1.669   0.520   7.582
 7672SOL    HW234896   1.806   0.553   7.527
 7673SOL     OW34897   3.910   3.606   9.102
 7673SOL    HW134898   3.873   3.518   9.100
 7673SOL    HW234899   3.919   3.626   9.195
 7674SOL     OW34900   1.390   1.942   0.694
 7674SOL    HW134901   1.384   2.006   0.623
 7674SOL    HW234902   1.378   1.857   0.651
 7675SOL     OW34903   1.672   0.750   9.781
 7675SOL    HW134904   1.662   0.736   9.687
 7675SOL    HW234905   1.756   0.795   9.790
 7676SOL     OW34906   0.985   0.125   8.829
 7676SOL    HW134907   0.936   0.044   8.817
 7676SOL    HW234908   0.958   0.156   8.916
 7677SOL     OW34909   1.532   0.573   9.212
 7677SOL    HW134910   1.614   0.556   9.258
 7677SOL    HW234911   1.548   0.542   9.123
 7678SOL     OW34912   3.326   4.398  13.846
 7678SOL    HW134913   3.245   4.357  13.877
 7678SOL    HW234914   3.320   4.489  13.877
 7679SOL     OW34915   4.644   3.153   9.061
 7679SOL    HW134916   4.733   3.189   9.058
 7679SOL    HW234917   4.625   3.128   8.970
 7680SOL     OW34918   3.030   1.342  18.360
 7680SOL    HW134919   3.063   1.272  18.303
 7680SOL    HW234920   2.999   1.297  18.438
 7681SOL     OW34921   1.301   2.211  16.135
 7681SOL    HW134922   1.331   2.211  16.226
 7681SOL    HW234923   1.239   2.138  16.130
 7682SOL     OW34924   0.693   3.844   8.481
 7682SOL    HW134925   0.602   3.839   8.511
 7682SOL    HW234926   0.738   3.895   8.549
 7683SOL     OW34927   4.324   3.716  10.465
 7683SOL    HW134928   4.349   3.727  10.373
 7683SOL    HW234929   4.309   3.805  10.496
 7684SOL     OW34930   2.255   1.384   9.597
 7684SOL    HW134931   2.291   1.459   9.644
 7684SOL    HW234932   2.257   1.313   9.661
 7685SOL     OW34933   0.567   3.962  10.263
 7685SOL    HW134934   0.608   3.923  10.340
 7685SOL    HW234935   0.482   3.993  10.295
 7686SOL     OW34936   2.409   0.065  11.103
 7686SOL    HW134937   2.472   0.049  11.174
 7686SOL    HW234938   2.404   0.160  11.097
 7687SOL     OW34939   1.819   4.398  10.867
 7687SOL    HW134940   1.913   4.382  10.872
 7687SOL    HW234941   1.796   4.432  10.954
 7688SOL     OW34942   2.025   4.093  10.346
 7688SOL    HW134943   2.116   4.080  10.320
 7688SOL    HW234944   1.985   4.139  10.272
 7689SOL     OW34945   0.836   3.255  11.622
 7689SOL    HW134946   0.908   3.284  11.566
 7689SOL    HW234947   0.821   3.329  11.681
 7690SOL     OW34948   4.640   0.391   8.378
 7690SOL    HW134949   4.680   0.447   8.311
 7690SOL    HW234950   4.668   0.429   8.461
 7691SOL     OW34951   2.699   0.984  10.180
 7691SOL    HW134952   2.656   0.929  10.245
 7691SOL    HW234953   2.629   1.040  10.146
 7692SOL     OW34954   0.889   1.841  11.482
 7692SOL    HW134955   0.931   1.790  11.413
 7692SOL    HW234956   0.829   1.899  11.435
 7693SOL     OW34957   0.456   0.459   9.544
 7693SOL    HW134958   0.484   0.374   9.578
 7693SOL    HW234959   0.494   0.523   9.604
 7694SOL     OW34960   1.093   3.740   9.498
 7694SOL    HW134961   1.180   3.741   9.537
 7694SOL    HW234962   1.105   3.698   9.413
 7695SOL     OW34963   0.822   2.604  11.408
 7695SOL    HW134964   0.878   2.572  11.478
 7695SOL    HW234965   0.752   2.539  11.401
 7696SOL     OW34966   1.460   3.357  11.449
 7696SOL    HW134967   1.395   3.424  11.468
 7696SOL    HW234968   1.460   3.301  11.527
 7697SOL     OW34969   0.819   3.297  10.826
 7697SOL    HW134970   0.818   3.226  10.762
 7697SOL    HW234971   0.885   3.271  10.890
 7698SOL     OW34972   1.713   3.584  10.525
 7698SOL    HW134973   1.705   3.555  10.616
 7698SOL    HW234974   1.629   3.625  10.506
 7699SOL     OW34975   3.507   0.893   8.087
 7699SOL    HW134976   3.515   0.983   8.057
 7699SOL    HW234977   3.597   0.862   8.094
 7700SOL     OW34978   4.202   0.667   9.148
 7700SOL    HW134979   4.225   0.594   9.090
 7700SOL    HW234980   4.156   0.729   9.091
 7701SOL     OW34981   2.378   3.502  10.152
 7701SOL    HW134982   2.317   3.570  10.182
 7701SOL    HW234983   2.465   3.538  10.169
 7702SOL     OW34984   0.785   2.875  11.402
 7702SOL    HW134985   0.745   2.886  11.316
 7702SOL    HW234986   0.798   2.780  11.410
 7703SOL     OW34987   2.321   1.190   9.776
 7703SOL    HW134988   2.255   1.209   9.842
 7703SOL    HW234989   2.329   1.095   9.776
 7704SOL     OW34990   2.209   1.255  10.056
 7704SOL    HW134991   2.114   1.252  10.068
 7704SOL    HW234992   2.234   1.344  10.080
 7705SOL     OW34993   1.083   3.276   9.970
 7705SOL    HW134994   1.064   3.328   9.892
 7705SOL    HW234995   1.106   3.189   9.936
 7706SOL     OW34996   3.325   0.673   9.125
 7706SOL    HW134997   3.395   0.627   9.172
 7706SOL    HW234998   3.318   0.627   9.042
 7707SOL     OW34999   0.391   1.921   9.429
 7707SOL    HW135000   0.375   1.832   9.461
 7707SOL    HW235001   0.323   1.935   9.363
 7708SOL     OW35002   0.176   0.469  18.885
 7708SOL    HW135003   0.156   0.512  18.968
 7708SOL    HW235004   0.215   0.538  18.831
 7709SOL     OW35005   2.680   1.001   6.755
 7709SOL    HW135006   2.639   1.073   6.803
 7709SOL    HW235007   2.641   1.004   6.668
 7710SOL     OW35008   1.775   2.061  13.421
 7710SOL    HW135009   1.773   2.138  13.478
 7710SOL    HW235010   1.790   1.988  13.481
 7711SOL     OW35011   0.896   4.403  11.519
 7711SOL    HW135012   0.969   4.345  11.496
 7711SOL    HW235013   0.906   4.478  11.460
 7712SOL     OW35014   0.980   2.915  19.355
 7712SOL    HW135015   1.050   2.944  19.414
 7712SOL    HW235016   1.026   2.879  19.279
 7713SOL     OW35017   4.338   0.475  10.401
 7713SOL    HW135018   4.422   0.451  10.441
 7713SOL    HW235019   4.312   0.555  10.446
 7714SOL     OW35020   2.380   2.733  11.156
 7714SOL    HW135021   2.402   2.642  11.138
 7714SOL    HW235022   2.285   2.732  11.171
 7715SOL     OW35023   3.341   4.106  12.536
 7715SOL    HW135024   3.267   4.150  12.578
 7715SOL    HW235025   3.335   4.015  12.566
 7716SOL     OW35026   1.104   2.937  20.936
 7716SOL    HW135027   1.127   3.005  20.873
 7716SOL    HW235028   1.152   2.960  21.015
 7717SOL     OW35029   4.567   0.380   2.846
 7717SOL    HW135030   4.662   0.376   2.854
 7717SOL    HW235031   4.536   0.296   2.880
 7718SOL     OW35032   0.642   4.528  11.932
 7718SOL    HW135033   0.585   4.573  11.994
 7718SOL    HW235034   0.709   4.486  11.986
 7719SOL     OW35035   1.187   3.234  11.718
 7719SOL    HW135036   1.278   3.212  11.700
 7719SOL    HW235037   1.179   3.231  11.813
 7720SOL     OW35038   1.799   0.034  11.069
 7720SOL    HW135039   1.809   4.729  11.066
 7720SOL    HW235040   1.788   0.060  10.978
 7721SOL     OW35041   2.443   2.399  11.176
 7721SOL    HW135042   2.531   2.376  11.207
 7721SOL    HW235043   2.395   2.421  11.256
 7722SOL     OW35044   4.676   4.763   9.541
 7722SOL    HW135045   4.587   4.777   9.508
 7722SOL    HW235046   4.705   0.059   9.571
 7723SOL     OW35047   1.196   4.148  11.016
 7723SOL    HW135048   1.179   4.054  11.013
 7723SOL    HW235049   1.256   4.164  10.943
 7724SOL     OW35050   1.688   2.380  10.679
 7724SOL    HW135051   1.702   2.452  10.618
 7724SOL    HW235052   1.663   2.422  10.761
 7725SOL     OW35053   0.380   0.605  18.710
 7725SOL    HW135054   0.453   0.558  18.751
 7725SOL    HW235055   0.405   0.611  18.618
 7726SOL     OW35056   1.608   2.054  11.880
 7726SOL    HW135057   1.644   2.096  11.802
 7726SOL    HW235058   1.524   2.097  11.895
 7727SOL     OW35059   2.074   3.336  11.073
 7727SOL    HW135060   2.036   3.282  11.142
 7727SOL    HW235061   2.162   3.301  11.061
 7728SOL     OW35062   2.219   3.959   5.423
 7728SOL    HW135063   2.315   3.964   5.421
 7728SOL    HW235064   2.199   3.914   5.505
 7729SOL     OW35065   1.892   3.637  12.145
 7729SOL    HW135066   1.949   3.566  12.116
 7729SOL    HW235067   1.945   3.686  12.208
 7730SOL     OW35068   2.284   1.313  12.140
 7730SOL    HW135069   2.302   1.392  12.090
 7730SOL    HW235070   2.331   1.325  12.223
 7731SOL     OW35071   2.635   3.992  11.606
 7731SOL    HW135072   2.655   3.965  11.696
 7731SOL    HW235073   2.664   4.083  11.602
 7732SOL     OW35074   2.288   3.208  11.427
 7732SOL    HW135075   2.328   3.217  11.341
 7732SOL    HW235076   2.263   3.297  11.452
 7733SOL     OW35077   2.638   0.877  16.180
 7733SOL    HW135078   2.589   0.799  16.207
 7733SOL    HW235079   2.637   0.874  16.084
 7734SOL     OW35080   3.480   1.472   5.726
 7734SOL    HW135081   3.403   1.469   5.669
 7734SOL    HW235082   3.465   1.404   5.791
 7735SOL     OW35083   0.886   3.173   3.292
 7735SOL    HW135084   0.970   3.162   3.247
 7735SOL    HW235085   0.893   3.258   3.335
 7736SOL     OW35086   2.483   2.705  20.082
 7736SOL    HW135087   2.479   2.612  20.061
 7736SOL    HW235088   2.549   2.711  20.152
 7737SOL     OW35089   3.598   0.273  15.826
 7737SOL    HW135090   3.619   0.297  15.917
 7737SOL    HW235091   3.644   0.338  15.773
 7738SOL     OW35092   1.001   4.735  20.592
 7738SOL    HW135093   0.969   0.012  20.532
 7738SOL    HW235094   0.928   4.718  20.651
 7739SOL     OW35095   4.457   3.156   7.003
 7739SOL    HW135096   4.433   3.130   7.092
 7739SOL    HW235097   4.373   3.168   6.958
 7740SOL     OW35098   3.386   2.059  16.758
 7740SOL    HW135099   3.316   2.116  16.790
 7740SOL    HW235100   3.340   1.983  16.722
 7741SOL     OW35101   4.057   2.882   6.329
 7741SOL    HW135102   3.976   2.924   6.301
 7741SOL    HW235103   4.125   2.947   6.312
 7742SOL     OW35104   3.742   3.672  15.954
 7742SOL    HW135105   3.692   3.699  15.877
 7742SOL    HW235106   3.751   3.577  15.945
 7743SOL     OW35107   3.251   3.648  16.815
 7743SOL    HW135108   3.339   3.614  16.831
 7743SOL    HW235109   3.265   3.727  16.762
 7744SOL     OW35110   2.574   1.394   0.556
 7744SOL    HW135111   2.483   1.421   0.546
 7744SOL    HW235112   2.624   1.472   0.533
 7745SOL     OW35113   0.848   1.646  17.634
 7745SOL    HW135114   0.919   1.641  17.570
 7745SOL    HW235115   0.846   1.738  17.661
 7746SOL     OW35116   4.693   2.744  15.801
 7746SOL    HW135117   4.722   2.769  15.889
 7746SOL    HW235118   4.758   2.782  15.742
 7747SOL     OW35119   3.622   2.642   1.721
 7747SOL    HW135120   3.657   2.706   1.784
 7747SOL    HW235121   3.682   2.647   1.647
 7748SOL     OW35122   0.999   2.007   5.199
 7748SOL    HW135123   1.045   2.075   5.149
 7748SOL    HW235124   0.977   2.049   5.282
 7749SOL     OW35125   4.183   4.673  11.593
 7749SOL    HW135126   4.109   4.613  11.581
 7749SOL    HW235127   4.143   4.756  11.618
 7750SOL     OW35128   0.113   1.547  17.794
 7750SOL    HW135129   0.094   1.602  17.870
 7750SOL    HW235130   0.188   1.589  17.752
 7751SOL     OW35131   3.085   0.036  20.742
 7751SOL    HW135132   3.108   0.065  20.830
 7751SOL    HW235133   3.164   0.051  20.691
 7752SOL     OW35134   4.640   3.561  14.929
 7752SOL    HW135135   4.697   3.497  14.886
 7752SOL    HW235136   4.565   3.570  14.870
 7753SOL     OW35137   1.981   4.606   0.655
 7753SOL    HW135138   1.897   4.638   0.688
 7753SOL    HW235139   1.994   4.652   0.572
 7754SOL     OW35140   2.487   1.951   3.476
 7754SOL    HW135141   2.468   1.910   3.560
 7754SOL    HW235142   2.420   2.019   3.466
 7755SOL     OW35143   3.106   1.148   3.315
 7755SOL    HW135144   3.136   1.060   3.338
 7755SOL    HW235145   3.074   1.185   3.397
 7756SOL     OW35146   0.729   0.021   5.977
 7756SOL    HW135147   0.636   0.042   5.989
 7756SOL    HW235148   0.730   4.748   5.905
 7757SOL     OW35149   0.159   1.404   0.768
 7757SOL    HW135150   0.091   1.337   0.760
 7757SOL    HW235151   0.241   1.355   0.774
 7758SOL     OW35152   2.307   3.194  20.764
 7758SOL    HW135153   2.339   3.223  20.679
 7758SOL    HW235154   2.332   3.264  20.825
 7759SOL     OW35155   3.778   0.125   7.834
 7759SOL    HW135156   3.863   0.134   7.791
 7759SOL    HW235157   3.716   0.115   7.762
 7760SOL     OW35158   0.712   0.617  16.318
 7760SOL    HW135159   0.748   0.643  16.233
 7760SOL    HW235160   0.788   0.590  16.370
 7761SOL     OW35161   1.596   2.736  20.768
 7761SOL    HW135162   1.691   2.741  20.776
 7761SOL    HW235163   1.570   2.667  20.829
 7762SOL     OW35164   2.113   2.106  18.081
 7762SOL    HW135165   2.139   2.045  18.150
 7762SOL    HW235166   2.160   2.077  18.003
 7763SOL     OW35167   1.268   2.438   2.126
 7763SOL    HW135168   1.184   2.397   2.148
 7763SOL    HW235169   1.333   2.383   2.170
 7764SOL     OW35170   2.423   3.435  19.165
 7764SOL    HW135171   2.462   3.515  19.199
 7764SOL    HW235172   2.493   3.393  19.115
 7765SOL     OW35173   0.334   3.040   4.665
 7765SOL    HW135174   0.305   3.131   4.659
 7765SOL    HW235175   0.388   3.037   4.744
 7766SOL     OW35176   4.592   4.151  20.158
 7766SOL    HW135177   4.657   4.181  20.094
 7766SOL    HW235178   4.519   4.120  20.105
 7767SOL     OW35179   3.122   4.290   5.314
 7767SOL    HW135180   3.163   4.218   5.363
 7767SOL    HW235181   3.115   4.257   5.224
 7768SOL     OW35182   3.351   3.564  11.536
 7768SOL    HW135183   3.349   3.563  11.440
 7768SOL    HW235184   3.342   3.472  11.562
 7769SOL     OW35185   0.251   4.654   0.829
 7769SOL    HW135186   0.194   4.725   0.857
 7769SOL    HW235187   0.247   4.591   0.901
 7770SOL     OW35188   3.623   2.219  17.230
 7770SOL    HW135189   3.623   2.218  17.326
 7770SOL    HW235190   3.674   2.296  17.207
 7771SOL     OW35191   2.401   2.769   3.349
 7771SOL    HW135192   2.477   2.800   3.300
 7771SOL    HW235193   2.332   2.831   3.327
 7772SOL     OW35194   2.195   4.019   4.419
 7772SOL    HW135195   2.221   4.092   4.476
 7772SOL    HW235196   2.248   3.945   4.449
 7773SOL     OW35197   4.542   1.982  17.114
 7773SOL    HW135198   4.469   1.951  17.061
 7773SOL    HW235199   4.608   2.008  17.050
 7774SOL     OW35200   0.548   4.161   1.393
 7774SOL    HW135201   0.475   4.222   1.382
 7774SOL    HW235202   0.581   4.178   1.481
 7775SOL     OW35203   2.633   2.436  16.272
 7775SOL    HW135204   2.581   2.379  16.328
 7775SOL    HW235205   2.642   2.517  16.322
 7776SOL     OW35206   2.178   4.067   1.038
 7776SOL    HW135207   2.160   4.111   1.121
 7776SOL    HW235208   2.102   4.011   1.024
 7777SOL     OW35209   0.388   0.905  18.420
 7777SOL    HW135210   0.423   0.976  18.367
 7777SOL    HW235211   0.382   0.942  18.508
 7778SOL     OW35212   4.721   1.120  20.836
 7778SOL    HW135213   4.671   1.162  20.906
 7778SOL    HW235214   4.683   1.153  20.755
 7779SOL     OW35215   3.839   2.935   0.293
 7779SOL    HW135216   3.817   3.021   0.256
 7779SOL    HW235217   3.756   2.899   0.323
 7780SOL     OW35218   3.137   4.162  15.846
 7780SOL    HW135219   3.121   4.153  15.752
 7780SOL    HW235220   3.176   4.249  15.856
 7781SOL     OW35221   2.764   1.120   1.109
 7781SOL    HW135222   2.700   1.172   1.060
 7781SOL    HW235223   2.738   1.029   1.094
 7782SOL     OW35224   0.108   2.962  21.050
 7782SOL    HW135225   0.033   2.913  21.085
 7782SOL    HW235226   0.108   2.942  20.956
 7783SOL     OW35227   1.847   1.993   3.249
 7783SOL    HW135228   1.823   1.942   3.171
 7783SOL    HW235229   1.943   1.996   3.248
 7784SOL     OW35230   2.705   1.338  20.131
 7784SOL    HW135231   2.717   1.321  20.225
 7784SOL    HW235232   2.678   1.430  20.126
 7785SOL     OW35233   3.764   3.712   4.774
 7785SOL    HW135234   3.735   3.675   4.690
 7785SOL    HW235235   3.722   3.798   4.778
 7786SOL     OW35236   4.620   1.471   2.722
 7786SOL    HW135237   4.635   1.540   2.787
 7786SOL    HW235238   4.595   1.394   2.773
 7787SOL     OW35239   4.383   3.971  17.941
 7787SOL    HW135240   4.335   3.986  18.023
 7787SOL    HW235241   4.475   3.979  17.965
 7788SOL     OW35242   0.211   3.791   6.005
 7788SOL    HW135243   0.137   3.852   6.006
 7788SOL    HW235244   0.287   3.846   5.988
 7789SOL     OW35245   1.510   2.111   3.996
 7789SOL    HW135246   1.456   2.032   3.999
 7789SOL    HW235247   1.561   2.101   3.915
 7790SOL     OW35248   4.599   2.845   1.540
 7790SOL    HW135249   4.670   2.909   1.532
 7790SOL    HW235250   4.569   2.854   1.630
 7791SOL     OW35251   1.066   0.058   5.686
 7791SOL    HW135252   1.136   0.115   5.653
 7791SOL    HW235253   1.098   4.759   5.670
 7792SOL     OW35254   3.676   3.247   5.155
 7792SOL    HW135255   3.669   3.155   5.130
 7792SOL    HW235256   3.674   3.294   5.072
 7793SOL     OW35257   2.620   4.149  16.901
 7793SOL    HW135258   2.628   4.054  16.896
 7793SOL    HW235259   2.544   4.164  16.957
 7794SOL     OW35260   3.943   0.116   5.204
 7794SOL    HW135261   4.017   0.062   5.231
 7794SOL    HW235262   3.870   0.087   5.259
 7795SOL     OW35263   2.167   1.489  11.747
 7795SOL    HW135264   2.167   1.397  11.773
 7795SOL    HW235265   2.149   1.487  11.653
 7796SOL     OW35266   4.763   1.089  17.313
 7796SOL    HW135267   4.763   1.134  17.398
 7796SOL    HW235268   4.711   1.010  17.328
 7797SOL     OW35269   4.551   1.496   6.452
 7797SOL    HW135270   4.629   1.478   6.399
 7797SOL    HW235271   4.573   1.575   6.502
 7798SOL     OW35272   4.175   0.067  20.870
 7798SOL    HW135273   4.234   0.141  20.857
 7798SOL    HW235274   4.223   4.781  20.835
 7799SOL     OW35275   3.070   3.416   3.504
 7799SOL    HW135276   3.084   3.496   3.554
 7799SOL    HW235277   3.123   3.350   3.550
 7800SOL     OW35278   0.845   2.549   1.294
 7800SOL    HW135279   0.795   2.467   1.288
 7800SOL    HW235280   0.781   2.617   1.274
 7801SOL     OW35281   0.112   2.513   2.879
 7801SOL    HW135282   0.123   2.606   2.900
 7801SOL    HW235283   0.031   2.487   2.923
 7802SOL     OW35284   2.158   1.104  21.113
 7802SOL    HW135285   2.173   1.101  21.018
 7802SOL    HW235286   2.236   1.063  21.151
 7803SOL     OW35287   0.778   2.430   4.438
 7803SOL    HW135288   0.855   2.476   4.471
 7803SOL    HW235289   0.768   2.355   4.497
 7804SOL     OW35290   1.788   3.987  20.268
 7804SOL    HW135291   1.695   3.996  20.248
 7804SOL    HW235292   1.821   3.925  20.203
 7805SOL     OW35293   1.717   4.179   0.046
 7805SOL    HW135294   1.726   4.153  21.212
 7805SOL    HW235295   1.634   4.141   0.074
 7806SOL     OW35296   0.843   3.045  17.455
 7806SOL    HW135297   0.825   2.954  17.433
 7806SOL    HW235298   0.936   3.057  17.438
 7807SOL     OW35299   1.891   4.083  18.953
 7807SOL    HW135300   1.801   4.075  18.986
 7807SOL    HW235301   1.936   4.137  19.018
 7808SOL     OW35302   3.209   2.973   0.654
 7808SOL    HW135303   3.257   3.006   0.730
 7808SOL    HW235304   3.145   3.041   0.635
 7809SOL     OW35305   1.570   0.838  17.813
 7809SOL    HW135306   1.476   0.845  17.830
 7809SOL    HW235307   1.585   0.744  17.801
 7810SOL     OW35308   1.019   3.498   2.441
 7810SOL    HW135309   0.940   3.546   2.464
 7810SOL    HW235310   1.078   3.512   2.515
 7811SOL     OW35311   3.099   4.021   2.722
 7811SOL    HW135312   3.190   4.026   2.752
 7811SOL    HW235313   3.052   3.982   2.796
 7812SOL     OW35314   1.403   1.954  10.338
 7812SOL    HW135315   1.322   1.945  10.389
 7812SOL    HW235316   1.403   1.879  10.279
 7813SOL     OW35317   2.248   1.056   3.063
 7813SOL    HW135318   2.165   1.103   3.060
 7813SOL    HW235319   2.314   1.124   3.052
 7814SOL     OW35320   2.454   0.385   3.042
 7814SOL    HW135321   2.370   0.369   3.084
 7814SOL    HW235322   2.432   0.403   2.951
 7815SOL     OW35323   2.261   1.864  20.984
 7815SOL    HW135324   2.302   1.949  20.965
 7815SOL    HW235325   2.204   1.848  20.909
 7816SOL     OW35326   2.030   2.726   4.531
 7816SOL    HW135327   2.020   2.819   4.553
 7816SOL    HW235328   2.099   2.725   4.464
 7817SOL     OW35329   2.572   1.385   2.810
 7817SOL    HW135330   2.657   1.354   2.842
 7817SOL    HW235331   2.548   1.323   2.741
 7818SOL     OW35332   3.353   1.453   8.828
 7818SOL    HW135333   3.270   1.421   8.863
 7818SOL    HW235334   3.330   1.535   8.784
 7819SOL     OW35335   0.913   4.468  19.069
 7819SOL    HW135336   0.961   4.431  19.144
 7819SOL    HW235337   0.963   4.439  18.992
 7820SOL     OW35338   3.775   4.452  14.933
 7820SOL    HW135339   3.750   4.530  14.884
 7820SOL    HW235340   3.700   4.433  14.989
 7821SOL     OW35341   0.964   1.621   1.281
 7821SOL    HW135342   0.977   1.698   1.337
 7821SOL    HW235343   0.873   1.627   1.253
 7822SOL     OW35344   0.131   4.313  14.649
 7822SOL    HW135345   0.091   4.342  14.731
 7822SOL    HW235346   0.222   4.344  14.655
 7823SOL     OW35347   1.128   1.691  15.723
 7823SOL    HW135348   1.080   1.752  15.667
 7823SOL    HW235349   1.159   1.623  15.663
 7824SOL     OW35350   0.334   3.379   8.851
 7824SOL    HW135351   0.405   3.337   8.900
 7824SOL    HW235352   0.377   3.415   8.773
 7825SOL     OW35353   1.828   0.697  19.756
 7825SOL    HW135354   1.883   0.653  19.821
 7825SOL    HW235355   1.777   0.760  19.806
 7826SOL     OW35356   3.765   4.628   1.487
 7826SOL    HW135357   3.743   4.628   1.580
 7826SOL    HW235358   3.840   4.570   1.480
 7827SOL     OW35359   3.401   0.401  17.052
 7827SOL    HW135360   3.444   0.424  17.134
 7827SOL    HW235361   3.471   0.369  16.996
 7828SOL     OW35362   1.311   1.853  18.478
 7828SOL    HW135363   1.228   1.805  18.484
 7828SOL    HW235364   1.374   1.789  18.445
 7829SOL     OW35365   0.698   1.615   2.024
 7829SOL    HW135366   0.760   1.663   2.079
 7829SOL    HW235367   0.688   1.669   1.946
 7830SOL     OW35368   1.162   0.373   2.190
 7830SOL    HW135369   1.073   0.374   2.154
 7830SOL    HW235370   1.193   0.463   2.178
 7831SOL     OW35371   4.184   0.319   2.837
 7831SOL    HW135372   4.229   0.237   2.859
 7831SOL    HW235373   4.099   0.291   2.803
 7832SOL     OW35374   4.395   1.614  21.202
 7832SOL    HW135375   4.470   1.625  21.143
 7832SOL    HW235376   4.412   1.676   0.016
 7833SOL     OW35377   3.975   1.590  14.300
 7833SOL    HW135378   4.026   1.578  14.220
 7833SOL    HW235379   4.039   1.583  14.371
 7834SOL     OW35380   2.034   0.542  15.917
 7834SOL    HW135381   1.986   0.467  15.952
 7834SOL    HW235382   2.017   0.612  15.980
 7835SOL     OW35383   3.032   1.582  14.478
 7835SOL    HW135384   3.102   1.529  14.439
 7835SOL    HW235385   3.036   1.562  14.571
 7836SOL     OW35386   2.401   2.115  13.787
 7836SOL    HW135387   2.357   2.153  13.863
 7836SOL    HW235388   2.493   2.138  13.799
 7837SOL     OW35389   3.598   0.415   2.468
 7837SOL    HW135390   3.614   0.419   2.374
 7837SOL    HW235391   3.674   0.369   2.503
 7838SOL     OW35392   3.578   3.013  16.316
 7838SOL    HW135393   3.483   3.022  16.316
 7838SOL    HW235394   3.609   3.092  16.272
 7839SOL     OW35395   2.249   0.230   1.305
 7839SOL    HW135396   2.183   0.246   1.237
 7839SOL    HW235397   2.272   0.138   1.296
 7840SOL     OW35398   4.012   2.565   0.979
 7840SOL    HW135399   4.058   2.487   1.009
 7840SOL    HW235400   3.919   2.543   0.989
 7841SOL     OW35401   4.527   4.337  21.177
 7841SOL    HW135402   4.513   4.414  21.232
 7841SOL    HW235403   4.533   4.264  21.239
 7842SOL     OW35404   1.130   3.187  19.220
 7842SOL    HW135405   1.039   3.197  19.249
 7842SOL    HW235406   1.159   3.276  19.200
 7843SOL     OW35407   4.110   3.959   1.883
 7843SOL    HW135408   4.023   3.923   1.899
 7843SOL    HW235409   4.170   3.891   1.913
 7844SOL     OW35410   3.001   1.150   1.274
 7844SOL    HW135411   2.982   1.189   1.359
 7844SOL    HW235412   2.916   1.142   1.231
 7845SOL     OW35413   1.130   3.415  17.648
 7845SOL    HW135414   1.178   3.459  17.718
 7845SOL    HW235415   1.180   3.335  17.631
 7846SOL     OW35416   3.233   2.752  14.864
 7846SOL    HW135417   3.209   2.700  14.941
 7846SOL    HW235418   3.242   2.687  14.794
 7847SOL     OW35419   4.491   1.499   5.362
 7847SOL    HW135420   4.462   1.587   5.338
 7847SOL    HW235421   4.410   1.447   5.365
 7848SOL     OW35422   3.686   1.511   1.816
 7848SOL    HW135423   3.651   1.439   1.763
 7848SOL    HW235424   3.610   1.566   1.836
 7849SOL     OW35425   4.440   0.571  18.039
 7849SOL    HW135426   4.377   0.525  17.984
 7849SOL    HW235427   4.416   0.546  18.128
 7850SOL     OW35428   3.690   3.187  20.571
 7850SOL    HW135429   3.785   3.180  20.563
 7850SOL    HW235430   3.676   3.255  20.637
 7851SOL     OW35431   4.293   1.252  20.382
 7851SOL    HW135432   4.360   1.221  20.321
 7851SOL    HW235433   4.223   1.187  20.374
 7852SOL     OW35434   0.932   1.615   3.365
 7852SOL    HW135435   0.977   1.677   3.423
 7852SOL    HW235436   0.904   1.668   3.290
 7853SOL     OW35437   2.986   1.862  16.633
 7853SOL    HW135438   2.917   1.827  16.576
 7853SOL    HW235439   2.956   1.950  16.655
 7854SOL     OW35440   3.091   1.442   0.750
 7854SOL    HW135441   3.113   1.432   0.843
 7854SOL    HW235442   3.035   1.367   0.731
 7855SOL     OW35443   4.539   2.664  17.015
 7855SOL    HW135444   4.569   2.600  16.951
 7855SOL    HW235445   4.545   2.619  17.099
 7856SOL     OW35446   1.454   4.358   5.735
 7856SOL    HW135447   1.375   4.411   5.726
 7856SOL    HW235448   1.428   4.270   5.708
 7857SOL     OW35449   3.961   3.272   8.379
 7857SOL    HW135450   3.993   3.362   8.390
 7857SOL    HW235451   4.021   3.232   8.316
 7858SOL     OW35452   4.273   3.492   5.036
 7858SOL    HW135453   4.262   3.438   4.958
 7858SOL    HW235454   4.355   3.463   5.075
 7859SOL     OW35455   2.378   2.046   2.039
 7859SOL    HW135456   2.470   2.069   2.024
 7859SOL    HW235457   2.331   2.085   1.965
 7860SOL     OW35458   4.477   0.029   5.978
 7860SOL    HW135459   4.565   0.022   5.940
 7860SOL    HW235460   4.435   4.736   5.955
 7861SOL     OW35461   4.651   4.328  19.290
 7861SOL    HW135462   4.646   4.398  19.225
 7861SOL    HW235463   4.714   4.266  19.254
 7862SOL     OW35464   1.860   3.892  14.156
 7862SOL    HW135465   1.897   3.980  14.150
 7862SOL    HW235466   1.767   3.907  14.174
 7863SOL     OW35467   3.635   0.215  20.793
 7863SOL    HW135468   3.677   0.136  20.827
 7863SOL    HW235469   3.561   0.231  20.852
 7864SOL     OW35470   1.531   3.656   5.457
 7864SOL    HW135471   1.575   3.702   5.529
 7864SOL    HW235472   1.442   3.690   5.457
 7865SOL     OW35473   4.728   1.320  17.551
 7865SOL    HW135474   0.014   1.292  17.603
 7865SOL    HW235475   4.678   1.376  17.611
 7866SOL     OW35476   1.331   4.181   0.188
 7866SOL    HW135477   1.283   4.229   0.255
 7866SOL    HW235478   1.267   4.164   0.119
 7867SOL     OW35479   0.911   2.503   3.980
 7867SOL    HW135480   0.839   2.537   4.034
 7867SOL    HW235481   0.943   2.579   3.932
 7868SOL     OW35482   2.617   3.170  14.800
 7868SOL    HW135483   2.635   3.240  14.737
 7868SOL    HW235484   2.671   3.192  14.876
 7869SOL     OW35485   1.264   1.771  21.149
 7869SOL    HW135486   1.336   1.822  21.112
 7869SOL    HW235487   1.271   1.786  21.243
 7870SOL     OW35488   3.922   3.693   0.201
 7870SOL    HW135489   3.948   3.784   0.188
 7870SOL    HW235490   3.992   3.642   0.160
 7871SOL     OW35491   0.047   0.608  19.946
 7871SOL    HW135492   0.054   0.519  19.912
 7871SOL    HW235493   4.778   0.601  20.021
 7872SOL     OW35494   2.673   3.459  19.321
 7872SOL    HW135495   2.690   3.551  19.341
 7872SOL    HW235496   2.749   3.431  19.270
 7873SOL     OW35497   2.792   3.657   2.478
 7873SOL    HW135498   2.796   3.753   2.477
 7873SOL    HW235499   2.878   3.628   2.448
 7874SOL     OW35500   0.023   3.929  19.012
 7874SOL    HW135501   0.087   3.932  18.941
 7874SOL    HW235502   4.731   3.902  18.969
 7875SOL     OW35503   3.710   3.524   0.681
 7875SOL    HW135504   3.628   3.487   0.650
 7875SOL    HW235505   3.763   3.535   0.602
 7876SOL     OW35506   0.471   2.052  20.900
 7876SOL    HW135507   0.446   2.141  20.925
 7876SOL    HW235508   0.397   1.997  20.927
 7877SOL     OW35509   1.004   0.500   5.292
 7877SOL    HW135510   1.017   0.521   5.385
 7877SOL    HW235511   1.042   0.574   5.245
 7878SOL     OW35512   0.247   4.395  17.871
 7878SOL    HW135513   0.280   4.395  17.961
 7878SOL    HW235514   0.181   4.326  17.870
 7879SOL     OW35515   0.640   3.611   2.957
 7879SOL    HW135516   0.686   3.601   3.041
 7879SOL    HW235517   0.670   3.695   2.923
 7880SOL     OW35518   3.026   3.988  17.213
 7880SOL    HW135519   3.093   4.051  17.239
 7880SOL    HW235520   3.073   3.923  17.161
 7881SOL     OW35521   4.024   2.928   8.052
 7881SOL    HW135522   4.011   2.992   7.982
 7881SOL    HW235523   3.958   2.860   8.035
 7882SOL     OW35524   2.107   4.650   2.008
 7882SOL    HW135525   2.085   4.742   1.995
 7882SOL    HW235526   2.202   4.646   1.996
 7883SOL     OW35527   2.750   2.899   2.502
 7883SOL    HW135528   2.810   2.835   2.540
 7883SOL    HW235529   2.663   2.873   2.533
 7884SOL     OW35530   4.189   3.053  18.340
 7884SOL    HW135531   4.126   3.060  18.268
 7884SOL    HW235532   4.257   2.995  18.307
 7885SOL     OW35533   1.604   0.573  16.212
 7885SOL    HW135534   1.669   0.643  16.208
 7885SOL    HW235535   1.522   0.618  16.233
 7886SOL     OW35536   0.558   3.453  17.092
 7886SOL    HW135537   0.543   3.366  17.056
 7886SOL    HW235538   0.590   3.505  17.018
 7887SOL     OW35539   3.685   3.811  16.169
 7887SOL    HW135540   3.712   3.764  16.090
 7887SOL    HW235541   3.703   3.903  16.149
 7888SOL     OW35542   0.326   1.894  18.746
 7888SOL    HW135543   0.363   1.982  18.738
 7888SOL    HW235544   0.376   1.841  18.684
 7889SOL     OW35545   3.350   3.908  11.278
 7889SOL    HW135546   3.412   3.877  11.344
 7889SOL    HW235547   3.265   3.878  11.309
 7890SOL     OW35548   3.146   4.051  19.478
 7890SOL    HW135549   3.160   3.960  19.453
 7890SOL    HW235550   3.178   4.102  19.404
 7891SOL     OW35551   4.507   2.782   1.156
 7891SOL    HW135552   4.555   2.751   1.079
 7891SOL    HW235553   4.416   2.757   1.139
 7892SOL     OW35554   4.194   0.136  16.536
 7892SOL    HW135555   4.285   0.155  16.516
 7892SOL    HW235556   4.144   0.203  16.489
 7893SOL     OW35557   1.480   3.745  18.031
 7893SOL    HW135558   1.567   3.785  18.027
 7893SOL    HW235559   1.419   3.819  18.034
 7894SOL     OW35560   3.553   3.889  15.165
 7894SOL    HW135561   3.542   3.979  15.194
 7894SOL    HW235562   3.631   3.891  15.109
 7895SOL     OW35563   3.476   0.191   5.635
 7895SOL    HW135564   3.522   0.275   5.627
 7895SOL    HW235565   3.522   0.145   5.705
 7896SOL     OW35566   2.011   4.289   1.161
 7896SOL    HW135567   2.100   4.313   1.186
 7896SOL    HW235568   2.002   4.318   1.070
 7897SOL     OW35569   0.832   1.888  17.740
 7897SOL    HW135570   0.902   1.944  17.707
 7897SOL    HW235571   0.752   1.936  17.720
 7898SOL     OW35572   4.230   0.827   6.017
 7898SOL    HW135573   4.223   0.911   6.062
 7898SOL    HW235574   4.306   0.784   6.057
 7899SOL     OW35575   4.451   0.205  17.333
 7899SOL    HW135576   4.521   0.139  17.333
 7899SOL    HW235577   4.482   0.272  17.272
 7900SOL     OW35578   2.306   0.699  15.235
 7900SOL    HW135579   2.398   0.678  15.250
 7900SOL    HW235580   2.305   0.748  15.153
 7901SOL     OW35581   3.755   1.481   4.057
 7901SOL    HW135582   3.789   1.416   3.996
 7901SOL    HW235583   3.820   1.484   4.127
 7902SOL     OW35584   3.286   0.563   5.018
 7902SOL    HW135585   3.366   0.607   4.989
 7902SOL    HW235586   3.310   0.520   5.100
 7903SOL     OW35587   3.905   1.190  18.991
 7903SOL    HW135588   3.901   1.112  19.046
 7903SOL    HW235589   3.996   1.194  18.961
 7904SOL     OW35590   1.621   1.310   3.148
 7904SOL    HW135591   1.585   1.243   3.205
 7904SOL    HW235592   1.570   1.303   3.067
 7905SOL     OW35593   3.611   3.151   5.580
 7905SOL    HW135594   3.549   3.217   5.611
 7905SOL    HW235595   3.605   3.080   5.645
 7906SOL     OW35596   3.417   4.241   3.939
 7906SOL    HW135597   3.460   4.308   3.887
 7906SOL    HW235598   3.488   4.183   3.968
 7907SOL     OW35599   2.189   4.558  13.664
 7907SOL    HW135600   2.096   4.561  13.687
 7907SOL    HW235601   2.213   4.466  13.673
 7908SOL     OW35602   0.743   3.421  13.774
 7908SOL    HW135603   0.715   3.455  13.689
 7908SOL    HW235604   0.672   3.445  13.834
 7909SOL     OW35605   0.641   1.169  16.807
 7909SOL    HW135606   0.591   1.250  16.805
 7909SOL    HW235607   0.638   1.136  16.717
 7910SOL     OW35608   4.579   3.311  13.697
 7910SOL    HW135609   4.616   3.262  13.770
 7910SOL    HW235610   4.623   3.396  13.701
 7911SOL     OW35611   1.536   3.225   1.180
 7911SOL    HW135612   1.621   3.223   1.224
 7911SOL    HW235613   1.472   3.210   1.250
 7912SOL     OW35614   4.773   1.016   1.829
 7912SOL    HW135615   4.743   1.032   1.740
 7912SOL    HW235616   4.726   0.938   1.857
 7913SOL     OW35617   1.726   1.764   1.912
 7913SOL    HW135618   1.733   1.827   1.983
 7913SOL    HW235619   1.741   1.815   1.833
 7914SOL     OW35620   3.092   0.355  19.028
 7914SOL    HW135621   3.038   0.382  18.954
 7914SOL    HW235622   3.107   0.435  19.078
 7915SOL     OW35623   3.728   4.087  17.888
 7915SOL    HW135624   3.789   4.142  17.838
 7915SOL    HW235625   3.673   4.045  17.822
 7916SOL     OW35626   4.343   1.291  19.221
 7916SOL    HW135627   4.369   1.225  19.157
 7916SOL    HW235628   4.278   1.247  19.276
 7917SOL     OW35629   0.594   2.363   3.661
 7917SOL    HW135630   0.582   2.268   3.667
 7917SOL    HW235631   0.680   2.379   3.701
 7918SOL     OW35632   3.398   2.770  21.226
 7918SOL    HW135633   3.424   2.704  21.162
 7918SOL    HW235634   3.355   2.720   0.039
 7919SOL     OW35635   1.600   1.626  19.268
 7919SOL    HW135636   1.641   1.578  19.196
 7919SOL    HW235637   1.599   1.564  19.341
 7920SOL     OW35638   1.341   0.273  17.651
 7920SOL    HW135639   1.333   0.231  17.737
 7920SOL    HW235640   1.282   0.223  17.595
 7921SOL     OW35641   0.079   3.319  15.800
 7921SOL    HW135642   4.790   3.327  15.853
 7921SOL    HW235643   0.109   3.230  15.816
 7922SOL     OW35644   0.524   2.950   2.470
 7922SOL    HW135645   0.595   2.914   2.524
 7922SOL    HW235646   0.466   2.876   2.455
 7923SOL     OW35647   1.061   4.279   5.332
 7923SOL    HW135648   1.017   4.294   5.249
 7923SOL    HW235649   1.101   4.363   5.354
 7924SOL     OW35650   1.957   0.182  14.775
 7924SOL    HW135651   1.949   0.097  14.731
 7924SOL    HW235652   2.030   0.171  14.835
 7925SOL     OW35653   3.017   4.103  15.314
 7925SOL    HW135654   2.936   4.148  15.289
 7925SOL    HW235655   3.033   4.130  15.404
 7926SOL     OW35656   4.521   1.160   2.134
 7926SOL    HW135657   4.430   1.149   2.163
 7926SOL    HW235658   4.572   1.166   2.215
 7927SOL     OW35659   1.472   2.991  15.395
 7927SOL    HW135660   1.405   3.055  15.371
 7927SOL    HW235661   1.508   2.962  15.311
 7928SOL     OW35662   2.210   1.244  20.546
 7928SOL    HW135663   2.252   1.225  20.630
 7928SOL    HW235664   2.273   1.298  20.499
 7929SOL     OW35665   3.174   2.660  19.206
 7929SOL    HW135666   3.225   2.609  19.270
 7929SOL    HW235667   3.184   2.612  19.124
 7930SOL     OW35668   0.114   4.465  15.534
 7930SOL    HW135669   0.076   4.378  15.520
 7930SOL    HW235670   0.208   4.448  15.543
 7931SOL     OW35671   1.114   1.825   0.839
 7931SOL    HW135672   1.165   1.905   0.827
 7931SOL    HW235673   1.077   1.807   0.753
 7932SOL     OW35674   1.993   0.014   3.528
 7932SOL    HW135675   1.931   0.002   3.456
 7932SOL    HW235676   2.057   0.077   3.494
 7933SOL     OW35677   2.565   2.294  17.442
 7933SOL    HW135678   2.649   2.328  17.410
 7933SOL    HW235679   2.521   2.370  17.480
 7934SOL     OW35680   0.086   3.579  16.447
 7934SOL    HW135681   0.015   3.585  16.383
 7934SOL    HW235682   0.042   3.576  16.532
 7935SOL     OW35683   0.885   0.507   3.502
 7935SOL    HW135684   0.946   0.480   3.433
 7935SOL    HW235685   0.935   0.570   3.554
 7936SOL     OW35686   0.784   3.166  13.732
 7936SOL    HW135687   0.776   3.261  13.733
 7936SOL    HW235688   0.818   3.143  13.818
 7937SOL     OW35689   3.642   2.533  20.204
 7937SOL    HW135690   3.677   2.617  20.233
 7937SOL    HW235691   3.577   2.509  20.270
 7938SOL     OW35692   3.556   2.365  18.090
 7938SOL    HW135693   3.597   2.329  18.011
 7938SOL    HW235694   3.515   2.289  18.132
 7939SOL     OW35695   1.309   4.188  18.218
 7939SOL    HW135696   1.356   4.259  18.261
 7939SOL    HW235697   1.346   4.185  18.130
 7940SOL     OW35698   3.552   2.432  16.087
 7940SOL    HW135699   3.493   2.370  16.044
 7940SOL    HW235700   3.497   2.478  16.150
 7941SOL     OW35701   2.143   1.408  20.213
 7941SOL    HW135702   2.149   1.466  20.137
 7941SOL    HW235703   2.213   1.344  20.200
 7942SOL     OW35704   0.082   3.670  20.508
 7942SOL    HW135705   0.050   3.595  20.558
 7942SOL    HW235706   0.070   3.745  20.566
 7943SOL     OW35707   3.571   4.664  14.980
 7943SOL    HW135708   3.552   4.575  15.010
 7943SOL    HW235709   3.485   4.704  14.965
 7944SOL     OW35710   0.132   4.757  16.321
 7944SOL    HW135711   0.149   4.690  16.387
 7944SOL    HW235712   0.191   0.039  16.343
 7945SOL     OW35713   0.441   3.319  15.679
 7945SOL    HW135714   0.349   3.331  15.702
 7945SOL    HW235715   0.439   3.271  15.596
 7946SOL     OW35716   0.708   2.057  20.262
 7946SOL    HW135717   0.662   2.132  20.225
 7946SOL    HW235718   0.741   2.009  20.186
 7947SOL     OW35719   2.685   3.098   4.965
 7947SOL    HW135720   2.598   3.120   4.999
 7947SOL    HW235721   2.733   3.181   4.965
 7948SOL     OW35722   1.149   0.616  21.197
 7948SOL    HW135723   1.128   0.592  21.107
 7948SOL    HW235724   1.175   0.708  21.192
 7949SOL     OW35725   0.629   4.180  19.492
 7949SOL    HW135726   0.718   4.146  19.483
 7949SOL    HW235727   0.603   4.205  19.403
 7950SOL     OW35728   3.995   3.181   3.944
 7950SOL    HW135729   3.983   3.141   4.030
 7950SOL    HW235730   4.023   3.109   3.888
 7951SOL     OW35731   0.024   0.401   0.996
 7951SOL    HW135732   0.013   0.307   0.984
 7951SOL    HW235733   0.075   0.429   0.920
 7952SOL     OW35734   2.722   2.459   0.616
 7952SOL    HW135735   2.713   2.376   0.569
 7952SOL    HW235736   2.647   2.460   0.676
 7953SOL     OW35737   2.854   1.918  19.834
 7953SOL    HW135738   2.866   1.928  19.740
 7953SOL    HW235739   2.809   1.998  19.861
 7954SOL     OW35740   2.489   2.950  19.839
 7954SOL    HW135741   2.476   2.961  19.933
 7954SOL    HW235742   2.481   2.856  19.825
 7955SOL     OW35743   4.597   0.254   5.284
 7955SOL    HW135744   4.609   0.202   5.364
 7955SOL    HW235745   4.553   0.334   5.313
 7956SOL     OW35746   1.396   0.294   7.326
 7956SOL    HW135747   1.425   0.351   7.397
 7956SOL    HW235748   1.302   0.284   7.339
 7957SOL     OW35749   2.875   0.902  16.712
 7957SOL    HW135750   2.923   0.864  16.639
 7957SOL    HW235751   2.819   0.969  16.672
 7958SOL     OW35752   4.730   4.257  15.432
 7958SOL    HW135753   4.672   4.325  15.466
 7958SOL    HW235754   4.671   4.188  15.401
 7959SOL     OW35755   4.748   4.496   1.942
 7959SOL    HW135756   4.775   4.543   2.021
 7959SOL    HW235757   4.658   4.468   1.960
 7960SOL     OW35758   3.957   1.242   4.866
 7960SOL    HW135759   4.043   1.202   4.854
 7960SOL    HW235760   3.954   1.267   4.958
 7961SOL     OW35761   3.339   2.259  14.722
 7961SOL    HW135762   3.391   2.242  14.643
 7961SOL    HW235763   3.267   2.197  14.717
 7962SOL     OW35764   0.978   1.438   5.609
 7962SOL    HW135765   0.909   1.422   5.545
 7962SOL    HW235766   1.046   1.485   5.561
 7963SOL     OW35767   0.492   4.506  21.099
 7963SOL    HW135768   0.571   4.466  21.134
 7963SOL    HW235769   0.436   4.432  21.075
 7964SOL     OW35770   3.657   1.210   9.375
 7964SOL    HW135771   3.572   1.170   9.396
 7964SOL    HW235772   3.643   1.304   9.387
 7965SOL     OW35773   3.914   4.658  20.495
 7965SOL    HW135774   3.994   4.622  20.533
 7965SOL    HW235775   3.912   4.749  20.526
 7966SOL     OW35776   1.892   0.268   0.568
 7966SOL    HW135777   1.961   0.298   0.509
 7966SOL    HW235778   1.894   0.173   0.560
 7967SOL     OW35779   2.273   3.890   6.919
 7967SOL    HW135780   2.316   3.824   6.973
 7967SOL    HW235781   2.190   3.907   6.963
 7968SOL     OW35782   0.977   3.349  15.644
 7968SOL    HW135783   0.932   3.393  15.572
 7968SOL    HW235784   0.908   3.300  15.689
 7969SOL     OW35785   0.586   2.685  18.167
 7969SOL    HW135786   0.544   2.636  18.096
 7969SOL    HW235787   0.678   2.661  18.161
 7970SOL     OW35788   2.862   2.767  12.892
 7970SOL    HW135789   2.951   2.801  12.892
 7970SOL    HW235790   2.846   2.741  12.983
 7971SOL     OW35791   2.055   3.415   0.105
 7971SOL    HW135792   2.096   3.332   0.131
 7971SOL    HW235793   1.969   3.390   0.070
 7972SOL     OW35794   0.979   1.952  15.921
 7972SOL    HW135795   0.897   2.001  15.915
 7972SOL    HW235796   0.952   1.862  15.941
 7973SOL     OW35797   4.513   1.966   2.096
 7973SOL    HW135798   4.550   1.882   2.070
 7973SOL    HW235799   4.420   1.959   2.075
 7974SOL     OW35800   0.667   1.681   5.048
 7974SOL    HW135801   0.657   1.650   5.138
 7974SOL    HW235802   0.710   1.608   5.003
 7975SOL     OW35803   3.699   0.065   4.543
 7975SOL    HW135804   3.714   0.012   4.465
 7975SOL    HW235805   3.724   0.154   4.518
 7976SOL     OW35806   0.851   0.952  11.350
 7976SOL    HW135807   0.781   0.985  11.406
 7976SOL    HW235808   0.868   0.864  11.383
 7977SOL     OW35809   4.697   4.355  16.007
 7977SOL    HW135810   4.714   4.365  16.101
 7977SOL    HW235811   4.774   4.310  15.973
 7978SOL     OW35812   4.189   1.096  19.380
 7978SOL    HW135813   4.193   1.126  19.471
 7978SOL    HW235814   4.098   1.110  19.354
 7979SOL     OW35815   3.925   1.550  19.339
 7979SOL    HW135816   3.985   1.606  19.388
 7979SOL    HW235817   3.982   1.495  19.285
 7980SOL     OW35818   0.527   2.400   1.427
 7980SOL    HW135819   0.609   2.381   1.381
 7980SOL    HW235820   0.517   2.495   1.420
 7981SOL     OW35821   3.947   1.177  18.658
 7981SOL    HW135822   3.910   1.090  18.644
 7981SOL    HW235823   4.021   1.162  18.717
 7982SOL     OW35824   3.997   0.779   4.821
 7982SOL    HW135825   4.050   0.825   4.886
 7982SOL    HW235826   3.948   0.848   4.777
 7983SOL     OW35827   4.372   1.431   4.157
 7983SOL    HW135828   4.388   1.339   4.180
 7983SOL    HW235829   4.368   1.431   4.061
 7984SOL     OW35830   4.449   3.387   2.501
 7984SOL    HW135831   4.489   3.314   2.547
 7984SOL    HW235832   4.506   3.402   2.425
 7985SOL     OW35833   2.840   1.168   5.732
 7985SOL    HW135834   2.833   1.237   5.666
 7985SOL    HW235835   2.812   1.210   5.813
 7986SOL     OW35836   2.997   0.955   5.809
 7986SOL    HW135837   2.967   0.877   5.763
 7986SOL    HW235838   2.940   1.025   5.778
 7987SOL     OW35839   3.750   0.483  18.838
 7987SOL    HW135840   3.797   0.403  18.812
 7987SOL    HW235841   3.697   0.505  18.762
 7988SOL     OW35842   1.525   1.140   8.737
 7988SOL    HW135843   1.510   1.062   8.790
 7988SOL    HW235844   1.442   1.154   8.690
 7989SOL     OW35845   3.170   2.147  19.126
 7989SOL    HW135846   3.105   2.118  19.190
 7989SOL    HW235847   3.197   2.067  19.081
 7990SOL     OW35848   1.500   3.496   1.619
 7990SOL    HW135849   1.568   3.485   1.685
 7990SOL    HW235850   1.442   3.563   1.655
 7991SOL     OW35851   4.001   0.830  16.363
 7991SOL    HW135852   4.070   0.843  16.298
 7991SOL    HW235853   3.954   0.914  16.365
 7992SOL     OW35854   2.184   0.890  20.526
 7992SOL    HW135855   2.130   0.814  20.548
 7992SOL    HW235856   2.220   0.918  20.610
 7993SOL     OW35857   2.270   4.776  19.805
 7993SOL    HW135858   2.343   0.018  19.858
 7993SOL    HW235859   2.198   0.046  19.827
 7994SOL     OW35860   3.317   4.517  14.186
 7994SOL    HW135861   3.230   4.479  14.175
 7994SOL    HW235862   3.323   4.583  14.117
 7995SOL     OW35863   0.069   4.702  13.998
 7995SOL    HW135864   0.115   4.622  13.974
 7995SOL    HW235865   0.120   4.772  13.958
 7996SOL     OW35866   0.087   3.872  13.026
 7996SOL    HW135867   0.032   3.796  13.007
 7996SOL    HW235868   0.170   3.835  13.057
 7997SOL     OW35869   2.374   2.027  15.564
 7997SOL    HW135870   2.330   1.970  15.627
 7997SOL    HW235871   2.441   1.972  15.524
 7998SOL     OW35872   0.061   4.499   1.690
 7998SOL    HW135873   0.006   4.477   1.765
 7998SOL    HW235874   0.000   4.500   1.616
 7999SOL     OW35875   3.207   1.832   2.590
 7999SOL    HW135876   3.140   1.814   2.656
 7999SOL    HW235877   3.260   1.902   2.629
 8000SOL     OW35878   1.478   0.868  19.634
 8000SOL    HW135879   1.497   0.833  19.547
 8000SOL    HW235880   1.548   0.931  19.651
 8001SOL     OW35881   0.484   2.544  16.200
 8001SOL    HW135882   0.389   2.539  16.189
 8001SOL    HW235883   0.501   2.500  16.283
 8002SOL     OW35884   2.461   1.168   4.623
 8002SOL    HW135885   2.427   1.090   4.667
 8002SOL    HW235886   2.418   1.241   4.666
 8003SOL     OW35887   3.398   1.078   6.894
 8003SOL    HW135888   3.473   1.106   6.947
 8003SOL    HW235889   3.337   1.040   6.957
 8004SOL     OW35890   1.867   0.685  17.591
 8004SOL    HW135891   1.898   0.595  17.599
 8004SOL    HW235892   1.784   0.678  17.543
 8005SOL     OW35893   3.916   3.761   6.625
 8005SOL    HW135894   4.001   3.801   6.606
 8005SOL    HW235895   3.925   3.670   6.595
 8006SOL     OW35896   3.696   3.106  19.885
 8006SOL    HW135897   3.654   3.024  19.912
 8006SOL    HW235898   3.764   3.120  19.951
 8007SOL     OW35899   2.606   0.688  17.316
 8007SOL    HW135900   2.661   0.766  17.305
 8007SOL    HW235901   2.663   0.625  17.359
 8008SOL     OW35902   2.127   3.422   2.239
 8008SOL    HW135903   2.173   3.474   2.305
 8008SOL    HW235904   2.195   3.400   2.175
 8009SOL     OW35905   2.455   2.849   4.468
 8009SOL    HW135906   2.444   2.793   4.545
 8009SOL    HW235907   2.521   2.914   4.495
 8010SOL     OW35908   0.023   1.345   1.550
 8010SOL    HW135909   0.090   1.323   1.485
 8010SOL    HW235910   4.736   1.371   1.499
 8011SOL     OW35911   4.456   4.280  15.871
 8011SOL    HW135912   4.547   4.305  15.888
 8011SOL    HW235913   4.405   4.337  15.928
 8012SOL     OW35914   0.036   2.391   4.841
 8012SOL    HW135915   0.092   2.448   4.789
 8012SOL    HW235916   0.036   2.430   4.928
 8013SOL     OW35917   1.913   1.738  19.019
 8013SOL    HW135918   1.857   1.701  18.951
 8013SOL    HW235919   1.915   1.832  18.999
 8014SOL     OW35920   1.159   2.677  20.852
 8014SOL    HW135921   1.162   2.602  20.911
 8014SOL    HW235922   1.148   2.753  20.910
 8015SOL     OW35923   3.354   2.168   0.524
 8015SOL    HW135924   3.372   2.083   0.565
 8015SOL    HW235925   3.277   2.153   0.469
 8016SOL     OW35926   0.286   0.373  18.424
 8016SOL    HW135927   0.209   0.386  18.480
 8016SOL    HW235928   0.361   0.387  18.482
 8017SOL     OW35929   1.966   2.627   2.304
 8017SOL    HW135930   1.915   2.574   2.365
 8017SOL    HW235931   1.915   2.708   2.295
 8018SOL     OW35932   4.376   2.241   4.378
 8018SOL    HW135933   4.341   2.300   4.311
 8018SOL    HW235934   4.450   2.289   4.416
 8019SOL     OW35935   3.017   3.361   3.886
 8019SOL    HW135936   3.081   3.298   3.919
 8019SOL    HW235937   2.994   3.329   3.799
 8020SOL     OW35938   2.104   1.513   2.736
 8020SOL    HW135939   2.137   1.569   2.666
 8020SOL    HW235940   2.178   1.457   2.759
 8021SOL     OW35941   2.527   2.702  15.157
 8021SOL    HW135942   2.471   2.705  15.235
 8021SOL    HW235943   2.510   2.785  15.113
 8022SOL     OW35944   0.572   2.439  16.477
 8022SOL    HW135945   0.660   2.475  16.471
 8022SOL    HW235946   0.576   2.357  16.428
 8023SOL     OW35947   1.297   1.998  18.759
 8023SOL    HW135948   1.326   1.997  18.668
 8023SOL    HW235949   1.355   2.061  18.802
 8024SOL     OW35950   1.633   3.017   0.533
 8024SOL    HW135951   1.727   3.010   0.551
 8024SOL    HW235952   1.623   2.982   0.444
 8025SOL     OW35953   0.966   3.983  16.686
 8025SOL    HW135954   0.997   4.060  16.639
 8025SOL    HW235955   0.938   3.922  16.617
 8026SOL     OW35956   1.435   1.260  14.989
 8026SOL    HW135957   1.411   1.350  14.966
 8026SOL    HW235958   1.355   1.224  15.028
 8027SOL     OW35959   2.585   0.142  12.823
 8027SOL    HW135960   2.491   0.157  12.811
 8027SOL    HW235961   2.600   0.157  12.916
 8028SOL     OW35962   0.151   1.176  14.056
 8028SOL    HW135963   0.105   1.095  14.078
 8028SOL    HW235964   0.131   1.191  13.964
 8029SOL     OW35965   4.736   4.597   2.205
 8029SOL    HW135966   4.655   4.636   2.238
 8029SOL    HW235967   4.769   4.546   2.279
 8030SOL     OW35968   1.979   4.316  20.947
 8030SOL    HW135969   2.040   4.326  21.020
 8030SOL    HW235970   1.893   4.331  20.986
 8031SOL     OW35971   4.121   2.026  20.049
 8031SOL    HW135972   4.096   1.981  19.968
 8031SOL    HW235973   4.213   2.003  20.061
 8032SOL     OW35974   1.636   3.469  19.466
 8032SOL    HW135975   1.665   3.398  19.409
 8032SOL    HW235976   1.625   3.428  19.552
 8033SOL     OW35977   1.072   1.835   3.480
 8033SOL    HW135978   1.093   1.892   3.554
 8033SOL    HW235979   1.014   1.887   3.425
 8034SOL     OW35980   0.974   0.826  20.881
 8034SOL    HW135981   0.915   0.784  20.944
 8034SOL    HW235982   1.052   0.846  20.932
 8035SOL     OW35983   1.822   2.923  12.835
 8035SOL    HW135984   1.800   2.995  12.894
 8035SOL    HW235985   1.750   2.861  12.845
 8036SOL     OW35986   3.972   1.638   2.103
 8036SOL    HW135987   3.936   1.553   2.077
 8036SOL    HW235988   3.989   1.629   2.197
 8037SOL     OW35989   1.143   3.296   1.760
 8037SOL    HW135990   1.062   3.333   1.726
 8037SOL    HW235991   1.184   3.368   1.808
 8038SOL     OW35992   3.523   2.509   2.400
 8038SOL    HW135993   3.610   2.547   2.408
 8038SOL    HW235994   3.514   2.452   2.477
 8039SOL     OW35995   1.895   4.316   0.547
 8039SOL    HW135996   1.914   4.276   0.462
 8039SOL    HW235997   1.981   4.339   0.582
 8040SOL     OW35998   1.072   0.872  14.691
 8040SOL    HW135999   1.002   0.866  14.755
 8040SOL    HW236000   1.076   0.965  14.668
 8041SOL     OW36001   4.787   3.267  16.454
 8041SOL    HW136002   0.037   3.322  16.386
 8041SOL    HW236003   4.736   3.328  16.507
 8042SOL     OW36004   1.186   1.220  15.087
 8042SOL    HW136005   1.211   1.187  15.173
 8042SOL    HW236006   1.097   1.188  15.074
 8043SOL     OW36007   1.934   3.092   4.674
 8043SOL    HW136008   1.847   3.055   4.656
 8043SOL    HW236009   1.942   3.164   4.612
 8044SOL     OW36010   2.794   3.436  17.284
 8044SOL    HW136011   2.818   3.429  17.192
 8044SOL    HW236012   2.717   3.494  17.284
 8045SOL     OW36013   0.892   1.368   2.510
 8045SOL    HW136014   0.911   1.393   2.419
 8045SOL    HW236015   0.936   1.435   2.562
 8046SOL     OW36016   3.347   3.507  20.651
 8046SOL    HW136017   3.364   3.579  20.590
 8046SOL    HW236018   3.263   3.529  20.691
 8047SOL     OW36019   4.514   0.381  13.764
 8047SOL    HW136020   4.573   0.324  13.813
 8047SOL    HW236021   4.487   0.448  13.827
 8048SOL     OW36022   1.550   0.296   5.125
 8048SOL    HW136023   1.560   0.255   5.039
 8048SOL    HW236024   1.456   0.314   5.132
 8049SOL     OW36025   2.105   3.623   1.970
 8049SOL    HW136026   2.135   3.620   1.879
 8049SOL    HW236027   2.012   3.600   1.966
 8050SOL     OW36028   1.229   4.704  19.269
 8050SOL    HW136029   1.280   4.685  19.347
 8050SOL    HW236030   1.276   4.775  19.226
 8051SOL     OW36031   4.590   4.026  15.381
 8051SOL    HW136032   4.602   3.944  15.429
 8051SOL    HW236033   4.622   4.007  15.293
 8052SOL     OW36034   1.108   2.656  17.180
 8052SOL    HW136035   1.143   2.567  17.182
 8052SOL    HW236036   1.014   2.646  17.193
 8053SOL     OW36037   3.614   4.736   1.271
 8053SOL    HW136038   3.668   4.724   1.349
 8053SOL    HW236039   3.624   0.039   1.249
 8054SOL     OW36040   3.874   3.444  15.604
 8054SOL    HW136041   3.865   3.350  15.588
 8054SOL    HW236042   3.969   3.459  15.608
 8055SOL     OW36043   2.746   2.845   3.867
 8055SOL    HW136044   2.761   2.864   3.774
 8055SOL    HW236045   2.652   2.860   3.879
 8056SOL     OW36046   2.652   0.018  20.389
 8056SOL    HW136047   2.735   4.774  20.424
 8056SOL    HW236048   2.627   4.744  20.322
 8057SOL     OW36049   1.498   3.178   6.761
 8057SOL    HW136050   1.444   3.245   6.803
 8057SOL    HW236051   1.435   3.115   6.726
 8058SOL     OW36052   2.009   3.154   5.470
 8058SOL    HW136053   1.948   3.180   5.539
 8058SOL    HW236054   2.095   3.153   5.513
 8059SOL     OW36055   1.351   0.182   3.768
 8059SOL    HW136056   1.257   0.172   3.782
 8059SOL    HW236057   1.378   0.101   3.724
 8060SOL     OW36058   3.557   1.048   5.177
 8060SOL    HW136059   3.580   1.125   5.229
 8060SOL    HW236060   3.604   1.061   5.094
 8061SOL     OW36061   1.374   3.554  18.202
 8061SOL    HW136062   1.385   3.488  18.133
 8061SOL    HW236063   1.422   3.631  18.170
 8062SOL     OW36064   2.071   3.237  16.344
 8062SOL    HW136065   2.156   3.210  16.309
 8062SOL    HW236066   2.093   3.295  16.417
 8063SOL     OW36067   3.239   2.287   5.716
 8063SOL    HW136068   3.283   2.284   5.631
 8063SOL    HW236069   3.286   2.354   5.765
 8064SOL     OW36070   1.084   0.653  17.862
 8064SOL    HW136071   1.033   0.677  17.785
 8064SOL    HW236072   1.039   0.696  17.935
 8065SOL     OW36073   3.907   0.404   1.642
 8065SOL    HW136074   3.972   0.424   1.575
 8065SOL    HW236075   3.879   0.315   1.623
 8066SOL     OW36076   1.294   2.016  16.950
 8066SOL    HW136077   1.339   2.061  16.878
 8066SOL    HW236078   1.289   2.081  17.020
 8067SOL     OW36079   4.409   0.385  14.993
 8067SOL    HW136080   4.344   0.359  15.059
 8067SOL    HW236081   4.459   0.305  14.976
 8068SOL     OW36082   4.082   4.503   3.578
 8068SOL    HW136083   3.992   4.486   3.604
 8068SOL    HW236084   4.087   4.475   3.487
 8069SOL     OW36085   2.750   4.773   2.979
 8069SOL    HW136086   2.687   4.702   2.963
 8069SOL    HW236087   2.816   4.762   2.910
 8070SOL     OW36088   2.477   3.945   3.260
 8070SOL    HW136089   2.430   3.958   3.343
 8070SOL    HW236090   2.523   4.028   3.246
 8071SOL     OW36091   0.997   2.052  18.415
 8071SOL    HW136092   1.039   1.981  18.366
 8071SOL    HW236093   0.914   2.067  18.369
 8072SOL     OW36094   0.016   4.479   5.488
 8072SOL    HW136095   0.087   4.492   5.425
 8072SOL    HW236096   4.734   4.534   5.456
 8073SOL     OW36097   4.131   0.108   2.644
 8073SOL    HW136098   4.110   0.018   2.669
 8073SOL    HW236099   4.047   0.145   2.616
 8074SOL     OW36100   2.427   3.048  17.204
 8074SOL    HW136101   2.446   2.996  17.282
 8074SOL    HW236102   2.474   3.003  17.134
 8075SOL     OW36103   3.630   1.876  18.996
 8075SOL    HW136104   3.625   1.799  18.940
 8075SOL    HW236105   3.688   1.850  19.067
 8076SOL     OW36106   3.877   4.679   0.276
 8076SOL    HW136107   3.831   4.644   0.352
 8076SOL    HW236108   3.872   4.609   0.211
 8077SOL     OW36109   0.959   4.217  16.509
 8077SOL    HW136110   0.917   4.294  16.547
 8077SOL    HW236111   1.022   4.253  16.446
 8078SOL     OW36112   2.440   0.194   3.544
 8078SOL    HW136113   2.386   0.266   3.577
 8078SOL    HW236114   2.475   0.226   3.461
 8079SOL     OW36115   4.104   2.428   6.337
 8079SOL    HW136116   4.011   2.438   6.319
 8079SOL    HW236117   4.132   2.514   6.368
 8080SOL     OW36118   2.627   1.221  18.052
 8080SOL    HW136119   2.677   1.299  18.076
 8080SOL    HW236120   2.545   1.230  18.100
 8081SOL     OW36121   4.480   4.459   1.985
 8081SOL    HW136122   4.467   4.451   2.080
 8081SOL    HW236123   4.455   4.373   1.950
 8082SOL     OW36124   0.761   1.714  18.204
 8082SOL    HW136125   0.772   1.709  18.109
 8082SOL    HW236126   0.667   1.729  18.216
 8083SOL     OW36127   3.597   3.618  17.556
 8083SOL    HW136128   3.670   3.667  17.594
 8083SOL    HW236129   3.562   3.677  17.489
 8084SOL     OW36130   3.031   2.560   3.149
 8084SOL    HW136131   3.039   2.655   3.137
 8084SOL    HW236132   2.937   2.544   3.157
 8085SOL     OW36133   2.386   3.857   5.106
 8085SOL    HW136134   2.442   3.812   5.170
 8085SOL    HW236135   2.297   3.846   5.140
 8086SOL     OW36136   1.847   2.806  17.350
 8086SOL    HW136137   1.763   2.831  17.387
 8086SOL    HW236138   1.876   2.733  17.404
 8087SOL     OW36139   1.644   2.019   3.439
 8087SOL    HW136140   1.661   1.931   3.473
 8087SOL    HW236141   1.710   2.031   3.371
 8088SOL     OW36142   0.332   3.186  15.201
 8088SOL    HW136143   0.319   3.261  15.143
 8088SOL    HW236144   0.244   3.156  15.222
 8089SOL     OW36145   2.254   2.966  18.356
 8089SOL    HW136146   2.209   2.901  18.302
 8089SOL    HW236147   2.240   3.049  18.311
 8090SOL     OW36148   2.144   1.657   2.480
 8090SOL    HW136149   2.167   1.735   2.430
 8090SOL    HW236150   2.069   1.620   2.433
 8091SOL     OW36151   1.557   2.676   3.239
 8091SOL    HW136152   1.505   2.729   3.300
 8091SOL    HW236153   1.631   2.646   3.291
 8092SOL     OW36154   1.123   3.674  17.196
 8092SOL    HW136155   1.055   3.625  17.150
 8092SOL    HW236156   1.189   3.693  17.129
 8093SOL     OW36157   1.252   0.057  20.112
 8093SOL    HW136158   1.175   0.067  20.055
 8093SOL    HW236159   1.227   4.779  20.175
 8094SOL     OW36160   3.861   0.244  16.610
 8094SOL    HW136161   3.914   0.290  16.675
 8094SOL    HW236162   3.908   0.257  16.527
 8095SOL     OW36163   1.458   1.546   5.360
 8095SOL    HW136164   1.550   1.571   5.353
 8095SOL    HW236165   1.413   1.604   5.298
 8096SOL     OW36166   4.359   0.792  17.802
 8096SOL    HW136167   4.271   0.816  17.772
 8096SOL    HW236168   4.352   0.700  17.826
 8097SOL     OW36169   0.981   4.723  18.492
 8097SOL    HW136170   0.905   4.716  18.549
 8097SOL    HW236171   0.946   4.709  18.404
 8098SOL     OW36172   3.927   1.078   2.488
 8098SOL    HW136173   3.922   1.005   2.427
 8098SOL    HW236174   3.940   1.155   2.433
 8099SOL     OW36175   2.422   1.639   4.547
 8099SOL    HW136176   2.461   1.712   4.596
 8099SOL    HW236177   2.476   1.631   4.468
 8100SOL     OW36178   1.270   0.349   3.493
 8100SOL    HW136179   1.246   0.305   3.575
 8100SOL    HW236180   1.191   0.343   3.439
 8101SOL     OW36181   3.909   2.460  16.811
 8101SOL    HW136182   3.863   2.460  16.727
 8101SOL    HW236183   3.842   2.436  16.875
 8102SOL     OW36184   1.924   2.187  17.832
 8102SOL    HW136185   1.987   2.198  17.761
 8102SOL    HW236186   1.947   2.255  17.895
 8103SOL     OW36187   3.169   3.789  20.322
 8103SOL    HW136188   3.115   3.814  20.397
 8103SOL    HW236189   3.259   3.795  20.354
 8104SOL     OW36190   4.784   1.893   6.305
 8104SOL    HW136191   0.038   1.978   6.298
 8104SOL    HW236192   4.698   1.914   6.342
 8105SOL     OW36193   4.551   2.202   2.231
 8105SOL    HW136194   4.527   2.133   2.169
 8105SOL    HW236195   4.586   2.156   2.307
 8106SOL     OW36196   0.233   3.353  18.015
 8106SOL    HW136197   0.286   3.420  17.972
 8106SOL    HW236198   0.293   3.279  18.026
 8107SOL     OW36199   0.635   1.032   5.335
 8107SOL    HW136200   0.584   1.105   5.299
 8107SOL    HW236201   0.570   0.964   5.353
 8108SOL     OW36202   2.472   3.340   1.902
 8108SOL    HW136203   2.532   3.415   1.903
 8108SOL    HW236204   2.481   3.303   1.814
 8109SOL     OW36205   2.368   1.125  19.037
 8109SOL    HW136206   2.276   1.138  19.014
 8109SOL    HW236207   2.403   1.214  19.046
 8110SOL     OW36208   2.006   0.189   4.319
 8110SOL    HW136209   1.926   0.187   4.266
 8110SOL    HW236210   1.976   0.170   4.408
 8111SOL     OW36211   2.925   0.239   1.393
 8111SOL    HW136212   3.017   0.266   1.398
 8111SOL    HW236213   2.919   0.190   1.311
 8112SOL     OW36214   0.188   2.359   5.933
 8112SOL    HW136215   0.221   2.432   5.880
 8112SOL    HW236216   0.255   2.291   5.925
 8113SOL     OW36217   3.086   1.499   1.067
 8113SOL    HW136218   3.138   1.458   1.136
 8113SOL    HW236219   3.128   1.584   1.052
 8114SOL     OW36220   0.325   1.348  20.725
 8114SOL    HW136221   0.295   1.332  20.636
 8114SOL    HW236222   0.289   1.275  20.776
 8115SOL     OW36223   1.794   0.757   4.867
 8115SOL    HW136224   1.793   0.737   4.773
 8115SOL    HW236225   1.720   0.817   4.880
 8116SOL     OW36226   1.865   1.793   3.042
 8116SOL    HW136227   1.921   1.717   3.059
 8116SOL    HW236228   1.776   1.760   3.052
 8117SOL     OW36229   2.457   2.736  14.595
 8117SOL    HW136230   2.458   2.760  14.688
 8117SOL    HW236231   2.538   2.772  14.560
 8118SOL     OW36232   0.629   1.262  16.061
 8118SOL    HW136233   0.698   1.214  16.015
 8118SOL    HW236234   0.676   1.324  16.117
 8119SOL     OW36235   2.813   0.956  18.974
 8119SOL    HW136236   2.902   0.989  18.960
 8119SOL    HW236237   2.785   0.996  19.056
 8120SOL     OW36238   4.332   4.711   1.475
 8120SOL    HW136239   4.314   4.666   1.558
 8120SOL    HW236240   4.417   4.752   1.487
 8121SOL     OW36241   0.962   1.269  15.780
 8121SOL    HW136242   0.981   1.354  15.819
 8121SOL    HW236243   0.918   1.289  15.697
 8122SOL     OW36244   4.726   2.360   5.407
 8122SOL    HW136245   4.690   2.277   5.438
 8122SOL    HW236246   4.673   2.427   5.449
 8123SOL     OW36247   3.611   1.023  18.909
 8123SOL    HW136248   3.673   0.967  18.862
 8123SOL    HW236249   3.660   1.102  18.929
 8124SOL     OW36250   3.180   2.013   3.456
 8124SOL    HW136251   3.138   1.969   3.383
 8124SOL    HW236252   3.259   2.052   3.418
 8125SOL     OW36253   1.783   0.350   8.367
 8125SOL    HW136254   1.843   0.393   8.428
 8125SOL    HW236255   1.696   0.376   8.397
 8126SOL     OW36256   2.041   1.762   5.096
 8126SOL    HW136257   2.128   1.799   5.107
 8126SOL    HW236258   2.032   1.699   5.167
 8127SOL     OW36259   3.551   3.792  16.504
 8127SOL    HW136260   3.585   3.712  16.465
 8127SOL    HW236261   3.480   3.819  16.446
 8128SOL     OW36262   1.782   4.408   2.187
 8128SOL    HW136263   1.755   4.419   2.096
 8128SOL    HW236264   1.801   4.497   2.217
 8129SOL     OW36265   3.845   2.206   6.197
 8129SOL    HW136266   3.888   2.257   6.128
 8129SOL    HW236267   3.861   2.115   6.172
 8130SOL     OW36268   2.722   3.163   2.476
 8130SOL    HW136269   2.772   3.223   2.531
 8130SOL    HW236270   2.782   3.090   2.459
 8131SOL     OW36271   3.312   3.005  19.311
 8131SOL    HW136272   3.285   3.015  19.220
 8131SOL    HW236273   3.407   2.995  19.307
 8132SOL     OW36274   3.411   3.447  18.366
 8132SOL    HW136275   3.332   3.398  18.390
 8132SOL    HW236276   3.455   3.392  18.301
 8133SOL     OW36277   1.113   2.997   3.235
 8133SOL    HW136278   1.182   3.046   3.280
 8133SOL    HW236279   1.107   2.915   3.283
 8134SOL     OW36280   2.790   4.229  15.271
 8134SOL    HW136281   2.733   4.187  15.336
 8134SOL    HW236282   2.733   4.292  15.226
 8135SOL     OW36283   2.973   0.429   1.080
 8135SOL    HW136284   2.967   0.414   0.986
 8135SOL    HW236285   2.986   0.523   1.089
 8136SOL     OW36286   3.687   4.781  18.777
 8136SOL    HW136287   3.745   0.067  18.787
 8136SOL    HW236288   3.744   4.706  18.794
 8137SOL     OW36289   2.890   0.567  15.864
 8137SOL    HW136290   2.947   0.492  15.845
 8137SOL    HW236291   2.835   0.576  15.786
 8138SOL     OW36292   0.131   3.794  19.908
 8138SOL    HW136293   0.204   3.847  19.876
 8138SOL    HW236294   0.156   3.704  19.887
 8139SOL     OW36295   0.167   4.554  20.705
 8139SOL    HW136296   0.192   4.626  20.762
 8139SOL    HW236297   0.081   4.579  20.672
 8140SOL     OW36298   2.690   1.620  17.947
 8140SOL    HW136299   2.633   1.691  17.918
 8140SOL    HW236300   2.653   1.593  18.031
 8141SOL     OW36301   0.144   1.058  19.649
 8141SOL    HW136302   0.103   1.036  19.733
 8141SOL    HW236303   0.228   1.012  19.650
 8142SOL     OW36304   4.402   0.588  19.766
 8142SOL    HW136305   4.473   0.608  19.705
 8142SOL    HW236306   4.419   0.498  19.794
 8143SOL     OW36307   3.641   2.571   7.358
 8143SOL    HW136308   3.668   2.594   7.447
 8143SOL    HW236309   3.599   2.650   7.324
 8144SOL     OW36310   1.703   1.515   0.246
 8144SOL    HW136311   1.747   1.587   0.200
 8144SOL    HW236312   1.649   1.474   0.179
 8145SOL     OW36313   0.731   0.056  21.144
 8145SOL    HW136314   0.745   0.106  21.064
 8145SOL    HW236315   0.742   4.754  21.117
 8146SOL     OW36316   2.542   0.481   8.736
 8146SOL    HW136317   2.597   0.405   8.716
 8146SOL    HW236318   2.546   0.535   8.657
 8147SOL     OW36319   2.121   4.610   6.529
 8147SOL    HW136320   2.200   4.617   6.582
 8147SOL    HW236321   2.052   4.591   6.592
 8148SOL     OW36322   2.373   4.081   4.882
 8148SOL    HW136323   2.412   4.050   4.964
 8148SOL    HW236324   2.289   4.118   4.908
 8149SOL     OW36325   2.693   0.222   2.005
 8149SOL    HW136326   2.657   0.187   1.923
 8149SOL    HW236327   2.784   0.192   2.005
 8150SOL     OW36328   3.576   0.282   1.286
 8150SOL    HW136329   3.583   0.377   1.287
 8150SOL    HW236330   3.646   0.253   1.227
 8151SOL     OW36331   4.286   3.621   6.664
 8151SOL    HW136332   4.246   3.549   6.713
 8151SOL    HW236333   4.362   3.582   6.621
 8152SOL     OW36334   3.346   2.798  16.279
 8152SOL    HW136335   3.394   2.817  16.198
 8152SOL    HW236336   3.405   2.826  16.349
 8153SOL     OW36337   2.609   2.897   5.714
 8153SOL    HW136338   2.678   2.897   5.780
 8153SOL    HW236339   2.540   2.842   5.751
 8154SOL     OW36340   1.583   2.167  19.707
 8154SOL    HW136341   1.582   2.138  19.616
 8154SOL    HW236342   1.509   2.122  19.748
 8155SOL     OW36343   4.145   1.770   4.386
 8155SOL    HW136344   4.200   1.848   4.391
 8155SOL    HW236345   4.091   1.774   4.465
 8156SOL     OW36346   4.466   1.527   6.851
 8156SOL    HW136347   4.546   1.567   6.885
 8156SOL    HW236348   4.496   1.449   6.805
 8157SOL     OW36349   0.824   0.518   0.961
 8157SOL    HW136350   0.788   0.434   0.990
 8157SOL    HW236351   0.902   0.495   0.911
 8158SOL     OW36352   3.292   2.644   1.222
 8158SOL    HW136353   3.327   2.609   1.140
 8158SOL    HW236354   3.197   2.644   1.209
 8159SOL     OW36355   0.674   2.856   5.941
 8159SOL    HW136356   0.607   2.803   5.984
 8159SOL    HW236357   0.709   2.911   6.011
 8160SOL     OW36358   2.531   2.832  15.887
 8160SOL    HW136359   2.605   2.875  15.929
 8160SOL    HW236360   2.518   2.751  15.936
 8161SOL     OW36361   3.053   3.599   1.129
 8161SOL    HW136362   3.099   3.607   1.212
 8161SOL    HW236363   3.091   3.667   1.074
 8162SOL     OW36364   2.861   4.278  16.851
 8162SOL    HW136365   2.778   4.246  16.816
 8162SOL    HW236366   2.851   4.272  16.946
 8163SOL     OW36367   2.117   3.479   4.102
 8163SOL    HW136368   2.107   3.571   4.078
 8163SOL    HW236369   2.039   3.459   4.154
 8164SOL     OW36370   2.106   2.719   8.932
 8164SOL    HW136371   2.014   2.731   8.910
 8164SOL    HW236372   2.152   2.736   8.850
 8165SOL     OW36373   0.260   0.175   5.793
 8165SOL    HW136374   0.230   0.248   5.848
 8165SOL    HW236375   0.185   0.155   5.737
 8166SOL     OW36376   4.008   3.120  18.114
 8166SOL    HW136377   3.959   3.085  18.039
 8166SOL    HW236378   3.977   3.210  18.122
 8167SOL     OW36379   4.091   1.161   3.329
 8167SOL    HW136380   4.036   1.176   3.252
 8167SOL    HW236381   4.180   1.181   3.300
 8168SOL     OW36382   3.567   0.982   6.338
 8168SOL    HW136383   3.505   0.996   6.266
 8168SOL    HW236384   3.542   1.045   6.405
 8169SOL     OW36385   1.542   3.019  12.743
 8169SOL    HW136386   1.605   2.992  12.676
 8169SOL    HW236387   1.538   2.945  12.804
 8170SOL     OW36388   1.555   4.603  20.883
 8170SOL    HW136389   1.587   4.647  20.961
 8170SOL    HW236390   1.503   4.530  20.917
 8171SOL     OW36391   0.270   1.236   6.027
 8171SOL    HW136392   0.327   1.249   5.951
 8171SOL    HW236393   0.308   1.161   6.073
 8172SOL     OW36394   1.886   3.673   5.935
 8172SOL    HW136395   1.960   3.643   5.989
 8172SOL    HW236396   1.827   3.715   5.997
 8173SOL     OW36397   0.902   3.050  16.473
 8173SOL    HW136398   0.940   2.971  16.510
 8173SOL    HW236399   0.847   3.019  16.401
 8174SOL     OW36400   0.012   0.589  16.099
 8174SOL    HW136401   4.753   0.586  16.017
 8174SOL    HW236402   0.086   0.648  16.081
 8175SOL     OW36403   0.345   4.522  15.998
 8175SOL    HW136404   0.348   4.525  16.094
 8175SOL    HW236405   0.343   4.614  15.972
 8176SOL     OW36406   3.384   3.946   4.162
 8176SOL    HW136407   3.296   3.933   4.197
 8176SOL    HW236408   3.439   3.959   4.239
 8177SOL     OW36409   1.559   0.828  14.063
 8177SOL    HW136410   1.464   0.822  14.059
 8177SOL    HW236411   1.576   0.918  14.090
 8178SOL     OW36412   1.365   3.662  15.482
 8178SOL    HW136413   1.384   3.570  15.466
 8178SOL    HW236414   1.424   3.710  15.424
 8179SOL     OW36415   3.169   3.262  20.656
 8179SOL    HW136416   3.104   3.329  20.636
 8179SOL    HW236417   3.160   3.247  20.750
 8180SOL     OW36418   4.296   3.819   4.204
 8180SOL    HW136419   4.247   3.896   4.175
 8180SOL    HW236420   4.289   3.757   4.131
 8181SOL     OW36421   2.245   4.355   4.289
 8181SOL    HW136422   2.307   4.351   4.362
 8181SOL    HW236423   2.216   4.446   4.287
 8182SOL     OW36424   1.438   2.753  17.911
 8182SOL    HW136425   1.464   2.795  17.829
 8182SOL    HW236426   1.433   2.660  17.890
 8183SOL     OW36427   1.474   2.981   1.521
 8183SOL    HW136428   1.441   3.037   1.591
 8183SOL    HW236429   1.454   3.029   1.441
 8184SOL     OW36430   3.766   4.718   4.290
 8184SOL    HW136431   3.805   4.636   4.258
 8184SOL    HW236432   3.765   4.775   4.214
 8185SOL     OW36433   3.801   1.889  17.489
 8185SOL    HW136434   3.750   1.963  17.457
 8185SOL    HW236435   3.738   1.817  17.492
 8186SOL     OW36436   0.547   0.563   4.192
 8186SOL    HW136437   0.499   0.507   4.253
 8186SOL    HW236438   0.497   0.557   4.110
 8187SOL     OW36439   0.082   3.255   0.183
 8187SOL    HW136440   0.078   3.350   0.195
 8187SOL    HW236441   0.032   3.220   0.257
 8188SOL     OW36442   4.357   0.230   2.481
 8188SOL    HW136443   4.278   0.213   2.533
 8188SOL    HW236444   4.383   0.144   2.447
 8189SOL     OW36445   4.743   4.067   2.814
 8189SOL    HW136446   4.698   4.054   2.898
 8189SOL    HW236447   4.760   3.979   2.782
 8190SOL     OW36448   3.016   2.637   5.618
 8190SOL    HW136449   2.986   2.577   5.687
 8190SOL    HW236450   2.991   2.724   5.649
 8191SOL     OW36451   4.726   2.528  20.677
 8191SOL    HW136452   4.716   2.495  20.588
 8191SOL    HW236453   0.024   2.566  20.679
 8192SOL     OW36454   2.858   4.301  17.494
 8192SOL    HW136455   2.827   4.362  17.428
 8192SOL    HW236456   2.810   4.325  17.573
 8193SOL     OW36457   1.859   0.289   3.888
 8193SOL    HW136458   1.878   0.376   3.923
 8193SOL    HW236459   1.935   0.267   3.834
 8194SOL     OW36460   1.609   4.040   3.589
 8194SOL    HW136461   1.558   4.115   3.621
 8194SOL    HW236462   1.594   4.040   3.494
 8195SOL     OW36463   4.383   1.344  19.667
 8195SOL    HW136464   4.410   1.436  19.666
 8195SOL    HW236465   4.457   1.297  19.705
 8196SOL     OW36466   2.799   4.682   7.429
 8196SOL    HW136467   2.715   4.694   7.385
 8196SOL    HW236468   2.831   4.771   7.443
 8197SOL     OW36469   4.243   3.894  16.517
 8197SOL    HW136470   4.228   3.948  16.595
 8197SOL    HW236471   4.308   3.830  16.545
 8198SOL     OW36472   2.677   4.689  17.898
 8198SOL    HW136473   2.612   4.626  17.930
 8198SOL    HW236474   2.757   4.669  17.947
 8199SOL     OW36475   4.703   2.698   0.590
 8199SOL    HW136476   4.618   2.709   0.633
 8199SOL    HW236477   4.694   2.745   0.507
 8200SOL     OW36478   3.152   2.603  15.859
 8200SOL    HW136479   3.059   2.609  15.836
 8200SOL    HW236480   3.155   2.543  15.933
 8201SOL     OW36481   4.134   1.300  15.898
 8201SOL    HW136482   4.224   1.333  15.894
 8201SOL    HW236483   4.091   1.357  15.962
 8202SOL     OW36484   3.929   1.883   9.348
 8202SOL    HW136485   4.000   1.851   9.292
 8202SOL    HW236486   3.920   1.817   9.416
 8203SOL     OW36487   0.824   3.385  20.976
 8203SOL    HW136488   0.854   3.394  21.067
 8203SOL    HW236489   0.767   3.308  20.977
 8204SOL     OW36490   0.651   0.064  13.446
 8204SOL    HW136491   0.664   0.002  13.374
 8204SOL    HW236492   0.652   0.150  13.404
 8205SOL     OW36493   0.365   0.426  16.458
 8205SOL    HW136494   0.283   0.460  16.494
 8205SOL    HW236495   0.433   0.473  16.505
 8206SOL     OW36496   2.635   4.784   3.238
 8206SOL    HW136497   2.634   0.082   3.277
 8206SOL    HW236498   2.653   0.010   3.145
 8207SOL     OW36499   3.680   3.769   6.163
 8207SOL    HW136500   3.753   3.790   6.221
 8207SOL    HW236501   3.637   3.694   6.205
 8208SOL     OW36502   3.970   3.784  15.822
 8208SOL    HW136503   3.984   3.877  15.838
 8208SOL    HW236504   3.926   3.753  15.901
 8209SOL     OW36505   0.578   0.470  18.821
 8209SOL    HW136506   0.670   0.495  18.813
 8209SOL    HW236507   0.573   0.420  18.903
 8210SOL     OW36508   3.329   0.731   6.921
 8210SOL    HW136509   3.343   0.759   7.011
 8210SOL    HW236510   3.234   0.726   6.911
 8211SOL     OW36511   4.643   0.757   3.544
 8211SOL    HW136512   4.666   0.677   3.496
 8211SOL    HW236513   4.592   0.809   3.482
 8212SOL     OW36514   2.661   4.405  13.543
 8212SOL    HW136515   2.607   4.331  13.572
 8212SOL    HW236516   2.607   4.482  13.559
 8213SOL     OW36517   2.159   1.484   7.130
 8213SOL    HW136518   2.097   1.548   7.165
 8213SOL    HW236519   2.219   1.467   7.203
 8214SOL     OW36520   3.623   1.760  15.152
 8214SOL    HW136521   3.574   1.839  15.127
 8214SOL    HW236522   3.595   1.694  15.088
 8215SOL     OW36523   4.129   1.932  17.489
 8215SOL    HW136524   4.161   2.022  17.494
 8215SOL    HW236525   4.102   1.911  17.579
 8216SOL     OW36526   1.857   3.752  12.833
 8216SOL    HW136527   1.815   3.827  12.791
 8216SOL    HW236528   1.786   3.688  12.843
 8217SOL     OW36529   0.162   3.032   0.458
 8217SOL    HW136530   0.073   3.067   0.451
 8217SOL    HW236531   0.198   3.073   0.537
 8218SOL     OW36532   0.844   3.085  13.992
 8218SOL    HW136533   0.894   3.021  14.042
 8218SOL    HW236534   0.808   3.144  14.058
 8219SOL     OW36535   3.937   1.234  19.430
 8219SOL    HW136536   3.856   1.274  19.399
 8219SOL    HW236537   3.924   1.223  19.524
 8220SOL     OW36538   2.893   2.366   0.939
 8220SOL    HW136539   2.809   2.404   0.964
 8220SOL    HW236540   2.878   2.330   0.851
 8221SOL     OW36541   0.913   4.722   0.246
 8221SOL    HW136542   0.845   4.751   0.185
 8221SOL    HW236543   0.894   4.629   0.261
 8222SOL     OW36544   1.870   2.495  18.218
 8222SOL    HW136545   1.836   2.542  18.294
 8222SOL    HW236546   1.797   2.439  18.190
 8223SOL     OW36547   2.044   1.608   4.871
 8223SOL    HW136548   2.138   1.588   4.874
 8223SOL    HW236549   2.027   1.659   4.950
 8224SOL     OW36550   4.274   2.772  17.044
 8224SOL    HW136551   4.237   2.705  16.986
 8224SOL    HW236552   4.369   2.765  17.031
 8225SOL     OW36553   1.386   2.037  21.228
 8225SOL    HW136554   1.353   2.117  21.186
 8225SOL    HW236555   1.462   2.066   0.021
 8226SOL     OW36556   4.527   4.787  18.121
 8226SOL    HW136557   4.538   0.088  18.150
 8226SOL    HW236558   4.604   4.770  18.066
 8227SOL     OW36559   1.390   3.205   0.210
 8227SOL    HW136560   1.350   3.252   0.283
 8227SOL    HW236561   1.407   3.273   0.144
 8228SOL     OW36562   3.212   4.779   4.247
 8228SOL    HW136563   3.207   4.688   4.276
 8228SOL    HW236564   3.210   0.040   4.328
 8229SOL     OW36565   2.756   0.522  21.145
 8229SOL    HW136566   2.688   0.478  21.196
 8229SOL    HW236567   2.717   0.532  21.058
 8230SOL     OW36568   2.994   4.128   8.121
 8230SOL    HW136569   2.986   4.223   8.124
 8230SOL    HW236570   2.917   4.096   8.169
 8231SOL     OW36571   3.752   2.450   5.840
 8231SOL    HW136572   3.658   2.469   5.834
 8231SOL    HW236573   3.775   2.415   5.754
 8232SOL     OW36574   0.221   4.645  18.223
 8232SOL    HW136575   0.250   4.692  18.301
 8232SOL    HW236576   0.236   4.707  18.151
 8233SOL     OW36577   4.658   2.038  17.803
 8233SOL    HW136578   4.694   1.957  17.766
 8233SOL    HW236579   4.668   2.103  17.734
 8234SOL     OW36580   4.779   2.675  12.243
 8234SOL    HW136581   0.060   2.730  12.277
 8234SOL    HW236582   4.753   2.622  12.318
 8235SOL     OW36583   3.549   4.781  14.378
 8235SOL    HW136584   3.627   4.741  14.339
 8235SOL    HW236585   3.533   0.070  14.326
 8236SOL     OW36586   1.330   3.544  20.169
 8236SOL    HW136587   1.243   3.553  20.131
 8236SOL    HW236588   1.332   3.609  20.239
 8237SOL     OW36589   3.900   2.165  20.884
 8237SOL    HW136590   3.926   2.137  20.796
 8237SOL    HW236591   3.922   2.258  20.886
 8238SOL     OW36592   1.952   4.733   6.127
 8238SOL    HW136593   1.972   0.019   6.072
 8238SOL    HW236594   1.898   4.769   6.198
 8239SOL     OW36595   3.367   4.286   1.756
 8239SOL    HW136596   3.279   4.321   1.769
 8239SOL    HW236597   3.353   4.194   1.733
 8240SOL     OW36598   2.634   2.617   2.880
 8240SOL    HW136599   2.655   2.575   2.797
 8240SOL    HW236600   2.618   2.709   2.857
 8241SOL     OW36601   0.190   0.102   0.066
 8241SOL    HW136602   0.122   0.034   0.067
 8241SOL    HW236603   0.265   0.060   0.025
 8242SOL     OW36604   1.438   0.414   6.207
 8242SOL    HW136605   1.519   0.403   6.157
 8242SOL    HW236606   1.461   0.390   6.297
 8243SOL     OW36607   3.673   1.117   4.915
 8243SOL    HW136608   3.608   1.146   4.851
 8243SOL    HW236609   3.757   1.149   4.881
 8244SOL     OW36610   0.118   0.221   1.993
 8244SOL    HW136611   0.120   0.140   2.044
 8244SOL    HW236612   0.165   0.285   2.047
 8245SOL     OW36613   2.521   0.275  19.583
 8245SOL    HW136614   2.594   0.337  19.588
 8245SOL    HW236615   2.546   0.204  19.643
 8246SOL     OW36616   3.794   3.610   8.778
 8246SOL    HW136617   3.845   3.691   8.786
 8246SOL    HW236618   3.707   3.639   8.750
 8247SOL     OW36619   4.353   3.050   0.794
 8247SOL    HW136620   4.425   3.113   0.783
 8247SOL    HW236621   4.327   3.060   0.886
 8248SOL     OW36622   0.614   0.387  14.642
 8248SOL    HW136623   0.548   0.343  14.696
 8248SOL    HW236624   0.625   0.330  14.566
 8249SOL     OW36625   1.543   1.557   1.922
 8249SOL    HW136626   1.596   1.635   1.937
 8249SOL    HW236627   1.475   1.586   1.860
 8250SOL     OW36628   3.111   0.188  16.457
 8250SOL    HW136629   3.053   0.262  16.440
 8250SOL    HW236630   3.085   0.156  16.544
 8251SOL     OW36631   1.348   0.699  18.450
 8251SOL    HW136632   1.353   0.611  18.412
 8251SOL    HW236633   1.306   0.686  18.535
 8252SOL     OW36634   1.837   0.165  20.407
 8252SOL    HW136635   1.880   0.192  20.488
 8252SOL    HW236636   1.804   0.246  20.369
 8253SOL     OW36637   2.727   2.397   0.074
 8253SOL    HW136638   2.795   2.399   0.007
 8253SOL    HW236639   2.656   2.450   0.037
 8254SOL     OW36640   4.138   0.200   5.744
 8254SOL    HW136641   4.139   0.108   5.772
 8254SOL    HW236642   4.211   0.208   5.682
 8255SOL     OW36643   0.021   1.226   2.579
 8255SOL    HW136644   0.090   1.276   2.623
 8255SOL    HW236645   0.043   1.232   2.486
 8256SOL     OW36646   3.460   3.666  15.684
 8256SOL    HW136647   3.554   3.683  15.673
 8256SOL    HW236648   3.419   3.752  15.677
 8257SOL     OW36649   2.758   2.644   4.792
 8257SOL    HW136650   2.772   2.738   4.778
 8257SOL    HW236651   2.721   2.638   4.880
 8258SOL     OW36652   1.397   4.076   5.935
 8258SOL    HW136653   1.415   4.160   5.893
 8258SOL    HW236654   1.366   4.100   6.023
 8259SOL     OW36655   3.825   2.740   4.199
 8259SOL    HW136656   3.779   2.750   4.282
 8259SOL    HW236657   3.759   2.708   4.138
 8260SOL     OW36658   0.819   0.177  19.799
 8260SOL    HW136659   0.778   0.138  19.876
 8260SOL    HW236660   0.798   0.118  19.727
 8261SOL     OW36661   1.150   4.551   5.346
 8261SOL    HW136662   1.202   4.552   5.266
 8261SOL    HW236663   1.099   4.632   5.342
 8262SOL     OW36664   2.600   3.372  20.716
 8262SOL    HW136665   2.521   3.412  20.679
 8262SOL    HW236666   2.653   3.446  20.746
 8263SOL     OW36667   0.900   0.290  17.902
 8263SOL    HW136668   0.943   0.364  17.859
 8263SOL    HW236669   0.895   0.222  17.834
 8264SOL     OW36670   0.766   2.230   2.727
 8264SOL    HW136671   0.696   2.209   2.665
 8264SOL    HW236672   0.781   2.148   2.775
 8265SOL     OW36673   3.906   4.233  16.827
 8265SOL    HW136674   3.960   4.305  16.861
 8265SOL    HW236675   3.899   4.171  16.900
 8266SOL     OW36676   1.447   1.847   4.051
 8266SOL    HW136677   1.503   1.875   4.124
 8266SOL    HW236678   1.393   1.777   4.088
 8267SOL     OW36679   4.310   1.716  10.560
 8267SOL    HW136680   4.315   1.698  10.466
 8267SOL    HW236681   4.289   1.632  10.600
 8268SOL     OW36682   1.032   3.702   5.407
 8268SOL    HW136683   0.978   3.692   5.328
 8268SOL    HW236684   0.972   3.738   5.472
 8269SOL     OW36685   4.408   1.349  15.938
 8269SOL    HW136686   4.465   1.275  15.957
 8269SOL    HW236687   4.463   1.411  15.890
 8270SOL     OW36688   4.124   0.234   3.492
 8270SOL    HW136689   4.105   0.323   3.523
 8270SOL    HW236690   4.186   0.246   3.421
 8271SOL     OW36691   4.493   2.450  15.982
 8271SOL    HW136692   4.554   2.469  15.911
 8271SOL    HW236693   4.549   2.422  16.055
 8272SOL     OW36694   3.846   2.528   8.255
 8272SOL    HW136695   3.843   2.535   8.160
 8272SOL    HW236696   3.939   2.531   8.276
 8273SOL     OW36697   3.618   1.968   2.632
 8273SOL    HW136698   3.710   1.981   2.654
 8273SOL    HW236699   3.618   1.945   2.539
 8274SOL     OW36700   2.414   2.251   0.024
 8274SOL    HW136701   2.486   2.197   0.056
 8274SOL    HW236702   2.433   2.338   0.058
 8275SOL     OW36703   0.018   0.987   5.766
 8275SOL    HW136704   4.764   0.918   5.716
 8275SOL    HW236705   4.762   0.988   5.850
 8276SOL     OW36706   4.485   1.503  16.783
 8276SOL    HW136707   4.392   1.509  16.804
 8276SOL    HW236708   4.488   1.442  16.709
 8277SOL     OW36709   4.668   3.176  17.856
 8277SOL    HW136710   4.718   3.099  17.883
 8277SOL    HW236711   4.597   3.182  17.920
 8278SOL     OW36712   3.123   3.782   0.968
 8278SOL    HW136713   3.048   3.775   0.909
 8278SOL    HW236714   3.155   3.871   0.955
 8279SOL     OW36715   0.855   3.864   2.191
 8279SOL    HW136716   0.805   3.782   2.189
 8279SOL    HW236717   0.910   3.860   2.113
 8280SOL     OW36718   2.913   3.022  20.637
 8280SOL    HW136719   2.843   3.075  20.674
 8280SOL    HW236720   2.961   3.082  20.580
 8281SOL     OW36721   4.403   3.799   7.176
 8281SOL    HW136722   4.345   3.875   7.170
 8281SOL    HW236723   4.421   3.776   7.085
 8282SOL     OW36724   3.972   1.521  20.220
 8282SOL    HW136725   3.997   1.448  20.277
 8282SOL    HW236726   3.893   1.491  20.175
 8283SOL     OW36727   1.448   3.568   4.755
 8283SOL    HW136728   1.491   3.654   4.759
 8283SOL    HW236729   1.482   3.521   4.831
 8284SOL     OW36730   2.028   0.444   2.496
 8284SOL    HW136731   1.948   0.416   2.540
 8284SOL    HW236732   2.020   0.411   2.407
 8285SOL     OW36733   0.914   4.060  17.882
 8285SOL    HW136734   0.912   3.986  17.822
 8285SOL    HW236735   0.984   4.116  17.849
 8286SOL     OW36736   2.860   4.351  17.781
 8286SOL    HW136737   2.911   4.284  17.826
 8286SOL    HW236738   2.925   4.414  17.749
 8287SOL     OW36739   0.907   2.453  16.117
 8287SOL    HW136740   0.988   2.419  16.079
 8287SOL    HW236741   0.839   2.423  16.057
 8288SOL     OW36742   2.027   4.598   1.090
 8288SOL    HW136743   2.085   4.657   1.042
 8288SOL    HW236744   2.020   4.520   1.035
 8289SOL     OW36745   1.318   2.192   5.994
 8289SOL    HW136746   1.322   2.276   6.040
 8289SOL    HW236747   1.226   2.165   5.999
 8290SOL     OW36748   1.109   2.757  18.850
 8290SOL    HW136749   1.094   2.844  18.888
 8290SOL    HW236750   1.021   2.725  18.830
 8291SOL     OW36751   4.545   0.920   5.582
 8291SOL    HW136752   4.504   0.937   5.667
 8291SOL    HW236753   4.504   0.983   5.523
 8292SOL     OW36754   3.130   3.428  16.736
 8292SOL    HW136755   3.178   3.425  16.654
 8292SOL    HW236756   3.161   3.507  16.780
 8293SOL     OW36757   0.252   0.020  16.056
 8293SOL    HW136758   0.341   0.025  16.090
 8293SOL    HW236759   0.196   0.033  16.133
 8294SOL     OW36760   2.943   0.668   3.967
 8294SOL    HW136761   2.916   0.757   3.943
 8294SOL    HW236762   2.898   0.650   4.049
 8295SOL     OW36763   2.796   0.710  17.684
 8295SOL    HW136764   2.753   0.792  17.709
 8295SOL    HW236765   2.837   0.679  17.765
 8296SOL     OW36766   3.015   3.382  17.424
 8296SOL    HW136767   2.999   3.289  17.440
 8296SOL    HW236768   2.935   3.413  17.381
 8297SOL     OW36769   2.709   1.933  14.259
 8297SOL    HW136770   2.705   1.867  14.328
 8297SOL    HW236771   2.637   1.911  14.201
 8298SOL     OW36772   3.420   1.239   0.112
 8298SOL    HW136773   3.470   1.260   0.191
 8298SOL    HW236774   3.467   1.165   0.073
 8299SOL     OW36775   4.148   1.298   1.177
 8299SOL    HW136776   4.136   1.203   1.171
 8299SOL    HW236777   4.200   1.311   1.257
 8300SOL     OW36778   3.441   0.701   3.949
 8300SOL    HW136779   3.484   0.632   4.000
 8300SOL    HW236780   3.387   0.654   3.886
 8301SOL     OW36781   0.145   3.546  14.350
 8301SOL    HW136782   0.103   3.629  14.327
 8301SOL    HW236783   0.086   3.507  14.415
 8302SOL     OW36784   4.074   1.902  18.311
 8302SOL    HW136785   4.044   1.857  18.390
 8302SOL    HW236786   4.055   1.841  18.240
 8303SOL     OW36787   2.617   4.026  19.264
 8303SOL    HW136788   2.652   3.955  19.210
 8303SOL    HW236789   2.526   4.001  19.282
 8304SOL     OW36790   0.858   3.923   3.478
 8304SOL    HW136791   0.855   3.975   3.558
 8304SOL    HW236792   0.945   3.884   3.478
 8305SOL     OW36793   0.687   2.765  20.743
 8305SOL    HW136794   0.751   2.762  20.814
 8305SOL    HW236795   0.691   2.855  20.711
 8306SOL     OW36796   3.143   4.067   4.507
 8306SOL    HW136797   3.113   4.090   4.419
 8306SOL    HW236798   3.084   4.115   4.565
 8307SOL     OW36799   0.426   4.453  18.484
 8307SOL    HW136800   0.395   4.542  18.498
 8307SOL    HW236801   0.346   4.401  18.473
 8308SOL     OW36802   0.086   0.073   5.612
 8308SOL    HW136803   0.008   0.037   5.570
 8308SOL    HW236804   0.144   0.094   5.539
 8309SOL     OW36805   2.010   4.305  20.688
 8309SOL    HW136806   2.017   4.320  20.782
 8309SOL    HW236807   1.916   4.294  20.673
 8310SOL     OW36808   3.192   0.023   4.716
 8310SOL    HW136809   3.196   4.776   4.804
 8310SOL    HW236810   3.222   0.113   4.727
 8311SOL     OW36811   2.570   0.479   0.143
 8311SOL    HW136812   2.568   0.562   0.096
 8311SOL    HW236813   2.525   0.497   0.225
 8312SOL     OW36814   1.087   4.426   4.875
 8312SOL    HW136815   1.041   4.477   4.808
 8312SOL    HW236816   1.120   4.349   4.829
 8313SOL     OW36817   1.031   1.097   5.075
 8313SOL    HW136818   1.081   1.045   5.138
 8313SOL    HW236819   0.986   1.032   5.021
 8314SOL     OW36820   2.197   1.088  18.295
 8314SOL    HW136821   2.276   1.119  18.340
 8314SOL    HW236822   2.214   0.995  18.278
 8315SOL     OW36823   0.669   0.768  20.086
 8315SOL    HW136824   0.746   0.768  20.143
 8315SOL    HW236825   0.660   0.859  20.059
 8316SOL     OW36826   4.486   4.341  18.680
 8316SOL    HW136827   4.534   4.262  18.705
 8316SOL    HW236828   4.436   4.364  18.758
 8317SOL     OW36829   2.657   2.534   5.377
 8317SOL    HW136830   2.728   2.544   5.313
 8317SOL    HW236831   2.702   2.522   5.461
 8318SOL     OW36832   2.837   4.727   6.686
 8318SOL    HW136833   2.799   4.731   6.598
 8318SOL    HW236834   2.762   4.726   6.745
 8319SOL     OW36835   3.214   2.686  17.234
 8319SOL    HW136836   3.281   2.621  17.256
 8319SOL    HW236837   3.209   2.684  17.138
 8320SOL     OW36838   2.231   4.237  17.659
 8320SOL    HW136839   2.202   4.305  17.720
 8320SOL    HW236840   2.184   4.159  17.687
 8321SOL     OW36841   1.307   4.331   4.463
 8321SOL    HW136842   1.278   4.255   4.413
 8321SOL    HW236843   1.281   4.313   4.553
 8322SOL     OW36844   1.832   2.932  18.625
 8322SOL    HW136845   1.908   2.919  18.683
 8322SOL    HW236846   1.837   3.024  18.598
 8323SOL     OW36847   3.819   3.755   9.875
 8323SOL    HW136848   3.763   3.690   9.917
 8323SOL    HW236849   3.788   3.839   9.908
 8324SOL     OW36850   1.410   3.733   3.422
 8324SOL    HW136851   1.418   3.699   3.511
 8324SOL    HW236852   1.491   3.706   3.378
 8325SOL     OW36853   2.976   2.617  16.784
 8325SOL    HW136854   2.952   2.525  16.796
 8325SOL    HW236855   2.906   2.666  16.826
 8326SOL     OW36856   4.467   4.159  19.420
 8326SOL    HW136857   4.372   4.170  19.416
 8326SOL    HW236858   4.502   4.248  19.416
 8327SOL     OW36859   2.373   2.185  19.530
 8327SOL    HW136860   2.382   2.242  19.454
 8327SOL    HW236861   2.279   2.171  19.538
 8328SOL     OW36862   4.359   3.266   5.534
 8328SOL    HW136863   4.384   3.325   5.605
 8328SOL    HW236864   4.295   3.315   5.482
 8329SOL     OW36865   0.366   1.965  19.817
 8329SOL    HW136866   0.390   2.024  19.745
 8329SOL    HW236867   0.314   1.896  19.775
 8330SOL     OW36868   4.270   0.720   0.983
 8330SOL    HW136869   4.309   0.756   0.903
 8330SOL    HW236870   4.178   0.747   0.979
 8331SOL     OW36871   3.957   3.510   6.474
 8331SOL    HW136872   3.902   3.434   6.457
 8331SOL    HW236873   4.031   3.500   6.414
 8332SOL     OW36874   2.605   0.294   1.685
 8332SOL    HW136875   2.692   0.319   1.654
 8332SOL    HW236876   2.561   0.262   1.607
 8333SOL     OW36877   1.875   2.909   1.664
 8333SOL    HW136878   1.906   2.923   1.574
 8333SOL    HW236879   1.821   2.830   1.659
 8334SOL     OW36880   0.668   1.473   2.998
 8334SOL    HW136881   0.603   1.431   3.054
 8334SOL    HW236882   0.697   1.403   2.939
 8335SOL     OW36883   0.907   0.039   3.200
 8335SOL    HW136884   0.978   0.045   3.136
 8335SOL    HW236885   0.829   0.069   3.153
 8336SOL     OW36886   0.250   0.139  15.427
 8336SOL    HW136887   0.331   0.102  15.462
 8336SOL    HW236888   0.200   0.063  15.399
 8337SOL     OW36889   4.255   4.700   0.073
 8337SOL    HW136890   4.302   4.676   0.153
 8337SOL    HW236891   4.316   4.757   0.026
 8338SOL     OW36892   0.550   4.274  17.346
 8338SOL    HW136893   0.638   4.272  17.384
 8338SOL    HW236894   0.530   4.182  17.326
 8339SOL     OW36895   4.674   3.245   4.686
 8339SOL    HW136896   4.621   3.182   4.735
 8339SOL    HW236897   4.624   3.326   4.689
 8340SOL     OW36898   2.847   4.723  18.872
 8340SOL    HW136899   2.899   4.732  18.792
 8340SOL    HW236900   2.768   4.677  18.844
 8341SOL     OW36901   1.942   3.841   0.176
 8341SOL    HW136902   1.863   3.830   0.122
 8341SOL    HW236903   2.000   3.771   0.148
 8342SOL     OW36904   1.526   0.021   6.397
 8342SOL    HW136905   1.617   0.050   6.403
 8342SOL    HW236906   1.517   4.776   6.308
 8343SOL     OW36907   3.068   1.401   9.543
 8343SOL    HW136908   3.063   1.496   9.535
 8343SOL    HW236909   3.111   1.387   9.628
 8344SOL     OW36910   3.564   4.601   0.736
 8344SOL    HW136911   3.604   4.545   0.803
 8344SOL    HW236912   3.562   4.688   0.775
 8345SOL     OW36913   2.174   2.925   4.941
 8345SOL    HW136914   2.249   2.955   4.890
 8345SOL    HW236915   2.122   3.004   4.956
 8346SOL     OW36916   3.563   1.048   3.919
 8346SOL    HW136917   3.568   0.957   3.947
 8346SOL    HW236918   3.473   1.060   3.890
 8347SOL     OW36919   3.292   0.274   3.575
 8347SOL    HW136920   3.202   0.253   3.551
 8347SOL    HW236921   3.301   0.367   3.553
 8348SOL     OW36922   1.900   1.415  16.024
 8348SOL    HW136923   1.809   1.422  15.994
 8348SOL    HW236924   1.927   1.326  15.999
 8349SOL     OW36925   4.128   0.617   4.635
 8349SOL    HW136926   4.089   0.668   4.706
 8349SOL    HW236927   4.179   0.680   4.585
 8350SOL     OW36928   3.888   0.975   4.674
 8350SOL    HW136929   3.892   0.968   4.579
 8350SOL    HW236930   3.925   1.061   4.694
 8351SOL     OW36931   3.055   2.545   1.083
 8351SOL    HW136932   3.146   2.526   1.060
 8351SOL    HW236933   3.003   2.507   1.012
 8352SOL     OW36934   1.960   4.596  14.238
 8352SOL    HW136935   2.032   4.636  14.286
 8352SOL    HW236936   1.886   4.654  14.253
 8353SOL     OW36937   0.304   2.491  20.564
 8353SOL    HW136938   0.270   2.513  20.651
 8353SOL    HW236939   0.268   2.404  20.546
 8354SOL     OW36940   1.111   1.404   2.045
 8354SOL    HW136941   1.193   1.385   2.091
 8354SOL    HW236942   1.113   1.498   2.030
 8355SOL     OW36943   0.374   1.021  18.668
 8355SOL    HW136944   0.347   0.974  18.747
 8355SOL    HW236945   0.404   1.106  18.700
 8356SOL     OW36946   1.184   0.673  15.906
 8356SOL    HW136947   1.118   0.672  15.837
 8356SOL    HW236948   1.237   0.750  15.887
 8357SOL     OW36949   2.168   4.074  17.371
 8357SOL    HW136950   2.241   4.134  17.388
 8357SOL    HW236951   2.154   4.029  17.454
 8358SOL     OW36952   4.070   3.257   3.075
 8358SOL    HW136953   4.064   3.319   3.147
 8358SOL    HW236954   4.039   3.305   2.999
 8359SOL     OW36955   0.051   1.596  15.222
 8359SOL    HW136956   0.104   1.540  15.278
 8359SOL    HW236957   0.083   1.579  15.133
 8360SOL     OW36958   3.386   0.649   2.087
 8360SOL    HW136959   3.383   0.743   2.104
 8360SOL    HW236960   3.307   0.614   2.127
 8361SOL     OW36961   2.667   4.475  19.176
 8361SOL    HW136962   2.682   4.523  19.095
 8361SOL    HW236963   2.706   4.389  19.160
 8362SOL     OW36964   0.473   0.287   0.058
 8362SOL    HW136965   0.434   0.209   0.098
 8362SOL    HW236966   0.567   0.270   0.059
 8363SOL     OW36967   0.631   2.667  20.061
 8363SOL    HW136968   0.626   2.716  19.979
 8363SOL    HW236969   0.587   2.723  20.125
 8364SOL     OW36970   4.569   1.035   3.820
 8364SOL    HW136971   4.639   0.997   3.766
 8364SOL    HW236972   4.611   1.054   3.904
 8365SOL     OW36973   3.405   3.913  18.929
 8365SOL    HW136974   3.493   3.876  18.932
 8365SOL    HW236975   3.349   3.844  18.966
 8366SOL     OW36976   4.103   0.968   4.152
 8366SOL    HW136977   4.133   0.894   4.206
 8366SOL    HW236978   4.184   1.005   4.116
 8367SOL     OW36979   3.796   1.905  16.733
 8367SOL    HW136980   3.746   1.907  16.814
 8367SOL    HW236981   3.792   1.995  16.699
 8368SOL     OW36982   0.115   3.827  15.232
 8368SOL    HW136983   0.082   3.899  15.178
 8368SOL    HW236984   0.182   3.868  15.288
 8369SOL     OW36985   2.557   1.815   1.735
 8369SOL    HW136986   2.552   1.908   1.711
 8369SOL    HW236987   2.466   1.785   1.734
 8370SOL     OW36988   0.882   2.488   2.513
 8370SOL    HW136989   0.890   2.499   2.608
 8370SOL    HW236990   0.971   2.497   2.480
 8371SOL     OW36991   2.799   1.851   0.821
 8371SOL    HW136992   2.789   1.760   0.849
 8371SOL    HW236993   2.749   1.902   0.885
 8372SOL     OW36994   3.683   4.309   0.499
 8372SOL    HW136995   3.607   4.366   0.513
 8372SOL    HW236996   3.720   4.337   0.415
 8373SOL     OW36997   2.154   2.963   6.627
 8373SOL    HW136998   2.161   3.058   6.619
 8373SOL    HW236999   2.203   2.942   6.706
 8374SOL     OW37000   1.004   2.827   5.856
 8374SOL    HW137001   1.016   2.771   5.932
 8374SOL    HW237002   1.093   2.847   5.826
 8375SOL     OW37003   2.662   0.683   3.803
 8375SOL    HW137004   2.708   0.763   3.829
 8375SOL    HW237005   2.727   0.613   3.813
 8376SOL     OW37006   3.391   3.203   3.433
 8376SOL    HW137007   3.323   3.208   3.500
 8376SOL    HW237008   3.444   3.282   3.447
 8377SOL     OW37009   3.508   4.617   4.343
 8377SOL    HW137010   3.512   4.711   4.326
 8377SOL    HW237011   3.598   4.586   4.330
 8378SOL     OW37012   1.042   2.100  18.682
 8378SOL    HW137013   1.018   2.055  18.601
 8378SOL    HW237014   1.127   2.064  18.705
 8379SOL     OW37015   2.654   1.297   0.268
 8379SOL    HW137016   2.588   1.325   0.332
 8379SOL    HW237017   2.710   1.237   0.317
 8380SOL     OW37018   3.574   4.236  12.454
 8380SOL    HW137019   3.503   4.216  12.515
 8380SOL    HW237020   3.531   4.279  12.380
 8381SOL     OW37021   3.764   0.614   3.669
 8381SOL    HW137022   3.696   0.628   3.603
 8381SOL    HW237023   3.791   0.523   3.657
 8382SOL     OW37024   3.221   4.423   4.047
 8382SOL    HW137025   3.230   4.418   4.142
 8382SOL    HW237026   3.294   4.370   4.014
 8383SOL     OW37027   1.937   4.064  18.238
 8383SOL    HW137028   1.912   4.046  18.147
 8383SOL    HW237029   2.023   4.024  18.248
 8384SOL     OW37030   3.946   0.285   4.814
 8384SOL    HW137031   4.002   0.233   4.872
 8384SOL    HW237032   3.859   0.278   4.852
 8385SOL     OW37033   4.598   1.038   0.891
 8385SOL    HW137034   4.661   0.967   0.877
 8385SOL    HW237035   4.514   1.001   0.865
 8386SOL     OW37036   2.232   3.135   4.626
 8386SOL    HW137037   2.327   3.133   4.618
 8386SOL    HW237038   2.211   3.227   4.643
 8387SOL     OW37039   4.771   0.942  17.820
 8387SOL    HW137040   0.023   1.025  17.845
 8387SOL    HW237041   0.029   0.875  17.869
 8388SOL     OW37042   4.696   4.136  17.904
 8388SOL    HW137043   4.663   4.136  17.994
 8388SOL    HW237044   4.676   4.048  17.871
 8389SOL     OW37045   4.465   2.666  15.614
 8389SOL    HW137046   4.387   2.679  15.668
 8389SOL    HW237047   4.538   2.684  15.673
 8390SOL     OW37048   2.962   1.769  17.705
 8390SOL    HW137049   2.987   1.841  17.648
 8390SOL    HW237050   2.877   1.740  17.672
 8391SOL     OW37051   4.218   3.434   6.399
 8391SOL    HW137052   4.275   3.497   6.355
 8391SOL    HW237053   4.278   3.372   6.441
 8392SOL     OW37054   3.192   0.550  16.501
 8392SOL    HW137055   3.206   0.597  16.419
 8392SOL    HW237056   3.100   0.524  16.499
 8393SOL     OW37057   2.784   2.186   1.834
 8393SOL    HW137058   2.756   2.277   1.845
 8393SOL    HW237059   2.858   2.191   1.773
 8394SOL     OW37060   0.603   3.019   2.151
 8394SOL    HW137061   0.655   2.995   2.227
 8394SOL    HW237062   0.643   2.972   2.078
 8395SOL     OW37063   4.142   4.581   6.787
 8395SOL    HW137064   4.191   4.650   6.742
 8395SOL    HW237065   4.166   4.501   6.741
 8396SOL     OW37066   2.754   2.572   3.734
 8396SOL    HW137067   2.782   2.553   3.823
 8396SOL    HW237068   2.746   2.667   3.732
 8397SOL     OW37069   3.412   0.924   3.012
 8397SOL    HW137070   3.365   0.901   2.932
 8397SOL    HW237071   3.359   0.886   3.082
 8398SOL     OW37072   3.398   1.999   1.717
 8398SOL    HW137073   3.342   2.075   1.734
 8398SOL    HW237074   3.337   1.931   1.689
 8399SOL     OW37075   3.916   0.945   2.731
 8399SOL    HW137076   3.921   0.995   2.650
 8399SOL    HW237077   4.000   0.900   2.737
 8400SOL     OW37078   1.676   0.982   4.528
 8400SOL    HW137079   1.582   0.972   4.546
 8400SOL    HW237080   1.713   0.896   4.547
 8401SOL     OW37081   3.035   3.654  21.081
 8401SOL    HW137082   3.047   3.576  21.135
 8401SOL    HW237083   3.124   3.686  21.065
 8402SOL     OW37084   0.970   2.803   2.640
 8402SOL    HW137085   0.990   2.716   2.674
 8402SOL    HW237086   0.876   2.813   2.653
 8403SOL     OW37087   2.344   3.779   4.580
 8403SOL    HW137088   2.315   3.824   4.659
 8403SOL    HW237089   2.434   3.810   4.566
 8404SOL     OW37090   3.989   0.332   3.196
 8404SOL    HW137091   4.014   0.366   3.110
 8404SOL    HW237092   4.040   0.251   3.205
 8405SOL     OW37093   2.857   0.237  20.390
 8405SOL    HW137094   2.849   0.143  20.376
 8405SOL    HW237095   2.871   0.246  20.484
 8406SOL     OW37096   4.785   1.970   0.042
 8406SOL    HW137097   0.042   1.926  21.228
 8406SOL    HW237098   0.063   1.988   0.107
 8407SOL     OW37099   3.204   4.294   3.111
 8407SOL    HW137100   3.279   4.354   3.115
 8407SOL    HW237101   3.238   4.212   3.146
 8408SOL     OW37102   1.233   0.901  21.168
 8408SOL    HW137103   1.202   0.913   0.001
 8408SOL    HW237104   1.324   0.932  21.170
 8409SOL     OW37105   1.291   2.424   6.138
 8409SOL    HW137106   1.220   2.417   6.202
 8409SOL    HW237107   1.357   2.477   6.182
 8410SOL     OW37108   3.103   1.204  19.191
 8410SOL    HW137109   3.030   1.248  19.235
 8410SOL    HW237110   3.072   1.190  19.102
 8411SOL     OW37111   2.567   4.505   4.300
 8411SOL    HW137112   2.532   4.586   4.337
 8411SOL    HW237113   2.545   4.509   4.207
 8412SOL     OW37114   1.338   1.344   7.456
 8412SOL    HW137115   1.338   1.376   7.546
 8412SOL    HW237116   1.264   1.283   7.452
 8413SOL     OW37117   3.326   3.120   2.220
 8413SOL    HW137118   3.268   3.062   2.269
 8413SOL    HW237119   3.414   3.085   2.236
 8414SOL     OW37120   3.165   3.847   4.288
 8414SOL    HW137121   3.147   3.760   4.324
 8414SOL    HW237122   3.172   3.903   4.365
 8415SOL     OW37123   2.550   3.346   3.361
 8415SOL    HW137124   2.634   3.356   3.316
 8415SOL    HW237125   2.553   3.410   3.432
 8416SOL     OW37126   0.823   0.743   6.157
 8416SOL    HW137127   0.801   0.807   6.090
 8416SOL    HW237128   0.918   0.734   6.152
 8417SOL     OW37129   4.358   2.136   5.088
 8417SOL    HW137130   4.453   2.141   5.080
 8417SOL    HW237131   4.327   2.218   5.050
 8418SOL     OW37132   1.197   0.913   4.040
 8418SOL    HW137133   1.138   0.959   3.980
 8418SOL    HW237134   1.269   0.883   3.984
 8419SOL     OW37135   4.057   4.368  19.786
 8419SOL    HW137136   4.140   4.380  19.739
 8419SOL    HW237137   3.997   4.334  19.720
 8420SOL     OW37138   2.869   2.874   6.392
 8420SOL    HW137139   2.870   2.781   6.370
 8420SOL    HW237140   2.864   2.876   6.488
 8421SOL     OW37141   4.128   2.076  16.787
 8421SOL    HW137142   4.153   2.019  16.714
 8421SOL    HW237143   4.036   2.096  16.772
 8422SOL     OW37144   0.024   0.283  17.185
 8422SOL    HW137145   0.040   0.197  17.147
 8422SOL    HW237146   0.075   0.284  17.266
 8423SOL     OW37147   0.510   4.324  19.261
 8423SOL    HW137148   0.481   4.411  19.286
 8423SOL    HW237149   0.462   4.265  19.318
 8424SOL     OW37150   0.315   1.117   6.369
 8424SOL    HW137151   0.227   1.091   6.343
 8424SOL    HW237152   0.302   1.169   6.448
 8425SOL     OW37153   3.873   4.482  20.275
 8425SOL    HW137154   3.806   4.505  20.211
 8425SOL    HW237155   3.867   4.550  20.342
 8426SOL     OW37156   2.226   2.580   2.234
 8426SOL    HW137157   2.258   2.670   2.227
 8426SOL    HW237158   2.140   2.589   2.275
 8427SOL     OW37159   4.520   4.401  18.382
 8427SOL    HW137160   4.477   4.396  18.467
 8427SOL    HW237161   4.576   4.479  18.388
 8428SOL     OW37162   2.106   2.164   6.171
 8428SOL    HW137163   2.067   2.096   6.115
 8428SOL    HW237164   2.086   2.136   6.260
 8429SOL     OW37165   4.579   2.470   4.360
 8429SOL    HW137166   4.637   2.394   4.358
 8429SOL    HW237167   4.636   2.543   4.384
 8430SOL     OW37168   2.703   2.105  19.343
 8430SOL    HW137169   2.678   2.196  19.357
 8430SOL    HW237170   2.744   2.104  19.256
 8431SOL     OW37171   1.785   0.795  16.259
 8431SOL    HW137172   1.765   0.889  16.260
 8431SOL    HW237173   1.814   0.776  16.348
 8432SOL     OW37174   0.181   0.616  20.942
 8432SOL    HW137175   0.118   0.618  21.014
 8432SOL    HW237176   0.262   0.583  20.981
 8433SOL     OW37177   3.071   2.637   4.889
 8433SOL    HW137178   2.979   2.646   4.914
 8433SOL    HW237179   3.080   2.691   4.810
 8434SOL     OW37180   1.143   3.934   1.711
 8434SOL    HW137181   1.201   4.010   1.707
 8434SOL    HW237182   1.083   3.945   1.637
 8435SOL     OW37183   1.194   1.815   3.778
 8435SOL    HW137184   1.263   1.753   3.801
 8435SOL    HW237185   1.126   1.761   3.737
 8436SOL     OW37186   3.580   1.857   3.188
 8436SOL    HW137187   3.598   1.765   3.207
 8436SOL    HW237188   3.606   1.903   3.268
 8437SOL     OW37189   0.823   3.436  17.687
 8437SOL    HW137190   0.897   3.420  17.629
 8437SOL    HW237191   0.854   3.504  17.747
 8438SOL     OW37192   3.920   1.903   1.979
 8438SOL    HW137193   3.955   1.836   2.037
 8438SOL    HW237194   3.979   1.977   1.989
 8439SOL     OW37195   3.589   1.928  18.653
 8439SOL    HW137196   3.585   1.974  18.737
 8439SOL    HW237197   3.605   1.837  18.676
 8440SOL     OW37198   1.132   3.600  18.848
 8440SOL    HW137199   1.058   3.609  18.908
 8440SOL    HW237200   1.106   3.530  18.788
 8441SOL     OW37201   3.856   1.977   1.640
 8441SOL    HW137202   3.804   1.933   1.707
 8441SOL    HW237203   3.816   2.064   1.632
 8442SOL     OW37204   1.846   1.615   5.490
 8442SOL    HW137205   1.802   1.692   5.454
 8442SOL    HW237206   1.780   1.573   5.545
 8443SOL     OW37207   0.342   1.313  18.409
 8443SOL    HW137208   0.332   1.403  18.379
 8443SOL    HW237209   0.338   1.319  18.504
 8444SOL     OW37210   1.525   2.331  16.974
 8444SOL    HW137211   1.575   2.377  16.907
 8444SOL    HW237212   1.444   2.304  16.930
 8445SOL     OW37213   0.114   4.073  15.725
 8445SOL    HW137214   0.080   4.161  15.742
 8445SOL    HW237215   0.157   4.080  15.640
 8446SOL     OW37216   2.157   0.267   2.943
 8446SOL    HW137217   2.069   0.299   2.924
 8446SOL    HW237218   2.176   0.299   3.031
 8447SOL     OW37219   3.037   2.128  13.891
 8447SOL    HW137220   2.994   2.102  13.972
 8447SOL    HW237221   3.012   2.061  13.827
 8448SOL     OW37222   3.465   2.419   1.755
 8448SOL    HW137223   3.486   2.413   1.662
 8448SOL    HW237224   3.531   2.479   1.791
 8449SOL     OW37225   3.089   0.655  16.089
 8449SOL    HW137226   3.015   0.597  16.106
 8449SOL    HW237227   3.153   0.600  16.045
 8450SOL     OW37228   0.144   2.604  18.248
 8450SOL    HW137229   0.065   2.647  18.282
 8450SOL    HW237230   0.149   2.634  18.157
 8451SOL     OW37231   3.405   1.860  17.709
 8451SOL    HW137232   3.394   1.840  17.616
 8451SOL    HW237233   3.405   1.774  17.752
 8452SOL     OW37234   4.582   3.871   0.246
 8452SOL    HW137235   4.534   3.806   0.298
 8452SOL    HW237236   4.629   3.819   0.180
 8453SOL     OW37237   2.548   2.433   3.626
 8453SOL    HW137238   2.518   2.368   3.689
 8453SOL    HW237239   2.616   2.482   3.673
 8454SOL     OW37240   1.642   2.537  20.959
 8454SOL    HW137241   1.695   2.460  20.936
 8454SOL    HW237242   1.681   2.569  21.041
 8455SOL     OW37243   3.715   4.153  19.816
 8455SOL    HW137244   3.641   4.111  19.772
 8455SOL    HW237245   3.681   4.239  19.842
 8456SOL     OW37246   2.374   4.159  20.570
 8456SOL    HW137247   2.449   4.158  20.629
 8456SOL    HW237248   2.345   4.250  20.571
 8457SOL     OW37249   2.507   3.711  21.165
 8457SOL    HW137250   2.434   3.698  21.105
 8457SOL    HW237251   2.468   3.754  21.241
 8458SOL     OW37252   4.433   2.292  19.097
 8458SOL    HW137253   4.509   2.342  19.067
 8458SOL    HW237254   4.379   2.357  19.142
 8459SOL     OW37255   1.485   1.364  17.994
 8459SOL    HW137256   1.525   1.435  17.944
 8459SOL    HW237257   1.396   1.357  17.959
 8460SOL     OW37258   1.793   2.996   6.089
 8460SOL    HW137259   1.770   2.926   6.027
 8460SOL    HW237260   1.881   2.974   6.119
 8461SOL     OW37261   2.881   0.584  16.895
 8461SOL    HW137262   2.823   0.518  16.933
 8461SOL    HW237263   2.859   0.665  16.941
 8462SOL     OW37264   0.490   1.535   0.637
 8462SOL    HW137265   0.423   1.596   0.607
 8462SOL    HW237266   0.541   1.514   0.559
 8463SOL     OW37267   3.730   4.183  13.867
 8463SOL    HW137268   3.634   4.187  13.869
 8463SOL    HW237269   3.752   4.154  13.778
 8464SOL     OW37270   3.643   0.124   5.883
 8464SOL    HW137271   3.632   0.212   5.918
 8464SOL    HW237272   3.714   0.086   5.935
 8465SOL     OW37273   4.313   3.730  18.458
 8465SOL    HW137274   4.224   3.754  18.430
 8465SOL    HW237275   4.370   3.785  18.404
 8466SOL     OW37276   3.817   4.511   2.189
 8466SOL    HW137277   3.724   4.534   2.194
 8466SOL    HW237278   3.847   4.553   2.108
 8467SOL     OW37279   2.782   2.006  15.499
 8467SOL    HW137280   2.765   1.999  15.405
 8467SOL    HW237281   2.748   2.092  15.524
 8468SOL     OW37282   1.738   4.720  17.179
 8468SOL    HW137283   1.712   4.715  17.087
 8468SOL    HW237284   1.781   0.016  17.187
 8469SOL     OW37285   0.911   4.096   4.028
 8469SOL    HW137286   0.937   4.004   4.033
 8469SOL    HW237287   0.984   4.143   4.068
 8470SOL     OW37288   4.350   4.298  15.216
 8470SOL    HW137289   4.262   4.336  15.212
 8470SOL    HW237290   4.358   4.267  15.306
 8471SOL     OW37291   4.252   3.944   1.426
 8471SOL    HW137292   4.209   3.966   1.343
 8471SOL    HW237293   4.195   3.983   1.493
 8472SOL     OW37294   3.219   3.282  17.012
 8472SOL    HW137295   3.274   3.308  17.086
 8472SOL    HW237296   3.212   3.361  16.958
 8473SOL     OW37297   2.079   4.622  19.955
 8473SOL    HW137298   2.143   4.640  19.887
 8473SOL    HW237299   1.994   4.627  19.910
 8474SOL     OW37300   1.309   1.720  15.329
 8474SOL    HW137301   1.319   1.748  15.420
 8474SOL    HW237302   1.391   1.675  15.309
 8475SOL     OW37303   4.429   3.011  18.230
 8475SOL    HW137304   4.441   2.917  18.213
 8475SOL    HW237305   4.514   3.050  18.209
 8476SOL     OW37306   3.305   2.850   1.383
 8476SOL    HW137307   3.324   2.810   1.468
 8476SOL    HW237308   3.304   2.777   1.321
 8477SOL     OW37309   4.527   3.653   6.921
 8477SOL    HW137310   4.512   3.561   6.900
 8477SOL    HW237311   4.622   3.661   6.926
 8478SOL     OW37312   1.845   2.300   1.320
 8478SOL    HW137313   1.910   2.319   1.387
 8478SOL    HW237314   1.832   2.383   1.274
 8479SOL     OW37315   0.411   1.242  16.238
 8479SOL    HW137316   0.496   1.259  16.198
 8479SOL    HW237317   0.399   1.147  16.229
 8480SOL     OW37318   4.103   3.356  17.711
 8480SOL    HW137319   4.132   3.387  17.797
 8480SOL    HW237320   4.035   3.419  17.685
 8481SOL     OW37321   1.293   1.265   2.755
 8481SOL    HW137322   1.313   1.266   2.661
 8481SOL    HW237323   1.234   1.191   2.767
 8482SOL     OW37324   0.668   1.755   1.700
 8482SOL    HW137325   0.736   1.822   1.702
 8482SOL    HW237326   0.640   1.752   1.609
 8483SOL     OW37327   1.368   4.647   2.987
 8483SOL    HW137328   1.329   4.562   2.966
 8483SOL    HW237329   1.424   4.667   2.912
 8484SOL     OW37330   3.703   1.754  20.051
 8484SOL    HW137331   3.638   1.690  20.079
 8484SOL    HW237332   3.662   1.839  20.067
 8485SOL     OW37333   2.278   0.686   8.187
 8485SOL    HW137334   2.342   0.668   8.118
 8485SOL    HW237335   2.195   0.654   8.151
 8486SOL     OW37336   2.870   1.286   2.868
 8486SOL    HW137337   2.921   1.284   2.949
 8486SOL    HW237338   2.818   1.205   2.870
 8487SOL     OW37339   1.834   0.808  18.915
 8487SOL    HW137340   1.750   0.841  18.948
 8487SOL    HW237341   1.889   0.801  18.993
 8488SOL     OW37342   0.884   4.714  18.242
 8488SOL    HW137343   0.789   4.717  18.254
 8488SOL    HW237344   0.896   4.731  18.149
 8489SOL     OW37345   1.692   2.988   3.335
 8489SOL    HW137346   1.766   3.008   3.392
 8489SOL    HW237347   1.643   2.921   3.382
 8490SOL     OW37348   1.796   3.964   7.513
 8490SOL    HW137349   1.871   4.016   7.542
 8490SOL    HW237350   1.746   3.947   7.593
 8491SOL     OW37351   1.121   0.601   2.485
 8491SOL    HW137352   1.165   0.619   2.402
 8491SOL    HW237353   1.129   0.683   2.534
 8492SOL     OW37354   1.449   1.828   6.729
 8492SOL    HW137355   1.477   1.869   6.811
 8492SOL    HW237356   1.417   1.742   6.755
 8493SOL     OW37357   4.295   4.332   3.582
 8493SOL    HW137358   4.267   4.275   3.511
 8493SOL    HW237359   4.236   4.407   3.577
 8494SOL     OW37360   4.345   2.558  20.918
 8494SOL    HW137361   4.335   2.465  20.938
 8494SOL    HW237362   4.394   2.593  20.993
 8495SOL     OW37363   4.647   2.914  17.467
 8495SOL    HW137364   4.650   2.828  17.510
 8495SOL    HW237365   4.726   2.918  17.414
 8496SOL     OW37366   4.729   4.138   5.566
 8496SOL    HW137367   0.035   4.141   5.576
 8496SOL    HW237368   4.716   4.104   5.478
 8497SOL     OW37369   2.191   3.345  14.536
 8497SOL    HW137370   2.235   3.422  14.500
 8497SOL    HW237371   2.237   3.327  14.618
 8498SOL     OW37372   0.607   2.921   4.180
 8498SOL    HW137373   0.571   3.010   4.181
 8498SOL    HW237374   0.649   2.913   4.094
 8499SOL     OW37375   4.198   3.454  16.516
 8499SOL    HW137376   4.195   3.443  16.421
 8499SOL    HW237377   4.131   3.520  16.535
 8500SOL     OW37378   0.053   1.052   6.247
 8500SOL    HW137379   0.091   0.985   6.190
 8500SOL    HW237380   4.751   1.026   6.256
 8501SOL     OW37381   2.323   0.607  17.336
 8501SOL    HW137382   2.409   0.648  17.335
 8501SOL    HW237383   2.320   0.560  17.419
 8502SOL     OW37384   1.750   2.496   0.815
 8502SOL    HW137385   1.709   2.415   0.846
 8502SOL    HW237386   1.738   2.495   0.720
 8503SOL     OW37387   1.203   2.366  17.231
 8503SOL    HW137388   1.216   2.399  17.320
 8503SOL    HW237389   1.231   2.275  17.235
 8504SOL     OW37390   4.711   0.545   2.038
 8504SOL    HW137391   4.673   0.478   1.981
 8504SOL    HW237392   4.714   0.624   1.983
 8505SOL     OW37393   2.061   2.614  21.077
 8505SOL    HW137394   2.082   2.663  21.157
 8505SOL    HW237395   2.092   2.670  21.006
 8506SOL     OW37396   1.691   2.851  18.279
 8506SOL    HW137397   1.714   2.943  18.265
 8506SOL    HW237398   1.620   2.853  18.343
 8507SOL     OW37399   4.271   3.639   3.606
 8507SOL    HW137400   4.291   3.723   3.648
 8507SOL    HW237401   4.241   3.583   3.678
 8508SOL     OW37402   2.317   2.400   1.342
 8508SOL    HW137403   2.313   2.331   1.409
 8508SOL    HW237404   2.341   2.479   1.390
 8509SOL     OW37405   0.833   1.259   3.612
 8509SOL    HW137406   0.841   1.320   3.685
 8509SOL    HW237407   0.841   1.313   3.534
 8510SOL     OW37408   3.868   0.772  20.713
 8510SOL    HW137409   3.817   0.770  20.632
 8510SOL    HW237410   3.917   0.690  20.713
 8511SOL     OW37411   3.390   1.686  20.457
 8511SOL    HW137412   3.406   1.670  20.550
 8511SOL    HW237413   3.477   1.697  20.419
 8512SOL     OW37414   0.647   1.157  13.386
 8512SOL    HW137415   0.580   1.091  13.367
 8512SOL    HW237416   0.638   1.221  13.316
 8513SOL     OW37417   3.049   4.006   1.797
 8513SOL    HW137418   2.995   4.060   1.855
 8513SOL    HW237419   3.089   3.941   1.855
 8514SOL     OW37420   1.892   0.379   6.039
 8514SOL    HW137421   1.920   0.393   6.129
 8514SOL    HW237422   1.973   0.370   5.989
 8515SOL     OW37423   1.694   0.157  19.439
 8515SOL    HW137424   1.778   0.123  19.469
 8515SOL    HW237425   1.656   0.198  19.517
 8516SOL     OW37426   1.706   3.551   1.429
 8516SOL    HW137427   1.667   3.491   1.492
 8516SOL    HW237428   1.764   3.496   1.377
 8517SOL     OW37429   2.256   0.250  17.763
 8517SOL    HW137430   2.227   0.248  17.854
 8517SOL    HW237431   2.175   0.261  17.713
 8518SOL     OW37432   2.736   2.176   8.493
 8518SOL    HW137433   2.681   2.140   8.562
 8518SOL    HW237434   2.819   2.197   8.537
 8519SOL     OW37435   1.018   2.152   2.033
 8519SOL    HW137436   1.014   2.225   2.095
 8519SOL    HW237437   0.926   2.129   2.017
 8520SOL     OW37438   3.546   0.717   3.517
 8520SOL    HW137439   3.517   0.734   3.427
 8520SOL    HW237440   3.573   0.803   3.550
 8521SOL     OW37441   2.684   0.054   0.017
 8521SOL    HW137442   2.653   4.755   0.038
 8521SOL    HW237443   2.605   0.108   0.020
 8522SOL     OW37444   3.404   0.690   8.330
 8522SOL    HW137445   3.429   0.601   8.303
 8522SOL    HW237446   3.484   0.741   8.319
 8523SOL     OW37447   3.058   2.606   2.391
 8523SOL    HW137448   3.005   2.553   2.332
 8523SOL    HW237449   3.130   2.638   2.336
 8524SOL     OW37450   3.105   0.184   0.777
 8524SOL    HW137451   3.105   0.193   0.682
 8524SOL    HW237452   3.087   0.272   0.809
 8525SOL     OW37453   2.224   3.448  17.078
 8525SOL    HW137454   2.150   3.508  17.085
 8525SOL    HW237455   2.301   3.502  17.095
 8526SOL     OW37456   1.363   4.420  18.328
 8526SOL    HW137457   1.327   4.476  18.260
 8526SOL    HW237458   1.316   4.446  18.408
 8527SOL     OW37459   0.800   2.427   4.811
 8527SOL    HW137460   0.796   2.343   4.766
 8527SOL    HW237461   0.870   2.475   4.766
 8528SOL     OW37462   2.457   3.556  17.177
 8528SOL    HW137463   2.405   3.574  17.255
 8528SOL    HW237464   2.499   3.640  17.157
 8529SOL     OW37465   2.612   3.769  15.029
 8529SOL    HW137466   2.549   3.786  14.958
 8529SOL    HW237467   2.655   3.853  15.044
 8530SOL     OW37468   0.144   3.057  20.761
 8530SOL    HW137469   0.176   3.122  20.823
 8530SOL    HW237470   0.123   3.108  20.682
 8531SOL     OW37471   0.923   0.560  20.225
 8531SOL    HW137472   0.942   0.650  20.199
 8531SOL    HW237473   0.934   0.509  20.145
 8532SOL     OW37474   0.045   3.102   3.857
 8532SOL    HW137475   0.124   3.150   3.880
 8532SOL    HW237476   0.045   3.026   3.916
 8533SOL     OW37477   0.134   0.956  20.192
 8533SOL    HW137478   0.225   0.928  20.203
 8533SOL    HW237479   0.082   0.887  20.233
 8534SOL     OW37480   1.479   2.553  18.171
 8534SOL    HW137481   1.504   2.624  18.230
 8534SOL    HW237482   1.448   2.484  18.229
 8535SOL     OW37483   1.743   1.396   5.253
 8535SOL    HW137484   1.777   1.469   5.201
 8535SOL    HW237485   1.729   1.326   5.189
 8536SOL     OW37486   0.067   2.734  19.184
 8536SOL    HW137487   4.779   2.680  19.170
 8536SOL    HW237488   0.042   2.796  19.252
 8537SOL     OW37489   0.310   0.614  13.345
 8537SOL    HW137490   0.219   0.600  13.371
 8537SOL    HW237491   0.310   0.605  13.250
 8538SOL     OW37492   0.107   2.838   1.944
 8538SOL    HW137493   0.021   2.804   1.968
 8538SOL    HW237494   0.151   2.853   2.028
 8539SOL     OW37495   1.684   4.422  18.720
 8539SOL    HW137496   1.717   4.467  18.642
 8539SOL    HW237497   1.599   4.463  18.738
 8540SOL     OW37498   3.218   1.987   1.228
 8540SOL    HW137499   3.173   1.903   1.240
 8540SOL    HW237500   3.222   1.998   1.133
 8541SOL     OW37501   0.623   3.353   5.030
 8541SOL    HW137502   0.705   3.375   4.986
 8541SOL    HW237503   0.649   3.324   5.117
 8542SOL     OW37504   3.071   4.683   1.210
 8542SOL    HW137505   3.153   4.667   1.162
 8542SOL    HW237506   3.054   4.776   1.197
 8543SOL     OW37507   0.379   2.923   1.788
 8543SOL    HW137508   0.284   2.927   1.783
 8543SOL    HW237509   0.406   2.885   1.704
 8544SOL     OW37510   0.797   2.023   2.210
 8544SOL    HW137511   0.791   2.082   2.135
 8544SOL    HW237512   0.851   2.070   2.273
 8545SOL     OW37513   0.859   4.723  15.673
 8545SOL    HW137514   0.872   0.025  15.697
 8545SOL    HW237515   0.803   4.726  15.596
 8546SOL     OW37516   0.607   3.975  13.911
 8546SOL    HW137517   0.537   3.935  13.962
 8546SOL    HW237518   0.573   3.977  13.821
 8547SOL     OW37519   2.679   2.841  14.464
 8547SOL    HW137520   2.631   2.922  14.446
 8547SOL    HW237521   2.660   2.785  14.389
 8548SOL     OW37522   1.095   3.789  15.701
 8548SOL    HW137523   1.048   3.712  15.733
 8548SOL    HW237524   1.187   3.767  15.713
 8549SOL     OW37525   2.776   3.714   0.229
 8549SOL    HW137526   2.702   3.772   0.246
 8549SOL    HW237527   2.848   3.773   0.205
 8550SOL     OW37528   1.270   2.041   4.775
 8550SOL    HW137529   1.295   2.132   4.789
 8550SOL    HW237530   1.346   1.991   4.803
 8551SOL     OW37531   2.589   0.990   0.543
 8551SOL    HW137532   2.498   1.019   0.533
 8551SOL    HW237533   2.636   1.068   0.572
 8552SOL     OW37534   3.139   1.469   7.845
 8552SOL    HW137535   3.213   1.486   7.786
 8552SOL    HW237536   3.177   1.419   7.917
 8553SOL     OW37537   2.306   4.145   2.316
 8553SOL    HW137538   2.223   4.192   2.324
 8553SOL    HW237539   2.336   4.134   2.406
 8554SOL     OW37540   3.701   1.322  17.140
 8554SOL    HW137541   3.753   1.349  17.216
 8554SOL    HW237542   3.707   1.226  17.140
 8555SOL     OW37543   3.191   0.016   3.484
 8555SOL    HW137544   3.227   0.035   3.571
 8555SOL    HW237545   3.206   4.712   3.472
 8556SOL     OW37546   1.415   3.830  12.882
 8556SOL    HW137547   1.390   3.758  12.824
 8556SOL    HW237548   1.449   3.786  12.960
 8557SOL     OW37549   2.697   1.097   2.916
 8557SOL    HW137550   2.735   1.014   2.945
 8557SOL    HW237551   2.669   1.080   2.826
 8558SOL     OW37552   3.017   4.574  19.414
 8558SOL    HW137553   2.929   4.550  19.443
 8558SOL    HW237554   3.003   4.617  19.329
 8559SOL     OW37555   1.684   0.323  17.647
 8559SOL    HW137556   1.618   0.312  17.579
 8559SOL    HW237557   1.693   0.236  17.687
 8560SOL     OW37558   1.476   3.123   4.658
 8560SOL    HW137559   1.429   3.067   4.719
 8560SOL    HW237560   1.568   3.101   4.671
 8561SOL     OW37561   1.022   0.672   5.890
 8561SOL    HW137562   1.061   0.757   5.910
 8561SOL    HW237563   1.081   0.608   5.930
 8562SOL     OW37564   4.197   2.659  15.726
 8562SOL    HW137565   4.200   2.604  15.805
 8562SOL    HW237566   4.122   2.716  15.739
 8563SOL     OW37567   3.052   3.772  16.551
 8563SOL    HW137568   3.137   3.749  16.514
 8563SOL    HW237569   3.038   3.863  16.524
 8564SOL     OW37570   3.471   0.079   3.373
 8564SOL    HW137571   3.506   0.160   3.336
 8564SOL    HW237572   3.457   0.099   3.466
 8565SOL     OW37573   3.496   0.312   5.120
 8565SOL    HW137574   3.556   0.363   5.174
 8565SOL    HW237575   3.506   0.222   5.151
 8566SOL     OW37576   1.806   0.501  20.506
 8566SOL    HW137577   1.713   0.514  20.526
 8566SOL    HW237578   1.829   0.419  20.550
 8567SOL     OW37579   4.545   3.497  19.392
 8567SOL    HW137580   4.567   3.414  19.434
 8567SOL    HW237581   4.627   3.546  19.392
 8568SOL     OW37582   0.253   0.102  19.855
 8568SOL    HW137583   0.338   0.094  19.812
 8568SOL    HW237584   0.210   0.018  19.838
 8569SOL     OW37585   3.827   4.142   4.901
 8569SOL    HW137586   3.741   4.102   4.910
 8569SOL    HW237587   3.870   4.092   4.832
 8570SOL     OW37588   1.105   4.259  11.419
 8570SOL    HW137589   1.153   4.341  11.406
 8570SOL    HW237590   1.173   4.193  11.430
 8571SOL     OW37591   2.937   4.679  18.619
 8571SOL    HW137592   3.028   4.666  18.593
 8571SOL    HW237593   2.888   4.616  18.566
 8572SOL     OW37594   0.498   4.201  17.903
 8572SOL    HW137595   0.581   4.201  17.950
 8572SOL    HW237596   0.481   4.293  17.885
 8573SOL     OW37597   3.883   0.839   0.420
 8573SOL    HW137598   3.887   0.800   0.507
 8573SOL    HW237599   3.870   0.932   0.437
 8574SOL     OW37600   2.200   4.147  16.987
 8574SOL    HW137601   2.195   4.067  17.039
 8574SOL    HW237602   2.235   4.212  17.048
 8575SOL     OW37603   2.720   3.103  20.044
 8575SOL    HW137604   2.674   3.187  20.037
 8575SOL    HW237605   2.655   3.043  20.081
 8576SOL     OW37606   1.167   4.499  12.558
 8576SOL    HW137607   1.225   4.467  12.489
 8576SOL    HW237608   1.079   4.476  12.528
 8577SOL     OW37609   1.835   2.515   5.851
 8577SOL    HW137610   1.876   2.508   5.765
 8577SOL    HW237611   1.875   2.445   5.903
 8578SOL     OW37612   2.102   2.658  19.726
 8578SOL    HW137613   2.056   2.574  19.721
 8578SOL    HW237614   2.067   2.700  19.804
 8579SOL     OW37615   1.420   2.692   1.320
 8579SOL    HW137616   1.437   2.743   1.399
 8579SOL    HW237617   1.367   2.618   1.350
 8580SOL     OW37618   1.236   3.862   6.181
 8580SOL    HW137619   1.190   3.837   6.261
 8580SOL    HW237620   1.204   3.801   6.115
 8581SOL     OW37621   2.884   4.486  13.703
 8581SOL    HW137622   2.801   4.439  13.693
 8581SOL    HW237623   2.871   4.542  13.780
 8582SOL     OW37624   1.835   3.438  16.419
 8582SOL    HW137625   1.817   3.427  16.326
 8582SOL    HW237626   1.916   3.489  16.422
 8583SOL     OW37627   0.235   3.553  15.382
 8583SOL    HW137628   0.253   3.646  15.394
 8583SOL    HW237629   0.221   3.520  15.471
 8584SOL     OW37630   0.118   3.874   2.274
 8584SOL    HW137631   0.087   3.951   2.322
 8584SOL    HW237632   0.104   3.801   2.334
 8585SOL     OW37633   0.579   0.526   0.401
 8585SOL    HW137634   0.586   0.563   0.313
 8585SOL    HW237635   0.653   0.563   0.449
 8586SOL     OW37636   1.662   1.081  19.667
 8586SOL    HW137637   1.627   1.109  19.582
 8586SOL    HW237638   1.724   1.149  19.691
 8587SOL     OW37639   2.912   3.884  18.820
 8587SOL    HW137640   2.900   3.913  18.910
 8587SOL    HW237641   2.989   3.931  18.789
 8588SOL     OW37642   4.020   4.328   2.260
 8588SOL    HW137643   4.057   4.324   2.172
 8588SOL    HW237644   3.938   4.377   2.250
 8589SOL     OW37645   3.767   1.287   6.696
 8589SOL    HW137646   3.791   1.198   6.721
 8589SOL    HW237647   3.810   1.342   6.761
 8590SOL     OW37648   3.217   1.273   1.841
 8590SOL    HW137649   3.228   1.184   1.876
 8590SOL    HW237650   3.154   1.314   1.901
 8591SOL     OW37651   0.027   4.601  19.394
 8591SOL    HW137652   4.740   4.652  19.418
 8591SOL    HW237653   0.098   4.638  19.447
 8592SOL     OW37654   4.311   4.133   3.375
 8592SOL    HW137655   4.338   4.179   3.295
 8592SOL    HW237656   4.392   4.098   3.411
 8593SOL     OW37657   0.228   1.728  20.017
 8593SOL    HW137658   0.185   1.813  20.021
 8593SOL    HW237659   0.199   1.682  20.096
 8594SOL     OW37660   4.603   4.105  16.283
 8594SOL    HW137661   4.608   4.040  16.213
 8594SOL    HW237662   4.632   4.059  16.361
 8595SOL     OW37663   2.336   3.950   2.912
 8595SOL    HW137664   2.355   3.931   2.820
 8595SOL    HW237665   2.378   4.034   2.929
 8596SOL     OW37666   3.331   2.975   3.285
 8596SOL    HW137667   3.356   2.892   3.326
 8596SOL    HW237668   3.354   3.042   3.349
 8597SOL     OW37669   3.007   1.053   0.928
 8597SOL    HW137670   3.082   1.046   0.988
 8597SOL    HW237671   2.930   1.045   0.985
 8598SOL     OW37672   2.795   0.289   6.252
 8598SOL    HW137673   2.846   0.218   6.292
 8598SOL    HW237674   2.832   0.369   6.290
 8599SOL     OW37675   2.099   4.359  14.308
 8599SOL    HW137676   2.153   4.344  14.231
 8599SOL    HW237677   2.036   4.426  14.280
 8600SOL     OW37678   4.684   4.709  21.031
 8600SOL    HW137679   4.722   4.621  21.034
 8600SOL    HW237680   4.635   4.711  20.949
 8601SOL     OW37681   2.979   1.569   6.446
 8601SOL    HW137682   3.001   1.629   6.375
 8601SOL    HW237683   2.980   1.623   6.525
 8602SOL     OW37684   2.214   2.139  16.217
 8602SOL    HW137685   2.245   2.148  16.127
 8602SOL    HW237686   2.192   2.228  16.244
 8603SOL     OW37687   4.478   4.767   0.286
 8603SOL    HW137688   4.551   4.751   0.345
 8603SOL    HW237689   4.498   0.062   0.246
 8604SOL     OW37690   3.651   2.907  21.230
 8604SOL    HW137691   3.622   2.966   0.043
 8604SOL    HW237692   3.575   2.852  21.212
 8605SOL     OW37693   3.612   1.665   1.323
 8605SOL    HW137694   3.551   1.730   1.358
 8605SOL    HW237695   3.640   1.616   1.400
 8606SOL     OW37696   4.676   0.104   2.396
 8606SOL    HW137697   4.695   0.185   2.348
 8606SOL    HW237698   4.731   0.110   2.474
 8607SOL     OW37699   0.573   3.932   1.243
 8607SOL    HW137700   0.530   4.009   1.280
 8607SOL    HW237701   0.502   3.869   1.230
 8608SOL     OW37702   1.890   3.854   3.291
 8608SOL    HW137703   1.982   3.828   3.291
 8608SOL    HW237704   1.851   3.807   3.364
 8609SOL     OW37705   2.601   2.916  12.949
 8609SOL    HW137706   2.520   2.873  12.921
 8609SOL    HW237707   2.640   2.856  13.012
 8610SOL     OW37708   1.721   2.299   5.299
 8610SOL    HW137709   1.663   2.333   5.367
 8610SOL    HW237710   1.678   2.323   5.217
 8611SOL     OW37711   2.966   3.444   2.273
 8611SOL    HW137712   3.056   3.444   2.240
 8611SOL    HW237713   2.975   3.447   2.368
 8612SOL     OW37714   1.362   3.453  14.518
 8612SOL    HW137715   1.457   3.442  14.514
 8612SOL    HW237716   1.337   3.483  14.431
 8613SOL     OW37717   0.803   4.197  20.932
 8613SOL    HW137718   0.728   4.187  20.873
 8613SOL    HW237719   0.857   4.119  20.916
 8614SOL     OW37720   4.506   0.752   3.769
 8614SOL    HW137721   4.546   0.731   3.684
 8614SOL    HW237722   4.517   0.847   3.778
 8615SOL     OW37723   1.386   2.183  20.914
 8615SOL    HW137724   1.312   2.181  20.853
 8615SOL    HW237725   1.351   2.225  20.993
 8616SOL     OW37726   4.002   0.118  19.482
 8616SOL    HW137727   4.060   0.061  19.532
 8616SOL    HW237728   3.983   0.191  19.541
 8617SOL     OW37729   1.740   2.420   4.087
 8617SOL    HW137730   1.798   2.441   4.160
 8617SOL    HW237731   1.674   2.489   4.089
 8618SOL     OW37732   0.772   1.270  21.218
 8618SOL    HW137733   0.784   1.341  21.155
 8618SOL    HW237734   0.774   1.190  21.165
 8619SOL     OW37735   1.427   2.250  16.384
 8619SOL    HW137736   1.412   2.324  16.444
 8619SOL    HW237737   1.365   2.183  16.413
 8620SOL     OW37738   4.753   0.676   0.576
 8620SOL    HW137739   4.748   0.719   0.491
 8620SOL    HW237740   4.777   0.586   0.556
 8621SOL     OW37741   2.641   3.612   4.717
 8621SOL    HW137742   2.680   3.651   4.639
 8621SOL    HW237743   2.604   3.686   4.765
 8622SOL     OW37744   2.214   3.714   8.602
 8622SOL    HW137745   2.229   3.658   8.678
 8622SOL    HW237746   2.133   3.761   8.622
 8623SOL     OW37747   3.668   3.901  18.921
 8623SOL    HW137748   3.755   3.937  18.941
 8623SOL    HW237749   3.663   3.901  18.825
 8624SOL     OW37750   3.771   4.567   0.043
 8624SOL    HW137751   3.780   4.484   0.089
 8624SOL    HW237752   3.681   4.595   0.061
 8625SOL     OW37753   3.101   2.516  16.540
 8625SOL    HW137754   3.066   2.427  16.545
 8625SOL    HW237755   3.077   2.557  16.623
 8626SOL     OW37756   0.004   0.869   3.769
 8626SOL    HW137757   0.024   0.815   3.845
 8626SOL    HW237758   0.001   0.807   3.696
 8627SOL     OW37759   1.926   3.733   8.977
 8627SOL    HW137760   1.999   3.719   9.037
 8627SOL    HW237761   1.959   3.795   8.912
 8628SOL     OW37762   1.753   3.754  16.636
 8628SOL    HW137763   1.710   3.687  16.583
 8628SOL    HW237764   1.829   3.710  16.673
 8629SOL     OW37765   4.077   0.509  19.292
 8629SOL    HW137766   4.000   0.497  19.236
 8629SOL    HW237767   4.145   0.455  19.252
 8630SOL     OW37768   1.280   0.223   1.722
 8630SOL    HW137769   1.347   0.261   1.778
 8630SOL    HW237770   1.277   0.280   1.645
 8631SOL     OW37771   3.970   4.339  17.609
 8631SOL    HW137772   3.876   4.355  17.613
 8631SOL    HW237773   4.007   4.423  17.581
 8632SOL     OW37774   3.103   0.317  16.135
 8632SOL    HW137775   3.041   0.288  16.068
 8632SOL    HW237776   3.051   0.323  16.215
 8633SOL     OW37777   4.732   4.433  21.010
 8633SOL    HW137778   4.721   4.414  20.917
 8633SOL    HW237779   4.658   4.390  21.053
 8634SOL     OW37780   0.194   0.304  15.976
 8634SOL    HW137781   0.266   0.362  15.950
 8634SOL    HW237782   0.216   0.220  15.936
 8635SOL     OW37783   1.017   1.101   0.741
 8635SOL    HW137784   0.969   1.045   0.803
 8635SOL    HW237785   1.064   1.163   0.796
 8636SOL     OW37786   0.543   3.595  18.985
 8636SOL    HW137787   0.603   3.578  19.058
 8636SOL    HW237788   0.597   3.637  18.918
 8637SOL     OW37789   4.625   0.764  14.075
 8637SOL    HW137790   4.544   0.767  14.125
 8637SOL    HW237791   4.664   0.680  14.099
 8638SOL     OW37792   4.450   3.758  16.635
 8638SOL    HW137793   4.541   3.742  16.661
 8638SOL    HW237794   4.397   3.712  16.701
 8639SOL     OW37795   3.838   4.105   1.703
 8639SOL    HW137796   3.841   4.097   1.798
 8639SOL    HW237797   3.770   4.170   1.686
 8640SOL     OW37798   1.990   1.177   5.712
 8640SOL    HW137799   2.024   1.264   5.691
 8640SOL    HW237800   1.936   1.154   5.637
 8641SOL     OW37801   3.571   1.206  18.228
 8641SOL    HW137802   3.503   1.193  18.162
 8641SOL    HW237803   3.651   1.174  18.187
 8642SOL     OW37804   2.141   1.951   2.934
 8642SOL    HW137805   2.196   1.915   2.865
 8642SOL    HW237806   2.060   1.975   2.890
 8643SOL     OW37807   1.111   3.660   4.344
 8643SOL    HW137808   1.174   3.716   4.391
 8643SOL    HW237809   1.055   3.624   4.413
 8644SOL     OW37810   1.421   2.363  18.605
 8644SOL    HW137811   1.501   2.346  18.654
 8644SOL    HW237812   1.421   2.297  18.535
 8645SOL     OW37813   0.628   3.593  19.965
 8645SOL    HW137814   0.628   3.679  20.006
 8645SOL    HW237815   0.586   3.536  20.029
 8646SOL     OW37816   4.614   4.366  15.148
 8646SOL    HW137817   4.657   4.307  15.085
 8646SOL    HW237818   4.521   4.342  15.144
 8647SOL     OW37819   0.734   4.288   2.380
 8647SOL    HW137820   0.753   4.195   2.367
 8647SOL    HW237821   0.692   4.293   2.466
 8648SOL     OW37822   4.521   1.976   3.129
 8648SOL    HW137823   4.541   2.026   3.208
 8648SOL    HW237824   4.595   1.917   3.119
 8649SOL     OW37825   3.352   1.518  16.333
 8649SOL    HW137826   3.426   1.568  16.368
 8649SOL    HW237827   3.275   1.557  16.374
 8650SOL     OW37828   0.211   0.275  17.398
 8650SOL    HW137829   0.224   0.182  17.417
 8650SOL    HW237830   0.196   0.315  17.484
 8651SOL     OW37831   0.777   0.605   4.423
 8651SOL    HW137832   0.720   0.665   4.374
 8651SOL    HW237833   0.836   0.568   4.357
 8652SOL     OW37834   0.884   0.024  16.005
 8652SOL    HW137835   0.901   4.719  16.002
 8652SOL    HW237836   0.931   0.059  15.930
 8653SOL     OW37837   1.233   2.738   6.342
 8653SOL    HW137838   1.297   2.704   6.280
 8653SOL    HW237839   1.229   2.672   6.411
 8654SOL     OW37840   0.776   1.917  18.711
 8654SOL    HW137841   0.731   1.911  18.627
 8654SOL    HW237842   0.789   2.011  18.724
 8655SOL     OW37843   1.026   0.950  13.779
 8655SOL    HW137844   0.994   0.911  13.860
 8655SOL    HW237845   1.038   1.043  13.800
 8656SOL     OW37846   0.845   4.572  19.663
 8656SOL    HW137847   0.880   4.516  19.594
 8656SOL    HW237848   0.923   4.602  19.710
 8657SOL     OW37849   3.131   3.174   0.284
 8657SOL    HW137850   3.046   3.173   0.327
 8657SOL    HW237851   3.121   3.114   0.210
 8658SOL     OW37852   0.317   2.815   0.024
 8658SOL    HW137853   0.328   2.853   0.111
 8658SOL    HW237854   0.252   2.745   0.036
 8659SOL     OW37855   4.637   1.248   3.498
 8659SOL    HW137856   4.699   1.189   3.541
 8659SOL    HW237857   4.631   1.324   3.556
 8660SOL     OW37858   1.427   2.146  19.212
 8660SOL    HW137859   1.494   2.194  19.164
 8660SOL    HW237860   1.441   2.055  19.187
 8661SOL     OW37861   4.437   0.635  17.322
 8661SOL    HW137862   4.523   0.594  17.316
 8661SOL    HW237863   4.445   0.715  17.270
 8662SOL     OW37864   0.938   2.738   3.586
 8662SOL    HW137865   0.929   2.819   3.537
 8662SOL    HW237866   0.998   2.685   3.534
 8663SOL     OW37867   1.528   4.304   2.197
 8663SOL    HW137868   1.616   4.338   2.213
 8663SOL    HW237869   1.542   4.218   2.158
 8664SOL     OW37870   1.169   1.767  11.213
 8664SOL    HW137871   1.158   1.780  11.119
 8664SOL    HW237872   1.089   1.722  11.240
 8665SOL     OW37873   4.499   1.126   0.570
 8665SOL    HW137874   4.520   1.206   0.618
 8665SOL    HW237875   4.403   1.122   0.569
 8666SOL     OW37876   1.768   0.759   2.181
 8666SOL    HW137877   1.827   0.716   2.118
 8666SOL    HW237878   1.795   0.851   2.180
 8667SOL     OW37879   0.826   1.736  15.976
 8667SOL    HW137880   0.795   1.704  16.061
 8667SOL    HW237881   0.784   1.678  15.912
 8668SOL     OW37882   0.094   1.544   5.643
 8668SOL    HW137883   0.026   1.611   5.645
 8668SOL    HW237884   0.083   1.495   5.724
 8669SOL     OW37885   0.513   1.751   3.329
 8669SOL    HW137886   0.545   1.841   3.339
 8669SOL    HW237887   0.555   1.703   3.401
 8670SOL     OW37888   1.204   2.237  20.446
 8670SOL    HW137889   1.219   2.150  20.483
 8670SOL    HW237890   1.279   2.252  20.389
 8671SOL     OW37891   4.143   2.714  15.028
 8671SOL    HW137892   4.184   2.793  15.063
 8671SOL    HW237893   4.072   2.747  14.972
 8672SOL     OW37894   2.450   0.184   0.920
 8672SOL    HW137895   2.415   0.095   0.919
 8672SOL    HW237896   2.519   0.184   0.854
 8673SOL     OW37897   1.088   3.688   2.938
 8673SOL    HW137898   1.030   3.621   2.973
 8673SOL    HW237899   1.030   3.747   2.889
 8674SOL     OW37900   4.187   3.057   1.040
 8674SOL    HW137901   4.181   3.135   1.095
 8674SOL    HW237902   4.112   3.064   0.981
 8675SOL     OW37903   0.795   3.209   6.322
 8675SOL    HW137904   0.737   3.267   6.370
 8675SOL    HW237905   0.850   3.268   6.270
 8676SOL     OW37906   3.877   1.210  19.693
 8676SOL    HW137907   3.930   1.147  19.742
 8676SOL    HW237908   3.907   1.296  19.723
 8677SOL     OW37909   3.240   3.554   0.788
 8677SOL    HW137910   3.239   3.638   0.741
 8677SOL    HW237911   3.151   3.545   0.823
 8678SOL     OW37912   0.357   3.288  16.025
 8678SOL    HW137913   0.422   3.350  15.993
 8678SOL    HW237914   0.324   3.245  15.946
 8679SOL     OW37915   2.159   2.793   5.619
 8679SOL    HW137916   2.156   2.802   5.524
 8679SOL    HW237917   2.244   2.830   5.644
 8680SOL     OW37918   2.183   0.048   2.636
 8680SOL    HW137919   2.092   0.068   2.656
 8680SOL    HW237920   2.185   4.742   2.630
 8681SOL     OW37921   1.330   1.104  18.989
 8681SOL    HW137922   1.367   1.149  18.913
 8681SOL    HW237923   1.294   1.023  18.954
 8682SOL     OW37924   2.802   2.773  17.452
 8682SOL    HW137925   2.791   2.855  17.403
 8682SOL    HW237926   2.896   2.766  17.466
 8683SOL     OW37927   0.430   2.769   2.024
 8683SOL    HW137928   0.522   2.747   2.011
 8683SOL    HW237929   0.407   2.825   1.949
 8684SOL     OW37930   3.842   4.380  20.641
 8684SOL    HW137931   3.911   4.348  20.583
 8684SOL    HW237932   3.868   4.470  20.662
 8685SOL     OW37933   2.129   1.176   6.050
 8685SOL    HW137934   2.089   1.140   6.129
 8685SOL    HW237935   2.116   1.271   6.057
 8686SOL     OW37936   4.600   0.264  17.894
 8686SOL    HW137937   4.521   0.230  17.853
 8686SOL    HW237938   4.661   0.190  17.895
 8687SOL     OW37939   4.639   3.586  13.996
 8687SOL    HW137940   4.616   3.649  13.927
 8687SOL    HW237941   4.727   3.556  13.972
 8688SOL     OW37942   2.260   0.992  15.787
 8688SOL    HW137943   2.320   1.065  15.799
 8688SOL    HW237944   2.218   0.981  15.872
 8689SOL     OW37945   1.547   3.526   2.622
 8689SOL    HW137946   1.526   3.618   2.635
 8689SOL    HW237947   1.587   3.523   2.535
 8690SOL     OW37948   3.917   3.363  16.626
 8690SOL    HW137949   3.984   3.403  16.570
 8690SOL    HW237950   3.919   3.270  16.604
 8691SOL     OW37951   3.319   4.015   4.728
 8691SOL    HW137952   3.250   3.959   4.763
 8691SOL    HW237953   3.285   4.045   4.644
 8692SOL     OW37954   1.762   1.670   7.693
 8692SOL    HW137955   1.695   1.733   7.667
 8692SOL    HW237956   1.783   1.692   7.784
 8693SOL     OW37957   4.171   3.652   4.590
 8693SOL    HW137958   4.166   3.559   4.569
 8693SOL    HW237959   4.083   3.685   4.573
 8694SOL     OW37960   0.103   1.190   5.589
 8694SOL    HW137961   0.028   1.243   5.564
 8694SOL    HW237962   0.072   1.138   5.664
 8695SOL     OW37963   3.322   2.757  13.687
 8695SOL    HW137964   3.251   2.694  13.678
 8695SOL    HW237965   3.284   2.840  13.658
 8696SOL     OW37966   0.225   1.266   7.955
 8696SOL    HW137967   0.235   1.263   7.860
 8696SOL    HW237968   0.302   1.313   7.986
 8697SOL     OW37969   1.152   3.690   5.984
 8697SOL    HW137970   1.195   3.669   5.901
 8697SOL    HW237971   1.139   3.605   6.027
 8698SOL     OW37972   0.350   4.439  18.116
 8698SOL    HW137973   0.444   4.452  18.106
 8698SOL    HW237974   0.321   4.511  18.172
 8699SOL     OW37975   3.020   2.042  13.019
 8699SOL    HW137976   3.039   2.108  13.086
 8699SOL    HW237977   3.073   1.967  13.043
 8700SOL     OW37978   4.272   4.484   7.583
 8700SOL    HW137979   4.359   4.497   7.545
 8700SOL    HW237980   4.246   4.396   7.555
 8701SOL     OW37981   4.774   4.328   2.764
 8701SOL    HW137982   0.006   4.389   2.834
 8701SOL    HW237983   4.767   4.243   2.807
 8702SOL     OW37984   2.173   2.779  17.335
 8702SOL    HW137985   2.240   2.831  17.378
 8702SOL    HW237986   2.149   2.712  17.399
 8703SOL     OW37987   4.775   0.198   6.564
 8703SOL    HW137988   4.784   0.116   6.515
 8703SOL    HW237989   4.703   0.181   6.625
 8704SOL     OW37990   0.130   0.494  16.559
 8704SOL    HW137991   0.043   0.475  16.593
 8704SOL    HW237992   0.115   0.543  16.478
 8705SOL     OW37993   2.780   2.444  19.645
 8705SOL    HW137994   2.734   2.508  19.699
 8705SOL    HW237995   2.752   2.359  19.679
 8706SOL     OW37996   2.122   0.705  19.987
 8706SOL    HW137997   2.136   0.624  20.036
 8706SOL    HW237998   2.082   0.765  20.050
 8707SOL     OW37999   2.856   2.105   5.508
 8707SOL    HW138000   2.806   2.023   5.510
 8707SOL    HW238001   2.946   2.078   5.525
 8708SOL     OW38002   1.979   2.714   0.654
 8708SOL    HW138003   2.043   2.702   0.724
 8708SOL    HW238004   1.972   2.627   0.614
 8709SOL     OW38005   2.708   0.888  18.684
 8709SOL    HW138006   2.713   0.894  18.779
 8709SOL    HW238007   2.616   0.906  18.663
 8710SOL     OW38008   4.595   3.835  18.871
 8710SOL    HW138009   4.502   3.814  18.878
 8710SOL    HW238010   4.631   3.766  18.815
 8711SOL     OW38011   0.048   1.344   4.483
 8711SOL    HW138012   0.060   1.330   4.577
 8711SOL    HW238013   0.137   1.358   4.450
 8712SOL     OW38014   4.106   2.210   4.450
 8712SOL    HW138015   4.073   2.152   4.381
 8712SOL    HW238016   4.201   2.208   4.440
 8713SOL     OW38017   0.885   4.587   5.537
 8713SOL    HW138018   0.853   4.532   5.465
 8713SOL    HW238019   0.934   4.657   5.494
 8714SOL     OW38020   3.290   0.165   6.724
 8714SOL    HW138021   3.242   0.161   6.641
 8714SOL    HW238022   3.334   0.080   6.730
 8715SOL     OW38023   3.111   2.849   6.726
 8715SOL    HW138024   3.044   2.911   6.697
 8715SOL    HW238025   3.062   2.773   6.757
 8716SOL     OW38026   3.785   0.081  21.174
 8716SOL    HW138027   3.806   0.158  21.227
 8716SOL    HW238028   3.860   0.023  21.185
 8717SOL     OW38029   0.293   3.866   3.127
 8717SOL    HW138030   0.318   3.776   3.149
 8717SOL    HW238031   0.205   3.875   3.164
 8718SOL     OW38032   2.909   3.697  18.616
 8718SOL    HW138033   2.899   3.760  18.687
 8718SOL    HW238034   2.827   3.648  18.616
 8719SOL     OW38035   1.548   0.522  12.788
 8719SOL    HW138036   1.638   0.494  12.770
 8719SOL    HW238037   1.495   0.480  12.720
 8720SOL     OW38038   0.219   0.057  17.743
 8720SOL    HW138039   0.312   0.038  17.753
 8720SOL    HW238040   0.183   4.767  17.704
 8721SOL     OW38041   4.111   4.714  18.436
 8721SOL    HW138042   4.099   4.683  18.526
 8721SOL    HW238043   4.206   4.723  18.425
 8722SOL     OW38044   2.379   0.352   1.834
 8722SOL    HW138045   2.389   0.439   1.873
 8722SOL    HW238046   2.466   0.331   1.799
 8723SOL     OW38047   3.063   4.462   3.361
 8723SOL    HW138048   2.998   4.532   3.356
 8723SOL    HW238049   3.085   4.443   3.270
 8724SOL     OW38050   3.475   3.946  15.799
 8724SOL    HW138051   3.456   3.974  15.888
 8724SOL    HW238052   3.567   3.969  15.785
 8725SOL     OW38053   3.535   1.634  16.501
 8725SOL    HW138054   3.558   1.726  16.514
 8725SOL    HW238055   3.616   1.594  16.469
 8726SOL     OW38056   1.939   1.931   3.603
 8726SOL    HW138057   1.919   2.016   3.564
 8726SOL    HW238058   1.855   1.886   3.605
 8727SOL     OW38059   0.701   3.643   2.268
 8727SOL    HW138060   0.613   3.613   2.289
 8727SOL    HW238061   0.746   3.647   2.352
 8728SOL     OW38062   4.134   4.438  16.488
 8728SOL    HW138063   4.118   4.363  16.545
 8728SOL    HW238064   4.117   4.514  16.543
 8729SOL     OW38065   1.246   0.827   4.715
 8729SOL    HW138066   1.194   0.829   4.795
 8729SOL    HW238067   1.250   0.734   4.691
 8730SOL     OW38068   4.622   0.613  21.012
 8730SOL    HW138069   4.650   0.688  20.960
 8730SOL    HW238070   4.691   0.602  21.078
 8731SOL     OW38071   4.176   2.266  21.247
 8731SOL    HW138072   4.109   2.198  21.245
 8731SOL    HW238073   4.228   2.252  21.168
 8732SOL     OW38074   4.157   3.878   3.281
 8732SOL    HW138075   4.093   3.946   3.259
 8732SOL    HW238076   4.114   3.827   3.349
 8733SOL     OW38077   0.107   0.503  15.329
 8733SOL    HW138078   0.019   0.527  15.301
 8733SOL    HW238079   0.095   0.462  15.415
 8734SOL     OW38080   0.327   4.553   7.142
 8734SOL    HW138081   0.403   4.602   7.110
 8734SOL    HW238082   0.253   4.590   7.093
 8735SOL     OW38083   1.939   0.074  20.953
 8735SOL    HW138084   2.025   0.108  20.928
 8735SOL    HW238085   1.953   4.770  20.967
 8736SOL     OW38086   3.639   2.474  16.939
 8736SOL    HW138087   3.693   2.475  17.018
 8736SOL    HW238088   3.572   2.540  16.955
 8737SOL     OW38089   0.122   2.940  17.783
 8737SOL    HW138090   0.173   2.953  17.703
 8737SOL    HW238091   0.170   2.988  17.851
 8738SOL     OW38092   1.404   4.526   0.656
 8738SOL    HW138093   1.314   4.501   0.677
 8738SOL    HW238094   1.443   4.547   0.741
 8739SOL     OW38095   0.315   4.720   3.089
 8739SOL    HW138096   0.408   4.704   3.072
 8739SOL    HW238097   0.285   4.642   3.136
 8740SOL     OW38098   2.467   3.110   2.365
 8740SOL    HW138099   2.557   3.101   2.396
 8740SOL    HW238100   2.414   3.078   2.438
 8741SOL     OW38101   4.317   3.280  14.901
 8741SOL    HW138102   4.290   3.188  14.898
 8741SOL    HW238103   4.409   3.278  14.929
 8742SOL     OW38104   2.083   1.206  16.967
 8742SOL    HW138105   2.016   1.272  16.947
 8742SOL    HW238106   2.057   1.172  17.053
 8743SOL     OW38107   0.496   4.571  17.331
 8743SOL    HW138108   0.581   4.613  17.346
 8743SOL    HW238109   0.510   4.480  17.357
 8744SOL     OW38110   2.171   2.353  18.641
 8744SOL    HW138111   2.099   2.361  18.579
 8744SOL    HW238112   2.191   2.259  18.643
 8745SOL     OW38113   4.224   2.217   6.049
 8745SOL    HW138114   4.149   2.276   6.041
 8745SOL    HW238115   4.237   2.183   5.961
 8746SOL     OW38116   0.462   3.158  18.562
 8746SOL    HW138117   0.434   3.231  18.507
 8746SOL    HW238118   0.463   3.194  18.651
 8747SOL     OW38119   2.699   3.163   5.621
 8747SOL    HW138120   2.673   3.165   5.529
 8747SOL    HW238121   2.662   3.081   5.654
 8748SOL     OW38122   2.423   0.194   6.355
 8748SOL    HW138123   2.472   0.238   6.285
 8748SOL    HW238124   2.353   0.148   6.310
 8749SOL     OW38125   1.848   1.721   0.126
 8749SOL    HW138126   1.789   1.781   0.080
 8749SOL    HW238127   1.905   1.778   0.178
 8750SOL     OW38128   1.367   4.537  15.959
 8750SOL    HW138129   1.395   4.628  15.968
 8750SOL    HW238130   1.437   4.496  15.908
 8751SOL     OW38131   4.502   4.776  20.461
 8751SOL    HW138132   4.482   4.685  20.441
 8751SOL    HW238133   4.417   0.025  20.481
 8752SOL     OW38134   3.841   1.230  13.817
 8752SOL    HW138135   3.754   1.267  13.833
 8752SOL    HW238136   3.826   1.136  13.806
 8753SOL     OW38137   2.253   0.485  13.654
 8753SOL    HW138138   2.179   0.426  13.664
 8753SOL    HW238139   2.330   0.429  13.664
 8754SOL     OW38140   1.411   0.513   7.148
 8754SOL    HW138141   1.340   0.460   7.185
 8754SOL    HW238142   1.369   0.595   7.121
 8755SOL     OW38143   2.426   4.128   2.604
 8755SOL    HW138144   2.514   4.118   2.568
 8755SOL    HW238145   2.397   4.039   2.623
 8756SOL     OW38146   2.381   3.810   3.833
 8756SOL    HW138147   2.460   3.756   3.825
 8756SOL    HW238148   2.349   3.792   3.921
 8757SOL     OW38149   0.390   3.281   1.445
 8757SOL    HW138150   0.317   3.277   1.507
 8757SOL    HW238151   0.465   3.250   1.495
 8758SOL     OW38152   2.490   2.081   8.123
 8758SOL    HW138153   2.467   2.164   8.164
 8758SOL    HW238154   2.496   2.019   8.196
 8759SOL     OW38155   4.343   4.725  15.334
 8759SOL    HW138156   4.297   4.774  15.402
 8759SOL    HW238157   4.275   4.705  15.270
 8760SOL     OW38158   4.063   3.153   9.469
 8760SOL    HW138159   4.109   3.223   9.516
 8760SOL    HW238160   4.110   3.146   9.386
 8761SOL     OW38161   3.173   0.705   1.657
 8761SOL    HW138162   3.261   0.691   1.621
 8761SOL    HW238163   3.142   0.785   1.614
 8762SOL     OW38164   1.024   3.709  18.562
 8762SOL    HW138165   1.084   3.771  18.603
 8762SOL    HW238166   1.064   3.690  18.477
 8763SOL     OW38167   2.975   2.572  12.711
 8763SOL    HW138168   2.964   2.526  12.628
 8763SOL    HW238169   2.912   2.644  12.707
 8764SOL     OW38170   0.561   1.652   2.605
 8764SOL    HW138171   0.588   1.644   2.514
 8764SOL    HW238172   0.557   1.562   2.637
 8765SOL     OW38173   4.340   3.699  19.465
 8765SOL    HW138174   4.406   3.645  19.421
 8765SOL    HW238175   4.261   3.645  19.464
 8766SOL     OW38176   2.508   4.718   3.570
 8766SOL    HW138177   2.496   0.023   3.564
 8766SOL    HW238178   2.423   4.684   3.598
 8767SOL     OW38179   0.069   0.525  20.428
 8767SOL    HW138180   0.039   0.597  20.483
 8767SOL    HW238181   0.158   0.550  20.403
 8768SOL     OW38182   1.189   0.307  13.628
 8768SOL    HW138183   1.204   0.371  13.698
 8768SOL    HW238184   1.206   0.355  13.547
 8769SOL     OW38185   3.271   3.479   2.430
 8769SOL    HW138186   3.260   3.441   2.343
 8769SOL    HW238187   3.346   3.432   2.468
 8770SOL     OW38188   2.589   2.922   5.439
 8770SOL    HW138189   2.609   2.933   5.532
 8770SOL    HW238190   2.524   2.852   5.437
 8771SOL     OW38191   3.175   3.165   3.606
 8771SOL    HW138192   3.144   3.088   3.559
 8771SOL    HW238193   3.190   3.134   3.695
 8772SOL     OW38194   3.072   2.127   0.444
 8772SOL    HW138195   3.064   2.111   0.350
 8772SOL    HW238196   2.988   2.098   0.480
 8773SOL     OW38197   1.157   0.446   1.172
 8773SOL    HW138198   1.230   0.508   1.171
 8773SOL    HW238199   1.080   0.499   1.150
 8774SOL     OW38200   3.779   1.895   4.436
 8774SOL    HW138201   3.865   1.919   4.402
 8774SOL    HW238202   3.796   1.864   4.525
 8775SOL     OW38203   3.448   2.656  16.992
 8775SOL    HW138204   3.474   2.731  16.939
 8775SOL    HW238205   3.353   2.651  16.982
 8776SOL     OW38206   1.665   4.261  17.426
 8776SOL    HW138207   1.628   4.337  17.381
 8776SOL    HW238208   1.757   4.259  17.398
 8777SOL     OW38209   3.122   2.029   5.397
 8777SOL    HW138210   3.067   1.953   5.416
 8777SOL    HW238211   3.205   2.011   5.440
 8778SOL     OW38212   1.910   1.618  18.399
 8778SOL    HW138213   1.971   1.613  18.325
 8778SOL    HW238214   1.966   1.631  18.475
 8779SOL     OW38215   3.085   0.119  17.980
 8779SOL    HW138216   3.119   0.105  18.068
 8779SOL    HW238217   3.154   0.087  17.922
 8780SOL     OW38218   4.254   3.078   7.172
 8780SOL    HW138219   4.206   2.997   7.157
 8780SOL    HW238220   4.192   3.148   7.150
 8781SOL     OW38221   3.957   1.324  20.823
 8781SOL    HW138222   3.956   1.295  20.914
 8781SOL    HW238223   3.914   1.254  20.774
 8782SOL     OW38224   4.087   4.561  17.733
 8782SOL    HW138225   4.072   4.534  17.824
 8782SOL    HW238226   4.169   4.518  17.709
 8783SOL     OW38227   2.273   0.708  17.723
 8783SOL    HW138228   2.211   0.779  17.736
 8783SOL    HW238229   2.349   0.750  17.682
 8784SOL     OW38230   0.831   0.916   3.475
 8784SOL    HW138231   0.823   0.844   3.413
 8784SOL    HW238232   0.879   0.984   3.427
 8785SOL     OW38233   2.515   2.802   5.973
 8785SOL    HW138234   2.531   2.771   6.062
 8785SOL    HW238235   2.540   2.894   5.975
 8786SOL     OW38236   3.057   1.846  17.403
 8786SOL    HW138237   3.137   1.800  17.430
 8786SOL    HW238238   3.082   1.939  17.401
 8787SOL     OW38239   4.270   4.486  14.320
 8787SOL    HW138240   4.312   4.401  14.305
 8787SOL    HW238241   4.186   4.479  14.274
 8788SOL     OW38242   1.997   3.988   6.992
 8788SOL    HW138243   1.984   3.899   6.958
 8788SOL    HW238244   1.982   4.045   6.916
 8789SOL     OW38245   1.535   0.709  19.208
 8789SOL    HW138246   1.528   0.650  19.133
 8789SOL    HW238247   1.565   0.653  19.279
 8790SOL     OW38248   2.989   0.608  17.864
 8790SOL    HW138249   2.972   0.529  17.915
 8790SOL    HW238250   3.076   0.595  17.827
 8791SOL     OW38251   2.868   3.196  21.049
 8791SOL    HW138252   2.853   3.139  20.974
 8791SOL    HW238253   2.781   3.228  21.073
 8792SOL     OW38254   3.391   3.085   5.995
 8792SOL    HW138255   3.438   3.010   5.958
 8792SOL    HW238256   3.364   3.136   5.919
 8793SOL     OW38257   2.701   0.659   1.990
 8793SOL    HW138258   2.706   0.726   2.058
 8793SOL    HW238259   2.749   0.585   2.026
 8794SOL     OW38260   0.513   4.219   7.517
 8794SOL    HW138261   0.532   4.310   7.493
 8794SOL    HW238262   0.432   4.198   7.471
 8795SOL     OW38263   4.786   0.661  17.595
 8795SOL    HW138264   4.785   0.618  17.680
 8795SOL    HW238265   4.694   0.677  17.574
 8796SOL     OW38266   2.623   3.137  16.877
 8796SOL    HW138267   2.665   3.206  16.826
 8796SOL    HW238268   2.609   3.176  16.963
 8797SOL     OW38269   0.102   2.132  19.787
 8797SOL    HW138270   0.126   2.077  19.712
 8797SOL    HW238271   0.083   2.070  19.857
 8798SOL     OW38272   2.855   1.516   5.756
 8798SOL    HW138273   2.789   1.522   5.825
 8798SOL    HW238274   2.808   1.482   5.680
 8799SOL     OW38275   3.454   2.942   4.634
 8799SOL    HW138276   3.405   3.004   4.688
 8799SOL    HW238277   3.487   2.877   4.696
 8800SOL     OW38278   3.462   2.641  20.988
 8800SOL    HW138279   3.502   2.555  21.003
 8800SOL    HW238280   3.526   2.688  20.934
 8801SOL     OW38281   0.104   3.332  15.279
 8801SOL    HW138282   0.147   3.396  15.335
 8801SOL    HW238283   0.028   3.378  15.244
 8802SOL     OW38284   3.706   1.587   2.378
 8802SOL    HW138285   3.791   1.550   2.399
 8802SOL    HW238286   3.646   1.546   2.440
 8803SOL     OW38287   2.338   1.057  17.221
 8803SOL    HW138288   2.429   1.027  17.214
 8803SOL    HW238289   2.286   0.977  17.218
 8804SOL     OW38290   4.551   2.436   0.551
 8804SOL    HW138291   4.573   2.347   0.522
 8804SOL    HW238292   4.620   2.458   0.614
 8805SOL     OW38293   3.154   1.413  17.773
 8805SOL    HW138294   3.180   1.329  17.735
 8805SOL    HW238295   3.085   1.446  17.715
 8806SOL     OW38296   3.442   3.886   0.056
 8806SOL    HW138297   3.390   3.941  21.255
 8806SOL    HW238298   3.466   3.810   0.002
 8807SOL     OW38299   1.176   3.248   9.093
 8807SOL    HW138300   1.242   3.248   9.162
 8807SOL    HW238301   1.104   3.196   9.129
 8808SOL     OW38302   0.762   3.664   0.223
 8808SOL    HW138303   0.678   3.656   0.178
 8808SOL    HW238304   0.771   3.582   0.271
 8809SOL     OW38305   4.650   1.532  18.246
 8809SOL    HW138306   4.565   1.567  18.271
 8809SOL    HW238307   4.713   1.583  18.297
 8810SOL     OW38308   4.418   4.618  15.059
 8810SOL    HW138309   4.355   4.556  15.095
 8810SOL    HW238310   4.473   4.566  15.000
 8811SOL     OW38311   3.906   3.971  18.102
 8811SOL    HW138312   3.903   4.054  18.150
 8811SOL    HW238313   3.876   3.993  18.014
 8812SOL     OW38314   0.617   1.004  14.369
 8812SOL    HW138315   0.612   1.074  14.434
 8812SOL    HW238316   0.543   0.947  14.390
 8813SOL     OW38317   3.241   4.065   5.434
 8813SOL    HW138318   3.288   4.066   5.517
 8813SOL    HW238319   3.308   4.044   5.369
 8814SOL     OW38320   0.736   3.534  18.812
 8814SOL    HW138321   0.733   3.443  18.843
 8814SOL    HW238322   0.801   3.576  18.869
 8815SOL     OW38323   2.228   4.061   0.257
 8815SOL    HW138324   2.145   4.032   0.218
 8815SOL    HW238325   2.254   3.989   0.315
 8816SOL     OW38326   1.076   1.885  16.928
 8816SOL    HW138327   1.113   1.823  16.865
 8816SOL    HW238328   1.146   1.948  16.943
 8817SOL     OW38329   3.168   3.801  17.047
 8817SOL    HW138330   3.246   3.770  17.093
 8817SOL    HW238331   3.178   3.768  16.958
 8818SOL     OW38332   3.146   4.290   1.174
 8818SOL    HW138333   3.227   4.316   1.130
 8818SOL    HW238334   3.096   4.244   1.107
 8819SOL     OW38335   1.702   0.657   1.441
 8819SOL    HW138336   1.620   0.644   1.393
 8819SOL    HW238337   1.755   0.712   1.383
 8820SOL     OW38338   4.766   2.848  19.412
 8820SOL    HW138339   4.777   2.900  19.492
 8820SOL    HW238340   4.671   2.844  19.399
 8821SOL     OW38341   3.871   3.214   0.659
 8821SOL    HW138342   3.797   3.271   0.680
 8821SOL    HW238343   3.839   3.158   0.589
 8822SOL     OW38344   0.992   0.619  20.671
 8822SOL    HW138345   0.984   0.657  20.759
 8822SOL    HW238346   1.076   0.574  20.672
 8823SOL     OW38347   1.353   0.767   3.801
 8823SOL    HW138348   1.339   0.697   3.737
 8823SOL    HW238349   1.440   0.750   3.837
 8824SOL     OW38350   0.091   2.061  20.240
 8824SOL    HW138351   0.173   2.041  20.196
 8824SOL    HW238352   0.050   2.128  20.185
 8825SOL     OW38353   0.858   1.203  17.023
 8825SOL    HW138354   0.815   1.206  16.937
 8825SOL    HW238355   0.792   1.166  17.082
 8826SOL     OW38356   4.265   0.906  18.530
 8826SOL    HW138357   4.334   0.856  18.487
 8826SOL    HW238358   4.294   0.997  18.525
 8827SOL     OW38359   2.682   1.622   3.830
 8827SOL    HW138360   2.614   1.660   3.886
 8827SOL    HW238361   2.745   1.693   3.817
 8828SOL     OW38362   0.973   1.478   3.757
 8828SOL    HW138363   1.041   1.476   3.689
 8828SOL    HW238364   0.956   1.571   3.770
 8829SOL     OW38365   0.240   1.399  16.124
 8829SOL    HW138366   0.233   1.475  16.182
 8829SOL    HW238367   0.309   1.345  16.163
 8830SOL     OW38368   1.909   4.134   1.374
 8830SOL    HW138369   1.960   4.060   1.341
 8830SOL    HW238370   1.935   4.207   1.318
 8831SOL     OW38371   3.469   0.642  20.167
 8831SOL    HW138372   3.432   0.700  20.234
 8831SOL    HW238373   3.461   0.554  20.204
 8832SOL     OW38374   1.038   3.074   2.445
 8832SOL    HW138375   1.037   3.166   2.472
 8832SOL    HW238376   0.950   3.042   2.466
 8833SOL     OW38377   3.415   1.371   5.188
 8833SOL    HW138378   3.467   1.451   5.193
 8833SOL    HW238379   3.441   1.331   5.105
 8834SOL     OW38380   1.472   0.487   2.828
 8834SOL    HW138381   1.515   0.549   2.887
 8834SOL    HW238382   1.507   0.508   2.742
 8835SOL     OW38383   2.734   4.731   4.930
 8835SOL    HW138384   2.783   4.665   4.980
 8835SOL    HW238385   2.801   0.001   4.898
 8836SOL     OW38386   3.644   3.768   6.562
 8836SOL    HW138387   3.736   3.775   6.586
 8836SOL    HW238388   3.598   3.763   6.646
 8837SOL     OW38389   3.915   1.010   1.344
 8837SOL    HW138390   3.977   0.984   1.412
 8837SOL    HW238391   3.969   1.044   1.273
 8838SOL     OW38392   4.312   0.740   0.377
 8838SOL    HW138393   4.394   0.786   0.358
 8838SOL    HW238394   4.339   0.651   0.401
 8839SOL     OW38395   0.747   0.408   7.263
 8839SOL    HW138396   0.827   0.395   7.212
 8839SOL    HW238397   0.741   0.503   7.273
 8840SOL     OW38398   1.245   2.961  13.895
 8840SOL    HW138399   1.186   3.020  13.942
 8840SOL    HW238400   1.191   2.923  13.826
 8841SOL     OW38401   2.722   2.436   1.246
 8841SOL    HW138402   2.701   2.377   1.319
 8841SOL    HW238403   2.695   2.388   1.168
 8842SOL     OW38404   1.188   4.374   1.384
 8842SOL    HW138405   1.281   4.371   1.361
 8842SOL    HW238406   1.145   4.411   1.307
 8843SOL     OW38407   0.456   1.893   2.367
 8843SOL    HW138408   0.549   1.875   2.353
 8843SOL    HW238409   0.415   1.807   2.369
 8844SOL     OW38410   1.565   3.050  15.636
 8844SOL    HW138411   1.516   3.047  15.554
 8844SOL    HW238412   1.531   2.977  15.688
 8845SOL     OW38413   4.428   2.762   0.138
 8845SOL    HW138414   4.345   2.729   0.104
 8845SOL    HW238415   4.403   2.816   0.213
 8846SOL     OW38416   1.590   3.105  20.556
 8846SOL    HW138417   1.552   3.134  20.473
 8846SOL    HW238418   1.528   3.041  20.589
 8847SOL     OW38419   4.025   2.758  20.173
 8847SOL    HW138420   3.994   2.832  20.120
 8847SOL    HW238421   4.118   2.751  20.152
 8848SOL     OW38422   1.821   1.509  16.492
 8848SOL    HW138423   1.895   1.455  16.466
 8848SOL    HW238424   1.847   1.598  16.469
 8849SOL     OW38425   1.719   0.313  16.279
 8849SOL    HW138426   1.712   0.397  16.234
 8849SOL    HW238427   1.748   0.252  16.211
 8850SOL     OW38428   4.421   3.419  14.038
 8850SOL    HW138429   4.423   3.433  14.133
 8850SOL    HW238430   4.493   3.472  14.004
 8851SOL     OW38431   4.342   4.601  17.266
 8851SOL    HW138432   4.425   4.633  17.302
 8851SOL    HW238433   4.281   4.675  17.276
 8852SOL     OW38434   1.924   3.619  17.993
 8852SOL    HW138435   1.873   3.686  17.947
 8852SOL    HW238436   1.892   3.536  17.957
 8853SOL     OW38437   0.424   0.128  13.124
 8853SOL    HW138438   0.356   0.139  13.058
 8853SOL    HW238439   0.498   0.091  13.076
 8854SOL     OW38440   0.564   3.328  17.334
 8854SOL    HW138441   0.633   3.263  17.328
 8854SOL    HW238442   0.567   3.374  17.250
 8855SOL     OW38443   4.389   2.888   4.587
 8855SOL    HW138444   4.395   2.981   4.565
 8855SOL    HW238445   4.345   2.848   4.512
 8856SOL     OW38446   0.263   3.310  19.703
 8856SOL    HW138447   0.337   3.249  19.697
 8856SOL    HW238448   0.260   3.352  19.617
 8857SOL     OW38449   2.163   2.967  17.933
 8857SOL    HW138450   2.183   3.048  17.980
 8857SOL    HW238451   2.214   2.900  17.978
 8858SOL     OW38452   4.378   2.438   2.185
 8858SOL    HW138453   4.436   2.506   2.220
 8858SOL    HW238454   4.434   2.361   2.177
 8859SOL     OW38455   0.154   4.036   0.710
 8859SOL    HW138456   0.074   3.984   0.718
 8859SOL    HW238457   0.200   4.022   0.793
 8860SOL     OW38458   2.195   3.558   1.719
 8860SOL    HW138459   2.286   3.529   1.710
 8860SOL    HW238460   2.158   3.551   1.631
 8861SOL     OW38461   3.111   1.261  16.197
 8861SOL    HW138462   3.143   1.351  16.188
 8861SOL    HW238463   3.160   1.225  16.271
 8862SOL     OW38464   2.290   1.196  15.417
 8862SOL    HW138465   2.259   1.121  15.366
 8862SOL    HW238466   2.376   1.169  15.449
 8863SOL     OW38467   2.952   4.344  13.152
 8863SOL    HW138468   2.966   4.359  13.246
 8863SOL    HW238469   3.023   4.392  13.109
 8864SOL     OW38470   1.442   4.705   5.701
 8864SOL    HW138471   1.435   4.725   5.794
 8864SOL    HW238472   1.354   4.678   5.676
 8865SOL     OW38473   4.394   1.855  15.585
 8865SOL    HW138474   4.364   1.826  15.671
 8865SOL    HW238475   4.459   1.790  15.559
 8866SOL     OW38476   1.463   0.800  16.321
 8866SOL    HW138477   1.541   0.840  16.360
 8866SOL    HW238478   1.390   0.837  16.370
 8867SOL     OW38479   2.102   0.527  16.285
 8867SOL    HW138480   2.149   0.552  16.364
 8867SOL    HW238481   2.088   0.433  16.293
 8868SOL     OW38482   2.500   3.148   4.690
 8868SOL    HW138483   2.505   3.184   4.779
 8868SOL    HW238484   2.580   3.178   4.647
 8869SOL     OW38485   1.670   2.514  20.411
 8869SOL    HW138486   1.662   2.600  20.369
 8869SOL    HW238487   1.630   2.453  20.349
 8870SOL     OW38488   1.362   4.224   1.898
 8870SOL    HW138489   1.347   4.183   1.813
 8870SOL    HW238490   1.444   4.272   1.887
 8871SOL     OW38491   4.760   4.535  16.545
 8871SOL    HW138492   4.739   4.500  16.459
 8871SOL    HW238493   4.690   4.598  16.563
 8872SOL     OW38494   2.527   4.063  17.155
 8872SOL    HW138495   2.568   3.979  17.134
 8872SOL    HW238496   2.599   4.117  17.187
 8873SOL     OW38497   3.148   1.064   2.600
 8873SOL    HW138498   3.186   1.019   2.525
 8873SOL    HW238499   3.097   1.135   2.562
 8874SOL     OW38500   0.528   0.210  17.549
 8874SOL    HW138501   0.544   0.283  17.489
 8874SOL    HW238502   0.500   0.252  17.630
 8875SOL     OW38503   1.669   1.848   6.039
 8875SOL    HW138504   1.594   1.901   6.013
 8875SOL    HW238505   1.641   1.804   6.119
 8876SOL     OW38506   0.170   3.094   2.169
 8876SOL    HW138507   0.209   3.070   2.253
 8876SOL    HW238508   0.244   3.100   2.109
 8877SOL     OW38509   3.959   3.592  16.402
 8877SOL    HW138510   3.990   3.680  16.425
 8877SOL    HW238511   3.864   3.600  16.399
 8878SOL     OW38512   3.495   2.670   3.789
 8878SOL    HW138513   3.498   2.597   3.727
 8878SOL    HW238514   3.407   2.706   3.781
 8879SOL     OW38515   1.681   4.113  21.047
 8879SOL    HW138516   1.655   4.119  20.955
 8879SOL    HW238517   1.771   4.080  21.044
 8880SOL     OW38518   4.463   2.627   2.823
 8880SOL    HW138519   4.430   2.563   2.760
 8880SOL    HW238520   4.492   2.701   2.770
 8881SOL     OW38521   3.896   3.140   0.135
 8881SOL    HW138522   3.856   3.190   0.064
 8881SOL    HW238523   3.904   3.051   0.101
 8882SOL     OW38524   0.926   3.039  17.731
 8882SOL    HW138525   0.964   3.127  17.729
 8882SOL    HW238526   0.846   3.046  17.679
 8883SOL     OW38527   4.377   4.276   3.064
 8883SOL    HW138528   4.447   4.215   3.087
 8883SOL    HW238529   4.423   4.355   3.037
 8884SOL     OW38530   3.992   1.349   3.511
 8884SOL    HW138531   4.049   1.284   3.470
 8884SOL    HW238532   4.020   1.351   3.603
 8885SOL     OW38533   2.903   1.103   4.626
 8885SOL    HW138534   2.888   1.050   4.704
 8885SOL    HW238535   2.936   1.041   4.561
 8886SOL     OW38536   2.624   2.121  16.923
 8886SOL    HW138537   2.544   2.141  16.971
 8886SOL    HW238538   2.600   2.048  16.866
 8887SOL     OW38539   0.899   0.282  20.816
 8887SOL    HW138540   0.967   0.246  20.760
 8887SOL    HW238541   0.940   0.290  20.902
 8888SOL     OW38542   2.680   2.218   0.432
 8888SOL    HW138543   2.731   2.224   0.351
 8888SOL    HW238544   2.599   2.175   0.405
 8889SOL     OW38545   2.009   3.259   6.203
 8889SOL    HW138546   2.080   3.249   6.267
 8889SOL    HW238547   1.930   3.236   6.251
 8890SOL     OW38548   4.095   2.262  18.498
 8890SOL    HW138549   4.056   2.245  18.584
 8890SOL    HW238550   4.023   2.248  18.436
 8891SOL     OW38551   2.511   1.391   6.622
 8891SOL    HW138552   2.524   1.367   6.530
 8891SOL    HW238553   2.437   1.337   6.651
 8892SOL     OW38554   2.242   1.900  16.350
 8892SOL    HW138555   2.338   1.895  16.352
 8892SOL    HW238556   2.224   1.980  16.301
 8893SOL     OW38557   3.770   0.747   1.862
 8893SOL    HW138558   3.702   0.769   1.925
 8893SOL    HW238559   3.852   0.758   1.911
 8894SOL     OW38560   0.507   0.801   0.768
 8894SOL    HW138561   0.538   0.721   0.810
 8894SOL    HW238562   0.439   0.772   0.707
 8895SOL     OW38563   1.673   2.212  16.252
 8895SOL    HW138564   1.643   2.190  16.164
 8895SOL    HW238565   1.593   2.235  16.300
 8896SOL     OW38566   1.139   0.230   5.402
 8896SOL    HW138567   1.202   0.221   5.473
 8896SOL    HW238568   1.063   0.271   5.443
 8897SOL     OW38569   3.191   2.993  20.489
 8897SOL    HW138570   3.234   3.007  20.405
 8897SOL    HW238571   3.146   3.075  20.508
 8898SOL     OW38572   3.588   1.698  19.365
 8898SOL    HW138573   3.535   1.768  19.327
 8898SOL    HW238574   3.669   1.741  19.392
 8899SOL     OW38575   3.308   2.187  15.990
 8899SOL    HW138576   3.298   2.095  15.967
 8899SOL    HW238577   3.364   2.223  15.922
 8900SOL     OW38578   0.276   2.095   7.582
 8900SOL    HW138579   0.357   2.044   7.581
 8900SOL    HW238580   0.265   2.123   7.491
 8901SOL     OW38581   4.161   0.055  15.115
 8901SOL    HW138582   4.086   0.046  15.174
 8901SOL    HW238583   4.144   4.781  15.046
 8902SOL     OW38584   3.086   1.164   4.290
 8902SOL    HW138585   3.050   1.183   4.204
 8902SOL    HW238586   3.047   1.229   4.348
 8903SOL     OW38587   3.746   2.183  20.545
 8903SOL    HW138588   3.683   2.132  20.494
 8903SOL    HW238589   3.829   2.135  20.535
 8904SOL     OW38590   0.831   4.194   2.712
 8904SOL    HW138591   0.894   4.199   2.640
 8904SOL    HW238592   0.751   4.232   2.677
 8905SOL     OW38593   0.143   0.250  19.455
 8905SOL    HW138594   0.226   0.243  19.408
 8905SOL    HW238595   0.082   0.287  19.391
 8906SOL     OW38596   1.351   3.421   6.848
 8906SOL    HW138597   1.280   3.433   6.912
 8906SOL    HW238598   1.407   3.498   6.860
 8907SOL     OW38599   3.825   3.345  12.738
 8907SOL    HW138600   3.888   3.273  12.737
 8907SOL    HW238601   3.786   3.342  12.825
 8908SOL     OW38602   0.061   3.661   2.488
 8908SOL    HW138603   0.080   3.569   2.507
 8908SOL    HW238604   0.104   3.710   2.558
 8909SOL     OW38605   4.393   3.662   6.314
 8909SOL    HW138606   4.472   3.675   6.261
 8909SOL    HW238607   4.422   3.676   6.404
 8910SOL     OW38608   4.474   1.684   2.992
 8910SOL    HW138609   4.390   1.725   2.973
 8910SOL    HW238610   4.533   1.719   2.926
 8911SOL     OW38611   2.389   0.347  20.504
 8911SOL    HW138612   2.350   0.432  20.522
 8911SOL    HW238613   2.370   0.294  20.582
 8912SOL     OW38614   0.754   0.954  17.636
 8912SOL    HW138615   0.693   0.922  17.703
 8912SOL    HW238616   0.839   0.957  17.680
 8913SOL     OW38617   3.644   3.075   1.774
 8913SOL    HW138618   3.695   2.995   1.787
 8913SOL    HW238619   3.681   3.115   1.695
 8914SOL     OW38620   0.572   2.576  18.897
 8914SOL    HW138621   0.611   2.560  18.983
 8914SOL    HW238622   0.615   2.656  18.866
 8915SOL     OW38623   3.222   4.504  19.806
 8915SOL    HW138624   3.309   4.468  19.824
 8915SOL    HW238625   3.230   4.545  19.720
 8916SOL     OW38626   1.582   1.222   5.456
 8916SOL    HW138627   1.488   1.224   5.471
 8916SOL    HW238628   1.599   1.294   5.396
 8917SOL     OW38629   1.998   4.402   0.896
 8917SOL    HW138630   1.975   4.315   0.863
 8917SOL    HW238631   2.022   4.452   0.818
 8918SOL     OW38632   2.106   4.138   7.180
 8918SOL    HW138633   2.099   4.222   7.135
 8918SOL    HW238634   2.063   4.076   7.121
 8919SOL     OW38635   3.701   2.414  18.518
 8919SOL    HW138636   3.692   2.397  18.612
 8919SOL    HW238637   3.794   2.401  18.500
 8920SOL     OW38638   0.026   2.256   4.083
 8920SOL    HW138639   4.778   2.278   4.168
 8920SOL    HW238640   4.750   2.201   4.041
 8921SOL     OW38641   1.793   3.588  14.992
 8921SOL    HW138642   1.771   3.534  14.916
 8921SOL    HW238643   1.754   3.673  14.973
 8922SOL     OW38644   1.549   3.561   6.161
 8922SOL    HW138645   1.616   3.625   6.138
 8922SOL    HW238646   1.497   3.603   6.230
 8923SOL     OW38647   4.642   0.526   5.380
 8923SOL    HW138648   4.665   0.618   5.395
 8923SOL    HW238649   4.723   0.485   5.350
 8924SOL     OW38650   3.494   1.076  18.481
 8924SOL    HW138651   3.402   1.088  18.504
 8924SOL    HW238652   3.506   1.127  18.401
 8925SOL     OW38653   2.927   3.594  16.279
 8925SOL    HW138654   2.981   3.637  16.213
 8925SOL    HW238655   2.975   3.605  16.361
 8926SOL     OW38656   3.060   2.218   5.907
 8926SOL    HW138657   3.108   2.265   5.839
 8926SOL    HW238658   2.974   2.202   5.869
 8927SOL     OW38659   4.506   0.528   3.177
 8927SOL    HW138660   4.581   0.508   3.121
 8927SOL    HW238661   4.504   0.624   3.181
 8928SOL     OW38662   0.165   1.854   1.859
 8928SOL    HW138663   0.134   1.785   1.801
 8928SOL    HW238664   0.188   1.809   1.940
 8929SOL     OW38665   3.603   2.316   9.079
 8929SOL    HW138666   3.641   2.266   9.151
 8929SOL    HW238667   3.564   2.393   9.120
 8930SOL     OW38668   0.462   0.354  11.024
 8930SOL    HW138669   0.398   0.425  11.018
 8930SOL    HW238670   0.483   0.332  10.933
 8931SOL     OW38671   1.131   4.751  12.231
 8931SOL    HW138672   1.187   0.026  12.188
 8931SOL    HW238673   1.049   4.753  12.181
 8932SOL     OW38674   3.558   2.047  17.883
 8932SOL    HW138675   3.496   2.117  17.865
 8932SOL    HW238676   3.532   1.976  17.824
 8933SOL     OW38677   4.595   1.832  18.736
 8933SOL    HW138678   4.666   1.838  18.672
 8933SOL    HW238679   4.625   1.766  18.799
 8934SOL     OW38680   4.009   0.514   1.874
 8934SOL    HW138681   3.987   0.472   1.791
 8934SOL    HW238682   4.033   0.442   1.932
 8935SOL     OW38683   1.905   4.053  20.512
 8935SOL    HW138684   1.865   4.012  20.435
 8935SOL    HW238685   1.833   4.100  20.554
 8936SOL     OW38686   1.647   1.643  19.910
 8936SOL    HW138687   1.642   1.729  19.952
 8936SOL    HW238688   1.592   1.652  19.832
 8937SOL     OW38689   0.619   3.476   6.686
 8937SOL    HW138690   0.626   3.415   6.613
 8937SOL    HW238691   0.529   3.509   6.681
 8938SOL     OW38692   2.878   1.928   4.059
 8938SOL    HW138693   2.851   1.932   4.151
 8938SOL    HW238694   2.949   1.992   4.052
 8939SOL     OW38695   1.860   1.569   2.868
 8939SOL    HW138696   1.824   1.641   2.816
 8939SOL    HW238697   1.939   1.543   2.820
 8940SOL     OW38698   1.279   1.932   2.683
 8940SOL    HW138699   1.289   1.903   2.774
 8940SOL    HW238700   1.360   1.979   2.664
 8941SOL     OW38701   2.708   4.050   0.993
 8941SOL    HW138702   2.699   4.043   1.088
 8941SOL    HW238703   2.651   3.982   0.958
 8942SOL     OW38704   0.483   1.291  15.507
 8942SOL    HW138705   0.454   1.240  15.431
 8942SOL    HW238706   0.442   1.248  15.582
 8943SOL     OW38707   3.399   0.541   2.621
 8943SOL    HW138708   3.397   0.621   2.569
 8943SOL    HW238709   3.476   0.494   2.590
 8944SOL     OW38710   2.380   2.804  20.756
 8944SOL    HW138711   2.397   2.773  20.667
 8944SOL    HW238712   2.405   2.731  20.812
 8945SOL     OW38713   3.118   1.337  16.857
 8945SOL    HW138714   3.122   1.356  16.951
 8945SOL    HW238715   3.099   1.243  16.853
 8946SOL     OW38716   1.459   1.207   1.026
 8946SOL    HW138717   1.441   1.215   0.932
 8946SOL    HW238718   1.430   1.290   1.063
 8947SOL     OW38719   3.639   1.333   3.280
 8947SOL    HW138720   3.623   1.251   3.234
 8947SOL    HW238721   3.638   1.309   3.373
 8948SOL     OW38722   4.028   2.236   9.180
 8948SOL    HW138723   3.946   2.222   9.228
 8948SOL    HW238724   4.088   2.271   9.245
 8949SOL     OW38725   2.545   3.246   9.188
 8949SOL    HW138726   2.480   3.316   9.185
 8949SOL    HW238727   2.629   3.291   9.183
 8950SOL     OW38728   1.650   4.652  14.129
 8950SOL    HW138729   1.679   4.697  14.208
 8950SOL    HW238730   1.634   4.722  14.066
 8951SOL     OW38731   1.985   1.665   7.265
 8951SOL    HW138732   2.005   1.707   7.349
 8951SOL    HW238733   1.897   1.696   7.242
 8952SOL     OW38734   0.166   0.695  18.448
 8952SOL    HW138735   0.213   0.632  18.394
 8952SOL    HW238736   0.231   0.762  18.469
 8953SOL     OW38737   2.450   3.874  18.988
 8953SOL    HW138738   2.501   3.866  18.908
 8953SOL    HW238739   2.400   3.955  18.977
 8954SOL     OW38740   3.685   4.432   5.740
 8954SOL    HW138741   3.715   4.453   5.652
 8954SOL    HW238742   3.591   4.419   5.731
 8955SOL     OW38743   0.990   4.345  19.431
 8955SOL    HW138744   0.959   4.255  19.423
 8955SOL    HW238745   1.057   4.353  19.363
 8956SOL     OW38746   0.286   1.335  18.655
 8956SOL    HW138747   0.208   1.300  18.699
 8956SOL    HW238748   0.356   1.323  18.719
 8957SOL     OW38749   4.269   3.919   0.146
 8957SOL    HW138750   4.300   4.009   0.143
 8957SOL    HW238751   4.308   3.877   0.069
 8958SOL     OW38752   4.720   3.196   0.397
 8958SOL    HW138753   4.737   3.229   0.485
 8958SOL    HW238754   4.633   3.157   0.402
 8959SOL     OW38755   0.827   1.542  17.177
 8959SOL    HW138756   0.823   1.499  17.262
 8959SOL    HW238757   0.736   1.565  17.157
 8960SOL     OW38758   3.577   1.241   4.687
 8960SOL    HW138759   3.612   1.325   4.657
 8960SOL    HW238760   3.483   1.247   4.671
 8961SOL     OW38761   0.930   3.825   3.920
 8961SOL    HW138762   0.851   3.802   3.969
 8961SOL    HW238763   0.908   3.808   3.828
 8962SOL     OW38764   1.175   1.970  15.706
 8962SOL    HW138765   1.153   1.931  15.791
 8962SOL    HW238766   1.166   2.064  15.721
 8963SOL     OW38767   1.419   1.287   3.983
 8963SOL    HW138768   1.508   1.288   4.019
 8963SOL    HW238769   1.362   1.295   4.059
 8964SOL     OW38770   1.628   0.065   2.324
 8964SOL    HW138771   1.640   0.138   2.385
 8964SOL    HW238772   1.708   0.014   2.332
 8965SOL     OW38773   4.084   2.884  20.979
 8965SOL    HW138774   4.010   2.934  21.014
 8965SOL    HW238775   4.061   2.868  20.888
 8966SOL     OW38776   2.255   4.676  14.315
 8966SOL    HW138777   2.335   4.695  14.364
 8966SOL    HW238778   2.255   4.739  14.243
 8967SOL     OW38779   4.705   3.084   2.122
 8967SOL    HW138780   0.009   3.072   2.140
 8967SOL    HW238781   4.685   3.171   2.156
 8968SOL     OW38782   3.957   0.116   4.375
 8968SOL    HW138783   3.888   0.057   4.344
 8968SOL    HW238784   3.910   0.185   4.421
 8969SOL     OW38785   2.672   0.643   1.692
 8969SOL    HW138786   2.640   0.555   1.711
 8969SOL    HW238787   2.731   0.663   1.765
 8970SOL     OW38788   1.891   2.150   4.082
 8970SOL    HW138789   1.898   2.059   4.055
 8970SOL    HW238790   1.872   2.198   4.001
 8971SOL     OW38791   4.695   3.592   0.779
 8971SOL    HW138792   4.787   3.596   0.805
 8971SOL    HW238793   4.650   3.650   0.840
 8972SOL     OW38794   1.479   3.459   4.035
 8972SOL    HW138795   1.443   3.394   3.975
 8972SOL    HW238796   1.574   3.453   4.023
 8973SOL     OW38797   4.285   0.983  16.477
 8973SOL    HW138798   4.237   0.916  16.429
 8973SOL    HW238799   4.312   0.940  16.558
 8974SOL     OW38800   4.372   3.467   1.365
 8974SOL    HW138801   4.434   3.477   1.292
 8974SOL    HW238802   4.302   3.529   1.345
 8975SOL     OW38803   2.501   1.832   0.129
 8975SOL    HW138804   2.573   1.770   0.141
 8975SOL    HW238805   2.441   1.788   0.068
 8976SOL     OW38806   0.545   0.532  13.464
 8976SOL    HW138807   0.538   0.447  13.508
 8976SOL    HW238808   0.457   0.549  13.431
 8977SOL     OW38809   0.714   2.177  21.099
 8977SOL    HW138810   0.683   2.253  21.050
 8977SOL    HW238811   0.635   2.141  21.141
 8978SOL     OW38812   2.779   4.776  15.832
 8978SOL    HW138813   2.724   4.715  15.881
 8978SOL    HW238814   2.862   4.729  15.820
 8979SOL     OW38815   2.925   2.173   4.817
 8979SOL    HW138816   2.937   2.081   4.840
 8979SOL    HW238817   2.858   2.173   4.749
 8980SOL     OW38818   2.710   2.439   4.577
 8980SOL    HW138819   2.790   2.406   4.536
 8980SOL    HW238820   2.740   2.486   4.654
 8981SOL     OW38821   1.931   2.949   6.482
 8981SOL    HW138822   1.999   2.974   6.544
 8981SOL    HW238823   1.975   2.889   6.421
 8982SOL     OW38824   4.364   1.872   6.307
 8982SOL    HW138825   4.307   1.949   6.305
 8982SOL    HW238826   4.341   1.823   6.228
 8983SOL     OW38827   2.842   2.446  17.676
 8983SOL    HW138828   2.860   2.540  17.686
 8983SOL    HW238829   2.883   2.406  17.753
 8984SOL     OW38830   4.513   2.533   0.042
 8984SOL    HW138831   4.523   2.611   0.096
 8984SOL    HW238832   4.421   2.509   0.050
 8985SOL     OW38833   2.739   3.607  21.044
 8985SOL    HW138834   2.813   3.594  21.104
 8985SOL    HW238835   2.667   3.636  21.100
 8986SOL     OW38836   3.293   3.834  19.950
 8986SOL    HW138837   3.219   3.845  20.009
 8986SOL    HW238838   3.254   3.804  19.868
 8987SOL     OW38839   3.273   1.171   5.657
 8987SOL    HW138840   3.295   1.203   5.570
 8987SOL    HW238841   3.247   1.080   5.643
 8988SOL     OW38842   3.903   1.342  16.400
 8988SOL    HW138843   3.928   1.401  16.471
 8988SOL    HW238844   3.828   1.293  16.434
 8989SOL     OW38845   4.226   0.343  19.605
 8989SOL    HW138846   4.285   0.354  19.680
 8989SOL    HW238847   4.279   0.297  19.540
 8990SOL     OW38848   2.708   2.386  18.087
 8990SOL    HW138849   2.756   2.357  18.009
 8990SOL    HW238850   2.676   2.473  18.065
 8991SOL     OW38851   0.868   0.633  17.693
 8991SOL    HW138852   0.881   0.621  17.599
 8991SOL    HW238853   0.776   0.611  17.707
 8992SOL     OW38854   1.722   0.284   2.721
 8992SOL    HW138855   1.647   0.269   2.778
 8992SOL    HW238856   1.778   0.207   2.734
 8993SOL     OW38857   1.412   4.038  15.375
 8993SOL    HW138858   1.470   4.111  15.353
 8993SOL    HW238859   1.457   3.961  15.341
 8994SOL     OW38860   1.044   0.853   7.910
 8994SOL    HW138861   1.017   0.869   8.000
 8994SOL    HW238862   0.971   0.885   7.857
 8995SOL     OW38863   1.241   1.276   8.271
 8995SOL    HW138864   1.234   1.344   8.204
 8995SOL    HW238865   1.162   1.286   8.324
 8996SOL     OW38866   0.891   3.387   1.715
 8996SOL    HW138867   0.862   3.360   1.802
 8996SOL    HW238868   0.923   3.476   1.726
 8997SOL     OW38869   0.213   0.130  11.589
 8997SOL    HW138870   0.233   0.132  11.683
 8997SOL    HW238871   0.148   0.060  11.580
 8998SOL     OW38872   3.183   0.449   9.829
 8998SOL    HW138873   3.231   0.442   9.911
 8998SOL    HW238874   3.158   0.541   9.824
 8999SOL     OW38875   4.038   2.207   0.792
 8999SOL    HW138876   4.063   2.265   0.864
 8999SOL    HW238877   3.952   2.238   0.764
 9000SOL     OW38878   3.144   1.042  10.175
 9000SOL    HW138879   3.139   1.090  10.258
 9000SOL    HW238880   3.230   1.065  10.139
 9001SOL     OW38881   1.919   0.410   5.235
 9001SOL    HW138882   1.880   0.439   5.318
 9001SOL    HW238883   1.893   0.477   5.172
 9002SOL     OW38884   4.627   3.554  10.566
 9002SOL    HW138885   4.588   3.548  10.479
 9002SOL    HW238886   4.564   3.510  10.623
 9003SOL     OW38887   2.663   0.955   8.711
 9003SOL    HW138888   2.682   0.874   8.757
 9003SOL    HW238889   2.722   1.020   8.750
 9004SOL     OW38890   2.090   1.488   8.641
 9004SOL    HW138891   2.174   1.519   8.675
 9004SOL    HW238892   2.066   1.415   8.698
 9005SOL     OW38893   2.532   2.110   7.617
 9005SOL    HW138894   2.558   2.018   7.610
 9005SOL    HW238895   2.493   2.118   7.704
 9006SOL     OW38896   4.418   1.209   8.823
 9006SOL    HW138897   4.337   1.159   8.836
 9006SOL    HW238898   4.469   1.156   8.762
 9007SOL     OW38899   1.940   0.871   9.760
 9007SOL    HW138900   2.004   0.942   9.760
 9007SOL    HW238901   1.972   0.810   9.693
 9008SOL     OW38902   4.635   0.544   8.640
 9008SOL    HW138903   4.639   0.514   8.731
 9008SOL    HW238904   4.553   0.594   8.635
 9009SOL     OW38905   0.576   0.567   9.775
 9009SOL    HW138906   0.516   0.503   9.814
 9009SOL    HW238907   0.661   0.547   9.814
 9010SOL     OW38908   3.935   0.579  10.169
 9010SOL    HW138909   4.002   0.517  10.196
 9010SOL    HW238910   3.914   0.628  10.249
 9011SOL     OW38911   3.824   4.557   8.775
 9011SOL    HW138912   3.801   4.565   8.683
 9011SOL    HW238913   3.905   4.506   8.775
 9012SOL     OW38914   1.663   0.887  10.546
 9012SOL    HW138915   1.729   0.917  10.609
 9012SOL    HW238916   1.626   0.967  10.509
 9013SOL     OW38917   4.587   0.391   9.581
 9013SOL    HW138918   4.525   0.339   9.632
 9013SOL    HW238919   4.669   0.342   9.585
 9014SOL     OW38920   4.034   0.254  10.485
 9014SOL    HW138921   4.011   0.317  10.553
 9014SOL    HW238922   3.962   0.191  10.485
 9015SOL     OW38923   0.496   0.846  10.323
 9015SOL    HW138924   0.560   0.914  10.344
 9015SOL    HW238925   0.413   0.893  10.314
 9016SOL     OW38926   0.464   0.322   9.890
 9016SOL    HW138927   0.523   0.248   9.877
 9016SOL    HW238928   0.378   0.288   9.865
 9017SOL     OW38929   2.418   0.495  10.104
 9017SOL    HW138930   2.343   0.439  10.084
 9017SOL    HW238931   2.415   0.565  10.039
 9018SOL     OW38932   1.592   1.004   8.494
 9018SOL    HW138933   1.500   1.014   8.470
 9018SOL    HW238934   1.629   0.949   8.425
 9019SOL     OW38935   0.599   0.259  12.226
 9019SOL    HW138936   0.632   0.174  12.198
 9019SOL    HW238937   0.584   0.307  12.144
 9020SOL     OW38938   0.845   1.348  10.009
 9020SOL    HW138939   0.901   1.274  10.033
 9020SOL    HW238940   0.880   1.422  10.059
 9021SOL     OW38941   0.916   0.002   9.360
 9021SOL    HW138942   0.866   4.744   9.293
 9021SOL    HW238943   1.005   4.757   9.353
 9022SOL     OW38944   4.579   3.896  10.459
 9022SOL    HW138945   4.570   3.976  10.511
 9022SOL    HW238946   4.529   3.830  10.507
 9023SOL     OW38947   0.584   1.271  10.325
 9023SOL    HW138948   0.507   1.328  10.326
 9023SOL    HW238949   0.637   1.303  10.252
 9024SOL     OW38950   2.947   0.862  10.141
 9024SOL    HW138951   3.026   0.913  10.160
 9024SOL    HW238952   2.875   0.923  10.154
 9025SOL     OW38953   4.664   4.514  11.194
 9025SOL    HW138954   4.640   4.435  11.145
 9025SOL    HW238955   4.622   4.503  11.279
 9026SOL     OW38956   1.560   1.261  10.282
 9026SOL    HW138957   1.544   1.206  10.205
 9026SOL    HW238958   1.648   1.295  10.268
 9027SOL     OW38959   1.712   1.559   9.827
 9027SOL    HW138960   1.735   1.629   9.766
 9027SOL    HW238961   1.794   1.513   9.844
 9028SOL     OW38962   1.748   1.681  14.029
 9028SOL    HW138963   1.704   1.596  14.028
 9028SOL    HW238964   1.728   1.719  13.943
 9029SOL     OW38965   3.259   4.338   9.584
 9029SOL    HW138966   3.191   4.292   9.534
 9029SOL    HW238967   3.240   4.431   9.570
 9030SOL     OW38968   0.361   4.518  10.681
 9030SOL    HW138969   0.346   4.551  10.770
 9030SOL    HW238970   0.292   4.559  10.629
 9031SOL     OW38971   4.352   4.633  10.199
 9031SOL    HW138972   4.397   4.613  10.117
 9031SOL    HW238973   4.325   4.724  10.189
 9032SOL     OW38974   4.291   0.139  10.471
 9032SOL    HW138975   4.201   0.157  10.444
 9032SOL    HW238976   4.297   0.173  10.560
 9033SOL     OW38977   2.095   2.232  12.361
 9033SOL    HW138978   2.066   2.180  12.436
 9033SOL    HW238979   2.032   2.304  12.356
 9034SOL     OW38980   0.130   2.218  12.984
 9034SOL    HW138981   0.112   2.312  12.980
 9034SOL    HW238982   0.066   2.184  13.046
 9035SOL     OW38983   2.145   3.500  19.140
 9035SOL    HW138984   2.237   3.476  19.130
 9035SOL    HW238985   2.134   3.576  19.082
 9036SOL     OW38986   1.249   1.512  10.908
 9036SOL    HW138987   1.325   1.546  10.956
 9036SOL    HW238988   1.287   1.470  10.831
 9037SOL     OW38989   0.163   4.362  18.417
 9037SOL    HW138990   0.078   4.373  18.375
 9037SOL    HW238991   0.174   4.441  18.470
 9038SOL     OW38992   0.833   0.543   9.863
 9038SOL    HW138993   0.823   0.452   9.892
 9038SOL    HW238994   0.899   0.540   9.794
 9039SOL     OW38995   4.313   1.337   1.391
 9039SOL    HW138996   4.404   1.349   1.418
 9039SOL    HW238997   4.265   1.322   1.472
 9040SOL     OW38998   0.041   3.717  11.353
 9040SOL    HW138999   0.083   3.775  11.416
 9040SOL    HW239000   4.748   3.760  11.331
 9041SOL     OW39001   1.410   2.802  13.411
 9041SOL    HW139002   1.348   2.857  13.459
 9041SOL    HW239003   1.358   2.727  13.382
 9042SOL     OW39004   0.239   0.221  10.433
 9042SOL    HW139005   0.305   0.257  10.374
 9042SOL    HW239006   0.165   0.200  10.376
 9043SOL     OW39007   2.891   0.485  12.844
 9043SOL    HW139008   2.934   0.403  12.867
 9043SOL    HW239009   2.838   0.507  12.921
 9044SOL     OW39010   0.198   0.375  10.654
 9044SOL    HW139011   0.268   0.410  10.709
 9044SOL    HW239012   0.244   0.335  10.580
 9045SOL     OW39013   3.900   1.798  12.809
 9045SOL    HW139014   3.880   1.755  12.892
 9045SOL    HW239015   3.988   1.834  12.822
 9046SOL     OW39016   3.375   1.269   3.206
 9046SOL    HW139017   3.442   1.273   3.274
 9046SOL    HW239018   3.296   1.239   3.252
 9047SOL     OW39019   4.116   3.017  11.102
 9047SOL    HW139020   4.143   3.036  11.012
 9047SOL    HW239021   4.033   2.971  11.093
 9048SOL     OW39022   1.375   0.749  20.927
 9048SOL    HW139023   1.379   0.653  20.928
 9048SOL    HW239024   1.345   0.773  21.015
 9049SOL     OW39025   1.933   2.009  14.260
 9049SOL    HW139026   1.850   1.963  14.247
 9049SOL    HW239027   1.912   2.080  14.321
 9050SOL     OW39028   3.888   4.438   9.697
 9050SOL    HW139029   3.919   4.348   9.709
 9050SOL    HW239030   3.949   4.491   9.748
 9051SOL     OW39031   3.750   3.959  15.748
 9051SOL    HW139032   3.778   3.870  15.727
 9051SOL    HW239033   3.807   3.986  15.820
 9052SOL     OW39034   4.472   2.162  12.944
 9052SOL    HW139035   4.396   2.114  12.912
 9052SOL    HW239036   4.510   2.105  13.011
 9053SOL     OW39037   0.670   1.507  12.737
 9053SOL    HW139038   0.743   1.541  12.685
 9053SOL    HW239039   0.599   1.569  12.722
 9054SOL     OW39040   0.419   0.317  11.592
 9054SOL    HW139041   0.351   0.252  11.608
 9054SOL    HW239042   0.495   0.285  11.641
 9055SOL     OW39043   0.690   1.028  10.340
 9055SOL    HW139044   0.653   1.116  10.330
 9055SOL    HW239045   0.748   1.017  10.264
 9056SOL     OW39046   0.610   1.224  11.199
 9056SOL    HW139047   0.663   1.304  11.197
 9056SOL    HW239048   0.673   1.154  11.182
 9057SOL     OW39049   1.339   0.134   9.943
 9057SOL    HW139050   1.306   0.174  10.023
 9057SOL    HW239051   1.260   0.117   9.891
 9058SOL     OW39052   0.943   0.210  10.152
 9058SOL    HW139053   1.011   0.210  10.220
 9058SOL    HW239054   0.927   0.117  10.134
 9059SOL     OW39055   2.306   0.481  12.911
 9059SOL    HW139056   2.274   0.444  12.993
 9059SOL    HW239057   2.384   0.531  12.936
 9060SOL     OW39058   0.943   1.201  11.287
 9060SOL    HW139059   0.899   1.265  11.343
 9060SOL    HW239060   0.919   1.116  11.324
 9061SOL     OW39061   0.717   1.052   2.734
 9061SOL    HW139062   0.642   1.106   2.760
 9061SOL    HW239063   0.710   1.046   2.639
 9062SOL     OW39064   3.456   4.523  14.415
 9062SOL    HW139065   3.380   4.512  14.358
 9062SOL    HW239066   3.500   4.601  14.381
 9063SOL     OW39067   0.023   2.384   6.161
 9063SOL    HW139068   0.086   2.452   6.186
 9063SOL    HW239069   0.042   2.365   6.069
 9064SOL     OW39070   3.214   2.631  12.252
 9064SOL    HW139071   3.253   2.564  12.308
 9064SOL    HW239072   3.148   2.584  12.201
 9065SOL     OW39073   0.162   0.641  17.396
 9065SOL    HW139074   0.112   0.666  17.474
 9065SOL    HW239075   0.227   0.579  17.428
 9066SOL     OW39076   1.212   1.924  20.135
 9066SOL    HW139077   1.206   1.929  20.040
 9066SOL    HW239078   1.134   1.970  20.166
 9067SOL     OW39079   0.291   0.755   0.589
 9067SOL    HW139080   0.300   0.680   0.530
 9067SOL    HW239081   0.302   0.831   0.532
 9068SOL     OW39082   1.149   1.927   2.122
 9068SOL    HW139083   1.102   2.004   2.090
 9068SOL    HW239084   1.136   1.929   2.217
 9069SOL     OW39085   0.334   0.386  10.239
 9069SOL    HW139086   0.329   0.389  10.143
 9069SOL    HW239087   0.418   0.426  10.259
 9070SOL     OW39088   4.318   3.041  16.870
 9070SOL    HW139089   4.225   3.020  16.883
 9070SOL    HW239090   4.358   3.025  16.955
 9071SOL     OW39091   3.234   0.680  12.949
 9071SOL    HW139092   3.276   0.764  12.929
 9071SOL    HW239093   3.173   0.666  12.877
 9072SOL     OW39094   1.256   0.632  19.937
 9072SOL    HW139095   1.191   0.631  19.867
 9072SOL    HW239096   1.335   0.597  19.896
 9073SOL     OW39097   2.065   2.725   0.080
 9073SOL    HW139098   2.012   2.707   0.158
 9073SOL    HW239099   2.153   2.740   0.114
 9074SOL     OW39100   1.099   1.380  11.524
 9074SOL    HW139101   1.137   1.405  11.440
 9074SOL    HW239102   1.005   1.397  11.514
 9075SOL     OW39103   3.242   0.899   5.604
 9075SOL    HW139104   3.243   0.902   5.508
 9075SOL    HW239105   3.161   0.853   5.626
 9076SOL     OW39106   0.438   3.631   6.888
 9076SOL    HW139107   0.475   3.714   6.859
 9076SOL    HW239108   0.511   3.586   6.930
 9077SOL     OW39109   4.089   0.337  16.728
 9077SOL    HW139110   4.130   0.275  16.668
 9077SOL    HW239111   4.161   0.370  16.782
 9078SOL     OW39112   0.966   2.561   3.056
 9078SOL    HW139113   0.957   2.560   2.961
 9078SOL    HW239114   1.044   2.614   3.073
 9079SOL     OW39115   0.813   0.423   3.188
 9079SOL    HW139116   0.745   0.452   3.249
 9079SOL    HW239117   0.781   0.449   3.102
 9080SOL     OW39118   4.145   1.724   1.895
 9080SOL    HW139119   4.069   1.713   1.838
 9080SOL    HW239120   4.109   1.716   1.983
 9081SOL     OW39121   0.980   1.140   4.158
 9081SOL    HW139122   1.069   1.134   4.123
 9081SOL    HW239123   0.963   1.234   4.165
 9082SOL     OW39124   4.330   0.887  19.312
 9082SOL    HW139125   4.258   0.852  19.260
 9082SOL    HW239126   4.292   0.962  19.359
 9083SOL     OW39127   0.322   2.953  18.441
 9083SOL    HW139128   0.351   3.011  18.511
 9083SOL    HW239129   0.397   2.897  18.423
 9084SOL     OW39130   2.604   0.982   2.404
 9084SOL    HW139131   2.563   1.045   2.344
 9084SOL    HW239132   2.563   0.898   2.382
 9085SOL     OW39133   2.900   2.534   5.131
 9085SOL    HW139134   2.993   2.555   5.141
 9085SOL    HW239135   2.899   2.447   5.090
 9086SOL     OW39136   1.169   2.302   3.214
 9086SOL    HW139137   1.152   2.223   3.266
 9086SOL    HW239138   1.109   2.367   3.250
 9087SOL     OW39139   0.702   2.877   1.918
 9087SOL    HW139140   0.775   2.826   1.883
 9087SOL    HW239141   0.651   2.901   1.841
 9088SOL     OW39142   2.307   1.699   1.670
 9088SOL    HW139143   2.257   1.623   1.700
 9088SOL    HW239144   2.255   1.774   1.699
 9089SOL     OW39145   2.041   4.561  18.356
 9089SOL    HW139146   2.132   4.582  18.377
 9089SOL    HW239147   2.025   4.604  18.272
 9090SOL     OW39148   1.038   4.321   0.045
 9090SOL    HW139149   1.077   4.372  21.231
 9090SOL    HW239150   1.036   4.381   0.119
 9091SOL     OW39151   2.382   2.879   2.629
 9091SOL    HW139152   2.308   2.880   2.568
 9091SOL    HW239153   2.419   2.791   2.620
 9092SOL     OW39154   0.437   4.170   4.430
 9092SOL    HW139155   0.422   4.215   4.347
 9092SOL    HW239156   0.514   4.213   4.467
 9093SOL     OW39157   4.411   1.224   8.342
 9093SOL    HW139158   4.484   1.181   8.298
 9093SOL    HW239159   4.351   1.248   8.272
 9094SOL     OW39160   0.513   4.625  17.009
 9094SOL    HW139161   0.548   4.579  16.932
 9094SOL    HW239162   0.437   4.573  17.035
 9095SOL     OW39163   2.970   0.418  16.390
 9095SOL    HW139164   2.941   0.478  16.322
 9095SOL    HW239165   2.904   0.426  16.458
 9096SOL     OW39166   1.456   1.883  19.133
 9096SOL    HW139167   1.366   1.854  19.146
 9096SOL    HW239168   1.508   1.831  19.194
 9097SOL     OW39169   1.924   2.099   0.711
 9097SOL    HW139170   1.961   2.152   0.782
 9097SOL    HW239171   1.958   2.139   0.631
 9098SOL     OW39172   4.611   2.875   3.608
 9098SOL    HW139173   4.671   2.883   3.533
 9098SOL    HW239174   4.590   2.782   3.612
 9099SOL     OW39175   1.297   3.024   5.424
 9099SOL    HW139176   1.374   2.984   5.465
 9099SOL    HW239177   1.333   3.076   5.352
 9100SOL     OW39178   2.684   3.161  19.715
 9100SOL    HW139179   2.774   3.150  19.746
 9100SOL    HW239180   2.637   3.086  19.750
 9101SOL     OW39181   2.375   4.318   3.415
 9101SOL    HW139182   2.394   4.404   3.378
 9101SOL    HW239183   2.337   4.268   3.342
 9102SOL     OW39184   1.510   1.728  19.680
 9102SOL    HW139185   1.441   1.794  19.683
 9102SOL    HW239186   1.580   1.769  19.630
 9103SOL     OW39187   2.452   1.053   1.719
 9103SOL    HW139188   2.475   0.973   1.672
 9103SOL    HW239189   2.521   1.063   1.785
 9104SOL     OW39190   4.339   0.487  21.147
 9104SOL    HW139191   4.326   0.575  21.182
 9104SOL    HW239192   4.287   0.431  21.204
 9105SOL     OW39193   2.416   2.431  13.756
 9105SOL    HW139194   2.326   2.460  13.767
 9105SOL    HW239195   2.432   2.373  13.831
 9106SOL     OW39196   3.781   1.727   0.260
 9106SOL    HW139197   3.868   1.707   0.295
 9106SOL    HW239198   3.778   1.680   0.177
 9107SOL     OW39199   2.503   0.640  20.660
 9107SOL    HW139200   2.539   0.681  20.581
 9107SOL    HW239201   2.408   0.649  20.650
 9108SOL     OW39202   1.367   3.309  13.857
 9108SOL    HW139203   1.446   3.261  13.882
 9108SOL    HW239204   1.398   3.376  13.796
 9109SOL     OW39205   0.754   2.701  18.711
 9109SOL    HW139206   0.769   2.607  18.722
 9109SOL    HW239207   0.767   2.716  18.617
 9110SOL     OW39208   2.790   3.652   4.471
 9110SOL    HW139209   2.867   3.613   4.430
 9110SOL    HW239210   2.716   3.611   4.426
 9111SOL     OW39211   1.746   3.630   3.466
 9111SOL    HW139212   1.706   3.626   3.379
 9111SOL    HW239213   1.742   3.540   3.498
 9112SOL     OW39214   1.333   4.741   6.567
 9112SOL    HW139215   1.277   4.787   6.505
 9112SOL    HW239216   1.419   4.781   6.555
 9113SOL     OW39217   4.727   3.199   7.010
 9113SOL    HW139218   4.632   3.191   7.005
 9113SOL    HW239219   4.745   3.216   7.103
 9114SOL     OW39220   0.581   2.138  20.503
 9114SOL    HW139221   0.613   2.226  20.525
 9114SOL    HW239222   0.643   2.106  20.437
 9115SOL     OW39223   0.132   2.899   3.679
 9115SOL    HW139224   0.089   2.978   3.648
 9115SOL    HW239225   0.065   2.854   3.731
 9116SOL     OW39226   0.330   0.120  11.822
 9116SOL    HW139227   0.394   0.054  11.849
 9116SOL    HW239228   0.331   0.185  11.892
 9117SOL     OW39229   1.640   0.372  16.550
 9117SOL    HW139230   1.674   0.353  16.463
 9117SOL    HW239231   1.551   0.403  16.535
 9118SOL     OW39232   1.611   4.225   0.980
 9118SOL    HW139233   1.544   4.217   0.912
 9118SOL    HW239234   1.694   4.212   0.934
 9119SOL     OW39235   1.273   2.821  15.647
 9119SOL    HW139236   1.210   2.751  15.631
 9119SOL    HW239237   1.330   2.820  15.570
 9120SOL     OW39238   1.454   2.525  19.205
 9120SOL    HW139239   1.364   2.534  19.173
 9120SOL    HW239240   1.482   2.614  19.224
 9121SOL     OW39241   0.205   2.991   1.373
 9121SOL    HW139242   0.180   2.987   1.465
 9121SOL    HW239243   0.122   2.985   1.326
 9122SOL     OW39244   4.186   1.611  16.378
 9122SOL    HW139245   4.150   1.688  16.334
 9122SOL    HW239246   4.238   1.646  16.450
 9123SOL     OW39247   0.214   2.566   4.749
 9123SOL    HW139248   0.157   2.643   4.753
 9123SOL    HW239249   0.252   2.568   4.661
 9124SOL     OW39250   1.398   0.007   8.905
 9124SOL    HW139251   1.485   0.042   8.926
 9124SOL    HW239252   1.342   0.036   8.977
 9125SOL     OW39253   0.715   2.511   6.038
 9125SOL    HW139254   0.720   2.494   5.944
 9125SOL    HW239255   0.624   2.494   6.061
 9126SOL     OW39256   1.048   2.797   1.132
 9126SOL    HW139257   1.108   2.854   1.085
 9126SOL    HW239258   0.967   2.848   1.139
 9127SOL     OW39259   4.516   3.997   2.030
 9127SOL    HW139260   4.453   4.048   2.081
 9127SOL    HW239261   4.466   3.922   1.998
 9128SOL     OW39262   4.106   1.573   3.826
 9128SOL    HW139263   4.136   1.643   3.769
 9128SOL    HW239264   4.065   1.618   3.900
 9129SOL     OW39265   3.839   4.028  16.961
 9129SOL    HW139266   3.912   3.971  16.984
 9129SOL    HW239267   3.769   3.968  16.936
 9130SOL     OW39268   0.550   2.036  15.172
 9130SOL    HW139269   0.543   2.006  15.081
 9130SOL    HW239270   0.644   2.030  15.191
 9131SOL     OW39271   3.017   3.234   4.877
 9131SOL    HW139272   3.000   3.250   4.784
 9131SOL    HW239273   3.026   3.321   4.915
 9132SOL     OW39274   2.298   0.842  18.280
 9132SOL    HW139275   2.352   0.769  18.312
 9132SOL    HW239276   2.331   0.860  18.192
 9133SOL     OW39277   3.621   3.132  16.789
 9133SOL    HW139278   3.631   3.092  16.875
 9133SOL    HW239279   3.615   3.058  16.729
 9134SOL     OW39280   0.355   4.626   8.171
 9134SOL    HW139281   0.351   4.650   8.264
 9134SOL    HW239282   0.414   4.551   8.168
 9135SOL     OW39283   2.299   2.979   8.512
 9135SOL    HW139284   2.374   3.031   8.540
 9135SOL    HW239285   2.319   2.954   8.422
 9136SOL     OW39286   2.981   0.577   0.504
 9136SOL    HW139287   3.027   0.556   0.423
 9136SOL    HW239288   2.903   0.624   0.475
 9137SOL     OW39289   2.972   2.584  14.876
 9137SOL    HW139290   2.924   2.598  14.794
 9137SOL    HW239291   3.047   2.530  14.851
 9138SOL     OW39292   2.896   4.686   6.373
 9138SOL    HW139293   2.811   4.672   6.414
 9138SOL    HW239294   2.888   4.647   6.286
 9139SOL     OW39295   2.325   4.401  17.943
 9139SOL    HW139296   2.415   4.389  17.914
 9139SOL    HW239297   2.286   4.314  17.938
 9140SOL     OW39298   3.041   3.629   4.657
 9140SOL    HW139299   2.973   3.690   4.628
 9140SOL    HW239300   3.123   3.677   4.645
 9141SOL     OW39301   3.341   4.692   1.409
 9141SOL    HW139302   3.421   4.684   1.358
 9141SOL    HW239303   3.296   4.609   1.396
 9142SOL     OW39304   0.002   0.463   2.471
 9142SOL    HW139305   4.718   0.426   2.520
 9142SOL    HW239306   0.070   0.477   2.537
 9143SOL     OW39307   2.194   3.554  18.731
 9143SOL    HW139308   2.193   3.601  18.815
 9143SOL    HW239309   2.140   3.608  18.673
 9144SOL     OW39310   0.381   1.081  16.694
 9144SOL    HW139311   0.320   1.093  16.622
 9144SOL    HW239312   0.352   1.142  16.761
 9145SOL     OW39313   1.309   1.208   8.582
 9145SOL    HW139314   1.242   1.275   8.595
 9145SOL    HW239315   1.290   1.171   8.496
 9146SOL     OW39316   1.514   0.399   5.402
 9146SOL    HW139317   1.593   0.366   5.360
 9146SOL    HW239318   1.450   0.405   5.331
 9147SOL     OW39319   1.900   2.663  18.947
 9147SOL    HW139320   1.921   2.721  18.874
 9147SOL    HW239321   1.852   2.719  19.008
 9148SOL     OW39322   0.260   1.580  20.806
 9148SOL    HW139323   0.296   1.502  20.763
 9148SOL    HW239324   0.233   1.549  20.893
 9149SOL     OW39325   0.945   3.288  16.248
 9149SOL    HW139326   1.004   3.218  16.275
 9149SOL    HW239327   1.003   3.356  16.215
 9150SOL     OW39328   4.404   0.918  21.118
 9150SOL    HW139329   4.483   0.966  21.093
 9150SOL    HW239330   4.333   0.970  21.080
 9151SOL     OW39331   3.839   1.106   4.166
 9151SOL    HW139332   3.843   1.199   4.145
 9151SOL    HW239333   3.922   1.071   4.133
 9152SOL     OW39334   2.855   4.294   1.596
 9152SOL    HW139335   2.770   4.264   1.629
 9152SOL    HW239336   2.879   4.230   1.529
 9153SOL     OW39337   2.450   4.386   1.652
 9153SOL    HW139338   2.514   4.443   1.610
 9153SOL    HW239339   2.454   4.408   1.745
 9154SOL     OW39340   3.322   1.353  18.363
 9154SOL    HW139341   3.392   1.378  18.303
 9154SOL    HW239342   3.270   1.433  18.374
 9155SOL     OW39343   4.659   1.883   4.061
 9155SOL    HW139344   4.630   1.964   4.020
 9155SOL    HW239345   4.578   1.837   4.085
 9156SOL     OW39346   0.648   1.349  13.163
 9156SOL    HW139347   0.639   1.294  13.085
 9156SOL    HW239348   0.676   1.434  13.129
 9157SOL     OW39349   2.188   4.347  20.482
 9157SOL    HW139350   2.152   4.290  20.414
 9157SOL    HW239351   2.130   4.336  20.557
 9158SOL     OW39352   1.336   0.473   3.732
 9158SOL    HW139353   1.419   0.493   3.689
 9158SOL    HW239354   1.342   0.380   3.755
 9159SOL     OW39355   3.979   4.459   1.499
 9159SOL    HW139356   3.992   4.372   1.462
 9159SOL    HW239357   4.009   4.452   1.590
 9160SOL     OW39358   4.448   1.289   2.827
 9160SOL    HW139359   4.410   1.233   2.760
 9160SOL    HW239360   4.374   1.337   2.864
 9161SOL     OW39361   3.378   2.196  14.418
 9161SOL    HW139362   3.455   2.139  14.421
 9161SOL    HW239363   3.411   2.279  14.384
 9162SOL     OW39364   4.157   2.247  15.866
 9162SOL    HW139365   4.216   2.174  15.884
 9162SOL    HW239366   4.122   2.228  15.779
 9163SOL     OW39367   4.562   1.735   2.660
 9163SOL    HW139368   4.536   1.644   2.648
 9163SOL    HW239369   4.654   1.738   2.632
 9164SOL     OW39370   0.603   1.289  17.244
 9164SOL    HW139371   0.515   1.323  17.226
 9164SOL    HW239372   0.618   1.223  17.176
 9165SOL     OW39373   3.434   3.930  17.341
 9165SOL    HW139374   3.353   3.974  17.364
 9165SOL    HW239375   3.490   3.999  17.305
 9166SOL     OW39376   0.441   3.066   6.118
 9166SOL    HW139377   0.444   3.151   6.073
 9166SOL    HW239378   0.520   3.065   6.172
 9167SOL     OW39379   0.557   0.851   3.266
 9167SOL    HW139380   0.482   0.828   3.321
 9167SOL    HW239381   0.573   0.944   3.285
 9168SOL     OW39382   2.453   2.912  14.839
 9168SOL    HW139383   2.435   2.920  14.933
 9168SOL    HW239384   2.501   2.992  14.817
 9169SOL     OW39385   3.021   2.768  20.542
 9169SOL    HW139386   3.083   2.837  20.519
 9169SOL    HW239387   2.943   2.815  20.570
 9170SOL     OW39388   1.386   3.706   1.833
 9170SOL    HW139389   1.346   3.793   1.835
 9170SOL    HW239390   1.450   3.708   1.904
 9171SOL     OW39391   1.635   1.664   3.067
 9171SOL    HW139392   1.630   1.578   3.026
 9171SOL    HW239393   1.594   1.652   3.153
 9172SOL     OW39394   3.866   3.326  16.327
 9172SOL    HW139395   3.929   3.398  16.332
 9172SOL    HW239396   3.889   3.270  16.401
 9173SOL     OW39397   2.518   3.689   0.602
 9173SOL    HW139398   2.583   3.625   0.630
 9173SOL    HW239399   2.568   3.769   0.587
 9174SOL     OW39400   3.000   4.262  18.643
 9174SOL    HW139401   3.057   4.192  18.611
 9174SOL    HW239402   3.048   4.343  18.624
 9175SOL     OW39403   0.741   4.346  21.145
 9175SOL    HW139404   0.724   4.265  21.194
 9175SOL    HW239405   0.770   4.316  21.059
 9176SOL     OW39406   4.220   4.385  14.776
 9176SOL    HW139407   4.312   4.411  14.773
 9176SOL    HW239408   4.173   4.460  14.740
 9177SOL     OW39409   2.451   4.510   5.139
 9177SOL    HW139410   2.414   4.547   5.219
 9177SOL    HW239411   2.532   4.468   5.167
 9178SOL     OW39412   1.876   1.875  20.513
 9178SOL    HW139413   1.819   1.952  20.513
 9178SOL    HW239414   1.938   1.891  20.442
 9179SOL     OW39415   3.150   4.015   7.920
 9179SOL    HW139416   3.075   3.968   7.882
 9179SOL    HW239417   3.112   4.069   7.989
 9180SOL     OW39418   1.122   4.386  16.373
 9180SOL    HW139419   1.142   4.411  16.283
 9180SOL    HW239420   1.207   4.364  16.411
 9181SOL     OW39421   1.002   2.025   2.637
 9181SOL    HW139422   1.095   2.005   2.644
 9181SOL    HW239423   0.959   1.953   2.683
 9182SOL     OW39424   1.892   3.136   2.655
 9182SOL    HW139425   1.835   3.213   2.658
 9182SOL    HW239426   1.966   3.163   2.601
 9183SOL     OW39427   1.043   2.755   5.114
 9183SOL    HW139428   1.008   2.812   5.045
 9183SOL    HW239429   0.993   2.674   5.105
 9184SOL     OW39430   4.237   1.119   8.519
 9184SOL    HW139431   4.313   1.076   8.559
 9184SOL    HW239432   4.274   1.174   8.450
 9185SOL     OW39433   1.955   0.089   4.609
 9185SOL    HW139434   1.877   0.142   4.590
 9185SOL    HW239435   1.930   4.789   4.585
 9186SOL     OW39436   0.683   2.474   3.340
 9186SOL    HW139437   0.701   2.564   3.314
 9186SOL    HW239438   0.589   2.473   3.360
 9187SOL     OW39439   3.468   2.879  18.510
 9187SOL    HW139440   3.497   2.829  18.587
 9187SOL    HW239441   3.542   2.874  18.449
 9188SOL     OW39442   1.237   0.841   2.503
 9188SOL    HW139443   1.308   0.849   2.440
 9188SOL    HW239444   1.281   0.838   2.588
 9189SOL     OW39445   3.649   3.700  21.228
 9189SOL    HW139446   3.582   3.683  21.162
 9189SOL    HW239447   3.732   3.698  21.180
 9190SOL     OW39448   4.660   3.465  15.166
 9190SOL    HW139449   4.718   3.533  15.201
 9190SOL    HW239450   4.643   3.493  15.076
 9191SOL     OW39451   0.160   3.265   4.628
 9191SOL    HW139452   0.068   3.240   4.636
 9191SOL    HW239453   0.158   3.350   4.585
 9192SOL     OW39454   4.076   4.401  13.420
 9192SOL    HW139455   4.105   4.316  13.453
 9192SOL    HW239456   3.980   4.397  13.426
 9193SOL     OW39457   0.828   3.267   3.732
 9193SOL    HW139458   0.744   3.227   3.753
 9193SOL    HW239459   0.880   3.257   3.812
 9194SOL     OW39460   2.801   0.689   2.458
 9194SOL    HW139461   2.815   0.782   2.475
 9194SOL    HW239462   2.714   0.670   2.493
 9195SOL     OW39463   2.785   1.835   3.341
 9195SOL    HW139464   2.734   1.904   3.298
 9195SOL    HW239465   2.728   1.758   3.337
 9196SOL     OW39466   1.280   1.024   7.166
 9196SOL    HW139467   1.228   1.085   7.113
 9196SOL    HW239468   1.336   1.080   7.220
 9197SOL     OW39469   4.716   0.332   2.261
 9197SOL    HW139470   4.752   0.385   2.332
 9197SOL    HW239471   4.777   0.345   2.188
 9198SOL     OW39472   2.403   3.589   5.470
 9198SOL    HW139473   2.325   3.541   5.444
 9198SOL    HW239474   2.433   3.546   5.550
 9199SOL     OW39475   2.751   4.375   5.939
 9199SOL    HW139476   2.838   4.403   5.968
 9199SOL    HW239477   2.704   4.355   6.020
 9200SOL     OW39478   2.143   4.225   5.389
 9200SOL    HW139479   2.149   4.132   5.409
 9200SOL    HW239480   2.049   4.242   5.379
 9201SOL     OW39481   0.783   4.520   3.214
 9201SOL    HW139482   0.869   4.520   3.172
 9201SOL    HW239483   0.773   4.608   3.249
 9202SOL     OW39484   4.068   3.666  16.134
 9202SOL    HW139485   4.128   3.739  16.153
 9202SOL    HW239486   4.034   3.640  16.220
 9203SOL     OW39487   1.731   4.077   4.474
 9203SOL    HW139488   1.696   4.032   4.397
 9203SOL    HW239489   1.741   4.168   4.445
 9204SOL     OW39490   3.690   4.714  16.967
 9204SOL    HW139491   3.779   4.679  16.965
 9204SOL    HW239492   3.698   0.007  17.015
 9205SOL     OW39493   4.272   2.401   1.922
 9205SOL    HW139494   4.338   2.452   1.874
 9205SOL    HW239495   4.306   2.395   2.011
 9206SOL     OW39496   3.023   1.151  21.178
 9206SOL    HW139497   3.077   1.083  21.138
 9206SOL    HW239498   3.063   1.166   0.007
 9207SOL     OW39499   4.492   4.628   5.392
 9207SOL    HW139500   4.482   4.563   5.322
 9207SOL    HW239501   4.411   4.679   5.388
 9208SOL     OW39502   4.241   0.846   4.522
 9208SOL    HW139503   4.318   0.858   4.466
 9208SOL    HW239504   4.191   0.927   4.512
 9209SOL     OW39505   2.605   4.182  14.641
 9209SOL    HW139506   2.549   4.109  14.667
 9209SOL    HW239507   2.669   4.143  14.581
 9210SOL     OW39508   0.978   1.665   5.937
 9210SOL    HW139509   0.926   1.666   5.856
 9210SOL    HW239510   1.027   1.583   5.933
 9211SOL     OW39511   0.291   3.560   1.692
 9211SOL    HW139512   0.262   3.469   1.683
 9211SOL    HW239513   0.318   3.568   1.784
 9212SOL     OW39514   0.458   4.325  17.056
 9212SOL    HW139515   0.545   4.340  17.019
 9212SOL    HW239516   0.474   4.270  17.133
 9213SOL     OW39517   0.229   3.586   5.500
 9213SOL    HW139518   0.169   3.512   5.493
 9213SOL    HW239519   0.246   3.612   5.409
 9214SOL     OW39520   0.831   3.259   1.192
 9214SOL    HW139521   0.904   3.221   1.242
 9214SOL    HW239522   0.778   3.304   1.257
 9215SOL     OW39523   2.236   2.910  16.895
 9215SOL    HW139524   2.236   2.832  16.950
 9215SOL    HW239525   2.283   2.976  16.946
 9216SOL     OW39526   1.708   2.596  19.864
 9216SOL    HW139527   1.725   2.537  19.938
 9216SOL    HW239528   1.644   2.659  19.897
 9217SOL     OW39529   2.609   1.327  17.010
 9217SOL    HW139530   2.614   1.381  16.931
 9217SOL    HW239531   2.611   1.237  16.978
 9218SOL     OW39532   4.237   3.517   4.073
 9218SOL    HW139533   4.190   3.517   3.989
 9218SOL    HW239534   4.178   3.472   4.133
 9219SOL     OW39535   4.705   4.516   3.705
 9219SOL    HW139536   4.661   4.544   3.785
 9219SOL    HW239537   4.681   4.424   3.696
 9220SOL     OW39538   3.637   2.274  12.259
 9220SOL    HW139539   3.649   2.348  12.200
 9220SOL    HW239540   3.682   2.300  12.340
 9221SOL     OW39541   1.451   0.479  19.027
 9221SOL    HW139542   1.366   0.436  19.015
 9221SOL    HW239543   1.513   0.407  19.037
 9222SOL     OW39544   2.676   0.777  15.917
 9222SOL    HW139545   2.748   0.714  15.916
 9222SOL    HW239546   2.609   0.738  15.861
 9223SOL     OW39547   2.161   0.177   4.734
 9223SOL    HW139548   2.086   0.139   4.688
 9223SOL    HW239549   2.125   0.252   4.782
 9224SOL     OW39550   2.534   1.890  17.643
 9224SOL    HW139551   2.516   1.898  17.737
 9224SOL    HW239552   2.610   1.946  17.628
 9225SOL     OW39553   3.826   4.062   3.623
 9225SOL    HW139554   3.781   4.061   3.539
 9225SOL    HW239555   3.809   3.976   3.661
 9226SOL     OW39556   1.807   0.333  19.911
 9226SOL    HW139557   1.752   0.272  19.861
 9226SOL    HW239558   1.887   0.341  19.860
 9227SOL     OW39559   4.543   0.940  18.562
 9227SOL    HW139560   4.599   1.015  18.543
 9227SOL    HW239561   4.604   0.867  18.576
 9228SOL     OW39562   4.532   4.003   3.652
 9228SOL    HW139563   4.441   3.977   3.669
 9228SOL    HW239564   4.575   3.998   3.737
 9229SOL     OW39565   1.148   1.927  19.884
 9229SOL    HW139566   1.141   1.832  19.872
 9229SOL    HW239567   1.077   1.963  19.831
 9230SOL     OW39568   0.891   3.659  20.849
 9230SOL    HW139569   0.836   3.581  20.857
 9230SOL    HW239570   0.976   3.626  20.820
 9231SOL     OW39571   1.533   3.443  15.434
 9231SOL    HW139572   1.614   3.394  15.447
 9231SOL    HW239573   1.501   3.415  15.348
 9232SOL     OW39574   4.639   1.704  15.637
 9232SOL    HW139575   4.727   1.694  15.673
 9232SOL    HW239576   4.651   1.761  15.561
 9233SOL     OW39577   3.635   1.774  20.415
 9233SOL    HW139578   3.718   1.726  20.421
 9233SOL    HW239579   3.613   1.795  20.506
 9234SOL     OW39580   0.890   1.406   5.302
 9234SOL    HW139581   0.977   1.422   5.266
 9234SOL    HW239582   0.836   1.384   5.226
 9235SOL     OW39583   4.631   4.242   0.861
 9235SOL    HW139584   4.581   4.170   0.899
 9235SOL    HW239585   4.577   4.320   0.877
 9236SOL     OW39586   0.759   1.773  20.377
 9236SOL    HW139587   0.754   1.867  20.362
 9236SOL    HW239588   0.853   1.754  20.384
 9237SOL     OW39589   4.089   4.734   2.368
 9237SOL    HW139590   4.146   4.742   2.445
 9237SOL    HW239591   4.145   4.757   2.294
 9238SOL     OW39592   0.419   3.960  18.404
 9238SOL    HW139593   0.370   4.023  18.351
 9238SOL    HW239594   0.471   4.014  18.464
 9239SOL     OW39595   3.218   1.958  16.384
 9239SOL    HW139596   3.279   2.022  16.347
 9239SOL    HW239597   3.261   1.927  16.463
 9240SOL     OW39598   3.768   2.461   3.514
 9240SOL    HW139599   3.818   2.538   3.540
 9240SOL    HW239600   3.677   2.485   3.530
 9241SOL     OW39601   0.456   2.306  17.619
 9241SOL    HW139602   0.525   2.302  17.553
 9241SOL    HW239603   0.501   2.335  17.699
 9242SOL     OW39604   0.154   1.090   2.043
 9242SOL    HW139605   0.103   1.079   1.963
 9242SOL    HW239606   0.142   1.008   2.091
 9243SOL     OW39607   1.638   1.444   5.623
 9243SOL    HW139608   1.638   1.355   5.588
 9243SOL    HW239609   1.556   1.451   5.671
 9244SOL     OW39610   1.061   0.244   3.727
 9244SOL    HW139611   0.979   0.206   3.758
 9244SOL    HW239612   1.053   0.337   3.747
 9245SOL     OW39613   0.922   1.806  17.143
 9245SOL    HW139614   0.965   1.829  17.061
 9245SOL    HW239615   0.896   1.715  17.131
 9246SOL     OW39616   1.341   1.015  16.465
 9246SOL    HW139617   1.290   1.008  16.546
 9246SOL    HW239618   1.285   1.066  16.406
 9247SOL     OW39619   1.268   3.363   4.747
 9247SOL    HW139620   1.331   3.313   4.798
 9247SOL    HW239621   1.309   3.448   4.734
 9248SOL     OW39622   4.128   4.783   3.684
 9248SOL    HW139623   4.107   0.034   3.600
 9248SOL    HW239624   4.134   4.689   3.665
 9249SOL     OW39625   4.388   0.588  16.558
 9249SOL    HW139626   4.362   0.537  16.481
 9249SOL    HW239627   4.308   0.633  16.584
 9250SOL     OW39628   0.332   4.043   0.928
 9250SOL    HW139629   0.413   4.088   0.905
 9250SOL    HW239630   0.291   4.099   0.994
 9251SOL     OW39631   4.397   3.156   3.231
 9251SOL    HW139632   4.398   3.166   3.326
 9251SOL    HW239633   4.315   3.197   3.203
 9252SOL     OW39634   2.960   0.716   1.088
 9252SOL    HW139635   2.899   0.738   1.017
 9252SOL    HW239636   2.904   0.697   1.163
 9253SOL     OW39637   4.492   4.365   3.853
 9253SOL    HW139638   4.439   4.303   3.903
 9253SOL    HW239639   4.430   4.433   3.826
 9254SOL     OW39640   0.994   0.368  19.719
 9254SOL    HW139641   1.059   0.331  19.659
 9254SOL    HW239642   0.922   0.305  19.718
 9255SOL     OW39643   4.287   2.610   3.532
 9255SOL    HW139644   4.253   2.524   3.506
 9255SOL    HW239645   4.220   2.672   3.504
 9256SOL     OW39646   0.292   1.941  11.989
 9256SOL    HW139647   0.369   1.929  11.933
 9256SOL    HW239648   0.301   1.874  12.057
 9257SOL     OW39649   1.280   3.920  18.124
 9257SOL    HW139650   1.185   3.926  18.131
 9257SOL    HW239651   1.312   3.998  18.169
 9258SOL     OW39652   3.992   2.089  15.699
 9258SOL    HW139653   3.904   2.093  15.736
 9258SOL    HW239654   3.991   2.153  15.628
 9259SOL     OW39655   0.635   3.444  15.999
 9259SOL    HW139656   0.593   3.530  15.992
 9259SOL    HW239657   0.720   3.462  16.039
 9260SOL     OW39658   4.488   3.356   0.689
 9260SOL    HW139659   4.573   3.398   0.700
 9260SOL    HW239660   4.428   3.428   0.670
 9261SOL     OW39661   2.371   0.396   5.299
 9261SOL    HW139662   2.416   0.320   5.262
 9261SOL    HW239663   2.391   0.468   5.239
 9262SOL     OW39664   1.761   0.827  15.072
 9262SOL    HW139665   1.762   0.913  15.113
 9262SOL    HW239666   1.684   0.828  15.015
 9263SOL     OW39667   3.407   1.724   4.378
 9263SOL    HW139668   3.354   1.647   4.359
 9263SOL    HW239669   3.358   1.770   4.446
 9264SOL     OW39670   2.091   3.752   4.031
 9264SOL    HW139671   2.050   3.823   4.080
 9264SOL    HW239672   2.184   3.773   4.033
 9265SOL     OW39673   3.312   3.249   5.081
 9265SOL    HW139674   3.353   3.263   4.995
 9265SOL    HW239675   3.256   3.173   5.069
 9266SOL     OW39676   3.800   4.375   5.965
 9266SOL    HW139677   3.761   4.430   5.897
 9266SOL    HW239678   3.834   4.299   5.918
 9267SOL     OW39679   2.400   4.268  17.415
 9267SOL    HW139680   2.444   4.352  17.400
 9267SOL    HW239681   2.384   4.266  17.509
 9268SOL     OW39682   0.032   1.760   2.588
 9268SOL    HW139683   0.105   1.821   2.600
 9268SOL    HW239684   0.015   1.761   2.494
 9269SOL     OW39685   1.607   0.768   5.191
 9269SOL    HW139686   1.694   0.729   5.190
 9269SOL    HW239687   1.612   0.835   5.260
 9270SOL     OW39688   2.130   2.497  13.862
 9270SOL    HW139689   2.159   2.409  13.886
 9270SOL    HW239690   2.081   2.527  13.938
 9271SOL     OW39691   2.074   0.354   4.947
 9271SOL    HW139692   2.051   0.429   5.002
 9271SOL    HW239693   2.047   0.278   4.998
 9272SOL     OW39694   4.552   1.349  20.972
 9272SOL    HW139695   4.591   1.397  20.899
 9272SOL    HW239696   4.458   1.363  20.962
 9273SOL     OW39697   1.451   2.074  18.510
 9273SOL    HW139698   1.513   2.044  18.576
 9273SOL    HW239699   1.395   1.998  18.494
 9274SOL     OW39700   3.938   2.821  14.869
 9274SOL    HW139701   3.872   2.854  14.930
 9274SOL    HW239702   3.935   2.882  14.795
 9275SOL     OW39703   0.717   4.029   2.360
 9275SOL    HW139704   0.755   3.979   2.288
 9275SOL    HW239705   0.633   3.987   2.377
 9276SOL     OW39706   4.302   2.970   5.155
 9276SOL    HW139707   4.256   2.890   5.181
 9276SOL    HW239708   4.386   2.939   5.121
 9277SOL     OW39709   2.508   1.883   8.313
 9277SOL    HW139710   2.602   1.893   8.326
 9277SOL    HW239711   2.484   1.807   8.367
 9278SOL     OW39712   3.236   3.667   3.066
 9278SOL    HW139713   3.170   3.658   2.997
 9278SOL    HW239714   3.244   3.579   3.102
 9279SOL     OW39715   2.785   2.005   7.912
 9279SOL    HW139716   2.795   2.087   7.960
 9279SOL    HW239717   2.854   1.948   7.946
 9280SOL     OW39718   0.402   2.776   4.307
 9280SOL    HW139719   0.433   2.702   4.359
 9280SOL    HW239720   0.481   2.810   4.264
 9281SOL     OW39721   1.953   4.175   4.643
 9281SOL    HW139722   1.998   4.114   4.702
 9281SOL    HW239723   1.899   4.119   4.587
 9282SOL     OW39724   3.231   1.690  17.017
 9282SOL    HW139725   3.265   1.772  16.981
 9282SOL    HW239726   3.158   1.667  16.960
 9283SOL     OW39727   3.497   2.191   8.811
 9283SOL    HW139728   3.540   2.234   8.885
 9283SOL    HW239729   3.569   2.153   8.760
 9284SOL     OW39730   2.412   0.051  14.946
 9284SOL    HW139731   2.431   0.107  14.871
 9284SOL    HW239732   2.492   0.000  14.959
 9285SOL     OW39733   4.074   2.012   4.659
 9285SOL    HW139734   4.054   2.103   4.635
 9285SOL    HW239735   4.167   2.013   4.681
 9286SOL     OW39736   0.194   0.700   5.564
 9286SOL    HW139737   0.237   0.615   5.574
 9286SOL    HW239738   0.133   0.688   5.491
 9287SOL     OW39739   3.790   3.767  17.685
 9287SOL    HW139740   3.717   3.823  17.709
 9287SOL    HW239741   3.838   3.753  17.767
 9288SOL     OW39742   0.417   4.498  19.965
 9288SOL    HW139743   0.336   4.505  19.914
 9288SOL    HW239744   0.483   4.540  19.910
 9289SOL     OW39745   0.249   1.471   4.308
 9289SOL    HW139746   0.238   1.566   4.302
 9289SOL    HW239747   0.343   1.457   4.295
 9290SOL     OW39748   3.595   2.004  20.076
 9290SOL    HW139749   3.520   1.990  20.019
 9290SOL    HW239750   3.636   2.084  20.043
 9291SOL     OW39751   0.919   1.321  19.682
 9291SOL    HW139752   0.956   1.351  19.599
 9291SOL    HW239753   0.924   1.397  19.740
 9292SOL     OW39754   3.970   2.568   6.754
 9292SOL    HW139755   3.879   2.564   6.725
 9292SOL    HW239756   4.006   2.482   6.733
 9293SOL     OW39757   1.463   1.518   2.194
 9293SOL    HW139758   1.479   1.612   2.205
 9293SOL    HW239759   1.443   1.507   2.101
 9294SOL     OW39760   4.484   1.276  15.237
 9294SOL    HW139761   4.545   1.231  15.295
 9294SOL    HW239762   4.502   1.369  15.250
 9295SOL     OW39763   2.521   2.143  13.000
 9295SOL    HW139764   2.616   2.153  12.997
 9295SOL    HW239765   2.488   2.198  12.929
 9296SOL     OW39766   0.576   0.285   2.061
 9296SOL    HW139767   0.577   0.332   1.978
 9296SOL    HW239768   0.596   0.351   2.127
 9297SOL     OW39769   2.001   4.481   4.905
 9297SOL    HW139770   2.057   4.504   4.979
 9297SOL    HW239771   1.955   4.402   4.934
 9298SOL     OW39772   1.584   1.738  18.210
 9298SOL    HW139773   1.648   1.793  18.255
 9298SOL    HW239774   1.562   1.786  18.131
 9299SOL     OW39775   2.580   0.227  14.321
 9299SOL    HW139776   2.627   0.145  14.305
 9299SOL    HW239777   2.531   0.211  14.401
 9300SOL     OW39778   2.810   4.310  20.855
 9300SOL    HW139779   2.784   4.394  20.816
 9300SOL    HW239780   2.866   4.334  20.928
 9301SOL     OW39781   3.795   4.671  14.283
 9301SOL    HW139782   3.826   4.585  14.313
 9301SOL    HW239783   3.845   4.687  14.203
 9302SOL     OW39784   1.918   4.417  16.775
 9302SOL    HW139785   1.982   4.466  16.827
 9302SOL    HW239786   1.907   4.469  16.695
 9303SOL     OW39787   3.161   1.315   6.629
 9303SOL    HW139788   3.081   1.332   6.679
 9303SOL    HW239789   3.154   1.372   6.552
 9304SOL     OW39790   1.883   0.831   0.338
 9304SOL    HW139791   1.892   0.796   0.427
 9304SOL    HW239792   1.954   0.895   0.331
 9305SOL     OW39793   2.808   1.526  14.322
 9305SOL    HW139794   2.769   1.612  14.337
 9305SOL    HW239795   2.888   1.526  14.375
 9306SOL     OW39796   3.982   2.933   4.423
 9306SOL    HW139797   3.893   2.900   4.415
 9306SOL    HW239798   4.003   2.926   4.516
 9307SOL     OW39799   2.888   0.948   2.470
 9307SOL    HW139800   2.910   1.016   2.534
 9307SOL    HW239801   2.809   0.981   2.426
 9308SOL     OW39802   3.652   2.137   2.072
 9308SOL    HW139803   3.743   2.138   2.101
 9308SOL    HW239804   3.647   2.206   2.006
 9309SOL     OW39805   2.982   3.864   5.699
 9309SOL    HW139806   2.958   3.803   5.769
 9309SOL    HW239807   3.051   3.819   5.651
 9310SOL     OW39808   2.976   2.195  17.068
 9310SOL    HW139809   2.944   2.113  17.032
 9310SOL    HW239810   2.911   2.219  17.134
 9311SOL     OW39811   2.105   0.563  18.496
 9311SOL    HW139812   2.123   0.542  18.404
 9311SOL    HW239813   2.029   0.621  18.492
 9312SOL     OW39814   2.319   4.382  13.865
 9312SOL    HW139815   2.331   4.472  13.896
 9312SOL    HW239816   2.398   4.336  13.893
 9313SOL     OW39817   3.402   2.604   0.493
 9313SOL    HW139818   3.469   2.613   0.426
 9313SOL    HW239819   3.321   2.588   0.444
 9314SOL     OW39820   3.472   2.629   4.564
 9314SOL    HW139821   3.447   2.663   4.650
 9314SOL    HW239822   3.544   2.569   4.582
 9315SOL     OW39823   0.697   0.529   1.489
 9315SOL    HW139824   0.725   0.452   1.539
 9315SOL    HW239825   0.777   0.581   1.480
 9316SOL     OW39826   2.668   1.690  17.213
 9316SOL    HW139827   2.604   1.701  17.143
 9316SOL    HW239828   2.617   1.693  17.294
 9317SOL     OW39829   0.476   3.009  15.870
 9317SOL    HW139830   0.495   2.917  15.850
 9317SOL    HW239831   0.547   3.037  15.927
 9318SOL     OW39832   3.896   0.688  17.822
 9318SOL    HW139833   3.822   0.629  17.807
 9318SOL    HW239834   3.874   0.734  17.903
 9319SOL     OW39835   0.871   2.934  15.445
 9319SOL    HW139836   0.956   2.942  15.402
 9319SOL    HW239837   0.864   3.012  15.500
 9320SOL     OW39838   1.782   3.418   5.868
 9320SOL    HW139839   1.739   3.370   5.938
 9320SOL    HW239840   1.839   3.480   5.913
 9321SOL     OW39841   3.804   4.381   3.277
 9321SOL    HW139842   3.807   4.454   3.339
 9321SOL    HW239843   3.749   4.315   3.319
 9322SOL     OW39844   0.598   3.610   0.577
 9322SOL    HW139845   0.656   3.672   0.621
 9322SOL    HW239846   0.544   3.665   0.520
 9323SOL     OW39847   0.073   1.701   4.976
 9323SOL    HW139848   0.045   1.783   5.018
 9323SOL    HW239849   0.168   1.699   4.989
 9324SOL     OW39850   1.698   3.826  17.244
 9324SOL    HW139851   1.619   3.834  17.297
 9324SOL    HW239852   1.762   3.881  17.288
 9325SOL     OW39853   0.508   2.638   2.743
 9325SOL    HW139854   0.556   2.576   2.798
 9325SOL    HW239855   0.434   2.666   2.797
 9326SOL     OW39856   1.468   0.248  15.538
 9326SOL    HW139857   1.463   0.300  15.458
 9326SOL    HW239858   1.487   0.159  15.508
 9327SOL     OW39859   0.556   4.183   0.874
 9327SOL    HW139860   0.545   4.191   0.969
 9327SOL    HW239861   0.625   4.245   0.852
 9328SOL     OW39862   1.794   0.281   7.447
 9328SOL    HW139863   1.861   0.319   7.390
 9328SOL    HW239864   1.762   0.204   7.399
 9329SOL     OW39865   0.080   2.293   0.129
 9329SOL    HW139866   4.779   2.278   0.155
 9329SOL    HW239867   0.098   2.227   0.062
 9330SOL     OW39868   0.920   3.492  19.933
 9330SOL    HW139869   0.828   3.476  19.912
 9330SOL    HW239870   0.920   3.576  19.979
 9331SOL     OW39871   3.515   1.442  17.333
 9331SOL    HW139872   3.564   1.403  17.261
 9331SOL    HW239873   3.484   1.367  17.384
 9332SOL     OW39874   0.234   2.981  12.900
 9332SOL    HW139875   0.278   2.896  12.894
 9332SOL    HW239876   0.302   3.042  12.929
 9333SOL     OW39877   2.381   2.018  17.068
 9333SOL    HW139878   2.342   1.972  17.143
 9333SOL    HW239879   2.437   1.952  17.026
 9334SOL     OW39880   3.040   1.945  18.942
 9334SOL    HW139881   3.021   1.855  18.969
 9334SOL    HW239882   2.963   1.995  18.968
 9335SOL     OW39883   2.712   4.461   5.220
 9335SOL    HW139884   2.787   4.472   5.279
 9335SOL    HW239885   2.746   4.410   5.147
 9336SOL     OW39886   2.951   4.626  17.568
 9336SOL    HW139887   3.016   4.556  17.579
 9336SOL    HW239888   2.976   4.669  17.486
 9337SOL     OW39889   1.315   2.020   7.001
 9337SOL    HW139890   1.257   2.096   7.011
 9337SOL    HW239891   1.272   1.965   6.936
 9338SOL     OW39892   3.827   2.496  19.631
 9338SOL    HW139893   3.771   2.561  19.672
 9338SOL    HW239894   3.894   2.477  19.696
 9339SOL     OW39895   3.619   1.273   0.768
 9339SOL    HW139896   3.690   1.209   0.778
 9339SOL    HW239897   3.558   1.252   0.839
 9340SOL     OW39898   1.788   1.545  17.585
 9340SOL    HW139899   1.802   1.605  17.512
 9340SOL    HW239900   1.821   1.461  17.553
 9341SOL     OW39901   1.953   4.469   0.020
 9341SOL    HW139902   1.872   4.443  21.233
 9341SOL    HW239903   1.924   4.521   0.095
 9342SOL     OW39904   0.755   1.757  13.190
 9342SOL    HW139905   0.840   1.793  13.164
 9342SOL    HW239906   0.743   1.682  13.132
 9343SOL     OW39907   0.822   2.299  13.672
 9343SOL    HW139908   0.761   2.251  13.616
 9343SOL    HW239909   0.834   2.243  13.749
 9344SOL     OW39910   0.613   4.026   0.643
 9344SOL    HW139911   0.590   4.079   0.720
 9344SOL    HW239912   0.609   3.936   0.674
 9345SOL     OW39913   4.135   1.633  21.132
 9345SOL    HW139914   4.227   1.621  21.156
 9345SOL    HW239915   4.101   1.695  21.197
 9346SOL     OW39916   1.935   0.357  15.229
 9346SOL    HW139917   2.024   0.355  15.193
 9346SOL    HW239918   1.903   0.445  15.208
 9347SOL     OW39919   3.582   1.792   7.065
 9347SOL    HW139920   3.490   1.819   7.068
 9347SOL    HW239921   3.623   1.839   7.138
 9348SOL     OW39922   0.637   1.789   0.970
 9348SOL    HW139923   0.608   1.700   0.951
 9348SOL    HW239924   0.657   1.826   0.884
 9349SOL     OW39925   3.087   2.513  20.782
 9349SOL    HW139926   3.135   2.433  20.763
 9349SOL    HW239927   3.029   2.525  20.706
 9350SOL     OW39928   2.184   4.726  15.392
 9350SOL    HW139929   2.099   4.769  15.383
 9350SOL    HW239930   2.247   0.008  15.393
 9351SOL     OW39931   2.090   4.066  13.576
 9351SOL    HW139932   2.011   4.107  13.610
 9351SOL    HW239933   2.139   4.138  13.536
 9352SOL     OW39934   0.763   2.081   5.894
 9352SOL    HW139935   0.844   2.131   5.899
 9352SOL    HW239936   0.769   2.032   5.812
 9353SOL     OW39937   2.339   4.345   0.473
 9353SOL    HW139938   2.270   4.317   0.533
 9353SOL    HW239939   2.416   4.295   0.500
 9354SOL     OW39940   4.090   2.911   8.326
 9354SOL    HW139941   4.041   2.832   8.349
 9354SOL    HW239942   4.069   2.926   8.234
 9355SOL     OW39943   0.631   3.608  16.765
 9355SOL    HW139944   0.698   3.675  16.750
 9355SOL    HW239945   0.557   3.656  16.803
 9356SOL     OW39946   4.126   0.582  19.559
 9356SOL    HW139947   4.169   0.498  19.573
 9356SOL    HW239948   4.080   0.572  19.476
 9357SOL     OW39949   0.738   4.087  20.171
 9357SOL    HW139950   0.696   4.002  20.157
 9357SOL    HW239951   0.678   4.151  20.131
 9358SOL     OW39952   3.566   2.024   2.959
 9358SOL    HW139953   3.558   1.970   3.038
 9358SOL    HW239954   3.660   2.032   2.945
 9359SOL     OW39955   0.967   3.564  15.829
 9359SOL    HW139956   0.971   3.509  15.751
 9359SOL    HW239957   1.026   3.522  15.891
 9360SOL     OW39958   2.464   1.204  15.818
 9360SOL    HW139959   2.476   1.290  15.858
 9360SOL    HW239960   2.536   1.152  15.853
 9361SOL     OW39961   1.400   4.617  17.213
 9361SOL    HW139962   1.493   4.599  17.201
 9361SOL    HW239963   1.359   4.588  17.131
 9362SOL     OW39964   3.326   2.465   0.977
 9362SOL    HW139965   3.338   2.479   0.883
 9362SOL    HW239966   3.276   2.383   0.983
 9363SOL     OW39967   4.463   3.078   3.543
 9363SOL    HW139968   4.517   3.000   3.530
 9363SOL    HW239969   4.387   3.047   3.593
 9364SOL     OW39970   1.956   4.113  19.613
 9364SOL    HW139971   1.987   4.133  19.701
 9364SOL    HW239972   1.967   4.018  19.604
 9365SOL     OW39973   4.438   0.272   4.097
 9365SOL    HW139974   4.456   0.286   4.004
 9365SOL    HW239975   4.480   0.188   4.117
 9366SOL     OW39976   0.055   4.287   0.697
 9366SOL    HW139977   0.102   4.204   0.697
 9366SOL    HW239978   4.765   4.270   0.747
 9367SOL     OW39979   1.168   3.348  15.453
 9367SOL    HW139980   1.157   3.329  15.546
 9367SOL    HW239981   1.101   3.414  15.435
 9368SOL     OW39982   3.668   1.559  15.601
 9368SOL    HW139983   3.583   1.573  15.560
 9368SOL    HW239984   3.671   1.465  15.617
 9369SOL     OW39985   0.079   3.814  14.914
 9369SOL    HW139986   0.039   3.742  14.963
 9369SOL    HW239987   0.027   3.820  14.834
 9370SOL     OW39988   3.182   2.375  17.013
 9370SOL    HW139989   3.264   2.346  17.052
 9370SOL    HW239990   3.114   2.328  17.061
 9371SOL     OW39991   1.923   3.778   6.319
 9371SOL    HW139992   1.987   3.707   6.319
 9371SOL    HW239993   1.974   3.856   6.295
 9372SOL     OW39994   3.950   1.344   1.581
 9372SOL    HW139995   4.011   1.401   1.629
 9372SOL    HW239996   3.931   1.392   1.500
 9373SOL     OW39997   2.127   2.176  15.485
 9373SOL    HW139998   2.178   2.169  15.404
 9373SOL    HW239999   2.079   2.258  15.476
 9374SOL     OW40000   3.256   0.020  15.810
 9374SOL    HW140001   3.301   0.102  15.829
 9374SOL    HW240002   3.184   0.016  15.873
 9375SOL     OW40003   4.317   4.623  20.819
 9375SOL    HW140004   4.308   4.593  20.910
 9375SOL    HW240005   4.327   4.543  20.768
 9376SOL     OW40006   0.377   3.479   6.319
 9376SOL    HW140007   0.324   3.431   6.256
 9376SOL    HW240008   0.391   3.564   6.278
 9377SOL     OW40009   1.973   3.413  19.917
 9377SOL    HW140010   2.033   3.363  19.862
 9377SOL    HW240011   1.950   3.353  19.988
 9378SOL     OW40012   4.053   3.804  19.894
 9378SOL    HW140013   4.110   3.765  19.960
 9378SOL    HW240014   4.007   3.874  19.941
 9379SOL     OW40015   3.793   2.904   6.415
 9379SOL    HW140016   3.817   2.912   6.507
 9379SOL    HW240017   3.819   2.987   6.376
 9380SOL     OW40018   1.230   1.351  17.867
 9380SOL    HW140019   1.137   1.327  17.867
 9380SOL    HW240020   1.239   1.414  17.796
 9381SOL     OW40021   0.932   4.748  15.210
 9381SOL    HW140022   0.897   4.702  15.134
 9381SOL    HW240023   0.993   4.686  15.250
 9382SOL     OW40024   0.941   3.329   8.439
 9382SOL    HW140025   0.939   3.241   8.401
 9382SOL    HW240026   1.030   3.338   8.473
 9383SOL     OW40027   2.391   3.452   0.409
 9383SOL    HW140028   2.299   3.477   0.414
 9383SOL    HW240029   2.438   3.527   0.446
 9384SOL     OW40030   2.632   4.553  18.855
 9384SOL    HW140031   2.545   4.516  18.842
 9384SOL    HW240032   2.692   4.480  18.840
 9385SOL     OW40033   0.538   1.695  20.540
 9385SOL    HW140034   0.616   1.705  20.486
 9385SOL    HW240035   0.510   1.785  20.558
 9386SOL     OW40036   4.156   0.740   0.602
 9386SOL    HW140037   4.230   0.694   0.642
 9386SOL    HW240038   4.188   0.766   0.516
 9387SOL     OW40039   2.324   4.203   6.021
 9387SOL    HW140040   2.366   4.286   5.997
 9387SOL    HW240041   2.230   4.223   6.021
 9388SOL     OW40042   4.245   0.665   5.149
 9388SOL    HW140043   4.298   0.718   5.209
 9388SOL    HW240044   4.163   0.650   5.197
 9389SOL     OW40045   0.814   3.683  11.577
 9389SOL    HW140046   0.824   3.650  11.488
 9389SOL    HW240047   0.836   3.776  11.571
 9390SOL     OW40048   3.878   3.009  16.232
 9390SOL    HW140049   3.915   2.934  16.278
 9390SOL    HW240050   3.856   3.071  16.301
 9391SOL     OW40051   0.661   0.238  11.198
 9391SOL    HW140052   0.586   0.258  11.142
 9391SOL    HW240053   0.735   0.279  11.153
 9392SOL     OW40054   4.516   2.582  20.325
 9392SOL    HW140055   4.464   2.548  20.398
 9392SOL    HW240056   4.578   2.642  20.366
 9393SOL     OW40057   0.765   0.308  16.306
 9393SOL    HW140058   0.821   0.385  16.310
 9393SOL    HW240059   0.736   0.304  16.215
 9394SOL     OW40060   4.076   4.278  18.930
 9394SOL    HW140061   4.004   4.236  18.883
 9394SOL    HW240062   4.092   4.359  18.881
 9395SOL     OW40063   3.633   0.870  15.793
 9395SOL    HW140064   3.600   0.937  15.733
 9395SOL    HW240065   3.727   0.889  15.801
 9396SOL     OW40066   4.174   3.001   2.898
 9396SOL    HW140067   4.226   3.075   2.929
 9396SOL    HW240068   4.218   2.972   2.818
 9397SOL     OW40069   1.932   3.839   0.460
 9397SOL    HW140070   1.925   3.850   0.365
 9397SOL    HW240071   2.019   3.873   0.482
 9398SOL     OW40072   3.124   3.204  18.162
 9398SOL    HW140073   3.159   3.148  18.093
 9398SOL    HW240074   3.034   3.173  18.174
 9399SOL     OW40075   3.585   3.873  11.958
 9399SOL    HW140076   3.641   3.940  11.919
 9399SOL    HW240077   3.524   3.850  11.888
 9400SOL     OW40078   3.130   3.488   1.515
 9400SOL    HW140079   3.132   3.445   1.430
 9400SOL    HW240080   3.157   3.420   1.577
 9401SOL     OW40081   1.870   1.461   0.474
 9401SOL    HW140082   1.901   1.371   0.463
 9401SOL    HW240083   1.824   1.481   0.392
 9402SOL     OW40084   3.755   0.332  18.333
 9402SOL    HW140085   3.690   0.271  18.298
 9402SOL    HW240086   3.825   0.333  18.268
 9403SOL     OW40087   2.747   3.082   8.013
 9403SOL    HW140088   2.839   3.108   8.002
 9403SOL    HW240089   2.750   3.010   8.077
 9404SOL     OW40090   0.378   4.289   0.103
 9404SOL    HW140091   0.317   4.229   0.060
 9404SOL    HW240092   0.337   4.375   0.095
 9405SOL     OW40093   0.040   4.731  16.844
 9405SOL    HW140094   4.777   4.712  16.766
 9405SOL    HW240095   0.070   0.031  16.832
 9406SOL     OW40096   1.019   3.491  20.511
 9406SOL    HW140097   0.974   3.442  20.579
 9406SOL    HW240098   1.036   3.426  20.442
 9407SOL     OW40099   0.239   1.055   5.107
 9407SOL    HW140100   0.266   0.971   5.069
 9407SOL    HW240101   0.146   1.063   5.086
 9408SOL     OW40102   1.871   4.228   5.014
 9408SOL    HW140103   1.863   4.145   4.966
 9408SOL    HW240104   1.835   4.209   5.101
 9409SOL     OW40105   3.870   4.175  18.777
 9409SOL    HW140106   3.777   4.198  18.775
 9409SOL    HW240107   3.903   4.201  18.691
 9410SOL     OW40108   2.430   1.727  15.946
 9410SOL    HW140109   2.454   1.814  15.978
 9410SOL    HW240110   2.362   1.697  16.006
 9411SOL     OW40111   1.828   0.243   2.141
 9411SOL    HW140112   1.805   0.178   2.075
 9411SOL    HW240113   1.746   0.289   2.159
 9412SOL     OW40114   2.793   4.095  17.299
 9412SOL    HW140115   2.830   4.007  17.294
 9412SOL    HW240116   2.805   4.122  17.390
 9413SOL     OW40117   1.906   2.071  18.628
 9413SOL    HW140118   1.883   2.156  18.591
 9413SOL    HW240119   2.001   2.075  18.641
 9414SOL     OW40120   0.987   1.082   5.834
 9414SOL    HW140121   0.910   1.114   5.786
 9414SOL    HW240122   0.951   1.045   5.915
 9415SOL     OW40123   1.225   0.069   9.111
 9415SOL    HW140124   1.149   0.127   9.118
 9415SOL    HW240125   1.221   0.014   9.190
 9416SOL     OW40126   3.887   4.210  19.596
 9416SOL    HW140127   3.817   4.177  19.653
 9416SOL    HW240128   3.959   4.148  19.609
 9417SOL     OW40129   3.885   3.918   5.448
 9417SOL    HW140130   3.929   3.877   5.374
 9417SOL    HW240131   3.824   3.852   5.480
 9418SOL     OW40132   0.914   1.854   1.028
 9418SOL    HW140133   0.841   1.794   1.012
 9418SOL    HW240134   0.981   1.827   0.965
 9419SOL     OW40135   0.895   2.804   6.265
 9419SOL    HW140136   0.909   2.733   6.203
 9419SOL    HW240137   0.880   2.760   6.349
 9420SOL     OW40138   0.832   4.458   0.216
 9420SOL    HW140139   0.772   4.453   0.290
 9420SOL    HW240140   0.783   4.423   0.142
 9421SOL     OW40141   3.731   0.535   4.682
 9421SOL    HW140142   3.683   0.560   4.603
 9421SOL    HW240143   3.790   0.609   4.698
 9422SOL     OW40144   3.207   3.457   2.140
 9422SOL    HW140145   3.239   3.545   2.160
 9422SOL    HW240146   3.285   3.402   2.143
 9423SOL     OW40147   0.560   0.797  13.465
 9423SOL    HW140148   0.575   0.703  13.477
 9423SOL    HW240149   0.478   0.803  13.416
 9424SOL     OW40150   0.012   2.643   2.356
 9424SOL    HW140151   0.088   2.640   2.298
 9424SOL    HW240152   4.736   2.590   2.311
 9425SOL     OW40153   3.587   0.312  16.626
 9425SOL    HW140154   3.520   0.252  16.593
 9425SOL    HW240155   3.665   0.291  16.575
 9426SOL     OW40156   2.410   4.009   1.388
 9426SOL    HW140157   2.396   3.935   1.329
 9426SOL    HW240158   2.487   4.053   1.353
 9427SOL     OW40159   2.121   0.043  20.338
 9427SOL    HW140160   2.150   0.122  20.292
 9427SOL    HW240161   2.027   0.055  20.350
 9428SOL     OW40162   2.535   1.712   0.928
 9428SOL    HW140163   2.466   1.684   0.868
 9428SOL    HW240164   2.560   1.799   0.897
 9429SOL     OW40165   4.384   1.026  20.826
 9429SOL    HW140166   4.398   1.104  20.772
 9429SOL    HW240167   4.295   0.998  20.805
 9430SOL     OW40168   2.698   2.638  17.123
 9430SOL    HW140169   2.639   2.710  17.102
 9430SOL    HW240170   2.646   2.579  17.178
 9431SOL     OW40171   2.842   4.481  18.402
 9431SOL    HW140172   2.817   4.550  18.340
 9431SOL    HW240173   2.779   4.410  18.386
 9432SOL     OW40174   4.270   3.546  18.143
 9432SOL    HW140175   4.327   3.529  18.218
 9432SOL    HW240176   4.324   3.525  18.067
 9433SOL     OW40177   1.361   4.755   5.117
 9433SOL    HW140178   1.324   4.667   5.120
 9433SOL    HW240179   1.288   0.021   5.090
 9434SOL     OW40180   1.834   0.115   4.116
 9434SOL    HW140181   1.819   0.194   4.064
 9434SOL    HW240182   1.890   0.060   4.061
 9435SOL     OW40183   1.045   2.219  20.766
 9435SOL    HW140184   1.054   2.125  20.783
 9435SOL    HW240185   1.075   2.230  20.676
 9436SOL     OW40186   1.549   3.828   5.924
 9436SOL    HW140187   1.596   3.811   6.006
 9436SOL    HW240188   1.497   3.906   5.941
 9437SOL     OW40189   0.222   2.880   3.270
 9437SOL    HW140190   0.272   2.949   3.226
 9437SOL    HW240191   0.285   2.809   3.282
 9438SOL     OW40192   3.375   4.019  19.224
 9438SOL    HW140193   3.412   4.059  19.145
 9438SOL    HW240194   3.446   4.023  19.288
 9439SOL     OW40195   2.645   0.964  18.005
 9439SOL    HW140196   2.643   1.057  18.028
 9439SOL    HW240197   2.676   0.962  17.915
 9440SOL     OW40198   1.978   1.555   2.249
 9440SOL    HW140199   1.968   1.606   2.168
 9440SOL    HW240200   1.893   1.513   2.261
 9441SOL     OW40201   0.271   0.938  14.334
 9441SOL    HW140202   0.183   0.900  14.329
 9441SOL    HW240203   0.330   0.863  14.329
 9442SOL     OW40204   1.036   3.638   2.074
 9442SOL    HW140205   1.093   3.590   2.134
 9442SOL    HW240206   1.087   3.715   2.048
 9443SOL     OW40207   4.271   0.648  11.671
 9443SOL    HW140208   4.343   0.711  11.681
 9443SOL    HW240209   4.314   0.564  11.655
 9444SOL     OW40210   2.329   0.330  16.813
 9444SOL    HW140211   2.246   0.317  16.767
 9444SOL    HW240212   2.304   0.356  16.902
 9445SOL     OW40213   0.014   1.899  19.934
 9445SOL    HW140214   4.778   1.826  19.990
 9445SOL    HW240215   4.721   1.939  19.908
 9446SOL     OW40216   3.625   4.245   1.608
 9446SOL    HW140217   3.537   4.266   1.639
 9446SOL    HW240218   3.619   4.254   1.513
 9447SOL     OW40219   2.155   3.886  13.148
 9447SOL    HW140220   2.208   3.964  13.133
 9447SOL    HW240221   2.172   3.862  13.239
 9448SOL     OW40222   2.238   0.884   5.197
 9448SOL    HW140223   2.323   0.924   5.217
 9448SOL    HW240224   2.244   0.795   5.233
 9449SOL     OW40225   2.878   1.904   6.859
 9449SOL    HW140226   2.934   1.827   6.865
 9449SOL    HW240227   2.834   1.895   6.774
 9450SOL     OW40228   4.739   0.726  18.584
 9450SOL    HW140229   0.028   0.718  18.531
 9450SOL    HW240230   4.699   0.639  18.582
 9451SOL     OW40231   3.218   2.772  20.763
 9451SOL    HW140232   3.158   2.717  20.713
 9451SOL    HW240233   3.161   2.823  20.820
 9452SOL     OW40234   1.555   2.516   2.194
 9452SOL    HW140235   1.503   2.453   2.245
 9452SOL    HW240236   1.646   2.490   2.209
 9453SOL     OW40237   3.364   2.166  18.133
 9453SOL    HW140238   3.295   2.107  18.104
 9453SOL    HW240239   3.325   2.216  18.204
 9454SOL     OW40240   3.577   0.767  18.692
 9454SOL    HW140241   3.568   0.672  18.683
 9454SOL    HW240242   3.487   0.800  18.688
 9455SOL     OW40243   2.633   2.640  18.000
 9455SOL    HW140244   2.590   2.670  18.080
 9455SOL    HW240245   2.727   2.648  18.019
 9456SOL     OW40246   4.501   3.528   5.979
 9456SOL    HW140247   4.552   3.592   6.028
 9456SOL    HW240248   4.498   3.451   6.036
 9457SOL     OW40249   4.256   3.003  17.649
 9457SOL    HW140250   4.309   3.023  17.726
 9457SOL    HW240251   4.318   2.968  17.585
 9458SOL     OW40252   1.477   2.522   6.326
 9458SOL    HW140253   1.514   2.591   6.271
 9458SOL    HW240254   1.553   2.475   6.360
 9459SOL     OW40255   0.124   4.642  17.569
 9459SOL    HW140256   0.138   4.680  17.482
 9459SOL    HW240257   0.032   4.616  17.570
 9460SOL     OW40258   4.596   4.176  20.436
 9460SOL    HW140259   4.608   4.094  20.484
 9460SOL    HW240260   4.609   4.153  20.344
 9461SOL     OW40261   2.877   3.899  19.585
 9461SOL    HW140262   2.946   3.933  19.642
 9461SOL    HW240263   2.842   3.976  19.540
 9462SOL     OW40264   4.615   1.723   3.403
 9462SOL    HW140265   4.562   1.732   3.482
 9462SOL    HW240266   4.561   1.670   3.344
 9463SOL     OW40267   1.269   1.731  18.870
 9463SOL    HW140268   1.276   1.815  18.825
 9463SOL    HW240269   1.207   1.680  18.818
 9464SOL     OW40270   2.407   1.225  18.470
 9464SOL    HW140271   2.492   1.183  18.456
 9464SOL    HW240272   2.385   1.205  18.561
 9465SOL     OW40273   3.816   2.035   3.673
 9465SOL    HW140274   3.840   2.125   3.652
 9465SOL    HW240275   3.895   1.984   3.653
 9466SOL     OW40276   2.465   2.689  13.044
 9466SOL    HW140277   2.494   2.603  13.013
 9466SOL    HW240278   2.378   2.673  13.080
 9467SOL     OW40279   3.820   1.120  18.121
 9467SOL    HW140280   3.878   1.195  18.108
 9467SOL    HW240281   3.868   1.062  18.180
 9468SOL     OW40282   1.922   3.777   1.766
 9468SOL    HW140283   1.846   3.783   1.824
 9468SOL    HW240284   1.952   3.867   1.757
 9469SOL     OW40285   1.803   0.821  20.873
 9469SOL    HW140286   1.890   0.845  20.841
 9469SOL    HW240287   1.750   0.812  20.794
 9470SOL     OW40288   3.623   3.647   1.394
 9470SOL    HW140289   3.595   3.718   1.452
 9470SOL    HW240290   3.557   3.646   1.325
 9471SOL     OW40291   2.940   2.242   2.035
 9471SOL    HW140292   2.869   2.214   1.976
 9471SOL    HW240293   3.010   2.178   2.020
 9472SOL     OW40294   2.909   0.877  14.935
 9472SOL    HW140295   2.871   0.965  14.941
 9472SOL    HW240296   2.981   0.877  14.999
 9473SOL     OW40297   4.656   2.194  20.968
 9473SOL    HW140298   4.651   2.284  21.000
 9473SOL    HW240299   4.608   2.143  21.033
 9474SOL     OW40300   1.322   3.040   4.881
 9474SOL    HW140301   1.378   3.008   4.952
 9474SOL    HW240302   1.274   3.113   4.919
 9475SOL     OW40303   2.247   1.168  19.676
 9475SOL    HW140304   2.296   1.213  19.608
 9475SOL    HW240305   2.292   1.084  19.687
 9476SOL     OW40306   0.473   0.768   5.921
 9476SOL    HW140307   0.505   0.703   5.983
 9476SOL    HW240308   0.482   0.852   5.967
 9477SOL     OW40309   4.194   4.503  20.514
 9477SOL    HW140310   4.274   4.527  20.467
 9477SOL    HW240311   4.225   4.459  20.593
 9478SOL     OW40312   2.007   0.803  18.283
 9478SOL    HW140313   2.067   0.841  18.219
 9478SOL    HW240314   2.045   0.824  18.368
 9479SOL     OW40315   0.287   0.026  20.939
 9479SOL    HW140316   0.239   0.064  20.866
 9479SOL    HW240317   0.349   0.094  20.966
 9480SOL     OW40318   2.967   1.183  15.774
 9480SOL    HW140319   2.883   1.228  15.766
 9480SOL    HW240320   2.954   1.100  15.728
 9481SOL     OW40321   2.804   2.430  20.650
 9481SOL    HW140322   2.770   2.499  20.707
 9481SOL    HW240323   2.730   2.408  20.593
 9482SOL     OW40324   2.898   1.916  17.116
 9482SOL    HW140325   2.903   1.833  17.068
 9482SOL    HW240326   2.965   1.908  17.184
 9483SOL     OW40327   1.070   4.237   2.432
 9483SOL    HW140328   1.036   4.265   2.347
 9483SOL    HW240329   1.162   4.263   2.430
 9484SOL     OW40330   3.320   0.070  19.495
 9484SOL    HW140331   3.348   0.111  19.413
 9484SOL    HW240332   3.225   0.079  19.495
 9485SOL     OW40333   3.621   4.233   6.186
 9485SOL    HW140334   3.609   4.273   6.100
 9485SOL    HW240335   3.592   4.143   6.174
 9486SOL     OW40336   0.892   1.362   3.370
 9486SOL    HW140337   0.915   1.454   3.355
 9486SOL    HW240338   0.865   1.329   3.284
 9487SOL     OW40339   1.988   1.785  16.419
 9487SOL    HW140340   2.073   1.814  16.385
 9487SOL    HW240341   1.924   1.834  16.367
 9488SOL     OW40342   2.599   3.808  15.617
 9488SOL    HW140343   2.566   3.844  15.535
 9488SOL    HW240344   2.524   3.813  15.677
 9489SOL     OW40345   2.274   3.205   0.926
 9489SOL    HW140346   2.248   3.129   0.978
 9489SOL    HW240347   2.256   3.280   0.983
 9490SOL     OW40348   1.870   4.314   5.362
 9490SOL    HW140349   1.865   4.322   5.457
 9490SOL    HW240350   1.846   4.401   5.329
 9491SOL     OW40351   3.612   0.578  17.132
 9491SOL    HW140352   3.667   0.601  17.057
 9491SOL    HW240353   3.673   0.573  17.206
 9492SOL     OW40354   2.620   4.622  16.050
 9492SOL    HW140355   2.576   4.580  16.124
 9492SOL    HW240356   2.573   4.591  15.973
 9493SOL     OW40357   3.069   4.442  12.867
 9493SOL    HW140358   3.104   4.509  12.926
 9493SOL    HW240359   3.124   4.365  12.883
 9494SOL     OW40360   2.144   0.248  14.423
 9494SOL    HW140361   2.083   0.181  14.392
 9494SOL    HW240362   2.097   0.293  14.493
 9495SOL     OW40363   0.312   4.160  18.247
 9495SOL    HW140364   0.347   4.239  18.205
 9495SOL    HW240365   0.249   4.193  18.312
 9496SOL     OW40366   2.499   0.753   5.038
 9496SOL    HW140367   2.543   0.686   4.986
 9496SOL    HW240368   2.516   0.728   5.129
 9497SOL     OW40369   1.870   2.804  15.458
 9497SOL    HW140370   1.928   2.761  15.521
 9497SOL    HW240371   1.884   2.898  15.473
 9498SOL     OW40372   0.933   3.235  14.524
 9498SOL    HW140373   0.982   3.286  14.589
 9498SOL    HW240374   0.955   3.276  14.440
 9499SOL     OW40375   3.172   0.863  14.520
 9499SOL    HW140376   3.150   0.847  14.612
 9499SOL    HW240377   3.217   0.948  14.521
 9500SOL     OW40378   3.235   4.680   3.966
 9500SOL    HW140379   3.217   4.721   4.050
 9500SOL    HW240380   3.212   4.588   3.979
 9501SOL     OW40381   2.084   1.074  19.216
 9501SOL    HW140382   2.072   1.067  19.311
 9501SOL    HW240383   2.002   1.112  19.184
 9502SOL     OW40384   4.090   3.175   0.434
 9502SOL    HW140385   4.051   3.126   0.506
 9502SOL    HW240386   4.171   3.211   0.470
 9503SOL     OW40387   1.908   0.414  14.498
 9503SOL    HW140388   1.902   0.508  14.484
 9503SOL    HW240389   1.828   0.379  14.459
 9504SOL     OW40390   3.358   2.258  17.867
 9504SOL    HW140391   3.340   2.350  17.847
 9504SOL    HW240392   3.351   2.253  17.962
 9505SOL     OW40393   0.137   2.697   0.737
 9505SOL    HW140394   0.059   2.687   0.682
 9505SOL    HW240395   0.209   2.667   0.682
 9506SOL     OW40396   0.843   0.716   2.611
 9506SOL    HW140397   0.896   0.792   2.588
 9506SOL    HW240398   0.873   0.691   2.698
 9507SOL     OW40399   3.998   2.603   3.909
 9507SOL    HW140400   3.992   2.592   4.004
 9507SOL    HW240401   3.908   2.597   3.879
 9508SOL     OW40402   3.543   1.914  16.535
 9508SOL    HW140403   3.509   1.952  16.616
 9508SOL    HW240404   3.575   1.989  16.485
 9509SOL     OW40405   3.700   4.090   6.616
 9509SOL    HW140406   3.643   4.167   6.621
 9509SOL    HW240407   3.654   4.030   6.558
 9510SOL     OW40408   2.213   2.714  15.820
 9510SOL    HW140409   2.242   2.795  15.863
 9510SOL    HW240410   2.167   2.665  15.888
 9511SOL     OW40411   2.904   4.545   2.611
 9511SOL    HW140412   2.938   4.607   2.675
 9511SOL    HW240413   2.859   4.599   2.546
 9512SOL     OW40414   0.346   1.648   3.127
 9512SOL    HW140415   0.369   1.689   3.044
 9512SOL    HW240416   0.418   1.671   3.186
 9513SOL     OW40417   0.052   1.636  16.926
 9513SOL    HW140418   0.112   1.706  16.900
 9513SOL    HW240419   0.011   1.668  17.006
 9514SOL     OW40420   0.841   2.728   5.656
 9514SOL    HW140421   0.769   2.767   5.607
 9514SOL    HW240422   0.857   2.789   5.728
 9515SOL     OW40423   1.871   1.921  19.256
 9515SOL    HW140424   1.887   1.899  19.164
 9515SOL    HW240425   1.956   1.948  19.290
 9516SOL     OW40426   4.654   4.682  18.644
 9516SOL    HW140427   4.623   4.604  18.690
 9516SOL    HW240428   4.679   4.651  18.557
 9517SOL     OW40429   4.105   0.338  20.644
 9517SOL    HW140430   4.074   0.419  20.685
 9517SOL    HW240431   4.181   0.312  20.696
 9518SOL     OW40432   0.461   2.348  14.274
 9518SOL    HW140433   0.393   2.387  14.329
 9518SOL    HW240434   0.414   2.290  14.215
 9519SOL     OW40435   2.910   3.635   2.094
 9519SOL    HW140436   2.917   3.570   2.164
 9519SOL    HW240437   2.891   3.583   2.016
 9520SOL     OW40438   2.968   2.395  12.923
 9520SOL    HW140439   2.933   2.439  13.001
 9520SOL    HW240440   2.965   2.462  12.855
 9521SOL     OW40441   2.070   3.477   1.479
 9521SOL    HW140442   2.083   3.462   1.385
 9521SOL    HW240443   2.057   3.390   1.516
 9522SOL     OW40444   2.046   1.948   2.451
 9522SOL    HW140445   2.123   1.922   2.400
 9522SOL    HW240446   1.975   1.951   2.387
 9523SOL     OW40447   2.480   3.097  17.884
 9523SOL    HW140448   2.572   3.081  17.865
 9523SOL    HW240449   2.481   3.153  17.962
 9524SOL     OW40450   2.674   4.764   6.186
 9524SOL    HW140451   2.663   4.780   6.092
 9524SOL    HW240452   2.699   0.060   6.222
 9525SOL     OW40453   1.768   4.092   5.281
 9525SOL    HW140454   1.813   4.171   5.311
 9525SOL    HW240455   1.692   4.085   5.339
 9526SOL     OW40456   2.415   1.074   5.618
 9526SOL    HW140457   2.499   1.100   5.579
 9526SOL    HW240458   2.428   1.084   5.712
 9527SOL     OW40459   2.386   2.060   3.133
 9527SOL    HW140460   2.308   2.052   3.078
 9527SOL    HW240461   2.448   1.997   3.095
 9528SOL     OW40462   4.400   1.747   2.338
 9528SOL    HW140463   4.338   1.778   2.272
 9528SOL    HW240464   4.440   1.827   2.372
 9529SOL     OW40465   0.119   2.546   6.437
 9529SOL    HW140466   0.117   2.606   6.511
 9529SOL    HW240467   0.047   2.574   6.381
 9530SOL     OW40468   4.531   1.705  19.364
 9530SOL    HW140469   4.457   1.755  19.328
 9530SOL    HW240470   4.607   1.762  19.350
 9531SOL     OW40471   2.503   3.749   3.068
 9531SOL    HW140472   2.441   3.795   3.011
 9531SOL    HW240473   2.506   3.801   3.148
 9532SOL     OW40474   1.475   0.573   4.135
 9532SOL    HW140475   1.413   0.502   4.120
 9532SOL    HW240476   1.420   0.649   4.153
 9533SOL     OW40477   2.229   4.298  18.572
 9533SOL    HW140478   2.238   4.204  18.586
 9533SOL    HW240479   2.150   4.307  18.519
 9534SOL     OW40480   2.682   4.025   1.300
 9534SOL    HW140481   2.750   4.092   1.305
 9534SOL    HW240482   2.727   3.943   1.318
 9535SOL     OW40483   2.074   3.336   7.434
 9535SOL    HW140484   2.079   3.259   7.377
 9535SOL    HW240485   2.029   3.305   7.512
 9536SOL     OW40486   3.803   4.658   2.897
 9536SOL    HW140487   3.742   4.664   2.824
 9536SOL    HW240488   3.769   4.587   2.951
 9537SOL     OW40489   1.261   4.735   1.739
 9537SOL    HW140490   1.172   4.733   1.774
 9537SOL    HW240491   1.285   0.038   1.739
 9538SOL     OW40492   2.087   0.996   0.326
 9538SOL    HW140493   2.109   1.074   0.276
 9538SOL    HW240494   2.143   1.000   0.404
 9539SOL     OW40495   3.478   2.853   1.141
 9539SOL    HW140496   3.558   2.846   1.193
 9539SOL    HW240497   3.489   2.935   1.092
 9540SOL     OW40498   4.226   1.168   2.202
 9540SOL    HW140499   4.256   1.111   2.273
 9540SOL    HW240500   4.169   1.113   2.149
 9541SOL     OW40501   3.098   0.964   0.262
 9541SOL    HW140502   3.099   1.059   0.255
 9541SOL    HW240503   3.180   0.936   0.222
 9542SOL     OW40504   1.878   3.492  18.776
 9542SOL    HW140505   1.923   3.465  18.856
 9542SOL    HW240506   1.930   3.566  18.743
 9543SOL     OW40507   3.816   4.737   0.766
 9543SOL    HW140508   3.883   0.011   0.741
 9543SOL    HW240509   3.746   4.789   0.806
 9544SOL     OW40510   0.127   4.111  20.678
 9544SOL    HW140511   0.065   4.125  20.607
 9544SOL    HW240512   0.116   4.019  20.703
 9545SOL     OW40513   1.504   1.655  17.104
 9545SOL    HW140514   1.501   1.663  17.009
 9545SOL    HW240515   1.502   1.745  17.135
 9546SOL     OW40516   1.927   1.364   0.912
 9546SOL    HW140517   2.014   1.396   0.887
 9546SOL    HW240518   1.905   1.301   0.844
 9547SOL     OW40519   0.754   3.049  19.068
 9547SOL    HW140520   0.667   3.023  19.039
 9547SOL    HW240521   0.765   3.006  19.153
 9548SOL     OW40522   3.564   2.237   6.597
 9548SOL    HW140523   3.499   2.186   6.548
 9548SOL    HW240524   3.520   2.260   6.679
 9549SOL     OW40525   3.691   1.344   8.373
 9549SOL    HW140526   3.611   1.396   8.376
 9549SOL    HW240527   3.665   1.257   8.402
 9550SOL     OW40528   3.226   3.807  15.376
 9550SOL    HW140529   3.165   3.804  15.450
 9550SOL    HW240530   3.293   3.870  15.403
 9551SOL     OW40531   0.651   2.447  15.524
 9551SOL    HW140532   0.657   2.386  15.598
 9551SOL    HW240533   0.619   2.394  15.451
 9552SOL     OW40534   1.921   4.574  15.569
 9552SOL    HW140535   1.845   4.603  15.619
 9552SOL    HW240536   1.915   4.621  15.486
 9553SOL     OW40537   2.946   4.603   5.088
 9553SOL    HW140538   2.957   4.604   5.183
 9553SOL    HW240539   2.951   4.510   5.065
 9554SOL     OW40540   3.366   3.359  19.373
 9554SOL    HW140541   3.301   3.341  19.441
 9554SOL    HW240542   3.443   3.308  19.400
 9555SOL     OW40543   3.308   2.358   1.325
 9555SOL    HW140544   3.287   2.450   1.307
 9555SOL    HW240545   3.234   2.326   1.377
 9556SOL     OW40546   2.369   2.709   0.597
 9556SOL    HW140547   2.284   2.751   0.580
 9556SOL    HW240548   2.430   2.782   0.606
 9557SOL     OW40549   1.009   0.320  13.865
 9557SOL    HW140550   1.061   0.297  13.788
 9557SOL    HW240551   1.032   0.411  13.883
 9558SOL     OW40552   3.034   2.802   3.922
 9558SOL    HW140553   3.072   2.795   4.009
 9558SOL    HW240554   2.940   2.807   3.937
 9559SOL     OW40555   3.996   3.227   2.193
 9559SOL    HW140556   3.937   3.198   2.123
 9559SOL    HW240557   4.057   3.287   2.150
 9560SOL     OW40558   2.110   3.975  16.609
 9560SOL    HW140559   2.022   4.010  16.621
 9560SOL    HW240560   2.132   3.934  16.693
 9561SOL     OW40561   4.560   3.794  14.170
 9561SOL    HW140562   4.578   3.711  14.126
 9561SOL    HW240563   4.466   3.790  14.190
 9562SOL     OW40564   1.279   0.171  17.956
 9562SOL    HW140565   1.330   0.159  18.036
 9562SOL    HW240566   1.261   0.265  17.953
 9563SOL     OW40567   4.464   3.385   3.742
 9563SOL    HW140568   4.391   3.351   3.793
 9563SOL    HW240569   4.521   3.428   3.806
 9564SOL     OW40570   1.257   2.302  19.883
 9564SOL    HW140571   1.314   2.372  19.853
 9564SOL    HW240572   1.208   2.276  19.805
 9565SOL     OW40573   2.096   1.163   2.197
 9565SOL    HW140574   2.053   1.141   2.114
 9565SOL    HW240575   2.107   1.079   2.242
 9566SOL     OW40576   3.566   2.321   6.267
 9566SOL    HW140577   3.578   2.412   6.241
 9566SOL    HW240578   3.646   2.277   6.238
 9567SOL     OW40579   2.702   3.810  14.502
 9567SOL    HW140580   2.624   3.754  14.501
 9567SOL    HW240581   2.755   3.777  14.575
 9568SOL     OW40582   3.423   3.947   1.485
 9568SOL    HW140583   3.511   3.977   1.463
 9568SOL    HW240584   3.426   3.931   1.579
 9569SOL     OW40585   4.525   3.232  20.626
 9569SOL    HW140586   4.483   3.267  20.547
 9569SOL    HW240587   4.453   3.192  20.676
 9570SOL     OW40588   1.340   0.408  18.410
 9570SOL    HW140589   1.418   0.372  18.368
 9570SOL    HW240590   1.278   0.420  18.338
 9571SOL     OW40591   4.409   2.994   5.577
 9571SOL    HW140592   4.383   3.079   5.540
 9571SOL    HW240593   4.377   2.996   5.667
 9572SOL     OW40594   1.231   0.629   2.181
 9572SOL    HW140595   1.302   0.629   2.116
 9572SOL    HW240596   1.179   0.707   2.159
 9573SOL     OW40597   2.580   0.616   4.146
 9573SOL    HW140598   2.531   0.539   4.174
 9573SOL    HW240599   2.513   0.682   4.128
 9574SOL     OW40600   3.661   4.584  20.118
 9574SOL    HW140601   3.644   4.676  20.100
 9574SOL    HW240602   3.689   4.548  20.034
 9575SOL     OW40603   1.655   1.319   3.485
 9575SOL    HW140604   1.690   1.289   3.569
 9575SOL    HW240605   1.704   1.270   3.420
 9576SOL     OW40606   0.266   3.429   6.828
 9576SOL    HW140607   0.304   3.513   6.855
 9576SOL    HW240608   0.302   3.365   6.889
 9577SOL     OW40609   3.706   4.586  17.308
 9577SOL    HW140610   3.684   4.496  17.285
 9577SOL    HW240611   3.651   4.639  17.250
 9578SOL     OW40612   4.231   2.636   1.208
 9578SOL    HW140613   4.163   2.683   1.256
 9578SOL    HW240614   4.190   2.614   1.124
 9579SOL     OW40615   4.615   1.498  17.764
 9579SOL    HW140616   4.616   1.422  17.822
 9579SOL    HW240617   4.701   1.538  17.776
 9580SOL     OW40618   0.357   0.729   4.336
 9580SOL    HW140619   0.310   0.716   4.254
 9580SOL    HW240620   0.449   0.731   4.311
 9581SOL     OW40621   1.625   3.706   5.208
 9581SOL    HW140622   1.653   3.616   5.223
 9581SOL    HW240623   1.561   3.723   5.277
 9582SOL     OW40624   1.545   4.024   5.075
 9582SOL    HW140625   1.541   4.096   5.011
 9582SOL    HW240626   1.617   4.048   5.134
 9583SOL     OW40627   0.140   2.001   5.652
 9583SOL    HW140628   0.189   2.009   5.734
 9583SOL    HW240629   0.199   2.036   5.585
 9584SOL     OW40630   0.320   3.099   2.771
 9584SOL    HW140631   0.288   3.009   2.767
 9584SOL    HW240632   0.363   3.106   2.856
 9585SOL     OW40633   4.253   4.573  19.752
 9585SOL    HW140634   4.347   4.554  19.753
 9585SOL    HW240635   4.228   4.576  19.844
 9586SOL     OW40636   0.938   3.836  16.919
 9586SOL    HW140637   0.947   3.912  16.861
 9586SOL    HW240638   0.992   3.768  16.878
 9587SOL     OW40639   1.468   2.386   2.560
 9587SOL    HW140640   1.557   2.417   2.547
 9587SOL    HW240641   1.422   2.461   2.598
 9588SOL     OW40642   4.549   4.395  13.335
 9588SOL    HW140643   4.606   4.322  13.309
 9588SOL    HW240644   4.603   4.473  13.321
 9589SOL     OW40645   3.403   2.660   6.495
 9589SOL    HW140646   3.443   2.725   6.438
 9589SOL    HW240647   3.470   2.593   6.506
 9590SOL     OW40648   3.319   2.755  17.691
 9590SOL    HW140649   3.412   2.763  17.670
 9590SOL    HW240650   3.277   2.829  17.647
 9591SOL     OW40651   0.388   4.397  15.505
 9591SOL    HW140652   0.451   4.440  15.447
 9591SOL    HW240653   0.430   4.400  15.591
 9592SOL     OW40654   1.785   0.726   4.589
 9592SOL    HW140655   1.765   0.635   4.565
 9592SOL    HW240656   1.872   0.742   4.552
 9593SOL     OW40657   0.638   2.256  19.188
 9593SOL    HW140658   0.607   2.342  19.216
 9593SOL    HW240659   0.734   2.263  19.190
 9594SOL     OW40660   0.240   4.120   4.646
 9594SOL    HW140661   0.312   4.129   4.584
 9594SOL    HW240662   0.221   4.026   4.647
 9595SOL     OW40663   1.816   2.409  15.995
 9595SOL    HW140664   1.731   2.364  15.994
 9595SOL    HW240665   1.843   2.407  16.087
 9596SOL     OW40666   4.024   2.280  19.277
 9596SOL    HW140667   4.058   2.250  19.193
 9596SOL    HW240668   3.930   2.288  19.263
 9597SOL     OW40669   4.221   3.195   0.161
 9597SOL    HW140670   4.297   3.190   0.218
 9597SOL    HW240671   4.147   3.174   0.218
 9598SOL     OW40672   3.894   4.279   5.121
 9598SOL    HW140673   3.878   4.262   5.028
 9598SOL    HW240674   3.932   4.198   5.154
 9599SOL     OW40675   4.241   2.092  20.426
 9599SOL    HW140676   4.217   2.022  20.366
 9599SOL    HW240677   4.220   2.058  20.513
 9600SOL     OW40678   2.551   0.569   2.581
 9600SOL    HW140679   2.478   0.516   2.549
 9600SOL    HW240680   2.512   0.627   2.647
 9601SOL     OW40681   3.400   1.597   2.210
 9601SOL    HW140682   3.390   1.506   2.183
 9601SOL    HW240683   3.489   1.620   2.184
 9602SOL     OW40684   1.151   2.263   5.553
 9602SOL    HW140685   1.165   2.355   5.529
 9602SOL    HW240686   1.237   2.222   5.543
 9603SOL     OW40687   0.725   3.609   5.647
 9603SOL    HW140688   0.774   3.531   5.672
 9603SOL    HW240689   0.636   3.578   5.632
 9604SOL     OW40690   2.821   1.578   8.166
 9604SOL    HW140691   2.833   1.531   8.248
 9604SOL    HW240692   2.726   1.590   8.158
 9605SOL     OW40693   2.348   3.760  17.578
 9605SOL    HW140694   2.404   3.731  17.650
 9605SOL    HW240695   2.381   3.847  17.555
 9606SOL     OW40696   0.153   3.399  17.299
 9606SOL    HW140697   0.218   3.332  17.319
 9606SOL    HW240698   0.161   3.462  17.371
 9607SOL     OW40699   3.629   3.920  14.762
 9607SOL    HW140700   3.704   3.941  14.818
 9607SOL    HW240701   3.553   3.949  14.812
 9608SOL     OW40702   3.209   4.604  20.413
 9608SOL    HW140703   3.301   4.604  20.386
 9608SOL    HW240704   3.160   4.600  20.331
 9609SOL     OW40705   1.689   4.425  20.267
 9609SOL    HW140706   1.602   4.463  20.274
 9609SOL    HW240707   1.740   4.469  20.335
 9610SOL     OW40708   3.363   1.032  20.479
 9610SOL    HW140709   3.295   1.036  20.412
 9610SOL    HW240710   3.317   1.007  20.559
 9611SOL     OW40711   1.802   3.780   1.166
 9611SOL    HW140712   1.752   3.860   1.181
 9611SOL    HW240713   1.742   3.723   1.118
 9612SOL     OW40714   0.300   3.924   4.390
 9612SOL    HW140715   0.229   3.920   4.326
 9612SOL    HW240716   0.346   4.006   4.370
 9613SOL     OW40717   2.177   2.040   3.758
 9613SOL    HW140718   2.166   2.124   3.803
 9613SOL    HW240719   2.094   2.026   3.713
 9614SOL     OW40720   1.658   0.867   1.652
 9614SOL    HW140721   1.704   0.926   1.592
 9614SOL    HW240722   1.652   0.784   1.604
 9615SOL     OW40723   0.768   0.053  19.541
 9615SOL    HW140724   0.813   4.769  19.500
 9615SOL    HW240725   0.736   0.105  19.467
 9616SOL     OW40726   2.795   4.337  20.047
 9616SOL    HW140727   2.863   4.376  20.102
 9616SOL    HW240728   2.828   4.347  19.958
 9617SOL     OW40729   2.588   2.705  18.975
 9617SOL    HW140730   2.660   2.768  18.967
 9617SOL    HW240731   2.601   2.644  18.902
 9618SOL     OW40732   1.592   4.557   3.663
 9618SOL    HW140733   1.643   4.520   3.735
 9618SOL    HW240734   1.656   4.571   3.593
 9619SOL     OW40735   1.905   1.192   0.397
 9619SOL    HW140736   1.845   1.179   0.324
 9619SOL    HW240737   1.973   1.126   0.383
 9620SOL     OW40738   1.260   0.722   4.275
 9620SOL    HW140739   1.189   0.727   4.210
 9620SOL    HW240740   1.270   0.812   4.306
 9621SOL     OW40741   2.169   0.819  17.184
 9621SOL    HW140742   2.221   0.767  17.245
 9621SOL    HW240743   2.097   0.853  17.237
 9622SOL     OW40744   3.984   1.668   5.772
 9622SOL    HW140745   4.047   1.615   5.821
 9622SOL    HW240746   4.031   1.694   5.693
 9623SOL     OW40747   1.375   3.143  20.049
 9623SOL    HW140748   1.292   3.189  20.038
 9623SOL    HW240749   1.416   3.145  19.963
 9624SOL     OW40750   1.873   0.744   0.589
 9624SOL    HW140751   1.811   0.676   0.617
 9624SOL    HW240752   1.856   0.817   0.648
 9625SOL     OW40753   0.706   1.574   5.502
 9625SOL    HW140754   0.697   1.530   5.417
 9625SOL    HW240755   0.617   1.578   5.536
 9626SOL     OW40756   0.193   0.142   2.316
 9626SOL    HW140757   0.170   0.105   2.401
 9626SOL    HW240758   0.263   0.205   2.335
 9627SOL     OW40759   0.612   0.063  17.941
 9627SOL    HW140760   0.687   0.097  17.893
 9627SOL    HW240761   0.558   0.021  17.874
 9628SOL     OW40762   1.762   0.385   1.446
 9628SOL    HW140763   1.852   0.357   1.461
 9628SOL    HW240764   1.767   0.481   1.447
 9629SOL     OW40765   3.126   2.341   3.912
 9629SOL    HW140766   3.103   2.387   3.831
 9629SOL    HW240767   3.044   2.302   3.941
 9630SOL     OW40768   3.756   4.036  11.827
 9630SOL    HW140769   3.841   4.023  11.870
 9630SOL    HW240770   3.761   4.125  11.793
 9631SOL     OW40771   1.677   4.567  20.634
 9631SOL    HW140772   1.767   4.560  20.666
 9631SOL    HW240773   1.627   4.597  20.710
 9632SOL     OW40774   2.898   0.788  14.023
 9632SOL    HW140775   2.815   0.799  14.070
 9632SOL    HW240776   2.965   0.804  14.089
 9633SOL     OW40777   2.898   0.092   3.594
 9633SOL    HW140778   2.962   0.100   3.664
 9633SOL    HW240779   2.950   0.070   3.516
 9634SOL     OW40780   0.179   2.876   4.457
 9634SOL    HW140781   0.256   2.840   4.412
 9634SOL    HW240782   0.215   2.937   4.521
 9635SOL     OW40783   0.993   2.067  17.537
 9635SOL    HW140784   0.973   2.059  17.444
 9635SOL    HW240785   1.088   2.076  17.540
 9636SOL     OW40786   3.349   0.372  17.784
 9636SOL    HW140787   3.278   0.391  17.723
 9636SOL    HW240788   3.334   0.432  17.857
 9637SOL     OW40789   0.763   1.689   5.752
 9637SOL    HW140790   0.796   1.634   5.681
 9637SOL    HW240791   0.668   1.676   5.750
 9638SOL     OW40792   2.351   2.978  19.574
 9638SOL    HW140793   2.423   2.957  19.515
 9638SOL    HW240794   2.389   2.972  19.662
 9639SOL     OW40795   3.110   4.381   2.673
 9639SOL    HW140796   3.122   4.318   2.602
 9639SOL    HW240797   3.036   4.435   2.645
 9640SOL     OW40798   3.249   1.174  16.425
 9640SOL    HW140799   3.292   1.259  16.435
 9640SOL    HW240800   3.218   1.152  16.513
 9641SOL     OW40801   1.294   0.941   0.577
 9641SOL    HW140802   1.370   0.996   0.597
 9641SOL    HW240803   1.275   0.959   0.485
 9642SOL     OW40804   2.072   0.125   0.202
 9642SOL    HW140805   2.012   0.120   0.127
 9642SOL    HW240806   2.126   0.202   0.184
 9643SOL     OW40807   3.318   0.822  18.686
 9643SOL    HW140808   3.239   0.768  18.696
 9643SOL    HW240809   3.290   0.910  18.710
 9644SOL     OW40810   2.612   3.625  18.736
 9644SOL    HW140811   2.606   3.585  18.823
 9644SOL    HW240812   2.554   3.573  18.681
 9645SOL     OW40813   2.278   1.859   2.311
 9645SOL    HW140814   2.363   1.897   2.335
 9645SOL    HW240815   2.294   1.816   2.227
 9646SOL     OW40816   3.965   4.211  15.597
 9646SOL    HW140817   3.912   4.148  15.548
 9646SOL    HW240818   3.911   4.235  15.672
 9647SOL     OW40819   4.073   1.513  17.951
 9647SOL    HW140820   4.153   1.475  17.987
 9647SOL    HW240821   4.002   1.469  17.998
 9648SOL     OW40822   2.069   2.051   4.310
 9648SOL    HW140823   2.071   1.955   4.306
 9648SOL    HW240824   2.027   2.078   4.228
 9649SOL     OW40825   2.330   4.114  15.440
 9649SOL    HW140826   2.257   4.102  15.500
 9649SOL    HW240827   2.360   4.025  15.420
 9650SOL     OW40828   1.724   0.216   6.381
 9650SOL    HW140829   1.691   0.212   6.291
 9650SOL    HW240830   1.785   0.289   6.381
 9651SOL     OW40831   1.005   3.130  18.284
 9651SOL    HW140832   1.071   3.063  18.301
 9651SOL    HW240833   1.053   3.202  18.244
 9652SOL     OW40834   4.163   2.423   2.429
 9652SOL    HW140835   4.092   2.477   2.393
 9652SOL    HW240836   4.141   2.334   2.403
 9653SOL     OW40837   2.746   3.063   0.498
 9653SOL    HW140838   2.779   3.105   0.577
 9653SOL    HW240839   2.653   3.086   0.496
 9654SOL     OW40840   0.913   2.108  18.051
 9654SOL    HW140841   0.943   2.019  18.032
 9654SOL    HW240842   0.868   2.136  17.971
 9655SOL     OW40843   3.682   3.406   1.258
 9655SOL    HW140844   3.660   3.488   1.302
 9655SOL    HW240845   3.763   3.378   1.300
 9656SOL     OW40846   3.299   0.802   3.269
 9656SOL    HW140847   3.222   0.850   3.299
 9656SOL    HW240848   3.373   0.857   3.294
 9657SOL     OW40849   2.039   2.604  14.330
 9657SOL    HW140850   2.105   2.649  14.383
 9657SOL    HW240851   2.012   2.530  14.384
 9658SOL     OW40852   2.311   0.881   1.925
 9658SOL    HW140853   2.386   0.908   1.872
 9658SOL    HW240854   2.235   0.917   1.880
 9659SOL     OW40855   0.703   0.972   1.259
 9659SOL    HW140856   0.725   0.995   1.169
 9659SOL    HW240857   0.671   0.882   1.253
 9660SOL     OW40858   1.793   2.043   7.026
 9660SOL    HW140859   1.802   1.960   7.072
 9660SOL    HW240860   1.724   2.028   6.961
 9661SOL     OW40861   1.758   1.763  17.757
 9661SOL    HW140862   1.791   1.732  17.841
 9661SOL    HW240863   1.775   1.690  17.697
 9662SOL     OW40864   0.227   3.366  20.103
 9662SOL    HW140865   0.199   3.362  20.194
 9662SOL    HW240866   0.175   3.300  20.058
 9663SOL     OW40867   2.962   0.597   3.106
 9663SOL    HW140868   2.952   0.517   3.054
 9663SOL    HW240869   2.937   0.571   3.195
 9664SOL     OW40870   2.971   1.581   4.887
 9664SOL    HW140871   2.906   1.570   4.817
 9664SOL    HW240872   2.984   1.493   4.922
 9665SOL     OW40873   1.341   4.716  16.876
 9665SOL    HW140874   1.282   4.723  16.801
 9665SOL    HW240875   1.326   4.628  16.910
 9666SOL     OW40876   3.463   4.515   2.496
 9666SOL    HW140877   3.535   4.469   2.453
 9666SOL    HW240878   3.396   4.522   2.428
 9667SOL     OW40879   2.444   4.402   2.014
 9667SOL    HW140880   2.476   4.488   2.042
 9667SOL    HW240881   2.372   4.382   2.074
 9668SOL     OW40882   2.307   4.160   4.109
 9668SOL    HW140883   2.288   4.081   4.160
 9668SOL    HW240884   2.285   4.233   4.167
 9669SOL     OW40885   0.064   0.352  20.670
 9669SOL    HW140886   0.101   0.415  20.608
 9669SOL    HW240887   4.763   0.381  20.682
 9670SOL     OW40888   4.722   1.880   8.189
 9670SOL    HW140889   4.689   1.896   8.277
 9670SOL    HW240890   4.703   1.960   8.141
 9671SOL     OW40891   2.135   3.022  17.220
 9671SOL    HW140892   2.140   2.930  17.248
 9671SOL    HW240893   2.226   3.049  17.212
 9672SOL     OW40894   1.580   1.438   6.334
 9672SOL    HW140895   1.646   1.392   6.281
 9672SOL    HW240896   1.605   1.419   6.425
 9673SOL     OW40897   2.486   1.306  16.083
 9673SOL    HW140898   2.396   1.293  16.054
 9673SOL    HW240899   2.488   1.269  16.171
 9674SOL     OW40900   1.372   3.439   5.539
 9674SOL    HW140901   1.433   3.512   5.525
 9674SOL    HW240902   1.419   3.379   5.597
 9675SOL     OW40903   1.195   4.148   2.095
 9675SOL    HW140904   1.162   4.230   2.133
 9675SOL    HW240905   1.246   4.176   2.019
 9676SOL     OW40906   1.106   1.717  14.071
 9676SOL    HW140907   1.039   1.648  14.066
 9676SOL    HW240908   1.166   1.698  13.998
 9677SOL     OW40909   0.476   3.057   5.203
 9677SOL    HW140910   0.528   3.126   5.244
 9677SOL    HW240911   0.539   3.008   5.150
 9678SOL     OW40912   4.675   3.339  20.847
 9678SOL    HW140913   4.706   3.263  20.897
 9678SOL    HW240914   4.603   3.305  20.794
 9679SOL     OW40915   3.847   2.172   7.218
 9679SOL    HW140916   3.846   2.265   7.241
 9679SOL    HW240917   3.940   2.152   7.206
 9680SOL     OW40918   3.579   2.930  16.590
 9680SOL    HW140919   3.630   2.849  16.590
 9680SOL    HW240920   3.600   2.971  16.506
 9681SOL     OW40921   2.857   2.411  21.082
 9681SOL    HW140922   2.917   2.337  21.081
 9681SOL    HW240923   2.912   2.487  21.102
 9682SOL     OW40924   3.024   2.412   1.408
 9682SOL    HW140925   2.968   2.335   1.399
 9682SOL    HW240926   2.991   2.473   1.343
 9683SOL     OW40927   2.801   1.737  21.243
 9683SOL    HW140928   2.749   1.699  21.173
 9683SOL    HW240929   2.763   1.702   0.066
 9684SOL     OW40930   2.441   4.309  16.378
 9684SOL    HW140931   2.514   4.252  16.404
 9684SOL    HW240932   2.456   4.391  16.426
 9685SOL     OW40933   4.641   0.049   6.783
 9685SOL    HW140934   4.639   0.095   6.867
 9685SOL    HW240935   4.675   4.752   6.804
 9686SOL     OW40936   2.916   4.358  21.108
 9686SOL    HW140937   3.010   4.348  21.097
 9686SOL    HW240938   2.905   4.450  21.133
 9687SOL     OW40939   4.458   3.502  18.341
 9687SOL    HW140940   4.435   3.561  18.413
 9687SOL    HW240941   4.540   3.537  18.307
 9688SOL     OW40942   3.572   1.498   6.676
 9688SOL    HW140943   3.601   1.477   6.765
 9688SOL    HW240944   3.511   1.428   6.653
 9689SOL     OW40945   3.983   2.811  15.830
 9689SOL    HW140946   4.026   2.849  15.907
 9689SOL    HW240947   3.899   2.779  15.862
 9690SOL     OW40948   0.373   1.700  19.543
 9690SOL    HW140949   0.298   1.747  19.580
 9690SOL    HW240950   0.439   1.768  19.527
 9691SOL     OW40951   4.208   1.390   2.973
 9691SOL    HW140952   4.211   1.408   3.067
 9691SOL    HW240953   4.143   1.452   2.939
 9692SOL     OW40954   3.087   2.779  19.678
 9692SOL    HW140955   3.156   2.817  19.733
 9692SOL    HW240956   3.101   2.819  19.592
 9693SOL     OW40957   4.482   0.710   6.347
 9693SOL    HW140958   4.426   0.648   6.393
 9693SOL    HW240959   4.539   0.746   6.415
 9694SOL     OW40960   4.370   4.747  17.592
 9694SOL    HW140961   4.292   4.784  17.550
 9694SOL    HW240962   4.345   4.657  17.612
 9695SOL     OW40963   4.635   3.033  16.525
 9695SOL    HW140964   4.648   3.098  16.594
 9695SOL    HW240965   4.609   2.954  16.572
 9696SOL     OW40966   4.171   1.863   2.210
 9696SOL    HW140967   4.135   1.916   2.139
 9696SOL    HW240968   4.130   1.898   2.289
 9697SOL     OW40969   2.316   4.233  13.461
 9697SOL    HW140970   2.388   4.266  13.407
 9697SOL    HW240971   2.359   4.188  13.534
 9698SOL     OW40972   2.486   4.140   0.201
 9698SOL    HW140973   2.480   4.224   0.155
 9698SOL    HW240974   2.402   4.130   0.245
 9699SOL     OW40975   3.912   3.630   9.373
 9699SOL    HW140976   3.974   3.575   9.421
 9699SOL    HW240977   3.872   3.685   9.440
 9700SOL     OW40978   4.135   3.642   0.006
 9700SOL    HW140979   4.210   3.698  21.245
 9700SOL    HW240980   4.170   3.553   0.003
 9701SOL     OW40981   3.803   3.859  19.450
 9701SOL    HW140982   3.895   3.866  19.426
 9701SOL    HW240983   3.803   3.846  19.545
 9702SOL     OW40984   3.743   0.433   5.223
 9702SOL    HW140985   3.836   0.419   5.206
 9702SOL    HW240986   3.737   0.442   5.318
 9703SOL     OW40987   4.438   3.137  14.027
 9703SOL    HW140988   4.520   3.124  13.979
 9703SOL    HW240989   4.435   3.231  14.044
 9704SOL     OW40990   0.529   0.324  18.592
 9704SOL    HW140991   0.559   0.383  18.661
 9704SOL    HW240992   0.609   0.294  18.549
 9705SOL     OW40993   4.016   1.601   2.367
 9705SOL    HW140994   3.988   1.677   2.418
 9705SOL    HW240995   4.091   1.567   2.415
 9706SOL     OW40996   0.064   4.667  14.459
 9706SOL    HW140997   4.765   4.632  14.471
 9706SOL    HW240998   0.055   4.734  14.391
 9707SOL     OW40999   0.108   4.505   4.070
 9707SOL    HW141000   0.060   4.560   4.008
 9707SOL    HW241001   0.044   4.441   4.101
 9708SOL     OW41002   1.256   3.882   5.760
 9708SOL    HW141003   1.266   3.789   5.741
 9708SOL    HW241004   1.335   3.905   5.809
 9709SOL     OW41005   4.099   3.283   6.189
 9709SOL    HW141006   4.049   3.318   6.115
 9709SOL    HW241007   4.122   3.360   6.241
 9710SOL     OW41008   3.258   0.065  20.218
 9710SOL    HW141009   3.197   0.136  20.196
 9710SOL    HW241010   3.282   0.027  20.134
 9711SOL     OW41011   1.793   3.826   3.039
 9711SOL    HW141012   1.812   3.848   3.130
 9711SOL    HW241013   1.879   3.817   2.998
 9712SOL     OW41014   4.325   4.528  18.900
 9712SOL    HW141015   4.257   4.520  18.967
 9712SOL    HW241016   4.334   4.622  18.886
 9713SOL     OW41017   3.708   0.865   4.084
 9713SOL    HW141018   3.753   0.949   4.079
 9713SOL    HW241019   3.683   0.856   4.176
 9714SOL     OW41020   4.480   0.776   6.076
 9714SOL    HW141021   4.491   0.727   6.157
 9714SOL    HW241022   4.559   0.757   6.025
 9715SOL     OW41023   1.698   0.287  15.668
 9715SOL    HW141024   1.609   0.258  15.649
 9715SOL    HW241025   1.718   0.352  15.600
 9716SOL     OW41026   4.025   1.338  16.946
 9716SOL    HW141027   4.100   1.368  16.998
 9716SOL    HW241028   3.968   1.414  16.940
 9717SOL     OW41029   2.978   4.001   3.241
 9717SOL    HW141030   2.951   4.091   3.262
 9717SOL    HW241031   2.985   3.958   3.326
 9718SOL     OW41032   0.342   3.546  13.757
 9718SOL    HW141033   0.292   3.611  13.708
 9718SOL    HW241034   0.377   3.594  13.832
 9719SOL     OW41035   1.160   0.389  15.669
 9719SOL    HW141036   1.151   0.467  15.615
 9719SOL    HW241037   1.177   0.318  15.606
 9720SOL     OW41038   1.189   3.763  14.604
 9720SOL    HW141039   1.242   3.794  14.531
 9720SOL    HW241040   1.148   3.683  14.572
 9721SOL     OW41041   4.390   0.932   5.810
 9721SOL    HW141042   4.343   1.014   5.794
 9721SOL    HW241043   4.328   0.878   5.858
 9722SOL     OW41044   1.197   0.973   4.443
 9722SOL    HW141045   1.247   1.025   4.507
 9722SOL    HW241046   1.140   0.918   4.496
 9723SOL     OW41047   2.691   2.540   6.164
 9723SOL    HW141048   2.734   2.496   6.237
 9723SOL    HW241049   2.664   2.625   6.199
 9724SOL     OW41050   1.473   1.570   2.788
 9724SOL    HW141051   1.484   1.579   2.693
 9724SOL    HW241052   1.393   1.618   2.808
 9725SOL     OW41053   4.284   4.172   1.905
 9725SOL    HW141054   4.220   4.108   1.875
 9725SOL    HW241055   4.303   4.147   1.996
 9726SOL     OW41056   2.667   2.822  16.740
 9726SOL    HW141057   2.598   2.855  16.682
 9726SOL    HW241058   2.638   2.734  16.765
 9727SOL     OW41059   0.347   1.964  15.350
 9727SOL    HW141060   0.269   1.927  15.309
 9727SOL    HW241061   0.413   1.962  15.281
 9728SOL     OW41062   4.093   1.080  18.255
 9728SOL    HW141063   4.174   1.049  18.214
 9728SOL    HW241064   4.112   1.171  18.279
 9729SOL     OW41065   1.291   3.856  18.624
 9729SOL    HW141066   1.318   3.922  18.560
 9729SOL    HW241067   1.328   3.774  18.591
 9730SOL     OW41068   3.849   4.481   3.912
 9730SOL    HW141069   3.858   4.576   3.923
 9730SOL    HW241070   3.770   4.470   3.859
 9731SOL     OW41071   1.222   3.837   4.859
 9731SOL    HW141072   1.267   3.877   4.785
 9731SOL    HW241073   1.291   3.823   4.924
 9732SOL     OW41074   0.682   1.372   1.895
 9732SOL    HW141075   0.699   1.456   1.938
 9732SOL    HW241076   0.587   1.370   1.883
 9733SOL     OW41077   1.635   2.001   2.039
 9733SOL    HW141078   1.624   2.089   2.004
 9733SOL    HW241079   1.709   2.009   2.100
 9734SOL     OW41080   0.022   0.052   3.318
 9734SOL    HW141081   0.107   0.088   3.344
 9734SOL    HW241082   0.019   4.755   3.357
 9735SOL     OW41083   2.016   1.133  20.278
 9735SOL    HW141084   2.066   1.077  20.338
 9735SOL    HW241085   2.058   1.219  20.286
 9736SOL     OW41086   1.341   2.237   0.823
 9736SOL    HW141087   1.266   2.264   0.770
 9736SOL    HW241088   1.306   2.170   0.882
 9737SOL     OW41089   4.050   1.390  13.817
 9737SOL    HW141090   4.032   1.436  13.899
 9737SOL    HW241091   3.989   1.316  13.817
 9738SOL     OW41092   3.970   1.744   1.506
 9738SOL    HW141093   4.021   1.672   1.469
 9738SOL    HW241094   3.942   1.711   1.592
 9739SOL     OW41095   1.113   1.134  18.792
 9739SOL    HW141096   1.205   1.154  18.773
 9739SOL    HW241097   1.076   1.217  18.823
 9740SOL     OW41098   3.413   2.044  18.966
 9740SOL    HW141099   3.374   1.998  18.891
 9740SOL    HW241100   3.487   1.989  18.992
 9741SOL     OW41101   1.920   0.372  20.181
 9741SOL    HW141102   1.895   0.326  20.101
 9741SOL    HW241103   1.838   0.406  20.216
 9742SOL     OW41104   2.396   4.742   1.553
 9742SOL    HW141105   2.462   4.682   1.589
 9742SOL    HW241106   2.447   0.021   1.511
 9743SOL     OW41107   3.234   1.168   5.926
 9743SOL    HW141108   3.248   1.174   5.831
 9743SOL    HW241109   3.181   1.089   5.937
 9744SOL     OW41110   1.337   1.000  13.983
 9744SOL    HW141111   1.378   1.059  14.046
 9744SOL    HW241112   1.260   1.048  13.952
 9745SOL     OW41113   4.145   4.748   5.856
 9745SOL    HW141114   4.230   4.732   5.897
 9745SOL    HW241115   4.123   4.665   5.813
 9746SOL     OW41116   0.758   4.357  18.690
 9746SOL    HW141117   0.785   4.278  18.737
 9746SOL    HW241118   0.669   4.374  18.721
 9747SOL     OW41119   2.335   3.969   8.323
 9747SOL    HW141120   2.396   3.963   8.249
 9747SOL    HW241121   2.282   3.890   8.317
 9748SOL     OW41122   0.820   3.460   4.089
 9748SOL    HW141123   0.914   3.473   4.082
 9748SOL    HW241124   0.785   3.492   4.006
 9749SOL     OW41125   3.262   4.528   0.815
 9749SOL    HW141126   3.335   4.534   0.753
 9749SOL    HW241127   3.303   4.498   0.897
 9750SOL     OW41128   3.017   3.297   3.073
 9750SOL    HW141129   2.957   3.372   3.075
 9750SOL    HW241130   3.035   3.283   2.980
 9751SOL     OW41131   2.314   2.040  20.425
 9751SOL    HW141132   2.240   2.099  20.439
 9751SOL    HW241133   2.328   1.999  20.510
 9752SOL     OW41134   0.542   3.200   1.714
 9752SOL    HW141135   0.538   3.106   1.731
 9752SOL    HW241136   0.609   3.233   1.774
 9753SOL     OW41137   2.826   1.519   9.689
 9753SOL    HW141138   2.895   1.531   9.754
 9753SOL    HW241139   2.860   1.452   9.630
 9754SOL     OW41140   0.443   1.093   5.856
 9754SOL    HW141141   0.400   1.042   5.787
 9754SOL    HW241142   0.428   1.043   5.936
 9755SOL     OW41143   1.421   2.317   2.315
 9755SOL    HW141144   1.369   2.237   2.308
 9755SOL    HW241145   1.441   2.324   2.408
 9756SOL     OW41146   2.471   2.806   6.930
 9756SOL    HW141147   2.378   2.802   6.907
 9756SOL    HW241148   2.474   2.785   7.023
 9757SOL     OW41149   4.219   2.146   6.302
 9757SOL    HW141150   4.215   2.149   6.206
 9757SOL    HW241151   4.198   2.235   6.330
 9758SOL     OW41152   0.162   4.136  19.821
 9758SOL    HW141153   0.196   4.172  19.739
 9758SOL    HW241154   0.222   4.065  19.842
 9759SOL     OW41155   2.078   1.426   5.599
 9759SOL    HW141156   2.029   1.478   5.535
 9759SOL    HW241157   2.135   1.489   5.642
 9760SOL     OW41158   2.581   0.247   3.333
 9760SOL    HW141159   2.553   0.296   3.256
 9760SOL    HW241160   2.675   0.265   3.340
 9761SOL     OW41161   0.755   0.253  13.907
 9761SOL    HW141162   0.703   0.325  13.870
 9761SOL    HW241163   0.846   0.277  13.888
 9762SOL     OW41164   0.631   0.032   1.874
 9762SOL    HW141165   0.570   0.029   1.801
 9762SOL    HW241166   0.606   0.110   1.924
 9763SOL     OW41167   4.191   3.634   2.971
 9763SOL    HW141168   4.274   3.670   2.941
 9763SOL    HW241169   4.212   3.588   3.052
 9764SOL     OW41170   3.870   1.135   4.431
 9764SOL    HW141171   3.852   1.122   4.338
 9764SOL    HW241172   3.818   1.211   4.455
 9765SOL     OW41173   3.811   0.589  15.983
 9765SOL    HW141174   3.868   0.514  16.000
 9765SOL    HW241175   3.864   0.665  16.007
 9766SOL     OW41176   0.435   1.676   1.205
 9766SOL    HW141177   0.472   1.715   1.126
 9766SOL    HW241178   0.395   1.595   1.175
 9767SOL     OW41179   0.248   4.174   3.407
 9767SOL    HW141180   0.327   4.127   3.382
 9767SOL    HW241181   0.204   4.194   3.324
 9768SOL     OW41182   1.540   3.573  14.709
 9768SOL    HW141183   1.599   3.516  14.759
 9768SOL    HW241184   1.460   3.521  14.698
 9769SOL     OW41185   1.432   1.141   0.434
 9769SOL    HW141186   1.477   1.078   0.378
 9769SOL    HW241187   1.389   1.201   0.373
 9770SOL     OW41188   0.286   1.712   5.823
 9770SOL    HW141189   0.308   1.683   5.911
 9770SOL    HW241190   0.256   1.802   5.835
 9771SOL     OW41191   3.222   1.118  19.857
 9771SOL    HW141192   3.190   1.109  19.767
 9771SOL    HW241193   3.146   1.098  19.911
 9772SOL     OW41194   1.427   3.845   7.931
 9772SOL    HW141195   1.433   3.770   7.872
 9772SOL    HW241196   1.333   3.856   7.946
 9773SOL     OW41197   2.876   1.576  18.514
 9773SOL    HW141198   2.800   1.540  18.560
 9773SOL    HW241199   2.900   1.654  18.564
 9774SOL     OW41200   0.232   4.309  16.932
 9774SOL    HW141201   0.161   4.296  16.995
 9774SOL    HW241202   0.308   4.331  16.986
 9775SOL     OW41203   4.053   3.944  18.497
 9775SOL    HW141204   4.090   3.934  18.585
 9775SOL    HW241205   4.014   3.859  18.478
 9776SOL     OW41206   2.380   2.678   1.759
 9776SOL    HW141207   2.319   2.722   1.818
 9776SOL    HW241208   2.368   2.722   1.675
 9777SOL     OW41209   2.525   1.459  19.709
 9777SOL    HW141210   2.478   1.503  19.638
 9777SOL    HW241211   2.494   1.502  19.789
 9778SOL     OW41212   3.846   1.069   7.388
 9778SOL    HW141213   3.769   1.035   7.433
 9778SOL    HW241214   3.861   1.008   7.316
 9779SOL     OW41215   4.586   3.187   2.621
 9779SOL    HW141216   4.593   3.163   2.713
 9779SOL    HW241217   4.594   3.104   2.574
 9780SOL     OW41218   0.338   0.250  11.269
 9780SOL    HW141219   0.391   0.271  11.192
 9780SOL    HW241220   0.401   0.247  11.341
 9781SOL     OW41221   1.586   1.326   2.493
 9781SOL    HW141222   1.502   1.284   2.477
 9781SOL    HW241223   1.636   1.261   2.542
 9782SOL     OW41224   1.114   4.683  18.951
 9782SOL    HW141225   1.127   4.596  18.914
 9782SOL    HW241226   1.096   4.667  19.044
 9783SOL     OW41227   2.905   3.539  16.633
 9783SOL    HW141228   2.969   3.501  16.693
 9783SOL    HW241229   2.952   3.610  16.589
 9784SOL     OW41230   1.265   3.690   2.495
 9784SOL    HW141231   1.260   3.783   2.474
 9784SOL    HW241232   1.269   3.646   2.410
 9785SOL     OW41233   4.759   0.713  19.705
 9785SOL    HW141234   4.754   0.676  19.793
 9785SOL    HW241235   0.059   0.747  19.698
 9786SOL     OW41236   4.532   1.277  14.796
 9786SOL    HW141237   4.491   1.363  14.802
 9786SOL    HW241238   4.488   1.225  14.864
 9787SOL     OW41239   0.278   3.984   5.560
 9787SOL    HW141240   0.208   3.955   5.619
 9787SOL    HW241241   0.254   4.074   5.536
 9788SOL     OW41242   0.194   3.721   3.842
 9788SOL    HW141243   0.207   3.627   3.858
 9788SOL    HW241244   0.260   3.764   3.896
 9789SOL     OW41245   1.413   0.618  18.142
 9789SOL    HW141246   1.481   0.683  18.124
 9789SOL    HW241247   1.332   0.669  18.145
 9790SOL     OW41248   2.154   2.993  16.600
 9790SOL    HW141249   2.192   2.977  16.513
 9790SOL    HW241250   2.202   2.934  16.658
 9791SOL     OW41251   3.382   4.762  19.969
 9791SOL    HW141252   3.356   4.670  19.958
 9791SOL    HW241253   3.315   0.022  19.922
 9792SOL     OW41254   0.868   0.997  19.463
 9792SOL    HW141255   0.945   1.053  19.458
 9792SOL    HW241256   0.840   1.003  19.554
 9793SOL     OW41257   4.069   3.142  18.966
 9793SOL    HW141258   4.030   3.154  18.879
 9793SOL    HW241259   4.147   3.197  18.966
 9794SOL     OW41260   3.026   2.262   5.285
 9794SOL    HW141261   3.009   2.191   5.347
 9794SOL    HW241262   2.967   2.244   5.211
 9795SOL     OW41263   1.433   3.910  19.223
 9795SOL    HW141264   1.464   3.894  19.312
 9795SOL    HW241265   1.506   3.954  19.180
 9796SOL     OW41266   1.706   2.028  17.847
 9796SOL    HW141267   1.719   1.941  17.809
 9796SOL    HW241268   1.794   2.063  17.859
 9797SOL     OW41269   0.517   0.186  15.225
 9797SOL    HW141270   0.484   0.276  15.232
 9797SOL    HW241271   0.580   0.189  15.153
 9798SOL     OW41272   0.009   1.643   3.907
 9798SOL    HW141273   0.030   1.733   3.933
 9798SOL    HW241274   0.093   1.604   3.884
 9799SOL     OW41275   3.438   4.214   2.137
 9799SOL    HW141276   3.348   4.187   2.117
 9799SOL    HW241277   3.493   4.159   2.080
 9800SOL     OW41278   0.802   4.656   2.761
 9800SOL    HW141279   0.744   4.642   2.686
 9800SOL    HW241280   0.807   4.570   2.804
 9801SOL     OW41281   3.199   1.830   0.530
 9801SOL    HW141282   3.209   1.876   0.613
 9801SOL    HW241283   3.113   1.789   0.536
 9802SOL     OW41284   2.438   2.368   8.844
 9802SOL    HW141285   2.398   2.375   8.757
 9802SOL    HW241286   2.368   2.391   8.905
 9803SOL     OW41287   2.313   2.918  16.349
 9803SOL    HW141288   2.324   2.976  16.273
 9803SOL    HW241289   2.305   2.830  16.311
 9804SOL     OW41290   2.688   1.349   4.091
 9804SOL    HW141291   2.648   1.372   4.175
 9804SOL    HW241292   2.639   1.400   4.026
 9805SOL     OW41293   0.341   0.526  19.534
 9805SOL    HW141294   0.319   0.504  19.444
 9805SOL    HW241295   0.321   0.447  19.584
 9806SOL     OW41296   2.801   4.756  16.475
 9806SOL    HW141297   2.789   0.002  16.387
 9806SOL    HW241298   2.794   0.043  16.532
 9807SOL     OW41299   1.483   0.814   4.961
 9807SOL    HW141300   1.507   0.805   5.053
 9807SOL    HW241301   1.496   0.727   4.924
 9808SOL     OW41302   2.389   3.260  15.071
 9808SOL    HW141303   2.427   3.300  15.149
 9808SOL    HW241304   2.295   3.273  15.081
 9809SOL     OW41305   2.642   0.785   8.330
 9809SOL    HW141306   2.721   0.823   8.369
 9809SOL    HW241307   2.575   0.852   8.340
 9810SOL     OW41308   4.085   1.144  16.294
 9810SOL    HW141309   4.139   1.212  16.253
 9810SOL    HW241310   4.007   1.191  16.324
 9811SOL     OW41311   3.578   3.650  14.266
 9811SOL    HW141312   3.594   3.607  14.350
 9811SOL    HW241313   3.484   3.641  14.253
 9812SOL     OW41314   4.424   4.305  13.568
 9812SOL    HW141315   4.474   4.342  13.496
 9812SOL    HW241316   4.482   4.313  13.644
 9813SOL     OW41317   0.277   3.890  15.879
 9813SOL    HW141318   0.222   3.879  15.802
 9813SOL    HW241319   0.295   3.984  15.883
 9814SOL     OW41320   3.620   4.348   5.415
 9814SOL    HW141321   3.699   4.303   5.444
 9814SOL    HW241322   3.597   4.304   5.333
 9815SOL     OW41323   1.837   0.848  20.377
 9815SOL    HW141324   1.788   0.921  20.339
 9815SOL    HW241325   1.846   0.786  20.305
 9816SOL     OW41326   2.384   2.554  18.484
 9816SOL    HW141327   2.437   2.600  18.419
 9816SOL    HW241328   2.439   2.481  18.511
 9817SOL     OW41329   0.102   4.700  15.358
 9817SOL    HW141330   0.028   4.680  15.301
 9817SOL    HW241331   0.113   4.621  15.412
 9818SOL     OW41332   3.470   0.023  12.773
 9818SOL    HW141333   3.424   4.730  12.785
 9818SOL    HW241334   3.401   0.089  12.772
 9819SOL     OW41335   3.254   2.000  17.028
 9819SOL    HW141336   3.249   2.056  17.106
 9819SOL    HW241337   3.199   2.044  16.963
 9820SOL     OW41338   4.281   0.274   4.940
 9820SOL    HW141339   4.202   0.227   4.915
 9820SOL    HW241340   4.334   0.210   4.987
 9821SOL     OW41341   1.730   1.699   2.425
 9821SOL    HW141342   1.697   1.727   2.339
 9821SOL    HW241343   1.813   1.656   2.406
 9822SOL     OW41344   2.775   1.043  19.255
 9822SOL    HW141345   2.824   0.967  19.286
 9822SOL    HW241346   2.811   1.117  19.303
 9823SOL     OW41347   0.112   1.631   1.627
 9823SOL    HW141348   0.065   1.714   1.619
 9823SOL    HW241349   0.043   1.566   1.643
 9824SOL     OW41350   4.700   1.775   0.245
 9824SOL    HW141351   4.694   1.815   0.331
 9824SOL    HW241352   4.722   1.847   0.186
 9825SOL     OW41353   0.045   0.306   2.910
 9825SOL    HW141354   0.030   0.217   2.942
 9825SOL    HW241355   0.140   0.312   2.899
 9826SOL     OW41356   2.375   1.457   0.265
 9826SOL    HW141357   2.377   1.403   0.344
 9826SOL    HW241358   2.333   1.539   0.293
 9827SOL     OW41359   1.948   3.550   1.219
 9827SOL    HW141360   1.966   3.501   1.139
 9827SOL    HW241361   1.898   3.626   1.190
 9828SOL     OW41362   2.329   1.063   0.540
 9828SOL    HW141363   2.309   1.131   0.604
 9828SOL    HW241364   2.273   0.989   0.565
 9829SOL     OW41365   3.545   4.390  13.635
 9829SOL    HW141366   3.511   4.301  13.640
 9829SOL    HW241367   3.474   4.441  13.596
 9830SOL     OW41368   0.517   0.619  15.775
 9830SOL    HW141369   0.446   0.578  15.725
 9830SOL    HW241370   0.536   0.557  15.845
 9831SOL     OW41371   1.791   1.544   3.395
 9831SOL    HW141372   1.715   1.486   3.394
 9831SOL    HW241373   1.847   1.509   3.464
 9832SOL     OW41374   2.865   2.452  16.932
 9832SOL    HW141375   2.814   2.514  16.984
 9832SOL    HW241376   2.905   2.394  16.996
 9833SOL     OW41377   3.802   4.448   4.183
 9833SOL    HW141378   3.882   4.430   4.233
 9833SOL    HW241379   3.828   4.438   4.091
 9834SOL     OW41380   3.058   0.934  17.680
 9834SOL    HW141381   3.133   0.983  17.715
 9834SOL    HW241382   3.056   0.853  17.731
 9835SOL     OW41383   2.015   1.018   1.545
 9835SOL    HW141384   1.926   1.029   1.512
 9835SOL    HW241385   2.004   0.986   1.634
 9836SOL     OW41386   4.454   1.934   3.769
 9836SOL    HW141387   4.433   1.898   3.855
 9836SOL    HW241388   4.500   1.863   3.724
 9837SOL     OW41389   0.830   1.045  19.750
 9837SOL    HW141390   0.736   1.061  19.743
 9837SOL    HW241391   0.870   1.130  19.733
 9838SOL     OW41392   2.639   3.741   3.739
 9838SOL    HW141393   2.713   3.692   3.773
 9838SOL    HW241394   2.674   3.788   3.664
 9839SOL     OW41395   1.373   3.167  12.608
 9839SOL    HW141396   1.442   3.208  12.556
 9839SOL    HW241397   1.419   3.112  12.671
 9840SOL     OW41398   0.091   0.247   1.597
 9840SOL    HW141399   0.125   0.335   1.611
 9840SOL    HW241400   0.106   0.202   1.680
 9841SOL     OW41401   1.962   3.222   3.288
 9841SOL    HW141402   2.016   3.223   3.209
 9841SOL    HW241403   1.875   3.196   3.257
 9842SOL     OW41404   0.416   0.002  18.968
 9842SOL    HW141405   0.487   0.044  18.920
 9842SOL    HW241406   0.339   0.056  18.951
 9843SOL     OW41407   1.335   0.554   5.990
 9843SOL    HW141408   1.283   0.487   5.946
 9843SOL    HW241409   1.373   0.509   6.066
 9844SOL     OW41410   4.606   2.188   0.428
 9844SOL    HW141411   4.608   2.209   0.335
 9844SOL    HW241412   4.527   2.135   0.438
 9845SOL     OW41413   4.784   1.423  19.760
 9845SOL    HW141414   0.055   1.391  19.693
 9845SOL    HW241415   4.722   1.478  19.712
 9846SOL     OW41416   2.612   3.008   3.343
 9846SOL    HW141417   2.521   3.014   3.372
 9846SOL    HW241418   2.640   3.099   3.333
 9847SOL     OW41419   2.395   3.410   3.746
 9847SOL    HW141420   2.370   3.461   3.669
 9847SOL    HW241421   2.463   3.351   3.715
 9848SOL     OW41422   3.010   2.977   3.504
 9848SOL    HW141423   2.949   3.001   3.574
 9848SOL    HW241424   2.978   3.024   3.427
 9849SOL     OW41425   3.593   3.653  13.763
 9849SOL    HW141426   3.676   3.660  13.811
 9849SOL    HW241427   3.619   3.629  13.674
 9850SOL     OW41428   4.243   2.939  19.583
 9850SOL    HW141429   4.267   2.885  19.658
 9850SOL    HW241430   4.247   3.029  19.616
 9851SOL     OW41431   4.155   3.935  17.785
 9851SOL    HW141432   4.238   3.929  17.833
 9851SOL    HW241433   4.120   3.846  17.787
 9852SOL     OW41434   4.580   4.337   4.819
 9852SOL    HW141435   4.575   4.411   4.758
 9852SOL    HW241436   4.499   4.288   4.803
 9853SOL     OW41437   2.929   0.058   4.764
 9853SOL    HW141438   3.019   0.081   4.739
 9853SOL    HW241439   2.896   0.008   4.690
 9854SOL     OW41440   3.457   2.865  18.019
 9854SOL    HW141441   3.480   2.806  18.091
 9854SOL    HW241442   3.446   2.807  17.943
 9855SOL     OW41443   2.314   2.463   4.638
 9855SOL    HW141444   2.384   2.415   4.682
 9855SOL    HW241445   2.355   2.545   4.611
 9856SOL     OW41446   0.024   4.649   4.720
 9856SOL    HW141447   4.733   4.611   4.685
 9856SOL    HW241448   0.074   4.675   4.643
 9857SOL     OW41449   0.122   4.184   5.782
 9857SOL    HW141450   0.215   4.194   5.762
 9857SOL    HW241451   0.104   4.251   5.848
 9858SOL     OW41452   2.286   4.285   6.650
 9858SOL    HW141453   2.342   4.362   6.659
 9858SOL    HW241454   2.208   4.307   6.701
 9859SOL     OW41455   1.108   2.023   4.051
 9859SOL    HW141456   1.129   2.046   3.961
 9859SOL    HW241457   1.166   2.077   4.104
 9860SOL     OW41458   1.180   0.776   3.528
 9860SOL    HW141459   1.197   0.863   3.564
 9860SOL    HW241460   1.092   0.783   3.490
 9861SOL     OW41461   4.649   2.879  21.099
 9861SOL    HW141462   4.554   2.889  21.108
 9861SOL    HW241463   4.659   2.811  21.033
 9862SOL     OW41464   0.112   3.679  13.935
 9862SOL    HW141465   0.065   3.754  13.899
 9862SOL    HW241466   0.193   3.716  13.970
 9863SOL     OW41467   1.324   0.810  17.097
 9863SOL    HW141468   1.300   0.887  17.149
 9863SOL    HW241469   1.364   0.846  17.018
 9864SOL     OW41470   1.286   2.684   3.120
 9864SOL    HW141471   1.373   2.678   3.160
 9864SOL    HW241472   1.300   2.732   3.038
 9865SOL     OW41473   3.853   0.851  15.145
 9865SOL    HW141474   3.908   0.927  15.130
 9865SOL    HW241475   3.882   0.816  15.229
 9866SOL     OW41476   4.161   4.535  19.111
 9866SOL    HW141477   4.084   4.484  19.136
 9866SOL    HW241478   4.140   4.625  19.137
 9867SOL     OW41479   4.722   3.873   1.578
 9867SOL    HW141480   4.725   3.836   1.490
 9867SOL    HW241481   0.024   3.875   1.606
 9868SOL     OW41482   1.858   1.276  17.433
 9868SOL    HW141483   1.870   1.212  17.503
 9868SOL    HW241484   1.766   1.267  17.408
 9869SOL     OW41485   0.286   1.196   1.698
 9869SOL    HW141486   0.224   1.155   1.759
 9869SOL    HW241487   0.233   1.218   1.621
 9870SOL     OW41488   2.496   1.696  20.745
 9870SOL    HW141489   2.550   1.630  20.702
 9870SOL    HW241490   2.452   1.648  20.816
 9871SOL     OW41491   0.783   1.016  15.710
 9871SOL    HW141492   0.765   0.930  15.672
 9871SOL    HW241493   0.769   1.004  15.804
 9872SOL     OW41494   1.718   2.295  18.098
 9872SOL    HW141495   1.735   2.227  18.163
 9872SOL    HW241496   1.684   2.248  18.022
 9873SOL     OW41497   2.097   0.844   3.219
 9873SOL    HW141498   2.124   0.904   3.150
 9873SOL    HW241499   2.155   0.864   3.293
 9874SOL     OW41500   3.566   1.652   6.093
 9874SOL    HW141501   3.620   1.652   6.014
 9874SOL    HW241502   3.539   1.743   6.103
 9875SOL     OW41503   0.630   1.992   1.214
 9875SOL    HW141504   0.698   1.951   1.161
 9875SOL    HW241505   0.553   1.992   1.157
 9876SOL     OW41506   1.366   0.773   7.070
 9876SOL    HW141507   1.458   0.797   7.082
 9876SOL    HW241508   1.317   0.852   7.092
 9877SOL     OW41509   4.182   4.108  16.332
 9877SOL    HW141510   4.233   4.077  16.407
 9877SOL    HW241511   4.094   4.121  16.367
 9878SOL     OW41512   2.652   4.154   3.998
 9878SOL    HW141513   2.616   4.181   4.083
 9878SOL    HW241514   2.597   4.200   3.934
 9879SOL     OW41515   3.264   4.662  21.135
 9879SOL    HW141516   3.269   4.599  21.063
 9879SOL    HW241517   3.266   4.608  21.214
 9880SOL     OW41518   3.828   1.678  18.883
 9880SOL    HW141519   3.911   1.722  18.901
 9880SOL    HW241520   3.853   1.595  18.843
 9881SOL     OW41521   0.041   0.741  15.176
 9881SOL    HW141522   0.119   0.730  15.122
 9881SOL    HW241523   4.758   0.716  15.119
 9882SOL     OW41524   3.780   0.134   3.281
 9882SOL    HW141525   3.843   0.190   3.235
 9882SOL    HW241526   3.721   0.102   3.213
 9883SOL     OW41527   1.011   2.162   4.403
 9883SOL    HW141528   1.029   2.210   4.322
 9883SOL    HW241529   1.096   2.129   4.431
 9884SOL     OW41530   0.942   4.262  16.943
 9884SOL    HW141531   0.951   4.212  17.024
 9884SOL    HW241532   1.020   4.239  16.892
 9885SOL     OW41533   3.660   0.838   5.312
 9885SOL    HW141534   3.620   0.910   5.263
 9885SOL    HW241535   3.754   0.851   5.301
 9886SOL     OW41536   0.423   0.307   0.675
 9886SOL    HW141537   0.465   0.230   0.638
 9886SOL    HW241538   0.383   0.276   0.756
 9887SOL     OW41539   1.792   1.247  21.009
 9887SOL    HW141540   1.723   1.272  20.948
 9887SOL    HW241541   1.868   1.230  20.953
 9888SOL     OW41542   3.290   0.323  18.378
 9888SOL    HW141543   3.251   0.258  18.436
 9888SOL    HW241544   3.259   0.299  18.290
 9889SOL     OW41545   2.938   1.638   2.239
 9889SOL    HW141546   2.872   1.703   2.216
 9889SOL    HW241547   2.973   1.668   2.323
 9890SOL     OW41548   2.500   1.686   2.778
 9890SOL    HW141549   2.529   1.726   2.860
 9890SOL    HW241550   2.503   1.592   2.796
 9891SOL     OW41551   2.716   2.244  15.823
 9891SOL    HW141552   2.656   2.244  15.748
 9891SOL    HW241553   2.800   2.272  15.786
 9892SOL     OW41554   0.171   4.739  14.717
 9892SOL    HW141555   0.266   4.738  14.724
 9892SOL    HW241556   0.153   4.691  14.636
 9893SOL     OW41557   2.556   0.621  15.313
 9893SOL    HW141558   2.499   0.553  15.349
 9893SOL    HW241559   2.644   0.586  15.321
 9894SOL     OW41560   1.443   3.021   2.269
 9894SOL    HW141561   1.363   2.974   2.290
 9894SOL    HW241562   1.509   2.953   2.258
 9895SOL     OW41563   1.538   1.302  20.891
 9895SOL    HW141564   1.466   1.238  20.893
 9895SOL    HW241565   1.501   1.381  20.929
 9896SOL     OW41566   2.871   2.810  19.841
 9896SOL    HW141567   2.948   2.797  19.785
 9896SOL    HW241568   2.870   2.904  19.858
 9897SOL     OW41569   1.796   3.898  15.545
 9897SOL    HW141570   1.874   3.880  15.492
 9897SOL    HW241571   1.828   3.895  15.635
 9898SOL     OW41572   3.371   2.259  17.151
 9898SOL    HW141573   3.467   2.264  17.154
 9898SOL    HW241574   3.343   2.274  17.241
 9899SOL     OW41575   1.951   3.654  15.798
 9899SOL    HW141576   1.913   3.715  15.862
 9899SOL    HW241577   1.876   3.619  15.750
 9900SOL     OW41578   2.670   2.754  20.557
 9900SOL    HW141579   2.589   2.711  20.529
 9900SOL    HW241580   2.681   2.726  20.648
 9901SOL     OW41581   4.234   2.976  15.162
 9901SOL    HW141582   4.279   2.930  15.233
 9901SOL    HW241583   4.145   2.988  15.194
 9902SOL     OW41584   0.776   4.036  15.364
 9902SOL    HW141585   0.834   3.965  15.390
 9902SOL    HW241586   0.803   4.110  15.418
 9903SOL     OW41587   2.370   4.196  12.969
 9903SOL    HW141588   2.342   4.168  13.056
 9903SOL    HW241589   2.294   4.181  12.913
 9904SOL     OW41590   1.865   1.957   2.164
 9904SOL    HW141591   1.931   1.892   2.139
 9904SOL    HW241592   1.903   2.040   2.136
 9905SOL     OW41593   0.495   2.571   4.470
 9905SOL    HW141594   0.468   2.492   4.517
 9905SOL    HW241595   0.588   2.581   4.491
 9906SOL     OW41596   1.645   0.545  19.418
 9906SOL    HW141597   1.637   0.471  19.358
 9906SOL    HW241598   1.672   0.505  19.501
 9907SOL     OW41599   2.785   3.282   5.162
 9907SOL    HW141600   2.711   3.316   5.213
 9907SOL    HW241601   2.862   3.302   5.216
 9908SOL     OW41602   3.181   2.876   2.279
 9908SOL    HW141603   3.161   2.806   2.216
 9908SOL    HW241604   3.249   2.839   2.335
 9909SOL     OW41605   3.762   2.465   7.004
 9909SOL    HW141606   3.809   2.451   7.086
 9909SOL    HW241607   3.803   2.404   6.942
 9910SOL     OW41608   2.838   3.624  14.955
 9910SOL    HW141609   2.775   3.669  15.011
 9910SOL    HW241610   2.816   3.531  14.963
 9911SOL     OW41611   4.102   2.095   3.613
 9911SOL    HW141612   4.117   2.091   3.519
 9911SOL    HW241613   4.172   2.150   3.647
 9912SOL     OW41614   1.425   1.978   3.293
 9912SOL    HW141615   1.500   2.006   3.346
 9912SOL    HW241616   1.427   1.882   3.299
 9913SOL     OW41617   3.860   0.918   2.266
 9913SOL    HW141618   3.786   0.904   2.207
 9913SOL    HW241619   3.923   0.851   2.242
 9914SOL     OW41620   3.796   4.752   5.398
 9914SOL    HW141621   3.789   4.662   5.429
 9914SOL    HW241622   3.814   0.013   5.477
 9915SOL     OW41623   3.426   1.349   5.977
 9915SOL    HW141624   3.358   1.283   5.990
 9915SOL    HW241625   3.492   1.327   6.043
 9916SOL     OW41626   0.091   4.238   0.308
 9916SOL    HW141627   0.185   4.236   0.326
 9916SOL    HW241628   0.085   4.227   0.213
 9917SOL     OW41629   4.400   0.316  14.146
 9917SOL    HW141630   4.417   0.253  14.216
 9917SOL    HW241631   4.314   0.353  14.167
 9918SOL     OW41632   3.861   0.498  18.554
 9918SOL    HW141633   3.843   0.433  18.486
 9918SOL    HW241634   3.815   0.577  18.524
 9919SOL     OW41635   1.987   4.428   6.996
 9919SOL    HW141636   1.961   4.425   7.088
 9919SOL    HW241637   2.044   4.505   6.990
 9920SOL     OW41638   3.568   3.370  18.135
 9920SOL    HW141639   3.556   3.277  18.117
 9920SOL    HW241640   3.644   3.374  18.194
 9921SOL     OW41641   0.577   1.965  13.028
 9921SOL    HW141642   0.545   1.983  12.940
 9921SOL    HW241643   0.536   1.882  13.053
 9922SOL     OW41644   0.839   0.850   1.897
 9922SOL    HW141645   0.830   0.779   1.834
 9922SOL    HW241646   0.842   0.929   1.844
 9923SOL     OW41647   1.862   0.966   0.783
 9923SOL    HW141648   1.862   1.011   0.868
 9923SOL    HW241649   1.874   1.036   0.719
 9924SOL     OW41650   3.522   2.510  17.444
 9924SOL    HW141651   3.569   2.554  17.373
 9924SOL    HW241652   3.500   2.580  17.505
 9925SOL     OW41653   2.648   0.615  20.898
 9925SOL    HW141654   2.593   0.637  20.822
 9925SOL    HW241655   2.736   0.604  20.862
 9926SOL     OW41656   3.137   3.102   3.905
 9926SOL    HW141657   3.155   3.112   3.999
 9926SOL    HW241658   3.043   3.083   3.901
 9927SOL     OW41659   4.672   2.455   2.965
 9927SOL    HW141660   4.595   2.506   2.940
 9927SOL    HW241661   4.644   2.364   2.957
 9928SOL     OW41662   3.447   4.249   7.628
 9928SOL    HW141663   3.412   4.166   7.597
 9928SOL    HW241664   3.534   4.255   7.588
 9929SOL     OW41665   2.997   1.709   9.149
 9929SOL    HW141666   3.064   1.773   9.128
 9929SOL    HW241667   3.012   1.689   9.241
 9930SOL     OW41668   0.508   2.254   5.845
 9930SOL    HW141669   0.596   2.218   5.852
 9930SOL    HW241670   0.490   2.292   5.931
 9931SOL     OW41671   2.839   3.703   5.302
 9931SOL    HW141672   2.886   3.767   5.356
 9931SOL    HW241673   2.752   3.740   5.290
 9932SOL     OW41674   1.342   2.551  20.210
 9932SOL    HW141675   1.310   2.543  20.300
 9932SOL    HW241676   1.411   2.485  20.204
 9933SOL     OW41677   0.149   1.149  17.942
 9933SOL    HW141678   0.101   1.172  18.021
 9933SOL    HW241679   0.216   1.088  17.971
 9934SOL     OW41680   1.799   2.128  17.050
 9934SOL    HW141681   1.774   2.159  16.963
 9934SOL    HW241682   1.739   2.173  17.109
 9935SOL     OW41683   0.153   2.367   1.818
 9935SOL    HW141684   0.089   2.396   1.882
 9935SOL    HW241685   0.219   2.321   1.869
 9936SOL     OW41686   0.830   4.224  17.463
 9936SOL    HW141687   0.800   4.242  17.552
 9936SOL    HW241688   0.901   4.287  17.449
 9937SOL     OW41689   1.207   4.040  19.142
 9937SOL    HW141690   1.192   4.086  19.224
 9937SOL    HW241691   1.267   3.969  19.165
 9938SOL     OW41692   1.530   1.928  17.104
 9938SOL    HW141693   1.453   1.949  17.052
 9938SOL    HW241694   1.520   1.980  17.184
 9939SOL     OW41695   1.577   0.925   0.279
 9939SOL    HW141696   1.669   0.901   0.270
 9939SOL    HW241697   1.553   0.960   0.193
 9940SOL     OW41698   0.352   3.161   0.228
 9940SOL    HW141699   0.355   3.067   0.246
 9940SOL    HW241700   0.263   3.176   0.197
 9941SOL     OW41701   2.401   1.193  14.756
 9941SOL    HW141702   2.469   1.198  14.689
 9941SOL    HW241703   2.392   1.099  14.774
 9942SOL     OW41704   3.206   3.836  19.319
 9942SOL    HW141705   3.207   3.758  19.263
 9942SOL    HW241706   3.268   3.896  19.277
 9943SOL     OW41707   2.328   1.092  15.164
 9943SOL    HW141708   2.345   1.004  15.129
 9943SOL    HW241709   2.411   1.138  15.153
 9944SOL     OW41710   0.169   2.397  15.932
 9944SOL    HW141711   0.255   2.356  15.918
 9944SOL    HW241712   0.182   2.455  16.007
 9945SOL     OW41713   2.924   0.486   8.995
 9945SOL    HW141714   2.994   0.499   8.930
 9945SOL    HW241715   2.927   0.565   9.049
 9946SOL     OW41716   0.834   2.856   4.312
 9946SOL    HW141717   0.745   2.890   4.299
 9946SOL    HW241718   0.834   2.771   4.268
 9947SOL     OW41719   1.282   3.749   5.445
 9947SOL    HW141720   1.196   3.719   5.415
 9947SOL    HW241721   1.282   3.843   5.426
 9948SOL     OW41722   1.954   0.362   1.824
 9948SOL    HW141723   2.027   0.388   1.767
 9948SOL    HW241724   1.986   0.378   1.913
 9949SOL     OW41725   4.659   2.361   7.164
 9949SOL    HW141726   4.659   2.430   7.098
 9949SOL    HW241727   4.645   2.407   7.247
 9950SOL     OW41728   1.066   1.496  19.258
 9950SOL    HW141729   1.035   1.520  19.171
 9950SOL    HW241730   1.131   1.562  19.280
 9951SOL     OW41731   2.119   2.702  20.817
 9951SOL    HW141732   2.168   2.645  20.758
 9951SOL    HW241733   2.173   2.780  20.825
 9952SOL     OW41734   4.042   1.465   4.677
 9952SOL    HW141735   4.016   1.396   4.738
 9952SOL    HW241736   3.968   1.472   4.616
 9953SOL     OW41737   3.503   3.397   2.220
 9953SOL    HW141738   3.562   3.464   2.255
 9953SOL    HW241739   3.552   3.358   2.148
 9954SOL     OW41740   2.291   4.047  17.978
 9954SOL    HW141741   2.236   4.033  17.901
 9954SOL    HW241742   2.237   4.018  18.051
 9955SOL     OW41743   3.570   2.264  21.123
 9955SOL    HW141744   3.603   2.348  21.090
 9955SOL    HW241745   3.606   2.199  21.062
 9956SOL     OW41746   3.873   1.682  13.894
 9956SOL    HW141747   3.925   1.747  13.847
 9956SOL    HW241748   3.928   1.656  13.968
 9957SOL     OW41749   3.430   0.507  19.281
 9957SOL    HW141750   3.497   0.494  19.348
 9957SOL    HW241751   3.478   0.500  19.198
 9958SOL     OW41752   2.656   1.524  18.661
 9958SOL    HW141753   2.633   1.443  18.707
 9958SOL    HW241754   2.625   1.594  18.719
 9959SOL     OW41755   0.679   2.993   6.205
 9959SOL    HW141756   0.707   3.071   6.253
 9959SOL    HW241757   0.745   2.927   6.226
 9960SOL     OW41758   3.206   4.462   1.888
 9960SOL    HW141759   3.296   4.487   1.910
 9960SOL    HW241760   3.165   4.544   1.859
 9961SOL     OW41761   2.965   2.724  17.741
 9961SOL    HW141762   3.008   2.709  17.657
 9961SOL    HW241763   2.985   2.815  17.762
 9962SOL     OW41764   1.695   4.367  16.060
 9962SOL    HW141765   1.778   4.358  16.107
 9962SOL    HW241766   1.667   4.277  16.043
 9963SOL     OW41767   2.055   2.120  20.517
 9963SOL    HW141768   2.032   2.186  20.582
 9963SOL    HW241769   1.975   2.109  20.465
 9964SOL     OW41770   0.079   0.040   3.005
 9964SOL    HW141771   0.038   0.031   3.091
 9964SOL    HW241772   0.170   0.013   3.019
 9965SOL     OW41773   1.816   1.887  15.011
 9965SOL    HW141774   1.820   1.880  14.916
 9965SOL    HW241775   1.725   1.908  15.030
 9966SOL     OW41776   4.143   2.061  17.881
 9966SOL    HW141777   4.084   2.028  17.813
 9966SOL    HW241778   4.195   1.985  17.907
 9967SOL     OW41779   1.226   1.152  19.744
 9967SOL    HW141780   1.204   1.077  19.689
 9967SOL    HW241781   1.278   1.115  19.815
 9968SOL     OW41782   2.024   1.698  14.112
 9968SOL    HW141783   1.938   1.694  14.069
 9968SOL    HW241784   2.067   1.773  14.071
 9969SOL     OW41785   3.402   1.327   4.278
 9969SOL    HW141786   3.342   1.359   4.346
 9969SOL    HW241787   3.418   1.236   4.302
 9970SOL     OW41788   0.273   0.495  19.244
 9970SOL    HW141789   0.184   0.501  19.209
 9970SOL    HW241790   0.293   0.401  19.241
 9971SOL     OW41791   4.078   0.306  18.155
 9971SOL    HW141792   4.077   0.299  18.060
 9971SOL    HW241793   4.036   0.390  18.173
 9972SOL     OW41794   1.501   3.483   8.550
 9972SOL    HW141795   1.550   3.548   8.500
 9972SOL    HW241796   1.494   3.521   8.638
 9973SOL     OW41797   0.503   3.779  20.586
 9973SOL    HW141798   0.454   3.738  20.657
 9973SOL    HW241799   0.582   3.813  20.628
 9974SOL     OW41800   3.784   2.675   0.059
 9974SOL    HW141801   3.737   2.758   0.063
 9974SOL    HW241802   3.722   2.615   0.018
 9975SOL     OW41803   4.508   1.147   4.698
 9975SOL    HW141804   4.535   1.055   4.690
 9975SOL    HW241805   4.542   1.175   4.783
 9976SOL     OW41806   2.689   3.176  18.848
 9976SOL    HW141807   2.646   3.153  18.765
 9976SOL    HW241808   2.617   3.196  18.907
 9977SOL     OW41809   0.505   1.546   0.907
 9977SOL    HW141810   0.557   1.481   0.955
 9977SOL    HW241811   0.505   1.514   0.817
 9978SOL     OW41812   2.632   4.203   1.720
 9978SOL    HW141813   2.562   4.241   1.666
 9978SOL    HW241814   2.586   4.150   1.785
 9979SOL     OW41815   2.721   3.811  18.020
 9979SOL    HW141816   2.728   3.725  17.978
 9979SOL    HW241817   2.767   3.800  18.104
 9980SOL     OW41818   1.788   3.924  19.259
 9980SOL    HW141819   1.758   3.995  19.202
 9980SOL    HW241820   1.717   3.912  19.322
 9981SOL     OW41821   1.098   4.381   1.698
 9981SOL    HW141822   1.140   4.392   1.613
 9981SOL    HW241823   1.169   4.356   1.757
 9982SOL     OW41824   3.660   3.026  17.285
 9982SOL    HW141825   3.582   3.082  17.292
 9982SOL    HW241826   3.726   3.070  17.337
 9983SOL     OW41827   1.653   2.522  17.960
 9983SOL    HW141828   1.584   2.547  18.021
 9983SOL    HW241829   1.676   2.432  17.984
 9984SOL     OW41830   3.593   0.609  18.014
 9984SOL    HW141831   3.629   0.573  17.933
 9984SOL    HW241832   3.545   0.536  18.053
 9985SOL     OW41833   2.412   0.567  14.722
 9985SOL    HW141834   2.502   0.564  14.690
 9985SOL    HW241835   2.358   0.552  14.644
 9986SOL     OW41836   0.015   1.498   2.007
 9986SOL    HW141837   0.108   1.493   2.028
 9986SOL    HW241838   0.002   1.434   1.937
 9987SOL     OW41839   1.413   1.594   1.680
 9987SOL    HW141840   1.331   1.560   1.644
 9987SOL    HW241841   1.400   1.689   1.682
 9988SOL     OW41842   0.246   0.076   1.457
 9988SOL    HW141843   0.174   0.134   1.481
 9988SOL    HW241844   0.260   0.092   1.364
 9989SOL     OW41845   4.031   3.691   2.418
 9989SOL    HW141846   3.955   3.713   2.473
 9989SOL    HW241847   3.994   3.673   2.332
 9990SOL     OW41848   2.196   3.634   9.316
 9990SOL    HW141849   2.124   3.675   9.364
 9990SOL    HW241850   2.246   3.708   9.281
 9991SOL     OW41851   3.211   0.208   0.048
 9991SOL    HW141852   3.294   0.163   0.036
 9991SOL    HW241853   3.224   0.294   0.008
 9992SOL     OW41854   1.215   0.372  19.057
 9992SOL    HW141855   1.172   0.333  18.981
 9992SOL    HW241856   1.148   0.372  19.125
 9993SOL     OW41857   3.494   2.844   2.924
 9993SOL    HW141858   3.526   2.846   2.834
 9993SOL    HW241859   3.454   2.930   2.938
 9994SOL     OW41860   4.612   3.595   1.950
 9994SOL    HW141861   4.657   3.525   1.902
 9994SOL    HW241862   4.679   3.662   1.964
 9995SOL     OW41863   4.630   0.651   9.685
 9995SOL    HW141864   4.614   0.656   9.779
 9995SOL    HW241865   4.611   0.560   9.663
 9996SOL     OW41866   2.683   2.765   9.555
 9996SOL    HW141867   2.603   2.813   9.576
 9996SOL    HW241868   2.743   2.785   9.627
 9997SOL     OW41869   1.200   2.579   9.693
 9997SOL    HW141870   1.286   2.560   9.731
 9997SOL    HW241871   1.202   2.537   9.607
 9998SOL     OW41872   1.403   3.156   9.556
 9998SOL    HW141873   1.323   3.105   9.546
 9998SOL    HW241874   1.443   3.123   9.636
 9999SOL     OW41875   0.656   3.313  16.843
 9999SOL    HW141876   0.748   3.339  16.840
 9999SOL    HW241877   0.612   3.376  16.786
10000SOL     OW41878   2.201   2.701   9.602
10000SOL    HW141879   2.121   2.723   9.650
10000SOL    HW241880   2.265   2.766   9.631
10001SOL     OW41881   2.433   0.874  18.655
10001SOL    HW141882   2.363   0.937  18.672
10001SOL    HW241883   2.435   0.865  18.560
10002SOL     OW41884   2.269   3.985   8.601
10002SOL    HW141885   2.236   3.895   8.607
10002SOL    HW241886   2.300   3.993   8.511
10003SOL     OW41887   2.476   2.941   7.891
10003SOL    HW141888   2.450   2.979   7.975
10003SOL    HW241889   2.571   2.951   7.889
10004SOL     OW41890   2.246   2.707   0.290
10004SOL    HW141891   2.257   2.621   0.331
10004SOL    HW241892   2.206   2.761   0.358
10005SOL     OW41893   2.259   2.336   9.655
10005SOL    HW141894   2.241   2.417   9.607
10005SOL    HW241895   2.352   2.319   9.640
10006SOL     OW41896   2.564   1.826   8.000
10006SOL    HW141897   2.569   1.775   8.081
10006SOL    HW241898   2.610   1.907   8.020
10007SOL     OW41899   1.551   1.942   9.120
10007SOL    HW141900   1.520   2.011   9.061
10007SOL    HW241901   1.638   1.920   9.086
10008SOL     OW41902   1.687   2.877  10.406
10008SOL    HW141903   1.741   2.879  10.327
10008SOL    HW241904   1.737   2.926  10.471
10009SOL     OW41905   3.034   3.212  10.998
10009SOL    HW141906   3.013   3.119  10.986
10009SOL    HW241907   2.954   3.258  10.974
10010SOL     OW41908   1.661   2.605  10.544
10010SOL    HW141909   1.680   2.699  10.539
10010SOL    HW241910   1.594   2.590  10.477
10011SOL     OW41911   2.911   2.941   9.982
10011SOL    HW141912   2.853   2.953  10.057
10011SOL    HW241913   2.944   2.851   9.991
10012SOL     OW41914   1.772   2.147  10.930
10012SOL    HW141915   1.840   2.133  10.996
10012SOL    HW241916   1.774   2.241  10.913
10013SOL     OW41917   0.987   1.494  11.015
10013SOL    HW141918   1.076   1.521  10.993
10013SOL    HW241919   0.986   1.400  11.000
10014SOL     OW41920   1.935   3.142  11.222
10014SOL    HW141921   2.006   3.085  11.192
10014SOL    HW241922   1.897   3.095  11.296
10015SOL     OW41923   2.556   3.424  11.013
10015SOL    HW141924   2.555   3.421  11.109
10015SOL    HW241925   2.633   3.374  10.988
10016SOL     OW41926   4.466   3.133   9.682
10016SOL    HW141927   4.500   3.156   9.596
10016SOL    HW241928   4.390   3.191   9.694
10017SOL     OW41929   2.170   0.549  10.409
10017SOL    HW141930   2.121   0.631  10.404
10017SOL    HW241931   2.251   0.573  10.454
10018SOL     OW41932   1.982   2.087  10.073
10018SOL    HW141933   2.034   2.026  10.020
10018SOL    HW241934   1.927   2.133  10.010
10019SOL     OW41935   0.927   1.631  11.271
10019SOL    HW141936   0.938   1.624  11.176
10019SOL    HW241937   0.853   1.573  11.291
10020SOL     OW41938   2.924   3.983  11.207
10020SOL    HW141939   3.012   3.968  11.241
10020SOL    HW241940   2.924   4.075  11.182
10021SOL     OW41941   2.901   2.762  11.584
10021SOL    HW141942   2.955   2.714  11.522
10021SOL    HW241943   2.957   2.775  11.660
10022SOL     OW41944   3.184   1.579  11.533
10022SOL    HW141945   3.273   1.586  11.567
10022SOL    HW241946   3.168   1.485  11.527
10023SOL     OW41947   3.948   2.811  12.035
10023SOL    HW141948   3.853   2.803  12.027
10023SOL    HW241949   3.964   2.821  12.129
10024SOL     OW41950   2.122   2.327  12.734
10024SOL    HW141951   2.078   2.370  12.807
10024SOL    HW241952   2.058   2.264  12.701
10025SOL     OW41953   3.066   1.798  11.020
10025SOL    HW141954   3.043   1.856  11.093
10025SOL    HW241955   3.033   1.843  10.942
10026SOL     OW41956   2.676   2.124  12.138
10026SOL    HW141957   2.728   2.188  12.187
10026SOL    HW241958   2.596   2.171  12.114
10027SOL     OW41959   2.207   2.485  12.299
10027SOL    HW141960   2.237   2.397  12.321
10027SOL    HW241961   2.286   2.531  12.272
10028SOL     OW41962   2.378   2.273  12.826
10028SOL    HW141963   2.412   2.203  12.770
10028SOL    HW241964   2.293   2.295  12.789
10029SOL     OW41965   1.722   3.082  11.429
10029SOL    HW141966   1.675   3.028  11.365
10029SOL    HW241967   1.772   3.019  11.482
10030SOL     OW41968   2.296   3.301  12.246
10030SOL    HW141969   2.268   3.268  12.331
10030SOL    HW241970   2.354   3.375  12.266
10031SOL     OW41971   2.250   3.116  12.951
10031SOL    HW141972   2.232   3.184  12.886
10031SOL    HW241973   2.296   3.047  12.902
10032SOL     OW41974   3.312   2.078  11.065
10032SOL    HW141975   3.282   2.169  11.070
10032SOL    HW241976   3.305   2.056  10.972
10033SOL     OW41977   1.491   0.042  15.987
10033SOL    HW141978   1.444   0.066  16.067
10033SOL    HW241979   1.458   0.103  15.921
10034SOL     OW41980   0.053   0.994   0.057
10034SOL    HW141981   0.008   1.014   0.139
10034SOL    HW241982   0.118   1.063   0.047
10035SOL     OW41983   3.989   2.659   7.428
10035SOL    HW141984   4.052   2.703   7.485
10035SOL    HW241985   3.941   2.731   7.386
10036SOL     OW41986   2.548   3.619  18.425
10036SOL    HW141987   2.627   3.592  18.378
10036SOL    HW241988   2.532   3.548  18.487
10037SOL     OW41989   1.086   1.726  18.527
10037SOL    HW141990   1.001   1.768  18.541
10037SOL    HW241991   1.077   1.640  18.569
10038SOL     OW41992   3.204   0.542  17.151
10038SOL    HW141993   3.258   0.484  17.097
10038SOL    HW241994   3.223   0.630  17.118
10039SOL     OW41995   3.927   0.079   5.949
10039SOL    HW141996   3.932   0.037   6.035
10039SOL    HW241997   4.010   0.057   5.907
10040SOL     OW41998   3.915   2.193  18.694
10040SOL    HW141999   3.905   2.281  18.730
10040SOL    HW242000   3.884   2.135  18.764
10041SOL     OW42001   4.102   0.769   1.555
10041SOL    HW142002   4.039   0.709   1.514
10041SOL    HW242003   4.175   0.713   1.581
10042SOL     OW42004   0.780   4.649  18.651
10042SOL    HW142005   0.784   4.554  18.646
10042SOL    HW242006   0.687   4.670  18.641
10043SOL     OW42007   3.434   2.785  12.184
10043SOL    HW142008   3.396   2.863  12.224
10043SOL    HW242009   3.363   2.721  12.186
10044SOL     OW42010   2.059   3.106  15.564
10044SOL    HW142011   2.033   3.118  15.473
10044SOL    HW242012   1.984   3.137  15.615
10045SOL     OW42013   1.381   2.546  16.413
10045SOL    HW142014   1.395   2.531  16.320
10045SOL    HW242015   1.316   2.616  16.416
10046SOL     OW42016   4.129   1.717   6.581
10046SOL    HW142017   4.207   1.743   6.630
10046SOL    HW242018   4.163   1.664   6.509
10047SOL     OW42019   2.313   3.684  19.329
10047SOL    HW142020   2.234   3.673  19.276
10047SOL    HW242021   2.316   3.605  19.383
10048SOL     OW42022   0.817   4.499  13.109
10048SOL    HW142023   0.834   4.476  13.018
10048SOL    HW242024   0.846   4.423  13.159
10049SOL     OW42025   3.670   4.292  16.228
10049SOL    HW142026   3.651   4.359  16.163
10049SOL    HW242027   3.726   4.336  16.292
10050SOL     OW42028   3.829   2.152  13.179
10050SOL    HW142029   3.755   2.180  13.125
10050SOL    HW242030   3.848   2.227  13.235
10051SOL     OW42031   2.603   3.454   2.449
10051SOL    HW142032   2.635   3.374   2.408
10051SOL    HW242033   2.682   3.504   2.469
10052SOL     OW42034   0.554   1.159  17.940
10052SOL    HW142035   0.484   1.217  17.971
10052SOL    HW242036   0.526   1.133  17.852
10053SOL     OW42037   3.700   1.084  16.424
10053SOL    HW142038   3.620   1.088  16.477
10053SOL    HW242039   3.670   1.057  16.337
10054SOL     OW42040   3.554   2.413   4.965
10054SOL    HW142041   3.627   2.459   5.007
10054SOL    HW242042   3.480   2.473   4.971
10055SOL     OW42043   2.612   1.835   4.061
10055SOL    HW142044   2.687   1.894   4.056
10055SOL    HW242045   2.536   1.891   4.044
10056SOL     OW42046   2.604   4.126  15.462
10056SOL    HW142047   2.521   4.164  15.435
10056SOL    HW242048   2.618   4.052  15.403
10057SOL     OW42049   2.698   4.601   5.572
10057SOL    HW142050   2.783   4.566   5.547
10057SOL    HW242051   2.675   4.552   5.651
10058SOL     OW42052   3.941   1.595  17.500
10058SOL    HW142053   3.944   1.690  17.494
10058SOL    HW242054   4.006   1.573  17.567
10059SOL     OW42055   4.764   1.772   4.506
10059SOL    HW142056   4.758   1.689   4.553
10059SOL    HW242057   4.770   1.838   4.575
10060SOL     OW42058   0.826   2.453  18.816
10060SOL    HW142059   0.783   2.471  18.900
10060SOL    HW242060   0.894   2.388  18.837
10061SOL     OW42061   4.682   4.202   6.638
10061SOL    HW142062   4.607   4.143   6.639
10061SOL    HW242063   4.645   4.287   6.613
10062SOL     OW42064   3.996   2.829  13.823
10062SOL    HW142065   4.041   2.868  13.898
10062SOL    HW242066   4.024   2.738  13.823
10063SOL     OW42067   2.654   2.779  13.218
10063SOL    HW142068   2.616   2.843  13.278
10063SOL    HW242069   2.583   2.759  13.157
10064SOL     OW42070   4.769   1.656  11.947
10064SOL    HW142071   0.012   1.604  12.021
10064SOL    HW242072   0.046   1.645  11.879
10065SOL     OW42073   1.413   3.125   1.744
10065SOL    HW142074   1.487   3.185   1.735
10065SOL    HW242075   1.338   3.182   1.760
10066SOL     OW42076   2.535   1.793   4.331
10066SOL    HW142077   2.622   1.803   4.370
10066SOL    HW242078   2.551   1.798   4.237
10067SOL     OW42079   4.391   3.983   2.737
10067SOL    HW142080   4.318   3.944   2.688
10067SOL    HW242081   4.416   3.916   2.801
10068SOL     OW42082   1.490   0.579  17.829
10068SOL    HW142083   1.433   0.582  17.906
10068SOL    HW242084   1.439   0.532  17.763
10069SOL     OW42085   1.263   2.522   3.613
10069SOL    HW142086   1.211   2.486   3.540
10069SOL    HW242087   1.352   2.492   3.596
10070SOL     OW42088   0.697   3.413   1.354
10070SOL    HW142089   0.703   3.505   1.381
10070SOL    HW242090   0.668   3.367   1.433
10071SOL     OW42091   2.118   1.901  13.948
10071SOL    HW142092   2.190   1.927  14.006
10071SOL    HW242093   2.063   1.979  13.941
10072SOL     OW42094   3.613   4.044  19.385
10072SOL    HW142095   3.675   3.972  19.394
10072SOL    HW242096   3.598   4.075  19.474
10073SOL     OW42097   2.058   1.646  18.626
10073SOL    HW142098   2.051   1.675  18.717
10073SOL    HW242099   2.105   1.717  18.582
10074SOL     OW42100   4.177   0.131   0.299
10074SOL    HW142101   4.261   0.086   0.309
10074SOL    HW242102   4.146   0.105   0.212
10075SOL     OW42103   0.289   3.183  18.849
10075SOL    HW142104   0.194   3.193  18.841
10075SOL    HW242105   0.324   3.271  18.833
10076SOL     OW42106   2.142   3.828  13.440
10076SOL    HW142107   2.104   3.908  13.476
10076SOL    HW242108   2.086   3.758  13.474
10077SOL     OW42109   1.211   0.169   6.184
10077SOL    HW142110   1.120   0.196   6.192
10077SOL    HW242111   1.257   0.248   6.156
10078SOL     OW42112   2.391   4.545   6.691
10078SOL    HW142113   2.333   4.594   6.749
10078SOL    HW242114   2.478   4.582   6.706
10079SOL     OW42115   0.478   0.127  19.696
10079SOL    HW142116   0.531   0.048  19.690
10079SOL    HW242117   0.537   0.198  19.670
10080SOL     OW42118   1.332   2.928   5.952
10080SOL    HW142119   1.257   2.986   5.965
10080SOL    HW242120   1.294   2.841   5.940
10081SOL     OW42121   1.124   4.481   1.147
10081SOL    HW142122   1.196   4.533   1.183
10081SOL    HW242123   1.059   4.546   1.119
10082SOL     OW42124   0.919   3.237   0.547
10082SOL    HW142125   0.988   3.200   0.601
10082SOL    HW242126   0.841   3.232   0.602
10083SOL     OW42127   1.864   1.860   1.677
10083SOL    HW142128   1.772   1.879   1.659
10083SOL    HW242129   1.883   1.781   1.626
10084SOL     OW42130   4.409   1.058  18.748
10084SOL    HW142131   4.406   1.145  18.708
10084SOL    HW242132   4.458   1.005  18.686
10085SOL     OW42133   0.589   0.133  16.361
10085SOL    HW142134   0.658   0.197  16.343
10085SOL    HW242135   0.635   0.049  16.368
10086SOL     OW42136   1.832   3.805  20.053
10086SOL    HW142137   1.827   3.712  20.075
10086SOL    HW242138   1.789   3.812  19.968
10087SOL     OW42139   3.804   4.324  11.759
10087SOL    HW142140   3.836   4.371  11.836
10087SOL    HW242141   3.812   4.386  11.687
10088SOL     OW42142   0.261   1.651   0.525
10088SOL    HW142143   0.254   1.602   0.443
10088SOL    HW242144   0.222   1.594   0.591
10089SOL     OW42145   4.180   1.055   6.168
10089SOL    HW142146   4.220   1.048   6.255
10089SOL    HW242147   4.086   1.046   6.184
10090SOL     OW42148   3.796   1.868  16.331
10090SOL    HW142149   3.857   1.940  16.312
10090SOL    HW242150   3.728   1.876  16.264
10091SOL     OW42151   1.982   0.706  16.113
10091SOL    HW142152   2.024   0.643  16.171
10091SOL    HW242153   1.900   0.728  16.156
10092SOL     OW42154   1.816   4.542  18.087
10092SOL    HW142155   1.806   4.448  18.102
10092SOL    HW242156   1.726   4.575  18.083
10093SOL     OW42157   1.115   4.298   6.007
10093SOL    HW142158   1.079   4.219   5.967
10093SOL    HW242159   1.172   4.266   6.077
10094SOL     OW42160   4.587   0.033   1.555
10094SOL    HW142161   4.618   0.098   1.493
10094SOL    HW242162   4.642   0.045   1.632
10095SOL     OW42163   0.287   1.485   2.038
10095SOL    HW142164   0.335   1.487   1.955
10095SOL    HW242165   0.320   1.407   2.083
10096SOL     OW42166   4.337   0.789  13.381
10096SOL    HW142167   4.387   0.710  13.360
10096SOL    HW242168   4.351   0.847  13.306
10097SOL     OW42169   3.105   2.233   3.080
10097SOL    HW142170   3.031   2.204   3.134
10097SOL    HW242171   3.127   2.319   3.115
10098SOL     OW42172   3.011   1.180  14.682
10098SOL    HW142173   2.977   1.172  14.771
10098SOL    HW242174   3.090   1.234  14.691
10099SOL     OW42175   0.003   2.253  20.062
10099SOL    HW142176   4.738   2.329  20.083
10099SOL    HW242177   0.031   2.267  19.972
10100SOL     OW42178   3.889   2.097   5.809
10100SOL    HW142179   3.941   2.037   5.756
10100SOL    HW242180   3.820   2.043   5.847
10101SOL     OW42181   3.116   4.051   1.541
10101SOL    HW142182   3.098   4.036   1.634
10101SOL    HW242183   3.206   4.019   1.528
10102SOL     OW42184   2.941   1.157  18.098
10102SOL    HW142185   3.009   1.197  18.044
10102SOL    HW242186   2.891   1.231  18.132
10103SOL     OW42187   2.535   0.930  18.957
10103SOL    HW142188   2.443   0.956  18.951
10103SOL    HW242189   2.581   1.010  18.983
10104SOL     OW42190   4.317   3.161  19.923
10104SOL    HW142191   4.370   3.116  19.857
10104SOL    HW242192   4.368   3.239  19.944
10105SOL     OW42193   3.174   2.911   7.662
10105SOL    HW142194   3.235   2.977   7.695
10105SOL    HW242195   3.218   2.828   7.679
10106SOL     OW42196   4.763   3.335   2.458
10106SOL    HW142197   4.698   3.292   2.514
10106SOL    HW242198   0.057   3.320   2.502
10107SOL     OW42199   3.496   0.613  19.664
10107SOL    HW142200   3.488   0.663  19.745
10107SOL    HW242201   3.495   0.679  19.595
10108SOL     OW42202   2.466   2.115  19.803
10108SOL    HW142203   2.422   2.136  19.720
10108SOL    HW242204   2.403   2.062  19.851
10109SOL     OW42205   2.512   1.836  17.957
10109SOL    HW142206   2.473   1.772  18.016
10109SOL    HW242207   2.551   1.902  18.015
10110SOL     OW42208   4.180   1.531  12.268
10110SOL    HW142209   4.256   1.489  12.309
10110SOL    HW242210   4.110   1.520  12.332
10111SOL     OW42211   0.841   1.365  18.486
10111SOL    HW142212   0.869   1.349  18.396
10111SOL    HW242213   0.909   1.422  18.522
10112SOL     OW42214   1.928   3.727  19.378
10112SOL    HW142215   1.964   3.762  19.460
10112SOL    HW242216   1.901   3.804  19.329
10113SOL     OW42217   0.725   3.598   3.272
10113SOL    HW142218   0.816   3.587   3.301
10113SOL    HW242219   0.688   3.510   3.277
10114SOL     OW42220   1.150   0.406   5.854
10114SOL    HW142221   1.099   0.325   5.860
10114SOL    HW242222   1.196   0.400   5.770
10115SOL     OW42223   1.618   1.707   1.029
10115SOL    HW142224   1.648   1.721   0.939
10115SOL    HW242225   1.632   1.614   1.044
10116SOL     OW42226   1.766   3.605   0.129
10116SOL    HW142227   1.823   3.637   0.059
10116SOL    HW242228   1.747   3.514   0.105
10117SOL     OW42229   0.207   4.699  15.635
10117SOL    HW142230   0.156   4.745  15.702
10117SOL    HW242231   0.151   4.626  15.608
10118SOL     OW42232   2.309   1.377   4.758
10118SOL    HW142233   2.323   1.469   4.782
10118SOL    HW242234   2.260   1.340   4.831
10119SOL     OW42235   0.671   2.578   3.024
10119SOL    HW142236   0.764   2.600   3.018
10119SOL    HW242237   0.667   2.507   3.088
10120SOL     OW42238   4.268   4.251   2.695
10120SOL    HW142239   4.182   4.212   2.711
10120SOL    HW242240   4.330   4.179   2.708
10121SOL     OW42241   2.989   1.968  20.156
10121SOL    HW142242   2.999   1.879  20.121
10121SOL    HW242243   3.035   2.024  20.094
10122SOL     OW42244   2.080   1.426   6.124
10122SOL    HW142245   2.024   1.436   6.047
10122SOL    HW242246   2.129   1.508   6.130
10123SOL     OW42247   0.302   3.775  14.108
10123SOL    HW142248   0.241   3.841  14.140
10123SOL    HW242249   0.353   3.749  14.185
10124SOL     OW42250   4.249   2.253  17.065
10124SOL    HW142251   4.294   2.213  17.139
10124SOL    HW242252   4.252   2.187  16.996
10125SOL     OW42253   1.433   0.435   0.786
10125SOL    HW142254   1.504   0.403   0.730
10125SOL    HW242255   1.371   0.362   0.790
10126SOL     OW42256   4.055   1.625   5.499
10126SOL    HW142257   4.060   1.571   5.420
10126SOL    HW242258   4.140   1.669   5.503
10127SOL     OW42259   4.268   2.846   6.645
10127SOL    HW142260   4.359   2.848   6.615
10127SOL    HW242261   4.230   2.769   6.602
10128SOL     OW42262   0.261   0.053   0.468
10128SOL    HW142263   0.246   4.758   0.426
10128SOL    HW242264   0.321   0.034   0.540
10129SOL     OW42265   4.030   3.472   8.680
10129SOL    HW142266   4.067   3.529   8.748
10129SOL    HW242267   3.937   3.494   8.679
10130SOL     OW42268   0.395   0.451   2.272
10130SOL    HW142269   0.366   0.439   2.182
10130SOL    HW242270   0.480   0.495   2.264
10131SOL     OW42271   0.414   3.678   4.498
10131SOL    HW142272   0.454   3.693   4.584
10131SOL    HW242273   0.375   3.762   4.474
10132SOL     OW42274   0.307   2.435   3.826
10132SOL    HW142275   0.224   2.480   3.840
10132SOL    HW242276   0.373   2.503   3.835
10133SOL     OW42277   3.118   1.729   5.476
10133SOL    HW142278   3.112   1.771   5.562
10133SOL    HW242279   3.033   1.686   5.465
10134SOL     OW42280   3.286   3.087   1.943
10134SOL    HW142281   3.350   3.148   1.906
10134SOL    HW242282   3.300   3.091   2.038
10135SOL     OW42283   2.522   0.933   5.346
10135SOL    HW142284   2.475   0.862   5.390
10135SOL    HW242285   2.614   0.913   5.361
10136SOL     OW42286   0.447   3.296   2.534
10136SOL    HW142287   0.353   3.287   2.550
10136SOL    HW242288   0.488   3.260   2.612
10137SOL     OW42289   3.288   1.030  19.310
10137SOL    HW142290   3.233   1.095  19.267
10137SOL    HW242291   3.371   1.075  19.326
10138SOL     OW42292   3.878   0.085  17.447
10138SOL    HW142293   3.884   0.082  17.543
10138SOL    HW242294   3.955   0.135  17.420
10139SOL     OW42295   3.944   2.336   2.219
10139SOL    HW142296   3.876   2.390   2.179
10139SOL    HW242297   3.899   2.255   2.243
10140SOL     OW42298   1.864   1.768   6.839
10140SOL    HW142299   1.827   1.690   6.797
10140SOL    HW242300   1.839   1.760   6.931
10141SOL     OW42301   0.521   3.182   4.140
10141SOL    HW142302   0.504   3.273   4.115
10141SOL    HW242303   0.606   3.185   4.184
10142SOL     OW42304   2.100   3.925  20.186
10142SOL    HW142305   2.023   3.932  20.129
10142SOL    HW242306   2.098   3.835  20.218
10143SOL     OW42307   0.240   0.412   6.198
10143SOL    HW142308   0.198   0.496   6.215
10143SOL    HW242309   0.249   0.371   6.284
10144SOL     OW42310   3.896   1.888  13.130
10144SOL    HW142311   3.821   1.859  13.182
10144SOL    HW242312   3.890   1.983  13.130
10145SOL     OW42313   4.728   0.885  13.841
10145SOL    HW142314   4.691   0.895  13.929
10145SOL    HW242315   0.016   0.830  13.854
10146SOL     OW42316   3.341   3.139  16.375
10146SOL    HW142317   3.319   3.082  16.449
10146SOL    HW242318   3.266   3.131  16.316
10147SOL     OW42319   1.800   3.135   2.305
10147SOL    HW142320   1.722   3.189   2.318
10147SOL    HW242321   1.871   3.184   2.346
10148SOL     OW42322   3.103   3.744  16.137
10148SOL    HW142323   3.189   3.763  16.174
10148SOL    HW242324   3.111   3.767  16.044
10149SOL     OW42325   2.379   3.105   2.777
10149SOL    HW142326   2.351   3.090   2.867
10149SOL    HW242327   2.374   3.019   2.735
10150SOL     OW42328   1.896   3.665  13.527
10150SOL    HW142329   1.854   3.751  13.521
10150SOL    HW242330   1.913   3.653  13.620
10151SOL     OW42331   2.521   3.760   6.825
10151SOL    HW142332   2.550   3.823   6.891
10151SOL    HW242333   2.524   3.809   6.743
10152SOL     OW42334   0.510   2.173   0.880
10152SOL    HW142335   0.466   2.140   0.801
10152SOL    HW242336   0.450   2.151   0.951
10153SOL     OW42337   0.665   3.631   6.060
10153SOL    HW142338   0.732   3.695   6.036
10153SOL    HW242339   0.662   3.634   6.156
10154SOL     OW42340   1.310   3.847  21.153
10154SOL    HW142341   1.324   3.875  21.062
10154SOL    HW242342   1.250   3.912  21.189
10155SOL     OW42343   3.608   3.982   4.832
10155SOL    HW142344   3.607   4.063   4.781
10155SOL    HW242345   3.516   3.956   4.837
10156SOL     OW42346   2.842   1.265  19.357
10156SOL    HW142347   2.767   1.316  19.326
10156SOL    HW242348   2.877   1.317  19.429
10157SOL     OW42349   4.496   3.591  20.269
10157SOL    HW142350   4.561   3.627  20.208
10157SOL    HW242351   4.442   3.666  20.293
10158SOL     OW42352   4.547   2.950   3.137
10158SOL    HW142353   4.481   3.018   3.153
10158SOL    HW242354   4.514   2.873   3.183
10159SOL     OW42355   1.458   3.098  20.315
10159SOL    HW142356   1.440   3.065  20.227
10159SOL    HW242357   1.376   3.083  20.363
10160SOL     OW42358   3.672   2.801  15.427
10160SOL    HW142359   3.658   2.829  15.337
10160SOL    HW242360   3.759   2.761  15.427
10161SOL     OW42361   0.762   4.604   6.327
10161SOL    HW142362   0.850   4.577   6.302
10161SOL    HW242363   0.770   4.697   6.348
10162SOL     OW42364   4.411   2.254   1.149
10162SOL    HW142365   4.371   2.193   1.211
10162SOL    HW242366   4.410   2.338   1.194
10163SOL     OW42367   3.546   0.930   5.730
10163SOL    HW142368   3.546   0.975   5.815
10163SOL    HW242369   3.454   0.929   5.703
10164SOL     OW42370   0.771   2.697  15.046
10164SOL    HW142371   0.764   2.603  15.061
10164SOL    HW242372   0.742   2.737  15.128
10165SOL     OW42373   2.523   2.986  20.235
10165SOL    HW142374   2.437   2.990  20.193
10165SOL    HW242375   2.504   2.997  20.328
10166SOL     OW42376   1.385   0.521  17.544
10166SOL    HW142377   1.370   0.431  17.573
10166SOL    HW242378   1.381   0.516  17.449
10167SOL     OW42379   0.176   0.557   2.691
10167SOL    HW142380   0.226   0.619   2.638
10167SOL    HW242381   0.235   0.533   2.762
10168SOL     OW42382   2.751   1.685   2.728
10168SOL    HW142383   2.785   1.774   2.721
10168SOL    HW242384   2.656   1.696   2.734
10169SOL     OW42385   0.194   1.832  20.688
10169SOL    HW142386   0.253   1.886  20.635
10169SOL    HW242387   0.241   1.749  20.698
10170SOL     OW42388   2.479   1.314   7.543
10170SOL    HW142389   2.527   1.247   7.495
10170SOL    HW242390   2.456   1.272   7.626
10171SOL     OW42391   2.878   3.265  15.387
10171SOL    HW142392   2.947   3.328  15.368
10171SOL    HW242393   2.884   3.252  15.482
10172SOL     OW42394   3.081   2.605   7.986
10172SOL    HW142395   3.086   2.701   7.986
10172SOL    HW242396   3.014   2.585   8.052
10173SOL     OW42397   2.878   3.010   0.242
10173SOL    HW142398   2.790   2.986   0.212
10173SOL    HW242399   2.866   3.038   0.333
10174SOL     OW42400   1.202   3.216  14.294
10174SOL    HW142401   1.123   3.262  14.322
10174SOL    HW242402   1.188   3.199  14.201
10175SOL     OW42403   2.613   2.878   2.826
10175SOL    HW142404   2.565   2.952   2.790
10175SOL    HW242405   2.698   2.915   2.852
10176SOL     OW42406   2.087   4.172  20.294
10176SOL    HW142407   1.995   4.176  20.320
10176SOL    HW242408   2.106   4.078  20.291
10177SOL     OW42409   3.023   3.915  19.834
10177SOL    HW142410   3.076   3.995  19.834
10177SOL    HW242411   3.005   3.898  19.926
10178SOL     OW42412   1.179   0.151  15.426
10178SOL    HW142413   1.230   0.168  15.347
10178SOL    HW242414   1.231   0.087  15.475
10179SOL     OW42415   2.271   1.343   3.477
10179SOL    HW142416   2.321   1.406   3.529
10179SOL    HW242417   2.217   1.397   3.419
10180SOL     OW42418   0.062   2.333  19.613
10180SOL    HW142419   0.052   2.266  19.681
10180SOL    HW242420   0.012   2.299  19.539
10181SOL     OW42421   2.585   0.731   0.022
10181SOL    HW142422   2.540   0.814   0.036
10181SOL    HW242423   2.649   0.750  21.211
10182SOL     OW42424   0.179   2.925   5.925
10182SOL    HW142425   0.132   3.006   5.905
10182SOL    HW242426   0.254   2.925   5.866
10183SOL     OW42427   3.010   0.284   6.699
10183SOL    HW142428   3.031   0.225   6.627
10183SOL    HW242429   2.923   0.257   6.727
10184SOL     OW42430   2.284   2.179   6.519
10184SOL    HW142431   2.237   2.123   6.456
10184SOL    HW242432   2.227   2.182   6.596
10185SOL     OW42433   1.429   2.719   4.377
10185SOL    HW142434   1.400   2.810   4.383
10185SOL    HW242435   1.376   2.681   4.307
10186SOL     OW42436   3.923   2.592  14.732
10186SOL    HW142437   3.954   2.657  14.795
10186SOL    HW242438   3.839   2.626  14.702
10187SOL     OW42439   1.729   4.197  20.685
10187SOL    HW142440   1.652   4.243  20.650
10187SOL    HW242441   1.695   4.114  20.717
10188SOL     OW42442   3.655   4.583  15.675
10188SOL    HW142443   3.561   4.582  15.691
10188SOL    HW242444   3.676   4.492  15.654
10189SOL     OW42445   3.571   1.208  19.990
10189SOL    HW142446   3.497   1.263  19.965
10189SOL    HW242447   3.540   1.158  20.065
10190SOL     OW42448   0.017   3.364  18.196
10190SOL    HW142449   0.088   3.328  18.142
10190SOL    HW242450   0.054   3.444  18.233
10191SOL     OW42451   2.541   4.209   0.596
10191SOL    HW142452   2.632   4.188   0.577
10191SOL    HW242453   2.545   4.265   0.673
10192SOL     OW42454   2.036   1.521  15.006
10192SOL    HW142455   1.967   1.486  15.062
10192SOL    HW242456   2.022   1.478  14.922
10193SOL     OW42457   0.181   3.766  19.503
10193SOL    HW142458   0.137   3.728  19.579
10193SOL    HW242459   0.137   3.727  19.428
10194SOL     OW42460   2.975   0.049   4.115
10194SOL    HW142461   3.051   0.024   4.168
10194SOL    HW242462   2.961   0.142   4.135
10195SOL     OW42463   2.205   3.294  19.838
10195SOL    HW142464   2.290   3.310  19.879
10195SOL    HW242465   2.202   3.354  19.763
10196SOL     OW42466   0.726   0.096   5.647
10196SOL    HW142467   0.783   0.071   5.719
10196SOL    HW242468   0.661   0.026   5.643
10197SOL     OW42469   3.870   2.462  13.407
10197SOL    HW142470   3.832   2.541  13.369
10197SOL    HW242471   3.946   2.443  13.351
10198SOL     OW42472   2.520   1.559  18.159
10198SOL    HW142473   2.583   1.586  18.226
10198SOL    HW242474   2.480   1.480  18.195
10199SOL     OW42475   2.953   0.056   5.565
10199SOL    HW142476   2.965   4.752   5.578
10199SOL    HW242477   2.936   0.066   5.471
10200SOL     OW42478   0.665   1.979  20.744
10200SOL    HW142479   0.629   2.021  20.666
10200SOL    HW242480   0.598   1.991  20.812
10201SOL     OW42481   2.725   1.780  15.796
10201SOL    HW142482   2.750   1.773  15.704
10201SOL    HW242483   2.652   1.719  15.806
10202SOL     OW42484   2.916   4.135   2.021
10202SOL    HW142485   2.826   4.167   2.020
10202SOL    HW242486   2.923   4.087   2.103
10203SOL     OW42487   3.870   2.967  21.113
10203SOL    HW142488   3.778   2.961  21.140
10203SOL    HW242489   3.911   2.889  21.150
10204SOL     OW42490   0.222   1.633  11.788
10204SOL    HW142491   0.290   1.699  11.772
10204SOL    HW242492   0.270   1.556  11.817
10205SOL     OW42493   2.092   2.532  15.990
10205SOL    HW142494   2.081   2.462  15.926
10205SOL    HW242495   2.003   2.563  16.006
10206SOL     OW42496   3.054   1.312  20.666
10206SOL    HW142497   3.105   1.376  20.716
10206SOL    HW242498   2.998   1.269  20.731
10207SOL     OW42499   1.151   3.444   1.394
10207SOL    HW142500   1.062   3.422   1.423
10207SOL    HW242501   1.162   3.535   1.421
10208SOL     OW42502   2.431   4.181   5.664
10208SOL    HW142503   2.402   4.090   5.663
10208SOL    HW242504   2.507   4.183   5.607
10209SOL     OW42505   2.554   2.672  17.730
10209SOL    HW142506   2.505   2.754  17.725
10209SOL    HW242507   2.577   2.663  17.823
10210SOL     OW42508   0.035   2.351   3.636
10210SOL    HW142509   0.121   2.393   3.627
10210SOL    HW242510   0.053   2.257   3.631
10211SOL     OW42511   3.448   1.508  19.743
10211SOL    HW142512   3.419   1.460  19.820
10211SOL    HW242513   3.452   1.442  19.674
10212SOL     OW42514   4.473   1.951  19.120
10212SOL    HW142515   4.522   2.010  19.063
10212SOL    HW242516   4.445   1.880  19.063
10213SOL     OW42517   1.826   2.866  19.541
10213SOL    HW142518   1.919   2.888  19.544
10213SOL    HW242519   1.823   2.784  19.492
10214SOL     OW42520   3.837   4.124   1.991
10214SOL    HW142521   3.745   4.099   1.987
10214SOL    HW242522   3.864   4.101   2.080
10215SOL     OW42523   3.583   2.037  20.354
10215SOL    HW142524   3.604   2.030  20.261
10215SOL    HW242525   3.591   1.948  20.387
10216SOL     OW42526   0.762   1.664   6.791
10216SOL    HW142527   0.687   1.724   6.786
10216SOL    HW242528   0.731   1.583   6.750
10217SOL     OW42529   4.465   0.059   4.391
10217SOL    HW142530   4.497   0.143   4.423
10217SOL    HW242531   4.388   0.081   4.339
10218SOL     OW42532   1.367   1.844  14.184
10218SOL    HW142533   1.280   1.817  14.155
10218SOL    HW242534   1.377   1.802  14.270
10219SOL     OW42535   0.410   2.582  16.862
10219SOL    HW142536   0.492   2.630  16.870
10219SOL    HW242537   0.344   2.641  16.899
10220SOL     OW42538   1.329   4.523   1.899
10220SOL    HW142539   1.400   4.487   1.846
10220SOL    HW242540   1.290   4.591   1.844
10221SOL     OW42541   0.765   0.964   0.985
10221SOL    HW142542   0.742   0.980   0.894
10221SOL    HW242543   0.771   0.869   0.992
10222SOL     OW42544   4.133   0.683   2.254
10222SOL    HW142545   4.128   0.723   2.341
10222SOL    HW242546   4.205   0.620   2.261
10223SOL     OW42547   3.535   2.262   0.333
10223SOL    HW142548   3.597   2.332   0.354
10223SOL    HW242549   3.488   2.245   0.415
10224SOL     OW42550   4.453   2.370   1.521
10224SOL    HW142551   4.496   2.286   1.502
10224SOL    HW242552   4.435   2.408   1.435
10225SOL     OW42553   0.850   4.602  21.063
10225SOL    HW142554   0.834   4.523  21.114
10225SOL    HW242555   0.891   4.571  20.982
10226SOL     OW42556   4.718   2.349   1.594
10226SOL    HW142557   4.652   2.298   1.641
10226SOL    HW242558   4.783   2.370   1.661
10227SOL     OW42559   0.365   3.088  17.137
10227SOL    HW142560   0.318   3.130  17.209
10227SOL    HW242561   0.354   3.148  17.063
10228SOL     OW42562   3.833   0.413  11.356
10228SOL    HW142563   3.877   0.463  11.288
10228SOL    HW242564   3.791   0.479  11.411
10229SOL     OW42565   0.262   0.037  20.407
10229SOL    HW142566   0.281   0.017  20.499
10229SOL    HW242567   0.166   0.041  20.402
10230SOL     OW42568   2.609   0.364  20.671
10230SOL    HW142569   2.558   0.318  20.604
10230SOL    HW242570   2.573   0.453  20.672
10231SOL     OW42571   3.494   4.052  20.100
10231SOL    HW142572   3.566   3.999  20.134
10231SOL    HW242573   3.469   4.009  20.018
10232SOL     OW42574   4.095   2.381   0.268
10232SOL    HW142575   4.150   2.458   0.259
10232SOL    HW242576   4.091   2.343   0.180
10233SOL     OW42577   2.080   1.630  17.773
10233SOL    HW142578   2.010   1.577  17.735
10233SOL    HW242579   2.105   1.691  17.704
10234SOL     OW42580   2.468   0.663  15.719
10234SOL    HW142581   2.380   0.629  15.736
10234SOL    HW242582   2.457   0.720  15.643
10235SOL     OW42583   0.529   0.058   3.428
10235SOL    HW142584   0.523   4.788   3.503
10235SOL    HW242585   0.622   0.059   3.406
10236SOL     OW42586   3.428   3.855  12.176
10236SOL    HW142587   3.475   3.872  12.094
10236SOL    HW242588   3.488   3.883  12.245
10237SOL     OW42589   2.277   3.605  17.378
10237SOL    HW142590   2.216   3.537  17.407
10237SOL    HW242591   2.302   3.650  17.459
10238SOL     OW42592   3.513   2.570   6.133
10238SOL    HW142593   3.583   2.631   6.155
10238SOL    HW242594   3.499   2.582   6.039
10239SOL     OW42595   3.693   0.819   0.170
10239SOL    HW142596   3.663   0.815   0.079
10239SOL    HW242597   3.788   0.820   0.163
10240SOL     OW42598   1.969   2.115  12.608
10240SOL    HW142599   1.967   2.030  12.564
10240SOL    HW242600   1.877   2.133  12.629
10241SOL     OW42601   0.905   3.763   5.902
10241SOL    HW142602   0.981   3.736   5.954
10241SOL    HW242603   0.941   3.783   5.816
10242SOL     OW42604   2.027   0.297   1.483
10242SOL    HW142605   2.082   0.357   1.534
10242SOL    HW242606   2.088   0.252   1.425
10243SOL     OW42607   2.935   2.340   4.524
10243SOL    HW142608   2.996   2.277   4.485
10243SOL    HW242609   2.990   2.395   4.580
10244SOL     OW42610   3.916   1.475   1.331
10244SOL    HW142611   3.882   1.385   1.335
10244SOL    HW242612   3.848   1.524   1.286
10245SOL     OW42613   4.211   1.602   8.392
10245SOL    HW142614   4.281   1.537   8.383
10245SOL    HW242615   4.253   1.685   8.370
10246SOL     OW42616   0.957   1.880  20.958
10246SOL    HW142617   0.913   1.829  20.890
10246SOL    HW242618   0.892   1.888  21.028
10247SOL     OW42619   4.193   0.048  17.284
10247SOL    HW142620   4.174   0.127  17.233
10247SOL    HW242621   4.184   0.076  17.375
10248SOL     OW42622   0.676   2.824  15.294
10248SOL    HW142623   0.610   2.828  15.363
10248SOL    HW242624   0.747   2.879  15.326
10249SOL     OW42625   2.220   2.655  18.645
10249SOL    HW142626   2.169   2.575  18.658
10249SOL    HW242627   2.283   2.632  18.576
10250SOL     OW42628   1.957   2.789  16.776
10250SOL    HW142629   2.004   2.867  16.804
10250SOL    HW242630   1.877   2.822  16.735
10251SOL     OW42631   2.910   4.724  20.449
10251SOL    HW142632   2.881   4.648  20.500
10251SOL    HW242633   3.006   4.719  20.451
10252SOL     OW42634   2.738   1.600   2.480
10252SOL    HW142635   2.743   1.611   2.575
10252SOL    HW242636   2.745   1.689   2.445
10253SOL     OW42637   1.656   1.263  17.775
10253SOL    HW142638   1.590   1.242  17.841
10253SOL    HW242639   1.623   1.342  17.733
10254SOL     OW42640   2.600   4.734   0.493
10254SOL    HW142641   2.612   0.033   0.528
10254SOL    HW242642   2.685   4.691   0.505
10255SOL     OW42643   4.238   2.082   5.812
10255SOL    HW142644   4.207   2.041   5.731
10255SOL    HW242645   4.318   2.127   5.787
10256SOL     OW42646   0.249   4.067   6.719
10256SOL    HW142647   0.300   4.006   6.772
10256SOL    HW242648   0.158   4.043   6.735
10257SOL     OW42649   4.038   2.077   4.218
10257SOL    HW142650   4.128   2.069   4.186
10257SOL    HW242651   3.984   2.053   4.143
10258SOL     OW42652   3.103   1.096  19.571
10258SOL    HW142653   3.103   1.052  19.486
10258SOL    HW242654   3.021   1.145  19.573
10259SOL     OW42655   0.743   2.058   3.005
10259SOL    HW142656   0.748   2.150   3.030
10259SOL    HW242657   0.834   2.031   2.997
10260SOL     OW42658   0.784   2.689  15.570
10260SOL    HW142659   0.811   2.756  15.507
10260SOL    HW242660   0.764   2.612  15.516
10261SOL     OW42661   1.787   1.787   4.570
10261SOL    HW142662   1.810   1.705   4.526
10261SOL    HW242663   1.724   1.829   4.511
10262SOL     OW42664   4.551   0.207  19.428
10262SOL    HW142665   4.456   0.195  19.429
10262SOL    HW242666   4.586   0.124  19.461
10263SOL     OW42667   3.366   0.050   2.424
10263SOL    HW142668   3.352   0.144   2.414
10263SOL    HW242669   3.452   0.034   2.385
10264SOL     OW42670   4.461   0.163   1.186
10264SOL    HW142671   4.518   0.161   1.109
10264SOL    HW242672   4.442   0.256   1.199
10265SOL     OW42673   1.108   2.547   1.231
10265SOL    HW142674   1.089   2.632   1.192
10265SOL    HW242675   1.022   2.508   1.246
10266SOL     OW42676   0.050   4.258  16.586
10266SOL    HW142677   4.760   4.296  16.623
10266SOL    HW242678   0.045   4.279  16.493
10267SOL     OW42679   3.741   4.559  13.735
10267SOL    HW142680   3.674   4.507  13.690
10267SOL    HW242681   3.824   4.519  13.708
10268SOL     OW42682   3.187   1.558  19.364
10268SOL    HW142683   3.156   1.481  19.316
10268SOL    HW242684   3.189   1.530  19.456
10269SOL     OW42685   1.997   4.422   1.836
10269SOL    HW142686   2.035   4.502   1.872
10269SOL    HW242687   2.062   4.354   1.855
10270SOL     OW42688   3.729   2.128  16.022
10270SOL    HW142689   3.685   2.050  16.055
10270SOL    HW242690   3.661   2.175  15.974
10271SOL     OW42691   1.088   1.226  15.486
10271SOL    HW142692   0.996   1.205  15.470
10271SOL    HW242693   1.100   1.312  15.447
10272SOL     OW42694   3.990   0.773   1.019
10272SOL    HW142695   3.913   0.748   0.967
10272SOL    HW242696   3.998   0.703   1.084
10273SOL     OW42697   1.439   4.174   0.796
10273SOL    HW142698   1.433   4.198   0.704
10273SOL    HW242699   1.348   4.169   0.826
10274SOL     OW42700   3.384   3.184  21.133
10274SOL    HW142701   3.346   3.099  21.110
10274SOL    HW242702   3.405   3.176  21.226
10275SOL     OW42703   3.957   1.063   5.926
10275SOL    HW142704   4.033   1.034   5.875
10275SOL    HW242705   3.932   0.986   5.977
10276SOL     OW42706   2.281   2.588  16.232
10276SOL    HW142707   2.197   2.555  16.200
10276SOL    HW242708   2.307   2.525  16.299
10277SOL     OW42709   0.701   2.643   2.401
10277SOL    HW142710   0.764   2.577   2.431
10277SOL    HW242711   0.755   2.714   2.366
10278SOL     OW42712   1.258   3.471  13.054
10278SOL    HW142713   1.296   3.437  12.973
10278SOL    HW242714   1.196   3.403  13.082
10279SOL     OW42715   4.057   1.343  19.986
10279SOL    HW142716   4.020   1.395  20.057
10279SOL    HW242717   4.018   1.379  19.906
10280SOL     OW42718   3.825   0.087  17.134
10280SOL    HW142719   3.843   0.171  17.093
10280SOL    HW242720   3.796   0.109  17.222
10281SOL     OW42721   2.817   0.902   3.903
10281SOL    HW142722   2.749   0.931   3.965
10281SOL    HW242723   2.852   0.983   3.867
10282SOL     OW42724   4.370   2.893  21.047
10282SOL    HW142725   4.287   2.875  21.004
10282SOL    HW242726   4.358   2.979  21.088
10283SOL     OW42727   0.543   3.931   0.204
10283SOL    HW142728   0.564   3.915   0.296
10283SOL    HW242729   0.607   3.878   0.155
10284SOL     OW42730   0.307   0.715  15.376
10284SOL    HW142731   0.234   0.661  15.347
10284SOL    HW242732   0.266   0.791  15.417
10285SOL     OW42733   2.177   1.102  13.007
10285SOL    HW142734   2.144   1.135  12.923
10285SOL    HW242735   2.240   1.168  13.036
10286SOL     OW42736   0.305   1.926   0.197
10286SOL    HW142737   0.254   1.845   0.192
10286SOL    HW242738   0.335   1.929   0.288
10287SOL     OW42739   0.209   1.042  12.117
10287SOL    HW142740   0.229   1.124  12.072
10287SOL    HW242741   0.225   0.974  12.052
10288SOL     OW42742   0.971   2.373  20.369
10288SOL    HW142743   1.027   2.300  20.397
10288SOL    HW242744   0.977   2.372  20.273
10289SOL     OW42745   3.354   4.035   2.799
10289SOL    HW142746   3.333   4.127   2.814
10289SOL    HW242747   3.405   4.009   2.876
10290SOL     OW42748   4.388   2.212   2.740
10290SOL    HW142749   4.320   2.147   2.760
10290SOL    HW242750   4.339   2.292   2.721
10291SOL     OW42751   0.763   0.997   3.730
10291SOL    HW142752   0.784   1.090   3.720
10291SOL    HW242753   0.759   0.963   3.640
10292SOL     OW42754   0.219   1.400  19.964
10292SOL    HW142755   0.239   1.463  20.033
10292SOL    HW242756   0.143   1.437  19.919
10293SOL     OW42757   2.164   3.971  20.638
10293SOL    HW142758   2.095   3.992  20.576
10293SOL    HW242759   2.204   4.056  20.659
10294SOL     OW42760   4.328   0.890  15.829
10294SOL    HW142761   4.311   0.796  15.830
10294SOL    HW242762   4.241   0.930  15.825
10295SOL     OW42763   3.473   3.544   0.955
10295SOL    HW142764   3.538   3.497   0.903
10295SOL    HW242765   3.394   3.543   0.901
10296SOL     OW42766   4.194   2.272  20.001
10296SOL    HW142767   4.180   2.183  19.970
10296SOL    HW242768   4.166   2.271  20.092
10297SOL     OW42769   0.349   3.957  19.818
10297SOL    HW142770   0.395   4.040  19.807
10297SOL    HW242771   0.405   3.892  19.775
10298SOL     OW42772   1.458   4.216  17.990
10298SOL    HW142773   1.459   4.305  17.955
10298SOL    HW242774   1.465   4.159  17.913
10299SOL     OW42775   3.718   2.696  15.887
10299SOL    HW142776   3.659   2.685  15.812
10299SOL    HW242777   3.659   2.712  15.961
10300SOL     OW42778   3.941   2.125   3.315
10300SOL    HW142779   4.035   2.130   3.334
10300SOL    HW242780   3.919   2.032   3.324
10301SOL     OW42781   3.476   1.358   3.989
10301SOL    HW142782   3.406   1.294   3.998
10301SOL    HW242783   3.522   1.355   4.073
10302SOL     OW42784   2.314   0.537  17.991
10302SOL    HW142785   2.293   0.559  17.900
10302SOL    HW242786   2.273   0.452  18.005
10303SOL     OW42787   4.173   4.599   3.182
10303SOL    HW142788   4.130   4.685   3.185
10303SOL    HW242789   4.226   4.595   3.261
10304SOL     OW42790   0.050   3.152   3.609
10304SOL    HW142791   4.783   3.227   3.591
10304SOL    HW242792   0.048   3.142   3.704
10305SOL     OW42793   1.757   2.898  11.940
10305SOL    HW142794   1.749   2.809  11.976
10305SOL    HW242795   1.824   2.891  11.872
10306SOL     OW42796   1.215   2.765  20.616
10306SOL    HW142797   1.216   2.686  20.562
10306SOL    HW242798   1.211   2.733  20.706
10307SOL     OW42799   0.577   3.180   3.836
10307SOL    HW142800   0.561   3.112   3.770
10307SOL    HW242801   0.582   3.133   3.919
10308SOL     OW42802   2.106   1.355   4.955
10308SOL    HW142803   2.097   1.356   5.050
10308SOL    HW242804   2.041   1.419   4.925
10309SOL     OW42805   1.391   0.202  15.810
10309SOL    HW142806   1.432   0.230  15.728
10309SOL    HW242807   1.334   0.275  15.834
10310SOL     OW42808   1.899   4.650  17.486
10310SOL    HW142809   1.914   4.557  17.501
10310SOL    HW242810   1.869   4.655  17.395
10311SOL     OW42811   2.560   0.803   9.623
10311SOL    HW142812   2.555   0.709   9.604
10311SOL    HW242813   2.638   0.833   9.577
10312SOL     OW42814   3.068   1.533  16.656
10312SOL    HW142815   3.157   1.559  16.633
10312SOL    HW242816   3.079   1.473  16.730
10313SOL     OW42817   3.690   4.122  17.181
10313SOL    HW142818   3.634   4.111  17.104
10313SOL    HW242819   3.778   4.102  17.150
10314SOL     OW42820   1.405   4.716  16.368
10314SOL    HW142821   1.456   4.653  16.316
10314SOL    HW242822   1.444   4.713  16.455
10315SOL     OW42823   4.237   2.623   1.618
10315SOL    HW142824   4.256   2.683   1.546
10315SOL    HW242825   4.164   2.569   1.586
10316SOL     OW42826   3.700   4.371  17.564
10316SOL    HW142827   3.641   4.405  17.632
10316SOL    HW242828   3.689   4.431  17.490
10317SOL     OW42829   3.055   1.608  20.808
10317SOL    HW142830   3.119   1.617  20.878
10317SOL    HW242831   3.048   1.696  20.771
10318SOL     OW42832   3.418   0.620   0.132
10318SOL    HW142833   3.349   0.579   0.080
10318SOL    HW242834   3.411   0.713   0.111
10319SOL     OW42835   1.199   2.682   6.010
10319SOL    HW142836   1.258   2.614   6.042
10319SOL    HW242837   1.119   2.671   6.062
10320SOL     OW42838   1.564   1.798   2.221
10320SOL    HW142839   1.552   1.853   2.143
10320SOL    HW242840   1.560   1.859   2.294
10321SOL     OW42841   0.704   2.330   0.986
10321SOL    HW142842   0.768   2.331   0.915
10321SOL    HW242843   0.630   2.282   0.950
10322SOL     OW42844   1.620   0.903  19.046
10322SOL    HW142845   1.608   0.836  19.113
10322SOL    HW242846   1.532   0.935  19.028
10323SOL     OW42847   1.841   2.429  16.259
10323SOL    HW142848   1.809   2.509  16.300
10323SOL    HW242849   1.779   2.362  16.286
10324SOL     OW42850   2.356   3.865   2.665
10324SOL    HW142851   2.384   3.774   2.678
10324SOL    HW242852   2.280   3.859   2.608
10325SOL     OW42853   2.515   1.624   5.074
10325SOL    HW142854   2.473   1.606   5.158
10325SOL    HW242855   2.584   1.558   5.067
10326SOL     OW42856   0.475   3.896   8.169
10326SOL    HW142857   0.497   3.897   8.076
10326SOL    HW242858   0.558   3.913   8.213
10327SOL     OW42859   3.921   0.164   1.494
10327SOL    HW142860   3.978   0.088   1.506
10327SOL    HW242861   3.839   0.139   1.537
10328SOL     OW42862   1.105   2.895   4.224
10328SOL    HW142863   1.148   2.844   4.293
10328SOL    HW242864   1.011   2.880   4.239
10329SOL     OW42865   4.111   1.327  18.414
10329SOL    HW142866   4.054   1.294  18.484
10329SOL    HW242867   4.130   1.417  18.439
10330SOL     OW42868   0.851   4.375  15.126
10330SOL    HW142869   0.839   4.457  15.078
10330SOL    HW242870   0.762   4.348  15.149
10331SOL     OW42871   0.211   3.795  13.649
10331SOL    HW142872   0.209   3.857  13.576
10331SOL    HW242873   0.122   3.794  13.683
10332SOL     OW42874   0.928   0.214   5.880
10332SOL    HW142875   0.854   0.161   5.909
10332SOL    HW242876   0.970   0.160   5.813
10333SOL     OW42877   2.708   4.436   6.636
10333SOL    HW142878   2.680   4.521   6.603
10333SOL    HW242879   2.728   4.452   6.728
10334SOL     OW42880   4.258   3.088   8.420
10334SOL    HW142881   4.192   3.150   8.450
10334SOL    HW242882   4.208   3.014   8.385
10335SOL     OW42883   4.413   3.573  14.739
10335SOL    HW142884   4.343   3.522  14.697
10335SOL    HW242885   4.394   3.664  14.715
10336SOL     OW42886   4.316   1.131  15.526
10336SOL    HW142887   4.403   1.171  15.531
10336SOL    HW242888   4.333   1.039  15.507
10337SOL     OW42889   0.982   2.749   3.866
10337SOL    HW142890   1.034   2.826   3.887
10337SOL    HW242891   0.990   2.740   3.771
10338SOL     OW42892   1.797   3.382   3.578
10338SOL    HW142893   1.824   3.302   3.533
10338SOL    HW242894   1.842   3.379   3.662
10339SOL     OW42895   1.131   4.232   6.406
10339SOL    HW142896   1.037   4.248   6.418
10339SOL    HW242897   1.173   4.310   6.442
10340SOL     OW42898   1.148   4.465   4.048
10340SOL    HW142899   1.171   4.528   4.116
10340SOL    HW242900   1.183   4.503   3.967
10341SOL     OW42901   1.109   3.293   5.733
10341SOL    HW142902   1.124   3.254   5.647
10341SOL    HW242903   1.064   3.225   5.783
10342SOL     OW42904   2.112   1.561   0.967
10342SOL    HW142905   2.140   1.616   1.040
10342SOL    HW242906   2.154   1.600   0.890
10343SOL     OW42907   0.227   3.742   6.733
10343SOL    HW142908   0.312   3.703   6.713
10343SOL    HW242909   0.232   3.763   6.826
10344SOL     OW42910   1.711   1.455   1.037
10344SOL    HW142911   1.699   1.416   1.124
10344SOL    HW242912   1.801   1.432   1.013
10345SOL     OW42913   2.128   2.745  18.253
10345SOL    HW142914   2.114   2.685  18.180
10345SOL    HW242915   2.068   2.715  18.321
10346SOL     OW42916   1.873   0.005   1.263
10346SOL    HW142917   1.935   4.782   1.335
10346SOL    HW242918   1.909   4.742   1.191
10347SOL     OW42919   3.308   1.246   2.797
10347SOL    HW142920   3.261   1.293   2.729
10347SOL    HW242921   3.276   1.156   2.790
10348SOL     OW42922   4.105   2.133   2.083
10348SOL    HW142923   4.140   2.212   2.041
10348SOL    HW242924   4.024   2.162   2.125
10349SOL     OW42925   2.401   2.104  18.503
10349SOL    HW142926   2.311   2.115  18.534
10349SOL    HW242927   2.437   2.193  18.500
10350SOL     OW42928   1.280   2.113  17.222
10350SOL    HW142929   1.364   2.105  17.268
10350SOL    HW242930   1.236   2.030  17.238
10351SOL     OW42931   0.337   0.664  17.892
10351SOL    HW142932   0.318   0.576  17.859
10351SOL    HW242933   0.252   0.699  17.918
10352SOL     OW42934   4.663   1.077  16.821
10352SOL    HW142935   4.729   1.092  16.889
10352SOL    HW242936   4.654   1.162  16.778
10353SOL     OW42937   3.227   1.688   3.591
10353SOL    HW142938   3.213   1.782   3.604
10353SOL    HW242939   3.321   1.676   3.603
10354SOL     OW42940   0.305   1.413   4.906
10354SOL    HW142941   0.382   1.432   4.853
10354SOL    HW242942   0.340   1.397   4.994
10355SOL     OW42943   1.650   2.024   1.666
10355SOL    HW142944   1.673   2.055   1.578
10355SOL    HW242945   1.721   2.055   1.722
10356SOL     OW42946   0.719   0.919  16.659
10356SOL    HW142947   0.638   0.893  16.616
10356SOL    HW242948   0.708   0.891  16.750
10357SOL     OW42949   4.475   4.682  15.728
10357SOL    HW142950   4.380   4.678  15.739
10357SOL    HW242951   4.510   4.663  15.815
10358SOL     OW42952   2.571   3.748   6.515
10358SOL    HW142953   2.643   3.790   6.469
10358SOL    HW242954   2.600   3.658   6.528
10359SOL     OW42955   0.823   1.764  20.752
10359SOL    HW142956   0.782   1.850  20.741
10359SOL    HW242957   0.758   1.712  20.799
10360SOL     OW42958   1.646   2.458  19.542
10360SOL    HW142959   1.593   2.532  19.512
10360SOL    HW242960   1.583   2.396  19.577
10361SOL     OW42961   1.662   0.232   6.107
10361SOL    HW142962   1.598   0.236   6.036
10361SOL    HW242963   1.741   0.273   6.071
10362SOL     OW42964   3.796   4.449   6.239
10362SOL    HW142965   3.811   4.446   6.145
10362SOL    HW242966   3.748   4.368   6.258
10363SOL     OW42967   2.879   3.805  19.257
10363SOL    HW142968   2.834   3.752  19.323
10363SOL    HW242969   2.964   3.826  19.296
10364SOL     OW42970   3.810   3.112  20.254
10364SOL    HW142971   3.715   3.127  20.256
10364SOL    HW242972   3.841   3.166  20.182
10365SOL     OW42973   0.631   3.480  20.674
10365SOL    HW142974   0.544   3.469  20.712
10365SOL    HW242975   0.615   3.527  20.592
10366SOL     OW42976   3.463   2.921  14.893
10366SOL    HW142977   3.521   2.845  14.894
10366SOL    HW242978   3.375   2.884  14.895
10367SOL     OW42979   3.191   1.128   6.410
10367SOL    HW142980   3.196   1.136   6.505
10367SOL    HW242981   3.175   1.217   6.379
10368SOL     OW42982   0.963   1.522  18.257
10368SOL    HW142983   0.902   1.595  18.245
10368SOL    HW242984   1.037   1.560  18.304
10369SOL     OW42985   2.807   1.092  19.699
10369SOL    HW142986   2.783   1.014  19.649
10369SOL    HW242987   2.724   1.137  19.714
10370SOL     OW42988   4.580   2.144  18.147
10370SOL    HW142989   4.498   2.096  18.134
10370SOL    HW242990   4.568   2.189  18.231
10371SOL     OW42991   3.328   3.881  16.672
10371SOL    HW142992   3.295   3.914  16.588
10371SOL    HW242993   3.411   3.839  16.650
10372SOL     OW42994   4.720   3.558   2.958
10372SOL    HW142995   4.685   3.470   2.943
10372SOL    HW242996   4.743   3.559   3.051
10373SOL     OW42997   3.855   3.132   1.966
10373SOL    HW142998   3.942   3.114   1.930
10373SOL    HW242999   3.794   3.094   1.903
10374SOL     OW43000   2.235   3.371  15.422
10374SOL    HW143001   2.283   3.326  15.491
10374SOL    HW243002   2.250   3.317  15.344
10375SOL     OW43003   0.967   2.170  21.173
10375SOL    HW143004   0.886   2.131  21.140
10375SOL    HW243005   1.032   2.151  21.105
10376SOL     OW43006   4.658   4.516  20.681
10376SOL    HW143007   4.662   4.505  20.586
10376SOL    HW243008   4.673   4.428  20.716
10377SOL     OW43009   3.365   2.702   8.144
10377SOL    HW143010   3.368   2.758   8.067
10377SOL    HW243011   3.293   2.641   8.127
10378SOL     OW43012   0.840   3.114   4.952
10378SOL    HW143013   0.883   3.125   5.037
10378SOL    HW243014   0.906   3.071   4.897
10379SOL     OW43015   3.533   1.491  17.987
10379SOL    HW143016   3.593   1.488  18.062
10379SOL    HW243017   3.563   1.421  17.930
10380SOL     OW43018   4.436   2.706   3.276
10380SOL    HW143019   4.504   2.732   3.338
10380SOL    HW243020   4.357   2.698   3.329
10381SOL     OW43021   0.897   1.629  19.010
10381SOL    HW143022   0.922   1.712  19.050
10381SOL    HW243023   0.824   1.651  18.953
10382SOL     OW43024   2.092   3.503  17.547
10382SOL    HW143025   2.009   3.459  17.567
10382SOL    HW243026   2.155   3.466  17.609
10383SOL     OW43027   1.738   0.713  18.362
10383SOL    HW143028   1.823   0.758  18.366
10383SOL    HW243029   1.706   0.730  18.273
10384SOL     OW43030   3.069   2.158  19.976
10384SOL    HW143031   3.082   2.139  19.883
10384SOL    HW243032   3.060   2.253  19.980
10385SOL     OW43033   3.892   2.168  16.700
10385SOL    HW143034   3.918   2.247  16.653
10385SOL    HW243035   3.815   2.194  16.750
10386SOL     OW43036   4.336   3.680   0.948
10386SOL    HW143037   4.357   3.751   1.009
10386SOL    HW243038   4.401   3.613   0.967
10387SOL     OW43039   1.266   4.121  14.167
10387SOL    HW143040   1.213   4.152  14.240
10387SOL    HW243041   1.353   4.157  14.184
10388SOL     OW43042   4.150   1.151  18.885
10388SOL    HW143043   4.203   1.073  18.869
10388SOL    HW243044   4.212   1.224  18.876
10389SOL     OW43045   2.273   1.633   5.689
10389SOL    HW143046   2.292   1.690   5.614
10389SOL    HW243047   2.315   1.677   5.763
10390SOL     OW43048   2.605   1.335  14.333
10390SOL    HW143049   2.657   1.415  14.320
10390SOL    HW243050   2.635   1.276  14.264
10391SOL     OW43051   0.549   4.273   1.125
10391SOL    HW143052   0.489   4.314   1.187
10391SOL    HW243053   0.599   4.211   1.178
10392SOL     OW43054   1.897   4.361  15.746
10392SOL    HW143055   1.837   4.305  15.696
10392SOL    HW243056   1.948   4.407  15.680
10393SOL     OW43057   1.113   2.572  14.784
10393SOL    HW143058   1.194   2.621  14.768
10393SOL    HW243059   1.047   2.639  14.798
10394SOL     OW43060   2.445   2.623  16.017
10394SOL    HW143061   2.438   2.539  15.972
10394SOL    HW243062   2.405   2.608  16.103
10395SOL     OW43063   0.626   1.660   6.055
10395SOL    HW143064   0.590   1.573   6.074
10395SOL    HW243065   0.639   1.661   5.960
10396SOL     OW43066   3.204   3.272   1.696
10396SOL    HW143067   3.177   3.192   1.651
10396SOL    HW243068   3.152   3.273   1.776
10397SOL     OW43069   2.448   0.636  20.183
10397SOL    HW143070   2.486   0.552  20.156
10397SOL    HW243071   2.355   0.617  20.193
10398SOL     OW43072   0.810   2.925   0.179
10398SOL    HW143073   0.904   2.930   0.194
10398SOL    HW243074   0.772   2.924   0.267
10399SOL     OW43075   4.321   1.084   0.223
10399SOL    HW143076   4.382   1.113   0.155
10399SOL    HW243077   4.241   1.061   0.176
10400SOL     OW43078   4.170   3.650  18.887
10400SOL    HW143079   4.200   3.559  18.880
10400SOL    HW243080   4.075   3.644  18.896
10401SOL     OW43081   3.860   0.362  17.251
10401SOL    HW143082   3.803   0.336  17.324
10401SOL    HW243083   3.851   0.457  17.246
10402SOL     OW43084   3.058   1.326   4.660
10402SOL    HW143085   3.040   1.392   4.593
10402SOL    HW243086   2.991   1.259   4.646
10403SOL     OW43087   1.112   1.899  17.992
10403SOL    HW143088   1.126   1.813  17.952
10403SOL    HW243089   1.193   1.947  17.975
10404SOL     OW43090   0.022   0.870  19.266
10404SOL    HW143091   0.049   0.947  19.215
10404SOL    HW243092   0.076   0.874  19.345
10405SOL     OW43093   0.665   0.281   0.987
10405SOL    HW143094   0.681   0.219   1.058
10405SOL    HW243095   0.578   0.258   0.954
10406SOL     OW43096   3.722   2.739   4.455
10406SOL    HW143097   3.779   2.686   4.511
10406SOL    HW243098   3.634   2.723   4.489
10407SOL     OW43099   1.863   4.250  14.407
10407SOL    HW143100   1.945   4.259  14.359
10407SOL    HW243101   1.803   4.207  14.346
10408SOL     OW43102   3.377   2.055   7.230
10408SOL    HW143103   3.416   2.063   7.143
10408SOL    HW243104   3.448   2.078   7.290
10409SOL     OW43105   0.886   1.574   1.635
10409SOL    HW143106   0.883   1.639   1.565
10409SOL    HW243107   0.799   1.579   1.675
10410SOL     OW43108   2.941   2.002  18.186
10410SOL    HW143109   3.015   1.989  18.127
10410SOL    HW243110   2.873   2.040  18.131
10411SOL     OW43111   0.544   2.252  16.270
10411SOL    HW143112   0.492   2.236  16.191
10411SOL    HW243113   0.498   2.203  16.339
10412SOL     OW43114   1.770   4.152  18.718
10412SOL    HW143115   1.758   4.244  18.742
10412SOL    HW243116   1.830   4.118  18.785
10413SOL     OW43117   2.109   4.703  19.139
10413SOL    HW143118   2.139   4.732  19.225
10413SOL    HW243119   2.154   4.619  19.125
10414SOL     OW43120   3.181   3.745   5.582
10414SOL    HW143121   3.192   3.683   5.654
10414SOL    HW243122   3.189   3.691   5.503
10415SOL     OW43123   0.973   3.793   0.091
10415SOL    HW143124   1.058   3.756   0.115
10415SOL    HW243125   0.910   3.747   0.146
10416SOL     OW43126   0.503   0.938   4.788
10416SOL    HW143127   0.561   0.882   4.736
10416SOL    HW243128   0.498   1.020   4.739
10417SOL     OW43129   2.803   0.847   9.545
10417SOL    HW143130   2.836   0.830   9.633
10417SOL    HW243131   2.816   0.941   9.533
10418SOL     OW43132   2.721   1.693   1.556
10418SOL    HW143133   2.669   1.749   1.614
10418SOL    HW243134   2.749   1.751   1.485
10419SOL     OW43135   4.662   1.265   6.039
10419SOL    HW143136   4.662   1.177   6.077
10419SOL    HW243137   4.574   1.299   6.056
10420SOL     OW43138   2.869   3.372  19.136
10420SOL    HW143139   2.882   3.325  19.054
10420SOL    HW243140   2.949   3.356  19.186
10421SOL     OW43141   1.188   0.293  16.760
10421SOL    HW143142   1.125   0.251  16.819
10421SOL    HW243143   1.139   0.363  16.718
10422SOL     OW43144   1.660   3.246  20.175
10422SOL    HW143145   1.597   3.178  20.199
10422SOL    HW243146   1.614   3.299  20.110
10423SOL     OW43147   2.863   3.706  20.819
10423SOL    HW143148   2.842   3.798  20.833
10423SOL    HW243149   2.817   3.660  20.889
10424SOL     OW43150   2.618   3.247   4.342
10424SOL    HW143151   2.613   3.151   4.343
10424SOL    HW243152   2.527   3.275   4.334
10425SOL     OW43153   1.214   3.329   3.739
10425SOL    HW143154   1.226   3.413   3.783
10425SOL    HW243155   1.291   3.320   3.682
10426SOL     OW43156   3.126   0.359  20.646
10426SOL    HW143157   3.038   0.327  20.665
10426SOL    HW243158   3.176   0.280  20.624
10427SOL     OW43159   4.446   1.868  19.742
10427SOL    HW143160   4.371   1.920  19.772
10427SOL    HW243161   4.481   1.829  19.822
10428SOL     OW43162   0.815   3.672   2.545
10428SOL    HW143163   0.721   3.668   2.565
10428SOL    HW243164   0.853   3.720   2.618
10429SOL     OW43165   3.238   0.755  16.297
10429SOL    HW143166   3.329   0.785  16.290
10429SOL    HW243167   3.211   0.737  16.207
10430SOL     OW43168   0.348   3.587  17.835
10430SOL    HW143169   0.419   3.576  17.898
10430SOL    HW243170   0.387   3.564  17.751
10431SOL     OW43171   1.772   3.459   3.142
10431SOL    HW143172   1.867   3.462   3.135
10431SOL    HW243173   1.751   3.366   3.130
10432SOL     OW43174   3.499   3.661  18.111
10432SOL    HW143175   3.506   3.566  18.111
10432SOL    HW243176   3.589   3.692  18.122
10433SOL     OW43177   1.655   4.340  16.710
10433SOL    HW143178   1.668   4.295  16.627
10433SOL    HW243179   1.743   4.360  16.741
10434SOL     OW43180   2.056   3.503   3.192
10434SOL    HW143181   2.043   3.454   3.274
10434SOL    HW243182   2.093   3.439   3.132
10435SOL     OW43183   3.827   3.630  20.872
10435SOL    HW143184   3.849   3.688  20.945
10435SOL    HW243185   3.809   3.689  20.799
10436SOL     OW43186   2.404   4.179   5.178
10436SOL    HW143187   2.431   4.253   5.233
10436SOL    HW243188   2.309   4.174   5.191
10437SOL     OW43189   2.764   1.503  19.025
10437SOL    HW143190   2.701   1.433  19.039
10437SOL    HW243191   2.715   1.571  18.979
10438SOL     OW43192   0.305   4.019   0.090
10438SOL    HW143193   0.394   4.016   0.124
10438SOL    HW243194   0.268   3.934   0.113
10439SOL     OW43195   0.934   4.542  13.761
10439SOL    HW143196   0.856   4.594  13.782
10439SOL    HW243197   0.945   4.552  13.666
10440SOL     OW43198   2.257   4.397   1.175
10440SOL    HW143199   2.341   4.427   1.141
10440SOL    HW243200   2.270   4.389   1.269
10441SOL     OW43201   2.790   2.930  18.580
10441SOL    HW143202   2.707   2.968  18.608
10441SOL    HW243203   2.819   2.878  18.655
10442SOL     OW43204   3.647   0.640  16.228
10442SOL    HW143205   3.640   0.675  16.139
10442SOL    HW243206   3.581   0.689  16.278
10443SOL     OW43207   1.622   2.135   5.724
10443SOL    HW143208   1.704   2.089   5.706
10443SOL    HW243209   1.574   2.076   5.782
10444SOL     OW43210   2.761   4.614  16.849
10444SOL    HW143211   2.852   4.593  16.871
10444SOL    HW243212   2.719   4.529  16.835
10445SOL     OW43213   0.976   4.311  20.587
10445SOL    HW143214   0.957   4.238  20.528
10445SOL    HW243215   0.890   4.340  20.618
10446SOL     OW43216   3.043   4.134  17.600
10446SOL    HW143217   3.036   4.144  17.695
10446SOL    HW243218   2.957   4.160  17.566
10447SOL     OW43219   1.568   2.868  18.643
10447SOL    HW143220   1.662   2.870  18.660
10447SOL    HW243221   1.556   2.927  18.569
10448SOL     OW43222   4.084   2.537  19.390
10448SOL    HW143223   4.046   2.460  19.348
10448SOL    HW243224   4.096   2.511  19.481
10449SOL     OW43225   3.859   1.345  17.397
10449SOL    HW143226   3.877   1.274  17.458
10449SOL    HW243227   3.910   1.419  17.430
10450SOL     OW43228   2.674   4.720  18.250
10450SOL    HW143229   2.600   4.659  18.246
10450SOL    HW243230   2.640   0.012  18.214
10451SOL     OW43231   2.315   3.347   8.141
10451SOL    HW143232   2.346   3.433   8.114
10451SOL    HW243233   2.273   3.362   8.226
10452SOL     OW43234   1.425   3.599   1.345
10452SOL    HW143235   1.519   3.619   1.349
10452SOL    HW243236   1.407   3.553   1.427
10453SOL     OW43237   3.376   0.220  20.948
10453SOL    HW143238   3.313   0.155  20.917
10453SOL    HW243239   3.388   0.199  21.041
10454SOL     OW43240   0.937   3.702  19.390
10454SOL    HW143241   0.865   3.687  19.329
10454SOL    HW243242   0.913   3.653  19.468
10455SOL     OW43243   1.843   0.321  16.744
10455SOL    HW143244   1.770   0.339  16.685
10455SOL    HW243245   1.866   0.406  16.781
10456SOL     OW43246   2.105   1.282   4.149
10456SOL    HW143247   2.038   1.214   4.159
10456SOL    HW243248   2.169   1.264   4.218
10457SOL     OW43249   3.268   2.520  17.819
10457SOL    HW143250   3.216   2.547  17.895
10457SOL    HW243251   3.281   2.601  17.769
10458SOL     OW43252   3.199   1.729   4.589
10458SOL    HW143253   3.110   1.711   4.558
10458SOL    HW243254   3.201   1.824   4.601
10459SOL     OW43255   0.192   1.255   3.168
10459SOL    HW143256   0.244   1.211   3.235
10459SOL    HW243257   0.105   1.217   3.177
10460SOL     OW43258   4.627   1.893   1.370
10460SOL    HW143259   4.704   1.944   1.347
10460SOL    HW243260   4.612   1.836   1.294
10461SOL     OW43261   3.522   3.764   1.912
10461SOL    HW143262   3.580   3.702   1.867
10461SOL    HW243263   3.438   3.755   1.868
10462SOL     OW43264   1.154   4.427  16.092
10462SOL    HW143265   1.228   4.477  16.057
10462SOL    HW243266   1.125   4.373  16.019
10463SOL     OW43267   1.753   0.730   1.873
10463SOL    HW143268   1.821   0.792   1.900
10463SOL    HW243269   1.711   0.772   1.798
10464SOL     OW43270   1.782   1.746   2.701
10464SOL    HW143271   1.756   1.709   2.616
10464SOL    HW243272   1.758   1.838   2.695
10465SOL     OW43273   0.466   3.729  19.430
10465SOL    HW143274   0.384   3.751  19.473
10465SOL    HW243275   0.464   3.634  19.423
10466SOL     OW43276   1.733   2.910  14.594
10466SOL    HW143277   1.731   2.946  14.505
10466SOL    HW243278   1.719   2.816  14.582
10467SOL     OW43279   2.514   0.639  17.060
10467SOL    HW143280   2.596   0.628  17.012
10467SOL    HW243281   2.541   0.658  17.150
10468SOL     OW43282   3.894   3.398   7.638
10468SOL    HW143283   3.836   3.469   7.665
10468SOL    HW243284   3.977   3.441   7.618
10469SOL     OW43285   1.218   3.830   3.916
10469SOL    HW143286   1.252   3.919   3.917
10469SOL    HW243287   1.125   3.840   3.936
10470SOL     OW43288   3.295   0.859  15.753
10470SOL    HW143289   3.245   0.854  15.834
10470SOL    HW243290   3.338   0.774  15.745
10471SOL     OW43291   0.926   2.431  15.488
10471SOL    HW143292   0.949   2.343  15.519
10471SOL    HW243293   0.830   2.431  15.483
10472SOL     OW43294   4.362   1.093  16.216
10472SOL    HW143295   4.343   1.071  16.307
10472SOL    HW243296   4.455   1.073  16.206
10473SOL     OW43297   4.625   4.699  11.747
10473SOL    HW143298   4.590   4.642  11.816
10473SOL    HW243299   4.550   4.716  11.690
10474SOL     OW43300   0.463   1.148  18.238
10474SOL    HW143301   0.415   1.214  18.288
10474SOL    HW243302   0.542   1.193  18.208
10475SOL     OW43303   4.667   4.498   0.101
10475SOL    HW143304   4.742   4.441   0.087
10475SOL    HW243305   4.648   4.491   0.195
10476SOL     OW43306   3.005   3.479  20.494
10476SOL    HW143307   2.995   3.506  20.403
10476SOL    HW243308   2.927   3.426  20.511
10477SOL     OW43309   4.644   2.429   0.814
10477SOL    HW143310   4.555   2.464   0.812
10477SOL    HW243311   4.664   2.421   0.907
10478SOL     OW43312   4.743   2.425   2.190
10478SOL    HW143313   4.738   2.433   2.095
10478SOL    HW243314   4.672   2.365   2.213
10479SOL     OW43315   0.109   1.912   5.282
10479SOL    HW143316   0.163   1.986   5.311
10479SOL    HW243317   0.096   1.928   5.189
10480SOL     OW43318   2.809   3.519  19.864
10480SOL    HW143319   2.729   3.525  19.812
10480SOL    HW243320   2.805   3.594  19.923
10481SOL     OW43321   3.146   4.237  15.541
10481SOL    HW143322   3.225   4.271  15.499
10481SOL    HW243323   3.095   4.315  15.564
10482SOL     OW43324   3.776   0.695  18.356
10482SOL    HW143325   3.705   0.709  18.293
10482SOL    HW243326   3.787   0.780  18.399
10483SOL     OW43327   0.213   0.776  16.062
10483SOL    HW143328   0.278   0.710  16.087
10483SOL    HW243329   0.261   0.859  16.066
10484SOL     OW43330   3.206   0.285   5.695
10484SOL    HW143331   3.199   0.328   5.780
10484SOL    HW243332   3.300   0.273   5.682
10485SOL     OW43333   3.004   3.509  18.371
10485SOL    HW143334   3.035   3.561  18.445
10485SOL    HW243335   2.909   3.504  18.383
10486SOL     OW43336   0.970   3.700   0.434
10486SOL    HW143337   0.936   3.612   0.449
10486SOL    HW243338   0.924   3.731   0.356
10487SOL     OW43339   4.017   0.337   8.283
10487SOL    HW143340   3.973   0.287   8.214
10487SOL    HW243341   4.061   0.271   8.336
10488SOL     OW43342   0.636   3.166  16.508
10488SOL    HW143343   0.620   3.095  16.446
10488SOL    HW243344   0.726   3.153  16.537
10489SOL     OW43345   2.569   3.639  20.848
10489SOL    HW143346   2.535   3.728  20.857
10489SOL    HW243347   2.648   3.638  20.903
10490SOL     OW43348   1.759   3.255   1.336
10490SOL    HW143349   1.748   3.208   1.419
10490SOL    HW243350   1.852   3.245   1.315
10491SOL     OW43351   0.241   1.138  17.311
10491SOL    HW143352   0.256   1.066  17.373
10491SOL    HW243353   0.148   1.132  17.290
10492SOL     OW43354   0.121   4.133  18.633
10492SOL    HW143355   0.143   4.206  18.575
10492SOL    HW243356   0.073   4.173  18.705
10493SOL     OW43357   2.252   3.109   1.647
10493SOL    HW143358   2.333   3.106   1.698
10493SOL    HW243359   2.197   3.173   1.693
10494SOL     OW43360   1.228   0.786   6.834
10494SOL    HW143361   1.139   0.770   6.865
10494SOL    HW243362   1.280   0.795   6.914
10495SOL     OW43363   0.516   2.145   2.613
10495SOL    HW143364   0.425   2.138   2.643
10495SOL    HW243365   0.509   2.166   2.520
10496SOL     OW43366   2.005   3.975   4.195
10496SOL    HW143367   2.034   3.958   4.285
10496SOL    HW243368   1.997   4.070   4.191
10497SOL     OW43369   1.964   2.885   3.442
10497SOL    HW143370   1.905   2.894   3.517
10497SOL    HW243371   1.951   2.795   3.412
10498SOL     OW43372   1.260   4.141   6.188
10498SOL    HW143373   1.211   4.176   6.263
10498SOL    HW243374   1.254   4.046   6.197
10499SOL     OW43375   1.110   3.775  19.693
10499SOL    HW143376   1.133   3.685  19.718
10499SOL    HW243377   1.083   3.816  19.775
10500SOL     OW43378   2.814   4.358  18.809
10500SOL    HW143379   2.858   4.324  18.731
10500SOL    HW243380   2.793   4.280  18.860
10501SOL     OW43381   3.673   4.576   7.842
10501SOL    HW143382   3.624   4.495   7.858
10501SOL    HW243383   3.764   4.548   7.834
10502SOL     OW43384   0.906   1.037  19.178
10502SOL    HW143385   0.977   1.101  19.179
10502SOL    HW243386   0.886   1.021  19.270
10503SOL     OW43387   4.536   0.788   1.645
10503SOL    HW143388   4.522   0.866   1.591
10503SOL    HW243389   4.628   0.765   1.630
10504SOL     OW43390   3.833   4.364   3.602
10504SOL    HW143391   3.845   4.270   3.616
10504SOL    HW243392   3.740   4.374   3.582
10505SOL     OW43393   1.724   4.149  17.123
10505SOL    HW143394   1.633   4.120  17.121
10505SOL    HW243395   1.721   4.240  17.094
10506SOL     OW43396   1.637   2.704   3.861
10506SOL    HW143397   1.618   2.643   3.932
10506SOL    HW243398   1.565   2.767   3.863
10507SOL     OW43399   0.412   4.167   5.183
10507SOL    HW143400   0.343   4.107   5.213
10507SOL    HW243401   0.488   4.111   5.168
10508SOL     OW43402   2.148   1.228  11.723
10508SOL    HW143403   2.071   1.188  11.681
10508SOL    HW243404   2.135   1.213  11.817
10509SOL     OW43405   4.111   4.667  19.555
10509SOL    HW143406   4.164   4.663  19.635
10509SOL    HW243407   4.030   4.621  19.577
10510SOL     OW43408   0.432   4.444  13.789
10510SOL    HW143409   0.433   4.352  13.764
10510SOL    HW243410   0.453   4.491  13.708
10511SOL     OW43411   4.175   1.155   5.100
10511SOL    HW143412   4.087   1.192   5.103
10511SOL    HW243413   4.163   1.066   5.068
10512SOL     OW43414   0.254   4.167  20.120
10512SOL    HW143415   0.217   4.255  20.119
10512SOL    HW243416   0.237   4.133  20.032
10513SOL     OW43417   3.668   4.712  17.924
10513SOL    HW143418   3.619   4.759  17.857
10513SOL    HW243419   3.741   4.770  17.945
10514SOL     OW43420   2.815   2.412   3.973
10514SOL    HW143421   2.841   2.354   4.045
10514SOL    HW243422   2.791   2.352   3.902
10515SOL     OW43423   1.434   1.431   0.529
10515SOL    HW143424   1.470   1.344   0.511
10515SOL    HW243425   1.339   1.420   0.518
10516SOL     OW43426   0.665   4.389  20.527
10516SOL    HW143427   0.689   4.481  20.519
10516SOL    HW243428   0.588   4.380  20.471
10517SOL     OW43429   2.788   3.489   0.074
10517SOL    HW143430   2.791   3.574   0.118
10517SOL    HW243431   2.743   3.432   0.136
10518SOL     OW43432   2.008   4.317   3.930
10518SOL    HW143433   1.970   4.288   4.013
10518SOL    HW243434   2.077   4.254   3.911
10519SOL     OW43435   1.460   4.271   1.437
10519SOL    HW143436   1.465   4.247   1.344
10519SOL    HW243437   1.546   4.309   1.456
10520SOL     OW43438   1.296   3.381  19.044
10520SOL    HW143439   1.350   3.450  19.005
10520SOL    HW243440   1.218   3.426  19.077
10521SOL     OW43441   2.874   2.009  17.908
10521SOL    HW143442   2.828   2.024  17.826
10521SOL    HW243443   2.941   1.945  17.886
10522SOL     OW43444   4.434   4.403   2.295
10522SOL    HW143445   4.510   4.369   2.342
10522SOL    HW243446   4.367   4.414   2.363
10523SOL     OW43447   4.065   2.746   2.749
10523SOL    HW143448   4.146   2.788   2.720
10523SOL    HW243449   4.069   2.749   2.845
10524SOL     OW43450   4.346   0.451   5.835
10524SOL    HW143451   4.396   0.514   5.783
10524SOL    HW243452   4.258   0.488   5.838
10525SOL     OW43453   2.295   1.268  17.422
10525SOL    HW143454   2.283   1.245  17.330
10525SOL    HW243455   2.209   1.255  17.462
10526SOL     OW43456   3.982   0.629   3.085
10526SOL    HW143457   4.070   0.593   3.076
10526SOL    HW243458   3.924   0.553   3.078
10527SOL     OW43459   2.915   0.926  20.809
10527SOL    HW143460   2.991   0.869  20.821
10527SOL    HW243461   2.931   0.970  20.726
10528SOL     OW43462   2.625   1.114  20.336
10528SOL    HW143463   2.605   1.188  20.279
10528SOL    HW243464   2.544   1.063  20.338
10529SOL     OW43465   3.947   2.602  16.137
10529SOL    HW143466   3.992   2.533  16.089
10529SOL    HW243467   3.975   2.683  16.095
10530SOL     OW43468   2.450   1.469   3.644
10530SOL    HW143469   2.464   1.376   3.664
10530SOL    HW243470   2.529   1.512   3.676
10531SOL     OW43471   1.195   3.497   5.023
10531SOL    HW143472   1.204   3.560   4.952
10531SOL    HW243473   1.279   3.500   5.069
10532SOL     OW43474   0.492   0.080   6.216
10532SOL    HW143475   0.431   0.007   6.208
10532SOL    HW243476   0.563   0.046   6.270
10533SOL     OW43477   1.877   1.185  11.682
10533SOL    HW143478   1.789   1.160  11.653
10533SOL    HW243479   1.866   1.272  11.721
10534SOL     OW43480   0.508   3.558   5.355
10534SOL    HW143481   0.439   3.495   5.334
10534SOL    HW243482   0.560   3.515   5.423
10535SOL     OW43483   0.430   2.787   6.104
10535SOL    HW143484   0.434   2.882   6.090
10535SOL    HW243485   0.340   2.764   6.080
10536SOL     OW43486   4.189   1.114   0.603
10536SOL    HW143487   4.189   1.145   0.512
10536SOL    HW243488   4.121   1.166   0.646
10537SOL     OW43489   4.682   1.533  20.822
10537SOL    HW143490   4.716   1.579  20.745
10537SOL    HW243491   4.759   1.521  20.878
10538SOL     OW43492   4.433   4.535  20.376
10538SOL    HW143493   4.403   4.509  20.289
10538SOL    HW243494   4.519   4.495  20.385
10539SOL     OW43495   3.895   2.302   3.688
10539SOL    HW143496   3.989   2.286   3.684
10539SOL    HW243497   3.879   2.368   3.621
10540SOL     OW43498   1.208   2.219  19.032
10540SOL    HW143499   1.263   2.145  19.057
10540SOL    HW243500   1.219   2.282  19.103
10541SOL     OW43501   1.548   0.225   1.097
10541SOL    HW143502   1.480   0.214   1.163
10541SOL    HW243503   1.506   0.198   1.015
10542SOL     OW43504   2.755   4.010  17.826
10542SOL    HW143505   2.763   3.932  17.882
10542SOL    HW243506   2.691   4.065  17.871
10543SOL     OW43507   1.856   3.341  15.110
10543SOL    HW143508   1.798   3.265  15.112
10543SOL    HW243509   1.802   3.412  15.075
10544SOL     OW43510   2.338   1.185   5.873
10544SOL    HW143511   2.266   1.189   5.935
10544SOL    HW243512   2.361   1.277   5.856
10545SOL     OW43513   0.715   0.004  12.178
10545SOL    HW143514   0.740   4.709  12.214
10545SOL    HW243515   0.793   0.034  12.132
10546SOL     OW43516   4.038   4.392   3.073
10546SOL    HW143517   4.077   4.472   3.109
10546SOL    HW243518   3.944   4.410   3.072
10547SOL     OW43519   3.483   1.692   1.822
10547SOL    HW143520   3.427   1.701   1.899
10547SOL    HW243521   3.556   1.752   1.837
10548SOL     OW43522   0.832   4.445  14.763
10548SOL    HW143523   0.758   4.404  14.719
10548SOL    HW243524   0.905   4.386  14.747
10549SOL     OW43525   3.607   3.418   3.024
10549SOL    HW143526   3.545   3.397   3.093
10549SOL    HW243527   3.620   3.335   2.977
10550SOL     OW43528   4.186   4.560  14.560
10550SOL    HW143529   4.231   4.539  14.478
10550SOL    HW243530   4.253   4.601  14.615
10551SOL     OW43531   4.695   2.058  16.879
10551SOL    HW143532   4.784   2.073  16.911
10551SOL    HW243533   4.706   2.026  16.790
10552SOL     OW43534   2.686   1.030  15.855
10552SOL    HW143535   2.766   1.064  15.895
10552SOL    HW243536   2.694   0.935  15.863
10553SOL     OW43537   0.944   1.351  18.845
10553SOL    HW143538   0.887   1.295  18.898
10553SOL    HW243539   0.911   1.440  18.860
10554SOL     OW43540   2.068   1.201  12.768
10554SOL    HW143541   2.015   1.261  12.820
10554SOL    HW243542   2.007   1.165  12.703
10555SOL     OW43543   0.938   3.058   2.098
10555SOL    HW143544   1.025   3.041   2.061
10555SOL    HW243545   0.945   3.146   2.135
10556SOL     OW43546   4.375   0.434  17.500
10556SOL    HW143547   4.395   0.355  17.449
10556SOL    HW243548   4.386   0.506  17.438
10557SOL     OW43549   3.872   0.147   0.348
10557SOL    HW143550   3.917   0.157   0.432
10557SOL    HW243551   3.875   0.053   0.330
10558SOL     OW43552   2.600   1.098   1.928
10558SOL    HW143553   2.549   1.087   2.008
10558SOL    HW243554   2.623   1.191   1.927
10559SOL     OW43555   4.656   1.794   1.740
10559SOL    HW143556   4.610   1.877   1.755
10559SOL    HW243557   4.602   1.729   1.785
10560SOL     OW43558   4.107   1.161  16.726
10560SOL    HW143559   4.070   1.235  16.774
10560SOL    HW243560   4.171   1.200  16.666
10561SOL     OW43561   0.518   1.628   4.472
10561SOL    HW143562   0.524   1.572   4.394
10561SOL    HW243563   0.433   1.672   4.463
10562SOL     OW43564   1.168   0.551  10.344
10562SOL    HW143565   1.200   0.640  10.358
10562SOL    HW243566   1.075   0.555  10.367
10563SOL     OW43567   4.473   3.088  18.487
10563SOL    HW143568   4.392   3.060  18.529
10563SOL    HW243569   4.451   3.097  18.394
10564SOL     OW43570   2.810   2.287   6.289
10564SOL    HW143571   2.888   2.328   6.251
10564SOL    HW243572   2.844   2.236   6.363
10565SOL     OW43573   0.584   0.044   3.937
10565SOL    HW143574   0.513   0.058   4.000
10565SOL    HW243575   0.603   4.740   3.943
10566SOL     OW43576   0.901   2.927  14.497
10566SOL    HW143577   0.833   2.908  14.561
10566SOL    HW243578   0.897   3.022  14.485
10567SOL     OW43579   2.452   2.537   3.913
10567SOL    HW143580   2.413   2.530   4.000
10567SOL    HW243581   2.521   2.602   3.923
10568SOL     OW43582   1.860   2.083  15.206
10568SOL    HW143583   1.859   2.002  15.154
10568SOL    HW243584   1.904   2.147  15.150
10569SOL     OW43585   3.548   1.008   5.998
10569SOL    HW143586   3.479   0.998   6.064
10569SOL    HW243587   3.611   1.068   6.038
10570SOL     OW43588   0.051   1.987   5.029
10570SOL    HW143589   0.047   2.078   5.058
10570SOL    HW243590   0.062   1.992   4.934
10571SOL     OW43591   0.605   0.613  19.563
10571SOL    HW143592   0.514   0.583  19.570
10571SOL    HW243593   0.627   0.642  19.651
10572SOL     OW43594   4.673   3.948   3.905
10572SOL    HW143595   4.763   3.920   3.890
10572SOL    HW243596   4.648   3.906   3.988
10573SOL     OW43597   2.439   3.459  16.686
10573SOL    HW143598   2.495   3.383  16.702
10573SOL    HW243599   2.350   3.425  16.697
10574SOL     OW43600   3.321   3.023  16.619
10574SOL    HW143601   3.397   2.965  16.613
10574SOL    HW243602   3.279   3.000  16.702
10575SOL     OW43603   0.731   3.309   4.732
10575SOL    HW143604   0.676   3.234   4.756
10575SOL    HW243605   0.800   3.310   4.798
10576SOL     OW43606   2.443   2.345  20.128
10576SOL    HW143607   2.520   2.366  20.074
10576SOL    HW243608   2.469   2.268  20.179
10577SOL     OW43609   4.418   3.234   6.505
10577SOL    HW143610   4.359   3.225   6.580
10577SOL    HW243611   4.500   3.196   6.535
10578SOL     OW43612   0.480   2.472  19.808
10578SOL    HW143613   0.560   2.426  19.832
10578SOL    HW243614   0.453   2.431  19.726
10579SOL     OW43615   3.828   4.191   5.483
10579SOL    HW143616   3.848   4.105   5.445
10579SOL    HW243617   3.913   4.224   5.514
10580SOL     OW43618   4.534   2.723   4.744
10580SOL    HW143619   4.480   2.685   4.813
10580SOL    HW243620   4.475   2.783   4.698
10581SOL     OW43621   1.948   4.444   8.004
10581SOL    HW143622   1.877   4.493   7.963
10581SOL    HW243623   2.003   4.511   8.044
10582SOL     OW43624   2.918   4.095  16.018
10582SOL    HW143625   2.941   4.048  16.098
10582SOL    HW243626   3.002   4.122  15.981
10583SOL     OW43627   1.957   3.733   1.461
10583SOL    HW143628   1.943   3.651   1.414
10583SOL    HW243629   1.988   3.706   1.548
10584SOL     OW43630   0.359   3.643  15.887
10584SOL    HW143631   0.336   3.734  15.869
10584SOL    HW243632   0.367   3.639  15.982
10585SOL     OW43633   1.667   1.580   0.616
10585SOL    HW143634   1.583   1.546   0.583
10585SOL    HW243635   1.733   1.535   0.563
10586SOL     OW43636   2.266   3.815  13.701
10586SOL    HW143637   2.271   3.870  13.623
10586SOL    HW243638   2.197   3.855  13.754
10587SOL     OW43639   3.350   1.545  15.821
10587SOL    HW143640   3.391   1.630  15.835
10587SOL    HW243641   3.346   1.506  15.908
10588SOL     OW43642   0.712   2.258  19.794
10588SOL    HW143643   0.724   2.166  19.769
10588SOL    HW243644   0.762   2.268  19.875
10589SOL     OW43645   4.493   0.492   0.919
10589SOL    HW143646   4.540   0.546   0.982
10589SOL    HW243647   4.551   0.417   0.904
10590SOL     OW43648   1.861   2.176   4.449
10590SOL    HW143649   1.931   2.129   4.404
10590SOL    HW243650   1.878   2.268   4.431
10591SOL     OW43651   3.920   0.584   8.261
10591SOL    HW143652   3.959   0.497   8.268
10591SOL    HW243653   3.840   0.579   8.313
10592SOL     OW43654   3.093   4.649  16.014
10592SOL    HW143655   3.030   4.588  16.054
10592SOL    HW243656   3.114   4.710  16.084
10593SOL     OW43657   0.260   3.276   1.678
10593SOL    HW143658   0.175   3.264   1.720
10593SOL    HW243659   0.320   3.221   1.728
10594SOL     OW43660   1.784   4.686  20.175
10594SOL    HW143661   1.768   4.732  20.257
10594SOL    HW243662   1.865   4.637  20.191
10595SOL     OW43663   0.205   2.131  19.041
10595SOL    HW143664   0.144   2.096  19.106
10595SOL    HW243665   0.149   2.170  18.974
10596SOL     OW43666   3.230   2.456   7.834
10596SOL    HW143667   3.169   2.505   7.889
10596SOL    HW243668   3.177   2.386   7.796
10597SOL     OW43669   0.621   4.328   2.653
10597SOL    HW143670   0.599   4.418   2.628
10597SOL    HW243671   0.541   4.294   2.693
10598SOL     OW43672   3.846   1.813  20.804
10598SOL    HW143673   3.935   1.842  20.786
10598SOL    HW243674   3.856   1.730  20.850
10599SOL     OW43675   0.392   3.442  20.838
10599SOL    HW143676   0.336   3.379  20.884
10599SOL    HW243677   0.452   3.474  20.905
10600SOL     OW43678   0.638   4.412   4.131
10600SOL    HW143679   0.554   4.370   4.150
10600SOL    HW243680   0.700   4.367   4.188
10601SOL     OW43681   4.312   3.783   1.987
10601SOL    HW143682   4.347   3.751   1.904
10601SOL    HW243683   4.288   3.704   2.035
10602SOL     OW43684   0.621   3.962  15.159
10602SOL    HW143685   0.659   4.018  15.091
10602SOL    HW243686   0.674   3.979  15.237
10603SOL     OW43687   2.869   2.281   5.054
10603SOL    HW143688   2.927   2.255   4.983
10603SOL    HW243689   2.786   2.238   5.034
10604SOL     OW43690   3.730   3.414  21.009
10604SOL    HW143691   3.747   3.478  20.940
10604SOL    HW243692   3.640   3.386  20.994
10605SOL     OW43693   2.332   0.471   3.934
10605SOL    HW143694   2.340   0.383   3.971
10605SOL    HW243695   2.369   0.529   4.000
10606SOL     OW43696   2.029   4.443   4.638
10606SOL    HW143697   2.035   4.451   4.733
10606SOL    HW243698   2.015   4.350   4.622
10607SOL     OW43699   4.526   3.613  17.377
10607SOL    HW143700   4.469   3.538  17.392
10607SOL    HW243701   4.607   3.592  17.423
10608SOL     OW43702   3.133   0.154  17.607
10608SOL    HW143703   3.084   0.159  17.525
10608SOL    HW243704   3.067   0.169  17.675
10609SOL     OW43705   1.964   0.113  14.153
10609SOL    HW143706   1.931   0.124  14.064
10609SOL    HW243707   1.886   0.115  14.208
10610SOL     OW43708   2.296   0.019   0.537
10610SOL    HW143709   2.293   4.721   0.576
10610SOL    HW243710   2.367   0.015   0.473
10611SOL     OW43711   3.176   0.557  19.210
10611SOL    HW143712   3.125   0.590  19.284
10611SOL    HW243713   3.259   0.529  19.248
10612SOL     OW43714   3.423   1.385   6.382
10612SOL    HW143715   3.363   1.412   6.312
10612SOL    HW243716   3.418   1.455   6.447
10613SOL     OW43717   3.497   3.397   4.633
10613SOL    HW143718   3.471   3.342   4.707
10613SOL    HW243719   3.454   3.357   4.557
10614SOL     OW43720   3.365   3.747  19.563
10614SOL    HW143721   3.324   3.690  19.628
10614SOL    HW243722   3.311   3.738  19.485
10615SOL     OW43723   3.870   0.183  15.485
10615SOL    HW143724   3.905   0.133  15.411
10615SOL    HW243725   3.780   0.152  15.495
10616SOL     OW43726   3.105   3.878  15.889
10616SOL    HW143727   3.060   3.836  15.816
10616SOL    HW243728   3.120   3.968  15.859
10617SOL     OW43729   4.181   1.645  20.577
10617SOL    HW143730   4.215   1.598  20.500
10617SOL    HW243731   4.234   1.612  20.650
10618SOL     OW43732   3.609   4.019   3.905
10618SOL    HW143733   3.690   4.044   3.861
10618SOL    HW243734   3.632   3.940   3.955
10619SOL     OW43735   1.124   1.668  19.790
10619SOL    HW143736   1.126   1.677  19.695
10619SOL    HW243737   1.148   1.577  19.806
10620SOL     OW43738   2.211   4.313   2.883
10620SOL    HW143739   2.269   4.240   2.861
10620SOL    HW243740   2.259   4.363   2.949
10621SOL     OW43741   1.015   0.970  13.496
10621SOL    HW143742   0.934   0.934  13.461
10621SOL    HW243743   0.994   0.995  13.586
10622SOL     OW43744   4.500   4.526   3.014
10622SOL    HW143745   4.564   4.564   2.953
10622SOL    HW243746   4.548   4.517   3.096
10623SOL     OW43747   2.286   2.213   0.510
10623SOL    HW143748   2.271   2.159   0.588
10623SOL    HW243749   2.333   2.156   0.450
10624SOL     OW43750   1.724   3.892  19.828
10624SOL    HW143751   1.705   3.979  19.794
10624SOL    HW243752   1.687   3.832  19.763
10625SOL     OW43753   3.544   0.916  15.464
10625SOL    HW143754   3.579   0.837  15.423
10625SOL    HW243755   3.620   0.956  15.507
10626SOL     OW43756   0.933   3.317   4.487
10626SOL    HW143757   1.028   3.319   4.477
10626SOL    HW243758   0.915   3.380   4.557
10627SOL     OW43759   2.887   3.790  17.492
10627SOL    HW143760   2.812   3.746  17.452
10627SOL    HW243761   2.938   3.719  17.531
10628SOL     OW43762   1.702   2.502   1.605
10628SOL    HW143763   1.642   2.560   1.652
10628SOL    HW243764   1.720   2.547   1.523
10629SOL     OW43765   0.709   3.008  20.604
10629SOL    HW143766   0.645   3.079  20.596
10629SOL    HW243767   0.711   2.968  20.517
10630SOL     OW43768   4.593   3.507  19.776
10630SOL    HW143769   4.588   3.481  19.868
10630SOL    HW243770   4.535   3.583  19.770
10631SOL     OW43771   3.116   2.846  19.419
10631SOL    HW143772   3.089   2.804  19.337
10631SOL    HW243773   3.212   2.848  19.414
10632SOL     OW43774   4.510   2.596  18.797
10632SOL    HW143775   4.439   2.660  18.799
10632SOL    HW243776   4.586   2.646  18.766
10633SOL     OW43777   2.792   3.635  15.581
10633SOL    HW143778   2.726   3.704  15.584
10633SOL    HW243779   2.759   3.574  15.515
10634SOL     OW43780   4.200   1.133   2.858
10634SOL    HW143781   4.128   1.086   2.901
10634SOL    HW243782   4.216   1.209   2.915
10635SOL     OW43783   0.391   3.208   5.550
10635SOL    HW143784   0.385   3.212   5.645
10635SOL    HW243785   0.407   3.116   5.531
10636SOL     OW43786   0.317   4.194   2.551
10636SOL    HW143787   0.299   4.279   2.510
10636SOL    HW243788   0.336   4.215   2.642
10637SOL     OW43789   4.451   1.462   6.037
10637SOL    HW143790   4.505   1.537   6.013
10637SOL    HW243791   4.410   1.488   6.119
10638SOL     OW43792   0.314   0.656  20.394
10638SOL    HW143793   0.294   0.747  20.374
10638SOL    HW243794   0.359   0.660  20.479
10639SOL     OW43795   1.400   1.985  19.802
10639SOL    HW143796   1.308   1.958  19.797
10639SOL    HW243797   1.416   2.000  19.895
10640SOL     OW43798   3.796   0.487   5.494
10640SOL    HW143799   3.860   0.483   5.565
10640SOL    HW243800   3.711   0.490   5.538
10641SOL     OW43801   3.237   3.266  15.798
10641SOL    HW143802   3.192   3.325  15.738
10641SOL    HW243803   3.307   3.227  15.746
10642SOL     OW43804   1.358   4.722   2.446
10642SOL    HW143805   1.365   4.630   2.420
10642SOL    HW243806   1.272   4.729   2.487
10643SOL     OW43807   1.067   0.971  16.071
10643SOL    HW143808   1.092   0.930  15.988
10643SOL    HW243809   1.139   1.032  16.090
10644SOL     OW43810   3.487   1.621  18.412
10644SOL    HW143811   3.515   1.579  18.493
10644SOL    HW243812   3.397   1.648  18.428
10645SOL     OW43813   0.785   2.601   1.694
10645SOL    HW143814   0.777   2.645   1.609
10645SOL    HW243815   0.867   2.634   1.730
10646SOL     OW43816   4.606   3.976   4.736
10646SOL    HW143817   4.622   3.973   4.642
10646SOL    HW243818   4.574   3.888   4.757
10647SOL     OW43819   4.496   0.377   1.707
10647SOL    HW143820   4.590   0.369   1.726
10647SOL    HW243821   4.454   0.316   1.768
10648SOL     OW43822   4.415   0.279  20.077
10648SOL    HW143823   4.435   0.188  20.101
10648SOL    HW243824   4.394   0.321  20.160
10649SOL     OW43825   3.854   2.492  15.632
10649SOL    HW143826   3.784   2.556  15.644
10649SOL    HW243827   3.857   2.443  15.715
10650SOL     OW43828   1.786   4.779  14.348
10650SOL    HW143829   1.876   4.764  14.378
10650SOL    HW243830   1.752   0.056  14.408
10651SOL     OW43831   3.997   3.373   4.146
10651SOL    HW143832   4.004   3.306   4.078
10651SOL    HW243833   3.927   3.343   4.203
10652SOL     OW43834   3.623   1.065   7.055
10652SOL    HW143835   3.673   1.142   7.029
10652SOL    HW243836   3.603   1.080   7.147
10653SOL     OW43837   1.286   0.493   3.131
10653SOL    HW143838   1.290   0.398   3.124
10653SOL    HW243839   1.343   0.514   3.205
10654SOL     OW43840   1.207   3.989   5.347
10654SOL    HW143841   1.214   3.988   5.252
10654SOL    HW243842   1.113   4.000   5.364
10655SOL     OW43843   0.772   4.495  14.442
10655SOL    HW143844   0.842   4.467  14.384
10655SOL    HW243845   0.746   4.581  14.408
10656SOL     OW43846   3.381   0.308  16.178
10656SOL    HW143847   3.399   0.216  16.198
10656SOL    HW243848   3.288   0.310  16.157
10657SOL     OW43849   3.821   2.190  13.514
10657SOL    HW143850   3.735   2.178  13.555
10657SOL    HW243851   3.829   2.285  13.502
10658SOL     OW43852   4.590   2.285   0.166
10658SOL    HW143853   4.599   2.280   0.071
10658SOL    HW243854   4.577   2.378   0.184
10659SOL     OW43855   3.933   3.254   2.611
10659SOL    HW143856   3.997   3.217   2.671
10659SOL    HW243857   3.985   3.289   2.539
10660SOL     OW43858   2.194   3.698   6.361
10660SOL    HW143859   2.239   3.778   6.388
10660SOL    HW243860   2.192   3.644   6.440
10661SOL     OW43861   0.570   1.159  14.580
10661SOL    HW143862   0.659   1.194  14.579
10661SOL    HW243863   0.571   1.093  14.649
10662SOL     OW43864   2.241   0.938   6.029
10662SOL    HW143865   2.203   1.026   6.034
10662SOL    HW243866   2.244   0.919   5.935
10663SOL     OW43867   0.691   4.711  14.272
10663SOL    HW143868   0.685   4.687  14.180
10663SOL    HW243869   0.600   4.720  14.300
10664SOL     OW43870   3.965   1.223  14.911
10664SOL    HW143871   3.873   1.244  14.929
10664SOL    HW243872   4.014   1.276  14.973
10665SOL     OW43873   3.753   2.483   0.993
10665SOL    HW143874   3.728   2.552   1.054
10665SOL    HW243875   3.680   2.422   0.995
10666SOL     OW43876   2.385   4.537  20.453
10666SOL    HW143877   2.346   4.611  20.500
10666SOL    HW243878   2.310   4.484  20.425
10667SOL     OW43879   3.819   3.913  20.248
10667SOL    HW143880   3.796   3.996  20.291
10667SOL    HW243881   3.853   3.939  20.163
10668SOL     OW43882   0.333   2.139  17.352
10668SOL    HW143883   0.382   2.057  17.354
10668SOL    HW243884   0.381   2.194  17.290
10669SOL     OW43885   0.377   0.706   5.229
10669SOL    HW143886   0.286   0.732   5.217
10669SOL    HW243887   0.407   0.756   5.305
10670SOL     OW43888   2.599   1.839  20.949
10670SOL    HW143889   2.581   1.762  21.003
10670SOL    HW243890   2.578   1.811  20.860
10671SOL     OW43891   3.735   0.697   2.482
10671SOL    HW143892   3.741   0.620   2.426
10671SOL    HW243893   3.826   0.726   2.493
10672SOL     OW43894   1.900   0.569  16.941
10672SOL    HW143895   1.913   0.580  17.035
10672SOL    HW243896   1.903   0.658  16.905
10673SOL     OW43897   1.639   1.440  15.948
10673SOL    HW143898   1.557   1.426  15.900
10673SOL    HW243899   1.617   1.504  16.015
10674SOL     OW43900   0.617   1.879   0.686
10674SOL    HW143901   0.620   1.969   0.655
10674SOL    HW243902   0.530   1.870   0.724
10675SOL     OW43903   2.123   0.451  19.076
10675SOL    HW143904   2.050   0.473  19.133
10675SOL    HW243905   2.123   0.520  19.009
10676SOL     OW43906   0.259   4.503   3.225
10676SOL    HW143907   0.232   4.514   3.316
10676SOL    HW243908   0.321   4.430   3.227
10677SOL     OW43909   3.148   4.257  20.608
10677SOL    HW143910   3.171   4.242  20.516
10677SOL    HW243911   3.209   4.325  20.638
10678SOL     OW43912   0.762   3.396  16.408
10678SOL    HW143913   0.823   3.383  16.335
10678SOL    HW243914   0.741   3.307  16.437
10679SOL     OW43915   3.209   1.712   4.979
10679SOL    HW143916   3.151   1.649   4.935
10679SOL    HW243917   3.234   1.774   4.910
10680SOL     OW43918   1.729   1.176  18.674
10680SOL    HW143919   1.670   1.234  18.723
10680SOL    HW243920   1.734   1.216  18.587
10681SOL     OW43921   1.817   0.911  17.922
10681SOL    HW143922   1.737   0.914  17.869
10681SOL    HW243923   1.870   0.984  17.890
10682SOL     OW43924   4.601   2.033   4.743
10682SOL    HW143925   4.687   1.996   4.725
10682SOL    HW243926   4.542   1.957   4.747
10683SOL     OW43927   3.562   3.358  20.732
10683SOL    HW143928   3.479   3.399  20.708
10683SOL    HW243929   3.537   3.273  20.768
10684SOL     OW43930   0.296   4.581   4.263
10684SOL    HW143931   0.247   4.616   4.337
10684SOL    HW243932   0.236   4.589   4.189
10685SOL     OW43933   3.360   2.042   2.663
10685SOL    HW143934   3.325   2.112   2.718
10685SOL    HW243935   3.454   2.045   2.679
10686SOL     OW43936   2.352   0.160  15.424
10686SOL    HW143937   2.379   0.250  15.409
10686SOL    HW243938   2.421   0.123  15.480
10687SOL     OW43939   2.591   0.266  16.798
10687SOL    HW143940   2.614   0.185  16.843
10687SOL    HW243941   2.495   0.268  16.800
10688SOL     OW43942   2.714   4.631   4.650
10688SOL    HW143943   2.676   4.635   4.738
10688SOL    HW243944   2.640   4.609   4.593
10689SOL     OW43945   4.509   0.439  12.760
10689SOL    HW143946   4.457   0.372  12.804
10689SOL    HW243947   4.453   0.471  12.689
10690SOL     OW43948   1.146   1.758  19.523
10690SOL    HW143949   1.087   1.739  19.450
10690SOL    HW243950   1.186   1.842  19.500
10691SOL     OW43951   3.228   1.315   0.446
10691SOL    HW143952   3.188   1.257   0.510
10691SOL    HW243953   3.319   1.322   0.474
10692SOL     OW43954   4.586   0.723  15.566
10692SOL    HW143955   4.556   0.632  15.569
10692SOL    HW243956   4.681   0.717  15.569
10693SOL     OW43957   3.107   1.033  18.961
10693SOL    HW143958   3.189   1.066  18.925
10693SOL    HW243959   3.128   0.944  18.990
10694SOL     OW43960   1.447   0.589  12.309
10694SOL    HW143961   1.406   0.590  12.396
10694SOL    HW243962   1.537   0.616  12.325
10695SOL     OW43963   1.943   0.753   2.822
10695SOL    HW143964   1.963   0.846   2.810
10695SOL    HW243965   1.974   0.711   2.742
10696SOL     OW43966   1.305   3.243  18.263
10696SOL    HW143967   1.374   3.216  18.202
10696SOL    HW243968   1.245   3.296  18.210
10697SOL     OW43969   0.376   3.589   2.983
10697SOL    HW143970   0.465   3.617   2.963
10697SOL    HW243971   0.372   3.589   3.079
10698SOL     OW43972   4.349   1.364   3.772
10698SOL    HW143973   4.272   1.402   3.815
10698SOL    HW243974   4.328   1.365   3.679
10699SOL     OW43975   2.793   1.296   6.355
10699SOL    HW143976   2.699   1.282   6.364
10699SOL    HW243977   2.827   1.212   6.324
10700SOL     OW43978   3.489   4.762   3.904
10700SOL    HW143979   3.505   0.018   3.821
10700SOL    HW243980   3.394   4.765   3.915
10701SOL     OW43981   4.720   4.634   2.887
10701SOL    HW143982   4.717   4.715   2.938
10701SOL    HW243983   0.000   4.583   2.927
10702SOL     OW43984   0.334   1.629  18.334
10702SOL    HW143985   0.246   1.659  18.358
10702SOL    HW243986   0.348   1.663  18.246
10703SOL     OW43987   0.259   3.426   3.966
10703SOL    HW143988   0.171   3.397   3.992
10703SOL    HW243989   0.299   3.457   4.047
10704SOL     OW43990   2.026   2.853   9.768
10704SOL    HW143991   2.049   2.799   9.843
10704SOL    HW243992   1.991   2.934   9.806
10705SOL     OW43993   3.767   3.941  14.097
10705SOL    HW143994   3.717   3.979  14.169
10705SOL    HW243995   3.714   3.957  14.019
10706SOL     OW43996   3.353   2.187   4.923
10706SOL    HW143997   3.291   2.257   4.942
10706SOL    HW243998   3.299   2.116   4.889
10707SOL     OW43999   1.202   3.294   4.486
10707SOL    HW144000   1.216   3.309   4.579
10707SOL    HW244001   1.276   3.337   4.443
10708SOL     OW44002   0.778   3.602  14.165
10708SOL    HW144003   0.711   3.611  14.232
10708SOL    HW244004   0.839   3.674  14.182
10709SOL     OW44005   4.696   0.531  17.345
10709SOL    HW144006   4.748   0.476  17.286
10709SOL    HW244007   4.757   0.556  17.415
10710SOL     OW44008   1.024   4.479   6.570
10710SOL    HW144009   0.987   4.392   6.557
10710SOL    HW244010   1.115   4.463   6.596
10711SOL     OW44011   2.005   2.899   1.914
10711SOL    HW144012   2.007   2.986   1.954
10711SOL    HW244013   1.944   2.908   1.841
10712SOL     OW44014   2.181   3.759  15.234
10712SOL    HW144015   2.227   3.719  15.160
10712SOL    HW244016   2.101   3.708  15.243
10713SOL     OW44017   3.103   4.350  20.097
10713SOL    HW144018   3.072   4.429  20.141
10713SOL    HW244019   3.192   4.371  20.070
10714SOL     OW44020   0.425   3.730  12.300
10714SOL    HW144021   0.333   3.755  12.311
10714SOL    HW244022   0.472   3.780  12.366
10715SOL     OW44023   2.604   1.140   8.288
10715SOL    HW144024   2.555   1.191   8.223
10715SOL    HW244025   2.549   1.064   8.305
10716SOL     OW44026   0.777   0.071   4.607
10716SOL    HW144027   0.761   0.070   4.513
10716SOL    HW244028   0.738   4.780   4.640
10717SOL     OW44029   2.462   4.286  15.722
10717SOL    HW144030   2.394   4.227  15.689
10717SOL    HW244031   2.508   4.235  15.788
10718SOL     OW44032   1.986   0.561   1.332
10718SOL    HW144033   2.046   0.630   1.360
10718SOL    HW244034   2.000   0.490   1.395
10719SOL     OW44035   1.416   3.310   2.167
10719SOL    HW144036   1.451   3.224   2.189
10719SOL    HW244037   1.478   3.346   2.104
10720SOL     OW44038   0.003   0.622   6.162
10720SOL    HW144039   4.761   0.602   6.250
10720SOL    HW244040   4.747   0.560   6.105
10721SOL     OW44041   1.387   2.343  17.993
10721SOL    HW144042   1.454   2.318  17.930
10721SOL    HW244043   1.431   2.405  18.052
10722SOL     OW44044   0.854   2.632  12.021
10722SOL    HW144045   0.886   2.624  11.931
10722SOL    HW244046   0.848   2.542  12.053
10723SOL     OW44047   1.382   4.517   0.995
10723SOL    HW144048   1.454   4.571   0.962
10723SOL    HW244049   1.363   4.553   1.082
10724SOL     OW44050   1.510   3.436  20.334
10724SOL    HW144051   1.544   3.351  20.306
10724SOL    HW244052   1.459   3.467  20.259
10725SOL     OW44053   0.636   3.803  20.139
10725SOL    HW144054   0.631   3.753  20.221
10725SOL    HW244055   0.556   3.855  20.138
10726SOL     OW44056   1.562   0.181  17.291
10726SOL    HW144057   1.593   0.224  17.211
10726SOL    HW244058   1.488   0.235  17.320
10727SOL     OW44059   2.430   1.188   1.259
10727SOL    HW144060   2.372   1.181   1.335
10727SOL    HW244061   2.509   1.139   1.284
10728SOL     OW44062   4.332   0.322   3.313
10728SOL    HW144063   4.369   0.373   3.385
10728SOL    HW244064   4.399   0.325   3.244
10729SOL     OW44065   3.267   3.985  12.813
10729SOL    HW144066   3.311   3.924  12.754
10729SOL    HW244067   3.205   3.930  12.862
10730SOL     OW44068   2.915   4.008  19.047
10730SOL    HW144069   2.917   3.924  19.093
10730SOL    HW244070   2.949   4.071  19.111
10731SOL     OW44071   3.950   3.576   2.148
10731SOL    HW144072   4.026   3.525   2.119
10731SOL    HW244073   3.909   3.606   2.067
10732SOL     OW44074   2.805   0.825  15.248
10732SOL    HW144075   2.799   0.863  15.160
10732SOL    HW244076   2.811   0.731  15.233
10733SOL     OW44077   4.231   3.569   5.916
10733SOL    HW144078   4.321   3.552   5.944
10733SOL    HW244079   4.187   3.604   5.994
10734SOL     OW44080   2.982   4.285   2.330
10734SOL    HW144081   3.034   4.286   2.411
10734SOL    HW244082   3.041   4.320   2.263
10735SOL     OW44083   0.552   1.155  19.684
10735SOL    HW144084   0.566   1.120  19.596
10735SOL    HW244085   0.465   1.194  19.681
10736SOL     OW44086   3.846   0.074  15.924
10736SOL    HW144087   3.807   0.011  15.985
10736SOL    HW244088   3.786   0.148  15.925
10737SOL     OW44089   3.344   1.353   6.814
10737SOL    HW144090   3.355   1.260   6.833
10737SOL    HW244091   3.281   1.356   6.742
10738SOL     OW44092   2.622   2.310   1.025
10738SOL    HW144093   2.571   2.282   0.949
10738SOL    HW244094   2.610   2.241   1.090
10739SOL     OW44095   4.778   3.475  14.567
10739SOL    HW144096   4.734   3.414  14.626
10739SOL    HW244097   4.714   3.544  14.552
10740SOL     OW44098   0.288   4.575   1.519
10740SOL    HW144099   0.230   4.546   1.589
10740SOL    HW244100   0.265   4.667   1.506
10741SOL     OW44101   2.437   2.563   8.097
10741SOL    HW144102   2.448   2.622   8.022
10741SOL    HW244103   2.398   2.484   8.059
10742SOL     OW44104   4.742   0.537   3.050
10742SOL    HW144105   4.704   0.576   2.971
10742SOL    HW244106   0.004   0.463   3.017
10743SOL     OW44107   3.361   1.323  20.236
10743SOL    HW144108   3.362   1.250  20.298
10743SOL    HW244109   3.381   1.283  20.151
10744SOL     OW44110   4.461   0.988  19.588
10744SOL    HW144111   4.371   0.960  19.605
10744SOL    HW244112   4.496   0.923  19.527
10745SOL     OW44113   4.380   4.584   0.782
10745SOL    HW144114   4.309   4.635   0.822
10745SOL    HW244115   4.356   4.577   0.690
10746SOL     OW44116   4.108   1.827  16.225
10746SOL    HW144117   4.046   1.833  16.153
10746SOL    HW244118   4.122   1.917  16.253
10747SOL     OW44119   3.190   1.378   1.580
10747SOL    HW144120   3.224   1.375   1.669
10747SOL    HW244121   3.119   1.314   1.579
10748SOL     OW44122   0.903   0.673  17.389
10748SOL    HW144123   0.942   0.648  17.305
10748SOL    HW244124   0.816   0.707  17.366
10749SOL     OW44125   1.970   1.865   1.095
10749SOL    HW144126   2.022   1.808   1.151
10749SOL    HW244127   1.895   1.890   1.149
10750SOL     OW44128   2.550   0.001  18.583
10750SOL    HW144129   2.528   4.784  18.490
10750SOL    HW244130   2.622   4.728  18.596
10751SOL     OW44131   1.410   4.464   4.230
10751SOL    HW144132   1.382   4.411   4.305
10751SOL    HW244133   1.458   4.403   4.174
10752SOL     OW44134   4.729   2.365  17.588
10752SOL    HW144135   0.017   2.338  17.637
10752SOL    HW244136   4.666   2.390  17.656
10753SOL     OW44137   1.061   4.058  15.700
10753SOL    HW144138   1.089   4.091  15.615
10753SOL    HW244139   1.069   3.963  15.692
10754SOL     OW44140   3.801   4.366  13.474
10754SOL    HW144141   3.721   4.380  13.524
10754SOL    HW244142   3.784   4.286  13.424
10755SOL     OW44143   2.830   0.902   3.560
10755SOL    HW144144   2.758   0.846   3.591
10755SOL    HW244145   2.873   0.932   3.640
10756SOL     OW44146   1.486   0.130  19.974
10756SOL    HW144147   1.546   0.064  20.008
10756SOL    HW244148   1.401   0.107  20.012
10757SOL     OW44149   3.539   0.717   0.871
10757SOL    HW144150   3.502   0.662   0.802
10757SOL    HW244151   3.562   0.799   0.827
10758SOL     OW44152   3.696   3.415   6.856
10758SOL    HW144153   3.692   3.510   6.870
10758SOL    HW244154   3.647   3.401   6.775
10759SOL     OW44155   3.249   2.116   3.995
10759SOL    HW144156   3.200   2.192   3.964
10759SOL    HW244157   3.294   2.083   3.917
10760SOL     OW44158   1.860   2.277   1.685
10760SOL    HW144159   1.803   2.353   1.700
10760SOL    HW244160   1.920   2.306   1.617
10761SOL     OW44161   0.313   0.121   4.361
10761SOL    HW144162   0.377   0.103   4.430
10761SOL    HW244163   0.319   0.216   4.348
10762SOL     OW44164   1.181   4.118  19.398
10762SOL    HW144165   1.252   4.058  19.421
10762SOL    HW244166   1.147   4.148  19.482
10763SOL     OW44167   0.482   2.930   0.645
10763SOL    HW144168   0.419   2.870   0.606
10763SOL    HW244169   0.438   3.015   0.644
10764SOL     OW44170   4.250   1.236  16.509
10764SOL    HW144171   4.288   1.149  16.497
10764SOL    HW244172   4.176   1.238  16.448
10765SOL     OW44173   2.210   0.216  19.586
10765SOL    HW144174   2.280   0.177  19.638
10765SOL    HW244175   2.250   0.234  19.501
10766SOL     OW44176   2.910   2.652   2.889
10766SOL    HW144177   2.916   2.683   2.799
10766SOL    HW244178   2.823   2.680   2.918
10767SOL     OW44179   2.926   0.032   1.632
10767SOL    HW144180   2.872   4.748   1.605
10767SOL    HW244181   2.878   0.109   1.603
10768SOL     OW44182   3.994   0.630  20.114
10768SOL    HW144183   3.976   0.575  20.190
10768SOL    HW244184   4.079   0.600  20.082
10769SOL     OW44185   2.802   2.887   8.207
10769SOL    HW144186   2.897   2.880   8.198
10769SOL    HW244187   2.769   2.800   8.184
10770SOL     OW44188   1.308   0.347  17.064
10770SOL    HW144189   1.291   0.257  17.092
10770SOL    HW244190   1.359   0.338  16.984
10771SOL     OW44191   4.344   1.265  18.297
10771SOL    HW144192   4.259   1.289  18.333
10771SOL    HW244193   4.360   1.330  18.228
10772SOL     OW44194   0.454   0.238  14.778
10772SOL    HW144195   0.409   0.204  14.701
10772SOL    HW244196   0.421   0.184  14.850
10773SOL     OW44197   0.083   1.640   3.190
10773SOL    HW144198   0.177   1.648   3.174
10773SOL    HW244199   0.076   1.582   3.266
10774SOL     OW44200   0.797   3.933  18.934
10774SOL    HW144201   0.891   3.943  18.949
10774SOL    HW244202   0.789   3.922  18.839
10775SOL     OW44203   1.502   1.979   2.427
10775SOL    HW144204   1.412   2.011   2.434
10775SOL    HW244205   1.556   2.058   2.431
10776SOL     OW44206   0.880   3.729   5.168
10776SOL    HW144207   0.896   3.752   5.076
10776SOL    HW244208   0.794   3.766   5.187
10777SOL     OW44209   2.751   0.023   0.813
10777SOL    HW144210   2.839   4.785   0.839
10777SOL    HW244211   2.693   4.747   0.851
10778SOL     OW44212   3.269   1.024   0.736
10778SOL    HW144213   3.193   0.977   0.769
10778SOL    HW244214   3.280   0.994   0.646
10779SOL     OW44215   0.209   2.493  16.183
10779SOL    HW144216   0.182   2.411  16.224
10779SOL    HW244217   0.134   2.552  16.196
10780SOL     OW44218   1.650   2.953   6.581
10780SOL    HW144219   1.740   2.950   6.548
10780SOL    HW244220   1.596   2.971   6.504
10781SOL     OW44221   2.884   2.616  20.017
10781SOL    HW144222   2.867   2.670  19.940
10781SOL    HW244223   2.843   2.664  20.089
10782SOL     OW44224   3.053   1.579   3.363
10782SOL    HW144225   3.103   1.618   3.435
10782SOL    HW244226   3.103   1.600   3.284
10783SOL     OW44227   3.495   0.777  20.454
10783SOL    HW144228   3.450   0.861  20.461
10783SOL    HW244229   3.451   0.721  20.518
10784SOL     OW44230   2.250   3.013   2.995
10784SOL    HW144231   2.228   2.929   2.954
10784SOL    HW244232   2.227   3.002   3.087
10785SOL     OW44233   3.553   0.573   4.452
10785SOL    HW144234   3.543   0.524   4.370
10785SOL    HW244235   3.477   0.549   4.504
10786SOL     OW44236   1.408   1.644   3.778
10786SOL    HW144237   1.397   1.558   3.737
10786SOL    HW244238   1.405   1.626   3.872
10787SOL     OW44239   1.297   0.361   5.187
10787SOL    HW144240   1.249   0.307   5.250
10787SOL    HW244241   1.229   0.401   5.133
10788SOL     OW44242   4.288   1.538   2.477
10788SOL    HW144243   4.302   1.528   2.571
10788SOL    HW244244   4.341   1.614   2.452
10789SOL     OW44245   3.459   3.344   0.579
10789SOL    HW144246   3.444   3.257   0.541
10789SOL    HW244247   3.467   3.402   0.503
10790SOL     OW44248   4.494   4.461   0.995
10790SOL    HW144249   4.443   4.494   0.920
10790SOL    HW244250   4.498   4.535   1.055
10791SOL     OW44251   4.669   2.103   5.526
10791SOL    HW144252   4.741   2.046   5.554
10791SOL    HW244253   4.606   2.044   5.485
10792SOL     OW44254   3.870   4.670   6.795
10792SOL    HW144255   3.958   4.635   6.778
10792SOL    HW244256   3.813   4.593   6.793
10793SOL     OW44257   1.109   2.968   0.145
10793SOL    HW144258   1.177   2.960   0.211
10793SOL    HW244259   1.155   2.959   0.062
10794SOL     OW44260   2.889   0.200  20.656
10794SOL    HW144261   2.805   0.192  20.701
10794SOL    HW244262   2.946   0.136  20.699
10795SOL     OW44263   3.195   3.128  19.886
10795SOL    HW144264   3.236   3.205  19.847
10795SOL    HW244265   3.218   3.056  19.828
10796SOL     OW44266   3.665   1.085   0.263
10796SOL    HW144267   3.636   1.077   0.354
10796SOL    HW244268   3.684   0.995   0.236
10797SOL     OW44269   2.602   0.328  17.386
10797SOL    HW144270   2.680   0.379  17.406
10797SOL    HW244271   2.548   0.335  17.465
10798SOL     OW44272   2.783   2.312   2.412
10798SOL    HW144273   2.855   2.269   2.458
10798SOL    HW244274   2.826   2.368   2.347
10799SOL     OW44275   2.414   2.858  16.603
10799SOL    HW144276   2.382   2.897  16.522
10799SOL    HW244277   2.342   2.803  16.634
10800SOL     OW44278   1.248   1.479   1.066
10800SOL    HW144279   1.247   1.442   1.154
10800SOL    HW244280   1.265   1.572   1.079
10801SOL     OW44281   1.829   1.135   3.356
10801SOL    HW144282   1.852   1.134   3.263
10801SOL    HW244283   1.908   1.165   3.400
10802SOL     OW44284   0.522   1.226   5.145
10802SOL    HW144285   0.429   1.230   5.124
10802SOL    HW244286   0.554   1.148   5.099
10803SOL     OW44287   4.691   3.466   1.699
10803SOL    HW144288   4.661   3.468   1.608
10803SOL    HW244289   4.787   3.468   1.692
10804SOL     OW44290   4.689   0.224   0.122
10804SOL    HW144291   4.774   0.215   0.166
10804SOL    HW244292   4.689   0.155   0.056
10805SOL     OW44293   1.931   0.184  21.236
10805SOL    HW144294   1.913   0.185  21.142
10805SOL    HW244295   1.846   0.201   0.020
10806SOL     OW44296   4.509   4.155   4.249
10806SOL    HW144297   4.553   4.076   4.280
10806SOL    HW244298   4.490   4.205   4.328
10807SOL     OW44299   0.013   3.833  17.129
10807SOL    HW144300   0.087   3.881  17.167
10807SOL    HW244301   0.036   3.825  17.036
10808SOL     OW44302   0.816   2.833   4.662
10808SOL    HW144303   0.735   2.852   4.710
10808SOL    HW244304   0.821   2.902   4.596
10809SOL     OW44305   1.407   3.255   2.462
10809SOL    HW144306   1.416   3.171   2.416
10809SOL    HW244307   1.488   3.302   2.442
10810SOL     OW44308   1.522   3.458   4.988
10810SOL    HW144309   1.601   3.404   4.988
10810SOL    HW244310   1.477   3.436   5.069
10811SOL     OW44311   0.059   2.930  17.288
10811SOL    HW144312   0.009   2.982  17.225
10811SOL    HW244313   0.051   2.840  17.256
10812SOL     OW44314   4.215   2.194  17.459
10812SOL    HW144315   4.268   2.213  17.536
10812SOL    HW244316   4.277   2.159  17.395
10813SOL     OW44317   0.762   2.132  17.031
10813SOL    HW144318   0.757   2.072  16.957
10813SOL    HW244319   0.829   2.196  17.006
10814SOL     OW44320   3.189   4.336  19.345
10814SOL    HW144321   3.163   4.397  19.414
10814SOL    HW244322   3.284   4.347  19.338
10815SOL     OW44323   0.694   3.581   4.748
10815SOL    HW144324   0.724   3.589   4.658
10815SOL    HW244325   0.687   3.487   4.762
10816SOL     OW44326   4.381   3.723   0.009
10816SOL    HW144327   4.438   3.720   0.085
10816SOL    HW244328   4.438   3.701  21.192
10817SOL     OW44329   1.055   3.449  21.206
10817SOL    HW144330   1.034   3.391   0.022
10817SOL    HW244331   1.084   3.530  21.247
10818SOL     OW44332   1.194   4.740   8.730
10818SOL    HW144333   1.274   4.784   8.759
10818SOL    HW244334   1.126   0.018   8.735
10819SOL     OW44335   3.499   2.954  12.980
10819SOL    HW144336   3.439   2.972  12.907
10819SOL    HW244337   3.451   2.982  13.058
10820SOL     OW44338   2.034   4.346  20.068
10820SOL    HW144339   2.049   4.437  20.044
10820SOL    HW244340   2.087   4.333  20.147
10821SOL     OW44341   2.954   4.450  19.804
10821SOL    HW144342   2.974   4.394  19.729
10821SOL    HW244343   3.039   4.481  19.835
10822SOL     OW44344   0.204   0.991   2.873
10822SOL    HW144345   0.221   1.075   2.915
10822SOL    HW244346   0.122   1.004   2.825
10823SOL     OW44347   3.479   0.770  16.400
10823SOL    HW144348   3.495   0.834  16.470
10823SOL    HW244349   3.424   0.703  16.441
10824SOL     OW44350   2.377   3.308   6.089
10824SOL    HW144351   2.296   3.281   6.046
10824SOL    HW244352   2.425   3.227   6.103
10825SOL     OW44353   2.581   1.077  16.870
10825SOL    HW144354   2.495   1.108  16.842
10825SOL    HW244355   2.581   0.984  16.848
10826SOL     OW44356   0.813   2.132  17.274
10826SOL    HW144357   0.780   2.106  17.188
10826SOL    HW244358   0.881   2.197  17.256
10827SOL     OW44359   4.478   0.545   6.720
10827SOL    HW144360   4.458   0.463   6.765
10827SOL    HW244361   4.399   0.598   6.731
10828SOL     OW44362   4.136   4.241   8.653
10828SOL    HW144363   4.099   4.320   8.693
10828SOL    HW244364   4.211   4.272   8.602
10829SOL     OW44365   2.228   0.933   3.992
10829SOL    HW144366   2.189   0.846   3.982
10829SOL    HW244367   2.175   0.990   3.937
10830SOL     OW44368   0.835   0.298  18.178
10830SOL    HW144369   0.804   0.383  18.210
10830SOL    HW244370   0.838   0.307  18.083
10831SOL     OW44371   2.875   2.975   6.658
10831SOL    HW144372   2.826   3.057   6.662
10831SOL    HW244373   2.847   2.926   6.735
10832SOL     OW44374   2.291   2.467  16.724
10832SOL    HW144375   2.325   2.386  16.685
10832SOL    HW244376   2.294   2.451  16.818
10833SOL     OW44377   1.371   0.711  20.260
10833SOL    HW144378   1.412   0.791  20.292
10833SOL    HW244379   1.399   0.704  20.169
10834SOL     OW44380   4.504   1.976   5.368
10834SOL    HW144381   4.533   1.986   5.277
10834SOL    HW244382   4.450   1.897   5.368
10835SOL     OW44383   4.059   4.018   2.798
10835SOL    HW144384   4.006   3.942   2.823
10835SOL    HW244385   4.079   4.062   2.881
10836SOL     OW44386   2.268   2.127   3.453
10836SOL    HW144387   2.191   2.108   3.400
10836SOL    HW244388   2.237   2.119   3.543
10837SOL     OW44389   0.772   4.275  18.010
10837SOL    HW144390   0.854   4.295  18.056
10837SOL    HW244391   0.783   4.185  17.979
10838SOL     OW44392   4.083   4.624   7.760
10838SOL    HW144393   4.029   4.557   7.803
10838SOL    HW244394   4.159   4.576   7.727
10839SOL     OW44395   2.170   4.500  15.232
10839SOL    HW144396   2.174   4.585  15.277
10839SOL    HW244397   2.177   4.522  15.139
10840SOL     OW44398   3.425   4.052   6.443
10840SOL    HW144399   3.388   4.030   6.358
10840SOL    HW244400   3.440   4.147   6.439
10841SOL     OW44401   1.435   0.345  16.823
10841SOL    HW144402   1.474   0.347  16.736
10841SOL    HW244403   1.341   0.334  16.807
10842SOL     OW44404   3.406   4.641   2.861
10842SOL    HW144405   3.395   4.674   2.950
10842SOL    HW244406   3.352   4.698   2.807
10843SOL     OW44407   3.640   2.519   6.523
10843SOL    HW144408   3.679   2.436   6.550
10843SOL    HW244409   3.664   2.581   6.592
10844SOL     OW44410   0.489   1.119   3.665
10844SOL    HW144411   0.546   1.055   3.708
10844SOL    HW244412   0.502   1.200   3.714
10845SOL     OW44413   4.342   2.822   1.445
10845SOL    HW144414   4.352   2.834   1.351
10845SOL    HW244415   4.429   2.838   1.481
10846SOL     OW44416   2.936   3.890   3.502
10846SOL    HW144417   2.866   3.830   3.475
10846SOL    HW244418   2.893   3.955   3.557
10847SOL     OW44419   2.920   0.607   1.355
10847SOL    HW144420   2.900   0.535   1.295
10847SOL    HW244421   3.015   0.605   1.364
10848SOL     OW44422   0.185   1.164  17.667
10848SOL    HW144423   0.160   1.072  17.658
10848SOL    HW244424   0.194   1.178  17.761
10849SOL     OW44425   1.749   2.682  16.344
10849SOL    HW144426   1.774   2.744  16.413
10849SOL    HW244427   1.661   2.709  16.318
10850SOL     OW44428   4.539   2.806  19.954
10850SOL    HW144429   4.582   2.791  20.038
10850SOL    HW244430   4.592   2.758  19.890
10851SOL     OW44431   3.174   3.870  14.819
10851SOL    HW144432   3.083   3.892  14.839
10851SOL    HW244433   3.171   3.778  14.793
10852SOL     OW44434   0.021   3.920   6.819
10852SOL    HW144435   4.771   3.998   6.858
10852SOL    HW244436   0.087   3.892   6.882
10853SOL     OW44437   1.751   4.631   0.152
10853SOL    HW144438   1.667   4.587   0.169
10853SOL    HW244439   1.757   4.699   0.219
10854SOL     OW44440   3.166   1.741   9.808
10854SOL    HW144441   3.100   1.680   9.843
10854SOL    HW244442   3.250   1.697   9.824
10855SOL     OW44443   3.549   0.049   0.854
10855SOL    HW144444   3.552   0.128   0.801
10855SOL    HW244445   3.493   0.072   0.928
10856SOL     OW44446   4.032   4.650  18.686
10856SOL    HW144447   4.079   4.567  18.691
10856SOL    HW244448   3.951   4.634  18.734
10857SOL     OW44449   0.214   0.745   3.101
10857SOL    HW144450   0.282   0.682   3.077
10857SOL    HW244451   0.202   0.799   3.023
10858SOL     OW44452   2.182   4.297  16.455
10858SOL    HW144453   2.203   4.266  16.543
10858SOL    HW244454   2.266   4.303  16.410
10859SOL     OW44455   3.180   1.209   0.198
10859SOL    HW144456   3.192   1.259   0.278
10859SOL    HW244457   3.266   1.208   0.157
10860SOL     OW44458   0.620   0.537   3.356
10860SOL    HW144459   0.695   0.563   3.409
10860SOL    HW244460   0.567   0.616   3.349
10861SOL     OW44461   2.462   0.122   4.392
10861SOL    HW144462   2.396   0.095   4.329
10861SOL    HW244463   2.435   0.210   4.418
10862SOL     OW44464   0.872   4.053   3.713
10862SOL    HW144465   0.887   4.070   3.806
10862SOL    HW244466   0.890   4.137   3.670
10863SOL     OW44467   3.215   2.946  20.223
10863SOL    HW144468   3.182   2.867  20.180
10863SOL    HW244469   3.305   2.924  20.247
10864SOL     OW44470   0.452   3.510   5.679
10864SOL    HW144471   0.375   3.551   5.640
10864SOL    HW244472   0.427   3.491   5.769
10865SOL     OW44473   1.201   1.243  21.191
10865SOL    HW144474   1.217   1.337  21.184
10865SOL    HW244475   1.288   1.205  21.203
10866SOL     OW44476   1.195   1.657   3.184
10866SOL    HW144477   1.131   1.711   3.231
10866SOL    HW244478   1.148   1.576   3.164
10867SOL     OW44479   4.003   3.179   5.165
10867SOL    HW144480   3.962   3.260   5.133
10867SOL    HW244481   4.085   3.208   5.206
10868SOL     OW44482   2.409   0.982  21.124
10868SOL    HW144483   2.460   1.017  21.197
10868SOL    HW244484   2.473   0.936  21.069
10869SOL     OW44485   0.518   4.176  19.743
10869SOL    HW144486   0.468   4.255  19.724
10869SOL    HW244487   0.567   4.159  19.662
10870SOL     OW44488   1.151   1.037  19.401
10870SOL    HW144489   1.182   0.946  19.397
10870SOL    HW244490   1.177   1.075  19.317
10871SOL     OW44491   2.628   2.523  18.777
10871SOL    HW144492   2.653   2.492  18.690
10871SOL    HW244493   2.549   2.474  18.798
10872SOL     OW44494   1.847   0.758  20.130
10872SOL    HW144495   1.807   0.685  20.082
10872SOL    HW244496   1.826   0.835  20.077
10873SOL     OW44497   4.250   1.273  15.113
10873SOL    HW144498   4.211   1.352  15.075
10873SOL    HW244499   4.326   1.305  15.162
10874SOL     OW44500   1.505   2.899  15.952
10874SOL    HW144501   1.480   2.991  15.959
10874SOL    HW244502   1.601   2.900  15.953
10875SOL     OW44503   4.202   2.547  17.498
10875SOL    HW144504   4.164   2.536  17.411
10875SOL    HW244505   4.168   2.473  17.548
10876SOL     OW44506   0.232   3.712   0.172
10876SOL    HW144507   0.254   3.680   0.085
10876SOL    HW244508   0.315   3.709   0.220
10877SOL     OW44509   3.746   3.040  17.029
10877SOL    HW144510   3.687   3.028  17.103
10877SOL    HW244511   3.825   3.079  17.067
10878SOL     OW44512   0.684   1.059  20.091
10878SOL    HW144513   0.679   1.070  20.186
10878SOL    HW244514   0.611   1.110  20.057
10879SOL     OW44515   0.419   0.451   1.163
10879SOL    HW144516   0.364   0.529   1.171
10879SOL    HW244517   0.469   0.465   1.082
10880SOL     OW44518   0.781   3.757   1.210
10880SOL    HW144519   0.771   3.713   1.294
10880SOL    HW244520   0.712   3.824   1.209
10881SOL     OW44521   2.053   3.297  15.778
10881SOL    HW144522   2.050   3.203  15.758
10881SOL    HW244523   1.983   3.310  15.842
10882SOL     OW44524   0.505   2.578   1.773
10882SOL    HW144525   0.599   2.591   1.762
10882SOL    HW244526   0.466   2.659   1.741
10883SOL     OW44527   1.591   2.738   1.711
10883SOL    HW144528   1.584   2.830   1.686
10883SOL    HW244529   1.586   2.738   1.807
10884SOL     OW44530   2.643   3.410   5.914
10884SOL    HW144531   2.647   3.494   5.960
10884SOL    HW244532   2.550   3.391   5.906
10885SOL     OW44533   4.444   4.300   1.206
10885SOL    HW144534   4.524   4.308   1.257
10885SOL    HW244535   4.467   4.336   1.120
10886SOL     OW44536   3.046   1.561  19.049
10886SOL    HW144537   2.966   1.511  19.031
10886SOL    HW244538   3.022   1.622  19.118
10887SOL     OW44539   3.103   1.131  16.653
10887SOL    HW144540   3.114   1.044  16.692
10887SOL    HW244541   3.011   1.134  16.626
10888SOL     OW44542   1.551   3.757   2.041
10888SOL    HW144543   1.619   3.816   2.008
10888SOL    HW244544   1.600   3.686   2.082
10889SOL     OW44545   4.091   4.501  20.127
10889SOL    HW144546   4.110   4.582  20.079
10889SOL    HW244547   4.015   4.523  20.181
10890SOL     OW44548   2.956   2.533  20.427
10890SOL    HW144549   2.986   2.622  20.447
10890SOL    HW244550   2.906   2.506  20.504
10891SOL     OW44551   4.684   0.003  16.175
10891SOL    HW144552   4.775   4.779  16.200
10891SOL    HW244553   4.641   0.031  16.256
10892SOL     OW44554   2.869   1.642  17.439
10892SOL    HW144555   2.785   1.659  17.397
10892SOL    HW244556   2.924   1.716  17.413
10893SOL     OW44557   0.629   1.827  17.204
10893SOL    HW144558   0.725   1.823  17.206
10893SOL    HW244559   0.604   1.835  17.296
10894SOL     OW44560   1.021   2.631  16.544
10894SOL    HW144561   0.951   2.608  16.606
10894SOL    HW244562   0.979   2.628  16.458
10895SOL     OW44563   1.739   3.112  18.205
10895SOL    HW144564   1.783   3.155  18.132
10895SOL    HW244565   1.762   3.164  18.282
10896SOL     OW44566   2.668   4.310  18.215
10896SOL    HW144567   2.740   4.326  18.154
10896SOL    HW244568   2.697   4.235  18.267
10897SOL     OW44569   2.143   1.870  19.690
10897SOL    HW144570   2.141   1.879  19.785
10897SOL    HW244571   2.063   1.822  19.668
10898SOL     OW44572   1.154   0.281  19.516
10898SOL    HW144573   1.213   0.352  19.490
10898SOL    HW244574   1.148   0.225  19.439
10899SOL     OW44575   2.966   2.059   1.407
10899SOL    HW144576   3.004   2.061   1.495
10899SOL    HW244577   3.039   2.036   1.349
10900SOL     OW44578   4.066   3.407   5.785
10900SOL    HW144579   4.124   3.475   5.820
10900SOL    HW244580   4.103   3.386   5.699
10901SOL     OW44581   0.500   2.872  16.970
10901SOL    HW144582   0.439   2.901  17.038
10901SOL    HW244583   0.502   2.944  16.907
10902SOL     OW44584   2.795   0.523  17.454
10902SOL    HW144585   2.844   0.522  17.372
10902SOL    HW244586   2.842   0.585  17.510
10903SOL     OW44587   2.279   3.742   0.734
10903SOL    HW144588   2.353   3.688   0.705
10903SOL    HW244589   2.302   3.831   0.706
10904SOL     OW44590   0.165   2.006  16.558
10904SOL    HW144591   0.070   2.021  16.556
10904SOL    HW244592   0.182   1.975  16.647
10905SOL     OW44593   1.286   0.231  17.356
10905SOL    HW144594   1.288   0.170  17.282
10905SOL    HW244595   1.193   0.249  17.370
10906SOL     OW44596   2.216   3.918   1.555
10906SOL    HW144597   2.152   3.900   1.486
10906SOL    HW244598   2.294   3.950   1.509
10907SOL     OW44599   1.172   4.510  19.580
10907SOL    HW144600   1.145   4.566  19.653
10907SOL    HW244601   1.101   4.446  19.572
10908SOL     OW44602   2.240   0.045   2.298
10908SOL    HW144603   2.283   0.124   2.331
10908SOL    HW244604   2.253   0.049   2.203
10909SOL     OW44605   3.352   0.385  20.028
10909SOL    HW144606   3.421   0.323  20.005
10909SOL    HW244607   3.313   0.410  19.944
10910SOL     OW44608   1.575   3.833  15.367
10910SOL    HW144609   1.599   3.789  15.286
10910SOL    HW244610   1.657   3.838  15.417
10911SOL     OW44611   3.125   0.933  17.380
10911SOL    HW144612   3.120   0.907  17.472
10911SOL    HW244613   3.099   1.025  17.379
10912SOL     OW44614   1.763   4.302   5.615
10912SOL    HW144615   1.708   4.373   5.648
10912SOL    HW244616   1.701   4.237   5.581
10913SOL     OW44617   3.252   2.961  21.074
10913SOL    HW144618   3.295   2.875  21.072
10913SOL    HW244619   3.190   2.955  21.146
10914SOL     OW44620   0.270   2.176   4.793
10914SOL    HW144621   0.216   2.255   4.788
10914SOL    HW244622   0.334   2.195   4.862
10915SOL     OW44623   0.805   0.244  18.784
10915SOL    HW144624   0.802   0.339  18.793
10915SOL    HW244625   0.897   0.222  18.798
10916SOL     OW44626   1.600   3.085  19.002
10916SOL    HW144627   1.694   3.101  19.014
10916SOL    HW244628   1.591   3.068  18.908
10917SOL     OW44629   3.005   4.516  16.868
10917SOL    HW144630   3.051   4.500  16.950
10917SOL    HW244631   2.979   4.429  16.837
10918SOL     OW44632   2.681   4.115   2.500
10918SOL    HW144633   2.726   4.199   2.495
10918SOL    HW244634   2.650   4.099   2.411
10919SOL     OW44635   0.646   3.078   1.422
10919SOL    HW144636   0.650   3.047   1.513
10919SOL    HW244637   0.716   3.143   1.416
10920SOL     OW44638   0.566   4.549  15.378
10920SOL    HW144639   0.652   4.557  15.418
10920SOL    HW244640   0.564   4.617  15.311
10921SOL     OW44641   2.385   1.526  17.544
10921SOL    HW144642   2.434   1.486  17.615
10921SOL    HW244643   2.339   1.453  17.502
10922SOL     OW44644   1.238   2.557   1.474
10922SOL    HW144645   1.241   2.470   1.514
10922SOL    HW244646   1.182   2.546   1.397
10923SOL     OW44647   0.250   2.384   5.395
10923SOL    HW144648   0.317   2.417   5.455
10923SOL    HW244649   0.176   2.363   5.451
10924SOL     OW44650   0.061   3.607   5.221
10924SOL    HW144651   0.060   3.511   5.218
10924SOL    HW244652   0.148   3.631   5.188
10925SOL     OW44653   2.141   3.100  17.695
10925SOL    HW144654   2.147   3.047  17.774
10925SOL    HW244655   2.093   3.178  17.723
10926SOL     OW44656   4.427   0.315  19.812
10926SOL    HW144657   4.450   0.245  19.751
10926SOL    HW244658   4.451   0.280  19.898
10927SOL     OW44659   1.869   1.211   0.678
10927SOL    HW144660   1.869   1.202   0.583
10927SOL    HW244661   1.785   1.252   0.698
10928SOL     OW44662   1.247   2.518  16.663
10928SOL    HW144663   1.183   2.559  16.605
10928SOL    HW244664   1.327   2.515  16.611
10929SOL     OW44665   1.835   1.124   5.487
10929SOL    HW144666   1.854   1.105   5.395
10929SOL    HW244667   1.746   1.159   5.487
10930SOL     OW44668   3.669   3.835   0.251
10930SOL    HW144669   3.746   3.790   0.216
10930SOL    HW244670   3.606   3.836   0.179
10931SOL     OW44671   3.205   0.765  19.677
10931SOL    HW144672   3.203   0.754  19.772
10931SOL    HW244673   3.284   0.816  19.660
10932SOL     OW44674   4.264   2.532  14.879
10932SOL    HW144675   4.257   2.538  14.784
10932SOL    HW244676   4.223   2.612  14.911
10933SOL     OW44677   2.652   0.718   8.861
10933SOL    HW144678   2.705   0.680   8.931
10933SOL    HW244679   2.607   0.644   8.821
10934SOL     OW44680   2.162   1.683  16.613
10934SOL    HW144681   2.097   1.688  16.543
10934SOL    HW244682   2.124   1.734  16.685
10935SOL     OW44683   0.588   4.720  18.190
10935SOL    HW144684   0.607   4.627  18.175
10935SOL    HW244685   0.599   4.760  18.104
10936SOL     OW44686   3.725   0.490   3.319
10936SOL    HW144687   3.733   0.585   3.321
10936SOL    HW244688   3.809   0.459   3.285
10937SOL     OW44689   0.297   1.873  21.073
10937SOL    HW144690   0.312   1.928  21.150
10937SOL    HW244691   0.234   1.807  21.103
10938SOL     OW44692   3.701   2.729  13.891
10938SOL    HW144693   3.794   2.709  13.880
10938SOL    HW244694   3.662   2.707  13.807
10939SOL     OW44695   4.596   1.285  17.922
10939SOL    HW144696   4.566   1.197  17.901
10939SOL    HW244697   4.644   1.275  18.004
10940SOL     OW44698   0.046   1.347   8.150
10940SOL    HW144699   0.089   1.301   8.078
10940SOL    HW244700   4.783   1.414   8.108
10941SOL     OW44701   3.121   0.755  20.936
10941SOL    HW144702   3.215   0.758  20.917
10941SOL    HW244703   3.111   0.804  21.018
10942SOL     OW44704   4.690   1.961  16.588
10942SOL    HW144705   4.649   1.989  16.506
10942SOL    HW244706   4.666   1.869  16.597
10943SOL     OW44707   3.648   4.552  19.422
10943SOL    HW144708   3.599   4.480  19.382
10943SOL    HW244709   3.666   4.612  19.350
10944SOL     OW44710   1.982   4.577   5.888
10944SOL    HW144711   1.963   4.582   5.982
10944SOL    HW244712   1.897   4.591   5.846
10945SOL     OW44713   0.436   0.950  20.711
10945SOL    HW144714   0.511   0.995  20.750
10945SOL    HW244715   0.372   0.942  20.782
10946SOL     OW44716   1.535   0.117   2.905
10946SOL    HW144717   1.527   0.051   2.836
10946SOL    HW244718   1.453   0.166   2.900
10947SOL     OW44719   0.050   0.695  20.685
10947SOL    HW144720   0.066   0.635  20.758
10947SOL    HW244721   4.785   0.764  20.723
10948SOL     OW44722   1.721   3.557   1.767
10948SOL    HW144723   1.809   3.522   1.756
10948SOL    HW244724   1.728   3.649   1.740
10949SOL     OW44725   0.225   2.336   3.083
10949SOL    HW144726   0.197   2.386   3.007
10949SOL    HW244727   0.155   2.272   3.097
10950SOL     OW44728   3.260   4.066  21.124
10950SOL    HW144729   3.169   4.089  21.142
10950SOL    HW244730   3.257   4.021  21.040
10951SOL     OW44731   3.403   0.836   1.851
10951SOL    HW144732   3.427   0.787   1.773
10951SOL    HW244733   3.485   0.847   1.899
10952SOL     OW44734   4.507   3.870  18.321
10952SOL    HW144735   4.537   3.830  18.239
10952SOL    HW244736   4.587   3.881  18.373
10953SOL     OW44737   1.780   0.302   3.468
10953SOL    HW144738   1.847   0.320   3.402
10953SOL    HW244739   1.709   0.260   3.419
10954SOL     OW44740   0.858   2.820  17.326
10954SOL    HW144741   0.895   2.857  17.246
10954SOL    HW244742   0.765   2.843  17.322
10955SOL     OW44743   3.488   3.600  19.936
10955SOL    HW144744   3.422   3.669  19.944
10955SOL    HW244745   3.454   3.528  19.989
10956SOL     OW44746   3.573   3.159   0.112
10956SOL    HW144747   3.536   3.142   0.198
10956SOL    HW244748   3.573   3.254   0.104
10957SOL     OW44749   2.488   0.042  19.996
10957SOL    HW144750   2.502   0.068  20.087
10957SOL    HW244751   2.508   4.738  19.995
10958SOL     OW44752   1.091   3.210  19.771
10958SOL    HW144753   1.007   3.219  19.726
10958SOL    HW244754   1.080   3.131  19.825
10959SOL     OW44755   2.860   4.637   0.530
10959SOL    HW144756   2.923   4.646   0.602
10959SOL    HW244757   2.912   4.651   0.451
10960SOL     OW44758   0.915   3.277  18.485
10960SOL    HW144759   0.880   3.223  18.556
10960SOL    HW244760   0.919   3.218  18.410
10961SOL     OW44761   3.703   1.302   1.229
10961SOL    HW144762   3.704   1.220   1.179
10961SOL    HW244763   3.630   1.352   1.192
10962SOL     OW44764   1.945   3.085  16.752
10962SOL    HW144765   2.006   3.087  16.826
10962SOL    HW244766   1.997   3.051  16.679
10963SOL     OW44767   1.933   3.391   4.284
10963SOL    HW144768   1.881   3.316   4.313
10963SOL    HW244769   1.984   3.416   4.361
10964SOL     OW44770   1.553   2.629  17.430
10964SOL    HW144771   1.566   2.628  17.335
10964SOL    HW244772   1.488   2.698  17.445
10965SOL     OW44773   1.385   0.034  19.724
10965SOL    HW144774   1.455   0.010  19.785
10965SOL    HW244775   1.386   4.753  19.659
10966SOL     OW44776   0.311   1.337   2.955
10966SOL    HW144777   0.262   1.419   2.945
10966SOL    HW244778   0.283   1.302   3.039
10967SOL     OW44779   4.425   3.912  20.916
10967SOL    HW144780   4.356   3.873  20.970
10967SOL    HW244781   4.377   3.960  20.848
10968SOL     OW44782   4.377   1.233  16.846
10968SOL    HW144783   4.322   1.158  16.826
10968SOL    HW244784   4.459   1.195  16.878
10969SOL     OW44785   2.250   1.554   3.854
10969SOL    HW144786   2.318   1.582   3.793
10969SOL    HW244787   2.235   1.462   3.833
10970SOL     OW44788   2.483   3.425  18.608
10970SOL    HW144789   2.505   3.339  18.572
10970SOL    HW244790   2.409   3.409  18.666
10971SOL     OW44791   2.347   3.117  15.549
10971SOL    HW144792   2.326   3.064  15.472
10971SOL    HW244793   2.263   3.131  15.592
10972SOL     OW44794   4.364   2.627   4.400
10972SOL    HW144795   4.363   2.691   4.329
10972SOL    HW244796   4.421   2.557   4.369
10973SOL     OW44797   4.076   4.727   1.383
10973SOL    HW144798   4.058   4.643   1.425
10973SOL    HW244799   4.171   4.738   1.389
10974SOL     OW44800   0.222   4.368  19.045
10974SOL    HW144801   0.308   4.408  19.032
10974SOL    HW244802   0.166   4.440  19.075
10975SOL     OW44803   0.703   1.809  12.676
10975SOL    HW144804   0.788   1.806  12.720
10975SOL    HW244805   0.697   1.725  12.630
10976SOL     OW44806   1.615   1.979   0.867
10976SOL    HW144807   1.538   1.965   0.811
10976SOL    HW244808   1.682   1.922   0.830
10977SOL     OW44809   4.754   4.111   1.782
10977SOL    HW144810   4.757   4.112   1.878
10977SOL    HW244811   4.692   4.042   1.761
10978SOL     OW44812   4.260   3.819   0.407
10978SOL    HW144813   4.291   3.835   0.318
10978SOL    HW244814   4.165   3.833   0.403
10979SOL     OW44815   4.360   2.484  18.229
10979SOL    HW144816   4.440   2.441  18.200
10979SOL    HW244817   4.316   2.418  18.282
10980SOL     OW44818   3.999   3.809  16.577
10980SOL    HW144819   4.027   3.763  16.656
10980SOL    HW244820   4.080   3.828  16.530
10981SOL     OW44821   0.973   2.631   0.850
10981SOL    HW144822   1.018   2.675   0.922
10981SOL    HW244823   0.891   2.599   0.888
10982SOL     OW44824   1.239   0.398  15.962
10982SOL    HW144825   1.265   0.490  15.953
10982SOL    HW244826   1.169   0.387  15.898
10983SOL     OW44827   2.731   4.290   4.710
10983SOL    HW144828   2.707   4.261   4.622
10983SOL    HW244829   2.701   4.381   4.714
10984SOL     OW44830   1.281   3.051   7.870
10984SOL    HW144831   1.374   3.074   7.874
10984SOL    HW244832   1.250   3.088   7.787
10985SOL     OW44833   4.348   2.509  19.928
10985SOL    HW144834   4.430   2.463  19.908
10985SOL    HW244835   4.284   2.439  19.941
10986SOL     OW44836   3.032   3.885  20.104
10986SOL    HW144837   3.073   3.809  20.146
10986SOL    HW244838   2.977   3.923  20.172
10987SOL     OW44839   3.555   3.364  15.532
10987SOL    HW144840   3.608   3.367  15.453
10987SOL    HW244841   3.567   3.450  15.572
10988SOL     OW44842   4.398   0.609  20.649
10988SOL    HW144843   4.347   0.621  20.729
10988SOL    HW244844   4.486   0.587  20.679
10989SOL     OW44845   4.540   0.947  19.165
10989SOL    HW144846   4.626   0.918  19.195
10989SOL    HW244847   4.479   0.910  19.229
10990SOL     OW44848   3.977   2.386   4.105
10990SOL    HW144849   3.914   2.398   4.034
10990SOL    HW244850   3.926   2.397   4.185
10991SOL     OW44851   0.913   3.262   9.314
10991SOL    HW144852   0.901   3.331   9.249
10991SOL    HW244853   0.921   3.182   9.262
10992SOL     OW44854   0.887   2.697   2.069
10992SOL    HW144855   0.874   2.766   2.134
10992SOL    HW244856   0.858   2.617   2.113
10993SOL     OW44857   0.974   1.396   8.244
10993SOL    HW144858   0.970   1.449   8.323
10993SOL    HW244859   1.018   1.452   8.180
10994SOL     OW44860   2.803   1.901   2.076
10994SOL    HW144861   2.876   1.895   2.014
10994SOL    HW244862   2.738   1.839   2.042
10995SOL     OW44863   0.735   2.623  17.505
10995SOL    HW144864   0.792   2.661  17.439
10995SOL    HW244865   0.649   2.618  17.463
10996SOL     OW44866   1.560   0.821   9.113
10996SOL    HW144867   1.533   0.742   9.160
10996SOL    HW244868   1.633   0.856   9.164
10997SOL     OW44869   3.502   3.135   1.068
10997SOL    HW144870   3.474   3.175   0.985
10997SOL    HW244871   3.425   3.142   1.125
10998SOL     OW44872   2.068   1.530   6.577
10998SOL    HW144873   2.089   1.603   6.518
10998SOL    HW244874   2.095   1.560   6.664
10999SOL     OW44875   3.961   3.565  17.590
10999SOL    HW144876   3.914   3.527  17.516
10999SOL    HW244877   3.903   3.633  17.623
11000SOL     OW44878   3.705   2.790   5.050
11000SOL    HW144879   3.747   2.708   5.076
11000SOL    HW244880   3.734   2.853   5.116
11001SOL     OW44881   2.966   1.763   8.019
11001SOL    HW144882   2.948   1.732   7.930
11001SOL    HW244883   2.907   1.711   8.075
11002SOL     OW44884   1.411   4.233   0.525
11002SOL    HW144885   1.343   4.295   0.500
11002SOL    HW244886   1.371   4.147   0.514
11003SOL     OW44887   3.800   3.352   0.005
11003SOL    HW144888   3.787   3.387  21.174
11003SOL    HW244889   3.718   3.369   0.051
11004SOL     OW44890   3.321   4.524   8.094
11004SOL    HW144891   3.246   4.571   8.131
11004SOL    HW244892   3.287   4.436   8.077
11005SOL     OW44893   2.883   3.245   8.669
11005SOL    HW144894   2.954   3.210   8.723
11005SOL    HW244895   2.806   3.243   8.726
11006SOL     OW44896   1.761   0.915  19.908
11006SOL    HW144897   1.687   0.949  19.958
11006SOL    HW244898   1.762   0.967  19.828
11007SOL     OW44899   1.444   3.682  10.560
11007SOL    HW144900   1.352   3.656  10.568
11007SOL    HW244901   1.443   3.777  10.567
11008SOL     OW44902   2.087   3.654   9.663
11008SOL    HW144903   2.060   3.585   9.603
11008SOL    HW244904   2.007   3.703   9.681
11009SOL     OW44905   0.649   3.068  11.531
11009SOL    HW144906   0.705   3.131  11.577
11009SOL    HW244907   0.710   3.009  11.487
11010SOL     OW44908   4.771   3.480   4.830
11010SOL    HW144909   4.759   3.525   4.747
11010SOL    HW244910   0.021   3.546   4.888
11011SOL     OW44911   0.258   3.455   9.214
11011SOL    HW144912   0.188   3.518   9.233
11011SOL    HW244913   0.331   3.483   9.269
11012SOL     OW44914   2.747   2.922  10.186
11012SOL    HW144915   2.699   3.002  10.206
11012SOL    HW244916   2.687   2.851  10.211
11013SOL     OW44917   1.146   3.600   9.286
11013SOL    HW144918   1.169   3.651   9.208
11013SOL    HW244919   1.171   3.510   9.265
11014SOL     OW44920   3.043   0.024   9.493
11014SOL    HW144921   3.056   0.086   9.421
11014SOL    HW244922   2.955   4.779   9.478
11015SOL     OW44923   2.928   4.079  10.390
11015SOL    HW144924   2.999   4.121  10.341
11015SOL    HW244925   2.873   4.152  10.420
11016SOL     OW44926   2.113   3.481  12.105
11016SOL    HW144927   2.154   3.567  12.107
11016SOL    HW244928   2.175   3.423  12.150
11017SOL     OW44929   2.000   3.822  11.820
11017SOL    HW144930   1.910   3.804  11.848
11017SOL    HW244931   2.017   3.758  11.750
11018SOL     OW44932   3.268   0.126  11.972
11018SOL    HW144933   3.271   0.190  12.043
11018SOL    HW244934   3.205   0.061  12.002
11019SOL     OW44935   3.741   4.543  11.956
11019SOL    HW144936   3.812   4.498  12.002
11019SOL    HW244937   3.727   4.623  12.007
11020SOL     OW44938   2.140   2.963  11.104
11020SOL    HW144939   2.234   2.978  11.116
11020SOL    HW244940   2.135   2.893  11.038
11021SOL     OW44941   2.142   2.565  12.900
11021SOL    HW144942   2.195   2.561  12.980
11021SOL    HW244943   2.193   2.621  12.841
11022SOL     OW44944   3.011   4.695  11.625
11022SOL    HW144945   3.059   4.612  11.617
11022SOL    HW244946   3.044   4.734  11.706
11023SOL     OW44947   3.790   2.946  12.909
11023SOL    HW144948   3.842   2.937  12.989
11023SOL    HW244949   3.704   2.911  12.932
11024SOL     OW44950   1.136   4.420  11.054
11024SOL    HW144951   1.169   4.342  11.099
11024SOL    HW244952   1.078   4.385  10.986
11025SOL     OW44953   2.354   2.249  12.281
11025SOL    HW144954   2.341   2.264  12.187
11025SOL    HW244955   2.273   2.207  12.310
11026SOL     OW44956   2.357   3.522  10.853
11026SOL    HW144957   2.368   3.484  10.766
11026SOL    HW244958   2.439   3.501  10.899
11027SOL     OW44959   2.441   1.671  17.045
11027SOL    HW144960   2.346   1.678  17.034
11027SOL    HW244961   2.456   1.578  17.060
11028SOL     OW44962   2.372   3.206  11.155
11028SOL    HW144963   2.417   3.122  11.144
11028SOL    HW244964   2.441   3.272  11.145
11029SOL     OW44965   1.892   3.012  10.934
11029SOL    HW144966   1.894   3.088  10.876
11029SOL    HW244967   1.949   3.035  11.007
11030SOL     OW44968   2.112   0.207  11.830
11030SOL    HW144969   2.130   0.188  11.738
11030SOL    HW244970   2.198   0.206  11.872
11031SOL     OW44971   2.667   2.190  12.473
11031SOL    HW144972   2.641   2.270  12.428
11031SOL    HW244973   2.606   2.182  12.546
11032SOL     OW44974   3.102   2.416  16.034
11032SOL    HW144975   3.161   2.341  16.029
11032SOL    HW244976   3.044   2.397  16.108
11033SOL     OW44977   2.038   0.327  18.613
11033SOL    HW144978   2.035   0.402  18.554
11033SOL    HW244979   2.069   0.255  18.558
11034SOL     OW44980   4.038   1.693  15.244
11034SOL    HW144981   4.130   1.691  15.271
11034SOL    HW244982   3.989   1.699  15.326
11035SOL     OW44983   2.260   1.391   2.444
11035SOL    HW144984   2.232   1.482   2.447
11035SOL    HW244985   2.294   1.379   2.355
11036SOL     OW44986   1.357   0.924  19.895
11036SOL    HW144987   1.430   0.940  19.955
11036SOL    HW244988   1.397   0.880  19.820
11037SOL     OW44989   2.954   0.437   5.536
11037SOL    HW144990   3.020   0.406   5.598
11037SOL    HW244991   3.003   0.460   5.457
11038SOL     OW44992   4.440   1.551   3.241
11038SOL    HW144993   4.368   1.588   3.292
11038SOL    HW244994   4.434   1.596   3.157
11039SOL     OW44995   0.397   2.960   5.740
11039SOL    HW144996   0.362   2.891   5.684
11039SOL    HW244997   0.489   2.967   5.715
11040SOL     OW44998   1.351   2.133  13.241
11040SOL    HW144999   1.273   2.089  13.274
11040SOL    HW245000   1.317   2.195  13.176
11041SOL     OW45001   3.011   2.216   8.319
11041SOL    HW145002   3.036   2.293   8.370
11041SOL    HW245003   3.053   2.143   8.365
11042SOL     OW45004   3.950   0.330   7.427
11042SOL    HW145005   4.004   0.386   7.371
11042SOL    HW245006   3.895   0.391   7.476
11043SOL     OW45007   1.842   0.723   8.436
11043SOL    HW145008   1.937   0.716   8.425
11043SOL    HW245009   1.807   0.707   8.348
11044SOL     OW45010   3.009   0.298   2.022
11044SOL    HW145011   3.051   0.334   1.944
11044SOL    HW245012   3.052   0.213   2.035
11045SOL     OW45013   1.192   3.102  16.320
11045SOL    HW145014   1.163   3.068  16.235
11045SOL    HW245015   1.173   3.032  16.382
11046SOL     OW45016   2.811   1.529  16.279
11046SOL    HW145017   2.758   1.477  16.218
11046SOL    HW245018   2.817   1.615  16.239
11047SOL     OW45019   1.602   4.629  11.884
11047SOL    HW145020   1.509   4.646  11.898
11047SOL    HW245021   1.620   4.666  11.797
11048SOL     OW45022   4.658   2.564   5.639
11048SOL    HW145023   4.569   2.558   5.603
11048SOL    HW245024   4.684   2.655   5.626
11049SOL     OW45025   0.706   4.390  17.000
11049SOL    HW145026   0.739   4.445  17.071
11049SOL    HW245027   0.783   4.343  16.968
11050SOL     OW45028   4.241   0.673   6.762
11050SOL    HW145029   4.200   0.694   6.846
11050SOL    HW245030   4.167   0.660   6.702
11051SOL     OW45031   1.183   3.501  19.790
11051SOL    HW145032   1.195   3.407  19.778
11051SOL    HW245033   1.097   3.509  19.832
11052SOL     OW45034   3.670   3.435   6.253
11052SOL    HW145035   3.630   3.513   6.291
11052SOL    HW245036   3.763   3.442   6.275
11053SOL     OW45037   0.035   0.795  13.472
11053SOL    HW145038   4.730   0.781  13.479
11053SOL    HW245039   0.050   0.878  13.518
11054SOL     OW45040   0.662   3.179  20.898
11054SOL    HW145041   0.599   3.107  20.896
11054SOL    HW245042   0.727   3.156  20.832
11055SOL     OW45043   1.005   1.120  17.931
11055SOL    HW145044   0.948   1.192  17.958
11055SOL    HW245045   1.007   1.062  18.007
11056SOL     OW45046   0.420   1.779   5.425
11056SOL    HW145047   0.451   1.747   5.510
11056SOL    HW245048   0.347   1.722   5.403
11057SOL     OW45049   3.202   2.358  20.571
11057SOL    HW145050   3.276   2.299  20.558
11057SOL    HW245051   3.175   2.383  20.483
11058SOL     OW45052   3.667   2.623   3.995
11058SOL    HW145053   3.689   2.530   3.990
11058SOL    HW245054   3.628   2.643   3.910
11059SOL     OW45055   0.900   3.424   0.350
11059SOL    HW145056   0.904   3.371   0.430
11059SOL    HW245057   0.966   3.386   0.293
11060SOL     OW45058   0.322   4.718  19.232
11060SOL    HW145059   0.234   4.685  19.212
11060SOL    HW245060   0.357   4.746  19.147
11061SOL     OW45061   2.392   0.339   4.921
11061SOL    HW145062   2.402   0.248   4.895
11061SOL    HW245063   2.302   0.344   4.954
11062SOL     OW45064   2.138   2.454  20.132
11062SOL    HW145065   2.112   2.456  20.224
11062SOL    HW245066   2.224   2.412  20.132
11063SOL     OW45067   3.359   2.885   7.942
11063SOL    HW145068   3.422   2.919   7.878
11063SOL    HW245069   3.336   2.961   7.996
11064SOL     OW45070   3.955   0.602  11.669
11064SOL    HW145071   3.957   0.536  11.738
11064SOL    HW245072   4.047   0.615  11.645
11065SOL     OW45073   3.362   1.982  18.498
11065SOL    HW145074   3.442   1.969  18.549
11065SOL    HW245075   3.303   1.912  18.527
11066SOL     OW45076   4.525   1.329   5.776
11066SOL    HW145077   4.506   1.238   5.799
11066SOL    HW245078   4.604   1.350   5.827
11067SOL     OW45079   1.971   4.221  16.220
11067SOL    HW145080   1.992   4.296  16.164
11067SOL    HW245081   2.016   4.238  16.302
11068SOL     OW45082   2.164   0.533  20.215
11068SOL    HW145083   2.153   0.594  20.288
11068SOL    HW245084   2.080   0.487  20.209
11069SOL     OW45085   2.764   3.779  11.160
11069SOL    HW145086   2.811   3.858  11.187
11069SOL    HW245087   2.682   3.811  11.123
11070SOL     OW45088   3.703   2.016  12.891
11070SOL    HW145089   3.724   1.923  12.881
11070SOL    HW245090   3.788   2.060  12.892
11071SOL     OW45091   0.211   3.558  17.510
11071SOL    HW145092   0.275   3.625  17.485
11071SOL    HW245093   0.262   3.493  17.557
11072SOL     OW45094   0.803   1.398  17.398
11072SOL    HW145095   0.750   1.463  17.444
11072SOL    HW245096   0.740   1.349  17.345
11073SOL     OW45097   1.568   3.972  20.789
11073SOL    HW145098   1.503   3.924  20.840
11073SOL    HW245099   1.625   3.904  20.754
11074SOL     OW45100   4.006   3.426   3.277
11074SOL    HW145101   3.927   3.478   3.260
11074SOL    HW245102   3.978   3.360   3.340
11075SOL     OW45103   4.495   2.411   4.989
11075SOL    HW145104   4.497   2.437   5.081
11075SOL    HW245105   4.586   2.392   4.967
11076SOL     OW45106   0.112   3.089   5.394
11076SOL    HW145107   0.045   3.024   5.373
11076SOL    HW245108   0.098   3.160   5.332
11077SOL     OW45109   2.239   3.407   8.397
11077SOL    HW145110   2.224   3.349   8.472
11077SOL    HW245111   2.309   3.466   8.425
11078SOL     OW45112   1.658   1.377   5.951
11078SOL    HW145113   1.564   1.360   5.951
11078SOL    HW245114   1.689   1.340   6.033
11079SOL     OW45115   2.227   3.849   0.483
11079SOL    HW145116   2.296   3.890   0.535
11079SOL    HW245117   2.222   3.759   0.516
11080SOL     OW45118   2.946   2.866  18.379
11080SOL    HW145119   3.039   2.867  18.402
11080SOL    HW245120   2.901   2.876  18.463
11081SOL     OW45121   0.904   1.019  20.643
11081SOL    HW145122   0.838   1.081  20.672
11081SOL    HW245123   0.917   0.961  20.718
11082SOL     OW45124   0.270   4.541   3.499
11082SOL    HW145125   0.271   4.474   3.567
11082SOL    HW245126   0.339   4.602   3.524
11083SOL     OW45127   2.033   2.132   2.651
11083SOL    HW145128   1.982   2.082   2.715
11083SOL    HW245129   2.064   2.066   2.588
11084SOL     OW45130   0.689   3.022  18.481
11084SOL    HW145131   0.603   3.062  18.498
11084SOL    HW245132   0.744   3.053  18.553
11085SOL     OW45133   0.928   2.494   2.795
11085SOL    HW145134   0.858   2.429   2.801
11085SOL    HW245135   1.008   2.442   2.790
11086SOL     OW45136   1.557   0.557  13.048
11086SOL    HW145137   1.556   0.553  12.952
11086SOL    HW245138   1.581   0.647  13.068
11087SOL     OW45139   2.437   0.928  14.767
11087SOL    HW145140   2.440   0.910  14.673
11087SOL    HW245141   2.344   0.922  14.790
11088SOL     OW45142   4.707   3.063   0.825
11088SOL    HW145143   4.659   3.117   0.887
11088SOL    HW245144   4.736   2.988   0.876
11089SOL     OW45145   2.441   2.553   5.183
11089SOL    HW145146   2.488   2.568   5.265
11089SOL    HW245147   2.464   2.628   5.128
11090SOL     OW45148   4.462   4.594   2.510
11090SOL    HW145149   4.378   4.547   2.511
11090SOL    HW245150   4.522   4.537   2.559
11091SOL     OW45151   0.527   0.707  20.579
11091SOL    HW145152   0.610   0.726  20.535
11091SOL    HW245153   0.512   0.782  20.636
11092SOL     OW45154   2.569   1.240   1.546
11092SOL    HW145155   2.510   1.179   1.589
11092SOL    HW245156   2.519   1.321   1.539
11093SOL     OW45157   3.697   2.683   2.497
11093SOL    HW145158   3.759   2.624   2.539
11093SOL    HW245159   3.752   2.744   2.448
11094SOL     OW45160   4.332   2.926  15.808
11094SOL    HW145161   4.303   2.835  15.799
11094SOL    HW245162   4.344   2.938  15.902
11095SOL     OW45163   2.167   0.045   6.334
11095SOL    HW145164   2.162   0.020   6.242
11095SOL    HW245165   2.158   4.752   6.381
11096SOL     OW45166   2.524   3.742  10.951
11096SOL    HW145167   2.569   3.735  10.867
11096SOL    HW245168   2.516   3.652  10.982
11097SOL     OW45169   0.067   2.676  17.202
11097SOL    HW145170   0.077   2.582  17.215
11097SOL    HW245171   0.087   2.690  17.109
11098SOL     OW45172   4.562   2.923  17.000
11098SOL    HW145173   4.522   2.960  17.079
11098SOL    HW245174   4.570   2.830  17.019
11099SOL     OW45175   2.209   0.839  15.555
11099SOL    HW145176   2.209   0.892  15.634
11099SOL    HW245177   2.301   0.837  15.528
11100SOL     OW45178   0.875   1.809  12.025
11100SOL    HW145179   0.847   1.720  12.003
11100SOL    HW245180   0.798   1.864  12.007
11101SOL     OW45181   4.121   2.731  20.748
11101SOL    HW145182   4.143   2.796  20.681
11101SOL    HW245183   4.204   2.688  20.767
11102SOL     OW45184   4.300   2.713  20.100
11102SOL    HW145185   4.382   2.746  20.064
11102SOL    HW245186   4.296   2.621  20.073
11103SOL     OW45187   0.739   2.933   3.951
11103SOL    HW145188   0.699   2.958   3.868
11103SOL    HW245189   0.821   2.890   3.926
11104SOL     OW45190   3.039   1.983   1.664
11104SOL    HW145191   3.049   1.928   1.742
11104SOL    HW245192   3.024   2.071   1.698
11105SOL     OW45193   1.927   1.364  19.329
11105SOL    HW145194   1.878   1.290  19.294
11105SOL    HW245195   1.932   1.348  19.423
11106SOL     OW45196   0.957   0.967   2.897
11106SOL    HW145197   0.891   1.015   2.847
11106SOL    HW245198   0.948   0.876   2.868
11107SOL     OW45199   3.448   0.564  16.608
11107SOL    HW145200   3.356   0.546  16.586
11107SOL    HW245201   3.488   0.477  16.616
11108SOL     OW45202   2.338   4.249  19.212
11108SOL    HW145203   2.261   4.237  19.268
11108SOL    HW245204   2.384   4.323  19.252
11109SOL     OW45205   0.579   3.117   4.855
11109SOL    HW145206   0.519   3.177   4.899
11109SOL    HW245207   0.663   3.129   4.900
11110SOL     OW45208   3.538   1.289  16.270
11110SOL    HW145209   3.599   1.281  16.344
11110SOL    HW245210   3.466   1.342  16.304
11111SOL     OW45211   4.755   2.456  16.519
11111SOL    HW145212   0.040   2.403  16.546
11111SOL    HW245213   4.787   2.506  16.444
11112SOL     OW45214   0.752   0.702   1.124
11112SOL    HW145215   0.750   0.642   1.049
11112SOL    HW245216   0.668   0.688   1.168
11113SOL     OW45217   4.144   0.747  19.150
11113SOL    HW145218   4.131   0.671  19.207
11113SOL    HW245219   4.201   0.715  19.080
11114SOL     OW45220   3.346   4.000   1.780
11114SOL    HW145221   3.409   3.956   1.837
11114SOL    HW245222   3.276   4.029   1.839
11115SOL     OW45223   2.721   4.190   6.485
11115SOL    HW145224   2.727   4.221   6.395
11115SOL    HW245225   2.704   4.269   6.536
11116SOL     OW45226   2.374   3.539   2.086
11116SOL    HW145227   2.403   3.463   2.035
11116SOL    HW245228   2.402   3.615   2.035
11117SOL     OW45229   2.397   3.498   9.163
11117SOL    HW145230   2.441   3.530   9.242
11117SOL    HW245231   2.304   3.495   9.186
11118SOL     OW45232   2.267   1.989  17.847
11118SOL    HW145233   2.221   2.011  17.766
11118SOL    HW245234   2.292   1.897  17.836
11119SOL     OW45235   4.238   4.337   1.661
11119SOL    HW145236   4.272   4.271   1.722
11119SOL    HW245237   4.195   4.286   1.592
11120SOL     OW45238   2.628   2.433  20.422
11120SOL    HW145239   2.617   2.350  20.375
11120SOL    HW245240   2.703   2.474  20.380
11121SOL     OW45241   4.670   2.201  12.788
11121SOL    HW145242   4.592   2.189  12.843
11121SOL    HW245243   4.667   2.293  12.761
11122SOL     OW45244   3.097   2.620  13.548
11122SOL    HW145245   3.126   2.568  13.623
11122SOL    HW245246   3.022   2.669  13.581
11123SOL     OW45247   2.756   1.387   0.012
11123SOL    HW145248   2.714   1.353   0.091
11123SOL    HW245249   2.844   1.412   0.041
11124SOL     OW45250   0.692   2.960   1.657
11124SOL    HW145251   0.744   2.899   1.605
11124SOL    HW245252   0.757   3.015   1.700
11125SOL     OW45253   2.354   4.000   0.669
11125SOL    HW145254   2.391   3.980   0.755
11125SOL    HW245255   2.406   4.074   0.637
11126SOL     OW45256   0.465   2.696  15.640
11126SOL    HW145257   0.539   2.642  15.613
11126SOL    HW245258   0.464   2.768  15.577
11127SOL     OW45259   4.727   0.333  10.662
11127SOL    HW145260   4.725   0.325  10.757
11127SOL    HW245261   0.030   0.347  10.641
11128SOL     OW45262   4.445   1.393   0.202
11128SOL    HW145263   4.388   1.389   0.278
11128SOL    HW245264   4.507   1.464   0.222
11129SOL     OW45265   3.400   1.897  12.953
11129SOL    HW145266   3.445   1.833  12.899
11129SOL    HW245267   3.392   1.974  12.897
11130SOL     OW45268   2.343   3.268  14.806
11130SOL    HW145269   2.429   3.227  14.812
11130SOL    HW245270   2.318   3.284  14.897
11131SOL     OW45271   1.231   0.561  16.428
11131SOL    HW145272   1.252   0.634  16.370
11131SOL    HW245273   1.287   0.490  16.398
11132SOL     OW45274   1.517   2.705  18.934
11132SOL    HW145275   1.465   2.783  18.913
11132SOL    HW245276   1.587   2.738  18.990
11133SOL     OW45277   0.521   3.302   5.986
11133SOL    HW145278   0.612   3.326   6.004
11133SOL    HW245279   0.471   3.383   5.999
11134SOL     OW45280   1.046   3.740  12.857
11134SOL    HW145281   1.049   3.708  12.947
11134SOL    HW245282   1.115   3.691  12.812
11135SOL     OW45283   4.212   2.451   9.762
11135SOL    HW145284   4.252   2.517   9.706
11135SOL    HW245285   4.152   2.404   9.704
11136SOL     OW45286   1.264   1.422  14.566
11136SOL    HW145287   1.341   1.369  14.545
11136SOL    HW245288   1.256   1.483  14.493
11137SOL     OW45289   3.580   1.584  13.597
11137SOL    HW145290   3.637   1.650  13.558
11137SOL    HW245291   3.500   1.588  13.544
11138SOL     OW45292   0.134   1.267   3.869
11138SOL    HW145293   0.078   1.305   3.936
11138SOL    HW245294   0.181   1.197   3.914
11139SOL     OW45295   0.242   4.505   4.844
11139SOL    HW145296   0.177   4.573   4.828
11139SOL    HW245297   0.215   4.433   4.787
11140SOL     OW45298   0.343   4.698   7.499
11140SOL    HW145299   0.331   4.667   7.589
11140SOL    HW245300   0.434   4.727   7.495
11141SOL     OW45301   4.368   4.242  16.190
11141SOL    HW145302   4.306   4.190  16.241
11141SOL    HW245303   4.445   4.185  16.181
11142SOL     OW45304   3.352   3.936   1.231
11142SOL    HW145305   3.406   3.997   1.180
11142SOL    HW245306   3.381   3.948   1.321
11143SOL     OW45307   0.590   2.473  20.256
11143SOL    HW145308   0.583   2.527  20.335
11143SOL    HW245309   0.650   2.521  20.199
11144SOL     OW45310   0.147   4.218   3.917
11144SOL    HW145311   0.069   4.217   3.861
11144SOL    HW245312   0.150   4.307   3.951
11145SOL     OW45313   3.606   2.521  12.134
11145SOL    HW145314   3.544   2.587  12.165
11145SOL    HW245315   3.692   2.563  12.142
11146SOL     OW45316   0.087   1.446  20.975
11146SOL    HW145317   0.127   1.373  20.928
11146SOL    HW245318   0.098   1.424  21.067
11147SOL     OW45319   0.370   4.269  21.018
11147SOL    HW145320   0.372   4.273  20.922
11147SOL    HW245321   0.396   4.179  21.039
11148SOL     OW45322   4.777   0.034  14.261
11148SOL    HW145323   4.780   4.765  14.186
11148SOL    HW245324   4.689   0.071  14.259
11149SOL     OW45325   3.969   2.342   4.632
11149SOL    HW145326   4.028   2.417   4.633
11149SOL    HW245327   4.006   2.283   4.567
11150SOL     OW45328   1.058   4.751   0.605
11150SOL    HW145329   1.069   4.673   0.551
11150SOL    HW245330   0.987   4.729   0.665
11151SOL     OW45331   0.538   4.453  19.578
11151SOL    HW145332   0.538   4.536  19.530
11151SOL    HW245333   0.630   4.428  19.583
11152SOL     OW45334   3.138   2.715  20.078
11152SOL    HW145335   3.175   2.633  20.111
11152SOL    HW245336   3.044   2.698  20.070
11153SOL     OW45337   0.862   3.394   5.720
11153SOL    HW145338   0.955   3.386   5.699
11153SOL    HW245339   0.857   3.376   5.814
11154SOL     OW45340   2.754   1.762   5.147
11154SOL    HW145341   2.787   1.752   5.058
11154SOL    HW245342   2.743   1.672   5.178
11155SOL     OW45343   0.381   3.102   2.040
11155SOL    HW145344   0.462   3.086   2.088
11155SOL    HW245345   0.393   3.056   1.957
11156SOL     OW45346   0.345   1.799  17.152
11156SOL    HW145347   0.435   1.821  17.128
11156SOL    HW245348   0.354   1.736  17.223
11157SOL     OW45349   1.695   1.050  15.246
11157SOL    HW145350   1.754   1.090  15.310
11157SOL    HW245351   1.637   1.121  15.219
11158SOL     OW45352   4.748   2.309  15.048
11158SOL    HW145353   4.667   2.346  15.013
11158SOL    HW245354   0.018   2.384  15.053
11159SOL     OW45355   1.933   2.109  20.031
11159SOL    HW145356   1.992   2.037  20.009
11159SOL    HW245357   1.924   2.158  19.949
11160SOL     OW45358   2.114   4.210   1.973
11160SOL    HW145359   2.107   4.248   2.061
11160SOL    HW245360   2.185   4.146   1.981
11161SOL     OW45361   3.512   4.717  18.554
11161SOL    HW145362   3.422   4.732  18.581
11161SOL    HW245363   3.565   4.747  18.628
11162SOL     OW45364   4.640   2.785  20.486
11162SOL    HW145365   4.700   2.760  20.557
11162SOL    HW245366   4.561   2.815  20.531
11163SOL     OW45367   1.835   4.770   3.288
11163SOL    HW145368   1.778   0.052   3.259
11163SOL    HW245369   1.862   4.726   3.208
11164SOL     OW45370   3.580   2.600   0.266
11164SOL    HW145371   3.669   2.567   0.282
11164SOL    HW245372   3.557   2.567   0.179
11165SOL     OW45373   3.181   1.671   0.237
11165SOL    HW145374   3.255   1.614   0.259
11165SOL    HW245375   3.209   1.759   0.263
11166SOL     OW45376   1.731   3.792   6.132
11166SOL    HW145377   1.801   3.770   6.193
11166SOL    HW245378   1.666   3.837   6.185
11167SOL     OW45379   3.477   1.455   1.065
11167SOL    HW145380   3.398   1.413   1.099
11167SOL    HW245381   3.451   1.491   0.980
11168SOL     OW45382   4.263   0.312  20.364
11168SOL    HW145383   4.352   0.294  20.395
11168SOL    HW245384   4.218   0.348  20.441
11169SOL     OW45385   3.094   4.171  14.883
11169SOL    HW145386   3.157   4.167  14.955
11169SOL    HW245387   3.031   4.237  14.910
11170SOL     OW45388   1.328   4.316  16.517
11170SOL    HW145389   1.391   4.257  16.476
11170SOL    HW245390   1.382   4.380  16.564
11171SOL     OW45391   4.138   3.978   1.189
11171SOL    HW145392   4.099   3.960   1.104
11171SOL    HW245393   4.104   4.064   1.214
11172SOL     OW45394   0.952   4.176   4.493
11172SOL    HW145395   0.909   4.254   4.459
11172SOL    HW245396   0.919   4.166   4.582
11173SOL     OW45397   4.537   1.683  12.081
11173SOL    HW145398   4.620   1.680  12.034
11173SOL    HW245399   4.505   1.593  12.080
11174SOL     OW45400   4.684   3.100   2.847
11174SOL    HW145401   4.772   3.119   2.879
11174SOL    HW245402   4.627   3.118   2.921
11175SOL     OW45403   0.692   4.025   4.614
11175SOL    HW145404   0.661   4.115   4.606
11175SOL    HW245405   0.761   4.029   4.681
11176SOL     OW45406   4.041   1.347  19.172
11176SOL    HW145407   4.019   1.310  19.257
11176SOL    HW245408   3.984   1.301  19.110
11177SOL     OW45409   2.161   2.570  17.541
11177SOL    HW145410   2.094   2.502  17.535
11177SOL    HW245411   2.163   2.594  17.634
11178SOL     OW45412   4.638   0.788  19.466
11178SOL    HW145413   4.699   0.758  19.533
11178SOL    HW245414   4.693   0.806  19.390
11179SOL     OW45415   0.917   3.416  13.989
11179SOL    HW145416   0.866   3.403  13.909
11179SOL    HW245417   0.860   3.467  14.046
11180SOL     OW45418   3.619   1.879  20.657
11180SOL    HW145419   3.706   1.865  20.694
11180SOL    HW245420   3.578   1.943  20.716
11181SOL     OW45421   1.145   2.450   4.450
11181SOL    HW145422   1.232   2.475   4.481
11181SOL    HW245423   1.160   2.418   4.361
11182SOL     OW45424   1.104   0.402   4.487
11182SOL    HW145425   1.058   0.405   4.403
11182SOL    HW245426   1.193   0.430   4.466
11183SOL     OW45427   4.205   2.815  14.724
11183SOL    HW145428   4.256   2.878  14.775
11183SOL    HW245429   4.123   2.860  14.705
11184SOL     OW45430   0.712   0.978  11.086
11184SOL    HW145431   0.776   0.973  11.015
11184SOL    HW245432   0.764   0.974  11.166
11185SOL     OW45433   4.345   1.856   0.636
11185SOL    HW145434   4.406   1.787   0.663
11185SOL    HW245435   4.321   1.901   0.717
11186SOL     OW45436   2.527   2.406   4.357
11186SOL    HW145437   2.565   2.439   4.439
11186SOL    HW245438   2.521   2.483   4.301
11187SOL     OW45439   4.205   0.238   0.849
11187SOL    HW145440   4.203   0.297   0.924
11187SOL    HW245441   4.295   0.244   0.816
11188SOL     OW45442   4.662   0.423   5.993
11188SOL    HW145443   4.587   0.367   5.976
11188SOL    HW245444   4.738   0.369   5.971
11189SOL     OW45445   3.045   0.807  20.347
11189SOL    HW145446   3.003   0.799  20.433
11189SOL    HW245447   3.110   0.737  20.345
11190SOL     OW45448   1.840   0.773   6.045
11190SOL    HW145449   1.886   0.752   5.963
11190SOL    HW245450   1.850   0.868   6.055
11191SOL     OW45451   0.578   0.799   2.425
11191SOL    HW145452   0.620   0.883   2.445
11191SOL    HW245453   0.607   0.741   2.495
11192SOL     OW45454   4.303   3.773  15.765
11192SOL    HW145455   4.250   3.845  15.732
11192SOL    HW245456   4.380   3.815  15.803
11193SOL     OW45457   3.687   2.290  12.647
11193SOL    HW145458   3.637   2.214  12.675
11193SOL    HW245459   3.721   2.266  12.561
11194SOL     OW45460   1.268   4.697   6.258
11194SOL    HW145461   1.232   4.785   6.244
11194SOL    HW245462   1.332   4.709   6.328
11195SOL     OW45463   2.648   3.784  17.347
11195SOL    HW145464   2.664   3.784  17.253
11195SOL    HW245465   2.582   3.852  17.360
11196SOL     OW45466   1.440   4.787   0.005
11196SOL    HW145467   1.507   4.721  21.244
11196SOL    HW245468   1.362   4.754  21.218
11197SOL     OW45469   3.059   3.511  13.017
11197SOL    HW145470   3.154   3.517  13.010
11197SOL    HW245471   3.041   3.417  13.016
11198SOL     OW45472   2.055   1.538   5.259
11198SOL    HW145473   2.076   1.451   5.226
11198SOL    HW245474   1.984   1.524   5.321
11199SOL     OW45475   4.639   2.466  20.119
11199SOL    HW145476   4.581   2.491  20.191
11199SOL    HW245477   4.670   2.549  20.083
11200SOL     OW45478   1.096   3.644  16.777
11200SOL    HW145479   1.025   3.619  16.718
11200SOL    HW245480   1.146   3.564  16.790
11201SOL     OW45481   0.638   0.725  17.276
11201SOL    HW145482   0.627   0.815  17.307
11201SOL    HW245483   0.637   0.732  17.181
11202SOL     OW45484   0.520   4.514   6.359
11202SOL    HW145485   0.609   4.529   6.328
11202SOL    HW245486   0.527   4.515   6.454
11203SOL     OW45487   2.304   0.433   2.522
11203SOL    HW145488   2.209   0.425   2.533
11203SOL    HW245489   2.326   0.368   2.456
11204SOL     OW45490   3.490   2.496   3.535
11204SOL    HW145491   3.476   2.497   3.440
11204SOL    HW245492   3.415   2.448   3.570
11205SOL     OW45493   2.886   4.249   0.237
11205SOL    HW145494   2.865   4.218   0.149
11205SOL    HW245495   2.974   4.285   0.229
11206SOL     OW45496   1.113   1.197  14.046
11206SOL    HW145497   1.028   1.241  14.052
11206SOL    HW245498   1.118   1.145  14.126
11207SOL     OW45499   3.626   2.114   4.880
11207SOL    HW145500   3.623   2.033   4.830
11207SOL    HW245501   3.538   2.151   4.870
11208SOL     OW45502   2.057   0.066  16.956
11208SOL    HW145503   1.992   0.106  17.014
11208SOL    HW245504   2.141   0.086  16.997
11209SOL     OW45505   3.136   0.075   3.760
11209SOL    HW145506   3.140   0.014   3.834
11209SOL    HW245507   3.165   0.159   3.796
11210SOL     OW45508   3.322   2.382  12.333
11210SOL    HW145509   3.411   2.404  12.306
11210SOL    HW245510   3.321   2.286  12.336
11211SOL     OW45511   3.614   0.741   5.966
11211SOL    HW145512   3.588   0.827   5.998
11211SOL    HW245513   3.539   0.710   5.915
11212SOL     OW45514   2.295   0.953   2.662
11212SOL    HW145515   2.336   1.035   2.691
11212SOL    HW245516   2.219   0.981   2.612
11213SOL     OW45517   0.548   0.543   0.866
11213SOL    HW145518   0.497   0.478   0.819
11213SOL    HW245519   0.639   0.514   0.856
11214SOL     OW45520   2.377   1.216   4.171
11214SOL    HW145521   2.417   1.289   4.218
11214SOL    HW245522   2.409   1.225   4.081
11215SOL     OW45523   3.606   3.782   4.065
11215SOL    HW145524   3.522   3.813   4.098
11215SOL    HW245525   3.610   3.690   4.090
11216SOL     OW45526   2.906   0.893  18.040
11216SOL    HW145527   2.935   0.984  18.043
11216SOL    HW245528   2.811   0.898  18.035
11217SOL     OW45529   3.147   2.368   4.964
11217SOL    HW145530   3.160   2.408   5.050
11217SOL    HW245531   3.078   2.420   4.923
11218SOL     OW45532   4.332   1.808   1.212
11218SOL    HW145533   4.286   1.741   1.263
11218SOL    HW245534   4.280   1.818   1.132
11219SOL     OW45535   3.888   4.346  14.014
11219SOL    HW145536   3.951   4.274  14.005
11219SOL    HW245537   3.805   4.309  13.983
11220SOL     OW45538   4.063   2.208  15.327
11220SOL    HW145539   4.066   2.118  15.295
11220SOL    HW245540   4.018   2.257  15.258
11221SOL     OW45541   4.041   2.775   0.805
11221SOL    HW145542   3.961   2.757   0.755
11221SOL    HW245543   4.044   2.705   0.870
11222SOL     OW45544   3.338   3.801  17.660
11222SOL    HW145545   3.275   3.817  17.590
11222SOL    HW245546   3.362   3.888  17.692
11223SOL     OW45547   2.530   3.337  17.611
11223SOL    HW145548   2.519   3.256  17.661
11223SOL    HW245549   2.561   3.308  17.525
11224SOL     OW45550   3.508   0.124   3.672
11224SOL    HW145551   3.434   0.169   3.632
11224SOL    HW245552   3.572   0.193   3.688
11225SOL     OW45553   0.069   4.206   1.503
11225SOL    HW145554   0.095   4.121   1.467
11225SOL    HW245555   0.059   4.190   1.597
11226SOL     OW45556   4.738   2.509   5.094
11226SOL    HW145557   4.766   2.598   5.072
11226SOL    HW245558   4.675   2.521   5.165
11227SOL     OW45559   3.998   3.232  20.527
11227SOL    HW145560   4.021   3.188  20.445
11227SOL    HW245561   4.024   3.170  20.595
11228SOL     OW45562   1.928   3.179  19.522
11228SOL    HW145563   1.966   3.242  19.461
11228SOL    HW245564   1.834   3.199  19.522
11229SOL     OW45565   1.197   0.985  17.261
11229SOL    HW145566   1.159   0.943  17.338
11229SOL    HW245567   1.149   1.067  17.253
11230SOL     OW45568   3.267   4.594   2.317
11230SOL    HW145569   3.172   4.595   2.307
11230SOL    HW245570   3.288   4.680   2.354
11231SOL     OW45571   3.910   1.329   0.977
11231SOL    HW145572   3.959   1.321   1.059
11231SOL    HW245573   3.853   1.405   0.991
11232SOL     OW45574   4.713   0.289  15.854
11232SOL    HW145575   4.748   0.292  15.765
11232SOL    HW245576   0.001   0.285  15.910
11233SOL     OW45577   0.645   0.318  13.329
11233SOL    HW145578   0.625   0.325  13.236
11233SOL    HW245579   0.621   0.403  13.365
11234SOL     OW45580   0.968   0.269  20.170
11234SOL    HW145581   1.056   0.304  20.153
11234SOL    HW245582   0.911   0.321  20.113
11235SOL     OW45583   3.673   1.244  18.591
11235SOL    HW145584   3.767   1.232  18.602
11235SOL    HW245585   3.643   1.162  18.551
11236SOL     OW45586   1.889   2.040   5.053
11236SOL    HW145587   1.953   2.105   5.026
11236SOL    HW245588   1.940   1.959   5.064
11237SOL     OW45589   0.604   4.243   1.930
11237SOL    HW145590   0.549   4.296   1.987
11237SOL    HW245591   0.591   4.153   1.960
11238SOL     OW45592   3.816   3.198  16.019
11238SOL    HW145593   3.810   3.102  16.022
11238SOL    HW245594   3.821   3.224  16.111
11239SOL     OW45595   4.773   3.910  17.501
11239SOL    HW145596   0.031   3.983  17.540
11239SOL    HW245597   0.039   3.834  17.516
11240SOL     OW45598   0.121   2.074  19.317
11240SOL    HW145599   0.113   1.979  19.308
11240SOL    HW245600   0.036   2.103  19.350
11241SOL     OW45601   0.919   1.393  16.741
11241SOL    HW145602   0.848   1.342  16.703
11241SOL    HW245603   0.999   1.347  16.716
11242SOL     OW45604   2.184   4.497  14.944
11242SOL    HW145605   2.268   4.468  14.909
11242SOL    HW245606   2.119   4.444  14.897
11243SOL     OW45607   2.491   2.074   1.685
11243SOL    HW145608   2.567   2.132   1.688
11243SOL    HW245609   2.416   2.133   1.692
11244SOL     OW45610   4.505   0.330  20.474
11244SOL    HW145611   4.540   0.417  20.492
11244SOL    HW245612   4.578   0.271  20.492
11245SOL     OW45613   2.661   0.368   4.378
11245SOL    HW145614   2.566   0.374   4.374
11245SOL    HW245615   2.684   0.403   4.464
11246SOL     OW45616   0.342   4.722  21.171
11246SOL    HW145617   0.314   4.754  21.085
11246SOL    HW245618   0.387   4.639  21.152
11247SOL     OW45619   1.323   1.250  18.674
11247SOL    HW145620   1.409   1.282  18.700
11247SOL    HW245621   1.336   1.215  18.586
11248SOL     OW45622   0.717   4.753  13.717
11248SOL    HW145623   0.708   0.001  13.629
11248SOL    HW245624   0.730   0.039  13.774
11249SOL     OW45625   4.050   2.967  17.065
11249SOL    HW145626   4.119   2.900  17.063
11249SOL    HW245627   4.044   2.993  17.157
11250SOL     OW45628   2.136   3.159   5.980
11250SOL    HW145629   2.105   3.161   6.071
11250SOL    HW245630   2.134   3.066   5.956
11251SOL     OW45631   0.911   4.461  16.686
11251SOL    HW145632   0.918   4.391  16.751
11251SOL    HW245633   0.948   4.538  16.729
11252SOL     OW45634   0.985   0.919   2.510
11252SOL    HW145635   1.077   0.900   2.492
11252SOL    HW245636   0.939   0.892   2.430
11253SOL     OW45637   3.379   1.944   6.721
11253SOL    HW145638   3.336   1.907   6.644
11253SOL    HW245639   3.465   1.971   6.689
11254SOL     OW45640   2.055   1.775   4.252
11254SOL    HW145641   2.092   1.695   4.289
11254SOL    HW245642   2.105   1.789   4.171
11255SOL     OW45643   3.548   2.757   7.177
11255SOL    HW145644   3.500   2.693   7.124
11255SOL    HW245645   3.482   2.820   7.205
11256SOL     OW45646   1.557   1.022  13.805
11256SOL    HW145647   1.515   0.983  13.882
11256SOL    HW245648   1.648   0.992  13.809
11257SOL     OW45649   4.329   1.665  15.352
11257SOL    HW145650   4.388   1.633  15.283
11257SOL    HW245651   4.296   1.585  15.394
11258SOL     OW45652   1.296   4.710  13.230
11258SOL    HW145653   1.318   4.701  13.323
11258SOL    HW245654   1.333   4.632  13.189
11259SOL     OW45655   4.022   0.945  17.326
11259SOL    HW145656   4.026   0.977  17.236
11259SOL    HW245657   4.026   0.850  17.318
11260SOL     OW45658   1.080   1.192  20.915
11260SOL    HW145659   1.154   1.147  20.874
11260SOL    HW245660   1.120   1.261  20.968
11261SOL     OW45661   2.574   4.726   6.793
11261SOL    HW145662   2.537   0.010   6.744
11261SOL    HW245663   2.605   4.765   6.875
11262SOL     OW45664   3.731   4.328   2.465
11262SOL    HW145665   3.775   4.413   2.470
11262SOL    HW245666   3.791   4.273   2.414
11263SOL     OW45667   2.695   2.180  20.894
11263SOL    HW145668   2.749   2.131  20.956
11263SOL    HW245669   2.730   2.269  20.896
11264SOL     OW45670   2.309   0.640  21.065
11264SOL    HW145671   2.233   0.693  21.088
11264SOL    HW245672   2.384   0.690  21.098
11265SOL     OW45673   0.499   1.090   1.422
11265SOL    HW145674   0.537   1.146   1.490
11265SOL    HW245675   0.575   1.056   1.375
11266SOL     OW45676   3.436   3.335   5.315
11266SOL    HW145677   3.397   3.307   5.232
11266SOL    HW245678   3.530   3.319   5.304
11267SOL     OW45679   3.610   0.927   2.033
11267SOL    HW145680   3.634   1.013   2.068
11267SOL    HW245681   3.563   0.885   2.105
11268SOL     OW45682   0.664   0.385  17.318
11268SOL    HW145683   0.623   0.466  17.349
11268SOL    HW245684   0.684   0.402  17.226
11269SOL     OW45685   2.477   1.604   1.483
11269SOL    HW145686   2.416   1.647   1.544
11269SOL    HW245687   2.564   1.629   1.515
11270SOL     OW45688   3.135   1.356  18.032
11270SOL    HW145689   3.131   1.379  17.939
11270SOL    HW245690   3.117   1.438  18.078
11271SOL     OW45691   1.550   3.297  17.119
11271SOL    HW145692   1.557   3.375  17.064
11271SOL    HW245693   1.514   3.230  17.061
11272SOL     OW45694   1.949   4.348   2.819
11272SOL    HW145695   2.036   4.309   2.824
11272SOL    HW245696   1.901   4.311   2.893
11273SOL     OW45697   2.119   2.453  19.318
11273SOL    HW145698   2.200   2.477  19.363
11273SOL    HW245699   2.055   2.440  19.388
11274SOL     OW45700   0.397   0.872  20.202
11274SOL    HW145701   0.346   0.813  20.146
11274SOL    HW245702   0.487   0.862  20.171
11275SOL     OW45703   3.748   4.772  16.581
11275SOL    HW145704   3.789   0.069  16.574
11275SOL    HW245705   3.817   4.716  16.617
11276SOL     OW45706   1.337   1.096  20.802
11276SOL    HW145707   1.346   1.070  20.710
11276SOL    HW245708   1.329   1.013  20.850
11277SOL     OW45709   2.275   1.914   0.240
11277SOL    HW145710   2.346   1.889   0.180
11277SOL    HW245711   2.219   1.971   0.188
11278SOL     OW45712   2.382   4.549  17.502
11278SOL    HW145713   2.356   4.641  17.497
11278SOL    HW245714   2.475   4.551  17.523
11279SOL     OW45715   1.145   1.236   4.763
11279SOL    HW145716   1.177   1.235   4.853
11279SOL    HW245717   1.072   1.174   4.763
11280SOL     OW45718   1.465   3.936  17.397
11280SOL    HW145719   1.441   4.004  17.334
11280SOL    HW245720   1.386   3.884  17.407
11281SOL     OW45721   1.322   0.257   2.801
11281SOL    HW145722   1.367   0.339   2.822
11281SOL    HW245723   1.327   0.250   2.706
11282SOL     OW45724   0.218   1.702  17.445
11282SOL    HW145725   0.254   1.617  17.471
11282SOL    HW245726   0.163   1.683  17.369
11283SOL     OW45727   1.359   0.461  19.411
11283SOL    HW145728   1.348   0.556  19.418
11283SOL    HW245729   1.400   0.448  19.326
11284SOL     OW45730   0.939   0.139  20.405
11284SOL    HW145731   0.846   0.137  20.428
11284SOL    HW245732   0.941   0.170  20.314
11285SOL     OW45733   3.478   0.908   1.264
11285SOL    HW145734   3.397   0.867   1.234
11285SOL    HW245735   3.486   0.880   1.355
11286SOL     OW45736   1.241   1.153  11.302
11286SOL    HW145737   1.286   1.172  11.219
11286SOL    HW245738   1.150   1.138  11.277
11287SOL     OW45739   3.964   0.970   5.434
11287SOL    HW145740   3.889   1.016   5.471
11287SOL    HW245741   3.959   0.881   5.470
11288SOL     OW45742   4.619   3.750  20.852
11288SOL    HW145743   4.544   3.808  20.867
11288SOL    HW245744   4.585   3.681  20.796
11289SOL     OW45745   3.868   2.838  18.401
11289SOL    HW145746   3.865   2.793  18.317
11289SOL    HW245747   3.961   2.840  18.424
11290SOL     OW45748   4.329   3.003  14.909
11290SOL    HW145749   4.299   3.005  15.000
11290SOL    HW245750   4.406   2.945  14.911
11291SOL     OW45751   2.775   1.608   0.487
11291SOL    HW145752   2.832   1.545   0.443
11291SOL    HW245753   2.828   1.640   0.560
11292SOL     OW45754   4.306   3.321   4.806
11292SOL    HW145755   4.274   3.242   4.849
11292SOL    HW245756   4.329   3.293   4.718
11293SOL     OW45757   2.203   2.564   3.782
11293SOL    HW145758   2.291   2.555   3.818
11293SOL    HW245759   2.193   2.658   3.765
11294SOL     OW45760   2.599   1.695  18.873
11294SOL    HW145761   2.635   1.779  18.845
11294SOL    HW245762   2.530   1.718  18.935
11295SOL     OW45763   2.648   3.912  15.313
11295SOL    HW145764   2.580   3.855  15.278
11295SOL    HW245765   2.729   3.863  15.301
11296SOL     OW45766   1.709   1.466  21.188
11296SOL    HW145767   1.738   1.404  21.121
11296SOL    HW245768   1.707   1.551  21.143
11297SOL     OW45769   4.685   1.295  19.044
11297SOL    HW145770   4.609   1.246  19.075
11297SOL    HW245771   4.694   1.367  19.106
11298SOL     OW45772   1.240   4.598   3.830
11298SOL    HW145773   1.315   4.569   3.778
11298SOL    HW245774   1.185   4.645   3.768
11299SOL     OW45775   3.205   1.476   4.388
11299SOL    HW145776   3.173   1.451   4.301
11299SOL    HW245777   3.154   1.554   4.411
11300SOL     OW45778   3.776   1.581   1.138
11300SOL    HW145779   3.702   1.625   1.181
11300SOL    HW245780   3.751   1.576   1.046
11301SOL     OW45781   4.263   2.261  20.909
11301SOL    HW145782   4.238   2.172  20.884
11301SOL    HW245783   4.193   2.316  20.875
11302SOL     OW45784   1.840   0.692   2.464
11302SOL    HW145785   1.828   0.737   2.380
11302SOL    HW245786   1.925   0.649   2.456
11303SOL     OW45787   4.508   4.396  19.804
11303SOL    HW145788   4.441   4.328  19.793
11303SOL    HW245789   4.586   4.349  19.834
11304SOL     OW45790   1.593   4.337   8.627
11304SOL    HW145791   1.659   4.319   8.561
11304SOL    HW245792   1.540   4.257   8.631
11305SOL     OW45793   0.935   0.289   4.052
11305SOL    HW145794   0.962   0.357   3.990
11305SOL    HW245795   0.862   0.245   4.009
11306SOL     OW45796   3.593   2.423  18.803
11306SOL    HW145797   3.529   2.476  18.756
11306SOL    HW245798   3.541   2.354  18.844
11307SOL     OW45799   0.188   0.476   6.648
11307SOL    HW145800   0.174   0.397   6.700
11307SOL    HW245801   0.224   0.445   6.565
11308SOL     OW45802   2.936   3.450  15.947
11308SOL    HW145803   2.904   3.540  15.957
11308SOL    HW245804   2.969   3.446  15.857
11309SOL     OW45805   3.282   3.493  15.529
11309SOL    HW145806   3.327   3.415  15.496
11309SOL    HW245807   3.352   3.555  15.549
11310SOL     OW45808   3.562   2.998   4.942
11310SOL    HW145809   3.626   2.949   4.994
11310SOL    HW245810   3.483   2.944   4.944
11311SOL     OW45811   4.208   4.051  18.162
11311SOL    HW145812   4.146   4.121  18.140
11311SOL    HW245813   4.233   4.068  18.253
11312SOL     OW45814   2.475   0.237  14.719
11312SOL    HW145815   2.415   0.307  14.692
11312SOL    HW245816   2.562   0.273  14.704
11313SOL     OW45817   2.528   3.172   1.695
11313SOL    HW145818   2.550   3.201   1.607
11313SOL    HW245819   2.595   3.107   1.716
11314SOL     OW45820   3.478   3.182  19.723
11314SOL    HW145821   3.505   3.233  19.646
11314SOL    HW245822   3.557   3.176  19.776
11315SOL     OW45823   0.493   2.300  17.194
11315SOL    HW145824   0.562   2.272  17.133
11315SOL    HW245825   0.510   2.393  17.207
11316SOL     OW45826   2.073   1.396   4.561
11316SOL    HW145827   2.102   1.311   4.527
11316SOL    HW245828   2.117   1.404   4.645
11317SOL     OW45829   1.021   2.118   0.963
11317SOL    HW145830   1.053   2.150   1.047
11317SOL    HW245831   0.983   2.032   0.983
11318SOL     OW45832   4.192   3.529  17.353
11318SOL    HW145833   4.128   3.490  17.413
11318SOL    HW245834   4.264   3.466  17.351
11319SOL     OW45835   0.851   2.921  18.299
11319SOL    HW145836   0.782   2.957  18.355
11319SOL    HW245837   0.906   2.996  18.277
11320SOL     OW45838   3.269   2.575   0.131
11320SOL    HW145839   3.253   2.497   0.077
11320SOL    HW245840   3.244   2.549   0.219
11321SOL     OW45841   2.988   4.266  19.596
11321SOL    HW145842   2.905   4.258  19.549
11321SOL    HW245843   3.047   4.206  19.550
11322SOL     OW45844   1.949   4.227  17.344
11322SOL    HW145845   2.028   4.172  17.346
11322SOL    HW245846   1.962   4.286  17.269
11323SOL     OW45847   1.729   2.248  11.682
11323SOL    HW145848   1.740   2.224  11.590
11323SOL    HW245849   1.775   2.331  11.691
11324SOL     OW45850   0.933   4.426  14.223
11324SOL    HW145851   1.023   4.404  14.246
11324SOL    HW245852   0.924   4.401  14.131
11325SOL     OW45853   3.984   1.824   3.021
11325SOL    HW145854   3.932   1.777   3.086
11325SOL    HW245855   4.053   1.867   3.072
11326SOL     OW45856   3.068   3.322   1.925
11326SOL    HW145857   3.121   3.375   1.985
11326SOL    HW245858   2.985   3.368   1.919
11327SOL     OW45859   2.154   0.874   8.606
11327SOL    HW145860   2.238   0.857   8.648
11327SOL    HW245861   2.147   0.808   8.537
11328SOL     OW45862   2.488   4.445  18.441
11328SOL    HW145863   2.462   4.355  18.420
11328SOL    HW245864   2.526   4.439  18.529
11329SOL     OW45865   1.390   0.515  17.276
11329SOL    HW145866   1.353   0.451  17.214
11329SOL    HW245867   1.374   0.600  17.235
11330SOL     OW45868   2.530   3.431   5.643
11330SOL    HW145869   2.610   3.402   5.687
11330SOL    HW245870   2.472   3.459   5.714
11331SOL     OW45871   1.520   2.144   4.553
11331SOL    HW145872   1.569   2.156   4.634
11331SOL    HW245873   1.582   2.168   4.484
11332SOL     OW45874   1.596   2.574   5.545
11332SOL    HW145875   1.628   2.540   5.629
11332SOL    HW245876   1.555   2.498   5.503
11333SOL     OW45877   2.387   0.393  19.853
11333SOL    HW145878   2.389   0.488  19.840
11333SOL    HW245879   2.381   0.356  19.765
11334SOL     OW45880   3.133   2.200   6.365
11334SOL    HW145881   3.174   2.286   6.358
11334SOL    HW245882   3.146   2.175   6.457
11335SOL     OW45883   2.819   3.506  20.207
11335SOL    HW145884   2.763   3.447  20.157
11335SOL    HW245885   2.884   3.537  20.144
11336SOL     OW45886   4.333   2.543  17.880
11336SOL    HW145887   4.305   2.469  17.934
11336SOL    HW245888   4.267   2.611  17.897
11337SOL     OW45889   0.099   1.289   4.767
11337SOL    HW145890   0.108   1.194   4.761
11337SOL    HW245891   0.176   1.318   4.816
11338SOL     OW45892   2.936   4.010   2.261
11338SOL    HW145893   2.960   4.091   2.305
11338SOL    HW245894   3.004   3.948   2.286
11339SOL     OW45895   0.736   0.491   5.529
11339SOL    HW145896   0.768   0.516   5.616
11339SOL    HW245897   0.657   0.544   5.517
11340SOL     OW45898   0.584   4.353  15.164
11340SOL    HW145899   0.585   4.410  15.241
11340SOL    HW245900   0.515   4.289  15.183
11341SOL     OW45901   0.465   2.636  15.246
11341SOL    HW145902   0.541   2.694  15.244
11341SOL    HW245903   0.390   2.695  15.256
11342SOL     OW45904   3.504   2.886   6.389
11342SOL    HW145905   3.458   2.944   6.450
11342SOL    HW245906   3.596   2.910   6.398
11343SOL     OW45907   0.560   3.547  21.036
11343SOL    HW145908   0.581   3.640  21.024
11343SOL    HW245909   0.645   3.504  21.047
11344SOL     OW45910   0.811   1.282  19.082
11344SOL    HW145911   0.866   1.205  19.091
11344SOL    HW245912   0.763   1.287  19.165
11345SOL     OW45913   2.911   3.806  18.224
11345SOL    HW145914   2.947   3.847  18.303
11345SOL    HW245915   2.981   3.748  18.194
11346SOL     OW45916   2.705   1.974  20.200
11346SOL    HW145917   2.799   1.991  20.194
11346SOL    HW245918   2.695   1.887  20.162
11347SOL     OW45919   1.879   4.610   5.344
11347SOL    HW145920   1.971   4.614   5.369
11347SOL    HW245921   1.832   4.597   5.427
11348SOL     OW45922   0.793   3.957  13.478
11348SOL    HW145923   0.743   4.039  13.484
11348SOL    HW245924   0.835   3.949  13.564
11349SOL     OW45925   2.418   0.849  13.284
11349SOL    HW145926   2.464   0.921  13.241
11349SOL    HW245927   2.336   0.840  13.236
11350SOL     OW45928   4.126   0.086  14.699
11350SOL    HW145929   4.062   0.075  14.769
11350SOL    HW245930   4.076   0.125  14.627
11351SOL     OW45931   2.052   4.010   3.593
11351SOL    HW145932   1.983   3.943   3.589
11351SOL    HW245933   2.034   4.057   3.674
11352SOL     OW45934   1.807   2.070   5.974
11352SOL    HW145935   1.828   2.031   5.889
11352SOL    HW245936   1.760   2.001   6.022
11353SOL     OW45937   4.408   4.301   7.974
11353SOL    HW145938   4.474   4.361   7.940
11353SOL    HW245939   4.455   4.244   8.035
11354SOL     OW45940   1.994   3.391  16.899
11354SOL    HW145941   2.009   3.343  16.817
11354SOL    HW245942   1.987   3.323  16.966
11355SOL     OW45943   2.481   2.519   1.970
11355SOL    HW145944   2.465   2.564   2.053
11355SOL    HW245945   2.453   2.581   1.903
11356SOL     OW45946   3.609   4.640   5.092
11356SOL    HW145947   3.584   4.671   5.005
11356SOL    HW245948   3.536   4.584   5.119
11357SOL     OW45949   0.338   1.837   2.672
11357SOL    HW145950   0.302   1.763   2.722
11357SOL    HW245951   0.424   1.806   2.642
11358SOL     OW45952   0.873   2.307   1.743
11358SOL    HW145953   0.870   2.401   1.761
11358SOL    HW245954   0.923   2.300   1.662
11359SOL     OW45955   1.039   3.840   1.234
11359SOL    HW145956   0.952   3.809   1.207
11359SOL    HW245957   1.076   3.878   1.155
11360SOL     OW45958   4.127   2.617   2.961
11360SOL    HW145959   4.214   2.587   2.989
11360SOL    HW245960   4.076   2.621   3.042
11361SOL     OW45961   1.302   1.785  16.577
11361SOL    HW145962   1.218   1.749  16.547
11361SOL    HW245963   1.368   1.733  16.531
11362SOL     OW45964   2.264   0.028   5.941
11362SOL    HW145965   2.216   4.767   5.876
11362SOL    HW245966   2.335   4.760   5.969
11363SOL     OW45967   1.793   2.478  15.009
11363SOL    HW145968   1.888   2.485  14.998
11363SOL    HW245969   1.771   2.545  15.073
11364SOL     OW45970   3.713   2.220  19.969
11364SOL    HW145971   3.720   2.315  19.980
11364SOL    HW245972   3.756   2.202  19.886
11365SOL     OW45973   4.136   3.420  15.650
11365SOL    HW145974   4.132   3.461  15.737
11365SOL    HW245975   4.175   3.334  15.665
11366SOL     OW45976   1.237   3.931   2.295
11366SOL    HW145977   1.162   3.951   2.352
11366SOL    HW245978   1.225   3.987   2.219
11367SOL     OW45979   0.212   1.523  15.447
11367SOL    HW145980   0.248   1.592  15.503
11367SOL    HW245981   0.143   1.483  15.500
11368SOL     OW45982   4.347   2.486   3.066
11368SOL    HW145983   4.381   2.511   2.980
11368SOL    HW245984   4.411   2.520   3.128
11369SOL     OW45985   1.887   1.692  17.994
11369SOL    HW145986   1.896   1.625  18.062
11369SOL    HW245987   1.943   1.661  17.923
11370SOL     OW45988   3.961   1.821   2.577
11370SOL    HW145989   4.054   1.839   2.587
11370SOL    HW245990   3.922   1.848   2.660
11371SOL     OW45991   2.981   3.180  20.433
11371SOL    HW145992   2.970   3.162  20.340
11371SOL    HW245993   2.902   3.227  20.458
11372SOL     OW45994   1.830   2.357  15.716
11372SOL    HW145995   1.818   2.373  15.810
11372SOL    HW245996   1.752   2.307  15.690
11373SOL     OW45997   1.088   4.636   3.341
11373SOL    HW145998   1.090   4.549   3.301
11373SOL    HW245999   1.056   4.693   3.271
11374SOL     OW46000   4.609   2.093  17.517
11374SOL    HW146001   4.673   2.162  17.536
11374SOL    HW246002   4.564   2.124  17.438
11375SOL     OW46003   2.127   3.253   3.513
11375SOL    HW146004   2.148   3.346   3.518
11375SOL    HW246005   2.046   3.249   3.462
11376SOL     OW46006   3.103   3.352   1.277
11376SOL    HW146007   3.066   3.365   1.190
11376SOL    HW246008   3.144   3.265   1.273
11377SOL     OW46009   1.129   3.274  18.057
11377SOL    HW146010   1.035   3.293  18.063
11377SOL    HW246011   1.133   3.187  18.017
11378SOL     OW46012   3.261   3.772   4.539
11378SOL    HW146013   3.306   3.845   4.582
11378SOL    HW246014   3.319   3.749   4.466
11379SOL     OW46015   0.276   3.027  16.178
11379SOL    HW146016   0.287   3.121  16.162
11379SOL    HW246017   0.200   3.022  16.236
11380SOL     OW46018   3.558   4.483  16.046
11380SOL    HW146019   3.585   4.574  16.061
11380SOL    HW246020   3.529   4.481  15.955
11381SOL     OW46021   0.995   0.879  16.984
11381SOL    HW146022   0.951   0.945  17.037
11381SOL    HW246023   0.930   0.809  16.974
11382SOL     OW46024   1.439   1.167  16.693
11382SOL    HW146025   1.493   1.215  16.631
11382SOL    HW246026   1.438   1.222  16.771
11383SOL     OW46027   1.189   1.350   3.173
11383SOL    HW146028   1.225   1.386   3.254
11383SOL    HW246029   1.232   1.265   3.164
11384SOL     OW46030   3.806   3.069  19.100
11384SOL    HW146031   3.860   2.990  19.097
11384SOL    HW246032   3.869   3.141  19.104
11385SOL     OW46033   4.462   4.403  15.609
11385SOL    HW146034   4.457   4.374  15.700
11385SOL    HW246035   4.420   4.489  15.609
11386SOL     OW46036   2.505   1.828  16.303
11386SOL    HW146037   2.512   1.741  16.264
11386SOL    HW246038   2.575   1.879  16.262
11387SOL     OW46039   1.108   2.332  16.844
11387SOL    HW146040   1.096   2.287  16.760
11387SOL    HW246041   1.167   2.405  16.823
11388SOL     OW46042   2.257   4.652  15.654
11388SOL    HW146043   2.235   4.661  15.561
11388SOL    HW246044   2.201   4.581  15.686
11389SOL     OW46045   0.368   3.902   2.170
11389SOL    HW146046   0.339   3.965   2.104
11389SOL    HW246047   0.287   3.869   2.209
11390SOL     OW46048   3.812   3.507  17.378
11390SOL    HW146049   3.795   3.574  17.312
11390SOL    HW246050   3.725   3.478  17.406
11391SOL     OW46051   1.181   1.294   0.624
11391SOL    HW146052   1.132   1.212   0.633
11391SOL    HW246053   1.181   1.332   0.712
11392SOL     OW46054   0.826   1.302   2.846
11392SOL    HW146055   0.915   1.333   2.832
11392SOL    HW246056   0.822   1.219   2.798
11393SOL     OW46057   4.440   2.973  17.885
11393SOL    HW146058   4.438   2.955  17.979
11393SOL    HW246059   4.446   2.887  17.844
11394SOL     OW46060   2.853   1.746  20.400
11394SOL    HW146061   2.876   1.782  20.315
11394SOL    HW246062   2.932   1.702  20.430
11395SOL     OW46063   1.984   2.546  14.072
11395SOL    HW146064   1.997   2.585  14.159
11395SOL    HW246065   1.935   2.466  14.089
11396SOL     OW46066   4.011   1.618   0.374
11396SOL    HW146067   4.087   1.676   0.367
11396SOL    HW246068   4.009   1.592   0.466
11397SOL     OW46069   4.641   3.609   2.291
11397SOL    HW146070   4.687   3.615   2.375
11397SOL    HW246071   4.592   3.691   2.284
11398SOL     OW46072   0.134   1.278   4.165
11398SOL    HW146073   0.091   1.229   4.235
11398SOL    HW246074   0.168   1.356   4.208
11399SOL     OW46075   3.027   1.984   0.766
11399SOL    HW146076   2.953   1.934   0.800
11399SOL    HW246077   2.989   2.036   0.695
11400SOL     OW46078   0.947   1.034  18.181
11400SOL    HW146079   1.017   1.068  18.236
11400SOL    HW246080   0.881   1.002  18.243
11401SOL     OW46081   4.639   2.432  21.082
11401SOL    HW146082   4.659   2.508  21.027
11401SOL    HW246083   4.619   2.470  21.168
11402SOL     OW46084   4.568   3.321   3.059
11402SOL    HW146085   4.535   3.252   3.116
11402SOL    HW246086   4.489   3.362   3.023
11403SOL     OW46087   2.145   1.897  19.974
11403SOL    HW146088   2.137   1.802  19.962
11403SOL    HW246089   2.223   1.908  20.029
11404SOL     OW46090   3.660   0.894  20.112
11404SOL    HW146091   3.568   0.870  20.119
11404SOL    HW246092   3.691   0.846  20.035
11405SOL     OW46093   0.249   3.025   2.496
11405SOL    HW146094   0.335   3.036   2.536
11405SOL    HW246095   0.205   3.109   2.509
11406SOL     OW46096   4.373   2.574  19.603
11406SOL    HW146097   4.303   2.509  19.606
11406SOL    HW246098   4.332   2.655  19.634
11407SOL     OW46099   0.361   0.460  17.214
11407SOL    HW146100   0.312   0.398  17.269
11407SOL    HW246101   0.398   0.523  17.276
11408SOL     OW46102   4.728   1.573  19.134
11408SOL    HW146103   0.019   1.615  19.164
11408SOL    HW246104   4.681   1.552  19.214
11409SOL     OW46105   4.447   0.280   2.168
11409SOL    HW146106   4.398   0.335   2.228
11409SOL    HW246107   4.538   0.288   2.197
11410SOL     OW46108   3.640   0.844   4.342
11410SOL    HW146109   3.613   0.757   4.370
11410SOL    HW246110   3.729   0.854   4.376
11411SOL     OW46111   2.321   2.162   4.276
11411SOL    HW146112   2.343   2.215   4.353
11411SOL    HW246113   2.244   2.112   4.302
11412SOL     OW46114   4.016   3.822  15.540
11412SOL    HW146115   4.051   3.809  15.628
11412SOL    HW246116   4.078   3.883  15.499
11413SOL     OW46117   1.543   2.399  16.627
11413SOL    HW146118   1.544   2.468  16.560
11413SOL    HW246119   1.586   2.439  16.703
11414SOL     OW46120   2.845   2.615  18.283
11414SOL    HW146121   2.904   2.587  18.213
11414SOL    HW246122   2.882   2.697  18.314
11415SOL     OW46123   1.687   1.284  20.442
11415SOL    HW146124   1.592   1.279  20.428
11415SOL    HW246125   1.701   1.244  20.528
11416SOL     OW46126   3.395   3.955   2.354
11416SOL    HW146127   3.364   3.981   2.267
11416SOL    HW246128   3.412   4.037   2.400
11417SOL     OW46129   2.296   1.845   2.742
11417SOL    HW146130   2.354   1.773   2.718
11417SOL    HW246131   2.333   1.921   2.697
11418SOL     OW46132   1.817   0.035  16.699
11418SOL    HW146133   1.903   4.782  16.703
11418SOL    HW246134   1.836   0.129  16.703
11419SOL     OW46135   2.281   3.319  18.814
11419SOL    HW146136   2.244   3.258  18.750
11419SOL    HW246137   2.256   3.406  18.782
11420SOL     OW46138   3.700   3.609  16.355
11420SOL    HW146139   3.720   3.689  16.307
11420SOL    HW246140   3.666   3.549  16.289
11421SOL     OW46141   3.723   0.489  15.736
11421SOL    HW146142   3.759   0.538  15.810
11421SOL    HW246143   3.800   0.462  15.685
11422SOL     OW46144   3.972   3.032  17.346
11422SOL    HW146145   4.048   3.073  17.387
11422SOL    HW246146   3.897   3.078  17.382
11423SOL     OW46147   0.142   0.504   1.672
11423SOL    HW146148   0.230   0.540   1.686
11423SOL    HW246149   0.086   0.581   1.659
11424SOL     OW46150   3.711   0.548   4.117
11424SOL    HW146151   3.797   0.506   4.121
11424SOL    HW246152   3.729   0.642   4.119
11425SOL     OW46153   4.586   1.607  18.889
11425SOL    HW146154   4.641   1.598  18.967
11425SOL    HW246155   4.558   1.518  18.869
11426SOL     OW46156   2.080   3.795  17.308
11426SOL    HW146157   2.035   3.741  17.244
11426SOL    HW246158   2.158   3.745  17.331
11427SOL     OW46159   0.573   3.508  13.968
11427SOL    HW146160   0.508   3.467  14.025
11427SOL    HW246161   0.632   3.554  14.028
11428SOL     OW46162   4.711   4.567   7.128
11428SOL    HW146163   4.703   4.662   7.116
11428SOL    HW246164   0.004   4.544   7.086
11429SOL     OW46165   4.570   4.741  16.640
11429SOL    HW146166   4.481   4.727  16.608
11429SOL    HW246167   4.593   0.039  16.610
11430SOL     OW46168   4.734   0.366   1.840
11430SOL    HW146169   0.016   0.397   1.785
11430SOL    HW246170   4.773   0.300   1.897
11431SOL     OW46171   2.344   3.125   3.388
11431SOL    HW146172   2.400   3.196   3.357
11431SOL    HW246173   2.295   3.163   3.461
11432SOL     OW46174   3.330   3.679   1.707
11432SOL    HW146175   3.234   3.673   1.708
11432SOL    HW246176   3.359   3.593   1.678
11433SOL     OW46177   0.159   0.215  16.738
11433SOL    HW146178   0.164   0.254  16.825
11433SOL    HW246179   0.242   0.237  16.697
11434SOL     OW46180   0.332   2.679  19.333
11434SOL    HW146181   0.378   2.743  19.279
11434SOL    HW246182   0.250   2.663  19.286
11435SOL     OW46183   2.617   0.069  19.759
11435SOL    HW146184   2.567   0.073  19.840
11435SOL    HW246185   2.656   4.771  19.758
11436SOL     OW46186   1.897   4.660   7.730
11436SOL    HW146187   1.822   4.650   7.789
11436SOL    HW246188   1.956   4.720   7.776
11437SOL     OW46189   0.586   0.760  19.343
11437SOL    HW146190   0.602   0.712  19.424
11437SOL    HW246191   0.640   0.715  19.278
11438SOL     OW46192   3.707   2.453  20.635
11438SOL    HW146193   3.793   2.490  20.616
11438SOL    HW246194   3.707   2.368  20.592
11439SOL     OW46195   3.532   3.251   1.426
11439SOL    HW146196   3.550   3.300   1.346
11439SOL    HW246197   3.615   3.210   1.449
11440SOL     OW46198   0.924   2.527  17.868
11440SOL    HW146199   0.946   2.620  17.863
11440SOL    HW246200   0.850   2.522  17.929
11441SOL     OW46201   4.579   0.137  14.059
11441SOL    HW146202   4.492   0.174  14.043
11441SOL    HW246203   4.635   0.177  13.992
11442SOL     OW46204   4.107   3.156  15.481
11442SOL    HW146205   4.142   3.137  15.568
11442SOL    HW246206   4.086   3.070  15.444
11443SOL     OW46207   1.711   3.205  19.328
11443SOL    HW146208   1.629   3.235  19.290
11443SOL    HW246209   1.771   3.197  19.253
11444SOL     OW46210   0.878   1.954  15.145
11444SOL    HW146211   0.870   1.920  15.056
11444SOL    HW246212   0.956   1.912  15.180
11445SOL     OW46213   4.600   1.165  20.573
11445SOL    HW146214   4.648   1.226  20.517
11445SOL    HW246215   4.605   1.082  20.527
11446SOL     OW46216   4.092   2.790   0.214
11446SOL    HW146217   4.168   2.822   0.263
11446SOL    HW246218   4.017   2.817   0.266
11447SOL     OW46219   3.606   1.064  16.176
11447SOL    HW146220   3.518   1.026  16.184
11447SOL    HW246221   3.595   1.156  16.199
11448SOL     OW46222   1.002   1.213   7.151
11448SOL    HW146223   1.067   1.230   7.082
11448SOL    HW246224   0.958   1.297   7.163
11449SOL     OW46225   4.680   3.119  18.166
11449SOL    HW146226   4.706   3.211  18.167
11449SOL    HW246227   4.762   3.071  18.180
11450SOL     OW46228   3.157   3.134  19.514
11450SOL    HW146229   3.195   3.089  19.589
11450SOL    HW246230   3.193   3.088  19.438
11451SOL     OW46231   2.831   2.257   3.748
11451SOL    HW146232   2.854   2.188   3.686
11451SOL    HW246233   2.898   2.324   3.736
11452SOL     OW46234   4.338   0.829   3.391
11452SOL    HW146235   4.409   0.804   3.331
11452SOL    HW246236   4.349   0.923   3.404
11453SOL     OW46237   4.710   1.110   3.217
11453SOL    HW146238   4.692   1.126   3.310
11453SOL    HW246239   4.625   1.117   3.175
11454SOL     OW46240   1.090   2.719   3.329
11454SOL    HW146241   1.151   2.711   3.256
11454SOL    HW246242   1.032   2.643   3.321
11455SOL     OW46243   2.536   0.089  19.057
11455SOL    HW146244   2.625   0.112  19.085
11455SOL    HW246245   2.532   0.116  18.965
11456SOL     OW46246   3.399   3.733  16.214
11456SOL    HW146247   3.494   3.721  16.217
11456SOL    HW246248   3.379   3.739  16.121
11457SOL     OW46249   4.680   4.308   1.325
11457SOL    HW146250   4.738   4.251   1.375
11457SOL    HW246251   4.710   4.397   1.346
11458SOL     OW46252   2.570   3.319  20.006
11458SOL    HW146253   2.592   3.286  19.919
11458SOL    HW246254   2.546   3.411  19.992
11459SOL     OW46255   3.122   2.105   6.617
11459SOL    HW146256   3.177   2.076   6.690
11459SOL    HW246257   3.078   2.026   6.586
11460SOL     OW46258   3.000   2.931  20.874
11460SOL    HW146259   3.048   3.014  20.881
11460SOL    HW246260   2.955   2.937  20.790
11461SOL     OW46261   1.813   0.700   8.114
11461SOL    HW146262   1.786   0.719   8.024
11461SOL    HW246263   1.739   0.728   8.168
11462SOL     OW46264   3.560   2.115   0.114
11462SOL    HW146265   3.547   2.178   0.185
11462SOL    HW246266   3.571   2.169   0.036
11463SOL     OW46267   0.320   2.341   5.118
11463SOL    HW146268   0.397   2.312   5.167
11463SOL    HW246269   0.254   2.359   5.185
11464SOL     OW46270   1.484   4.306  19.402
11464SOL    HW146271   1.579   4.296  19.399
11464SOL    HW246272   1.454   4.240  19.465
11465SOL     OW46273   1.752   1.818  16.600
11465SOL    HW146274   1.836   1.863  16.609
11465SOL    HW246275   1.728   1.829  16.508
11466SOL     OW46276   3.366   4.579  16.976
11466SOL    HW146277   3.403   4.654  16.929
11466SOL    HW246278   3.374   4.506  16.915
11467SOL     OW46279   0.763   0.715   0.273
11467SOL    HW146280   0.787   0.756   0.190
11467SOL    HW246281   0.836   0.656   0.293
11468SOL     OW46282   0.519   1.484   5.287
11468SOL    HW146283   0.541   1.406   5.236
11468SOL    HW246284   0.435   1.463   5.328
11469SOL     OW46285   3.655   4.105  21.009
11469SOL    HW146286   3.575   4.155  21.026
11469SOL    HW246287   3.624   4.023  20.970
11470SOL     OW46288   1.295   1.630  13.897
11470SOL    HW146289   1.293   1.563  13.966
11470SOL    HW246290   1.272   1.582  13.817
11471SOL     OW46291   0.854   3.572  16.190
11471SOL    HW146292   0.937   3.616  16.174
11471SOL    HW246293   0.803   3.636  16.240
11472SOL     OW46294   3.554   3.186  20.349
11472SOL    HW146295   3.495   3.259  20.367
11472SOL    HW246296   3.599   3.170  20.432
11473SOL     OW46297   3.024   1.391  20.042
11473SOL    HW146298   3.017   1.375  19.948
11473SOL    HW246299   3.046   1.484  20.049
11474SOL     OW46300   3.828   0.476  20.252
11474SOL    HW146301   3.795   0.554  20.208
11474SOL    HW246302   3.768   0.464  20.326
11475SOL     OW46303   1.276   2.045  16.468
11475SOL    HW146304   1.342   2.012  16.406
11475SOL    HW246305   1.280   1.984  16.542
11476SOL     OW46306   3.369   1.834  17.405
11476SOL    HW146307   3.338   1.786  17.328
11476SOL    HW246308   3.372   1.925  17.376
11477SOL     OW46309   0.686   0.944  16.279
11477SOL    HW146310   0.726   0.865  16.316
11477SOL    HW246311   0.757   1.008  16.278
11478SOL     OW46312   1.183   4.430   0.810
11478SOL    HW146313   1.237   4.454   0.886
11478SOL    HW246314   1.190   4.335   0.805
11479SOL     OW46315   4.784   4.688   5.988
11479SOL    HW146316   4.755   4.717   6.075
11479SOL    HW246317   4.774   4.765   5.932
11480SOL     OW46318   0.707   1.243   4.392
11480SOL    HW146319   0.765   1.315   4.415
11480SOL    HW246320   0.748   1.166   4.431
11481SOL     OW46321   4.219   4.067  15.941
11481SOL    HW146322   4.216   4.061  15.845
11481SOL    HW246323   4.295   4.122  15.960
11482SOL     OW46324   2.674   0.760   2.819
11482SOL    HW146325   2.677   0.716   2.904
11482SOL    HW246326   2.582   0.758   2.794
11483SOL     OW46327   4.399   2.151  16.151
11483SOL    HW146328   4.394   2.148  16.055
11483SOL    HW246329   4.466   2.216  16.170
11484SOL     OW46330   1.033   2.032  16.360
11484SOL    HW146331   1.111   2.025  16.415
11484SOL    HW246332   1.063   2.008  16.272
11485SOL     OW46333   3.578   3.157   6.898
11485SOL    HW146334   3.538   3.171   6.984
11485SOL    HW246335   3.630   3.236   6.883
11486SOL     OW46336   1.397   0.369  16.346
11486SOL    HW146337   1.364   0.282  16.325
11486SOL    HW246338   1.485   0.370  16.309
11487SOL     OW46339   2.819   3.481   3.373
11487SOL    HW146340   2.898   3.444   3.413
11487SOL    HW246341   2.837   3.480   3.279
11488SOL     OW46342   0.372   2.380  18.880
11488SOL    HW146343   0.433   2.453  18.877
11488SOL    HW246344   0.292   2.417  18.916
11489SOL     OW46345   2.535   4.640   0.831
11489SOL    HW146346   2.473   4.640   0.758
11489SOL    HW246347   2.482   4.664   0.907
11490SOL     OW46348   0.927   0.784   8.181
11490SOL    HW146349   0.960   0.872   8.200
11490SOL    HW246350   0.983   0.725   8.232
11491SOL     OW46351   3.128   0.949   6.029
11491SOL    HW146352   3.077   0.946   5.948
11491SOL    HW246353   3.152   0.858   6.046
11492SOL     OW46354   1.731   3.605   2.169
11492SOL    HW146355   1.773   3.580   2.251
11492SOL    HW246356   1.779   3.557   2.102
11493SOL     OW46357   2.248   3.033   1.138
11493SOL    HW146358   2.293   3.067   1.216
11493SOL    HW246359   2.316   2.986   1.090
11494SOL     OW46360   1.489   1.252  19.909
11494SOL    HW146361   1.546   1.182  19.877
11494SOL    HW246362   1.542   1.299  19.973
11495SOL     OW46363   1.449   2.643   2.726
11495SOL    HW146364   1.541   2.656   2.751
11495SOL    HW246365   1.401   2.709   2.777
11496SOL     OW46366   0.802   0.511  10.212
11496SOL    HW146367   0.850   0.579  10.164
11496SOL    HW246368   0.819   0.430  10.164
11497SOL     OW46369   2.547   2.331   2.276
11497SOL    HW146370   2.549   2.286   2.192
11497SOL    HW246371   2.634   2.317   2.314
11498SOL     OW46372   0.065   1.005  19.925
11498SOL    HW146373   4.765   0.985  19.898
11498SOL    HW246374   0.077   0.955  20.006
11499SOL     OW46375   2.380   4.611  14.004
11499SOL    HW146376   2.400   4.558  14.081
11499SOL    HW246377   2.318   4.677  14.035
11500SOL     OW46378   4.338   4.456  17.632
11500SOL    HW146379   4.322   4.364  17.653
11500SOL    HW246380   4.379   4.454  17.545
11501SOL     OW46381   0.024   3.733   4.883
11501SOL    HW146382   4.752   3.756   4.952
11501SOL    HW246383   0.080   3.810   4.875
11502SOL     OW46384   1.649   2.806   2.258
11502SOL    HW146385   1.715   2.851   2.310
11502SOL    HW246386   1.646   2.717   2.294
11503SOL     OW46387   0.944   4.495   4.483
11503SOL    HW146388   1.023   4.549   4.483
11503SOL    HW246389   0.923   4.483   4.390
11504SOL     OW46390   0.602   2.010   3.395
11504SOL    HW146391   0.655   2.087   3.416
11504SOL    HW246392   0.549   2.037   3.320
11505SOL     OW46393   4.518   1.881   5.930
11505SOL    HW146394   4.529   1.866   5.836
11505SOL    HW246395   4.603   1.914   5.959
11506SOL     OW46396   3.971   2.265  16.083
11506SOL    HW146397   3.904   2.198  16.070
11506SOL    HW246398   4.035   2.249  16.014
11507SOL     OW46399   4.472   0.890   2.632
11507SOL    HW146400   4.460   0.863   2.723
11507SOL    HW246401   4.483   0.808   2.584
11508SOL     OW46402   3.020   4.277   2.923
11508SOL    HW146403   3.072   4.296   2.845
11508SOL    HW246404   3.084   4.273   2.994
11509SOL     OW46405   2.829   0.548  15.369
11509SOL    HW146406   2.901   0.556  15.432
11509SOL    HW246407   2.861   0.486  15.303
11510SOL     OW46408   4.279   3.864   3.746
11510SOL    HW146409   4.230   3.923   3.689
11510SOL    HW246410   4.216   3.839   3.814
11511SOL     OW46411   0.543   1.046  19.444
11511SOL    HW146412   0.486   1.090  19.382
11511SOL    HW246413   0.552   0.957  19.409
11512SOL     OW46414   0.458   4.785  15.616
11512SOL    HW146415   0.529   4.734  15.656
11512SOL    HW246416   0.380   4.732  15.631
11513SOL     OW46417   0.846   2.769  16.955
11513SOL    HW146418   0.811   2.734  16.873
11513SOL    HW246419   0.825   2.702  17.020
11514SOL     OW46420   1.312   1.604  20.647
11514SOL    HW146421   1.236   1.662  20.656
11514SOL    HW246422   1.373   1.635  20.714
11515SOL     OW46423   1.801   2.774   5.886
11515SOL    HW146424   1.763   2.794   5.801
11515SOL    HW246425   1.825   2.681   5.881
11516SOL     OW46426   3.455   2.261  19.469
11516SOL    HW146427   3.453   2.176  19.513
11516SOL    HW246428   3.459   2.240  19.376
11517SOL     OW46429   0.407   4.492   1.904
11517SOL    HW146430   0.503   4.498   1.908
11517SOL    HW246431   0.382   4.464   1.992
11518SOL     OW46432   0.073   3.873  21.082
11518SOL    HW146433   0.051   3.965  21.067
11518SOL    HW246434   0.153   3.859  21.031
11519SOL     OW46435   1.797   3.146  15.684
11519SOL    HW146436   1.766   3.211  15.748
11519SOL    HW246437   1.717   3.113  15.643
11520SOL     OW46438   1.701   3.957  16.819
11520SOL    HW146439   1.788   3.995  16.808
11520SOL    HW246440   1.706   3.873  16.773
11521SOL     OW46441   4.438   1.432   7.524
11521SOL    HW146442   4.358   1.470   7.487
11521SOL    HW246443   4.433   1.339   7.501
11522SOL     OW46444   0.519   0.684   5.640
11522SOL    HW146445   0.553   0.704   5.727
11522SOL    HW246446   0.480   0.597   5.649
11523SOL     OW46447   0.714   4.283  17.720
11523SOL    HW146448   0.801   4.297  17.758
11523SOL    HW246449   0.679   4.207  17.767
11524SOL     OW46450   0.352   0.010  17.415
11524SOL    HW146451   0.425   0.067  17.440
11524SOL    HW246452   0.392   4.714  17.399
11525SOL     OW46453   1.617   3.326  19.698
11525SOL    HW146454   1.683   3.281  19.750
11525SOL    HW246455   1.535   3.281  19.718
11526SOL     OW46456   0.828   0.524  19.307
11526SOL    HW146457   0.829   0.558  19.396
11526SOL    HW246458   0.862   0.596  19.253
11527SOL     OW46459   3.065   3.696   7.588
11527SOL    HW146460   2.980   3.654   7.602
11527SOL    HW246461   3.102   3.706   7.676
11528SOL     OW46462   1.892   4.538   4.249
11528SOL    HW146463   1.827   4.595   4.208
11528SOL    HW246464   1.856   4.450   4.239
11529SOL     OW46465   2.818   1.586   0.939
11529SOL    HW146466   2.865   1.531   1.001
11529SOL    HW246467   2.735   1.541   0.925
11530SOL     OW46468   2.908   3.287   0.375
11530SOL    HW146469   2.846   3.277   0.303
11530SOL    HW246470   2.897   3.378   0.404
11531SOL     OW46471   3.466   4.519  14.690
11531SOL    HW146472   3.559   4.497  14.701
11531SOL    HW246473   3.445   4.489  14.602
11532SOL     OW46474   3.793   3.021   4.780
11532SOL    HW146475   3.702   3.000   4.801
11532SOL    HW246476   3.809   3.105   4.824
11533SOL     OW46477   1.589   3.519  13.855
11533SOL    HW146478   1.667   3.465  13.849
11533SOL    HW246479   1.554   3.522  13.766
11534SOL     OW46480   1.769   2.970  15.993
11534SOL    HW146481   1.836   3.034  16.019
11534SOL    HW246482   1.792   2.890  16.040
11535SOL     OW46483   0.909   3.073   6.737
11535SOL    HW146484   0.979   3.138   6.736
11535SOL    HW246485   0.902   3.044   6.646
11536SOL     OW46486   4.418   4.656   6.618
11536SOL    HW146487   4.505   4.687   6.593
11536SOL    HW246488   4.367   4.736   6.633
11537SOL     OW46489   4.696   1.156  19.470
11537SOL    HW146490   4.781   1.174  19.511
11537SOL    HW246491   4.649   1.105  19.535
11538SOL     OW46492   0.502   4.709   1.021
11538SOL    HW146493   0.553   4.695   1.101
11538SOL    HW246494   0.507   4.625   0.975
11539SOL     OW46495   4.072   2.544  17.267
11539SOL    HW146496   4.067   2.494  17.185
11539SOL    HW246497   4.006   2.612  17.257
11540SOL     OW46498   3.970   0.346  15.943
11540SOL    HW146499   3.973   0.255  15.974
11540SOL    HW246500   4.040   0.351  15.878
11541SOL     OW46501   1.557   4.634  18.146
11541SOL    HW146502   1.502   4.709  18.123
11541SOL    HW246503   1.588   4.654  18.234
11542SOL     OW46504   0.966   2.579   6.119
11542SOL    HW146505   0.882   2.561   6.076
11542SOL    HW246506   0.980   2.503   6.176
11543SOL     OW46507   3.265   2.305   2.345
11543SOL    HW146508   3.257   2.347   2.431
11543SOL    HW246509   3.279   2.377   2.284
11544SOL     OW46510   0.651   0.401  20.107
11544SOL    HW146511   0.669   0.471  20.044
11544SOL    HW246512   0.579   0.435  20.160
11545SOL     OW46513   4.467   3.729   2.903
11545SOL    HW146514   4.441   3.783   2.978
11545SOL    HW246515   4.526   3.664   2.940
11546SOL     OW46516   2.653   3.898   0.540
11546SOL    HW146517   2.690   3.986   0.549
11546SOL    HW246518   2.638   3.887   0.446
11547SOL     OW46519   3.969   2.940  15.229
11547SOL    HW146520   3.917   2.866  15.198
11547SOL    HW246521   3.908   3.014  15.228
11548SOL     OW46522   2.411   0.838  19.592
11548SOL    HW146523   2.378   0.888  19.518
11548SOL    HW246524   2.506   0.836  19.580
11549SOL     OW46525   1.622   4.744   4.434
11549SOL    HW146526   1.705   4.700   4.454
11549SOL    HW246527   1.615   4.741   4.339
11550SOL     OW46528   4.135   4.454   7.035
11550SOL    HW146529   4.149   4.495   6.950
11550SOL    HW246530   4.079   4.515   7.082
11551SOL     OW46531   1.070   0.191   0.241
11551SOL    HW146532   1.109   0.106   0.223
11551SOL    HW246533   0.995   0.172   0.298
11552SOL     OW46534   3.088   0.193  18.676
11552SOL    HW146535   3.010   0.212  18.624
11552SOL    HW246536   3.062   0.209  18.766
11553SOL     OW46537   4.655   3.958  19.349
11553SOL    HW146538   4.707   3.981  19.272
11553SOL    HW246539   4.581   4.019  19.347
11554SOL     OW46540   4.309   1.828  20.334
11554SOL    HW146541   4.290   1.774  20.257
11554SOL    HW246542   4.255   1.791  20.403
11555SOL     OW46543   0.488   0.435   4.888
11555SOL    HW146544   0.551   0.390   4.831
11555SOL    HW246545   0.418   0.463   4.829
11556SOL     OW46546   4.085   4.436   0.694
11556SOL    HW146547   4.127   4.519   0.670
11556SOL    HW246548   4.122   4.414   0.779
11557SOL     OW46549   3.232   0.416   6.813
11557SOL    HW146550   3.245   0.328   6.778
11557SOL    HW246551   3.137   0.429   6.809
11558SOL     OW46552   3.843   2.714  18.664
11558SOL    HW146553   3.781   2.764  18.717
11558SOL    HW246554   3.838   2.754  18.577
11559SOL     OW46555   2.018   4.613  21.004
11559SOL    HW146556   2.052   4.565  21.080
11559SOL    HW246557   2.094   4.625  20.948
11560SOL     OW46558   0.943   2.148   5.427
11560SOL    HW146559   0.922   2.089   5.499
11560SOL    HW246560   1.014   2.202   5.461
11561SOL     OW46561   3.293   4.666  16.432
11561SOL    HW146562   3.220   4.648  16.492
11561SOL    HW246563   3.372   4.652  16.485
11562SOL     OW46564   2.570   4.531   2.890
11562SOL    HW146565   2.592   4.494   2.975
11562SOL    HW246566   2.625   4.484   2.828
11563SOL     OW46567   3.342   4.107   0.355
11563SOL    HW146568   3.258   4.144   0.330
11563SOL    HW246569   3.358   4.142   0.443
11564SOL     OW46570   0.900   3.310   2.245
11564SOL    HW146571   0.869   3.234   2.295
11564SOL    HW246572   0.921   3.376   2.311
11565SOL     OW46573   3.736   3.412  18.782
11565SOL    HW146574   3.681   3.399  18.705
11565SOL    HW246575   3.676   3.446  18.849
11566SOL     OW46576   4.415   1.487  20.092
11566SOL    HW146577   4.506   1.501  20.066
11566SOL    HW246578   4.366   1.554  20.044
11567SOL     OW46579   2.394   0.733   3.999
11567SOL    HW146580   2.477   0.741   3.951
11567SOL    HW246581   2.345   0.812   3.975
11568SOL     OW46582   1.542   1.204   4.746
11568SOL    HW146583   1.547   1.203   4.842
11568SOL    HW246584   1.631   1.183   4.717
11569SOL     OW46585   1.184   4.173   2.765
11569SOL    HW146586   1.227   4.090   2.743
11569SOL    HW246587   1.207   4.232   2.693
11570SOL     OW46588   3.828   4.489  19.909
11570SOL    HW146589   3.905   4.453  19.866
11570SOL    HW246590   3.836   4.584  19.897
11571SOL     OW46591   2.082   2.965  16.057
11571SOL    HW146592   2.079   3.058  16.078
11571SOL    HW246593   2.143   2.959  15.984
11572SOL     OW46594   0.417   3.353   2.177
11572SOL    HW146595   0.457   3.326   2.095
11572SOL    HW246596   0.333   3.307   2.179
11573SOL     OW46597   3.023   0.429   4.674
11573SOL    HW146598   3.026   0.385   4.589
11573SOL    HW246599   2.930   0.446   4.688
11574SOL     OW46600   2.171   4.539   5.125
11574SOL    HW146601   2.161   4.628   5.158
11574SOL    HW246602   2.265   4.528   5.114
11575SOL     OW46603   1.533   3.545  20.897
11575SOL    HW146604   1.467   3.489  20.855
11575SOL    HW246605   1.562   3.604  20.827
11576SOL     OW46606   3.574   2.844   2.680
11576SOL    HW146607   3.591   2.918   2.622
11576SOL    HW246608   3.606   2.768   2.632
11577SOL     OW46609   2.567   4.219  20.082
11577SOL    HW146610   2.576   4.154  20.012
11577SOL    HW246611   2.637   4.282  20.065
11578SOL     OW46612   1.681   2.457  18.426
11578SOL    HW146613   1.623   2.382  18.410
11578SOL    HW246614   1.622   2.532  18.433
11579SOL     OW46615   3.132   3.151  18.694
11579SOL    HW146616   3.188   3.122  18.766
11579SOL    HW246617   3.171   3.233  18.665
11580SOL     OW46618   3.718   0.319   7.044
11580SOL    HW146619   3.758   0.403   7.020
11580SOL    HW246620   3.782   0.254   7.016
11581SOL     OW46621   2.495   0.275   0.434
11581SOL    HW146622   2.485   0.370   0.426
11581SOL    HW246623   2.547   0.263   0.513
11582SOL     OW46624   4.277   1.555  19.305
11582SOL    HW146625   4.290   1.463  19.281
11582SOL    HW246626   4.366   1.591  19.308
11583SOL     OW46627   1.107   0.102   5.045
11583SOL    HW146628   1.045   0.150   5.100
11583SOL    HW246629   1.052   0.048   4.988
11584SOL     OW46630   3.973   0.231  21.041
11584SOL    HW146631   3.889   0.185  21.039
11584SOL    HW246632   4.032   0.174  20.992
11585SOL     OW46633   4.137   4.425  15.531
11585SOL    HW146634   4.105   4.352  15.584
11585SOL    HW246635   4.125   4.396  15.441
11586SOL     OW46636   2.923   1.244   5.304
11586SOL    HW146637   2.988   1.311   5.280
11586SOL    HW246638   2.894   1.208   5.220
11587SOL     OW46639   4.041   0.460   6.307
11587SOL    HW146640   4.063   0.513   6.230
11587SOL    HW246641   3.952   0.486   6.329
11588SOL     OW46642   4.471   0.103   5.065
11588SOL    HW146643   4.421   0.027   5.096
11588SOL    HW246644   4.507   0.142   5.144
11589SOL     OW46645   1.955   0.803  19.180
11589SOL    HW146646   2.047   0.823  19.162
11589SOL    HW246647   1.926   0.874  19.237
11590SOL     OW46648   2.233   2.633   4.305
11590SOL    HW146649   2.226   2.569   4.234
11590SOL    HW246650   2.314   2.681   4.286
11591SOL     OW46651   0.606   1.588  18.933
11591SOL    HW146652   0.670   1.549  18.992
11591SOL    HW246653   0.611   1.682  18.951
11592SOL     OW46654   2.883   3.984   5.012
11592SOL    HW146655   2.804   4.031   5.037
11592SOL    HW246656   2.955   4.041   5.039
11593SOL     OW46657   1.110   0.096  15.061
11593SOL    HW146658   1.042   0.072  15.124
11593SOL    HW246659   1.158   0.166  15.104
11594SOL     OW46660   2.063   3.857   2.943
11594SOL    HW146661   2.146   3.903   2.934
11594SOL    HW246662   2.003   3.905   2.886
11595SOL     OW46663   0.750   2.947   6.943
11595SOL    HW146664   0.778   2.985   6.860
11595SOL    HW246665   0.698   2.871   6.918
11596SOL     OW46666   1.031   4.468   3.116
11596SOL    HW146667   1.093   4.396   3.131
11596SOL    HW246668   1.043   4.491   3.024
11597SOL     OW46669   1.368   3.161  18.688
11597SOL    HW146670   1.353   3.067  18.683
11597SOL    HW246671   1.460   3.169  18.714
11598SOL     OW46672   3.178   1.426  21.057
11598SOL    HW146673   3.211   1.366  21.124
11598SOL    HW246674   3.098   1.462  21.095
11599SOL     OW46675   2.298   2.984  15.882
11599SOL    HW146676   2.382   2.939  15.886
11599SOL    HW246677   2.319   3.071  15.849
11600SOL     OW46678   0.556   3.563  16.350
11600SOL    HW146679   0.607   3.482  16.340
11600SOL    HW246680   0.525   3.561  16.441
11601SOL     OW46681   4.521   3.409  20.070
11601SOL    HW146682   4.501   3.319  20.096
11601SOL    HW246683   4.507   3.461  20.149
11602SOL     OW46684   1.543   1.292  15.242
11602SOL    HW146685   1.544   1.386  15.259
11602SOL    HW246686   1.514   1.284  15.151
11603SOL     OW46687   2.787   4.575   3.347
11603SOL    HW146688   2.727   4.541   3.414
11603SOL    HW246689   2.753   4.662   3.326
11604SOL     OW46690   2.512   4.667  19.245
11604SOL    HW146691   2.574   4.597  19.224
11604SOL    HW246692   2.515   4.725  19.169
11605SOL     OW46693   0.577   1.530   2.333
11605SOL    HW146694   0.641   1.463   2.357
11605SOL    HW246695   0.618   1.578   2.261
11606SOL     OW46696   4.184   1.180  19.636
11606SOL    HW146697   4.248   1.247  19.660
11606SOL    HW246698   4.154   1.144  19.719
11607SOL     OW46699   1.493   4.680  14.525
11607SOL    HW146700   1.518   4.593  14.493
11607SOL    HW246701   1.398   4.685  14.512
11608SOL     OW46702   2.216   2.756   6.373
11608SOL    HW146703   2.202   2.847   6.399
11608SOL    HW246704   2.305   2.755   6.338
11609SOL     OW46705   2.718   1.450   5.159
11609SOL    HW146706   2.666   1.437   5.238
11609SOL    HW246707   2.712   1.367   5.112
11610SOL     OW46708   4.611   0.289   0.471
11610SOL    HW146709   4.539   0.347   0.447
11610SOL    HW246710   4.679   0.348   0.503
11611SOL     OW46711   0.607   1.322   5.814
11611SOL    HW146712   0.620   1.342   5.721
11611SOL    HW246713   0.553   1.243   5.814
11612SOL     OW46714   4.574   3.992  20.661
11612SOL    HW146715   4.566   3.942  20.580
11612SOL    HW246716   4.567   3.927  20.730
11613SOL     OW46717   1.640   1.063   4.271
11613SOL    HW146718   1.635   1.054   4.366
11613SOL    HW246719   1.549   1.066   4.243
11614SOL     OW46720   2.018   1.943  16.097
11614SOL    HW146721   1.968   1.979  16.024
11614SOL    HW246722   2.073   2.016  16.126
11615SOL     OW46723   2.653   1.178  19.019
11615SOL    HW146724   2.732   1.196  18.967
11615SOL    HW246725   2.680   1.193  19.110
11616SOL     OW46726   1.993   2.788   2.751
11616SOL    HW146727   2.074   2.754   2.790
11616SOL    HW246728   1.984   2.876   2.789
11617SOL     OW46729   3.230   2.983  19.008
11617SOL    HW146730   3.282   2.967  18.929
11617SOL    HW246731   3.185   2.900  19.025
11618SOL     OW46732   3.404   4.552  15.769
11618SOL    HW146733   3.352   4.628  15.795
11618SOL    HW246734   3.362   4.478  15.813
11619SOL     OW46735   1.417   4.484  13.089
11619SOL    HW146736   1.387   4.417  13.028
11619SOL    HW246737   1.510   4.494  13.070
11620SOL     OW46738   1.430   0.992   4.643
11620SOL    HW146739   1.438   1.076   4.688
11620SOL    HW246740   1.363   0.945   4.692
11621SOL     OW46741   1.445   1.634  16.389
11621SOL    HW146742   1.393   1.625  16.309
11621SOL    HW246743   1.514   1.568  16.381
11622SOL     OW46744   2.556   1.351   4.410
11622SOL    HW146745   2.477   1.322   4.456
11622SOL    HW246746   2.595   1.271   4.376
11623SOL     OW46747   0.044   1.250   2.291
11623SOL    HW146748   0.093   1.233   2.211
11623SOL    HW246749   4.768   1.315   2.266
11624SOL     OW46750   3.937   4.187  18.534
11624SOL    HW146751   3.974   4.243  18.465
11624SOL    HW246752   3.976   4.101  18.519
11625SOL     OW46753   4.038   4.725  16.636
11625SOL    HW146754   4.057   4.753  16.726
11625SOL    HW246755   4.076   0.004  16.581
11626SOL     OW46756   3.539   1.857   5.075
11626SOL    HW146757   3.480   1.927   5.103
11626SOL    HW246758   3.496   1.777   5.104
11627SOL     OW46759   3.892   2.433  18.819
11627SOL    HW146760   3.912   2.516  18.775
11627SOL    HW246761   3.800   2.441  18.845
11628SOL     OW46762   3.310   1.490   6.161
11628SOL    HW146763   3.357   1.438   6.096
11628SOL    HW246764   3.343   1.579   6.149
11629SOL     OW46765   1.235   1.980   8.753
11629SOL    HW146766   1.211   2.073   8.752
11629SOL    HW246767   1.235   1.955   8.661
11630SOL     OW46768   3.958   1.776   4.619
11630SOL    HW146769   3.938   1.754   4.710
11630SOL    HW246770   3.992   1.866   4.623
11631SOL     OW46771   4.290   3.544   0.612
11631SOL    HW146772   4.332   3.623   0.578
11631SOL    HW246773   4.217   3.528   0.553
11632SOL     OW46774   4.347   4.246  18.987
11632SOL    HW146775   4.255   4.251  18.963
11632SOL    HW246776   4.364   4.152  18.997
11633SOL     OW46777   1.745   3.469   4.704
11633SOL    HW146778   1.690   3.419   4.644
11633SOL    HW246779   1.727   3.432   4.790
11634SOL     OW46780   0.556   2.665  17.721
11634SOL    HW146781   0.541   2.746  17.673
11634SOL    HW246782   0.619   2.616  17.668
11635SOL     OW46783   2.746   4.655  12.785
11635SOL    HW146784   2.683   4.631  12.717
11635SOL    HW246785   2.695   4.707  12.848
11636SOL     OW46786   2.324   1.965  14.138
11636SOL    HW146787   2.317   2.039  14.198
11636SOL    HW246788   2.406   1.922  14.163
11637SOL     OW46789   0.601   0.557  17.686
11637SOL    HW146790   0.536   0.500  17.728
11637SOL    HW246791   0.579   0.645  17.717
11638SOL     OW46792   4.783   2.186   3.131
11638SOL    HW146793   4.742   2.220   3.052
11638SOL    HW246794   0.014   2.095   3.110
11639SOL     OW46795   3.854   1.403   2.009
11639SOL    HW146796   3.786   1.428   1.946
11639SOL    HW246797   3.887   1.320   1.976
11640SOL     OW46798   1.913   1.804  20.952
11640SOL    HW146799   1.939   1.867  21.019
11640SOL    HW246800   1.972   1.821  20.879
11641SOL     OW46801   3.449   3.768   5.350
11641SOL    HW146802   3.363   3.725   5.345
11641SOL    HW246803   3.466   3.778   5.444
11642SOL     OW46804   0.656   3.379   5.525
11642SOL    HW146805   0.742   3.353   5.558
11642SOL    HW246806   0.612   3.417   5.601
11643SOL     OW46807   1.294   1.593   4.029
11643SOL    HW146808   1.225   1.652   4.059
11643SOL    HW246809   1.296   1.523   4.094
11644SOL     OW46810   4.058   0.505  13.888
11644SOL    HW146811   4.101   0.461  13.961
11644SOL    HW246812   4.120   0.498  13.816
11645SOL     OW46813   3.273   4.617   0.205
11645SOL    HW146814   3.353   4.604   0.155
11645SOL    HW246815   3.302   4.659   0.286
11646SOL     OW46816   3.277   1.770   2.033
11646SOL    HW146817   3.335   1.836   2.071
11646SOL    HW246818   3.289   1.693   2.089
11647SOL     OW46819   2.372   3.166   0.222
11647SOL    HW146820   2.360   3.098   0.156
11647SOL    HW246821   2.290   3.165   0.271
11648SOL     OW46822   2.103   2.260   4.978
11648SOL    HW146823   2.166   2.296   5.040
11648SOL    HW246824   2.074   2.336   4.927
11649SOL     OW46825   4.715   0.163  13.816
11649SOL    HW146826   4.678   0.095  13.759
11649SOL    HW246827   0.019   0.145  13.817
11650SOL     OW46828   2.112   0.727   2.442
11650SOL    HW146829   2.174   0.780   2.392
11650SOL    HW246830   2.167   0.672   2.498
11651SOL     OW46831   2.717   1.907  18.409
11651SOL    HW146832   2.672   1.988  18.433
11651SOL    HW246833   2.793   1.936  18.358
11652SOL     OW46834   3.844   2.307   4.868
11652SOL    HW146835   3.888   2.322   4.784
11652SOL    HW246836   3.767   2.255   4.846
11653SOL     OW46837   0.665   0.973  17.373
11653SOL    HW146838   0.690   0.960  17.464
11653SOL    HW246839   0.739   1.020  17.334
11654SOL     OW46840   1.974   3.697  18.626
11654SOL    HW146841   1.970   3.792  18.640
11654SOL    HW246842   1.922   3.683  18.547
11655SOL     OW46843   4.620   2.126   3.936
11655SOL    HW146844   4.626   2.115   3.841
11655SOL    HW246845   4.549   2.188   3.949
11656SOL     OW46846   3.327   3.576   6.509
11656SOL    HW146847   3.301   3.524   6.585
11656SOL    HW246848   3.293   3.664   6.527
11657SOL     OW46849   0.435   1.436  19.616
11657SOL    HW146850   0.514   1.445  19.669
11657SOL    HW246851   0.413   1.526  19.591
11658SOL     OW46852   3.498   0.072  18.141
11658SOL    HW146853   3.504   4.782  18.194
11658SOL    HW246854   3.491   0.041  18.051
11659SOL     OW46855   1.244   0.319  15.136
11659SOL    HW146856   1.225   0.405  15.099
11659SOL    HW246857   1.307   0.336  15.206
11660SOL     OW46858   0.803   0.673  20.458
11660SOL    HW146859   0.845   0.614  20.395
11660SOL    HW246860   0.843   0.651  20.542
11661SOL     OW46861   1.399   2.221   3.709
11661SOL    HW146862   1.407   2.272   3.628
11661SOL    HW246863   1.488   2.189   3.725
11662SOL     OW46864   2.894   3.084  19.855
11662SOL    HW146865   2.832   3.083  19.928
11662SOL    HW246866   2.979   3.098  19.897
11663SOL     OW46867   2.189   0.441   1.667
11663SOL    HW146868   2.226   0.526   1.642
11663SOL    HW246869   2.261   0.395   1.710
11664SOL     OW46870   0.730   1.308   0.774
11664SOL    HW146871   0.694   1.223   0.747
11664SOL    HW246872   0.709   1.314   0.867
11665SOL     OW46873   4.228   4.003   5.018
11665SOL    HW146874   4.223   4.097   5.000
11665SOL    HW246875   4.251   3.964   4.934
11666SOL     OW46876   4.655   0.500  18.346
11666SOL    HW146877   4.629   0.432  18.283
11666SOL    HW246878   4.750   0.489  18.356
11667SOL     OW46879   4.000   4.137  17.825
11667SOL    HW146880   4.061   4.064  17.821
11667SOL    HW246881   4.010   4.182  17.741
11668SOL     OW46882   3.964   1.508   4.258
11668SOL    HW146883   3.970   1.597   4.294
11668SOL    HW246884   4.024   1.456   4.312
11669SOL     OW46885   4.125   1.089  15.734
11669SOL    HW146886   4.195   1.109  15.672
11669SOL    HW246887   4.126   1.162  15.796
11670SOL     OW46888   3.005   0.711   5.674
11670SOL    HW146889   2.924   0.662   5.689
11670SOL    HW246890   3.013   0.714   5.579
11671SOL     OW46891   3.699   3.984   1.508
11671SOL    HW146892   3.787   3.978   1.545
11671SOL    HW246893   3.668   4.071   1.534
11672SOL     OW46894   3.690   0.111  19.420
11672SOL    HW146895   3.639   0.066  19.487
11672SOL    HW246896   3.780   0.112  19.454
11673SOL     OW46897   1.041   4.110  13.989
11673SOL    HW146898   0.997   4.194  13.978
11673SOL    HW246899   1.107   4.126  14.056
11674SOL     OW46900   3.643   2.213   7.624
11674SOL    HW146901   3.719   2.271   7.621
11674SOL    HW246902   3.671   2.139   7.677
11675SOL     OW46903   3.688   1.359  17.799
11675SOL    HW146904   3.778   1.361  17.831
11675SOL    HW246905   3.686   1.286  17.738
11676SOL     OW46906   2.350   1.221  16.832
11676SOL    HW146907   2.318   1.277  16.761
11676SOL    HW246908   2.273   1.206  16.887
11677SOL     OW46909   4.767   4.619   7.396
11677SOL    HW146910   4.733   4.578   7.317
11677SOL    HW246911   4.757   4.552   7.464
11678SOL     OW46912   2.102   4.342   5.911
11678SOL    HW146913   2.074   4.434   5.908
11678SOL    HW246914   2.105   4.314   5.819
11679SOL     OW46915   2.446   3.829  18.041
11679SOL    HW146916   2.517   3.863  18.095
11679SOL    HW246917   2.417   3.904  17.988
11680SOL     OW46918   2.299   2.768   8.708
11680SOL    HW146919   2.393   2.770   8.725
11680SOL    HW246920   2.284   2.840   8.647
11681SOL     OW46921   2.371   2.823  19.213
11681SOL    HW146922   2.421   2.805  19.133
11681SOL    HW246923   2.435   2.858  19.274
11682SOL     OW46924   2.754   2.677  20.794
11682SOL    HW146925   2.693   2.628  20.849
11682SOL    HW246926   2.815   2.717  20.856
11683SOL     OW46927   3.005   3.081  17.025
11683SOL    HW146928   3.086   3.130  17.035
11683SOL    HW246929   3.017   3.030  16.945
11684SOL     OW46930   0.769   0.712  17.001
11684SOL    HW146931   0.707   0.760  16.947
11684SOL    HW246932   0.774   0.625  16.961
11685SOL     OW46933   3.915   3.664   1.377
11685SOL    HW146934   3.948   3.670   1.467
11685SOL    HW246935   3.823   3.638   1.386
11686SOL     OW46936   1.031   0.976  18.441
11686SOL    HW146937   1.070   1.063  18.442
11686SOL    HW246938   1.035   0.947  18.532
11687SOL     OW46939   4.253   1.168   5.766
11687SOL    HW146940   4.292   1.235   5.709
11687SOL    HW246941   4.201   1.217   5.829
11688SOL     OW46942   0.978   3.961  20.879
11688SOL    HW146943   0.998   3.986  20.789
11688SOL    HW246944   0.967   3.866  20.876
11689SOL     OW46945   2.999   4.187   0.970
11689SOL    HW146946   2.934   4.122   0.945
11689SOL    HW246947   3.075   4.167   0.915
11690SOL     OW46948   2.974   3.296   4.353
11690SOL    HW146949   2.955   3.210   4.315
11690SOL    HW246950   2.917   3.357   4.306
11691SOL     OW46951   1.225   2.426  14.566
11691SOL    HW146952   1.192   2.472  14.643
11691SOL    HW246953   1.208   2.486  14.493
11692SOL     OW46954   3.937   2.670   3.599
11692SOL    HW146955   3.906   2.755   3.630
11692SOL    HW246956   3.997   2.640   3.667
11693SOL     OW46957   3.798   2.501  13.686
11693SOL    HW146958   3.851   2.486  13.608
11693SOL    HW246959   3.726   2.557  13.656
11694SOL     OW46960   3.874   2.443   7.254
11694SOL    HW146961   3.952   2.481   7.293
11694SOL    HW246962   3.801   2.484   7.301
11695SOL     OW46963   3.477   2.801  19.622
11695SOL    HW146964   3.490   2.706  19.621
11695SOL    HW246965   3.551   2.836  19.572
11696SOL     OW46966   1.048   2.734  20.024
11696SOL    HW146967   1.050   2.826  19.997
11696SOL    HW246968   1.140   2.708  20.031
11697SOL     OW46969   0.135   1.550  14.976
11697SOL    HW146970   0.082   1.560  14.897
11697SOL    HW246971   0.225   1.545  14.944
11698SOL     OW46972   3.169   0.004   6.956
11698SOL    HW146973   3.241   4.769   7.014
11698SOL    HW246974   3.211   0.057   6.888
11699SOL     OW46975   1.998   2.991   1.199
11699SOL    HW146976   2.090   3.014   1.187
11699SOL    HW246977   1.957   3.015   1.116
11700SOL     OW46978   1.000   4.024  12.985
11700SOL    HW146979   1.070   4.089  12.980
11700SOL    HW246980   1.041   3.943  12.956
11701SOL     OW46981   3.754   3.861  16.664
11701SOL    HW146982   3.842   3.843  16.631
11701SOL    HW246983   3.695   3.830  16.595
11702SOL     OW46984   2.817   1.908   1.139
11702SOL    HW146985   2.834   1.848   1.212
11702SOL    HW246986   2.902   1.918   1.096
11703SOL     OW46987   4.449   1.942  17.972
11703SOL    HW146988   4.525   1.996  17.952
11703SOL    HW246989   4.444   1.880  17.899
11704SOL     OW46990   3.252   1.561  20.244
11704SOL    HW146991   3.298   1.480  20.221
11704SOL    HW246992   3.302   1.597  20.317
11705SOL     OW46993   4.431   0.656   5.656
11705SOL    HW146994   4.516   0.695   5.634
11705SOL    HW246995   4.396   0.713   5.724
11706SOL     OW46996   1.445   3.587  16.866
11706SOL    HW146997   1.530   3.574  16.825
11706SOL    HW246998   1.395   3.508  16.845
11707SOL     OW46999   4.052   3.457   0.477
11707SOL    HW147000   4.053   3.368   0.442
11707SOL    HW247001   3.968   3.493   0.448
11708SOL     OW47002   1.056   3.255   0.204
11708SOL    HW147003   1.111   3.258   0.283
11708SOL    HW247004   1.041   3.162   0.190
11709SOL     OW47005   2.830   2.683   1.651
11709SOL    HW147006   2.760   2.719   1.596
11709SOL    HW247007   2.901   2.663   1.590
11710SOL     OW47008   2.916   0.054  17.043
11710SOL    HW147009   2.835   0.028  16.999
11710SOL    HW247010   2.903   0.029  17.134
11711SOL     OW47011   2.152   2.873   0.491
11711SOL    HW147012   2.149   2.968   0.484
11711SOL    HW247013   2.071   2.850   0.536
11712SOL     OW47014   0.207   3.367   6.143
11712SOL    HW147015   0.191   3.340   6.052
11712SOL    HW247016   0.124   3.350   6.188
11713SOL     OW47017   3.333   0.438   0.886
11713SOL    HW147018   3.307   0.499   0.817
11713SOL    HW247019   3.361   0.494   0.958
11714SOL     OW47020   4.684   4.225   3.733
11714SOL    HW147021   4.614   4.247   3.794
11714SOL    HW247022   4.642   4.168   3.668
11715SOL     OW47023   1.026   4.703   4.169
11715SOL    HW147024   1.083   4.715   4.245
11715SOL    HW247025   0.948   4.660   4.204
11716SOL     OW47026   0.886   2.784  17.779
11716SOL    HW147027   0.902   2.874  17.749
11716SOL    HW247028   0.797   2.786  17.814
11717SOL     OW47029   3.546   0.739   4.997
11717SOL    HW147030   3.605   0.733   4.922
11717SOL    HW247031   3.604   0.735   5.073
11718SOL     OW47032   1.202   1.751  19.165
11718SOL    HW147033   1.220   1.728  19.074
11718SOL    HW247034   1.119   1.798  19.162
11719SOL     OW47035   2.612   0.731   4.487
11719SOL    HW147036   2.684   0.783   4.451
11719SOL    HW247037   2.578   0.783   4.560
11720SOL     OW47038   4.628   2.857  16.116
11720SOL    HW147039   4.679   2.888  16.041
11720SOL    HW247040   4.678   2.886  16.193
11721SOL     OW47041   0.064   3.521  19.652
11721SOL    HW147042   4.764   3.521  19.685
11721SOL    HW247043   0.118   3.539  19.729
11722SOL     OW47044   3.990   2.684   1.858
11722SOL    HW147045   3.992   2.594   1.827
11722SOL    HW247046   3.960   2.677   1.949
11723SOL     OW47047   3.336   3.999  15.561
11723SOL    HW147048   3.379   3.999  15.647
11723SOL    HW247049   3.262   4.058  15.571
11724SOL     OW47050   1.693   1.013   1.039
11724SOL    HW147051   1.780   1.043   1.067
11724SOL    HW247052   1.651   1.091   1.004
11725SOL     OW47053   2.552   0.457  18.015
11725SOL    HW147054   2.620   0.524  18.010
11725SOL    HW247055   2.472   0.505  18.038
11726SOL     OW47056   3.820   2.938   2.861
11726SOL    HW147057   3.795   2.846   2.871
11726SOL    HW247058   3.864   2.941   2.776
11727SOL     OW47059   0.188   3.685   8.077
11727SOL    HW147060   0.113   3.625   8.073
11727SOL    HW247061   0.256   3.641   8.026
11728SOL     OW47062   1.312   1.728   0.519
11728SOL    HW147063   1.371   1.683   0.459
11728SOL    HW247064   1.259   1.658   0.557
11729SOL     OW47065   3.302   3.854   5.002
11729SOL    HW147066   3.209   3.849   5.025
11729SOL    HW247067   3.306   3.829   4.910
11730SOL     OW47068   0.228   4.307   1.807
11730SOL    HW147069   0.158   4.359   1.768
11730SOL    HW247070   0.298   4.370   1.825
11731SOL     OW47071   0.491   3.912   6.503
11731SOL    HW147072   0.485   3.989   6.446
11731SOL    HW247073   0.550   3.853   6.456
11732SOL     OW47074   2.040   0.303   2.276
11732SOL    HW147075   1.968   0.270   2.222
11732SOL    HW247076   2.103   0.231   2.279
11733SOL     OW47077   3.695   1.799  15.749
11733SOL    HW147078   3.694   1.730  15.683
11733SOL    HW247079   3.662   1.757  15.828
11734SOL     OW47080   3.267   4.276   7.946
11734SOL    HW147081   3.257   4.187   7.980
11734SOL    HW247082   3.218   4.276   7.864
11735SOL     OW47083   3.484   2.349   4.698
11735SOL    HW147084   3.497   2.322   4.789
11735SOL    HW247085   3.569   2.382   4.670
11736SOL     OW47086   1.981   3.644  20.509
11736SOL    HW147087   2.070   3.678  20.507
11736SOL    HW247088   1.991   3.553  20.538
11737SOL     OW47089   1.632   2.466  18.738
11737SOL    HW147090   1.595   2.496  18.821
11737SOL    HW247091   1.682   2.541  18.706
11738SOL     OW47092   4.714   2.241   3.381
11738SOL    HW147093   4.775   2.299   3.427
11738SOL    HW247094   4.755   2.226   3.296
11739SOL     OW47095   0.599   1.743   3.043
11739SOL    HW147096   0.612   1.649   3.028
11739SOL    HW247097   0.622   1.756   3.135
11740SOL     OW47098   1.218   2.517   5.172
11740SOL    HW147099   1.169   2.599   5.179
11740SOL    HW247100   1.278   2.518   5.246
11741SOL     OW47101   0.707   2.616   4.159
11741SOL    HW147102   0.637   2.557   4.187
11741SOL    HW247103   0.665   2.675   4.097
11742SOL     OW47104   2.749   4.504  19.461
11742SOL    HW147105   2.717   4.488  19.372
11742SOL    HW247106   2.704   4.438  19.515
11743SOL     OW47107   0.379   2.142   6.131
11743SOL    HW147108   0.445   2.086   6.172
11743SOL    HW247109   0.298   2.120   6.176
11744SOL     OW47110   0.456   1.892  17.454
11744SOL    HW147111   0.380   1.854  17.497
11744SOL    HW247112   0.505   1.934  17.525
11745SOL     OW47113   1.585   4.623   2.053
11745SOL    HW147114   1.559   4.637   1.962
11745SOL    HW247115   1.503   4.603   2.098
11746SOL     OW47116   0.829   0.084   2.901
11746SOL    HW147117   0.866   0.161   2.859
11746SOL    HW247118   0.851   0.012   2.842
11747SOL     OW47119   4.517   3.373  17.138
11747SOL    HW147120   4.462   3.355  17.062
11747SOL    HW247121   4.549   3.462  17.123
11748SOL     OW47122   2.201   0.286  18.020
11748SOL    HW147123   2.272   0.231  18.054
11748SOL    HW247124   2.133   0.281  18.087
11749SOL     OW47125   4.372   2.756   5.426
11749SOL    HW147126   4.386   2.836   5.477
11749SOL    HW247127   4.278   2.739   5.435
11750SOL     OW47128   0.858   2.135  13.922
11750SOL    HW147129   0.809   2.084  13.986
11750SOL    HW247130   0.944   2.147  13.961
11751SOL     OW47131   2.655   3.769  17.088
11751SOL    HW147132   2.614   3.770  17.001
11751SOL    HW247133   2.744   3.738  17.072
11752SOL     OW47134   0.980   3.059   1.721
11752SOL    HW147135   1.031   3.134   1.752
11752SOL    HW247136   1.045   3.000   1.684
11753SOL     OW47137   3.469   0.374   3.304
11753SOL    HW147138   3.551   0.419   3.325
11753SOL    HW247139   3.417   0.440   3.257
11754SOL     OW47140   1.285   3.477   1.902
11754SOL    HW147141   1.370   3.446   1.933
11754SOL    HW247142   1.302   3.566   1.872
11755SOL     OW47143   0.647   3.098   0.447
11755SOL    HW147144   0.574   3.144   0.488
11755SOL    HW247145   0.712   3.089   0.516
11756SOL     OW47146   4.650   1.700  21.061
11756SOL    HW147147   4.676   1.632  20.999
11756SOL    HW247148   4.642   1.779  21.007
11757SOL     OW47149   0.333   3.037  20.242
11757SOL    HW147150   0.270   2.969  20.217
11757SOL    HW247151   0.286   3.091  20.305
11758SOL     OW47152   3.692   2.241   3.372
11758SOL    HW147153   3.705   2.321   3.423
11758SOL    HW247154   3.779   2.218   3.340
11759SOL     OW47155   1.384   3.081   5.161
11759SOL    HW147156   1.470   3.084   5.119
11759SOL    HW247157   1.330   3.139   5.108
11760SOL     OW47158   4.302   1.426  21.008
11760SOL    HW147159   4.253   1.491  20.958
11760SOL    HW247160   4.348   1.477  21.075
11761SOL     OW47161   4.646   3.654  16.260
11761SOL    HW147162   4.612   3.742  16.247
11761SOL    HW247163   4.575   3.607  16.304
11762SOL     OW47164   2.274   3.646  20.663
11762SOL    HW147165   2.279   3.741  20.653
11762SOL    HW247166   2.264   3.633  20.757
11763SOL     OW47167   3.346   2.330  18.890
11763SOL    HW147168   3.267   2.364  18.933
11763SOL    HW247169   3.365   2.248  18.935
11764SOL     OW47170   2.033   3.268   2.427
11764SOL    HW147171   2.064   3.304   2.344
11764SOL    HW247172   2.056   3.334   2.492
11765SOL     OW47173   3.136   3.548   6.864
11765SOL    HW147174   3.206   3.499   6.820
11765SOL    HW247175   3.152   3.534   6.957
11766SOL     OW47176   2.626   2.170   4.305
11766SOL    HW147177   2.596   2.260   4.319
11766SOL    HW247178   2.573   2.139   4.232
11767SOL     OW47179   3.945   0.549   2.630
11767SOL    HW147180   4.033   0.515   2.612
11767SOL    HW247181   3.891   0.515   2.559
11768SOL     OW47182   2.526   1.742   3.282
11768SOL    HW147183   2.531   1.803   3.355
11768SOL    HW247184   2.433   1.718   3.278
11769SOL     OW47185   4.658   2.959  19.085
11769SOL    HW147186   4.711   2.989  19.159
11769SOL    HW247187   4.659   2.864  19.091
11770SOL     OW47188   1.779   3.816  20.678
11770SOL    HW147189   1.870   3.844  20.666
11770SOL    HW247190   1.759   3.766  20.599
11771SOL     OW47191   3.875   3.292   4.857
11771SOL    HW147192   3.947   3.237   4.825
11771SOL    HW247193   3.917   3.351   4.920
11772SOL     OW47194   0.127   1.434   6.773
11772SOL    HW147195   0.172   1.467   6.851
11772SOL    HW247196   0.089   1.512   6.732
11773SOL     OW47197   1.064   3.511  19.217
11773SOL    HW147198   0.997   3.458  19.260
11773SOL    HW247199   1.064   3.594  19.265
11774SOL     OW47200   2.733   4.676  14.510
11774SOL    HW147201   2.701   4.640  14.593
11774SOL    HW247202   2.778   4.757  14.535
11775SOL     OW47203   1.539   2.799   4.965
11775SOL    HW147204   1.608   2.747   5.006
11775SOL    HW247205   1.497   2.738   4.904
11776SOL     OW47206   0.974   4.160   1.375
11776SOL    HW147207   0.952   4.101   1.447
11776SOL    HW247208   1.029   4.228   1.414
11777SOL     OW47209   1.036   0.074  18.044
11777SOL    HW147210   0.986   0.154  18.029
11777SOL    HW247211   1.119   0.089  17.998
11778SOL     OW47212   3.414   1.792   4.045
11778SOL    HW147213   3.439   1.747   3.964
11778SOL    HW247214   3.497   1.818   4.084
11779SOL     OW47215   4.193   4.416   1.225
11779SOL    HW147216   4.278   4.386   1.193
11779SOL    HW247217   4.214   4.478   1.294
11780SOL     OW47218   4.320   3.783   7.429
11780SOL    HW147219   4.332   3.827   7.345
11780SOL    HW247220   4.249   3.721   7.413
11781SOL     OW47221   1.767   3.745  16.984
11781SOL    HW147222   1.788   3.828  16.942
11781SOL    HW247223   1.741   3.769  17.073
11782SOL     OW47224   3.557   0.992   1.591
11782SOL    HW147225   3.526   1.025   1.675
11782SOL    HW247226   3.611   1.063   1.556
11783SOL     OW47227   1.198   4.246  19.974
11783SOL    HW147228   1.248   4.323  20.003
11783SOL    HW247229   1.110   4.260  20.009
11784SOL     OW47230   3.478   2.476  20.431
11784SOL    HW147231   3.539   2.511  20.496
11784SOL    HW247232   3.444   2.396  20.471
11785SOL     OW47233   0.171   0.457   0.146
11785SOL    HW147234   0.174   0.398   0.221
11785SOL    HW247235   0.187   0.544   0.183
11786SOL     OW47236   0.304   2.863   3.876
11786SOL    HW147237   0.259   2.786   3.912
11786SOL    HW247238   0.252   2.887   3.799
11787SOL     OW47239   2.052   1.142  15.145
11787SOL    HW147240   2.145   1.121  15.149
11787SOL    HW247241   2.019   1.093  15.070
11788SOL     OW47242   1.406   3.442   4.297
11788SOL    HW147243   1.419   3.537   4.298
11788SOL    HW247244   1.429   3.415   4.208
11789SOL     OW47245   3.533   2.600  17.917
11789SOL    HW147246   3.567   2.511  17.927
11789SOL    HW247247   3.456   2.590  17.861
11790SOL     OW47248   4.742   0.035   0.528
11790SOL    HW147249   4.724   0.103   0.463
11790SOL    HW247250   0.047   0.039   0.541
11791SOL     OW47251   3.189   4.581   9.498
11791SOL    HW147252   3.150   4.664   9.524
11791SOL    HW247253   3.209   4.592   9.405
11792SOL     OW47254   2.933   0.011   8.057
11792SOL    HW147255   3.002   4.743   8.090
11792SOL    HW247256   2.975   0.097   8.050
11793SOL     OW47257   4.409   3.185   4.102
11793SOL    HW147258   4.432   3.094   4.120
11793SOL    HW247259   4.427   3.231   4.184
11794SOL     OW47260   4.620   1.786  16.203
11794SOL    HW147261   4.532   1.801  16.167
11794SOL    HW247262   4.619   1.829  16.288
11795SOL     OW47263   2.770   0.637   7.645
11795SOL    HW147264   2.788   0.624   7.738
11795SOL    HW247265   2.686   0.593   7.630
11796SOL     OW47266   1.258   0.866   0.926
11796SOL    HW147267   1.199   0.918   0.871
11796SOL    HW247268   1.336   0.854   0.872
11797SOL     OW47269   0.791   4.685   9.147
11797SOL    HW147270   0.788   4.738   9.067
11797SOL    HW247271   0.727   4.616   9.132
11798SOL     OW47272   1.061   4.640   9.040
11798SOL    HW147273   1.104   4.717   9.077
11798SOL    HW247274   1.013   4.673   8.964
11799SOL     OW47275   3.811   0.918  10.300
11799SOL    HW147276   3.815   0.989  10.364
11799SOL    HW247277   3.832   0.839  10.350
11800SOL     OW47278   1.878   0.692  10.386
11800SOL    HW147279   1.909   0.778  10.413
11800SOL    HW247280   1.838   0.707  10.300
11801SOL     OW47281   2.654   0.933  10.493
11801SOL    HW147282   2.678   0.866  10.557
11801SOL    HW247283   2.593   0.889  10.434
11802SOL     OW47284   1.965   0.945  10.483
11802SOL    HW147285   1.971   0.936  10.578
11802SOL    HW247286   2.024   1.018  10.463
11803SOL     OW47287   2.913   0.162  10.360
11803SOL    HW147288   2.921   0.222  10.286
11803SOL    HW247289   2.819   0.146  10.367
11804SOL     OW47290   2.325   0.778  11.091
11804SOL    HW147291   2.419   0.793  11.078
11804SOL    HW247292   2.300   0.720  11.019
11805SOL     OW47293   3.244   0.551  12.016
11805SOL    HW147294   3.259   0.584  11.927
11805SOL    HW247295   3.328   0.562  12.060
11806SOL     OW47296   1.877   0.901  11.561
11806SOL    HW147297   1.875   0.956  11.639
11806SOL    HW247298   1.875   0.963  11.488
11807SOL     OW47299   2.830   1.501  12.164
11807SOL    HW147300   2.911   1.461  12.196
11807SOL    HW247301   2.835   1.592  12.195
11808SOL     OW47302   2.150   2.226  12.112
11808SOL    HW147303   2.124   2.249  12.201
11808SOL    HW247304   2.094   2.152  12.088
11809SOL     OW47305   3.714   1.006  13.002
11809SOL    HW147306   3.618   1.004  12.999
11809SOL    HW247307   3.735   1.063  13.076
11810SOL     OW47308   3.479   0.426   9.749
11810SOL    HW147309   3.483   0.331   9.743
11810SOL    HW247310   3.404   0.443   9.805
11811SOL     OW47311   2.632   0.712  13.149
11811SOL    HW147312   2.591   0.734  13.065
11811SOL    HW247313   2.579   0.758  13.214
11812SOL     OW47314   1.896   0.330  11.898
11812SOL    HW147315   1.916   0.304  11.988
11812SOL    HW247316   1.970   0.298  11.847
11813SOL     OW47317   0.527   0.036  11.978
11813SOL    HW147318   0.609   4.788  12.010
11813SOL    HW247319   0.467   0.029  12.052
11814SOL     OW47320   1.009   1.348  11.952
11814SOL    HW147321   1.016   1.263  11.996
11814SOL    HW247322   1.088   1.355  11.899
11815SOL     OW47323   0.976   3.943   6.664
11815SOL    HW147324   0.927   4.023   6.683
11815SOL    HW247325   0.980   3.897   6.748
11816SOL     OW47326   3.737   1.671  16.085
11816SOL    HW147327   3.758   1.578  16.089
11816SOL    HW247328   3.809   1.714  16.130
11817SOL     OW47329   4.038   2.932   4.683
11817SOL    HW147330   3.982   2.957   4.757
11817SOL    HW247331   4.109   2.996   4.684
11818SOL     OW47332   0.698   3.939  18.286
11818SOL    HW147333   0.611   3.976  18.300
11818SOL    HW247334   0.758   4.003  18.323
11819SOL     OW47335   3.759   2.783  20.334
11819SOL    HW147336   3.777   2.810  20.424
11819SOL    HW247337   3.845   2.779  20.292
11820SOL     OW47338   0.787   0.809  21.072
11820SOL    HW147339   0.707   0.757  21.077
11820SOL    HW247340   0.809   0.829  21.163
11821SOL     OW47341   2.140   0.537   6.006
11821SOL    HW147342   2.096   0.597   5.945
11821SOL    HW247343   2.163   0.461   5.953
11822SOL     OW47344   4.649   1.739   2.031
11822SOL    HW147345   4.565   1.698   2.010
11822SOL    HW247346   4.713   1.669   2.019
11823SOL     OW47347   0.040   0.332  10.940
11823SOL    HW147348   0.066   0.354  11.029
11823SOL    HW247349   0.119   0.295  10.900
11824SOL     OW47350   3.675   1.521  13.836
11824SOL    HW147351   3.748   1.579  13.857
11824SOL    HW247352   3.642   1.553  13.752
11825SOL     OW47353   0.125   3.050  15.378
11825SOL    HW147354   0.094   3.139  15.361
11825SOL    HW247355   0.050   3.005  15.417
11826SOL     OW47356   1.777   3.860   6.570
11826SOL    HW147357   1.751   3.951   6.554
11826SOL    HW247358   1.810   3.830   6.485
11827SOL     OW47359   3.817   4.563   0.534
11827SOL    HW147360   3.887   4.529   0.590
11827SOL    HW247361   3.745   4.582   0.594
11828SOL     OW47362   1.631   0.230   0.056
11828SOL    HW147363   1.557   0.215   0.114
11828SOL    HW247364   1.605   0.305   0.003
11829SOL     OW47365   4.783   3.828  16.846
11829SOL    HW147366   0.040   3.906  16.817
11829SOL    HW247367   4.767   3.778  16.766
11830SOL     OW47368   2.363   0.348   2.781
11830SOL    HW147369   2.284   0.304   2.811
11830SOL    HW247370   2.337   0.391   2.699
11831SOL     OW47371   4.241   0.033   2.146
11831SOL    HW147372   4.277   4.768   2.076
11831SOL    HW247373   4.315   0.048   2.205
11832SOL     OW47374   3.306   2.425  16.336
11832SOL    HW147375   3.353   2.436  16.418
11832SOL    HW247376   3.225   2.474  16.348
11833SOL     OW47377   3.973   4.641  17.008
11833SOL    HW147378   3.940   4.710  17.066
11833SOL    HW247379   4.047   4.681  16.963
11834SOL     OW47380   3.361   3.599  19.231
11834SOL    HW147381   3.451   3.631  19.236
11834SOL    HW247382   3.365   3.510  19.266
11835SOL     OW47383   2.901   3.097   1.906
11835SOL    HW147384   2.867   3.094   1.995
11835SOL    HW247385   2.957   3.175   1.905
11836SOL     OW47386   4.128   4.156   3.014
11836SOL    HW147387   4.102   4.247   3.030
11836SOL    HW247388   4.223   4.157   3.023
11837SOL     OW47389   1.709   2.961   4.652
11837SOL    HW147390   1.693   2.911   4.572
11837SOL    HW247391   1.770   2.907   4.702
11838SOL     OW47392   3.475   2.682  18.704
11838SOL    HW147393   3.481   2.752  18.769
11838SOL    HW247394   3.381   2.669  18.691
11839SOL     OW47395   1.694   4.400  19.116
11839SOL    HW147396   1.762   4.467  19.118
11839SOL    HW247397   1.613   4.448  19.133
11840SOL     OW47398   3.493   3.303  14.412
11840SOL    HW147399   3.442   3.263  14.482
11840SOL    HW247400   3.530   3.382  14.451
11841SOL     OW47401   4.636   3.900   4.375
11841SOL    HW147402   4.669   3.861   4.294
11841SOL    HW247403   4.549   3.861   4.387
11842SOL     OW47404   2.617   2.541  20.964
11842SOL    HW147405   2.555   2.568  21.032
11842SOL    HW247406   2.685   2.492  21.011
11843SOL     OW47407   1.817   2.653  15.884
11843SOL    HW147408   1.819   2.565  15.922
11843SOL    HW247409   1.855   2.709  15.952
11844SOL     OW47410   4.060   4.265  18.064
11844SOL    HW147411   4.012   4.219  17.995
11844SOL    HW247412   4.136   4.303  18.020
11845SOL     OW47413   4.692   1.716  20.153
11845SOL    HW147414   4.685   1.714  20.248
11845SOL    HW247415   4.688   1.624  20.127
11846SOL     OW47416   1.315   3.817  16.789
11846SOL    HW147417   1.354   3.729  16.792
11846SOL    HW247418   1.221   3.802  16.788
11847SOL     OW47419   2.699   4.288   2.085
11847SOL    HW147420   2.613   4.307   2.047
11847SOL    HW247421   2.686   4.300   2.179
11848SOL     OW47422   0.350   4.476  17.626
11848SOL    HW147423   0.290   4.546  17.600
11848SOL    HW247424   0.318   4.448  17.712
11849SOL     OW47425   1.324   3.705  17.496
11849SOL    HW147426   1.264   3.632  17.480
11849SOL    HW247427   1.363   3.686  17.581
11850SOL     OW47428   2.265   0.581  19.531
11850SOL    HW147429   2.350   0.611  19.564
11850SOL    HW247430   2.241   0.645  19.464
11851SOL     OW47431   3.982   2.785  16.350
11851SOL    HW147432   4.073   2.783  16.381
11851SOL    HW247433   3.965   2.696  16.321
11852SOL     OW47434   4.248   2.160   3.383
11852SOL    HW147435   4.337   2.139   3.410
11852SOL    HW247436   4.243   2.255   3.390
11853SOL     OW47437   2.874   3.641  12.846
11853SOL    HW147438   2.928   3.719  12.859
11853SOL    HW247439   2.887   3.590  12.926
11854SOL     OW47440   1.754   3.280  15.433
11854SOL    HW147441   1.812   3.344  15.475
11854SOL    HW247442   1.810   3.204  15.417
11855SOL     OW47443   0.757   1.852  21.131
11855SOL    HW147444   0.687   1.906  21.094
11855SOL    HW247445   0.713   1.799  21.198
11856SOL     OW47446   3.145   3.213  20.137
11856SOL    HW147447   3.155   3.201  20.043
11856SOL    HW247448   3.170   3.128  20.174
11857SOL     OW47449   0.545   2.164   4.975
11857SOL    HW147450   0.603   2.088   4.975
11857SOL    HW247451   0.531   2.183   5.068
11858SOL     OW47452   2.216   1.297  19.935
11858SOL    HW147453   2.281   1.350  19.890
11858SOL    HW247454   2.183   1.237  19.868
11859SOL     OW47455   0.934   4.513   3.820
11859SOL    HW147456   0.996   4.504   3.893
11859SOL    HW247457   0.971   4.582   3.765
11860SOL     OW47458   1.623   0.016  18.686
11860SOL    HW147459   1.713   4.776  18.697
11860SOL    HW247460   1.611   0.082  18.755
11861SOL     OW47461   1.516   3.909   6.250
11861SOL    HW147462   1.523   3.957   6.333
11861SOL    HW247463   1.425   3.879   6.247
11862SOL     OW47464   2.452   3.136  16.667
11862SOL    HW147465   2.505   3.127  16.746
11862SOL    HW247466   2.432   3.046  16.642
11863SOL     OW47467   3.648   1.466   6.245
11863SOL    HW147468   3.570   1.475   6.300
11863SOL    HW247469   3.637   1.533   6.177
11864SOL     OW47470   4.660   4.074  17.298
11864SOL    HW147471   4.619   4.009  17.241
11864SOL    HW247472   4.678   4.026  17.379
11865SOL     OW47473   3.930   4.554   0.940
11865SOL    HW147474   3.944   4.627   1.000
11865SOL    HW247475   3.906   4.595   0.857
11866SOL     OW47476   3.865   0.833   5.793
11866SOL    HW147477   3.806   0.834   5.868
11866SOL    HW247478   3.814   0.873   5.722
11867SOL     OW47479   4.097   2.841   7.100
11867SOL    HW147480   4.049   2.779   7.155
11867SOL    HW247481   4.093   2.803   7.012
11868SOL     OW47482   3.488   4.715  17.189
11868SOL    HW147483   3.425   4.646  17.211
11868SOL    HW247484   3.528   4.687  17.107
11869SOL     OW47485   4.494   1.461   4.823
11869SOL    HW147486   4.583   1.460   4.788
11869SOL    HW247487   4.438   1.468   4.746
11870SOL     OW47488   2.333   1.359  17.147
11870SOL    HW147489   2.296   1.310  17.073
11870SOL    HW247490   2.427   1.341  17.143
11871SOL     OW47491   1.862   3.849   5.209
11871SOL    HW147492   1.828   3.938   5.215
11871SOL    HW247493   1.790   3.794   5.240
11872SOL     OW47494   2.433   3.580  14.773
11872SOL    HW147495   2.484   3.572  14.693
11872SOL    HW247496   2.418   3.490  14.801
11873SOL     OW47497   3.793   1.540   0.023
11873SOL    HW147498   3.851   1.464   0.024
11873SOL    HW247499   3.707   1.504   0.002
11874SOL     OW47500   0.811   0.071   2.448
11874SOL    HW147501   0.738   0.091   2.389
11874SOL    HW247502   0.784   4.780   2.492
11875SOL     OW47503   4.119   3.632   8.919
11875SOL    HW147504   4.082   3.712   8.883
11875SOL    HW247505   4.060   3.609   8.991
11876SOL     OW47506   1.116   1.221  18.349
11876SOL    HW147507   1.196   1.212  18.401
11876SOL    HW247508   1.134   1.293  18.289
11877SOL     OW47509   0.684   4.119   7.211
11877SOL    HW147510   0.747   4.165   7.266
11877SOL    HW247511   0.633   4.067   7.273
11878SOL     OW47512   4.474   1.706  17.026
11878SOL    HW147513   4.406   1.770  17.005
11878SOL    HW247514   4.473   1.645  16.953
11879SOL     OW47515   0.301   2.766  20.449
11879SOL    HW147516   0.275   2.674  20.448
11879SOL    HW247517   0.250   2.804  20.521
11880SOL     OW47518   1.017   3.974   2.438
11880SOL    HW147519   0.950   3.939   2.379
11880SOL    HW247520   0.996   4.067   2.444
11881SOL     OW47521   3.597   4.692  17.564
11881SOL    HW147522   3.641   4.694  17.479
11881SOL    HW247523   3.518   4.744  17.551
11882SOL     OW47524   3.167   4.149  18.469
11882SOL    HW147525   3.138   4.198  18.392
11882SOL    HW247526   3.136   4.060  18.454
11883SOL     OW47527   1.437   3.609  19.811
11883SOL    HW147528   1.423   3.698  19.844
11883SOL    HW247529   1.349   3.574  19.797
11884SOL     OW47530   0.168   0.468   2.105
11884SOL    HW147531   0.150   0.506   2.191
11884SOL    HW247532   0.106   0.510   2.046
11885SOL     OW47533   4.507   3.506   4.074
11885SOL    HW147534   4.521   3.449   4.149
11885SOL    HW247535   4.413   3.502   4.058
11886SOL     OW47536   2.533   0.550   1.206
11886SOL    HW147537   2.552   0.547   1.300
11886SOL    HW247538   2.523   0.643   1.186
11887SOL     OW47539   1.438   1.707  17.522
11887SOL    HW147540   1.421   1.739  17.610
11887SOL    HW247541   1.515   1.756  17.493
11888SOL     OW47542   0.859   0.523   2.405
11888SOL    HW147543   0.954   0.537   2.401
11888SOL    HW247544   0.831   0.568   2.485
11889SOL     OW47545   4.684   3.730   0.029
11889SOL    HW147546   4.653   3.693  21.204
11889SOL    HW247547   4.765   3.775   0.006
11890SOL     OW47548   2.959   4.102  20.971
11890SOL    HW147549   2.906   4.026  20.996
11890SOL    HW247550   2.897   4.161  20.928
11891SOL     OW47551   4.433   0.276   6.831
11891SOL    HW147552   4.425   0.194   6.879
11891SOL    HW247553   4.440   0.249   6.739
11892SOL     OW47554   3.973   1.941   6.535
11892SOL    HW147555   3.950   1.932   6.443
11892SOL    HW247556   4.017   1.859   6.556
11893SOL     OW47557   1.274   1.437  16.911
11893SOL    HW147558   1.194   1.490  16.912
11893SOL    HW247559   1.247   1.353  16.873
11894SOL     OW47560   2.161   3.154   0.356
11894SOL    HW147561   2.203   3.160   0.442
11894SOL    HW247562   2.087   3.214   0.361
11895SOL     OW47563   0.703   0.866  18.599
11895SOL    HW147564   0.639   0.936  18.611
11895SOL    HW247565   0.775   0.889  18.657
11896SOL     OW47566   1.594   1.337   8.419
11896SOL    HW147567   1.519   1.334   8.479
11896SOL    HW247568   1.670   1.316   8.474
11897SOL     OW47569   3.727   1.820   7.612
11897SOL    HW147570   3.638   1.823   7.578
11897SOL    HW247571   3.783   1.835   7.536
11898SOL     OW47572   1.765   0.995  16.029
11898SOL    HW147573   1.759   1.011  16.123
11898SOL    HW247574   1.771   0.900  16.022
11899SOL     OW47575   0.603   1.228  18.539
11899SOL    HW147576   0.681   1.279  18.517
11899SOL    HW247577   0.530   1.283  18.512
11900SOL     OW47578   3.513   3.585  16.836
11900SOL    HW147579   3.583   3.568  16.773
11900SOL    HW247580   3.482   3.498  16.861
11901SOL     OW47581   1.341   4.668   3.354
11901SOL    HW147582   1.246   4.655   3.356
11901SOL    HW247583   1.376   4.586   3.319
11902SOL     OW47584   1.703   2.085  12.720
11902SOL    HW147585   1.654   2.075  12.801
11902SOL    HW247586   1.672   2.167  12.682
11903SOL     OW47587   2.379   2.838   2.244
11903SOL    HW147588   2.440   2.908   2.221
11903SOL    HW247589   2.434   2.760   2.252
11904SOL     OW47590   4.755   0.459   6.392
11904SOL    HW147591   4.677   0.404   6.383
11904SOL    HW247592   0.010   0.424   6.469
11905SOL     OW47593   1.036   4.530   6.296
11905SOL    HW147594   1.040   4.518   6.391
11905SOL    HW247595   1.120   4.569   6.273
11906SOL     OW47596   0.823   0.525  18.796
11906SOL    HW147597   0.878   0.572  18.859
11906SOL    HW247598   0.869   0.534  18.713
11907SOL     OW47599   4.370   0.633   0.699
11907SOL    HW147600   4.411   0.588   0.773
11907SOL    HW247601   4.413   0.596   0.622
11908SOL     OW47602   4.508   1.256   1.875
11908SOL    HW147603   4.584   1.291   1.828
11908SOL    HW247604   4.533   1.259   1.967
11909SOL     OW47605   2.276   1.657   0.751
11909SOL    HW147606   2.207   1.643   0.686
11909SOL    HW247607   2.344   1.706   0.704
11910SOL     OW47608   3.932   1.999  20.538
11910SOL    HW147609   4.012   1.949  20.551
11910SOL    HW247610   3.881   1.946  20.476
11911SOL     OW47611   3.016   1.435   2.087
11911SOL    HW147612   3.059   1.367   2.140
11911SOL    HW247613   2.997   1.505   2.149
11912SOL     OW47614   0.341   0.741  17.190
11912SOL    HW147615   0.365   0.675  17.125
11912SOL    HW247616   0.284   0.695  17.251
11913SOL     OW47617   4.190   3.546  15.909
11913SOL    HW147618   4.134   3.586  15.976
11913SOL    HW247619   4.238   3.619  15.871
11914SOL     OW47620   1.012   1.600  20.613
11914SOL    HW147621   0.941   1.657  20.643
11914SOL    HW247622   0.984   1.569  20.527
11915SOL     OW47623   3.353   4.096   5.154
11915SOL    HW147624   3.448   4.110   5.159
11915SOL    HW247625   3.343   4.006   5.124
11916SOL     OW47626   1.483   2.670  19.521
11916SOL    HW147627   1.527   2.716  19.449
11916SOL    HW247628   1.390   2.673  19.497
11917SOL     OW47629   2.028   3.195   1.377
11917SOL    HW147630   2.025   3.113   1.327
11917SOL    HW247631   2.096   3.247   1.334
11918SOL     OW47632   4.180   0.476   3.799
11918SOL    HW147633   4.133   0.550   3.761
11918SOL    HW247634   4.270   0.486   3.767
11919SOL     OW47635   4.608   0.896  15.296
11919SOL    HW147636   4.584   0.827  15.358
11919SOL    HW247637   4.687   0.864  15.253
11920SOL     OW47638   0.989   2.432   3.412
11920SOL    HW147639   0.894   2.440   3.407
11920SOL    HW247640   1.004   2.374   3.487
11921SOL     OW47641   2.946   1.212  18.877
11921SOL    HW147642   3.000   1.139  18.907
11921SOL    HW247643   2.999   1.256  18.811
11922SOL     OW47644   3.126   2.532  18.086
11922SOL    HW147645   3.086   2.449  18.113
11922SOL    HW247646   3.197   2.545  18.149
11923SOL     OW47647   3.113   0.159   0.498
11923SOL    HW147648   3.192   0.211   0.485
11923SOL    HW247649   3.067   0.164   0.414
11924SOL     OW47650   2.310   2.392   3.459
11924SOL    HW147651   2.297   2.298   3.447
11924SOL    HW247652   2.399   2.400   3.493
11925SOL     OW47653   2.983   2.998   0.863
11925SOL    HW147654   2.930   2.921   0.843
11925SOL    HW247655   3.045   2.969   0.930
11926SOL     OW47656   1.807   2.705   0.978
11926SOL    HW147657   1.724   2.753   0.977
11926SOL    HW247658   1.788   2.625   0.929
11927SOL     OW47659   4.748   4.558   6.734
11927SOL    HW147660   4.758   4.474   6.690
11927SOL    HW247661   4.710   4.615   6.668
11928SOL     OW47662   4.650   3.259  19.516
11928SOL    HW147663   4.721   3.220  19.566
11928SOL    HW247664   4.614   3.187  19.465
11929SOL     OW47665   1.556   2.375  20.218
11929SOL    HW147666   1.608   2.334  20.149
11929SOL    HW247667   1.502   2.304  20.253
11930SOL     OW47668   0.561   0.003  16.028
11930SOL    HW147669   0.608   0.001  16.111
11930SOL    HW247670   0.607   4.729  15.973
11931SOL     OW47671   1.215   1.346   4.165
11931SOL    HW147672   1.126   1.376   4.185
11931SOL    HW247673   1.266   1.370   4.242
11932SOL     OW47674   0.555   3.765  13.646
11932SOL    HW147675   0.535   3.731  13.733
11932SOL    HW247676   0.619   3.703  13.610
11933SOL     OW47677   1.534   4.500  19.783
11933SOL    HW147678   1.503   4.537  19.700
11933SOL    HW247679   1.569   4.575  19.831
11934SOL     OW47680   1.468   2.876  17.676
11934SOL    HW147681   1.433   2.835  17.597
11934SOL    HW247682   1.560   2.891  17.657
11935SOL     OW47683   1.823   4.121   2.079
11935SOL    HW147684   1.791   4.180   2.010
11935SOL    HW247685   1.885   4.174   2.129
11936SOL     OW47686   3.149   3.651   0.384
11936SOL    HW147687   3.139   3.587   0.314
11936SOL    HW247688   3.201   3.721   0.345
11937SOL     OW47689   3.840   1.122   0.546
11937SOL    HW147690   3.900   1.151   0.615
11937SOL    HW247691   3.843   1.192   0.481
11938SOL     OW47692   4.470   1.034  17.720
11938SOL    HW147693   4.418   0.966  17.762
11938SOL    HW247694   4.559   0.998  17.717
11939SOL     OW47695   0.301   1.477   3.802
11939SOL    HW147696   0.331   1.443   3.718
11939SOL    HW247697   0.271   1.400   3.850
11940SOL     OW47698   1.114   1.413  18.641
11940SOL    HW147699   1.190   1.354  18.642
11940SOL    HW247700   1.056   1.379  18.709
11941SOL     OW47701   2.151   0.822   0.570
11941SOL    HW147702   2.089   0.788   0.634
11941SOL    HW247703   2.162   0.751   0.506
11942SOL     OW47704   1.695   1.465   7.514
11942SOL    HW147705   1.718   1.533   7.578
11942SOL    HW247706   1.670   1.513   7.435
11943SOL     OW47707   1.043   4.711   1.021
11943SOL    HW147708   1.014   4.681   0.935
11943SOL    HW247709   1.115   4.771   1.002
11944SOL     OW47710   1.457   3.473  15.948
11944SOL    HW147711   1.426   3.409  15.883
11944SOL    HW247712   1.415   3.446  16.030
11945SOL     OW47713   1.373   0.492   4.417
11945SOL    HW147714   1.421   0.461   4.340
11945SOL    HW247715   1.331   0.573   4.388
11946SOL     OW47716   2.122   3.565   5.717
11946SOL    HW147717   2.061   3.514   5.771
11946SOL    HW247718   2.074   3.581   5.636
11947SOL     OW47719   0.737   3.184   1.900
11947SOL    HW147720   0.765   3.256   1.956
11947SOL    HW247721   0.762   3.105   1.948
11948SOL     OW47722   3.836   1.492   3.214
11948SOL    HW147723   3.750   1.460   3.242
11948SOL    HW247724   3.818   1.546   3.137
11949SOL     OW47725   1.178   3.048   3.665
11949SOL    HW147726   1.154   3.111   3.596
11949SOL    HW247727   1.194   3.102   3.742
11950SOL     OW47728   2.579   3.916   4.505
11950SOL    HW147729   2.534   3.991   4.543
11950SOL    HW247730   2.635   3.953   4.436
11951SOL     OW47731   1.096   1.638  16.775
11951SOL    HW147732   1.028   1.572  16.791
11951SOL    HW247733   1.099   1.646  16.680
11952SOL     OW47734   2.870   3.726  14.704
11952SOL    HW147735   2.863   3.719  14.799
11952SOL    HW247736   2.926   3.802  14.690
11953SOL     OW47737   0.647   4.281   4.569
11953SOL    HW147738   0.625   4.320   4.654
11953SOL    HW247739   0.658   4.356   4.510
11954SOL     OW47740   0.696   4.047  16.686
11954SOL    HW147741   0.787   4.019  16.698
11954SOL    HW247742   0.703   4.137  16.653
11955SOL     OW47743   2.211   3.704   8.340
11955SOL    HW147744   2.130   3.664   8.370
11955SOL    HW247745   2.266   3.709   8.418
11956SOL     OW47746   2.017   3.739   6.893
11956SOL    HW147747   1.943   3.724   6.835
11956SOL    HW247748   2.085   3.680   6.861
11957SOL     OW47749   1.618   1.108  19.409
11957SOL    HW147750   1.673   1.031  19.394
11957SOL    HW247751   1.610   1.148  19.322
11958SOL     OW47752   0.175   2.666   5.387
11958SOL    HW147753   0.171   2.570   5.386
11958SOL    HW247754   0.228   2.688   5.311
11959SOL     OW47755   0.654   3.591  17.863
11959SOL    HW147756   0.650   3.512  17.809
11959SOL    HW247757   0.747   3.602  17.882
11960SOL     OW47758   4.765   1.307  20.394
11960SOL    HW147759   4.746   1.290  20.302
11960SOL    HW247760   4.738   1.398  20.408
11961SOL     OW47761   3.796   2.746  19.800
11961SOL    HW147762   3.848   2.807  19.853
11961SOL    HW247763   3.782   2.792  19.717
11962SOL     OW47764   3.127   1.440  18.621
11962SOL    HW147765   3.034   1.427  18.603
11962SOL    HW247766   3.171   1.406  18.543
11963SOL     OW47767   2.479   2.688   4.663
11963SOL    HW147768   2.452   2.749   4.732
11963SOL    HW247769   2.572   2.674   4.679
11964SOL     OW47770   0.328   0.107  12.232
11964SOL    HW147771   0.277   0.187  12.220
11964SOL    HW247772   0.264   0.036  12.228
11965SOL     OW47773   2.089   1.867  20.745
11965SOL    HW147774   2.151   1.905  20.683
11965SOL    HW247775   2.023   1.824  20.690
11966SOL     OW47776   1.830   2.660   1.948
11966SOL    HW147777   1.901   2.723   1.942
11966SOL    HW247778   1.752   2.713   1.963
11967SOL     OW47779   2.571   4.742   7.281
11967SOL    HW147780   2.494   4.688   7.298
11967SOL    HW247781   2.597   4.720   7.192
11968SOL     OW47782   1.823   2.301   3.843
11968SOL    HW147783   1.752   2.253   3.800
11968SOL    HW247784   1.779   2.356   3.908
11969SOL     OW47785   0.688   0.121   1.207
11969SOL    HW147786   0.670   0.030   1.231
11969SOL    HW247787   0.638   0.172   1.271
11970SOL     OW47788   3.584   0.616   0.600
11970SOL    HW147789   3.664   0.576   0.635
11970SOL    HW247790   3.587   0.597   0.506
11971SOL     OW47791   2.335   1.878  17.281
11971SOL    HW147792   2.383   1.802  17.313
11971SOL    HW247793   2.318   1.930  17.360
11972SOL     OW47794   3.227   4.775   5.649
11972SOL    HW147795   3.270   4.745   5.729
11972SOL    HW247796   3.201   0.076   5.668
11973SOL     OW47797   1.670   3.346  20.704
11973SOL    HW147798   1.597   3.408  20.703
11973SOL    HW247799   1.646   3.280  20.639
11974SOL     OW47800   3.730   0.872  17.993
11974SOL    HW147801   3.666   0.831  18.051
11974SOL    HW247802   3.745   0.958  18.031
11975SOL     OW47803   4.368   4.572   5.969
11975SOL    HW147804   4.365   4.485   5.928
11975SOL    HW247805   4.375   4.554   6.063
11976SOL     OW47806   1.785   2.833  20.048
11976SOL    HW147807   1.774   2.880  19.965
11976SOL    HW247808   1.805   2.743  20.022
11977SOL     OW47809   1.677   0.820   6.525
11977SOL    HW147810   1.589   0.819   6.487
11977SOL    HW247811   1.663   0.810   6.619
11978SOL     OW47812   1.274   3.636  12.755
11978SOL    HW147813   1.258   3.623  12.661
11978SOL    HW247814   1.308   3.552  12.785
11979SOL     OW47815   0.941   2.554  20.673
11979SOL    HW147816   1.013   2.599  20.717
11979SOL    HW247817   0.897   2.505  20.742
11980SOL     OW47818   3.484   4.226   4.611
11980SOL    HW147819   3.424   4.280   4.559
11980SOL    HW247820   3.507   4.281   4.686
11981SOL     OW47821   0.081   0.268  21.120
11981SOL    HW147822   0.128   0.191  21.153
11981SOL    HW247823   0.134   0.342  21.147
11982SOL     OW47824   3.857   2.507  17.723
11982SOL    HW147825   3.934   2.465  17.685
11982SOL    HW247826   3.797   2.435  17.743
11983SOL     OW47827   3.190   0.615  20.453
11983SOL    HW147828   3.111   0.581  20.494
11983SOL    HW247829   3.250   0.630  20.526
11984SOL     OW47830   3.035   4.383   0.730
11984SOL    HW147831   3.103   4.422   0.785
11984SOL    HW247832   2.955   4.431   0.754
11985SOL     OW47833   1.790   1.895  17.195
11985SOL    HW147834   1.808   1.987  17.175
11985SOL    HW247835   1.703   1.880  17.158
11986SOL     OW47836   3.847   1.701  16.563
11986SOL    HW147837   3.817   1.770  16.622
11986SOL    HW247838   3.826   1.734  16.475
11987SOL     OW47839   2.615   1.979   0.954
11987SOL    HW147840   2.681   1.979   1.024
11987SOL    HW247841   2.538   2.019   0.994
11988SOL     OW47842   4.260   2.706  16.095
11988SOL    HW147843   4.232   2.633  16.040
11988SOL    HW247844   4.235   2.681  16.184
11989SOL     OW47845   1.704   2.751   7.332
11989SOL    HW147846   1.627   2.733   7.385
11989SOL    HW247847   1.677   2.731   7.242
11990SOL     OW47848   4.191   2.059  16.331
11990SOL    HW147849   4.264   2.114  16.303
11990SOL    HW247850   4.113   2.113  16.316
11991SOL     OW47851   1.370   3.894   1.447
11991SOL    HW147852   1.464   3.892   1.465
11991SOL    HW247853   1.364   3.880   1.352
11992SOL     OW47854   3.355   2.832   5.269
11992SOL    HW147855   3.271   2.795   5.297
11992SOL    HW247856   3.358   2.919   5.308
11993SOL     OW47857   3.341   3.862   7.802
11993SOL    HW147858   3.296   3.887   7.721
11993SOL    HW247859   3.282   3.889   7.872
11994SOL     OW47860   0.671   1.577  15.395
11994SOL    HW147861   0.581   1.601  15.373
11994SOL    HW247862   0.695   1.637  15.466
11995SOL     OW47863   2.232   2.779   1.981
11995SOL    HW147864   2.163   2.839   1.953
11995SOL    HW247865   2.293   2.834   2.029
11996SOL     OW47866   3.263   2.059  21.084
11996SOL    HW147867   3.175   2.028  21.061
11996SOL    HW247868   3.264   2.151  21.059
11997SOL     OW47869   2.313   0.754  16.916
11997SOL    HW147870   2.259   0.785  16.989
11997SOL    HW247871   2.398   0.734  16.955
11998SOL     OW47872   1.304   1.443   6.655
11998SOL    HW147873   1.269   1.450   6.566
11998SOL    HW247874   1.304   1.349   6.674
11999SOL     OW47875   4.175   4.533  21.073
11999SOL    HW147876   4.101   4.478  21.099
11999SOL    HW247877   4.166   4.612  21.127
12000SOL     OW47878   4.170   4.507  15.914
12000SOL    HW147879   4.179   4.520  15.820
12000SOL    HW247880   4.213   4.583  15.953
12001SOL     OW47881   0.437   2.487   6.014
12001SOL    HW147882   0.394   2.489   6.099
12001SOL    HW247883   0.379   2.536   5.956
12002SOL     OW47884   2.188   2.307   2.277
12002SOL    HW147885   2.250   2.284   2.346
12002SOL    HW247886   2.222   2.388   2.240
12003SOL     OW47887   3.124   3.389  19.586
12003SOL    HW147888   3.116   3.294  19.576
12003SOL    HW247889   3.104   3.405  19.678
12004SOL     OW47890   1.148   2.715   0.647
12004SOL    HW147891   1.088   2.685   0.715
12004SOL    HW247892   1.235   2.695   0.681
12005SOL     OW47893   1.065   3.948  18.941
12005SOL    HW147894   1.117   3.969  19.018
12005SOL    HW247895   1.126   3.905  18.881
12006SOL     OW47896   4.073   3.471  17.956
12006SOL    HW147897   4.116   3.507  18.034
12006SOL    HW247898   3.985   3.449  17.985
12007SOL     OW47899   4.173   0.220   6.226
12007SOL    HW147900   4.227   0.233   6.148
12007SOL    HW247901   4.122   0.300   6.233
12008SOL     OW47902   1.125   1.426   2.931
12008SOL    HW147903   1.180   1.388   2.862
12008SOL    HW247904   1.163   1.393   3.013
12009SOL     OW47905   3.219   0.772  19.020
12009SOL    HW147906   3.212   0.724  19.103
12009SOL    HW247907   3.312   0.768  18.997
12010SOL     OW47908   1.151   0.066  13.486
12010SOL    HW147909   1.180   0.139  13.541
12010SOL    HW247910   1.225   0.005  13.486
12011SOL     OW47911   3.014   4.690   0.299
12011SOL    HW147912   3.100   4.662   0.268
12011SOL    HW247913   3.008   4.782   0.274
12012SOL     OW47914   2.268   3.623  16.092
12012SOL    HW147915   2.271   3.563  16.167
12012SOL    HW247916   2.235   3.705  16.129
12013SOL     OW47917   2.645   0.029  16.930
12013SOL    HW147918   2.582   4.788  16.995
12013SOL    HW247919   2.675   4.739  16.887
12014SOL     OW47920   0.047   4.419  19.618
12014SOL    HW147921   0.048   4.445  19.526
12014SOL    HW247922   0.044   4.323  19.616
12015SOL     OW47923   0.575   2.733   6.363
12015SOL    HW147924   0.518   2.662   6.392
12015SOL    HW247925   0.543   2.755   6.275
12016SOL     OW47926   1.126   3.444   5.430
12016SOL    HW147927   1.216   3.444   5.463
12016SOL    HW247928   1.086   3.522   5.469
12017SOL     OW47929   2.689   0.017   4.267
12017SOL    HW147930   2.709   0.070   4.190
12017SOL    HW247931   2.624   0.068   4.315
12018SOL     OW47932   3.793   1.520   4.565
12018SOL    HW147933   3.821   1.578   4.494
12018SOL    HW247934   3.706   1.551   4.589
12019SOL     OW47935   2.459   4.773  14.507
12019SOL    HW147936   2.549   4.742  14.516
12019SOL    HW247937   2.430   4.786  14.597
12020SOL     OW47938   0.629   1.340   1.055
12020SOL    HW147939   0.724   1.343   1.067
12020SOL    HW247940   0.597   1.297   1.134
12021SOL     OW47941   4.285   3.317  19.389
12021SOL    HW147942   4.304   3.411  19.387
12021SOL    HW247943   4.267   3.299  19.481
12022SOL     OW47944   4.201   1.581  16.020
12022SOL    HW147945   4.200   1.525  16.098
12022SOL    HW247946   4.122   1.635  16.028
12023SOL     OW47947   3.408   2.079   5.212
12023SOL    HW147948   3.327   2.110   5.171
12023SOL    HW247949   3.419   2.135   5.289
12024SOL     OW47950   2.985   3.357   4.624
12024SOL    HW147951   3.010   3.333   4.535
12024SOL    HW247952   2.981   3.453   4.623
12025SOL     OW47953   1.476   4.294   3.550
12025SOL    HW147954   1.382   4.295   3.569
12025SOL    HW247955   1.511   4.369   3.598
12026SOL     OW47956   4.466   0.672  18.444
12026SOL    HW147957   4.441   0.726  18.369
12026SOL    HW247958   4.548   0.630  18.417
12027SOL     OW47959   2.338   1.615   5.281
12027SOL    HW147960   2.334   1.687   5.344
12027SOL    HW247961   2.246   1.596   5.261
12028SOL     OW47962   0.379   2.069  18.472
12028SOL    HW147963   0.415   2.102  18.554
12028SOL    HW247964   0.369   1.975  18.486
12029SOL     OW47965   0.988   0.036  16.260
12029SOL    HW147966   0.987   4.730  16.269
12029SOL    HW247967   0.955   0.052  16.171
12030SOL     OW47968   3.480   1.014  21.175
12030SOL    HW147969   3.540   1.083  21.146
12030SOL    HW247970   3.524   0.932  21.152
12031SOL     OW47971   0.808   2.492  21.052
12031SOL    HW147972   0.839   2.582  21.039
12031SOL    HW247973   0.805   2.455  20.964
12032SOL     OW47974   0.301   0.693  19.996
12032SOL    HW147975   0.208   0.685  19.975
12032SOL    HW247976   0.339   0.609  19.969
12033SOL     OW47977   0.702   4.662  16.328
12033SOL    HW147978   0.796   4.650  16.342
12033SOL    HW247979   0.674   4.584  16.280
12034SOL     OW47980   4.200   0.354  15.810
12034SOL    HW147981   4.192   0.260  15.827
12034SOL    HW247982   4.235   0.359  15.721
12035SOL     OW47983   3.612   2.176  16.790
12035SOL    HW147984   3.586   2.254  16.839
12035SOL    HW247985   3.529   2.137  16.761
12036SOL     OW47986   0.734   3.683   1.472
12036SOL    HW147987   0.701   3.768   1.502
12036SOL    HW247988   0.714   3.623   1.544
12037SOL     OW47989   4.058   3.815  20.323
12037SOL    HW147990   3.973   3.842  20.288
12037SOL    HW247991   4.048   3.823  20.418
12038SOL     OW47992   0.315   4.020   2.904
12038SOL    HW147993   0.295   3.956   2.972
12038SOL    HW247994   0.321   3.968   2.824
12039SOL     OW47995   3.502   1.183  17.434
12039SOL    HW147996   3.583   1.165  17.482
12039SOL    HW247997   3.492   1.108  17.375
12040SOL     OW47998   1.001   4.691  16.810
12040SOL    HW147999   0.918   4.724  16.843
12040SOL    HW248000   1.042   4.767  16.768
12041SOL     OW48001   4.305   2.482  15.415
12041SOL    HW148002   4.234   2.519  15.363
12041SOL    HW248003   4.295   2.523  15.501
12042SOL     OW48004   1.451   2.983   0.863
12042SOL    HW148005   1.383   3.032   0.816
12042SOL    HW248006   1.436   2.892   0.837
12043SOL     OW48007   1.734   1.451   2.282
12043SOL    HW148008   1.692   1.408   2.357
12043SOL    HW248009   1.662   1.470   2.222
12044SOL     OW48010   3.721   2.276  17.848
12044SOL    HW148011   3.668   2.198  17.867
12044SOL    HW248012   3.805   2.259  17.890
12045SOL     OW48013   4.639   3.719   5.083
12045SOL    HW148014   4.561   3.730   5.137
12045SOL    HW248015   4.704   3.681   5.142
12046SOL     OW48016   4.208   1.807  12.341
12046SOL    HW148017   4.163   1.724  12.326
12046SOL    HW248018   4.151   1.855  12.401
12047SOL     OW48019   3.064   1.440  17.467
12047SOL    HW148020   3.124   1.496  17.418
12047SOL    HW248021   2.985   1.493  17.478
12048SOL     OW48022   2.551   4.498  20.678
12048SOL    HW148023   2.470   4.492  20.627
12048SOL    HW248024   2.552   4.418  20.730
12049SOL     OW48025   0.779   0.853   7.473
12049SOL    HW148026   0.841   0.833   7.403
12049SOL    HW248027   0.720   0.778   7.475
12050SOL     OW48028   1.645   3.237  18.724
12050SOL    HW148029   1.628   3.329  18.746
12050SOL    HW248030   1.740   3.227  18.734
12051SOL     OW48031   0.061   3.857  20.757
12051SOL    HW148032   4.779   3.831  20.815
12051SOL    HW248033   0.137   3.809  20.789
12052SOL     OW48034   3.569   2.630  15.613
12052SOL    HW148035   3.501   2.569  15.585
12052SOL    HW248036   3.612   2.658  15.532
12053SOL     OW48037   4.143   1.910  15.495
12053SOL    HW148038   4.129   1.985  15.553
12053SOL    HW248039   4.225   1.871  15.527
12054SOL     OW48040   3.814   4.082  16.164
12054SOL    HW148041   3.870   4.061  16.238
12054SOL    HW248042   3.750   4.145  16.199
12055SOL     OW48043   2.130   2.970  19.022
12055SOL    HW148044   2.187   3.047  19.026
12055SOL    HW248045   2.095   2.961  19.111
12056SOL     OW48046   4.568   2.086  18.905
12056SOL    HW148047   4.649   2.100  18.856
12056SOL    HW248048   4.499   2.088  18.839
12057SOL     OW48049   1.604   2.509   0.601
12057SOL    HW148050   1.643   2.541   0.520
12057SOL    HW248051   1.510   2.527   0.591
12058SOL     OW48052   3.848   4.705   3.679
12058SOL    HW148053   3.860   0.003   3.643
12058SOL    HW248054   3.864   4.715   3.773
12059SOL     OW48055   3.292   2.291   7.493
12059SOL    HW148056   3.367   2.256   7.445
12059SOL    HW248057   3.216   2.250   7.452
12060SOL     OW48058   0.028   0.591  19.109
12060SOL    HW148059   4.724   0.591  19.088
12060SOL    HW248060   0.053   0.683  19.111
12061SOL     OW48061   4.306   2.137  19.628
12061SOL    HW148062   4.393   2.142  19.668
12061SOL    HW248063   4.323   2.143  19.534
12062SOL     OW48064   1.666   2.240   0.556
12062SOL    HW148065   1.636   2.304   0.620
12062SOL    HW248066   1.731   2.188   0.603
12063SOL     OW48067   1.768   4.523  12.070
12063SOL    HW148068   1.705   4.568  12.013
12063SOL    HW248069   1.854   4.547  12.034
12064SOL     OW48070   3.286   2.630  15.104
12064SOL    HW148071   3.248   2.667  15.184
12064SOL    HW248072   3.303   2.538  15.126
12065SOL     OW48073   0.052   2.260  16.156
12065SOL    HW148074   0.060   2.286  16.064
12065SOL    HW248075   0.061   2.165  16.155
12066SOL     OW48076   4.773   4.304   4.199
12066SOL    HW148077   4.682   4.279   4.213
12066SOL    HW248078   0.005   4.356   4.276
12067SOL     OW48079   3.369   3.536   3.897
12067SOL    HW148080   3.433   3.607   3.888
12067SOL    HW248081   3.288   3.573   3.861
12068SOL     OW48082   3.480   1.191   3.494
12068SOL    HW148083   3.424   1.192   3.571
12068SOL    HW248084   3.568   1.207   3.528
12069SOL     OW48085   4.749   3.142   4.330
12069SOL    HW148086   0.048   3.159   4.361
12069SOL    HW248087   4.750   3.049   4.306
12070SOL     OW48088   0.165   4.730   2.140
12070SOL    HW148089   0.083   4.684   2.156
12070SOL    HW248090   0.168   0.008   2.207
12071SOL     OW48091   1.685   1.566  18.578
12071SOL    HW148092   1.614   1.577  18.515
12071SOL    HW248093   1.765   1.564  18.525
12072SOL     OW48094   3.580   4.614  16.400
12072SOL    HW148095   3.575   4.531  16.447
12072SOL    HW248096   3.631   4.671  16.457
12073SOL     OW48097   4.168   2.514  16.885
12073SOL    HW148098   4.083   2.506  16.843
12073SOL    HW248099   4.189   2.425  16.914
12074SOL     OW48100   2.063   4.005  17.827
12074SOL    HW148101   1.985   3.963  17.862
12074SOL    HW248102   2.062   3.983  17.734
12075SOL     OW48103   3.103   1.711   6.229
12075SOL    HW148104   3.081   1.804   6.224
12075SOL    HW248105   3.162   1.696   6.155
12076SOL     OW48106   0.617   4.000   5.094
12076SOL    HW148107   0.649   3.950   5.169
12076SOL    HW248108   0.614   3.936   5.022
12077SOL     OW48109   0.117   0.382   5.045
12077SOL    HW148110   0.099   0.396   5.138
12077SOL    HW248111   0.044   0.424   5.000
12078SOL     OW48112   0.022   0.325  19.969
12078SOL    HW148113   0.042   0.290  19.882
12078SOL    HW248114   0.015   0.248  20.025
12079SOL     OW48115   1.611   3.732  19.627
12079SOL    HW148116   1.575   3.705  19.543
12079SOL    HW248117   1.557   3.686  19.692
12080SOL     OW48118   2.470   4.720  20.951
12080SOL    HW148119   2.526   4.662  21.002
12080SOL    HW248120   2.505   0.018  20.968
12081SOL     OW48121   0.008   3.362   4.051
12081SOL    HW148122   4.738   3.288   4.042
12081SOL    HW248123   4.741   3.439   4.053
12082SOL     OW48124   0.687   2.207  17.500
12082SOL    HW148125   0.720   2.171  17.418
12082SOL    HW248126   0.764   2.214  17.556
12083SOL     OW48127   3.843   1.972  18.550
12083SOL    HW148128   3.748   1.981  18.546
12083SOL    HW248129   3.876   2.061  18.563
12084SOL     OW48130   4.399   3.326  16.852
12084SOL    HW148131   4.336   3.259  16.878
12084SOL    HW248132   4.473   3.276  16.817
12085SOL     OW48133   4.282   0.469  16.333
12085SOL    HW148134   4.255   0.508  16.250
12085SOL    HW248135   4.353   0.409  16.309
12086SOL     OW48136   3.035   0.539  18.405
12086SOL    HW148137   3.048   0.631  18.383
12086SOL    HW248138   3.122   0.509  18.432
12087SOL     OW48139   4.378   2.114   0.159
12087SOL    HW148140   4.294   2.096   0.202
12087SOL    HW248141   4.422   2.176   0.217
12088K        K48142   1.450   4.785   2.220
12089CL      CL48143   2.006   1.004   1.890
   4.78967   4.78967  21.25714
