Membrane in water
48141
  945MPD0     C    1   3.524   1.061   7.774  0.5513 -0.0437  0.2651
  945MPD0    C1    2   3.546   0.933   7.830 -0.9635 -0.5399  0.3834
  945MPD0    C2    3   3.575   0.826   7.744 -0.3165  0.6435  0.4587
  945MPD0    C3    4   3.597   0.849   7.608  0.1933  0.3497 -0.3331
  945MPD0    C4    5   3.581   0.979   7.566  0.3155 -0.2907 -0.6987
  945MPD0    C5    6   3.545   1.087   7.640 -0.4759  0.2441  0.3789
  945MPD0     H    7   3.587   0.724   7.781  3.2862  0.8266 -0.2401
  945MPD0    H1    8   3.608   1.003   7.464 -0.0951  1.2043 -0.4591
  945MPD0    H2    9   3.490   1.145   7.833 -0.1533  0.8226 -1.3661
  945MPD0    H3   10   3.537   1.185   7.595  0.1367 -0.9398 -2.3805
  945MPD0     N   11   3.610   0.741   7.516  0.2444  0.4416  0.3194
  945MPD0    H4   12   3.631   0.764   7.419  1.6882  3.5515  1.3464
  945MPD0    H5   13   3.673   0.666   7.543  0.7155  0.7509  0.0924
  945MPD0    N1   14   3.522   0.909   7.967 -0.6500  0.1482 -0.6832
  945MPD0    H6   15   3.543   0.988   8.028 -1.1151 -0.0772 -0.2321
  945MPD0    H7   16   3.579   0.836   8.008 -3.8784  0.0779  3.6499
  946MPD0     C   17   0.549   3.064  12.757  0.1842 -0.0059  0.2091
  946MPD0    C1   18   0.502   3.109  12.876 -0.7571 -0.3856  0.4460
  946MPD0    C2   19   0.554   3.043  12.986 -0.1681 -0.4108  0.3970
  946MPD0    C3   20   0.638   2.939  12.987 -0.4749 -0.0004  0.2281
  946MPD0    C4   21   0.682   2.905  12.863  0.0500 -0.1185 -0.2917
  946MPD0    C5   22   0.637   2.962  12.744  0.1648  0.2896 -0.2778
  946MPD0     H   23   0.504   3.068  13.079  0.4052  1.1380  0.2804
  946MPD0    H1   24   0.746   2.819  12.847  1.1581  0.2106  2.3861
  946MPD0    H2   25   0.517   3.109  12.664  2.8602  1.9070  0.1931
  946MPD0    H3   26   0.662   2.917  12.649 -1.4656 -0.9994 -0.0808
  946MPD0     N   27   0.660   2.856  13.104  0.0896 -0.2289 -0.8553
  946MPD0    H4   28   0.743   2.798  13.095  0.5429  0.2269  0.4197
  946MPD0    H5   29   0.575   2.801  13.106  0.0955 -0.1936  0.2339
  946MPD0    N1   30   0.428   3.228  12.887  0.1672  0.2671  0.4917
  946MPD0    H6   31   0.441   3.276  12.976  1.3413 -0.0982  0.5181
  946MPD0    H7   32   0.422   3.294  12.810 -0.3785  0.1127  0.4024
  947MPD0     C   33   0.098   1.189   7.303  0.0424 -0.4356 -0.5543
  947MPD0    C1   34   0.140   1.073   7.245 -0.5279 -0.2302  0.4994
  947MPD0    C2   35   0.271   1.089   7.192 -0.0767  0.2204  0.9912
  947MPD0    C3   36   0.339   1.206   7.187 -0.2817  0.3857 -0.2758
  947MPD0    C4   37   0.282   1.323   7.236 -0.0715  0.1852  0.0338
  947MPD0    C5   38   0.159   1.316   7.295 -0.1588  0.6638 -0.4470
  947MPD0     H   39   0.324   0.999   7.167  0.8422  0.4058  2.2911
  947MPD0    H1   40   0.340   1.414   7.226  1.5095 -0.8496 -0.2845
  947MPD0    H2   41   0.009   1.201   7.364  0.0538 -0.8577 -0.4508
  947MPD0    H3   42   0.104   1.402   7.330  0.3230 -0.0756  2.1417
  947MPD0     N   43   0.458   1.216   7.114  0.0777 -0.3945 -0.1491
  947MPD0    H4   44   0.516   1.133   7.107 -0.2089 -0.4303 -2.0353
  947MPD0    H5   45   0.518   1.295   7.137 -0.3701  0.6663 -2.6446
  947MPD0    N1   46   0.088   0.950   7.276 -0.4311 -0.4469  0.5837
  947MPD0    H6   47   0.113   0.875   7.211  1.1668  1.2443 -0.7661
  947MPD0    H7   48   4.763   0.957   7.286 -0.6690 -2.2122 -0.5997
  948MPD0     C   49   1.376   4.011   8.014 -0.6374 -0.3013  0.6519
  948MPD0    C1   50   1.365   4.140   8.047 -1.3275 -0.7403  0.9868
  948MPD0    C2   51   1.371   4.169   8.182 -0.9212 -0.7760  0.3444
  948MPD0    C3   52   1.407   4.081   8.277  0.9275  0.3325 -0.9418
  948MPD0    C4   53   1.431   3.955   8.237 -0.2416  0.7988  0.4434
  948MPD0    C5   54   1.415   3.924   8.107  0.4135 -0.2357 -0.5418
  948MPD0     H   55   1.335   4.267   8.209 -1.5068 -0.0949 -2.8667
  948MPD0    H1   56   1.446   3.885   8.318  0.4108  1.1062  0.5900
  948MPD0    H2   57   1.366   3.977   7.912  3.3226 -2.9465  1.1607
  948MPD0    H3   58   1.427   3.820   8.076  3.9102 -0.7703  2.6343
  948MPD0     N   59   1.408   4.110   8.413  0.3364 -0.4721  0.2542
  948MPD0    H4   60   1.423   4.206   8.442 -2.7792 -0.6691  2.5044
  948MPD0    H5   61   1.454   4.042   8.474 -0.0888 -1.8067 -0.9009
  948MPD0    N1   62   1.307   4.235   7.959  0.2639  0.5810 -0.3386
  948MPD0    H6   63   1.347   4.325   7.988  1.5665  0.0715 -0.5295
  948MPD0    H7   64   1.328   4.220   7.861 -0.1063  2.7709 -0.7573
  949MPD0     C   65   0.669   3.264  18.778 -0.3942 -0.3115 -0.4053
  949MPD0    C1   66   0.647   3.350  18.671 -0.4235 -0.5763 -0.7092
  949MPD0    C2   67   0.760   3.399  18.609 -0.1731 -0.0694  0.6986
  949MPD0    C3   68   0.886   3.358  18.643  0.4347 -0.0738  0.0368
  949MPD0    C4   69   0.904   3.270  18.743 -0.5841  0.1961 -0.4118
  949MPD0    C5   70   0.798   3.223  18.806  0.1310 -0.3226 -0.2136
  949MPD0     H   71   0.752   3.476  18.533 -0.3892 -0.5698  0.2127
  949MPD0    H1   72   0.998   3.227  18.774 -0.6001 -0.4176 -1.1976
  949MPD0    H2   73   0.580   3.217  18.818 -0.9548  0.8571 -0.2820
  949MPD0    H3   74   0.817   3.143  18.878 -2.0199  1.0119  1.8379
  949MPD0     N   75   0.996   3.416  18.575 -0.4781  0.0096 -0.4715
  949MPD0    H4   76   1.082   3.365  18.594 -1.2785 -0.9585  0.5336
  949MPD0    H5   77   0.986   3.426  18.475 -1.0486  0.7872 -0.3315
  949MPD0    N1   78   0.517   3.402  18.653 -0.4337  0.1761 -0.5743
  949MPD0    H6   79   0.512   3.420  18.553 -0.3897 -1.3162 -0.8497
  949MPD0    H7   80   0.447   3.332  18.678 -1.3604  1.3663  0.1880
  950MPD0     C   81   1.007   1.659  14.336 -0.0519 -0.0007 -0.0207
  950MPD0    C1   82   1.129   1.727  14.358 -0.1895  0.8046  0.0338
  950MPD0    C2   83   1.118   1.867  14.378  0.1383  0.2466  0.1508
  950MPD0    C3   84   0.992   1.928  14.363 -0.8112  0.6767 -0.7365
  950MPD0    C4   85   0.880   1.854  14.335 -0.6812  0.4568 -0.4251
  950MPD0    C5   86   0.883   1.724  14.329  0.0427  0.1093 -0.3079
  950MPD0     H   87   1.208   1.925  14.393  0.6008 -0.7351  1.1951
  950MPD0    H1   88   0.789   1.909  14.314 -1.0861 -0.4431 -1.0163
  950MPD0    H2   89   1.006   1.551  14.323  1.1296  0.2150 -1.8584
  950MPD0    H3   90   0.804   1.665  14.284 -1.5070  1.3702  0.7611
  950MPD0     N   91   0.983   2.068  14.369  0.1046  0.3817  0.2737
  950MPD0    H4   92   0.914   2.095  14.299  1.1981  0.5596 -0.7394
  950MPD0    H5   93   1.068   2.122  14.355  0.1657  0.4160  0.8031
  950MPD0    N1   94   1.245   1.657  14.382 -0.4626  0.2877 -0.4120
  950MPD0    H6   95   1.249   1.582  14.314  0.8217 -0.7585  0.8087
  950MPD0    H7   96   1.329   1.714  14.366  0.2581 -0.3144  1.2256
  951MPD0     C   97   1.652   4.317  12.071 -0.5253  0.2164 -0.9091
  951MPD0    C1   98   1.530   4.368  12.110 -0.2878  0.2708  0.3612
  951MPD0    C2   99   1.507   4.378  12.250 -0.3332 -0.2991 -0.1281
  951MPD0    C3  100   1.593   4.315  12.342  0.3834 -0.1293 -0.0972
  951MPD0    C4  101   1.711   4.267  12.294  0.1066  0.4738 -0.2895
  951MPD0    C5  102   1.735   4.260  12.163  0.5154  0.4768 -0.3992
  951MPD0     H  103   1.414   4.426  12.279  0.5471  1.7365 -0.5983
  951MPD0    H1  104   1.791   4.228  12.356 -0.8494 -4.3395 -2.0785
  951MPD0    H2  105   1.680   4.312  11.966 -1.7661  0.9015 -1.2696
  951MPD0    H3  106   1.830   4.210  12.145  0.0432 -0.7107  0.3681
  951MPD0     N  107   1.572   4.357  12.477 -0.1355 -0.0195 -0.1332
  951MPD0    H4  108   1.609   4.296  12.550  0.3618  2.7462  1.9236
  951MPD0    H5  109   1.473   4.374  12.495 -0.2181 -1.5072  0.8697
  951MPD0    N1  110   1.464   4.450  12.020  0.2308  0.3104 -0.2221
  951MPD0    H6  111   1.366   4.457  12.048  0.4559  3.6373 -0.3312
  951MPD0    H7  112   1.464   4.401  11.931 -4.2259  1.2960 -0.7876
  952MPD0     C  113   4.576   2.298   6.358 -0.0056 -0.9780 -0.5360
  952MPD0    C1  114   4.615   2.320   6.484 -0.2308  0.0915  0.0047
  952MPD0    C2  115   4.541   2.263   6.588 -0.2752 -0.2457 -0.0979
  952MPD0    C3  116   4.424   2.193   6.562 -0.0535  0.5580 -0.3035
  952MPD0    C4  117   4.389   2.176   6.435 -0.7198  0.1056 -0.3647
  952MPD0    C5  118   4.467   2.217   6.332  0.4006 -0.2626  0.1684
  952MPD0     H  119   4.567   2.270   6.693 -0.8208 -0.5275  0.0545
  952MPD0    H1  120   4.299   2.130   6.395 -1.1154 -0.6660  1.3906
  952MPD0    H2  121   4.633   2.329   6.272 -0.4056 -2.0957 -1.2036
  952MPD0    H3  122   4.429   2.201   6.232  1.8502 -0.0112 -0.4124
  952MPD0     N  123   4.334   2.155   6.668 -0.8276  0.9582 -0.6620
  952MPD0    H4  124   4.280   2.075   6.636  1.7039 -0.4958 -1.3120
  952MPD0    H5  125   4.384   2.131   6.754  0.8078  1.3135 -1.5074
  952MPD0    N1  126   4.747   2.349   6.507 -0.6048 -0.0250  0.0340
  952MPD0    H6  127   4.774   2.384   6.599  0.1489 -0.3067 -0.0796
  952MPD0    H7  128   0.004   2.420   6.441 -0.2856  0.7455  1.0318
  953MPD0     C  129   2.480   4.458   7.025 -0.1206  0.1669 -0.5063
  953MPD0    C1  130   2.345   4.455   7.015 -0.3523 -0.2854 -0.1410
  953MPD0    C2  131   2.291   4.386   6.904 -0.3722  0.2200  0.5825
  953MPD0    C3  132   2.363   4.312   6.818  0.4525  0.7257  0.0055
  953MPD0    C4  133   2.496   4.305   6.842 -0.9705  0.6711  0.0306
  953MPD0    C5  134   2.555   4.386   6.934 -0.5187  0.5387  0.0504
  953MPD0     H  135   2.184   4.387   6.882 -0.5792  1.5354  1.6021
  953MPD0    H1  136   2.553   4.245   6.771 -0.2595 -0.1620  1.3111
  953MPD0    H2  137   2.537   4.515   7.097 -2.1588 -0.2558  1.4398
  953MPD0    H3  138   2.663   4.394   6.939 -0.4289  0.6174 -1.8838
  953MPD0     N  139   2.308   4.238   6.716 -0.2862 -0.0735  0.0296
  953MPD0    H4  140   2.374   4.186   6.657 -1.5835 -0.0438 -1.4657
  953MPD0    H5  141   2.241   4.174   6.759  0.9845 -0.2115  1.7543
  953MPD0    N1  142   2.270   4.540   7.096  0.0260  0.2407 -0.2301
  953MPD0    H6  143   2.175   4.506   7.100  0.6691 -1.5624 -0.4544
  953MPD0    H7  144   2.311   4.559   7.188 -2.7089  1.0190  0.8259
  954MPD0     C  145   3.116   1.132   8.269  0.2111 -0.3868  0.2187
  954MPD0    C1  146   3.187   1.010   8.261  0.3085  0.6741 -0.7276
  954MPD0    C2  147   3.320   1.003   8.300  0.4905  0.1348  0.6846
  954MPD0    C3  148   3.387   1.118   8.339 -0.0481 -0.3049 -0.6753
  954MPD0    C4  149   3.308   1.231   8.375 -0.0804 -0.2151  0.1215
  954MPD0    C5  150   3.180   1.240   8.327  0.1216 -0.6614 -0.0860
  954MPD0     H  151   3.371   0.909   8.285 -0.2860 -0.4146  1.5152
  954MPD0    H1  152   3.345   1.316   8.431  0.7106 -0.9985  0.7891
  954MPD0    H2  153   3.010   1.139   8.247  0.3402 -0.3635 -0.3959
  954MPD0    H3  154   3.116   1.320   8.363  1.2194 -0.4354  1.3643
  954MPD0     N  155   3.512   1.107   8.395 -0.3754  0.2349 -1.0010
  954MPD0    H4  156   3.571   1.189   8.412  0.1568  0.0360 -1.8702
  954MPD0    H5  157   3.567   1.029   8.359 -2.7494 -1.8584 -0.0458
  954MPD0    N1  158   3.137   0.895   8.198  0.0102  0.0956 -0.1410
  954MPD0    H6  159   3.035   0.895   8.209 -0.1702 -1.6963 -1.8718
  954MPD0    H7  160   3.176   0.819   8.253 -0.6036 -1.1569 -1.4253
  955MPD0     C  161   0.991   4.443  14.476 -0.3271  0.3734  0.4819
  955MPD0    C1  162   0.940   4.327  14.530 -0.0596 -0.6441 -0.0186
  955MPD0    C2  163   0.994   4.288  14.652  0.1031  0.5258 -0.9852
  955MPD0    C3  164   1.101   4.342  14.716  1.0441  0.3835 -0.2679
  955MPD0    C4  165   1.151   4.458  14.659  0.3289 -0.5032  0.4577
  955MPD0    C5  166   1.099   4.498  14.535  0.0074  0.8074  0.6950
  955MPD0     H  167   0.951   4.200  14.699 -1.6335  0.3751 -2.8385
  955MPD0    H1  168   1.228   4.520  14.704 -1.6538  0.9356  1.8700
  955MPD0    H2  169   0.957   4.485  14.382 -1.6625 -0.0953  0.7558
  955MPD0    H3  170   1.137   4.591  14.493 -0.4277  0.9268  0.5617
  955MPD0     N  171   1.112   4.310  14.856 -0.7973  1.0009  0.2514
  955MPD0    H4  172   1.202   4.326  14.900 -0.1646  1.0510 -1.0570
  955MPD0    H5  173   1.082   4.213  14.868 -0.3565  0.5079 -2.6219
  955MPD0    N1  174   0.827   4.263  14.481 -0.7400  0.0838  0.1110
  955MPD0    H6  175   0.812   4.269  14.381  0.2855  3.1617  0.1141
  955MPD0    H7  176   0.821   4.164  14.501  1.4126 -0.0983 -0.2061
  956MPD0     C  177   2.173   0.779  15.254 -0.4046 -0.8640  0.7740
  956MPD0    C1  178   2.098   0.777  15.137 -0.0701  0.8111 -0.0533
  956MPD0    C2  179   2.031   0.658  15.115  0.0242 -0.3314 -0.2168
  956MPD0    C3  180   2.049   0.541  15.186  0.8480  0.1427 -0.8997
  956MPD0    C4  181   2.139   0.545  15.290 -0.5545 -0.3265 -0.2244
  956MPD0    C5  182   2.192   0.661  15.328 -0.3894 -0.6452 -0.0646
  956MPD0     H  183   1.976   0.648  15.022  1.0676  1.7581 -1.0725
  956MPD0    H1  184   2.152   0.454  15.347  0.6718 -0.2178 -0.3437
  956MPD0    H2  185   2.223   0.870  15.285 -3.1422  0.7289  0.5865
  956MPD0    H3  186   2.260   0.680  15.410  0.4897 -0.7081 -0.7711
  956MPD0     N  187   1.982   0.418  15.152  0.4781  0.7059  0.1286
  956MPD0    H4  188   1.981   0.343  15.221  1.6251 -0.2174 -0.8709
  956MPD0    H5  189   1.882   0.435  15.148  0.0520 -1.8879 -0.0322
  956MPD0    N1  190   2.059   0.890  15.068  0.0859  0.0652  0.9741
  956MPD0    H6  191   2.039   0.873  14.970  0.6075  0.5539  0.7857
  956MPD0    H7  192   2.120   0.971  15.077 -1.7082  1.2547  2.4869
  957MPD0     C  193   0.685   2.370  12.545 -0.1705  0.7316  0.1764
  957MPD0    C1  194   0.744   2.484  12.508 -0.3699 -0.6873  0.6479
  957MPD0    C2  195   0.873   2.475  12.448 -0.3865  0.3333  0.3798
  957MPD0    C3  196   0.931   2.350  12.428 -0.1438  0.5862  0.2500
  957MPD0    C4  197   0.887   2.247  12.503  0.2649 -0.0074 -0.9450
  957MPD0    C5  198   0.759   2.257  12.555  0.0258 -0.0255  0.0386
  957MPD0     H  199   0.930   2.561  12.413  0.3044 -0.3280 -0.1173
  957MPD0    H1  200   0.936   2.150  12.498  0.0785 -0.1132 -0.7292
  957MPD0    H2  201   0.588   2.371  12.593 -0.2876 -0.2932 -0.0425
  957MPD0    H3  202   0.717   2.168  12.600  1.0009 -1.0739 -1.1206
  957MPD0     N  203   1.057   2.331  12.365  0.0166 -0.2232 -0.0490
  957MPD0    H4  204   1.066   2.396  12.287  0.7546 -0.0670  0.1622
  957MPD0    H5  205   1.070   2.239  12.323  0.0235 -0.3607  0.2550
  957MPD0    N1  206   0.662   2.601  12.502  0.2586 -0.1173 -0.6668
  957MPD0    H6  207   0.604   2.611  12.585  0.7437  1.3137 -0.4944
  957MPD0    H7  208   0.715   2.688  12.495 -1.6970  1.1020 -0.3497
    1TMC1    C1  209   3.334   1.145   8.790  0.3197  0.0303  0.2680
    1TMC1    C2  210   3.454   1.076   8.812 -0.6976  0.7391 -0.5062
    1TMC1    C3  211   3.532   1.115   8.914 -0.0603 -0.0086 -0.3552
    1TMC1    C4  212   3.290   1.231   8.882  0.3250  0.1463 -0.3324
    1TMC1    C5  213   3.362   1.249   8.992 -0.3181  0.0620 -0.2181
    1TMC1    C6  214   3.482   1.197   9.009  0.5814 -0.5772 -0.0117
    1TMC1     C  215   3.229   1.080   8.710 -0.2831 -0.0180  0.4550
    1TMC1     O  216   3.131   1.153   8.697  0.9837 -0.4741  0.4585
    1TMC1     H  217   3.478   1.004   8.734 -1.6329  0.5377 -0.6114
    1TMC1    H1  218   3.191   1.274   8.871  0.8323  1.5237  0.4420
    1TMC1    H2  219   3.535   1.242   9.092 -2.1662 -0.2330  1.5557
    1TMC1    C7  220   3.351   1.382   9.051 -0.0743 -0.4151  0.2098
    1TMC1    C8  221   3.680   1.099   8.920  0.1050 -0.1164  0.4636
    1TMC1    O1  222   3.321   1.481   8.989 -0.1394  0.0184  0.1745
    1TMC1    O2  223   3.737   1.155   9.013 -0.3127  0.9721  0.1512
    1TMC1    O3  224   3.337   1.362   9.184 -0.0022  0.4355  0.2071
    1TMC1    H3  225   3.334   1.270   9.218  0.2195  0.5882  0.6391
    1TMC1    O5  226   3.721   1.102   8.796 -0.4430  0.5425 -0.1689
    1TMC1    H5  227   3.672   1.033   8.746  0.5069 -0.0520 -0.2731
    2TMC1    C1  228   1.163   2.299   7.559 -0.4171 -0.1753  0.3285
    2TMC1    C2  229   1.078   2.320   7.460  0.5764 -0.1131  0.1324
    2TMC1    C3  230   1.025   2.215   7.394  0.3820 -0.4916  0.6871
    2TMC1    C4  231   1.209   2.177   7.587  0.1973  0.0866 -0.3450
    2TMC1    C5  232   1.163   2.071   7.516  0.1220  0.0024 -0.5051
    2TMC1    C6  233   1.065   2.085   7.425 -0.4666 -0.5581 -0.6707
    2TMC1     C  234   1.204   2.414   7.642 -0.4006  0.1322 -0.1588
    2TMC1     O  235   1.291   2.393   7.726  0.1172 -0.8593 -0.2460
    2TMC1     H  236   1.060   2.421   7.427  0.2984  0.2086  1.2522
    2TMC1    H1  237   1.283   2.172   7.666 -1.3556 -0.9766  1.0452
    2TMC1    H2  238   1.027   1.999   7.371  3.1348 -2.6625  0.1150
    2TMC1    C7  239   1.217   1.942   7.547  0.8814 -0.5450 -0.0098
    2TMC1    C8  240   0.937   2.244   7.282 -0.1031 -0.1374  0.3128
    2TMC1    O1  241   1.160   1.835   7.535  0.0871  0.0000 -0.2443
    2TMC1    O2  242   0.880   2.354   7.282 -0.5672  0.5989  0.3615
    2TMC1    O3  243   1.348   1.958   7.567  0.0532 -0.0979  0.4993
    2TMC1    H3  244   1.378   2.049   7.547 -0.4311 -0.2470 -0.9235
    2TMC1    O5  245   0.962   2.164   7.181  0.1084  0.0601 -0.3140
    2TMC1    H5  246   1.014   2.081   7.192  0.9174  0.4877 -0.8984
    3TMC1    C1  247   2.479   3.528   8.882  0.3381  0.6834 -0.3183
    3TMC1    C2  248   2.458   3.429   8.975 -0.1204 -0.0476 -0.4388
    3TMC1    C3  249   2.567   3.389   9.044 -0.2584  0.1330 -0.4308
    3TMC1    C4  250   2.604   3.568   8.843 -0.0597  0.8558 -0.6819
    3TMC1    C5  251   2.716   3.515   8.907  0.2257 -0.3107  0.4467
    3TMC1    C6  252   2.698   3.424   9.006 -0.3481  0.5835  0.0897
    3TMC1     C  253   2.369   3.580   8.793  0.0981 -0.2036  0.3760
    3TMC1     O  254   2.403   3.621   8.681  0.0270 -0.1398 -0.0686
    3TMC1     H  255   2.363   3.387   9.005 -0.9247  4.6102  3.5894
    3TMC1    H1  256   2.616   3.647   8.770  2.9288  2.9210  2.0842
    3TMC1    H2  257   2.777   3.388   9.071 -0.9819 -0.5005  0.2594
    3TMC1    C7  258   2.838   3.588   8.920 -0.9621  0.1566  0.1876
    3TMC1    C8  259   2.563   3.270   9.125  0.5035 -0.1808 -0.0011
    3TMC1    O1  260   2.906   3.575   9.022  0.2067 -0.2863  0.3273
    3TMC1    O2  261   2.630   3.167   9.109 -0.6936 -0.1202  0.9312
    3TMC1    O3  262   2.856   3.675   8.816  1.0141 -0.2321 -0.1629
    3TMC1    H3  263   2.808   3.646   8.736  0.3420 -1.6092  0.7463
    3TMC1    O5  264   2.464   3.284   9.216 -0.5994  0.2328  0.5446
    3TMC1    H5  265   2.455   3.379   9.240  2.3867  0.3227  1.3033
    4TMC1    C1  266   0.041   2.873   9.624  0.5050  0.5773 -0.2682
    4TMC1    C2  267   4.712   2.954   9.587  0.0353  0.4886 -0.6104
    4TMC1    C3  268   4.706   3.085   9.635  0.2031 -0.5289 -0.3310
    4TMC1    C4  269   0.129   2.922   9.716 -0.6130 -0.4266 -0.1593
    4TMC1    C5  270   0.121   3.051   9.762 -0.1576  0.0523 -0.6584
    4TMC1    C6  271   0.024   3.137   9.718 -0.2983  0.4529 -0.0102
    4TMC1     C  272   0.016   2.728   9.642 -0.2964 -0.0813  0.3040
    4TMC1     O  273   0.080   2.671   9.729  0.3633  0.1310  0.2531
    4TMC1     H  274   4.634   2.910   9.525 -0.2169  1.8470 -1.2462
    4TMC1    H1  275   0.202   2.855   9.758 -0.3594 -1.0529 -1.5929
    4TMC1    H2  276   0.015   3.242   9.745 -0.4408 -0.1093  2.1411
    4TMC1    C7  277   0.198   3.086   9.885  0.0052 -0.3680  0.5715
    4TMC1    C8  278   4.596   3.170   9.595 -0.3789 -0.1303 -0.2309
    4TMC1    O1  279   0.303   3.031   9.921 -0.5024 -0.4179  0.1493
    4TMC1    O2  280   4.631   3.286   9.577  0.6651 -0.1639  0.5740
    4TMC1    O3  281   0.130   3.184   9.958 -0.6871  0.3292 -0.3861
    4TMC1    H3  282   0.038   3.204   9.929 -0.9178 -0.8052 -0.4288
    4TMC1    O5  283   4.497   3.123   9.682 -0.1314  0.2679  0.3328
    4TMC1    H5  284   4.499   3.027   9.700 -2.8505  0.1121 -0.1734
    5TMC1    C1  285   2.467   2.472   6.910 -0.7022 -0.1791  0.3363
    5TMC1    C2  286   2.387   2.495   6.802  0.7393 -0.0928 -0.6420
    5TMC1    C3  287   2.284   2.576   6.833 -0.9785  1.0546 -0.1899
    5TMC1    C4  288   2.451   2.526   7.038 -0.0272 -0.0928 -0.8128
    5TMC1    C5  289   2.346   2.609   7.061 -0.0668  0.1300  0.4735
    5TMC1    C6  290   2.262   2.635   6.956  0.2083  0.1224 -0.3283
    5TMC1     C  291   2.545   2.352   6.894 -0.3172  0.1109 -0.3779
    5TMC1     O  292   2.575   2.320   6.777  0.3695  0.0801 -0.2430
    5TMC1     H  293   2.389   2.433   6.713 -1.0734 -2.8468  1.2284
    5TMC1    H1  294   2.521   2.502   7.117 -2.6169 -1.1031  1.1756
    5TMC1    H2  295   2.185   2.710   6.951  0.6707  0.6650  0.7829
    5TMC1    C7  296   2.336   2.693   7.174  0.1766 -0.9309  0.4073
    5TMC1    C8  297   2.225   2.645   6.723  0.7695  0.3695 -0.8177
    5TMC1    O1  298   2.307   2.812   7.166  0.5440 -0.2522  0.1020
    5TMC1    O2  299   2.151   2.743   6.749  0.5525  0.2012  0.1569
    5TMC1    O3  300   2.418   2.643   7.269  0.0452 -0.4082 -0.3580
    5TMC1    H3  301   2.400   2.547   7.271  1.7416 -0.7013 -0.0005
    5TMC1    O5  302   2.328   2.654   6.638  0.5689 -0.0878  0.5535
    5TMC1    H5  303   2.386   2.575   6.631  2.4477  1.3371 -0.0360
    6TMC1    C1  304   3.165   1.854  10.969  0.1828  0.0008 -0.2797
    6TMC1    C2  305   3.276   1.856  11.048 -0.2861 -0.4893 -0.3343
    6TMC1    C3  306   3.372   1.949  11.018 -0.7763  0.2006  0.0252
    6TMC1    C4  307   3.149   1.920  10.848  1.0411  0.6139 -0.0837
    6TMC1    C5  308   3.267   1.995  10.810 -0.5300 -0.3328 -0.2914
    6TMC1    C6  309   3.366   2.018  10.899 -0.3264 -0.0318  0.1760
    6TMC1     C  310   3.053   1.771  11.016  0.2765  0.3690 -0.2467
    6TMC1     O  311   3.045   1.733  11.134 -0.1970  0.5560  1.0619
    6TMC1     H  312   3.285   1.782  11.128 -1.8504  2.4756  2.6052
    6TMC1    H1  313   3.063   1.907  10.784  0.3446 -0.2688  1.0376
    6TMC1    H2  314   3.450   2.080  10.869 -2.8775  3.1370 -0.3700
    6TMC1    C7  315   3.251   2.065  10.688  0.0971  0.3250 -0.5272
    6TMC1    C8  316   3.493   1.963  11.095 -0.9337 -0.4494  0.7410
    6TMC1    O1  317   3.347   2.106  10.626  0.2115  0.2931 -0.4498
    6TMC1    O2  318   3.570   2.054  11.073  0.5404  0.6020 -0.4721
    6TMC1    O3  319   3.137   2.143  10.710 -0.4753 -0.0902 -0.4089
    6TMC1    H3  320   3.065   2.104  10.764  2.0193 -1.2272  2.1457
    6TMC1    O5  321   3.465   1.915  11.217 -0.1331  0.3349 -0.5348
    6TMC1    H5  322   3.533   1.942  11.282  0.6998 -1.0918 -0.8123
    7TMC1    C1  323   2.554   1.252   7.469 -0.3772  0.7250  0.7790
    7TMC1    C2  324   2.485   1.141   7.509 -0.0691  0.1789  1.5407
    7TMC1    C3  325   2.551   1.021   7.488  0.5386  0.1665  0.1907
    7TMC1    C4  326   2.663   1.238   7.385  0.4513  0.0028  0.5588
    7TMC1    C5  327   2.720   1.114   7.359 -0.2384 -0.2844 -0.2382
    7TMC1    C6  328   2.666   1.004   7.421  0.0386 -0.1911  0.8519
    7TMC1     C  329   2.483   1.378   7.474  0.3145  0.6078  0.5343
    7TMC1     O  330   2.410   1.399   7.568 -1.1018  0.1381  0.1169
    7TMC1     H  331   2.384   1.143   7.548  0.4721  0.6725  2.9033
    7TMC1    H1  332   2.733   1.317   7.358  2.6620 -2.3671 -0.6701
    7TMC1    H2  333   2.729   0.917   7.425 -1.5503 -1.4411 -1.2523
    7TMC1    C7  334   2.860   1.112   7.367 -1.2891  0.3775  0.0335
    7TMC1    C8  335   2.519   0.910   7.576 -0.3247 -0.0316  0.6891
    7TMC1    O1  336   2.919   1.210   7.408  0.1044  0.5052 -0.2637
    7TMC1    O2  337   2.564   0.793   7.560 -0.4305  0.1046 -0.0654
    7TMC1    O3  338   2.900   1.006   7.294 -0.3608  0.4149 -0.3850
    7TMC1    H3  339   2.837   0.953   7.241  1.1646 -0.2225 -1.5914
    7TMC1    O5  340   2.480   0.956   7.696  0.0347 -0.2653 -1.2051
    7TMC1    H5  341   2.466   1.053   7.698  0.0975 -0.2526 -1.3410
    8TMC1    C1  342   3.795   0.247  15.926 -0.2578 -0.2419 -0.0689
    8TMC1    C2  343   3.702   0.301  15.839  0.4005  0.5679  0.1770
    8TMC1    C3  344   3.701   0.437  15.809  0.0179 -0.6756  0.4288
    8TMC1    C4  345   3.900   0.322  15.966 -0.0202 -0.5623  0.3582
    8TMC1    C5  346   3.912   0.447  15.912 -0.1171 -0.1148  0.1656
    8TMC1    C6  347   3.809   0.506  15.843 -0.1488 -0.2517 -0.0337
    8TMC1     C  348   3.836   0.112  15.906 -0.0922 -0.0282 -0.2276
    8TMC1     O  349   3.950   0.080  15.937  0.3634  0.3065  0.1534
    8TMC1     H  350   3.621   0.243  15.797  0.0874 -0.5048  2.2931
    8TMC1    H1  351   3.988   0.290  16.021  0.1858 -1.8716 -0.7320
    8TMC1    H2  352   3.816   0.610  15.812 -0.6746 -0.2172 -0.0308
    8TMC1    C7  353   4.023   0.539  15.951  0.2751  0.8185  0.5732
    8TMC1    C8  354   3.618   0.482  15.701 -0.6079 -0.1939  0.5253
    8TMC1    O1  355   4.059   0.633  15.887 -0.0564  0.1194 -0.2231
    8TMC1    O2  356   3.569   0.414  15.610 -0.3884  0.6341  0.0576
    8TMC1    O3  357   4.046   0.528  16.082 -0.0549 -0.2194 -0.4002
    8TMC1    H3  358   3.977   0.476  16.128  0.4937  0.2288  0.9350
    8TMC1    O5  359   3.575   0.605  15.733  0.3352 -0.4972  0.1114
    8TMC1    H5  360   3.610   0.654  15.811  1.1527  0.0821 -0.6148
    9TMC1    C1  361   1.425   0.289   8.455  0.3147 -0.6989 -0.0031
    9TMC1    C2  362   1.317   0.207   8.468  1.1011  1.2991 -0.0682
    9TMC1    C3  363   1.260   0.189   8.586  0.4462 -0.2636 -0.2987
    9TMC1    C4  364   1.482   0.356   8.563  0.0300  0.5876 -0.6384
    9TMC1    C5  365   1.417   0.332   8.682  0.1999  0.5185  0.1281
    9TMC1    C6  366   1.311   0.248   8.699 -0.6979  0.0122 -0.0404
    9TMC1     C  367   1.534   0.246   8.361 -0.0016 -0.6104 -0.3356
    9TMC1     O  368   1.519   0.143   8.298  0.0917 -0.3582  0.4581
    9TMC1     H  369   1.272   0.150   8.388  1.6248  0.4535  0.2468
    9TMC1    H1  370   1.566   0.424   8.558 -0.0715  0.9403  2.5842
    9TMC1    H2  371   1.254   0.241   8.791  0.0058 -1.9241  0.2371
    9TMC1    C7  372   1.460   0.403   8.800  0.0797  0.3742 -0.5483
    9TMC1    C8  373   1.135   0.118   8.604  0.3040  0.1822 -0.9872
    9TMC1    O1  374   1.387   0.460   8.881  0.5301  0.1788 -0.3691
    9TMC1    O2  375   1.030   0.176   8.622  0.1056 -0.0267  0.5765
    9TMC1    O3  376   1.595   0.416   8.786  0.3710 -0.5393  0.4794
    9TMC1    H3  377   1.641   0.346   8.736  1.4082  0.2044  0.3973
    9TMC1    O5  378   1.139   0.004   8.533  0.5986  0.2174  0.3568
    9TMC1    H5  379   1.227   4.737   8.545  0.8779  0.2719 -1.5842
   10TMC2    C1  380   3.704   1.393  10.749  0.5006 -0.3552 -0.1584
   10TMC2    C2  381   3.666   1.434  10.627 -0.3336  0.2806  0.0371
   10TMC2    C3  382   3.549   1.392  10.581  0.1220 -0.7963 -0.8852
   10TMC2    C4  383   3.632   1.306  10.822  0.0683  1.1799 -0.5442
   10TMC2    C5  384   3.530   1.247  10.757  0.3652  0.1200 -0.3741
   10TMC2    C6  385   3.483   1.288  10.636 -0.9009  0.9421 -0.4649
   10TMC2     C  386   3.824   1.450  10.802 -0.3760 -0.3020 -0.1619
   10TMC2     O  387   3.876   1.545  10.742 -0.1481  0.3124  0.8241
   10TMC2     H  388   3.717   1.517  10.580 -1.3916  1.0631  0.2689
   10TMC2    H1  389   3.667   1.267  10.917 -1.0872 -1.6589 -1.2570
   10TMC2    H2  390   3.396   1.243  10.590 -0.1410  0.5970 -1.5632
   10TMC2    C7  391   3.461   1.136  10.819 -0.1582  0.3322 -0.5870
   10TMC2    C8  392   3.485   1.450  10.462 -0.0067 -0.2159  0.4052
   10TMC2    O1  393   3.393   1.075  10.736 -1.1463 -0.3650  0.3532
   10TMC2    O2  394   3.546   1.513  10.374 -0.8379  0.4795  0.5150
   10TMC2    O5  395   3.349   1.443  10.484  0.9853  0.0383 -0.5619
   10TMC2    H5  396   3.324   1.406  10.572  1.9258  0.4071 -0.1339
   11TMC2    C1  397   1.456   1.891  10.703  0.1651  0.4884  0.6956
   11TMC2    C2  398   1.371   1.789  10.683 -0.6862  0.4791 -0.0367
   11TMC2    C3  399   1.251   1.787  10.749 -0.4948  0.1128 -0.3115
   11TMC2    C4  400   1.413   2.001  10.776 -0.2442  0.4229 -0.1648
   11TMC2    C5  401   1.298   1.987  10.844  0.5370 -0.2384 -0.5936
   11TMC2    C6  402   1.219   1.880  10.844 -0.2550  0.1739  0.6532
   11TMC2     C  403   1.579   1.891  10.623 -0.6033 -0.7446  0.3277
   11TMC2     O  404   1.626   1.785  10.590  0.2360 -0.0252  0.4527
   11TMC2     H  405   1.385   1.714  10.606  1.4179 -0.6304  1.4089
   11TMC2    H1  406   1.457   2.099  10.791 -0.7637  0.6602 -0.1751
   11TMC2    H2  407   1.121   1.875  10.891 -0.7692 -0.5282 -0.4978
   11TMC2    C7  408   1.258   2.103  10.913  0.1506 -0.3116 -0.2049
   11TMC2    C8  409   1.199   1.656  10.764  0.3886 -0.7949  0.2989
   11TMC2    O1  410   1.337   2.147  10.995  0.1455 -0.4689 -0.0892
   11TMC2    O2  411   1.215   1.569  10.682  0.6835 -0.1766 -0.2216
   11TMC2    O5  412   1.129   1.651  10.878  1.2385 -0.3709 -0.3172
   11TMC2    H5  413   1.144   1.725  10.941  0.5144 -2.3412  2.1892
   12TMC2    C1  414   1.691   2.492  11.008 -0.3987 -0.5289  0.0429
   12TMC2    C2  415   1.634   2.558  11.114 -0.3456  0.2458 -0.5640
   12TMC2    C3  416   1.504   2.567  11.115  0.2901  0.0761 -0.5295
   12TMC2    C4  417   1.620   2.438  10.904  0.0001 -0.2091  0.3009
   12TMC2    C5  418   1.488   2.458  10.905  0.4109 -0.0020  0.6936
   12TMC2    C6  419   1.421   2.519  11.010 -0.2100  0.8777  0.4258
   12TMC2     C  420   1.830   2.494  10.988  0.2668  0.4821  0.3698
   12TMC2     O  421   1.881   2.604  11.009 -0.2349 -0.3327  0.4898
   12TMC2     H  422   1.703   2.595  11.190  1.1646 -0.1664 -1.7543
   12TMC2    H1  423   1.668   2.386  10.822 -2.5096  2.4163 -2.8345
   12TMC2    H2  424   1.313   2.520  11.021  0.0031 -0.3711  2.4219
   12TMC2    C7  425   1.413   2.417  10.787 -0.2699  0.1926 -0.2255
   12TMC2    C8  426   1.451   2.653  11.213 -0.5797  0.3107  0.3679
   12TMC2    O1  427   1.470   2.339  10.708  0.4425 -0.3517  0.5545
   12TMC2    O2  428   1.491   2.769  11.209  0.1672 -0.0410 -0.2147
   12TMC2    O5  429   1.325   2.611  11.254  0.0252  0.3581 -0.2473
   12TMC2    H5  430   1.318   2.513  11.246  2.7491  0.1737 -0.1010
   13TMC2    C1  431   1.341   0.688   8.104 -0.6159 -0.0953 -0.1939
   13TMC2    C2  432   1.445   0.774   8.097 -0.3098 -0.3050 -0.2228
   13TMC2    C3  433   1.511   0.800   8.214 -0.6858  0.4888 -0.1207
   13TMC2    C4  434   1.290   0.630   8.221 -0.3863 -0.7689 -0.3612
   13TMC2    C5  435   1.367   0.658   8.331 -0.3265  0.2363  0.0637
   13TMC2    C6  436   1.471   0.738   8.323 -0.1115 -0.7236 -0.0297
   13TMC2     C  437   1.294   0.642   7.976 -0.6384 -0.0618 -0.7508
   13TMC2     O  438   1.346   0.685   7.873  0.2015  0.7847 -0.1528
   13TMC2     H  439   1.491   0.801   8.003  1.0673 -2.7681 -0.2450
   13TMC2    H1  440   1.188   0.594   8.223 -1.3394  2.1139  2.9253
   13TMC2    H2  441   1.523   0.764   8.415  2.0107 -1.6587 -0.9651
   13TMC2    C7  442   1.304   0.672   8.458 -0.3293  0.8547 -0.3350
   13TMC2    C8  443   1.631   0.880   8.215 -0.3735 -0.6620  1.2970
   13TMC2    O1  444   1.384   0.676   8.552 -0.5185 -0.1544  0.1733
   13TMC2    O2  445   1.717   0.868   8.301 -0.0407 -0.2053 -0.0753
   13TMC2    O5  446   1.635   0.966   8.105 -0.0539 -0.2111 -0.3344
   13TMC2    H5  447   1.548   0.974   8.061  0.0376  0.9264 -0.2999
   14TMC2    C1  448   0.250   2.872   7.765  0.4411  0.5118  0.5804
   14TMC2    C2  449   0.284   2.998   7.799  0.2094 -0.0778 -0.1183
   14TMC2    C3  450   0.417   3.024   7.802  0.4473  0.2221  0.2089
   14TMC2    C4  451   0.342   2.774   7.749  0.1707 -0.3646  0.3259
   14TMC2    C5  452   0.474   2.807   7.768  0.0861 -0.4691  0.3279
   14TMC2    C6  453   0.510   2.935   7.794 -0.7094  0.7424  0.0042
   14TMC2     C  454   0.126   2.828   7.823  0.4308  0.3359 -0.1783
   14TMC2     O  455   0.030   2.903   7.818 -0.1729  0.6182 -0.2731
   14TMC2     H  456   0.211   3.075   7.817 -0.4988 -0.8630  0.3849
   14TMC2    H1  457   0.319   2.671   7.724  1.4422 -0.5809  0.0694
   14TMC2    H2  458   0.612   2.965   7.813 -0.1269 -1.0102 -0.2989
   14TMC2    C7  459   0.536   2.718   7.864 -0.5607 -0.0648 -0.2714
   14TMC2    C8  460   0.465   3.144   7.871 -0.2316 -0.1156  0.1579
   14TMC2    O1  461   0.453   2.658   7.931  0.0499 -0.1775 -0.1289
   14TMC2    O2  462   0.578   3.191   7.867 -0.0512 -0.1795 -0.0241
   14TMC2    O5  463   0.379   3.168   7.971  0.8331  0.3604 -0.1145
   14TMC2    H5  464   0.320   3.091   7.984  2.1364 -0.3760  1.2855
   15TMC2    C1  465   0.441   0.228  10.447  0.0842  0.1582  0.6414
   15TMC2    C2  466   0.527   0.174  10.538  0.2010 -0.3851 -0.1953
   15TMC2    C3  467   0.590   0.265  10.617  0.1825 -0.4629  0.8752
   15TMC2    C4  468   0.425   0.360  10.427  0.4641  0.2738  0.6661
   15TMC2    C5  469   0.484   0.447  10.512  0.1353  0.4176  0.4380
   15TMC2    C6  470   0.571   0.399  10.612 -0.5908 -0.2600  0.4113
   15TMC2     C  471   0.359   0.132  10.370 -0.1923 -0.1357  0.1858
   15TMC2     O  472   0.402   0.020  10.347  0.8376  0.0813 -0.5299
   15TMC2     H  473   0.550   0.068  10.540 -1.8707 -0.7676  4.0527
   15TMC2    H1  474   0.365   0.402  10.346 -0.2603  0.1741  1.1554
   15TMC2    H2  475   0.609   0.457  10.695  0.6214 -1.6433  0.8294
   15TMC2    C7  476   0.419   0.576  10.527  0.2969 -0.2352 -0.4353
   15TMC2    C8  477   0.712   0.215  10.686 -0.9864  0.3856  0.4986
   15TMC2    O1  478   0.352   0.614  10.430 -0.7861  0.4558 -0.2385
   15TMC2    O2  479   0.725   0.098  10.723  0.0946  0.3224  0.2797
   15TMC2    O5  480   0.805   0.299  10.650  0.3867  0.3654 -0.4779
   15TMC2    H5  481   0.786   0.363  10.577  0.7614 -0.2950 -1.1538
   16TMC2    C1  482   2.546   3.208  11.822 -0.5373  0.0073 -0.1626
   16TMC2    C2  483   2.458   3.315  11.844  0.5327  0.5385 -0.0438
   16TMC2    C3  484   2.443   3.359  11.973 -0.4386 -0.0987  0.0391
   16TMC2    C4  485   2.612   3.148  11.927  0.4798 -0.3256  0.1621
   16TMC2    C5  486   2.585   3.194  12.053  0.2884  0.2621  0.0346
   16TMC2    C6  487   2.503   3.301  12.077 -0.1924 -0.4019 -0.8796
   16TMC2     C  488   2.600   3.189  11.688 -0.1026  0.9239  0.0631
   16TMC2     O  489   2.549   3.262  11.604 -0.6728  0.2026 -0.2572
   16TMC2     H  490   2.398   3.353  11.763  0.7797 -0.4273 -0.6774
   16TMC2    H1  491   2.688   3.072  11.914 -0.3616 -1.2200  0.4151
   16TMC2    H2  492   2.494   3.338  12.179  0.0504 -3.1278  0.1288
   16TMC2    C7  493   2.642   3.131  12.165 -0.3969 -0.3617  0.1049
   16TMC2    C8  494   2.356   3.478  11.977  0.1744 -0.3384  0.2677
   16TMC2    O1  495   2.762   3.107  12.164  0.5665 -0.2057  0.0233
   16TMC2    O2  496   2.305   3.521  11.880 -0.4565 -0.2608  0.2639
   16TMC2    O5  497   2.388   3.550  12.083 -0.5359  0.1612 -0.2928
   16TMC2    H5  498   2.438   3.500  12.152  0.2602  1.4954  0.0892
   17TMC2    C1  499   1.933   1.365   7.322  0.2187 -0.3173 -0.2345
   17TMC2    C2  500   1.799   1.397   7.294 -0.1207  0.4074  0.7377
   17TMC2    C3  501   1.760   1.440   7.172  0.4748  0.1775  0.0186
   17TMC2    C4  502   2.037   1.391   7.230 -0.2250  0.1997  1.0181
   17TMC2    C5  503   1.991   1.446   7.114 -0.4231  0.2767  0.0873
   17TMC2    C6  504   1.862   1.475   7.090 -0.3018  0.4940  0.3357
   17TMC2     C  505   1.973   1.313   7.449 -0.1211  0.0626 -0.0995
   17TMC2     O  506   2.074   1.247   7.456  0.1613  0.4794  0.4422
   17TMC2     H  507   1.729   1.349   7.361  1.8325 -0.8227  1.8930
   17TMC2    H1  508   2.142   1.386   7.256  0.0599 -0.9645 -0.3150
   17TMC2    H2  509   1.828   1.504   6.991 -0.6190  0.4435  0.4283
   17TMC2    C7  510   2.086   1.482   7.011 -0.0386  0.0350  0.1813
   17TMC2    C8  511   1.614   1.428   7.146 -0.0393  0.4857  0.3426
   17TMC2    O1  512   2.042   1.555   6.922 -0.0244 -0.0608  0.2007
   17TMC2    O2  513   1.536   1.367   7.215 -0.0018  0.6050  0.0041
   17TMC2    O5  514   1.580   1.522   7.062  0.1081 -0.7399  0.5681
   17TMC2    H5  515   1.658   1.562   7.017 -0.7038 -0.2980 -0.4425
   18TMC2    C1  516   3.538   2.375   7.254  0.1463 -0.7664  0.2482
   18TMC2    C2  517   3.454   2.336   7.162  0.0259  0.6280  0.6855
   18TMC2    C3  518   3.325   2.312   7.192  0.1124  1.1850  0.0497
   18TMC2    C4  519   3.489   2.397   7.384  0.1064 -0.6893 -0.1868
   18TMC2    C5  520   3.356   2.379   7.412 -0.0598 -0.1730 -0.7331
   18TMC2    C6  521   3.273   2.338   7.308 -0.0473 -0.4415  0.5332
   18TMC2     C  522   3.679   2.365   7.221  0.1106  0.3838 -0.2120
   18TMC2     O  523   3.711   2.387   7.105 -0.0667 -0.0479  0.1043
   18TMC2     H  524   3.490   2.302   7.066  0.0217 -1.0856  1.3026
   18TMC2    H1  525   3.554   2.431   7.464  2.3764  1.2339 -2.8611
   18TMC2    H2  526   3.166   2.323   7.312 -0.3966  1.4860 -1.6308
   18TMC2    C7  527   3.328   2.321   7.537 -0.1497 -0.0033 -0.4780
   18TMC2    C8  528   3.248   2.233   7.098  0.2246  0.5530 -0.0636
   18TMC2    O1  529   3.421   2.264   7.586 -0.0855 -0.1981  0.2805
   18TMC2    O2  530   3.155   2.160   7.128 -0.0254  0.5774  0.0522
   18TMC2    O5  531   3.257   2.295   6.977  0.0778 -0.3770  0.0430
   18TMC2    H5  532   3.302   2.381   6.964  0.3762 -0.5145  0.1706
   19TMC2    C1  533   1.704   2.378   7.963 -0.4466 -0.1072 -0.0158
   19TMC2    C2  534   1.741   2.249   7.936  0.0968 -0.2458  0.4242
   19TMC2    C3  535   1.859   2.223   7.868 -0.3872  0.0720  0.3683
   19TMC2    C4  536   1.776   2.478   7.906  0.0985 -0.2879 -0.6061
   19TMC2    C5  537   1.893   2.442   7.839  0.0117 -0.7334 -0.2458
   19TMC2    C6  538   1.945   2.317   7.824  0.4220 -0.7829  0.1105
   19TMC2     C  539   1.710   2.398   8.110 -0.8878 -0.1326  0.2759
   19TMC2     O  540   1.657   2.318   8.186  0.2431 -0.2114  0.0086
   19TMC2     H  541   1.689   2.166   7.982  1.8214 -1.4067  0.2852
   19TMC2    H1  542   1.737   2.579   7.901  0.1672 -0.2273  0.0867
   19TMC2    H2  543   2.038   2.292   7.775  1.1201  2.0700 -0.0543
   19TMC2    C7  544   1.982   2.557   7.815  0.0971  0.0826  0.3622
   19TMC2    C8  545   1.918   2.091   7.887  0.7472 -0.2589 -0.0281
   19TMC2    O1  546   1.952   2.647   7.888  0.3409 -0.1157  0.5531
   19TMC2    O2  547   1.854   1.988   7.877  0.6369 -0.1912 -0.2384
   19TMC2    O5  548   2.039   2.122   7.951 -0.2944 -0.1780 -0.2616
   19TMC2    H5  549   2.052   2.210   7.992 -3.2435 -0.3734  1.1673
   20TMC2    C1  550   4.365   4.400  16.028 -0.3347  0.2980  0.2943
   20TMC2    C2  551   4.333   4.533  16.026 -0.0327  0.2428 -0.3707
   20TMC2    C3  552   4.433   4.620  16.016 -0.7463  0.2896 -0.1226
   20TMC2    C4  553   4.495   4.360  16.020  1.3354  0.4065 -0.0425
   20TMC2    C5  554   4.596   4.449  16.000  0.7638  0.6141 -0.2521
   20TMC2    C6  555   4.565   4.582  16.007  0.2459 -0.3187 -0.2729
   20TMC2     C  556   4.256   4.306  16.015  0.1948 -0.4722 -0.3244
   20TMC2     O  557   4.151   4.359  15.978  0.3970 -0.0097 -0.1852
   20TMC2     H  558   4.229   4.563  16.034 -0.0311  0.2160 -0.2586
   20TMC2    H1  559   4.523   4.255  16.017 -0.1815  0.0013  0.2366
   20TMC2    H2  560   4.638   4.662  16.001 -0.2824  0.1962  0.2240
   20TMC2    C7  561   4.734   4.407  15.998  0.0699 -0.2695 -0.2764
   20TMC2    C8  562   4.408   4.762  16.019 -0.0503  0.2717 -0.8659
   20TMC2    O1  563   4.755   4.292  16.034  0.6013 -0.2366  0.1681
   20TMC2    O2  564   4.486   0.074  15.987 -0.2950 -0.2569 -0.6549
   20TMC2    O5  565   4.316   0.002  16.119 -0.3825 -0.1239  0.4171
   20TMC2    H5  566   4.281   4.692  16.151 -0.0603 -0.0527  0.9661
   21TMC2    C1  567   3.754   2.787  10.490 -0.8098 -0.5271  0.2332
   21TMC2    C2  568   3.709   2.916  10.473  0.3559 -0.4938  0.1407
   21TMC2    C3  569   3.707   2.954  10.342  0.4498 -0.2219  0.1201
   21TMC2    C4  570   3.805   2.702  10.392  0.3496 -0.0180  0.1196
   21TMC2    C5  571   3.794   2.756  10.268  0.5500  0.4214 -0.0907
   21TMC2    C6  572   3.749   2.879  10.238  0.1642  0.3756  0.3231
   21TMC2     C  573   3.778   2.736  10.621 -0.5536 -0.0132  0.4436
   21TMC2     O  574   3.856   2.639  10.631 -0.9501 -0.2895 -0.3230
   21TMC2     H  575   3.657   2.982  10.541  0.8042 -0.8640  0.8443
   21TMC2    H1  576   3.842   2.604  10.421 -0.7777 -0.7266 -0.8272
   21TMC2    H2  577   3.743   2.916  10.136 -0.7137  0.6899  0.4920
   21TMC2    C7  578   3.752   2.661  10.166  0.2527 -0.2204 -0.4402
   21TMC2    C8  579   3.650   3.080  10.314  0.1412  0.9184  0.1310
   21TMC2    O1  580   3.740   2.547  10.212  0.9578  0.6474  0.6566
   21TMC2    O2  581   3.668   3.176  10.391  0.0143  1.1605  0.2137
   21TMC2    O5  582   3.530   3.041  10.264 -0.6302 -0.1726  0.4751
   21TMC2    H5  583   3.538   2.948  10.233  0.8244 -0.0108  0.3463
   22TMC2    C1  584   4.599   0.690  14.977  0.2818 -0.3944  0.2515
   22TMC2    C2  585   4.522   0.799  14.974  0.0038 -0.0866  0.8008
   22TMC2    C3  586   4.513   0.882  15.087 -0.3436  0.0576 -0.6618
   22TMC2    C4  587   4.665   0.647  15.085 -0.1923 -0.4449 -0.7221
   22TMC2    C5  588   4.640   0.716  15.205  0.0985  0.3261  0.4744
   22TMC2    C6  589   4.577   0.838  15.198  0.3095 -0.7159  0.0845
   22TMC2     C  590   4.600   0.593  14.870 -0.4558  0.1325  0.1941
   22TMC2     O  591   4.690   0.509  14.869 -0.1223  0.5257 -0.1218
   22TMC2     H  592   4.468   0.821  14.883  1.8172  2.6922  0.3934
   22TMC2    H1  593   4.712   0.549  15.084  1.0026  0.1016  1.8265
   22TMC2    H2  594   4.565   0.902  15.284  0.2436 -1.6827  0.7975
   22TMC2    C7  595   4.622   0.647  15.327 -0.7800 -0.1292 -0.1268
   22TMC2    C8  596   4.415   0.992  15.099 -0.1450  0.3298  0.6567
   22TMC2    O1  597   4.536   0.690  15.403  0.7407  0.2279 -0.4143
   22TMC2    O2  598   4.354   0.997  15.206  0.3647  0.6280 -0.0437
   22TMC2    O5  599   4.363   1.028  14.979  0.1895  0.5249  0.4565
   22TMC2    H5  600   4.413   1.003  14.898  1.5860 -2.2635  2.1903
   23TMC2    C1  601   1.421   2.862   6.358 -0.1314 -0.2939  0.0347
   23TMC2    C2  602   1.464   2.751   6.425  0.4284 -0.5815 -0.3391
   23TMC2    C3  603   1.497   2.766   6.560  0.1421 -0.4297 -0.1243
   23TMC2    C4  604   1.413   2.985   6.421 -0.1587 -0.9182 -0.2869
   23TMC2    C5  605   1.454   2.993   6.555 -0.6252 -0.4963 -0.0537
   23TMC2    C6  606   1.500   2.887   6.622 -0.2965  0.2428  0.0022
   23TMC2     C  607   1.417   2.846   6.214 -0.2285  0.2445  0.2112
   23TMC2     O  608   1.479   2.754   6.158 -0.2971 -0.6105 -0.2767
   23TMC2     H  609   1.468   2.653   6.379  1.4732 -0.0155 -1.4575
   23TMC2    H1  610   1.377   3.073   6.369  1.4862 -0.5578 -0.8421
   23TMC2    H2  611   1.521   2.899   6.728  0.1952  1.9905 -0.2861
   23TMC2    C7  612   1.442   3.114   6.621 -0.1207  0.3948 -0.2834
   23TMC2    C8  613   1.537   2.647   6.631  0.3578 -0.1235  0.1543
   23TMC2    O1  614   1.341   3.188   6.604  0.0456 -0.3024  0.3381
   23TMC2    O2  615   1.513   2.535   6.582 -0.5287 -0.3178  0.4497
   23TMC2    O5  616   1.606   2.661   6.746 -0.6686 -0.1305 -0.0528
   23TMC2    H5  617   1.633   2.754   6.758  0.7052 -0.2696 -2.0705
   24TMC2    C1  618   1.229   3.631   6.651 -0.0988  0.4435  0.3469
   24TMC2    C2  619   1.346   3.668   6.701  0.1915  0.1002 -0.3228
   24TMC2    C3  620   1.345   3.761   6.802  0.2976 -0.2568 -0.4622
   24TMC2    C4  621   1.109   3.682   6.692  0.1815  0.0379  0.6499
   24TMC2    C5  622   1.120   3.785   6.783 -0.5364 -0.1407  0.4484
   24TMC2    C6  623   1.234   3.818   6.848 -0.3185  0.3711  1.2837
   24TMC2     C  624   1.228   3.532   6.542 -0.2246  0.4439 -0.7255
   24TMC2     O  625   1.121   3.538   6.480 -0.4634 -0.8348 -0.5532
   24TMC2     H  626   1.436   3.624   6.659  0.3829  0.8167 -0.6762
   24TMC2    H1  627   1.011   3.657   6.653  0.0614 -0.4643  1.2529
   24TMC2    H2  628   1.240   3.891   6.928  0.5298  1.4197  0.2597
   24TMC2    C7  629   1.005   3.858   6.817 -0.0132  0.8205 -0.2822
   24TMC2    C8  630   1.451   3.795   6.893  0.2879  0.3496  0.0858
   24TMC2    O1  631   0.990   3.905   6.930  0.2633 -0.4847  0.1727
   24TMC2    O2  632   1.473   3.728   6.995  0.4302  0.1983  0.5783
   24TMC2    O5  633   1.537   3.882   6.827  0.4103 -0.3169  0.1801
   24TMC2    H5  634   1.497   3.914   6.743 -1.6028 -0.1045  1.2158
   25TMC2    C1  635   2.102   1.108   6.414  0.1858  0.0473 -0.3441
   25TMC2    C2  636   2.080   0.998   6.492 -0.7125 -0.5307 -0.5556
   25TMC2    C3  637   2.196   0.937   6.526  0.5159 -0.5117 -0.5377
   25TMC2    C4  638   2.223   1.159   6.377  0.0122  0.0914 -0.5072
   25TMC2    C5  639   2.333   1.089   6.419 -0.2646 -0.3789  0.1336
   25TMC2    C6  640   2.322   0.972   6.490  0.4100 -0.2248 -0.9117
   25TMC2     C  641   1.989   1.186   6.386  0.1557  0.3389  0.6711
   25TMC2     O  642   2.007   1.299   6.340  0.8461  0.3666 -0.0083
   25TMC2     H  643   1.989   0.943   6.513  0.1724 -1.1902  1.6528
   25TMC2    H1  644   2.231   1.250   6.318 -0.2488  0.5495  0.1664
   25TMC2    H2  645   2.402   0.900   6.504 -0.7823 -1.2094  0.9342
   25TMC2    C7  646   2.462   1.135   6.389 -0.2542  0.2434 -0.3195
   25TMC2    C8  647   2.193   0.807   6.597  0.0937  0.0728 -0.3143
   25TMC2    O1  648   2.534   1.040   6.374  0.4290 -0.2932  0.4763
   25TMC2    O2  649   2.093   0.777   6.669 -0.5762  0.5986  0.0370
   25TMC2    O5  650   2.245   0.715   6.503  0.3705 -0.3127 -0.8473
   25TMC2    H5  651   2.327   0.745   6.458 -0.5102  0.5509 -1.8887
   26TMC2    C1  652   2.060   3.149  15.031  0.1962  0.0581  0.3704
   26TMC2    C2  653   2.163   3.059  15.028  0.5159 -0.1692  0.1816
   26TMC2    C3  654   2.287   3.104  15.004 -0.6427  0.6273 -0.3963
   26TMC2    C4  655   2.082   3.280  15.024  0.3768 -0.2538  0.3256
   26TMC2    C5  656   2.215   3.322  15.001  0.1101 -0.1676  0.1481
   26TMC2    C6  657   2.320   3.238  14.996 -0.0305 -0.1768 -0.0013
   26TMC2     C  658   1.931   3.104  14.968 -0.1416  0.4036  0.1035
   26TMC2     O  659   1.878   3.174  14.887 -0.5187  0.6360 -0.1163
   26TMC2     H  660   2.144   2.953  15.019  1.7292 -0.3816  0.0478
   26TMC2    H1  661   1.997   3.346  15.009  0.4262  0.5790  3.6813
   26TMC2    H2  662   2.418   3.273  14.966  0.8067 -2.6136 -0.1080
   26TMC2    C7  663   2.240   3.463  14.986  0.7914  0.6463 -0.3331
   26TMC2    C8  664   2.390   3.010  14.990  0.1644  0.3753 -0.5836
   26TMC2    O1  665   2.142   3.537  14.981  0.3076  0.4386  0.8282
   26TMC2    O2  666   2.377   2.900  15.042 -0.2009 -0.1407 -0.2885
   26TMC2    O5  667   2.442   3.033  14.872 -0.0187  0.4901 -0.3565
   26TMC2    H5  668   2.446   3.123  14.832  1.4692  0.7693  0.3965
   27TMC2    C1  669   2.450   3.118   7.971 -0.1571 -0.4744  0.0118
   27TMC2    C2  670   2.559   3.167   8.034  0.2170  0.2408 -0.6191
   27TMC2    C3  671   2.537   3.248   8.141 -0.5330 -0.2422 -0.1833
   27TMC2    C4  672   2.325   3.166   7.989 -0.1266 -0.0952  1.1033
   27TMC2    C5  673   2.309   3.256   8.087  0.3087 -0.1663  0.3864
   27TMC2    C6  674   2.410   3.296   8.177  0.6848 -0.6941  0.1767
   27TMC2     C  675   2.472   3.005   7.879  0.3828  0.3168  0.2574
   27TMC2     O  676   2.588   2.978   7.859 -0.8364 -0.2428  0.4629
   27TMC2     H  677   2.654   3.117   8.022 -0.7568 -1.4538 -1.2369
   27TMC2    H1  678   2.243   3.152   7.920  0.7526  0.4575 -0.0567
   27TMC2    H2  679   2.401   3.366   8.260 -3.8762  0.9853 -1.7239
   27TMC2    C7  680   2.172   3.262   8.139 -0.1949  0.1896  0.9585
   27TMC2    C8  681   2.660   3.272   8.216 -0.2825  0.5289 -0.6490
   27TMC2    O1  682   2.080   3.223   8.070  0.2594 -0.8820 -0.0062
   27TMC2    O2  683   2.680   3.364   8.295  0.4579  0.1047 -0.0849
   27TMC2    O5  684   2.725   3.154   8.241  0.1594 -0.0812 -0.2792
   27TMC2    H5  685   2.703   3.068   8.200 -0.3469  0.7913 -1.8317
   28TMC2    C1  686   3.405   0.665  14.946 -0.3351 -0.3969 -0.0139
   28TMC2    C2  687   3.525   0.732  14.936 -0.5597  0.3157 -0.0156
   28TMC2    C3  688   3.561   0.796  14.819 -0.0223 -0.5451  0.6991
   28TMC2    C4  689   3.330   0.638  14.829 -0.8077 -0.0899  0.1754
   28TMC2    C5  690   3.367   0.709  14.716  0.7051  0.3240 -0.1975
   28TMC2    C6  691   3.487   0.783  14.710  0.4715 -0.2124 -0.1189
   28TMC2     C  692   3.368   0.611  15.074 -0.6836 -0.4476 -0.1054
   28TMC2     O  693   3.469   0.573  15.133 -0.0687  0.2083 -0.3116
   28TMC2     H  694   3.585   0.756  15.023  1.7304 -0.5726 -1.3344
   28TMC2    H1  695   3.265   0.551  14.829 -2.6529  1.2889  2.0582
   28TMC2    H2  696   3.518   0.823  14.615  0.7520  0.0340  0.0797
   28TMC2    C7  697   3.292   0.696  14.591  0.0549  0.5265  1.0871
   28TMC2    C8  698   3.690   0.850  14.815  0.4241 -0.6318 -0.7674
   28TMC2    O1  699   3.337   0.748  14.491 -0.1870  0.2048  0.1491
   28TMC2    O2  700   3.775   0.830  14.728 -0.1475 -0.3696 -0.1799
   28TMC2    O5  701   3.709   0.923  14.921 -0.4889 -0.4090 -0.3253
   28TMC2    H5  702   3.616   0.950  14.938  0.4671  1.3775  2.1030
   29TMC2    C1  703   2.183   2.002   9.486  0.7529 -0.7692 -0.5487
   29TMC2    C2  704   2.121   2.029   9.366  0.3620 -0.0040  0.6480
   29TMC2    C3  705   2.200   2.042   9.258 -0.0421  0.9179  0.0875
   29TMC2    C4  706   2.320   1.978   9.500 -0.3318 -0.1027 -0.2166
   29TMC2    C5  707   2.397   1.994   9.388  0.1331  0.1786  0.2827
   29TMC2    C6  708   2.339   2.032   9.267  0.4691 -0.4367 -0.0969
   29TMC2     C  709   2.103   1.994   9.607 -0.1498  0.3527 -0.7376
   29TMC2     O  710   2.139   2.054   9.706 -0.4434  0.1142  0.1816
   29TMC2     H  711   2.014   2.027   9.354  0.2599 -0.0922  1.6400
   29TMC2    H1  712   2.361   1.967   9.600 -0.7325  0.5445  0.0174
   29TMC2    H2  713   2.400   2.035   9.178  0.4434 -1.5981 -0.1470
   29TMC2    C7  714   2.534   1.946   9.376 -0.6214  0.1814 -0.0618
   29TMC2    C8  715   2.139   2.101   9.142 -0.2725 -0.0875  0.1054
   29TMC2    O1  716   2.600   2.006   9.290  0.2188 -0.5139  0.4669
   29TMC2    O2  717   2.049   2.192   9.150 -0.6213  0.7015  0.2820
   29TMC2    O5  718   2.162   2.024   9.034  0.2337  0.3754  0.0985
   29TMC2    H5  719   2.216   1.945   9.053  1.8440  1.2648 -0.7625
   30TMC2    C1  720   4.287   2.233   8.990 -1.1646  0.1595  0.5598
   30TMC2    C2  721   4.269   2.143   9.093  1.1699  0.4584 -0.0031
   30TMC2    C3  722   4.145   2.086   9.093  0.2313  0.1634  0.1888
   30TMC2    C4  723   4.200   2.243   8.882  1.1580  0.6354 -0.0042
   30TMC2    C5  724   4.089   2.169   8.879  0.5481  0.6527  0.4271
   30TMC2    C6  725   4.058   2.101   8.989 -0.2610 -0.0485  0.4744
   30TMC2     C  726   4.402   2.321   8.995 -1.3711  0.2181  0.0334
   30TMC2     O  727   4.409   2.410   8.909  1.1666 -0.0807  0.7137
   30TMC2     H  728   4.325   2.114   9.181  1.8165  0.5921 -0.3759
   30TMC2    H1  729   4.226   2.304   8.797  1.9671 -3.6870 -2.8567
   30TMC2    H2  730   3.956   2.062   8.995 -0.6387  0.6566 -1.2876
   30TMC2    C7  731   4.005   2.154   8.765 -0.2747 -0.3724 -0.1189
   30TMC2    C8  732   4.123   1.988   9.196  0.2373  0.1166 -0.2659
   30TMC2    O1  733   3.886   2.136   8.796 -0.6263  0.1276  0.3959
   30TMC2    O2  734   4.141   2.009   9.319  0.0595  0.1844  0.3803
   30TMC2    O5  735   4.041   1.897   9.142  0.0593  0.0811 -0.5184
   30TMC2    H5  736   4.045   1.889   9.044  1.1148  0.4238 -0.4953
   31TMC2    C1  737   3.802   3.044  11.406 -0.0200 -0.1234  0.2945
   31TMC2    C2  738   3.848   2.946  11.496 -0.2624  0.4701  0.0480
   31TMC2    C3  739   3.887   2.977  11.620 -0.0774 -0.2055  0.4809
   31TMC2    C4  740   3.806   3.169  11.459  0.3531 -0.3172 -0.2412
   31TMC2    C5  741   3.848   3.198  11.583 -0.1906  0.6282  0.1967
   31TMC2    C6  742   3.896   3.105  11.671 -0.7218 -0.8243  0.1404
   31TMC2     C  743   3.862   3.037  11.277  0.1884  0.1249 -0.4080
   31TMC2     O  744   3.978   2.991  11.275  0.3305 -0.0786 -0.1727
   31TMC2     H  745   3.833   2.841  11.472  2.1407  0.4903 -1.5423
   31TMC2    H1  746   3.804   3.258  11.398 -1.0858 -0.4622 -0.4094
   31TMC2    H2  747   3.918   3.142  11.770 -1.9931  1.5870 -0.4748
   31TMC2    C7  748   3.871   3.340  11.601  0.5774  0.4307 -0.3072
   31TMC2    C8  749   3.901   2.873  11.718  0.2292  1.0184 -0.0058
   31TMC2    O1  750   3.770   3.406  11.571  0.1154  0.0006 -0.7947
   31TMC2    O2  751   3.922   2.761  11.691  0.3583 -0.3559 -0.1185
   31TMC2    O5  752   3.855   2.919  11.837  0.1296  0.5414  0.1958
   31TMC2    H5  753   3.823   3.012  11.837 -2.4753 -0.3611  2.3717
   32TMC2    C1  754   2.601   3.551   6.725 -0.1237 -0.4860  0.3216
   32TMC2    C2  755   2.719   3.576   6.795  0.3483  0.5627  0.3684
   32TMC2    C3  756   2.752   3.711   6.797  0.5797 -0.2618  0.6931
   32TMC2    C4  757   2.515   3.645   6.673  0.2539 -0.3569  0.1460
   32TMC2    C5  758   2.556   3.776   6.681  0.3547  0.5367  0.0939
   32TMC2    C6  759   2.666   3.812   6.754  0.4869 -0.2991 -0.3344
   32TMC2     C  760   2.554   3.415   6.706  0.0354 -0.0357  0.0265
   32TMC2     O  761   2.437   3.396   6.675 -0.4060 -0.8599 -0.0805
   32TMC2     H  762   2.784   3.503   6.842 -0.0057 -1.0721 -1.6651
   32TMC2    H1  763   2.464   3.618   6.581  0.7133 -0.6686 -0.0173
   32TMC2    H2  764   2.692   3.918   6.756  1.2398 -0.4956  0.2542
   32TMC2    C7  765   2.465   3.884   6.630  0.1223  0.1378 -0.5709
   32TMC2    C8  766   2.876   3.746   6.861  0.2952 -0.1954 -0.2914
   32TMC2    O1  767   2.504   4.001   6.634  0.1664 -0.2035  1.0467
   32TMC2    O2  768   2.898   3.864   6.888  0.6109  0.1804  0.1977
   32TMC2    O5  769   2.945   3.656   6.782 -0.3163  0.1518 -0.6302
   32TMC2    H5  770   3.040   3.679   6.782  0.2602 -2.3127  0.7697
   33TMC2    C1  771   3.228   3.567  11.725  0.3728  0.5458  0.5641
   33TMC2    C2  772   3.095   3.610  11.709 -0.2128 -0.0150 -0.4503
   33TMC2    C3  773   3.074   3.732  11.655  0.5770 -0.3548  0.4294
   33TMC2    C4  774   3.337   3.634  11.665  0.2386  0.5794  0.1333
   33TMC2    C5  775   3.300   3.759  11.608  0.0839  0.3993  0.9577
   33TMC2    C6  776   3.175   3.805  11.604  0.2685 -0.6089 -0.0793
   33TMC2     C  777   3.242   3.423  11.751 -0.0749 -0.2050 -0.5412
   33TMC2     O  778   3.328   3.359  11.691  0.1310 -0.1757  0.2615
   33TMC2     H  779   3.012   3.548  11.741  1.9999 -2.5572  0.3858
   33TMC2    H1  780   3.430   3.578  11.653  0.6631  2.0286 -3.4616
   33TMC2    H2  781   3.157   3.911  11.584  1.5920 -0.4643 -0.5294
   33TMC2    C7  782   3.413   3.850  11.594  0.8764  0.1190  0.5892
   33TMC2    C8  783   2.938   3.781  11.665 -0.6556  0.4052 -0.0072
   33TMC2    O1  784   3.394   3.959  11.541  0.1768 -0.2069 -0.6585
   33TMC2    O2  785   2.855   3.723  11.735 -0.2827 -0.6603 -0.2880
   33TMC2    O5  786   2.915   3.872  11.570  0.4228  0.3354  0.3683
   33TMC2    H5  787   2.993   3.887  11.513  0.0286  0.3366 -0.1801
   34TMC2    C1  788   4.332   1.852  10.516  0.0442  0.4509  0.4107
   34TMC2    C2  789   4.364   1.735  10.577  0.6933 -0.5296  0.0933
   34TMC2    C3  790   4.453   1.732  10.679  0.0533  0.2743 -0.0700
   34TMC2    C4  791   4.385   1.970  10.554  0.3308  0.0972 -0.8027
   34TMC2    C5  792   4.477   1.964  10.657 -0.1038  0.2995 -0.3371
   34TMC2    C6  793   4.517   1.845  10.718  0.0802  0.1733  0.1952
   34TMC2     C  794   4.244   1.852  10.400  0.7110 -0.0033  0.2909
   34TMC2     O  795   4.195   1.742  10.376 -0.4232  0.1945  0.1923
   34TMC2     H  796   4.319   1.640  10.549  1.3726 -0.9083  0.2688
   34TMC2    H1  797   4.337   2.061  10.522  1.3373  0.7049 -0.5902
   34TMC2    H2  798   4.587   1.849  10.800  0.4037  0.6798 -0.1092
   34TMC2    C7  799   4.518   2.091  10.717 -0.5606  0.6822 -0.4172
   34TMC2    C8  800   4.461   1.625  10.776 -0.2001  0.6431 -0.2590
   34TMC2    O1  801   4.483   2.189  10.653  0.2168 -0.2692 -0.2322
   34TMC2    O2  802   4.466   1.659  10.893 -0.6020  0.1534  0.0431
   34TMC2    O5  803   4.416   1.502  10.729  0.1424 -0.6288  0.1840
   34TMC2    H5  804   4.443   1.495  10.635  2.5733 -0.5637  0.8807
   35TMC2    C1  805   2.297   2.972   8.962 -0.3763  0.1685  0.8481
   35TMC2    C2  806   2.183   2.959   8.894  0.3526  0.2661  0.4820
   35TMC2    C3  807   2.179   2.997   8.760 -0.9618 -0.1552  1.0642
   35TMC2    C4  808   2.414   3.025   8.900  0.0715  0.6748 -0.0699
   35TMC2    C5  809   2.405   3.062   8.767  0.4576  0.8054  0.5933
   35TMC2    C6  810   2.292   3.043   8.695 -0.1065 -0.0852 -0.1388
   35TMC2     C  811   2.296   2.914   9.095 -0.1082  0.0329  0.0458
   35TMC2     O  812   2.194   2.859   9.132  0.3344  0.2930 -0.3771
   35TMC2     H  813   2.093   2.916   8.937  0.3540  0.1935  0.4110
   35TMC2    H1  814   2.508   3.018   8.954 -0.9910 -0.8019  1.5882
   35TMC2    H2  815   2.283   3.086   8.597 -0.5484  0.9571  0.3571
   35TMC2    C7  816   2.498   3.160   8.714  0.6984  0.2897  0.3808
   35TMC2    C8  817   2.087   2.936   8.668  0.9078 -0.1370 -0.2867
   35TMC2    O1  818   2.475   3.209   8.605 -0.0223  0.5083  0.5143
   35TMC2    O2  819   2.129   2.878   8.561 -0.3742  0.1363 -0.6418
   35TMC2    O5  820   1.966   2.929   8.725  0.9610 -0.3175  0.8552
   35TMC2    H5  821   1.948   2.985   8.804 -0.0788  1.5204 -0.7078
   36TMC2    C1  822   3.207   3.907  15.402 -0.3885  0.2659  0.4415
   36TMC2    C2  823   3.239   3.847  15.516 -0.4621 -0.5274  0.6442
   36TMC2    C3  824   3.160   3.878  15.628  0.4157  0.1237 -0.2454
   36TMC2    C4  825   3.111   4.000  15.392 -0.5296  0.1517 -0.1794
   36TMC2    C5  826   3.040   4.035  15.509  0.0817 -0.1527  0.1738
   36TMC2    C6  827   3.059   3.970  15.623  0.5479  1.3623  0.0885
   36TMC2     C  828   3.224   3.826  15.283 -0.2698 -0.1825 -0.2589
   36TMC2     O  829   3.129   3.835  15.202  0.7677  0.1993 -0.1529
   36TMC2     H  830   3.324   3.780  15.527  0.2323  0.2148 -0.2054
   36TMC2    H1  831   3.096   4.048  15.296 -1.3634  2.2228  0.9845
   36TMC2    H2  832   3.009   4.014  15.709 -1.3711 -1.8261  0.5943
   36TMC2    C7  833   2.924   4.120  15.507  0.3940 -0.2836  0.8091
   36TMC2    C8  834   3.214   3.825  15.751 -0.6099 -0.0298  0.2751
   36TMC2    O1  835   2.845   4.113  15.598 -0.0656  0.1498 -0.1832
   36TMC2    O2  836   3.327   3.793  15.756  0.2688  0.8159 -0.5082
   36TMC2    O5  837   3.133   3.847  15.855  0.0905  0.4187  0.2151
   36TMC2    H5  838   3.038   3.867  15.842  0.3736  1.2668 -0.5225
   37TMC2    C1  839   3.491   0.834  10.386  0.0787  0.2269 -0.0589
   37TMC2    C2  840   3.507   0.811  10.516 -0.1433  0.4085 -0.2497
   37TMC2    C3  841   3.559   0.689  10.559 -0.0533  0.1521 -0.4704
   37TMC2    C4  842   3.538   0.743  10.296 -0.6022  0.2029  0.3471
   37TMC2    C5  843   3.596   0.629  10.338 -0.1616  0.0894 -0.1759
   37TMC2    C6  844   3.610   0.603  10.472 -1.0133 -0.1707 -0.0970
   37TMC2     C  845   3.541   0.955  10.330 -0.3151  0.4580  0.8887
   37TMC2     O  846   3.651   0.949  10.279  0.2369  0.3741 -0.5483
   37TMC2     H  847   3.473   0.883  10.589 -1.5664 -1.2108  0.6892
   37TMC2    H1  848   3.542   0.771  10.191  1.4815 -0.1957  0.3090
   37TMC2    H2  849   3.641   0.506  10.509 -0.4288  0.3186  0.6857
   37TMC2    C7  850   3.716   0.600  10.267 -0.3319 -0.5022 -0.1374
   37TMC2    C8  851   3.556   0.665  10.700 -0.2784 -0.8766  0.1405
   37TMC2    O1  852   3.759   0.481  10.274 -0.3504 -0.3587  0.4788
   37TMC2    O2  853   3.554   0.548  10.735 -0.2808  0.3455 -0.3830
   37TMC2    O5  854   3.635   0.763  10.754 -0.3824 -0.1576  0.1598
   37TMC2    H5  855   3.648   0.846  10.705  1.2775 -1.5889 -1.8064
   38TMC2    C1  856   4.251   2.489   9.922 -0.2415 -0.6317 -0.5886
   38TMC2    C2  857   4.348   2.588   9.947  0.5450 -0.2271  0.0096
   38TMC2    C3  858   4.368   2.670   9.847  0.3993 -0.0183 -0.1647
   38TMC2    C4  859   4.176   2.480   9.809 -0.3769 -0.2033  0.3470
   38TMC2    C5  860   4.200   2.570   9.711  0.7865  0.7564  0.6588
   38TMC2    C6  861   4.297   2.667   9.731 -0.4309  0.6021 -0.4835
   38TMC2     C  862   4.233   2.388  10.022 -0.3825 -0.5742 -0.8399
   38TMC2     O  863   4.302   2.393  10.120 -0.5963 -0.1270  0.8434
   38TMC2     H  864   4.384   2.614  10.046  1.8261  0.1769 -0.5662
   38TMC2    H1  865   4.141   2.382   9.779  0.2436 -0.1602 -0.5098
   38TMC2    H2  866   4.306   2.748   9.661 -0.6055  1.2593  0.2530
   38TMC2    C7  867   4.124   2.546   9.585  0.0762  0.3016  0.1158
   38TMC2    C8  868   4.465   2.786   9.856 -0.0469 -0.9588  0.0728
   38TMC2    O1  869   4.019   2.486   9.590 -0.3899  0.1291  0.8659
   38TMC2    O2  870   4.459   2.881   9.771 -0.3071 -0.1780 -0.4718
   38TMC2    O5  871   4.572   2.748   9.925 -0.2407 -0.3582 -0.3618
   38TMC2    H5  872   4.588   2.656   9.956  3.0831  0.6875  0.9201
   39TMC2    C1  873   3.292   2.641   8.236  0.2340 -0.0906 -0.2856
   39TMC2    C2  874   3.210   2.530   8.225 -0.0006 -0.1477  0.2965
   39TMC2    C3  875   3.161   2.472   8.336 -0.6311  0.1141 -0.4346
   39TMC2    C4  876   3.349   2.669   8.355  0.4869 -0.6964  0.4468
   39TMC2    C5  877   3.312   2.600   8.463  0.1269  0.2831  0.0628
   39TMC2    C6  878   3.215   2.505   8.456 -0.7355  0.4584 -0.2349
   39TMC2     C  879   3.293   2.732   8.130  0.0842 -0.4511  0.5563
   39TMC2     O  880   3.386   2.811   8.113  0.2905 -0.1816  0.3578
   39TMC2     H  881   3.175   2.482   8.135 -0.1712  0.7624 -0.1199
   39TMC2    H1  882   3.414   2.753   8.377 -1.6667  0.8068  1.0658
   39TMC2    H2  883   3.218   2.430   8.534  2.2393  1.1333  0.3272
   39TMC2    C7  884   3.373   2.634   8.596 -0.1050  0.1307 -0.1480
   39TMC2    C8  885   3.140   2.329   8.325  0.5981  0.7370 -0.1031
   39TMC2    O1  886   3.478   2.693   8.610  0.2170 -0.1100 -0.3495
   39TMC2    O2  887   3.160   2.248   8.413 -0.0535 -0.2166 -0.3955
   39TMC2    O5  888   3.035   2.320   8.240 -0.5491 -0.0279 -0.9912
   39TMC2    H5  889   2.988   2.405   8.224  3.6220  1.9832 -2.5030
   40TMC2    C1  890   3.534   3.495  15.504 -0.3420  0.2856 -0.5958
   40TMC2    C2  891   3.573   3.570  15.612 -0.3066 -0.4288  0.1942
   40TMC2    C3  892   3.702   3.557  15.651  1.0518  0.4909  0.3582
   40TMC2    C4  893   3.621   3.419  15.427  0.9243  0.5621  0.1640
   40TMC2    C5  894   3.747   3.407  15.471  0.0854  0.5183  0.1230
   40TMC2    C6  895   3.794   3.475  15.584  0.2939  0.1518 -0.0939
   40TMC2     C  896   3.391   3.480  15.488  0.2623 -0.3594 -0.0300
   40TMC2     O  897   3.320   3.525  15.577  0.2095  0.0347  0.5340
   40TMC2     H  898   3.502   3.633  15.665  0.8202  0.3637  0.7653
   40TMC2    H1  899   3.589   3.372  15.334  1.6729 -1.3935  0.8845
   40TMC2    H2  900   3.895   3.479  15.623  0.8596 -0.6739 -1.4952
   40TMC2    C7  901   3.851   3.328  15.407 -0.9964  0.6096 -0.6428
   40TMC2    C8  902   3.755   3.662  15.734 -0.1007  0.4297  0.9118
   40TMC2    O1  903   3.967   3.357  15.427  0.8060 -0.2821 -0.3176
   40TMC2    O2  904   3.686   3.724  15.814  0.2013 -0.6014  0.2385
   40TMC2    O5  905   3.851   3.725  15.656 -0.0048 -0.1355  0.5549
   40TMC2    H5  906   3.884   3.685  15.573 -1.4812 -2.8537  1.2643
   41TMC2    C1  907   2.156   1.833   8.155  0.2252  0.6093  0.1231
   41TMC2    C2  908   2.206   1.821   8.034 -0.6956  0.3538  0.1027
   41TMC2    C3  909   2.139   1.756   7.936  0.4150 -0.4478 -0.5630
   41TMC2    C4  910   2.039   1.774   8.190 -0.5027  0.0158 -0.5329
   41TMC2    C5  911   1.970   1.705   8.086  0.0648  0.6549 -0.3938
   41TMC2    C6  912   2.013   1.712   7.955 -0.0683  0.8900 -0.0159
   41TMC2     C  913   2.221   1.913   8.250  0.4287 -0.0372  0.3947
   41TMC2     O  914   2.342   1.906   8.252  0.7677 -0.3222  0.4769
   41TMC2     H  915   2.307   1.855   8.012 -1.7932  1.7901 -2.7640
   41TMC2    H1  916   1.998   1.782   8.290  1.8573  0.2677  0.4066
   41TMC2    H2  917   1.962   1.659   7.875 -0.1165 -1.9745  1.9161
   41TMC2    C7  918   1.839   1.658   8.103  0.0744  0.9265 -0.3465
   41TMC2    C8  919   2.199   1.758   7.804  0.2309  0.0659  0.5984
   41TMC2    O1  920   1.759   1.681   8.016  0.2088  0.1223 -0.4036
   41TMC2    O2  921   2.213   1.862   7.741  0.2575  0.0966  0.3246
   41TMC2    O5  922   2.148   1.646   7.744  0.1998  0.2337 -0.4316
   41TMC2    H5  923   2.142   1.574   7.810 -0.4556 -0.9000 -1.7368
   42TMC2    C1  924   4.720   1.975   6.779 -0.4307 -0.2377 -0.9563
   42TMC2    C2  925   0.009   2.089   6.772 -0.1163  0.3818  0.4256
   42TMC2    C3  926   0.076   2.125   6.886 -0.4836  0.3276 -0.6487
   42TMC2    C4  927   4.720   1.888   6.885 -1.0286 -0.1201  0.3759
   42TMC2    C5  928   0.012   1.929   6.991 -0.1541 -0.3534 -1.0989
   42TMC2    C6  929   0.086   2.042   6.992  1.0340  0.4451 -0.2269
   42TMC2     C  930   4.646   1.923   6.668  0.3756 -0.2704  0.0749
   42TMC2     O  931   4.546   1.860   6.696  0.3399  0.2368 -0.4996
   42TMC2     H  932   4.755   2.162   6.698 -0.5614  0.6697  0.8887
   42TMC2    H1  933   4.682   1.787   6.877  0.6812 -0.7784  0.5127
   42TMC2    H2  934   0.125   2.085   7.083  0.4694 -0.3895  0.4006
   42TMC2    C7  935   0.052   1.835   7.091  0.2977  0.6691  0.5191
   42TMC2    C8  936   0.182   2.223   6.872  0.0173 -0.0364 -0.0519
   42TMC2    O1  937   4.745   1.746   7.114  0.1328  0.4659 -0.4363
   42TMC2    O2  938   0.244   2.272   6.963  0.0713 -0.8627 -0.6929
   42TMC2    O5  939   0.231   2.204   6.749 -0.0949 -0.7988  0.2278
   42TMC2    H5  940   0.186   2.138   6.693 -0.2832 -1.2721  0.9378
   43TMC2    C1  941   1.320   0.937   6.707 -1.0738 -0.4260  0.2626
   43TMC2    C2  942   1.214   0.928   6.623  1.4269  0.1214 -0.4027
   43TMC2    C3  943   1.098   0.895   6.685  0.1659  0.1527  1.1949
   43TMC2    C4  944   1.314   0.907   6.838  0.9195  0.5204 -0.0848
   43TMC2    C5  945   1.200   0.866   6.890 -0.1898 -0.1921  0.0797
   43TMC2    C6  946   1.086   0.860   6.817  0.7692  0.1411 -0.4474
   43TMC2     C  947   1.448   0.990   6.658 -0.1153  0.2683  0.0752
   43TMC2     O  948   1.551   0.940   6.698 -0.0131 -0.3090  0.1371
   43TMC2     H  949   1.230   0.948   6.518 -0.7330  2.7847 -0.2387
   43TMC2    H1  950   1.399   0.932   6.900  1.9795 -1.2569 -0.8266
   43TMC2    H2  951   0.992   0.824   6.858  1.1134 -0.8527 -0.5110
   43TMC2    C7  952   1.189   0.888   7.036 -0.5498  0.4638  0.7678
   43TMC2    C8  953   1.000   0.834   6.603  0.2552  0.5602  0.0163
   43TMC2    O1  954   1.267   0.969   7.090  0.8117  0.3625  0.3712
   43TMC2    O2  955   0.945   0.730   6.626 -0.2453  0.6168 -0.1889
   43TMC2    O5  956   1.014   0.894   6.487  0.6763 -0.0559 -0.0937
   43TMC2    H5  957   1.057   0.981   6.500 -2.2790  1.5433 -1.1504
   44TMC2    C1  958   1.876   3.386  12.116 -0.3016 -0.0086  0.0232
   44TMC2    C2  959   1.937   3.312  12.207 -0.1120 -0.1018  0.4489
   44TMC2    C3  960   2.064   3.347  12.238  0.2097  0.2375 -0.2464
   44TMC2    C4  961   1.928   3.503  12.065 -0.1862 -0.1102  0.1039
   44TMC2    C5  962   2.052   3.539  12.094  0.2956 -0.0047  0.1708
   44TMC2    C6  963   2.125   3.460  12.185 -0.3031 -0.2706  0.0361
   44TMC2     C  964   1.732   3.379  12.100 -0.1031  0.2523  0.9767
   44TMC2     O  965   1.679   3.484  12.084  0.3400 -0.4351  0.0336
   44TMC2     H  966   1.896   3.220  12.248  0.7304 -0.5324  0.3230
   44TMC2    H1  967   1.877   3.567  11.993  0.3399 -0.6871 -0.7872
   44TMC2    H2  968   2.208   3.496  12.245 -2.2546  2.7179  0.9528
   44TMC2    C7  969   2.058   3.680  12.117 -0.0135 -0.2076  0.4683
   44TMC2    C8  970   2.159   3.247  12.297 -0.0398  0.2066 -0.8169
   44TMC2    O1  971   2.093   3.713  12.226  0.5250  0.0225 -0.6514
   44TMC2    O2  972   2.283   3.246  12.274 -0.2672  0.3361 -0.0660
   44TMC2    O5  973   2.088   3.183  12.394 -0.1156 -0.2004  0.6476
   44TMC2    H5  974   2.012   3.240  12.418  0.2873  0.4024  0.5083
   45TMC2    C1  975   0.125   1.979  15.499 -0.0876 -0.7555  0.1143
   45TMC2    C2  976   0.118   1.906  15.613 -0.2521  0.2964 -0.5543
   45TMC2    C3  977   0.096   1.769  15.607  0.3994  0.2705 -0.1165
   45TMC2    C4  978   0.114   1.916  15.375  0.0317  1.1730 -0.4145
   45TMC2    C5  979   0.105   1.784  15.371  0.1634  0.2855  0.0242
   45TMC2    C6  980   0.092   1.705  15.482 -0.1643 -0.4883  0.2657
   45TMC2     C  981   0.070   2.114  15.497  0.0711 -0.2370  0.2220
   45TMC2     O  982   0.004   2.139  15.394 -0.0777 -0.1777 -0.1796
   45TMC2     H  983   0.125   1.961  15.706 -0.2834 -0.8815  0.1433
   45TMC2    H1  984   0.129   1.979  15.288  2.5134 -1.4242 -1.8569
   45TMC2    H2  985   0.109   1.598  15.475  2.1355 -0.1675  0.8002
   45TMC2    C7  986   0.046   1.732  15.251 -0.0060  0.2851  0.6486
   45TMC2    C8  987   0.077   1.693  15.729 -0.3868 -0.0205 -0.2490
   45TMC2    O1  988   0.066   1.806  15.152  0.1535 -0.2650  0.5153
   45TMC2    O2  989   4.769   1.608  15.745  0.1018 -0.4052 -0.2974
   45TMC2    O5  990   0.143   1.751  15.831  0.2372 -0.1387 -0.2309
   45TMC2    H5  991   0.219   1.808  15.805  0.7762  0.3274  2.4300
   46TMC2    C1  992   0.564   0.063  15.637  0.0939 -0.1031 -0.6481
   46TMC2    C2  993   0.696   0.100  15.639  0.1169  0.2290  0.0941
   46TMC2    C3  994   0.716   0.226  15.596  0.4378 -0.1405  0.5253
   46TMC2    C4  995   0.459   0.143  15.599 -0.4898 -0.5412 -0.4205
   46TMC2    C5  996   0.480   0.261  15.539  0.3441  0.4736 -0.5257
   46TMC2    C6  997   0.614   0.312  15.551  0.1187 -0.1508 -0.1800
   46TMC2     C  998   0.541   4.706  15.693 -0.3284 -0.5508 -0.5728
   46TMC2     O  999   0.632   4.629  15.684  0.3704 -0.7027 -0.4914
   46TMC2     H 1000   0.783   0.041  15.666 -1.1099 -2.1427 -1.1235
   46TMC2    H1 1001   0.355   0.112  15.599  0.5080 -3.8472  0.0806
   46TMC2    H2 1002   0.641   0.417  15.556 -2.0752  0.4361 -0.9721
   46TMC2    C7 1003   0.378   0.365  15.547  0.2761  0.6062  0.4729
   46TMC2    C8 1004   0.856   0.281  15.613  0.1211  0.2979  0.3930
   46TMC2    O1 1005   0.284   0.351  15.625 -0.2150  0.4531  0.5623
   46TMC2    O2 1006   0.922   0.246  15.709  0.1615  0.9525  0.2313
   46TMC2    O5 1007   0.889   0.370  15.517  0.1615  0.1063  0.2873
   46TMC2    H5 1008   0.817   0.402  15.458 -0.0300 -0.0949  0.4104
   47TMC2    C1 1009   2.014   4.534  12.475 -0.3531 -0.2491  0.6447
   47TMC2    C2 1010   2.013   4.666  12.515  0.3489 -1.4884 -0.1443
   47TMC2    C3 1011   1.991   4.761  12.421  0.9669  0.0965 -0.1014
   47TMC2    C4 1012   1.992   4.500  12.341 -0.9038  0.1203 -0.1768
   47TMC2    C5 1013   1.962   4.603  12.255 -0.0804  0.2341 -0.6347
   47TMC2    C6 1014   1.964   4.734  12.292  0.0565  0.6584 -0.2302
   47TMC2     C 1015   1.995   4.427  12.570 -0.4987 -0.0956  0.0191
   47TMC2     O 1016   1.940   4.326  12.526 -0.2514  0.3317  0.0615
   47TMC2     H 1017   2.049   4.694  12.613  0.4661 -0.1985 -0.5493
   47TMC2    H1 1018   1.979   4.395  12.317 -1.7833  0.0946  0.4077
   47TMC2    H2 1019   1.988   0.034  12.218 -3.3152  1.5887 -0.3649
   47TMC2    C7 1020   1.985   4.577  12.114 -0.1007 -0.1657 -0.6542
   47TMC2    C8 1021   2.015   0.127  12.460 -0.7009 -0.0141  0.5168
   47TMC2    O1 1022   2.073   4.492  12.098  0.1073  0.7699  0.8916
   47TMC2    O2 1023   2.090   0.151  12.550  0.4022  0.0812  0.0432
   47TMC2    O5 1024   1.929   0.203  12.384  0.4949 -0.5801  0.1724
   47TMC2    H5 1025   1.866   0.155  12.327 -0.9725  1.2486  0.2573
   48TMC2    C1 1026   4.046   0.048   9.857 -0.6867 -0.1761  0.6954
   48TMC2    C2 1027   4.079   4.698   9.892 -0.0727 -0.3189  0.0834
   48TMC2    C3 1028   4.202   4.648   9.874 -0.3269  0.2086  0.4567
   48TMC2    C4 1029   4.136   0.136   9.809  0.6213 -0.0685 -0.0380
   48TMC2    C5 1030   4.264   0.083   9.809 -0.8129  0.4846  0.3147
   48TMC2    C6 1031   4.297   4.726   9.822  0.3836  0.6351 -0.5210
   48TMC2     C 1032   3.930   0.116   9.915 -0.2791  0.0747 -0.3340
   48TMC2     O 1033   3.947   0.222   9.972 -0.1481 -0.5709  0.2952
   48TMC2     H 1034   4.009   4.647   9.957 -0.6597 -0.3156 -0.5453
   48TMC2    H1 1035   4.102   0.235   9.784 -3.7366 -1.7304 -0.7995
   48TMC2    H2 1036   4.401   4.695   9.825  0.3045  0.5879  1.4943
   48TMC2    C7 1037   4.374   0.177   9.811  0.0865 -0.3777 -0.6701
   48TMC2    C8 1038   4.228   4.515   9.924 -0.6544  0.2877  0.2396
   48TMC2    O1 1039   4.488   0.131   9.800  0.3537 -0.4346  0.2456
   48TMC2    O2 1040   4.149   4.452   9.999  0.2032  1.0287 -0.4465
   48TMC2    O5 1041   4.346   4.474   9.871 -0.1245  0.7188  0.4599
   48TMC2    H5 1042   4.383   4.531   9.800 -0.9199  0.0391 -0.4908
   49TMC2    C1 1043   3.650   2.251  12.577 -0.2339 -0.1344 -0.4241
   49TMC2    C2 1044   3.677   2.125  12.627  0.3876  0.6399 -0.0016
   49TMC2    C3 1045   3.659   2.106  12.764  0.0003 -0.5671 -1.1569
   49TMC2    C4 1046   3.598   2.345  12.655 -0.7371  0.1388 -0.4335
   49TMC2    C5 1047   3.561   2.316  12.780 -0.3680 -0.3412  0.6549
   49TMC2    C6 1048   3.599   2.197  12.837 -0.4424  0.1305 -0.5334
   49TMC2     C 1049   3.643   2.272  12.431 -0.2769 -0.0643  0.2599
   49TMC2     O 1050   3.599   2.384  12.398  0.1185  0.0308 -0.0416
   49TMC2     H 1051   3.721   2.045  12.569 -2.9262 -0.7734 -0.5637
   49TMC2    H1 1052   3.567   2.439  12.611 -0.6821  0.3964  0.0792
   49TMC2    H2 1053   3.554   2.152  12.924  0.1236 -0.0385 -0.3239
   49TMC2    C7 1054   3.496   2.420  12.855 -0.3783  0.6237 -0.3344
   49TMC2    C8 1055   3.626   1.970  12.812  0.3850 -0.2752  0.1361
   49TMC2    O1 1056   3.457   2.518  12.792  0.1021 -0.8809  0.0364
   49TMC2    O2 1057   3.532   1.946  12.884  0.3740 -0.3774  0.4086
   49TMC2    O5 1058   3.717   1.888  12.754  0.1494 -0.1731  0.1091
   49TMC2    H5 1059   3.800   1.937  12.732 -0.3496  1.0584  0.9610
   50TMC2    C1 1060   1.256   4.592  14.060  0.2552  0.2552  0.1131
   50TMC2    C2 1061   1.134   4.622  14.016 -0.0403 -0.0385  0.0320
   50TMC2    C3 1062   1.124   4.749  13.955  0.6081 -0.4904 -0.1556
   50TMC2    C4 1063   1.366   4.667  14.035  0.1952  0.3417  0.1696
   50TMC2    C5 1064   1.353   0.017  13.984  0.7190  0.4205 -0.1087
   50TMC2    C6 1065   1.232   0.063  13.933  0.1331 -1.0089  1.1819
   50TMC2     C 1066   1.268   4.475  14.146  0.2244  0.6411  0.2671
   50TMC2     O 1067   1.176   4.398  14.150  0.1398  0.8050  0.1541
   50TMC2     H 1068   1.047   4.563  14.043 -0.4644  0.9881  0.9047
   50TMC2    H1 1069   1.468   4.633  14.048  0.6502  2.3881  2.0335
   50TMC2    H2 1070   1.218   0.143  13.861  0.9421 -2.1786 -0.2852
   50TMC2    C7 1071   1.478   0.096  13.978  0.4427 -0.3469  0.2824
   50TMC2    C8 1072   0.997   0.014  13.892  0.1889 -0.4859  0.3397
   50TMC2    O1 1073   1.585   0.037  13.984  0.0890  0.1491  0.0047
   50TMC2    O2 1074   0.961   0.130  13.883 -0.1583 -0.0736  0.5370
   50TMC2    O5 1075   0.913   4.683  13.899  0.3632 -0.2307 -0.5590
   50TMC2    H5 1076   0.939   4.596  13.861  0.8734  0.0754 -0.9150
   51TMC2    C1 1077   4.684   4.618  15.210 -0.1579 -0.1472  0.6394
   51TMC2    C2 1078   0.006   4.579  15.119  0.1862 -0.2688  0.4194
   51TMC2    C3 1079   4.759   4.455  15.066 -0.0562 -0.5727  0.3969
   51TMC2    C4 1080   4.576   4.539  15.250 -0.4760 -0.8794  0.3354
   51TMC2    C5 1081   4.571   4.409  15.203  1.1537  0.0938  0.7384
   51TMC2    C6 1082   4.662   4.375  15.111 -0.6199  0.2133 -0.1958
   51TMC2     C 1083   4.687   4.758  15.242  0.5721  0.6835  0.2461
   51TMC2     O 1084   0.005   0.050  15.202  0.2302  0.3313 -0.7726
   51TMC2     H 1085   0.086   4.649  15.100  0.2242 -0.2204  0.7631
   51TMC2    H1 1086   4.517   4.577  15.333 -0.5780  1.0792 -0.6354
   51TMC2    H2 1087   4.653   4.277  15.065 -0.4378 -0.3147  0.8822
   51TMC2    C7 1088   4.456   4.321  15.226  0.5597  0.7066  1.1096
   51TMC2    C8 1089   0.036   4.430  14.931  0.7244 -0.3236  0.1440
   51TMC2    O1 1090   4.457   4.213  15.170 -0.3437  0.1369  0.1533
   51TMC2    O2 1091   0.005   4.320  14.882  0.1923 -0.0309  0.7068
   51TMC2    O5 1092   0.086   4.534  14.873  0.2694  0.1394 -0.2884
   51TMC2    H5 1093   0.086   4.618  14.923 -0.2874 -0.0897  0.0951
   52TMC2    C1 1094   0.885   2.028   9.039  0.9369  0.4517 -0.0286
   52TMC2    C2 1095   0.923   1.908   8.985  0.3272  0.0277 -0.5163
   52TMC2    C3 1096   1.023   1.916   8.886 -0.3676 -0.6489  0.4089
   52TMC2    C4 1097   0.934   2.150   9.006  0.6324  0.0916  0.4555
   52TMC2    C5 1098   1.021   2.155   8.900  0.3023  0.3684  0.4254
   52TMC2    C6 1099   1.060   2.039   8.839 -0.0125  0.3167  0.0813
   52TMC2     C 1100   0.806   2.031   9.165 -0.0944  0.2800 -0.1476
   52TMC2     O 1101   0.753   2.139   9.193  0.1011 -0.3917  0.6466
   52TMC2     H 1102   0.884   1.810   9.011 -1.4509  1.4237  1.9625
   52TMC2    H1 1103   0.907   2.242   9.057  0.7186 -0.1651  0.9613
   52TMC2    H2 1104   1.140   2.038   8.766  1.6287 -1.3446  1.9044
   52TMC2    C7 1105   1.096   2.272   8.863  0.0398 -0.1545 -0.4177
   52TMC2    C8 1106   1.074   1.796   8.830  0.6062 -0.1058 -1.6405
   52TMC2    O1 1107   1.132   2.288   8.746  0.1883 -0.3987 -0.7704
   52TMC2    O2 1108   1.116   1.787   8.714  0.2078 -0.2062 -0.8375
   52TMC2    O5 1109   1.047   1.690   8.900 -0.4812  0.2512  0.5030
   52TMC2    H5 1110   1.053   1.712   8.995  1.2442 -0.2117  0.5066
   53TMC2    C1 1111   3.768   2.763   9.142 -0.0348 -0.0266 -0.0724
   53TMC2    C2 1112   3.868   2.850   9.106  0.2835 -0.7025 -0.1522
   53TMC2    C3 1113   3.947   2.902   9.200  0.1236  0.5025 -0.6957
   53TMC2    C4 1114   3.740   2.737   9.278  0.9080 -0.2611  0.1230
   53TMC2    C5 1115   3.826   2.794   9.366  0.0197 -0.2232 -0.2580
   53TMC2    C6 1116   3.918   2.881   9.327  0.1577 -0.3619  0.1641
   53TMC2     C 1117   3.662   2.732   9.044  0.0924  0.1546 -0.3127
   53TMC2     O 1118   3.697   2.713   8.923  0.0862  0.3622  0.3683
   53TMC2     H 1119   3.881   2.883   9.003 -0.6987  0.1446 -0.0059
   53TMC2    H1 1120   3.681   2.651   9.306 -0.9015  1.4381  1.4853
   53TMC2    H2 1121   3.961   2.937   9.409  1.3811 -0.7454 -0.2162
   53TMC2    C7 1122   3.824   2.762   9.510  0.3517 -0.2390 -0.6549
   53TMC2    C8 1123   4.048   3.001   9.170 -0.7805  0.5445  0.2337
   53TMC2    O1 1124   3.921   2.793   9.578 -0.4946  0.8076  0.0927
   53TMC2    O2 1125   4.044   3.053   9.060  0.1245 -0.3646  0.3988
   53TMC2    O5 1126   4.166   2.958   9.227 -0.0884 -0.0902  0.1368
   53TMC2    H5 1127   4.157   2.921   9.318  3.3912 -0.7705  0.2174
   54TMC2    C1 1128   4.627   1.607  14.334 -1.1906  0.1025 -0.2014
   54TMC2    C2 1129   4.626   1.745  14.338 -0.0056  0.0057  0.4891
   54TMC2    C3 1130   4.605   1.808  14.457  0.3555 -0.1025 -0.7567
   54TMC2    C4 1131   4.598   1.536  14.446 -0.5683 -0.6698 -0.4083
   54TMC2    C5 1132   4.579   1.604  14.567  0.3367  0.2819 -0.5510
   54TMC2    C6 1133   4.594   1.735  14.573  0.3195 -0.1105 -0.5730
   54TMC2     C 1134   4.676   1.526  14.222  0.6047 -0.9792 -0.1365
   54TMC2     O 1135   4.681   1.401  14.235 -0.3674  0.6248 -0.5298
   54TMC2     H 1136   4.657   1.804  14.253 -0.8254 -0.2400  0.0266
   54TMC2    H1 1137   4.614   1.429  14.450 -1.1952 -0.7484 -0.0740
   54TMC2    H2 1138   4.599   1.794  14.664 -0.6500 -0.6341 -0.1783
   54TMC2    C7 1139   4.580   1.520  14.687  0.3131  0.5698  0.0961
   54TMC2    C8 1140   4.586   1.955  14.463  0.3955  0.3848 -0.6282
   54TMC2    O1 1141   4.570   1.402  14.667  0.1539  0.5625  0.1076
   54TMC2    O2 1142   4.518   2.006  14.549  0.1016  0.5058 -0.0890
   54TMC2    O5 1143   4.650   2.019  14.363  0.6576 -0.2092 -0.6593
   54TMC2    H5 1144   4.738   1.975  14.355 -0.3468 -1.8810 -2.5692
   55TMC2    C1 1145   0.735   1.439   7.672  0.0249 -0.4484  0.1239
   55TMC2    C2 1146   0.694   1.475   7.544 -0.3299  0.1634 -0.2616
   55TMC2    C3 1147   0.750   1.417   7.437  0.1467 -0.3254  0.5042
   55TMC2    C4 1148   0.826   1.339   7.684  0.3067 -0.3044  0.0008
   55TMC2    C5 1149   0.886   1.288   7.573  0.0309 -0.2213  0.3948
   55TMC2    C6 1150   0.847   1.322   7.442  0.5418 -0.6387  0.0763
   55TMC2     C 1151   0.688   1.503   7.790  0.1876  0.2981 -0.8203
   55TMC2     O 1152   0.677   1.433   7.889 -0.3755 -0.4267 -0.8536
   55TMC2     H 1153   0.613   1.545   7.534 -0.0719  0.6621  1.0500
   55TMC2    H1 1154   0.867   1.307   7.779  0.9412 -0.0960 -0.2064
   55TMC2    H2 1155   0.878   1.270   7.352  1.3774 -0.1857  0.1008
   55TMC2    C7 1156   0.928   1.151   7.587  0.5998 -0.4813 -0.0199
   55TMC2    C8 1157   0.728   1.481   7.316 -0.2907 -0.4426 -0.2974
   55TMC2    O1 1158   0.858   1.078   7.656 -0.3619  0.7439  0.5583
   55TMC2    O2 1159   0.693   1.597   7.299  0.3799  0.1062 -0.4486
   55TMC2    O5 1160   0.670   1.384   7.242  1.0969 -0.9503  0.5207
   55TMC2    H5 1161   0.675   1.301   7.294 -1.6064 -1.3037  0.2121
   56TMC2    C1 1162   0.046   3.892  14.776  0.0220 -0.5924  0.3019
   56TMC2    C2 1163   0.040   4.002  14.862 -0.2509  0.2911 -0.5731
   56TMC2    C3 1164   0.154   4.057  14.894  0.6605  0.5315  0.2944
   56TMC2    C4 1165   0.154   3.828  14.739  0.3542  0.2882 -0.4013
   56TMC2    C5 1166   0.268   3.880  14.784 -0.1372 -0.5405 -0.3239
   56TMC2    C6 1167   0.278   3.999  14.852  0.8463  0.4678  0.1738
   56TMC2     C 1168   4.700   3.824  14.745  0.0166 -0.2458  0.5240
   56TMC2     O 1169   4.609   3.897  14.706 -0.0642  0.0413  0.8404
   56TMC2     H 1170   4.724   4.045  14.901 -0.9615 -0.7329 -1.1286
   56TMC2    H1 1171   0.148   3.744  14.671 -0.4624  0.8108 -0.9665
   56TMC2    H2 1172   0.368   4.004  14.913  0.0853 -0.5874  1.3929
   56TMC2    C7 1173   0.387   3.834  14.718  0.4317 -0.8350 -0.4233
   56TMC2    C8 1174   0.166   4.101  15.031 -0.4868  0.1808 -0.8729
   56TMC2    O1 1175   0.491   3.895  14.733  0.2466  0.3843  0.6260
   56TMC2    O2 1176   0.092   4.075  15.123 -0.5280  0.4134 -0.2070
   56TMC2    O5 1177   0.269   4.181  15.038  0.8277  0.2596 -0.2471
   56TMC2    H5 1178   0.306   4.219  14.955  0.1484 -0.1863 -0.7491
   57TMC2    C1 1179   0.736   3.608   7.845 -1.0829  0.6903  0.1191
   57TMC2    C2 1180   0.813   3.721   7.854  0.6858 -0.7011 -0.3321
   57TMC2    C3 1181   0.948   3.710   7.892  0.2940 -0.0808 -0.2288
   57TMC2    C4 1182   0.789   3.484   7.886  0.1075 -0.7042  0.5455
   57TMC2    C5 1183   0.918   3.485   7.939  0.0392  0.3480 -0.0107
   57TMC2    C6 1184   1.002   3.592   7.937  0.1425  0.0322 -0.0524
   57TMC2     C 1185   0.597   3.611   7.796 -0.2560 -0.7043  0.0073
   57TMC2     O 1186   0.539   3.511   7.751 -0.7340  0.5827 -0.8472
   57TMC2     H 1187   0.766   3.816   7.834  4.3632  0.2611 -4.5110
   57TMC2    H1 1188   0.732   3.399   7.851  0.9940 -1.2257  0.3809
   57TMC2    H2 1189   1.104   3.578   7.974 -0.1525 -1.6466  0.1434
   57TMC2    C7 1190   0.973   3.359   7.993 -0.5283  0.4662 -0.0954
   57TMC2    C8 1191   1.029   3.820   7.859 -0.3478  0.3393 -0.1767
   57TMC2    O1 1192   1.092   3.361   8.032 -0.2509  0.2042 -0.0420
   57TMC2    O2 1193   0.988   3.926   7.813 -0.1648 -0.5601  0.2713
   57TMC2    O5 1194   1.163   3.782   7.859  0.7072  0.0265  1.1348
   57TMC2    H5 1195   1.195   3.710   7.918 -0.1082 -1.4627 -0.2471
   58TMC2    C1 1196   3.889   0.630  15.244 -0.2479  0.1693  0.0746
   58TMC2    C2 1197   4.016   0.671  15.204 -1.0526  0.1738  0.8023
   58TMC2    C3 1198   4.066   0.640  15.077  0.1928  0.0049  0.5409
   58TMC2    C4 1199   3.813   0.562  15.156 -0.0697 -0.6881  0.4251
   58TMC2    C5 1200   3.874   0.530  15.034  0.0174  0.8402 -0.8131
   58TMC2    C6 1201   3.989   0.576  14.986  0.0035 -0.6016  0.1265
   58TMC2     C 1202   3.827   0.675  15.366 -0.7489 -0.1654  0.3387
   58TMC2     O 1203   3.709   0.647  15.381  0.2663  0.2007 -0.2201
   58TMC2     H 1204   4.070   0.745  15.262  0.3504 -0.1117 -0.1552
   58TMC2    H1 1205   3.718   0.519  15.187 -0.4421  0.7426  1.2485
   58TMC2    H2 1206   4.020   0.541  14.889  1.5617  1.6804 -0.1778
   58TMC2    C7 1207   3.792   0.471  14.925  0.2976 -0.0486  0.2126
   58TMC2    C8 1208   4.194   0.691  15.037  0.0450 -0.4303  0.2048
   58TMC2    O1 1209   3.822   0.487  14.806 -0.3864  0.1446  0.1612
   58TMC2    O2 1210   4.225   0.698  14.917 -0.3393  0.3305  0.2352
   58TMC2    O5 1211   4.283   0.662  15.137  0.1472 -0.0740  0.4044
   58TMC2    H5 1212   4.247   0.666  15.229 -0.9760  1.5248 -0.0980
   59TMC2    C1 1213   4.337   3.099  13.811 -0.1195  0.0464 -0.0380
   59TMC2    C2 1214   4.432   3.001  13.812 -0.3350  0.9956 -0.1269
   59TMC2    C3 1215   4.548   3.025  13.886  0.6599 -0.0238  0.1509
   59TMC2    C4 1216   4.373   3.225  13.846  0.2155  0.1955 -0.1916
   59TMC2    C5 1217   4.498   3.244  13.906  0.2153 -0.3387  0.0949
   59TMC2    C6 1218   4.580   3.146  13.933 -0.3841  0.0475 -0.1944
   59TMC2     C 1219   4.230   3.091  13.712 -1.0896 -0.6984 -0.6372
   59TMC2     O 1220   4.251   3.014  13.622  0.2656  0.0548 -0.0813
   59TMC2     H 1221   4.405   2.900  13.783  2.0442  0.7363 -1.4557
   59TMC2    H1 1222   4.307   3.310  13.836 -0.1967  0.0526  1.2749
   59TMC2    H2 1223   4.675   3.158  13.984  0.0786  2.0618 -1.5214
   59TMC2    C7 1224   4.536   3.377  13.940 -0.0285  0.4898 -0.1511
   59TMC2    C8 1225   4.615   2.913  13.944  0.4344 -0.0111  0.0476
   59TMC2    O1 1226   4.604   3.395  14.045  0.4511 -0.6481  0.1273
   59TMC2    O2 1227   4.674   2.903  14.052 -0.3639 -0.0093  0.6042
   59TMC2    O5 1228   4.623   2.828  13.841  0.1059 -0.7756 -0.4141
   59TMC2    H5 1229   4.595   2.858  13.752 -1.5477 -0.6089  0.1611
   60TMC2    C1 1230   3.204   0.526  10.805 -0.3743  0.0838  0.0935
   60TMC2    C2 1231   3.173   0.435  10.906  0.0493 -0.2649  0.2665
   60TMC2    C3 1232   3.139   0.308  10.861  0.0944 -0.5958  0.0392
   60TMC2    C4 1233   3.192   0.499  10.671 -0.5643  0.2403 -0.2997
   60TMC2    C5 1234   3.157   0.372  10.634 -0.1405  0.0103 -0.3124
   60TMC2    C6 1235   3.131   0.277  10.730 -0.4529  0.2768 -0.1541
   60TMC2     C 1236   3.271   0.648  10.841  0.0145  0.9747 -0.5092
   60TMC2     O 1237   3.261   0.743  10.762 -0.4371 -0.0151 -0.4295
   60TMC2     H 1238   3.178   0.455  11.012  0.0739 -0.0294  0.2211
   60TMC2    H1 1239   3.230   0.573  10.601  3.2451  1.4556  3.0485
   60TMC2    H2 1240   3.085   0.181  10.711 -0.6302  0.9210 -3.0470
   60TMC2    C7 1241   3.070   0.374  10.519  0.6728  0.4680 -0.9774
   60TMC2    C8 1242   3.165   0.209  10.958 -0.3199 -0.7159  0.4710
   60TMC2    O1 1243   3.045   0.270  10.464  0.0248 -0.0281 -0.3047
   60TMC2    O2 1244   3.234   0.230  11.058 -0.9865  0.3403  0.0995
   60TMC2    O5 1245   3.060   0.121  10.961  0.0216  0.9496  0.4759
   60TMC2    H5 1246   2.998   0.139  10.887 -1.3003 -2.9882  0.6333
   61TMC2    C1 1247   1.477   1.970   9.696  0.0234 -0.2482 -1.1676
   61TMC2    C2 1248   1.556   1.905   9.599  0.0264 -0.6107 -0.0713
   61TMC2    C3 1249   1.509   1.785   9.557 -0.3601 -0.4752 -0.2515
   61TMC2    C4 1250   1.354   1.920   9.736 -0.3378 -0.8249 -0.0265
   61TMC2    C5 1251   1.319   1.799   9.694  0.4296 -0.8856  1.0817
   61TMC2    C6 1252   1.387   1.735   9.603 -0.4139 -0.2802 -0.9994
   61TMC2     C 1253   1.519   2.094   9.763 -1.0582  0.7466  0.6165
   61TMC2     O 1254   1.444   2.124   9.854  0.9133  0.7397  0.3081
   61TMC2     H 1255   1.661   1.923   9.577  0.5500 -3.8834 -0.2521
   61TMC2    H1 1256   1.293   1.970   9.810 -1.7675 -2.6635  0.0294
   61TMC2    H2 1257   1.343   1.644   9.565 -0.9699  0.1793 -1.4439
   61TMC2    C7 1258   1.185   1.757   9.722  0.1341  0.4362 -0.3326
   61TMC2    C8 1259   1.595   1.702   9.482  0.3139 -0.0533 -1.1960
   61TMC2    O1 1260   1.109   1.719   9.634  0.5699 -0.2883 -0.3163
   61TMC2    O2 1261   1.644   1.745   9.379 -0.1950  0.3528 -0.1178
   61TMC2    O5 1262   1.566   1.577   9.512  0.7808  0.1507 -0.2232
   61TMC2    H5 1263   1.515   1.546   9.590  0.1838  1.3322 -0.1440
   62TMC2    C1 1264   2.857   3.431  10.513  0.4997 -0.5680 -1.1864
   62TMC2    C2 1265   2.788   3.332  10.572 -0.0010  0.2853 -0.5117
   62TMC2    C3 1266   2.681   3.368  10.649 -0.1705  1.0117 -0.5962
   62TMC2    C4 1267   2.821   3.562  10.531 -0.0919  0.4425  0.1316
   62TMC2    C5 1268   2.711   3.596  10.606 -0.3592 -0.5286  0.0928
   62TMC2    C6 1269   2.633   3.497  10.659  0.1395 -0.7064 -0.0490
   62TMC2     C 1270   3.001   3.400  10.475  0.2124 -0.1681  0.3225
   62TMC2     O 1271   3.045   3.290  10.495 -0.0666 -0.2657  0.1369
   62TMC2     H 1272   2.826   3.231  10.565 -0.7732  0.1124 -2.1806
   62TMC2    H1 1273   2.871   3.635  10.467  3.0347  0.6018  2.7311
   62TMC2    H2 1274   2.544   3.506  10.721  0.9981  3.7620  0.5368
   62TMC2    C7 1275   2.670   3.735  10.600 -0.1312  0.2689  0.5752
   62TMC2    C8 1276   2.604   3.269  10.718  0.4217  0.5284  0.6858
   62TMC2    O1 1277   2.753   3.802  10.544  0.5354 -0.1725 -0.4338
   62TMC2    O2 1278   2.488   3.284  10.756  1.1692 -0.1520  0.6618
   62TMC2    O5 1279   2.700   3.195  10.780  0.6806  0.1098  0.3996
   62TMC2    H5 1280   2.796   3.208  10.761  0.6825  1.5120  1.4014
   63TMC2    C1 1281   2.027   1.853   6.435  0.2284  0.2819 -0.5201
   63TMC2    C2 1282   2.134   1.783   6.408  0.2950  0.0514 -0.3626
   63TMC2    C3 1283   2.138   1.659   6.447  0.5055 -0.2372 -0.3922
   63TMC2    C4 1284   1.908   1.801   6.490 -0.1078  0.6001  0.1189
   63TMC2    C5 1285   1.914   1.666   6.505  0.1597  0.5425  0.3787
   63TMC2    C6 1286   2.025   1.591   6.477  0.2384  0.3182 -1.2294
   63TMC2     C 1287   2.007   1.978   6.362 -0.0927  0.5944  0.1190
   63TMC2     O 1288   2.104   2.020   6.299 -0.4716  0.0515  0.4165
   63TMC2     H 1289   2.228   1.820   6.369 -0.2155  0.6269 -1.0469
   63TMC2    H1 1290   1.833   1.867   6.531 -1.3261  0.2917 -1.6156
   63TMC2    H2 1291   2.015   1.483   6.476 -1.2718  0.4520  1.6080
   63TMC2    C7 1292   1.808   1.603   6.579  0.1187 -0.4252 -0.3571
   63TMC2    C8 1293   2.248   1.583   6.399  0.4597  0.3300  0.0747
   63TMC2    O1 1294   1.705   1.664   6.574 -1.0047  0.0126 -0.6574
   63TMC2    O2 1295   2.340   1.623   6.332  0.6207 -0.0044  0.4932
   63TMC2    O5 1296   2.255   1.479   6.484  0.6902 -0.0949  0.1575
   63TMC2    H5 1297   2.187   1.490   6.555  1.2734 -1.7569  0.9755
   64TMC2    C1 1298   0.261   4.035   7.209  0.1336 -0.0589  0.2908
   64TMC2    C2 1299   0.136   3.972   7.207  0.7933 -0.6058 -0.0556
   64TMC2    C3 1300   0.089   3.941   7.091  0.3522  0.0861  0.4862
   64TMC2    C4 1301   0.340   4.024   7.099 -0.1848 -0.4280 -0.0140
   64TMC2    C5 1302   0.283   3.977   6.985 -0.0774  0.0122 -0.6691
   64TMC2    C6 1303   0.150   3.961   6.971  0.6004 -0.1503  0.4629
   64TMC2     C 1304   0.320   4.056   7.337  0.9672  0.0135 -1.0377
   64TMC2     O 1305   0.241   4.081   7.423  0.3421  0.0406 -0.0388
   64TMC2     H 1306   0.079   3.956   7.298  0.6287  2.4333  0.3793
   64TMC2    H1 1307   0.443   4.056   7.096 -0.2193 -0.2914  0.2319
   64TMC2    H2 1308   0.124   3.905   6.882  2.0896  2.4516 -1.6180
   64TMC2    C7 1309   0.361   3.966   6.857  0.8373 -0.4224  0.8410
   64TMC2    C8 1310   4.754   3.855   7.086 -0.2942  0.5734 -0.2930
   64TMC2    O1 1311   0.297   3.949   6.754 -0.2018 -0.1250  0.4815
   64TMC2    O2 1312   4.645   3.906   7.111  0.4330 -0.7380 -0.0637
   64TMC2    O5 1313   0.030   3.740   7.134  0.0060  0.5857  0.4373
   64TMC2    H5 1314   0.128   3.734   7.128  0.0402  0.0830  1.5951
   65TMC2    C1 1315   2.369   2.142   6.521  0.5716 -0.1909 -0.8447
   65TMC2    C2 1316   2.506   2.155   6.494  0.4505 -0.2319 -0.2382
   65TMC2    C3 1317   2.595   2.072   6.555  0.7466 -0.4480  0.2951
   65TMC2    C4 1318   2.332   2.025   6.596 -0.1626  0.8524 -0.2225
   65TMC2    C5 1319   2.421   1.936   6.641 -0.1437 -0.5914  1.4005
   65TMC2    C6 1320   2.564   1.957   6.624  0.5233  0.0627  0.0447
   65TMC2     C 1321   2.269   2.239   6.480  0.1620 -0.2891 -0.1947
   65TMC2     O 1322   2.296   2.298   6.376  0.5871 -0.1446 -0.0944
   65TMC2     H 1323   2.531   2.242   6.435 -0.2481  1.5720  2.1093
   65TMC2    H1 1324   2.224   2.015   6.603  0.2045 -0.8264  2.6900
   65TMC2    H2 1325   2.639   1.890   6.664  2.1125  2.0893  0.4458
   65TMC2    C7 1326   2.371   1.814   6.698 -0.6150 -0.5080 -0.2923
   65TMC2    C8 1327   2.736   2.103   6.543  0.1231  0.2914 -0.6072
   65TMC2    O1 1328   2.247   1.815   6.716  0.4107 -0.3146  0.0196
   65TMC2    O2 1329   2.819   2.016   6.561 -0.0377  0.0771  0.0565
   65TMC2    O5 1330   2.746   2.233   6.583  0.4538  0.3523  0.1414
   65TMC2    H5 1331   2.660   2.275   6.603 -0.3003  0.0544 -2.4961
   66TMC2    C1 1332   0.390   3.114  15.044  0.2964 -0.0310  0.2829
   66TMC2    C2 1333   0.345   3.235  15.087  0.7049 -0.1921  0.2469
   66TMC2    C3 1334   0.300   3.238  15.215  0.3796  0.4664 -0.9716
   66TMC2    C4 1335   0.411   3.013  15.132  0.6152 -0.2120 -0.1533
   66TMC2    C5 1336   0.381   3.025  15.266 -0.2074  0.1279  0.0390
   66TMC2    C6 1337   0.329   3.143  15.312  0.1825  0.0929 -0.0267
   66TMC2     C 1338   0.401   3.099  14.902 -0.0066 -0.5348 -0.0942
   66TMC2     O 1339   0.309   3.145  14.835  0.0260 -0.0173  0.2538
   66TMC2     H 1340   0.301   3.302  15.013 -3.1602 -1.8474  1.0463
   66TMC2    H1 1341   0.448   2.920  15.092 -0.0765 -0.3299 -0.5257
   66TMC2    H2 1342   0.286   3.154  15.411 -1.3005  2.4044 -0.9141
   66TMC2    C7 1343   0.437   2.927  15.361 -0.9303  0.7203 -0.3803
   66TMC2    C8 1344   0.203   3.338  15.247 -0.1981  0.2749 -0.1360
   66TMC2    O1 1345   0.523   2.858  15.312  0.4468 -0.1338  0.2391
   66TMC2    O2 1346   0.104   3.323  15.322 -0.1132  0.7379 -0.0074
   66TMC2    O5 1347   0.217   3.446  15.167  0.2315 -0.2913  0.1842
   66TMC2    H5 1348   0.291   3.452  15.104 -2.6259  0.6261 -3.0684
   67TMC2    C1 1349   1.206   2.868   6.866 -0.4800 -0.4675  0.0852
   67TMC2    C2 1350   1.128   2.972   6.904 -1.0264  0.2727  0.2205
   67TMC2    C3 1351   1.180   3.062   6.987 -0.2453 -0.0102 -0.3431
   67TMC2    C4 1352   1.331   2.847   6.910 -0.9776  0.0303 -0.0294
   67TMC2    C5 1353   1.381   2.945   6.990 -0.0109 -0.4874  1.2221
   67TMC2    C6 1354   1.313   3.058   7.023  0.0611 -0.7393  0.1480
   67TMC2     C 1355   1.177   2.809   6.733  0.4925  0.3851  0.4189
   67TMC2     O 1356   1.235   2.705   6.713 -0.3145 -0.1103 -0.2618
   67TMC2     H 1357   1.025   2.981   6.873 -0.8378  0.4012 -0.3605
   67TMC2    H1 1358   1.392   2.767   6.870  0.2765  0.5052  0.9212
   67TMC2    H2 1359   1.343   3.131   7.098 -2.4402  0.5535 -0.1112
   67TMC2    C7 1360   1.521   2.933   7.032  0.2703 -0.6939  0.5224
   67TMC2    C8 1361   1.094   3.134   7.076  0.1554 -0.7225  0.5181
   67TMC2    O1 1362   1.580   2.833   7.003  0.0411 -0.2634 -0.2593
   67TMC2    O2 1363   1.108   3.155   7.197 -0.1918 -0.1959 -0.1247
   67TMC2    O5 1364   0.996   3.176   6.998  0.4198 -0.0718  0.0842
   67TMC2    H5 1365   1.031   3.183   6.906 -0.1655  0.4929 -0.0942
   68TMC2    C1 1366   0.643   3.667   6.556 -0.6313  0.1755 -0.6902
   68TMC2    C2 1367   0.744   3.612   6.634 -0.0300 -0.1685 -0.6004
   68TMC2    C3 1368   0.717   3.560   6.754  0.3988  0.3903  0.5153
   68TMC2    C4 1369   0.513   3.654   6.601  0.1521 -0.0820  0.5191
   68TMC2    C5 1370   0.491   3.597   6.722  0.5911  0.0944  0.2995
   68TMC2    C6 1371   0.592   3.547   6.803 -0.2729 -0.0872 -0.2798
   68TMC2     C 1372   0.670   3.679   6.412 -0.2415  0.5226  0.5334
   68TMC2     O 1373   0.754   3.599   6.373  0.8112  0.1580  0.4974
   68TMC2     H 1374   0.841   3.597   6.587  1.1477  2.4012  0.9991
   68TMC2    H1 1375   0.435   3.695   6.537  2.7156  2.5678 -0.9446
   68TMC2    H2 1376   0.562   3.488   6.888 -3.7549 -2.4534 -3.1323
   68TMC2    C7 1377   0.361   3.612   6.785  0.1443 -0.3378 -0.1415
   68TMC2    C8 1378   0.809   3.448   6.775 -0.0264  0.0150  0.1918
   68TMC2    O1 1379   0.361   3.582   6.906 -0.6978 -0.5206  0.4043
   68TMC2    O2 1380   0.930   3.435   6.748  0.7513  0.1213  0.0550
   68TMC2    O5 1381   0.740   3.344   6.829  0.2468  0.0282 -0.0819
   68TMC2    H5 1382   0.649   3.348   6.794  0.1570 -0.9518  0.0540
   69TMC2    C1 1383   2.351   0.237   6.695  0.0793 -0.2828  0.1783
   69TMC2    C2 1384   2.440   0.189   6.787 -1.0052 -0.3507  0.3174
   69TMC2    C3 1385   2.401   0.118   6.894  0.0682  1.0431 -0.0071
   69TMC2    C4 1386   2.224   0.229   6.723  0.4723 -0.3306  0.8618
   69TMC2    C5 1387   2.186   0.146   6.821  0.0922  0.3918 -0.0390
   69TMC2    C6 1388   2.268   0.085   6.909 -0.3856 -0.3524  0.0589
   69TMC2     C 1389   2.380   0.205   6.555 -0.3106 -0.6304  0.4495
   69TMC2     O 1390   2.491   0.219   6.505  0.1391 -0.1093  0.1871
   69TMC2     H 1391   2.545   0.199   6.762 -1.0599  3.5682  1.6037
   69TMC2    H1 1392   2.148   0.279   6.663 -0.7944 -2.8620  0.3421
   69TMC2    H2 1393   2.227   0.033   6.995  0.9761 -1.3161  0.1356
   69TMC2    C7 1394   2.068   0.077   6.790  0.2346 -0.4407  0.1413
   69TMC2    C8 1395   2.504   0.063   6.977 -0.1026  0.3543  0.4708
   69TMC2    O1 1396   2.044   0.063   6.670 -0.6519  0.2442 -0.0986
   69TMC2    O2 1397   2.622   0.095   6.971 -0.0633  0.3657  0.6043
   69TMC2    O5 1398   2.450   4.767   7.080  0.2988  0.2291  0.4148
   69TMC2    H5 1399   2.367   4.718   7.066  0.3880  0.3454 -0.5417
   70TMC2    C1 1400   2.158   3.151   6.696 -0.7265 -0.4499 -0.5626
   70TMC2    C2 1401   2.091   3.040   6.744 -1.1613  0.0002  0.4539
   70TMC2    C3 1402   1.994   2.976   6.675 -0.0941  0.0756  0.2799
   70TMC2    C4 1403   2.131   3.197   6.573  0.0319  0.4250 -0.1974
   70TMC2    C5 1404   2.019   3.151   6.514 -0.1112 -0.2382 -0.0238
   70TMC2    C6 1405   1.952   3.036   6.556 -0.1862  0.1571  0.0576
   70TMC2     C 1406   2.190   3.249   6.794 -0.3571  0.7091 -0.0180
   70TMC2     O 1407   2.148   3.362   6.771 -1.0405 -0.5861  0.2003
   70TMC2     H 1408   2.114   3.004   6.843 -2.9077  1.6380  1.4618
   70TMC2    H1 1409   2.179   3.292   6.553  3.7532 -1.2166  0.9938
   70TMC2    H2 1410   1.858   2.996   6.520  0.3186 -1.5963  0.6638
   70TMC2    C7 1411   1.930   3.258   6.479 -0.0328  0.4809 -0.3650
   70TMC2    C8 1412   1.880   2.920   6.745 -0.0243 -0.1945  0.2596
   70TMC2    O1 1413   1.828   3.231   6.423  0.1331  0.0365  0.4153
   70TMC2    O2 1414   1.770   2.965   6.745  0.1877 -0.1942  0.1611
   70TMC2    O5 1415   1.927   2.845   6.839  0.2655 -0.2650  0.2871
   70TMC2    H5 1416   2.012   2.807   6.807  0.3662  1.2998 -1.3103
   71TMC2    C1 1417   2.988   1.503  10.272 -0.4507  0.0491  0.7957
   71TMC2    C2 1418   3.046   1.567  10.380  0.1693  0.5793  0.0774
   71TMC2    C3 1419   3.017   1.703  10.390  0.5836  0.0003  0.6206
   71TMC2    C4 1420   2.895   1.563  10.186 -0.6418 -0.1239  0.0449
   71TMC2    C5 1421   2.864   1.693  10.209 -0.3738  0.0697  0.9403
   71TMC2    C6 1422   2.919   1.765  10.316 -0.0611 -0.1286  0.2267
   71TMC2     C 1423   2.988   1.359  10.268 -0.2545  0.0252 -0.2990
   71TMC2     O 1424   2.978   1.299  10.157 -0.3530 -0.0434 -0.2532
   71TMC2     H 1425   3.137   1.539  10.433 -0.7033  0.7438  1.6500
   71TMC2    H1 1426   2.855   1.514  10.098 -2.3387  4.5633 -1.8014
   71TMC2    H2 1427   2.885   1.867  10.332 -2.1670 -0.8680  0.5219
   71TMC2    C7 1428   2.770   1.762  10.121  0.3939  0.7420  0.1332
   71TMC2    C8 1429   3.057   1.772  10.513  0.2496 -0.0458 -0.6161
   71TMC2    O1 1430   2.760   1.882  10.142 -0.3704 -0.1038 -0.6194
   71TMC2    O2 1431   3.066   1.723  10.623 -0.7261 -0.4339 -0.2916
   71TMC2    O5 1432   3.145   1.871  10.470  0.5776  0.0263 -0.3724
   71TMC2    H5 1433   3.118   1.894  10.378  1.3406 -0.0589 -0.6165
   72TMC2    C1 1434   3.353   2.972  11.277  0.2028 -0.3885 -0.2883
   72TMC2    C2 1435   3.340   2.884  11.377  0.1733  0.7127  0.6811
   72TMC2    C3 1436   3.272   2.924  11.490  0.1576 -0.4605 -0.2054
   72TMC2    C4 1437   3.306   3.102  11.279  0.2260  0.1493  0.2911
   72TMC2    C5 1438   3.233   3.130  11.390  0.2206  0.7845 -0.2467
   72TMC2    C6 1439   3.209   3.047  11.491  0.0509 -0.1338 -0.5511
   72TMC2     C 1440   3.440   2.952  11.161  0.1392 -0.1730 -0.0804
   72TMC2     O 1441   3.419   3.018  11.059  0.0121  0.0518 -0.5364
   72TMC2     H 1442   3.363   2.781  11.353  0.9481  1.2672 -0.9221
   72TMC2    H1 1443   3.309   3.166  11.192  0.3249  1.4080  1.2247
   72TMC2    H2 1444   3.126   3.072  11.557 -0.3230  0.3219 -1.2018
   72TMC2    C7 1445   3.185   3.264  11.413 -0.3773 -0.9142  0.5220
   72TMC2    C8 1446   3.228   2.807  11.562 -0.0338 -0.4623  0.2214
   72TMC2    O1 1447   3.088   3.281  11.488  0.6171 -0.1893 -0.2540
   72TMC2    O2 1448   3.233   2.694  11.518 -0.1075 -0.2247  0.1469
   72TMC2    O5 1449   3.152   2.847  11.673 -0.0887 -0.2541  0.1731
   72TMC2    H5 1450   3.160   2.941  11.700  0.7110  0.2601 -1.8799
   73TMC2    C1 1451   1.724   0.738   7.038 -0.4060  0.3174 -0.6733
   73TMC2    C2 1452   1.803   0.685   7.142 -0.3392  0.5681  0.0408
   73TMC2    C3 1453   1.920   0.755   7.167 -0.0590 -0.4199  0.2617
   73TMC2    C4 1454   1.751   0.848   6.966 -0.8193 -0.5462 -0.5363
   73TMC2    C5 1455   1.856   0.927   7.018  0.2362 -1.1591  1.2263
   73TMC2    C6 1456   1.942   0.885   7.117 -0.1231 -0.6138 -0.6362
   73TMC2     C 1457   1.601   0.663   7.001 -0.0326 -0.4189  0.5750
   73TMC2     O 1458   1.542   0.608   7.093  0.0707 -0.1392 -0.0954
   73TMC2     H 1459   1.783   0.589   7.189  1.6258  0.0834 -0.0841
   73TMC2    H1 1460   1.674   0.896   6.907 -1.5849 -0.9838  0.1023
   73TMC2    H2 1461   2.024   0.946   7.154  0.0309 -2.1889  1.6409
   73TMC2    C7 1462   1.873   1.063   6.966 -0.1532 -0.0593 -0.6752
   73TMC2    C8 1463   2.021   0.686   7.245 -0.6846  0.3889  0.2014
   73TMC2    O1 1464   1.977   1.123   6.950  0.1888  0.5710  0.2849
   73TMC2    O2 1465   1.996   0.583   7.306  0.0789  1.3708 -0.1481
   73TMC2    O5 1466   2.144   0.730   7.206 -0.6301 -0.3268 -0.3170
   73TMC2    H5 1467   2.145   0.791   7.129 -0.4255 -0.5134 -0.4604
   74TMC2    C1 1468   4.013   0.128  14.537 -0.7748  0.2861  0.0900
   74TMC2    C2 1469   4.065   0.010  14.494  0.1868  0.3849  0.3487
   74TMC2    C3 1470   4.174   4.734  14.557  0.4851 -0.4029 -0.2240
   74TMC2    C4 1471   4.083   0.204  14.621  0.4099 -0.1103 -0.4217
   74TMC2    C5 1472   4.190   0.148  14.687 -0.1177 -0.1238  0.0970
   74TMC2    C6 1473   4.232   0.017  14.661 -0.5419 -0.0497 -0.0448
   74TMC2     C 1474   3.884   0.171  14.487  0.0300  0.5848  0.5548
   74TMC2     O 1475   3.826   0.071  14.444  0.1054 -0.3045  0.2788
   74TMC2     H 1476   4.010   4.714  14.434 -0.6581  0.8847  0.5190
   74TMC2    H1 1477   4.051   0.304  14.649 -2.0969 -0.5999 -1.6398
   74TMC2    H2 1478   4.309   4.747  14.722  0.0189  1.8403  0.6900
   74TMC2    C7 1479   4.241   0.208  14.804  0.2003 -0.6221  0.5248
   74TMC2    C8 1480   4.179   4.589  14.542 -0.0296  0.0628  0.2307
   74TMC2    O1 1481   4.362   0.189  14.821  0.1219 -0.2988 -0.0321
   74TMC2    O2 1482   4.088   4.510  14.528 -0.4607 -0.3772 -0.6015
   74TMC2    O5 1483   4.298   4.567  14.484  0.7175  0.2387 -0.7621
   74TMC2    H5 1484   4.352   4.648  14.473 -0.2371  1.1782  1.5275
   75TMC2    C1 1485   0.297   3.603   8.254 -0.2743 -0.4013 -0.3449
   75TMC2    C2 1486   0.204   3.698   8.233  0.0943  0.6984 -0.2604
   75TMC2    C3 1487   0.236   3.816   8.182  0.2696 -0.7091 -0.2447
   75TMC2    C4 1488   0.429   3.625   8.220 -0.0209  0.5626  0.5784
   75TMC2    C5 1489   0.459   3.747   8.169 -0.9195  0.0614  0.2685
   75TMC2    C6 1490   0.362   3.838   8.144  0.2675 -0.5521 -0.2555
   75TMC2     C 1491   0.260   3.468   8.307 -0.3711  0.3033 -0.0718
   75TMC2     O 1492   0.141   3.436   8.319 -0.1801  0.0258  0.3234
   75TMC2     H 1493   0.101   3.678   8.262  0.1549 -0.5659 -0.9070
   75TMC2    H1 1494   0.504   3.548   8.235  0.2114  0.4851 -0.9590
   75TMC2    H2 1495   0.381   3.932   8.093  0.5206 -0.3910  0.1368
   75TMC2    C7 1496   0.591   3.795   8.150  0.0056 -0.2495  0.7827
   75TMC2    C8 1497   0.144   3.924   8.175 -0.4249  0.2332  0.1005
   75TMC2    O1 1498   0.609   3.870   8.055  0.0537 -0.1536  0.1394
   75TMC2    O2 1499   0.180   4.038   8.157 -0.2757 -0.8125 -0.1386
   75TMC2    O5 1500   0.013   3.887   8.175 -0.0002  0.9410  0.0804
   75TMC2    H5 1501   4.771   3.790   8.181 -2.1977  1.3072 -0.9898
   76TMC2    C1 1502   1.467   2.602   7.283 -0.4577 -0.9358  0.4758
   76TMC2    C2 1503   1.595   2.640   7.248 -0.3819  0.4963 -0.1193
   76TMC2    C3 1504   1.674   2.534   7.202 -0.0024  0.2332  0.2147
   76TMC2    C4 1505   1.419   2.472   7.288 -0.6223  0.8552  0.2600
   76TMC2    C5 1506   1.510   2.373   7.252 -0.0115 -0.4523  0.3934
   76TMC2    C6 1507   1.640   2.402   7.223  0.7103  0.3299  0.2628
   76TMC2     C 1508   1.369   2.701   7.273  0.0634 -0.6298 -0.3313
   76TMC2     O 1509   1.397   2.820   7.280  0.3262 -0.0914 -0.3051
   76TMC2     H 1510   1.639   2.739   7.239  0.3575  0.5307  3.4995
   76TMC2    H1 1511   1.322   2.447   7.328 -0.0133 -1.6110  0.2077
   76TMC2    H2 1512   1.705   2.324   7.186  2.2961  1.8955 -0.2605
   76TMC2    C7 1513   1.452   2.236   7.259  0.3023 -0.4514 -0.7013
   76TMC2    C8 1514   1.800   2.558   7.130  0.0701 -0.0998  0.5665
   76TMC2    O1 1515   1.334   2.223   7.285  0.0477 -0.1093  0.0974
   76TMC2    O2 1516   1.892   2.484   7.105 -0.1660 -0.0404  0.3474
   76TMC2    O5 1517   1.768   2.652   7.035  0.7924 -0.4055  0.2617
   76TMC2    H5 1518   1.685   2.704   7.042 -0.1819 -1.9558  0.2077
   77TMC2    C1 1519   2.664   2.338   8.497  0.0935  0.2210  0.0325
   77TMC2    C2 1520   2.739   2.434   8.558 -0.5352 -0.4052 -0.1367
   77TMC2    C3 1521   2.859   2.398   8.609 -0.1465 -0.5224 -0.6675
   77TMC2    C4 1522   2.698   2.208   8.510 -0.2566 -0.8709 -0.0974
   77TMC2    C5 1523   2.812   2.178   8.579  0.1301  0.0870  0.7616
   77TMC2    C6 1524   2.902   2.270   8.630  0.4093  0.2149 -0.5070
   77TMC2     C 1525   2.574   2.374   8.386 -0.0490 -0.9094 -0.2182
   77TMC2     O 1526   2.559   2.492   8.364 -0.0304  0.4278  0.0517
   77TMC2     H 1527   2.720   2.541   8.553  2.0219 -0.0251 -1.7049
   77TMC2    H1 1528   2.657   2.119   8.465 -0.7065 -0.0708 -1.2808
   77TMC2    H2 1529   2.987   2.244   8.692 -0.3961  1.0290  0.9589
   77TMC2    C7 1530   2.837   2.049   8.620 -0.7072  0.7968  0.6100
   77TMC2    C8 1531   2.924   2.497   8.688  0.5851  0.3138 -0.1458
   77TMC2    O1 1532   2.735   1.992   8.649 -0.2219 -0.0069  0.4418
   77TMC2    O2 1533   3.024   2.558   8.654  0.2280  0.0585  0.5695
   77TMC2    O5 1534   2.827   2.551   8.752  0.1250  0.3459  0.1738
   77TMC2    H5 1535   2.754   2.489   8.776 -0.7619  0.3139 -2.6723
   78TMC2    C1 1536   2.532   1.752   8.997 -0.5902 -0.2198 -0.6047
   78TMC2    C2 1537   2.516   1.882   8.951 -0.2732 -0.2549 -0.1965
   78TMC2    C3 1538   2.621   1.962   8.960  0.5442  0.1005 -0.1548
   78TMC2    C4 1539   2.653   1.714   9.056 -0.1023  0.0627 -0.7006
   78TMC2    C5 1540   2.755   1.804   9.047 -0.4661 -0.4877  0.4110
   78TMC2    C6 1541   2.747   1.928   8.993 -0.1313  0.5006  0.0927
   78TMC2     C 1542   2.403   1.713   9.054 -0.1134 -0.3103 -0.1792
   78TMC2     O 1543   2.305   1.788   9.037 -0.2344 -0.4639  0.5110
   78TMC2     H 1544   2.425   1.931   8.919 -0.9137 -1.6961 -0.6049
   78TMC2    H1 1545   2.666   1.613   9.093  0.2674  0.2951 -0.1954
   78TMC2    H2 1546   2.824   2.004   8.996  1.5420 -1.1400 -2.3720
   78TMC2    C7 1547   2.882   1.755   9.089 -0.7116 -0.9981 -0.2536
   78TMC2    C8 1548   2.588   2.102   8.940 -0.0644  0.0521  0.5244
   78TMC2    O1 1549   2.888   1.640   9.138  0.6240 -0.2922 -1.0853
   78TMC2    O2 1550   2.520   2.144   8.852  0.1508 -0.0928  0.6141
   78TMC2    O5 1551   2.577   2.146   9.064 -0.0105  0.4679 -0.2141
   78TMC2    H5 1552   2.603   2.085   9.136  1.1049  2.0598  0.7204
   79TMC2    C1 1553   4.275   1.994  14.249 -0.0406  0.0987 -0.0184
   79TMC2    C2 1554   4.379   1.966  14.167  0.3420  0.1273  0.4808
   79TMC2    C3 1555   4.435   2.065  14.092 -0.8691  0.7707  0.3611
   79TMC2    C4 1556   4.212   2.110  14.246 -0.6809  0.7710  0.1093
   79TMC2    C5 1557   4.270   2.202  14.159 -0.9580 -0.0308 -0.6813
   79TMC2    C6 1558   4.387   2.194  14.096  0.2197 -0.1732 -0.2521
   79TMC2     C 1559   4.228   1.892  14.344  0.3731 -0.1316 -0.2027
   79TMC2     O 1560   4.178   1.941  14.445 -0.1310  0.6236 -0.2710
   79TMC2     H 1561   4.424   1.867  14.175  1.2123  0.5623  1.0014
   79TMC2    H1 1562   4.128   2.127  14.313 -0.4981  1.1918  0.2331
   79TMC2    H2 1563   4.415   2.282  14.039 -1.9005 -0.9045 -2.4232
   79TMC2    C7 1564   4.194   2.319  14.120  0.4038 -0.1255  0.0909
   79TMC2    C8 1565   4.556   2.031  14.029  0.1810  0.1998 -0.4114
   79TMC2    O1 1566   4.220   2.385  14.019 -0.2104  0.4805  0.0361
   79TMC2    O2 1567   4.626   1.938  14.065  0.0479 -0.4301 -0.2827
   79TMC2    O5 1568   4.598   2.141  13.958 -0.3445  0.4038  0.2204
   79TMC2    H5 1569   4.525   2.190  13.914  0.2260 -0.3705 -1.6099
   80TMC2    C1 1570   2.579   3.981   8.569  0.0176  0.0414 -1.1279
   80TMC2    C2 1571   2.467   3.911   8.529 -0.3377 -0.5050  0.4238
   80TMC2    C3 1572   2.414   3.941   8.406  1.0632 -0.5007  0.0373
   80TMC2    C4 1573   2.645   4.062   8.490 -0.1235 -0.1502 -0.0318
   80TMC2    C5 1574   2.598   4.074   8.362 -0.6061 -0.0088 -0.1810
   80TMC2    C6 1575   2.475   4.022   8.319  0.5748 -0.0989 -0.7797
   80TMC2     C 1576   2.627   3.969   8.701  0.2130 -0.0091 -0.6054
   80TMC2     O 1577   2.739   4.011   8.716  0.7042  0.9369 -0.2900
   80TMC2     H 1578   2.414   3.841   8.593  0.8201 -0.5007  1.3805
   80TMC2    H1 1579   2.743   4.105   8.510 -0.2290 -0.6977  1.6598
   80TMC2    H2 1580   2.421   4.020   8.225  2.7229 -0.3375 -2.0039
   80TMC2    C7 1581   2.639   4.193   8.276  0.3033  0.4926  0.2329
   80TMC2    C8 1582   2.321   3.843   8.367  0.0725 -0.9782  0.0588
   80TMC2    O1 1583   2.723   4.267   8.326  0.7686 -0.2523 -0.5463
   80TMC2    O2 1584   2.299   3.819   8.252  0.3181 -0.3396 -0.6343
   80TMC2    O5 1585   2.216   3.857   8.457  0.4213  0.5023 -0.1012
   80TMC2    H5 1586   2.245   3.896   8.542 -2.1963 -0.8227  1.4067
   81TMC2    C1 1587   3.345   2.828   9.993  0.2398 -0.0145  0.8238
   81TMC2    C2 1588   3.454   2.864   9.918  0.0129  0.1532  0.4706
   81TMC2    C3 1589   3.424   2.917   9.795  0.1900 -0.4067  1.0401
   81TMC2    C4 1590   3.216   2.845   9.961 -0.0546  0.4344 -0.2404
   81TMC2    C5 1591   3.188   2.901   9.842 -0.3420 -0.1846  0.2780
   81TMC2    C6 1592   3.292   2.931   9.756  0.0376  0.5068  0.0919
   81TMC2     C 1593   3.375   2.768  10.120 -0.5862 -0.4532 -0.3938
   81TMC2     O 1594   3.479   2.803  10.172 -0.5436  0.0752 -0.0442
   81TMC2     H 1595   3.558   2.846   9.943 -0.1172 -3.1223 -1.2854
   81TMC2    H1 1596   3.138   2.844  10.036  1.6550  0.8120  1.5535
   81TMC2    H2 1597   3.274   2.970   9.656 -0.5252 -1.7368 -0.6753
   81TMC2    C7 1598   3.048   2.922   9.804 -0.5954  0.1082  0.4766
   81TMC2    C8 1599   3.528   2.963   9.709  0.4639  0.2950 -0.1880
   81TMC2    O1 1600   3.026   3.021   9.731 -0.8015 -0.0500 -0.0925
   81TMC2    O2 1601   3.529   2.975   9.586  0.3954 -0.6071  0.5299
   81TMC2    O5 1602   3.621   3.018   9.789  0.6463 -0.4264  0.1483
   81TMC2    H5 1603   3.585   3.037   9.878  1.8517 -2.1591  1.0245
   82TMC2    C1 1604   2.009   0.399  14.775  0.3571 -0.6446 -0.2859
   82TMC2    C2 1605   1.875   0.374  14.758  0.4390  0.0170  0.1720
   82TMC2    C3 1606   1.835   0.249  14.804 -0.0997 -0.7018  0.1163
   82TMC2    C4 1607   2.083   0.314  14.860 -0.1787  0.0699 -0.3785
   82TMC2    C5 1608   2.028   0.201  14.915 -0.1058  0.3893  0.8259
   82TMC2    C6 1609   1.904   0.158  14.886 -0.6578  0.2661  0.3358
   82TMC2     C 1610   2.057   0.533  14.743  0.0119  0.1520 -0.5535
   82TMC2     O 1611   2.179   0.540  14.746  0.2806  0.4839 -0.0146
   82TMC2     H 1612   1.821   0.412  14.672 -0.2489  1.5872  1.3171
   82TMC2    H1 1613   2.188   0.338  14.871  0.1772 -0.9557 -1.5041
   82TMC2    H2 1614   1.861   0.071  14.935 -0.1956 -0.1621 -0.0240
   82TMC2    C7 1615   2.109   0.128  15.016  0.1437  0.0094 -0.4130
   82TMC2    C8 1616   1.699   0.208  14.763 -0.4725  0.3734  0.3788
   82TMC2    O1 1617   2.093   0.010  15.035  0.0016  0.2701  0.6482
   82TMC2    O2 1618   1.608   0.284  14.731 -0.1123  0.8660  0.2659
   82TMC2    O5 1619   1.694   0.071  14.764  0.5460 -0.0104  0.2100
   82TMC2    H5 1620   1.783   0.041  14.738  0.7962 -0.0660  1.1106
   83TMC2    C1 1621   4.553   2.311  14.647  0.2141  0.9116  0.8024
   83TMC2    C2 1622   4.480   2.334  14.767  0.0014 -0.4002 -0.6530
   83TMC2    C3 1623   4.546   2.306  14.884  0.3985  0.6490 -0.6808
   83TMC2    C4 1624   4.682   2.266  14.645  0.3611 -0.2911 -0.4287
   83TMC2    C5 1625   4.742   2.241  14.767 -0.3462  0.1259  0.6098
   83TMC2    C6 1626   4.675   2.264  14.886  0.0643 -0.1367 -0.5380
   83TMC2     C 1627   4.505   2.391  14.534  0.1106  0.3608  0.6102
   83TMC2     O 1628   4.406   2.461  14.550 -0.2675 -0.1595  0.2218
   83TMC2     H 1629   4.375   2.358  14.764  0.4586  1.6064 -0.6857
   83TMC2    H1 1630   4.732   2.244  14.552 -3.6207  0.6577 -2.7558
   83TMC2    H2 1631   4.712   2.212  14.973  1.2620 -2.5424 -2.4852
   83TMC2    C7 1632   0.113   2.261  14.771  0.8086 -0.2566 -0.8280
   83TMC2    C8 1633   4.470   2.293  15.004 -0.8549 -0.0277  0.1515
   83TMC2    O1 1634   0.164   2.290  14.666 -0.1000  0.4834  0.4303
   83TMC2    O2 1635   4.490   2.347  15.112  0.5241 -0.1949 -0.2778
   83TMC2    O5 1636   4.367   2.222  14.961  0.1778  0.1631  0.1464
   83TMC2    H5 1637   4.376   2.189  14.869 -0.8331 -0.6369  0.3361
   84TMC2    C1 1638   0.922   3.191   7.632 -0.1198 -0.3865 -0.2695
   84TMC2    C2 1639   0.958   3.322   7.611 -0.5916  0.3511 -0.0908
   84TMC2    C3 1640   0.865   3.406   7.550  0.7304 -0.7926 -0.2185
   84TMC2    C4 1641   0.798   3.141   7.594 -0.1740  0.7391  0.3336
   84TMC2    C5 1642   0.707   3.232   7.552  0.3475  0.1076  0.4107
   84TMC2    C6 1643   0.735   3.367   7.532 -0.4530  0.2531 -0.0059
   84TMC2     C 1644   1.019   3.113   7.707 -0.4690 -0.2520  0.0939
   84TMC2     O 1645   1.102   3.171   7.767 -0.0949 -0.3826  0.5320
   84TMC2     H 1646   1.052   3.357   7.651 -0.7071  0.7924 -0.2033
   84TMC2    H1 1647   0.780   3.039   7.625 -1.4323  0.6089 -0.8385
   84TMC2    H2 1648   0.655   3.432   7.500 -2.3699 -0.4139  3.5608
   84TMC2    C7 1649   0.571   3.187   7.534  0.4295  0.5961  0.0037
   84TMC2    C8 1650   0.889   3.551   7.566  0.1441 -0.7139  0.2747
   84TMC2    O1 1651   0.565   3.075   7.500  0.3344 -0.0666 -0.1008
   84TMC2    O2 1652   0.811   3.646   7.548  0.6207  0.6874  0.1506
   84TMC2    O5 1653   1.028   3.558   7.552 -0.5978 -0.2496 -0.4885
   84TMC2    H5 1654   1.054   3.473   7.510  0.4504  0.0260 -0.3940
   85TMC2    C1 1655   2.206   4.129  14.808  0.1218 -0.0063 -0.4178
   85TMC2    C2 1656   2.083   4.154  14.762  0.7728  0.3412 -0.0244
   85TMC2    C3 1657   2.047   4.283  14.738 -0.5731  0.2679  1.2028
   85TMC2    C4 1658   2.298   4.223  14.809 -0.1772 -0.0784 -1.0188
   85TMC2    C5 1659   2.261   4.351  14.795 -0.1393  0.3270 -0.7464
   85TMC2    C6 1660   2.134   4.389  14.761 -0.2180 -0.4872 -0.4876
   85TMC2     C 1661   2.243   3.988  14.810 -0.4018 -0.6983 -0.8583
   85TMC2     O 1662   2.151   3.909  14.816  0.5399  0.3033 -0.0704
   85TMC2     H 1663   2.012   4.076  14.741  0.1766  1.2946 -1.5417
   85TMC2    H1 1664   2.404   4.203  14.821 -0.2965 -1.8046 -2.9014
   85TMC2    H2 1665   2.100   4.489  14.736  0.9137 -0.3710 -1.5420
   85TMC2    C7 1666   2.358   4.454  14.841 -0.8002  0.5565  0.0313
   85TMC2    C8 1667   1.909   4.311  14.679 -0.0749  0.1606  0.0359
   85TMC2    O1 1668   2.463   4.427  14.899  0.0487 -0.8051  0.3478
   85TMC2    O2 1669   1.852   4.416  14.694 -0.7567  0.4372 -0.2383
   85TMC2    O5 1670   1.881   4.220  14.583  0.0858 -0.0865  0.2679
   85TMC2    H5 1671   1.964   4.173  14.558 -1.2921 -1.3582 -1.8874
   86TMC2    C1 1672   0.685   2.390   8.498 -0.0937  0.2700  0.3744
   86TMC2    C2 1673   0.557   2.433   8.495 -0.0591 -0.8207 -0.2967
   86TMC2    C3 1674   0.476   2.395   8.601  0.2018 -0.5456 -0.5950
   86TMC2    C4 1675   0.737   2.314   8.600  0.9633 -0.4123 -0.2639
   86TMC2    C5 1676   0.648   2.263   8.690  0.0299  1.7336  0.4419
   86TMC2    C6 1677   0.514   2.304   8.699  0.5060  0.4006 -0.9800
   86TMC2     C 1678   0.780   2.437   8.395  0.0246  0.2211  1.0590
   86TMC2     O 1679   0.896   2.406   8.420 -0.5086  0.7941 -0.1533
   86TMC2     H 1680   0.512   2.496   8.418 -0.2790 -1.7839 -0.9517
   86TMC2    H1 1681   0.843   2.289   8.603  0.8200 -0.9438  0.1931
   86TMC2    H2 1682   0.439   2.258   8.762  0.8545 -0.3648 -1.1132
   86TMC2    C7 1683   0.667   2.135   8.749 -0.7185  0.5124 -0.1529
   86TMC2    C8 1684   0.346   2.454   8.623  0.6149 -0.2475 -0.1239
   86TMC2    O1 1685   0.606   2.100   8.849 -0.3641  0.2939  0.1888
   86TMC2    O2 1686   0.280   2.505   8.536 -0.1615  0.3020  0.7911
   86TMC2    O5 1687   0.326   2.462   8.759 -0.1574 -0.1322  0.4335
   86TMC2    H5 1688   0.406   2.437   8.809  0.0012 -1.8731 -0.6952
   87MPD1     C 1689   3.205   1.187   6.071 -0.2501 -0.0754  0.5235
   87MPD1    C1 1690   3.099   1.117   6.018 -0.1708  0.2435 -0.5073
   87MPD1    C2 1691   2.978   1.189   6.018 -0.0310 -1.0589 -0.3675
   87MPD1    C3 1692   2.977   1.322   6.043 -0.2379  0.3553 -0.7908
   87MPD1    C4 1693   3.089   1.386   6.093  0.4352 -0.9472 -0.2334
   87MPD1    C5 1694   3.203   1.315   6.113 -0.3549 -0.2336  0.0495
   87MPD1     H 1695   2.882   1.148   5.988  0.3161 -1.1610 -1.3448
   87MPD1    H1 1696   3.085   1.487   6.130 -2.4024 -1.1059 -0.1500
   87MPD1    H2 1697   3.301   1.139   6.086  0.6537  1.7042  0.3980
   87MPD1    H3 1698   3.298   1.361   6.138  0.7641 -2.4644 -0.0322
   87MPD1     N 1699   2.863   1.394   6.006  0.2257 -0.0359 -0.0225
   87MPD1    H5 1700   2.781   1.346   5.971 -0.1212  0.8284 -0.4054
   87MPD1    N1 1701   3.104   0.981   5.982 -0.2418 -0.4344 -0.5941
   87MPD1    H6 1702   3.197   0.945   5.965 -0.2028 -1.0173  0.8337
   87MPD1    H7 1703   3.036   0.963   5.908  0.6124 -0.6283 -1.3348
   88MPD1     C 1704   1.990   0.056   9.188  0.2107 -0.4126  0.2259
   88MPD1    C1 1705   1.888   0.141   9.151  0.3327 -0.6268  0.0819
   88MPD1    C2 1706   1.812   0.196   9.257  0.3917 -0.0506  0.1379
   88MPD1    C3 1707   1.841   0.177   9.392 -0.2147  0.5288 -0.0229
   88MPD1    C4 1708   1.955   0.104   9.427  0.5250 -1.0465  0.3656
   88MPD1    C5 1709   2.021   0.041   9.319 -0.0457  0.0547 -0.7561
   88MPD1     H 1710   1.740   0.272   9.227  0.9014 -0.1208 -1.2748
   88MPD1    H1 1711   1.983   0.081   9.530 -0.0035  1.4032  1.0653
   88MPD1    H2 1712   2.050   0.002   9.116  0.9676 -1.6387  1.7611
   88MPD1    H3 1713   2.106   4.751   9.334 -0.2946 -0.4952 -1.7445
   88MPD1     N 1714   1.760   0.241   9.485 -0.3641 -0.3396 -0.1230
   88MPD1    H5 1715   1.685   0.295   9.444 -1.1314  0.7145  2.6472
   88MPD1    N1 1716   1.853   0.147   9.013  0.6536 -0.0410  0.3373
   88MPD1    H6 1717   1.926   0.119   8.949  0.6932  1.4180 -0.2628
   88MPD1    H7 1718   1.833   0.246   9.001  0.5007 -0.2276 -0.9021
   89MPD1     C 1719   0.356   1.372  11.783  0.2996 -0.0259  0.4237
   89MPD1    C1 1720   0.396   1.252  11.733 -0.2515  0.4246 -0.5626
   89MPD1    C2 1721   0.308   1.145  11.736  0.9453 -0.1041  0.1808
   89MPD1    C3 1722   0.183   1.158  11.803  0.3362  0.2695  0.6716
   89MPD1    C4 1723   0.137   1.281  11.841  0.0983  0.6822  0.1521
   89MPD1    C5 1724   0.228   1.386  11.825 -0.0546 -0.1334  0.1557
   89MPD1     H 1725   0.352   1.054  11.699 -0.3391 -0.4965 -0.3925
   89MPD1    H1 1726   0.038   1.298  11.884 -0.2799 -0.6033 -0.2096
   89MPD1    H2 1727   0.422   1.458  11.781  0.5249 -0.2611 -2.5753
   89MPD1    H3 1728   0.189   1.483  11.854 -1.9482 -0.2289 -2.0321
   89MPD1     N 1729   0.103   1.046  11.831  0.1526  0.2258 -0.3769
   89MPD1    H5 1730   0.015   1.063  11.878 -0.0732 -0.5370 -0.5211
   89MPD1    N1 1731   0.531   1.227  11.709 -1.0474  0.3973 -0.1689
   89MPD1    H6 1732   0.566   1.305  11.653  0.8388  0.7112  1.4576
   89MPD1    H7 1733   0.550   1.146  11.651  1.2470 -0.4319  1.7896
   90MPD1     C 1734   3.216   4.568  13.897 -0.5423 -0.5710  0.8169
   90MPD1    C1 1735   3.244   4.618  14.023  0.3713  0.7275  0.3286
   90MPD1    C2 1736   3.376   4.630  14.072 -0.0144  0.8357  0.1542
   90MPD1    C3 1737   3.482   4.593  13.979 -0.3302  0.0919  0.5989
   90MPD1    C4 1738   3.453   4.527  13.862 -0.1140  0.2649  0.5816
   90MPD1    C5 1739   3.320   4.523  13.818  0.3089  0.3964 -0.2037
   90MPD1     H 1740   3.396   4.677  14.168 -0.0177 -3.4951  2.3106
   90MPD1    H1 1741   3.523   4.502  13.783 -0.4790  0.6914  0.1274
   90MPD1    H2 1742   3.117   4.554  13.855  0.4959  0.6750 -2.0096
   90MPD1    H3 1743   3.299   4.485  13.719  2.6756  0.0059 -0.5582
   90MPD1     N 1744   3.613   4.622  14.007 -0.3234  0.3650 -0.5836
   90MPD1    H5 1745   3.677   4.587  13.937  2.9565  0.4724  2.3263
   90MPD1    N1 1746   3.137   4.658  14.107  0.1874  0.1366 -0.3778
   90MPD1    H6 1747   3.164   4.728  14.176  1.1059  1.3253 -1.9389
   90MPD1    H7 1748   3.069   4.704  14.047  1.0087  0.7392 -0.8541
   91MPD1     C 1749   0.941   0.157  10.307  0.8744 -0.2399 -0.2428
   91MPD1    C1 1750   0.810   0.161  10.268 -0.1485 -0.1192 -0.1266
   91MPD1    C2 1751   0.720   0.063  10.305  0.7875 -0.4734  0.3801
   91MPD1    C3 1752   0.769   4.728  10.376 -0.4648  0.1023  0.0107
   91MPD1    C4 1753   0.905   4.726  10.416  0.0899 -0.5189 -0.5507
   91MPD1    C5 1754   0.985   0.055  10.382  0.3086 -0.4468 -0.1306
   91MPD1     H 1755   0.615   0.069  10.279  0.6738 -0.6408  0.7978
   91MPD1    H1 1756   0.954   4.659  10.485  0.2019 -1.2764 -1.3683
   91MPD1    H2 1757   1.019   0.226  10.278 -0.4962  1.3575 -0.1454
   91MPD1    H3 1758   1.087   0.058  10.417  0.4069  0.6675 -0.5126
   91MPD1     N 1759   0.683   4.628  10.416  0.9218  0.2090  0.0461
   91MPD1    H5 1760   0.582   4.637  10.412  0.8251 -0.6572  0.5026
   91MPD1    N1 1761   0.762   0.272  10.204  0.9159 -0.5575  0.1251
   91MPD1    H6 1762   0.830   0.306  10.135  1.0755  0.5462  0.8229
   91MPD1    H7 1763   0.669   0.262  10.163  0.7360  0.9479  0.1581
   92MPD1     C 1764   0.712   3.806  11.011 -0.0802 -0.4740  1.0391
   92MPD1    C1 1765   0.597   3.793  10.937 -0.5918  0.0310  0.2821
   92MPD1    C2 1766   0.569   3.892  10.852 -0.6588 -0.4590  0.1260
   92MPD1    C3 1767   0.653   4.006  10.847 -0.3686 -0.2669 -0.1134
   92MPD1    C4 1768   0.771   4.015  10.921 -1.2490  0.2300 -0.6249
   92MPD1    C5 1769   0.803   3.909  11.002 -0.3481 -0.4287  0.0436
   92MPD1     H 1770   0.472   3.906  10.804  1.7383  0.3205 -4.4624
   92MPD1    H1 1771   0.829   4.107  10.926 -1.8180  0.6552 -1.9879
   92MPD1    H2 1772   0.732   3.733  11.089 -1.7010 -2.1521 -0.0970
   92MPD1    H3 1773   0.893   3.912  11.062 -1.0547  1.7531  0.9793
   92MPD1     N 1774   0.607   4.120  10.775  0.0863  0.6177 -0.4348
   92MPD1    H5 1775   0.664   4.204  10.771  0.6920  0.1135 -2.4920
   92MPD1    N1 1776   0.498   3.702  10.968  0.5419 -0.5363  0.3829
   92MPD1    H6 1777   0.431   3.679  10.894 -0.9867 -1.3188  1.9934
   92MPD1    H7 1778   0.546   3.616  10.994 -0.0929 -0.7869  0.7276
   93MPD1     C 1779   3.268   1.283  12.439 -1.0591 -0.2788  0.5433
   93MPD1    C1 1780   3.207   1.391  12.510  0.1338  0.1781  0.0792
   93MPD1    C2 1781   3.281   1.465  12.602  0.1482  0.4592 -1.0691
   93MPD1    C3 1782   3.410   1.422  12.638 -0.3675  0.0021 -1.0746
   93MPD1    C4 1783   3.464   1.306  12.585 -0.1727  0.3393  0.6312
   93MPD1    C5 1784   3.387   1.234  12.488 -0.8934 -0.1800 -0.2171
   93MPD1     H 1785   3.244   1.557  12.646 -0.2266  0.4719 -1.4215
   93MPD1    H1 1786   3.559   1.259  12.609  0.0579  0.9474  0.8939
   93MPD1    H2 1787   3.222   1.232  12.356  2.1979 -1.1220 -0.7499
   93MPD1    H3 1788   3.438   1.158  12.431 -1.3021 -0.5375 -0.1077
   93MPD1     N 1789   3.489   1.497  12.728 -0.7683  0.3369 -0.4057
   93MPD1    H5 1790   3.581   1.458  12.743 -1.3875 -1.6184 -1.7814
   93MPD1    N1 1791   3.092   1.447  12.453  0.7890  0.0475  0.0527
   93MPD1    H6 1792   3.050   1.498  12.531  0.8315 -0.2819  0.2912
   93MPD1    H7 1793   3.029   1.375  12.418  0.1883  0.9381 -0.7105
   94MPD1     C 1794   4.464   2.935  13.167  0.0066 -0.8064 -1.3208
   94MPD1    C1 1795   4.449   3.006  13.279  0.8734  0.5102  0.6328
   94MPD1    C2 1796   4.559   3.066  13.334 -0.2832  0.6288  0.2916
   94MPD1    C3 1797   4.685   3.046  13.289  0.3080 -0.0674  0.0512
   94MPD1    C4 1798   4.705   2.972  13.171 -0.2518 -0.1984  0.4661
   94MPD1    C5 1799   4.594   2.917  13.118  0.4962 -0.4861 -0.3846
   94MPD1     H 1800   4.545   3.131  13.420 -0.3186  0.9636  0.0339
   94MPD1    H1 1801   0.023   2.954  13.121 -0.0378 -0.3099  0.9060
   94MPD1    H2 1802   4.378   2.889  13.119 -0.6275 -0.3154 -0.6677
   94MPD1    H3 1803   4.604   2.849  13.034  1.6373  0.6072 -1.1188
   94MPD1     N 1804   0.019   3.108  13.351 -0.1106 -0.5718 -0.0447
   94MPD1    H5 1805   4.771   3.149  13.440  0.2275  0.5447 -0.4659
   94MPD1    N1 1806   4.327   3.056  13.317  0.4387 -0.7465 -0.0046
   94MPD1    H6 1807   4.254   2.991  13.287  0.3344 -0.4622 -0.3695
   94MPD1    H7 1808   4.317   3.072  13.417  1.6518 -0.9722  0.1512
   95MPD1     C 1809   1.774   2.679   5.391  0.1694  0.3050  0.5519
   95MPD1    C1 1810   1.849   2.795   5.406  0.2608 -0.2786 -0.1342
   95MPD1    C2 1811   1.877   2.835   5.535 -0.3067  0.8805 -0.5790
   95MPD1    C3 1812   1.827   2.771   5.647  0.0267  0.5632  0.4102
   95MPD1    C4 1813   1.751   2.657   5.623  0.0520  0.1194 -0.2687
   95MPD1    C5 1814   1.731   2.610   5.499 -0.6568 -0.2784  0.2156
   95MPD1     H 1815   1.917   2.935   5.548  0.3516  0.8146 -2.1529
   95MPD1    H1 1816   1.705   2.596   5.701 -1.0871  0.0493 -0.9918
   95MPD1    H2 1817   1.753   2.641   5.292 -0.6358 -1.1297  1.2874
   95MPD1    H3 1818   1.668   2.523   5.479  0.1623 -0.9523  0.5787
   95MPD1     N 1819   1.843   2.820   5.778  0.2949  0.0454 -0.2598
   95MPD1    H5 1820   1.887   2.910   5.792 -1.2655  0.6566  0.7203
   95MPD1    N1 1821   1.862   2.890   5.301 -0.2918  0.1524  0.5560
   95MPD1    H6 1822   1.867   2.845   5.210  1.9705  0.3726  0.5718
   95MPD1    H7 1823   1.939   2.956   5.308 -0.8198  0.8703 -0.5032
   96MPD1     C 1824   1.162   2.919  14.095 -0.4149 -0.7037  0.5049
   96MPD1    C1 1825   1.086   2.974  14.000  0.5077  0.3460  0.9559
   96MPD1    C2 1826   1.142   2.996  13.868  0.1711 -0.0163 -0.7721
   96MPD1    C3 1827   1.278   2.985  13.847 -0.3940 -0.2227  0.2473
   96MPD1    C4 1828   1.351   2.940  13.953 -0.2508  0.5304  0.5968
   96MPD1    C5 1829   1.295   2.902  14.071  0.7923 -0.7166  0.2027
   96MPD1     H 1830   1.073   3.029  13.790 -2.3855  0.7375  1.8036
   96MPD1    H1 1831   1.458   2.925  13.948 -0.4479 -0.1165 -1.7138
   96MPD1    H2 1832   1.118   2.889  14.190 -0.6416  0.6016  0.8164
   96MPD1    H3 1833   1.359   2.860  14.148  0.7036 -1.3004 -0.0406
   96MPD1     N 1834   1.345   3.016  13.728  0.3023  0.4126 -0.2087
   96MPD1    H5 1835   1.446   3.007  13.724  0.4251  2.2129 -0.9783
   96MPD1    N1 1836   0.948   2.974  14.023 -0.1356  0.0497  0.3500
   96MPD1    H6 1837   0.898   3.046  13.971  1.7075  1.0750 -0.0187
   96MPD1    H7 1838   0.921   2.979  14.121 -0.1391  0.7610  0.3121
   97MPD1     C 1839   1.610   1.678  11.512  0.1234  0.1934 -0.4423
   97MPD1    C1 1840   1.527   1.786  11.539 -0.0139  0.5355 -0.1896
   97MPD1    C2 1841   1.451   1.793  11.659  0.2530 -0.2313 -0.2955
   97MPD1    C3 1842   1.456   1.684  11.755  0.3694 -0.8020  0.2259
   97MPD1    C4 1843   1.540   1.575  11.717 -0.3750 -0.2124 -0.1025
   97MPD1    C5 1844   1.601   1.570  11.593  0.0778 -0.4750 -0.3485
   97MPD1     H 1845   1.399   1.885  11.679  2.7786  0.7690  1.6351
   97MPD1    H1 1846   1.558   1.483  11.771  1.3045  0.5161  0.5606
   97MPD1    H2 1847   1.665   1.673  11.418  0.7963 -0.2560 -0.0241
   97MPD1    H3 1848   1.666   1.488  11.567  0.3545 -0.1368 -0.7362
   97MPD1     N 1849   1.387   1.680  11.881 -0.1600  0.0974  0.6332
   97MPD1    H5 1850   1.421   1.618  11.953  1.1260  1.1635  0.9446
   97MPD1    N1 1851   1.555   1.904  11.468 -0.5488 -0.0094  0.7551
   97MPD1    H6 1852   1.470   1.956  11.446 -0.8176 -0.3749  0.9236
   97MPD1    H7 1853   1.606   1.887  11.382 -0.5400 -1.5908  1.0630
   98MPD1     C 1854   4.714   4.279  10.676 -0.8628  0.0734 -0.0812
   98MPD1    C1 1855   0.022   4.185  10.740 -0.0974  0.4011  0.4156
   98MPD1    C2 1856   0.088   4.091  10.657  0.5205  0.4021  0.4487
   98MPD1    C3 1857   0.080   4.084  10.520  0.0746  0.5561  0.9094
   98MPD1    C4 1858   0.008   4.184  10.462 -0.6967  0.3543  0.3623
   98MPD1    C5 1859   4.720   4.286  10.538 -0.4958  0.8426  0.3697
   98MPD1     H 1860   0.146   4.011  10.703 -0.6711 -1.7209 -1.7326
   98MPD1    H1 1861   4.770   4.197  10.355  1.9449 -1.4589 -0.2165
   98MPD1    H2 1862   4.649   4.348  10.729 -0.4403  0.2928  0.1530
   98MPD1    H3 1863   4.649   4.350  10.487 -0.8700  0.2970  0.2067
   98MPD1     N 1864   0.140   3.970  10.446 -0.2094 -0.1332  0.2819
   98MPD1    H5 1865   0.175   3.891  10.500  2.7135  2.0786  1.6193
   98MPD1    N1 1866   0.019   4.150  10.877  0.8323 -0.4266  0.0048
   98MPD1    H6 1867   0.004   4.225  10.943  2.0101  2.3244 -2.8815
   98MPD1    H7 1868   0.104   4.105  10.910  0.3391 -2.5512 -1.5991
   99MPD1     C 1869   2.727   4.594   6.189  0.0863 -0.6453  0.2143
   99MPD1    C1 1870   2.863   4.575   6.175  0.0571  0.1328 -0.5728
   99MPD1    C2 1871   2.942   4.657   6.252 -0.3732 -0.7559  0.1949
   99MPD1    C3 1872   2.897   4.738   6.355 -0.4109 -0.4925  0.4687
   99MPD1    C4 1873   2.765   4.750   6.365 -0.1635  0.2933  0.1703
   99MPD1    C5 1874   2.682   4.674   6.281 -0.3787  0.4221 -0.6452
   99MPD1     H 1875   3.050   4.653   6.239 -0.1981  0.7670  1.2712
   99MPD1    H1 1876   2.719   0.034   6.443 -0.0256  0.0964  0.4021
   99MPD1    H2 1877   2.666   4.536   6.120  0.7255  0.0973 -0.9833
   99MPD1    H3 1878   2.577   4.701   6.286 -0.8011 -1.1536 -1.0388
   99MPD1     N 1879   2.974   0.039   6.445 -0.6558  0.1569  0.0268
   99MPD1    H5 1880   2.930   0.114   6.498  0.8666  3.1775 -2.9963
   99MPD1    N1 1881   2.919   4.494   6.069 -0.4495  0.2106  0.0836
   99MPD1    H6 1882   2.854   4.415   6.068 -0.2601  0.0469  0.6989
   99MPD1    H7 1883   3.014   4.469   6.095 -0.0486  0.4923 -1.1204
  100MPD1     C 1884   4.391   4.710  15.006  0.1440 -0.1793 -0.4113
  100MPD1    C1 1885   4.261   4.678  15.040 -0.0466  0.5265 -0.8271
  100MPD1    C2 1886   4.208   4.566  14.974 -0.2909  0.0135 -0.4020
  100MPD1    C3 1887   4.274   4.503  14.877 -0.2984  0.1654  0.1978
  100MPD1    C4 1888   4.399   4.537  14.835  0.1164 -0.5820 -0.0853
  100MPD1    C5 1889   4.451   4.645  14.900  0.7558 -0.1811 -0.0844
  100MPD1     H 1890   4.111   4.526  15.002 -0.4302  0.1506 -0.6952
  100MPD1    H1 1891   4.461   4.485  14.763  0.3909 -0.5647  0.1427
  100MPD1    H2 1892   4.434   0.022  15.052  1.0336  0.1025 -1.7662
  100MPD1    H3 1893   4.551   4.687  14.888  0.6756  0.0626  0.1153
  100MPD1     N 1894   4.211   4.392  14.815 -0.0845  0.9765 -0.0273
  100MPD1    H5 1895   4.273   4.346  14.749 -1.1269 -0.1178 -0.2325
  100MPD1    N1 1896   4.195   4.732  15.146  0.3742  0.5225 -0.1896
  100MPD1    H6 1897   4.226   0.053  15.147 -0.1570  0.6597  2.2930
  100MPD1    H7 1898   4.095   4.718  15.132  0.2474  1.2546 -0.0024
  101MPD1     C 1899   4.655   4.492   5.702  0.3738  0.9701  0.5529
  101MPD1    C1 1900   4.519   4.517   5.731 -0.0382  0.7572 -0.4721
  101MPD1    C2 1901   4.482   4.532   5.864 -0.2887  0.4585  0.2186
  101MPD1    C3 1902   4.577   4.516   5.958 -0.2391 -0.4311 -0.0950
  101MPD1    C4 1903   4.718   4.506   5.931  0.3610 -0.1095  0.4866
  101MPD1    C5 1904   4.757   4.502   5.796  0.1936  0.6129 -0.1751
  101MPD1     H 1905   4.380   4.543   5.898 -0.4182  0.6971 -0.2459
  101MPD1    H1 1906   0.013   4.487   6.010 -0.1307 -0.8621  0.7556
  101MPD1    H2 1907   4.673   4.505   5.595  0.0282  1.4680  0.5537
  101MPD1    H3 1908   0.084   4.485   5.765  1.3645  0.0517  4.0029
  101MPD1     N 1909   4.528   4.512   6.094  0.5077  0.1584 -0.5247
  101MPD1    H5 1910   4.427   4.509   6.099  0.4176  1.5771 -1.6254
  101MPD1    N1 1911   4.420   4.509   5.633  0.6442 -0.2230  0.1000
  101MPD1    H6 1912   4.335   4.564   5.648  1.5422  0.9260  0.9534
  101MPD1    H7 1913   4.453   4.532   5.539  0.5804 -0.5011  0.0107
  102MPD1     C 1914   2.283   2.745   6.321  0.1213 -0.0479  0.2570
  102MPD1    C1 1915   2.210   2.769   6.204 -1.1892  0.2027  0.1977
  102MPD1    C2 1916   2.178   2.903   6.178 -0.5362  0.8338 -0.0146
  102MPD1    C3 1917   2.240   3.002   6.242  0.4685  0.0788  0.5529
  102MPD1    C4 1918   2.333   2.973   6.340 -0.0515 -0.1234  0.0100
  102MPD1    C5 1919   2.348   2.848   6.379 -0.5575 -0.3067  0.2813
  102MPD1     H 1920   2.122   2.928   6.088  1.5440  1.7466 -1.0711
  102MPD1    H1 1921   2.394   3.049   6.387 -0.4362  0.3465 -0.2560
  102MPD1    H2 1922   2.315   2.651   6.364  0.9994  0.0560 -0.1725
  102MPD1    H3 1923   2.428   2.832   6.451  1.5881  0.6414 -1.9141
  102MPD1     N 1924   2.209   3.137   6.209 -0.3154  1.0402  0.7841
  102MPD1    H5 1925   2.260   3.210   6.257  1.7790  0.9378 -1.2893
  102MPD1    N1 1926   2.137   2.667   6.139 -0.3652  0.9733 -0.5037
  102MPD1    H6 1927   2.128   2.690   6.040 -0.6460  0.8901 -0.4972
  102MPD1    H7 1928   2.177   2.574   6.148 -0.9928  0.5537 -2.0668
  103MPD1     C 1929   1.419   3.844   6.298  0.0624 -0.6756 -0.8660
  103MPD1    C1 1930   1.543   3.914   6.297 -0.3594 -0.0314  0.6056
  103MPD1    C2 1931   1.663   3.848   6.258 -0.1076  0.0416 -0.6546
  103MPD1    C3 1932   1.652   3.715   6.221  0.5162 -0.2991  0.2078
  103MPD1    C4 1933   1.533   3.646   6.221 -0.3583 -0.1565 -0.2681
  103MPD1    C5 1934   1.420   3.709   6.264 -0.5378  0.5283  0.0633
  103MPD1     H 1935   1.759   3.898   6.257  1.1811 -2.3265  1.4216
  103MPD1    H1 1936   1.529   3.541   6.196  1.5416 -0.5475  1.1378
  103MPD1    H2 1937   1.324   3.892   6.318 -0.5876 -1.1129 -2.9648
  103MPD1    H3 1938   1.321   3.665   6.275 -0.6608  0.1179 -2.4969
  103MPD1     N 1939   1.774   3.660   6.197  0.0019 -0.4877 -0.7790
  103MPD1    H5 1940   1.857   3.710   6.228 -1.4655  0.3692  1.7592
  103MPD1    N1 1941   1.549   4.046   6.340 -0.0447  0.1344  0.3037
  103MPD1    H6 1942   1.631   4.107   6.338 -1.0798  1.5124 -0.0930
  103MPD1    H7 1943   1.461   4.097   6.336 -0.2632 -0.1963  0.8121
  104MPD1     C 1944   2.111   1.292  12.227  0.8436  0.1389  0.8512
  104MPD1    C1 1945   2.178   1.345  12.332 -0.4744  0.0948  0.4085
  104MPD1    C2 1946   2.133   1.455  12.400  0.1236 -0.3605  0.2688
  104MPD1    C3 1947   2.000   1.486  12.398  0.0975  0.1697 -0.1213
  104MPD1    C4 1948   1.924   1.407  12.316  0.1435  0.6817 -0.7504
  104MPD1    C5 1949   1.985   1.331  12.222 -0.0482 -0.5886  0.7022
  104MPD1     H 1950   2.201   1.509  12.464 -1.9394  2.0229  0.4433
  104MPD1    H1 1951   1.820   1.435  12.311  0.4962  2.0444 -0.3305
  104MPD1    H2 1952   2.159   1.223  12.159  1.3889 -0.4237  1.8091
  104MPD1    H3 1953   1.926   1.285  12.144  0.7114  1.0920 -0.8625
  104MPD1     N 1954   1.934   1.592  12.468 -0.6975  0.8554  0.5878
  104MPD1    H5 1955   1.833   1.588  12.477 -0.6810 -1.7276 -0.3826
  104MPD1    N1 1956   2.311   1.306  12.347 -0.6481 -0.5644  0.1638
  104MPD1    H6 1957   2.318   1.205  12.337  0.0959 -0.4846 -0.1092
  104MPD1    H7 1958   2.346   1.335  12.438 -2.4534  0.0900  0.6363
  105MPD1     C 1959   0.410   3.944  14.079  0.2354 -0.1258  0.0846
  105MPD1    C1 1960   0.410   3.825  14.010  0.9455  0.2331 -0.0825
  105MPD1    C2 1961   0.477   3.811  13.887 -0.2719  0.8323  0.1104
  105MPD1    C3 1962   0.540   3.925  13.831  0.5370 -0.2884 -0.2326
  105MPD1    C4 1963   0.534   4.047  13.906 -0.7816  0.1285 -0.2440
  105MPD1    C5 1964   0.479   4.053  14.032 -0.4477 -0.6331  0.5695
  105MPD1     H 1965   0.468   3.714  13.840  0.0459  0.3244  1.0892
  105MPD1    H1 1966   0.591   4.134  13.875  0.0977 -0.3616  0.0083
  105MPD1    H2 1967   0.360   3.963  14.174  1.2878  0.5413  0.5152
  105MPD1    H3 1968   0.490   4.143  14.092  0.4753  0.3929 -1.1305
  105MPD1     N 1969   0.588   3.935  13.696  0.1092 -0.4338 -0.0346
  105MPD1    H5 1970   0.607   4.028  13.660  1.2577 -1.1275 -1.2113
  105MPD1    N1 1971   0.327   3.716  14.057 -0.5713  0.1520 -0.2789
  105MPD1    H6 1972   0.337   3.626  14.011  1.9287 -0.4238  1.4019
  105MPD1    H7 1973   0.334   3.704  14.158  0.6837  1.6585 -0.1783
  106MPD1     C 1974   4.619   3.745   6.086 -0.2607 -1.0506 -0.1116
  106MPD1    C1 1975   4.669   3.738   6.211  0.3867  0.3319 -0.5973
  106MPD1    C2 1976   0.007   3.668   6.236 -0.5055 -0.6860 -0.1118
  106MPD1    C3 1977   0.072   3.600   6.130  0.2127  0.8630  0.4401
  106MPD1    C4 1978   0.016   3.603   6.001 -0.4650  0.2119  0.6261
  106MPD1    C5 1979   4.679   3.686   5.982 -0.4174  0.3175  0.0420
  106MPD1     H 1980   0.050   3.667   6.335 -1.4046 -1.1672  0.2704
  106MPD1    H1 1981   0.070   3.574   5.912 -1.2500 -1.9151  0.8518
  106MPD1    H2 1982   4.540   3.817   6.069  1.4350  0.4485 -1.6062
  106MPD1    H3 1983   4.648   3.701   5.879 -0.1059 -2.6294 -0.4782
  106MPD1     N 1984   0.200   3.554   6.135  0.3548  0.6982  0.2685
  106MPD1    H5 1985   0.240   3.525   6.046 -1.4081  0.3667 -0.4135
  106MPD1    N1 1986   4.616   3.817   6.321 -0.0545  0.5991 -0.1757
  106MPD1    H6 1987   4.641   3.782   6.413 -3.9891 -1.7721  0.0295
  106MPD1    H7 1988   4.514   3.815   6.316 -0.0424  2.4182 -1.1954
  107MPD1     C 1989   2.864   4.754  14.294  0.3481  0.5925 -0.2129
  107MPD1    C1 1990   2.874   0.117  14.299 -0.7057 -0.3239 -0.4149
  107MPD1    C2 1991   2.757   0.185  14.279  0.4101  0.0139  0.1342
  107MPD1    C3 1992   2.647   0.119  14.230 -0.5082  0.4568  0.4061
  107MPD1    C4 1993   2.647   4.758  14.209 -0.0271  0.5190  0.8224
  107MPD1    C5 1994   2.754   4.682  14.251 -0.3556 -0.3771 -1.2542
  107MPD1     H 1995   2.763   0.290  14.303  1.4064 -0.0177  0.0245
  107MPD1    H1 1996   2.567   4.707  14.157  1.6927 -0.4097 -0.9263
  107MPD1    H2 1997   2.952   4.693  14.312  0.0220 -0.1407 -1.0783
  107MPD1    H3 1998   2.755   4.574  14.249  1.3267 -0.3627 -1.1514
  107MPD1     N 1999   2.536   0.202  14.203 -0.0160  0.0030 -0.2213
  107MPD1    H5 2000   2.542   0.301  14.222 -2.9782  0.5132 -1.9797
  107MPD1    N1 2001   2.980   0.183  14.357  0.0059  0.1179  0.2016
  107MPD1    H6 2002   2.994   0.283  14.343 -1.0735  0.2271 -0.0332
  107MPD1    H7 2003   3.069   0.135  14.340  0.3040 -0.4909  3.4423
  108MPD1     C 2004   0.952   3.421  11.186 -0.4478  0.1514 -0.3239
  108MPD1    C1 2005   1.089   3.405  11.184  0.2156  0.2421  0.0348
  108MPD1    C2 2006   1.149   3.360  11.301 -0.1853  0.2897  0.2475
  108MPD1    C3 2007   1.076   3.328  11.417  0.5967 -0.5211  0.2035
  108MPD1    C4 2008   0.937   3.341  11.414 -0.3366  0.7385  0.7089
  108MPD1    C5 2009   0.884   3.395  11.299  0.0015  0.3618 -0.2915
  108MPD1     H 2010   1.255   3.341  11.307 -0.1178  0.1929 -1.1528
  108MPD1    H1 2011   0.881   3.308  11.501 -2.4707 -0.8357 -1.2601
  108MPD1    H2 2012   0.899   3.438  11.093 -1.2308 -4.0574 -0.6540
  108MPD1    H3 2013   0.779   3.415  11.281  0.0961  2.0023  1.0837
  108MPD1     N 2014   1.135   3.278  11.539 -0.8176 -0.2640 -0.5616
  108MPD1    H5 2015   1.074   3.247  11.614 -0.0198 -1.6546 -0.4814
  108MPD1    N1 2016   1.163   3.400  11.062  0.0884  0.0686  0.1585
  108MPD1    H6 2017   1.264   3.402  11.075  0.4069  0.3989 -2.2717
  108MPD1    H7 2018   1.146   3.474  10.995  1.6655  1.2599  1.0699
  109MPD1     C 2019   0.902   1.229   9.491  1.2333  0.3159  0.6593
  109MPD1    C1 2020   0.791   1.295   9.435 -0.2115  0.0421  0.4067
  109MPD1    C2 2021   0.796   1.339   9.304  0.0501  0.5197 -0.2521
  109MPD1    C3 2022   0.916   1.326   9.233 -0.2737 -0.0160  0.2801
  109MPD1    C4 2023   1.026   1.263   9.283 -0.0757  0.3246  1.1110
  109MPD1    C5 2024   1.013   1.219   9.410 -0.6123  0.4868  0.0027
  109MPD1     H 2025   0.702   1.377   9.267  0.1596  3.0531  2.1072
  109MPD1    H1 2026   1.121   1.250   9.232  0.4358  0.0632  2.1182
  109MPD1    H2 2027   0.916   1.183   9.588  0.7473 -1.9098 -0.3235
  109MPD1    H3 2028   1.103   1.173   9.449 -0.5606 -0.0946 -0.8170
  109MPD1     N 2029   0.913   1.369   9.094 -0.0004  0.1383 -0.1507
  109MPD1    H5 2030   0.824   1.402   9.057  0.6178  0.3375 -1.4569
  109MPD1    N1 2031   0.672   1.304   9.504  0.3571  0.6231  0.3030
  109MPD1    H6 2032   0.675   1.258   9.594  0.4905 -2.2430 -1.1908
  109MPD1    H7 2033   0.643   1.402   9.509 -0.8517  0.2110  1.4454
  110MPD1     C 2034   0.256   1.267   8.407 -0.4176 -0.6799  0.7073
  110MPD1    C1 2035   0.269   1.246   8.543 -0.1375 -0.3823  0.2733
  110MPD1    C2 2036   0.401   1.241   8.599  0.4120 -0.0525 -0.3397
  110MPD1    C3 2037   0.503   1.298   8.516  0.0661  0.6610  0.2177
  110MPD1    C4 2038   0.476   1.336   8.389  0.8464  0.9628  0.1583
  110MPD1    C5 2039   0.350   1.324   8.335  0.5829  0.2115  0.6192
  110MPD1     H 2040   0.396   1.209   8.702  1.9630  0.5519 -0.0746
  110MPD1    H1 2041   0.555   1.384   8.331 -0.0342 -0.0974 -1.9306
  110MPD1    H2 2042   0.161   1.254   8.358 -0.7352  1.4655  0.7664
  110MPD1    H3 2043   0.329   1.362   8.235 -0.7309  1.4243  1.3560
  110MPD1     N 2044   0.638   1.307   8.559  0.4046  0.3147  0.5524
  110MPD1    H5 2045   0.701   1.360   8.500  1.4533 -1.2897  0.2299
  110MPD1    N1 2046   0.161   1.178   8.608  0.0484 -0.4959  0.5329
  110MPD1    H6 2047   0.069   1.198   8.569  0.7704  1.7863 -0.0034
  110MPD1    H7 2048   0.166   1.215   8.702 -2.2604 -1.0490  0.8675
  111MPD1     C 2049   4.336   0.479  12.557  0.6777  0.6434 -0.2149
  111MPD1    C1 2050   4.321   0.481  12.693 -0.6196  0.4127 -0.0503
  111MPD1    C2 2051   4.425   0.527  12.767  0.2521 -0.3242  0.7453
  111MPD1    C3 2052   4.548   0.557  12.710 -0.1976  0.3078 -0.4420
  111MPD1    C4 2053   4.563   0.528  12.579 -0.6384 -0.2605 -0.0026
  111MPD1    C5 2054   4.459   0.496  12.505  0.3373 -0.3238  0.0692
  111MPD1     H 2055   4.409   0.534  12.874  2.6768  2.6218  0.9108
  111MPD1    H1 2056   4.652   0.560  12.525 -2.0590  0.3254 -2.0108
  111MPD1    H2 2057   4.261   0.435  12.493  1.4673 -0.5248 -0.3449
  111MPD1    H3 2058   4.479   0.483  12.399  0.2524 -0.4937  0.0730
  111MPD1     N 2059   4.651   0.630  12.768 -0.4762  1.2780 -0.2948
  111MPD1    H5 2060   4.733   0.631  12.708  1.7882 -0.3332  2.7047
  111MPD1    N1 2061   4.191   0.459  12.742 -0.2089 -1.1017  0.5547
  111MPD1    H6 2062   4.192   0.416  12.834 -0.9253 -0.2347  0.9695
  111MPD1    H7 2063   4.139   0.389  12.689 -1.2156 -0.5294  0.7836
  112MPD1     C 2064   2.582   3.146  15.214 -0.3281  0.0115 -0.3129
  112MPD1    C1 2065   2.663   3.185  15.113 -0.0729 -0.2604 -0.0855
  112MPD1    C2 2066   2.725   3.092  15.032 -0.6212 -1.0549  0.1616
  112MPD1    C3 2067   2.733   2.967  15.092  0.3641  0.1491 -0.1069
  112MPD1    C4 2068   2.672   2.926  15.205  0.4004 -0.1367  0.2180
  112MPD1    C5 2069   2.587   3.016  15.257  0.1349  0.0143  0.0197
  112MPD1     H 2070   2.770   3.124  14.939 -1.9871 -0.0206 -0.1491
  112MPD1    H1 2071   2.669   2.828  15.252 -0.8907 -0.3310 -0.2706
  112MPD1    H2 2072   2.523   3.221  15.265  0.1084  0.4501 -0.4592
  112MPD1    H3 2073   2.529   2.980  15.340  0.2733 -2.7785 -1.0920
  112MPD1     N 2074   2.798   2.863  15.017 -0.1489  0.3182 -0.3247
  112MPD1    H5 2075   2.821   2.781  15.073 -1.6962 -0.5906 -1.0447
  112MPD1    N1 2076   2.641   3.317  15.082 -0.0304  0.1161  0.3778
  112MPD1    H6 2077   2.638   3.386  15.156 -0.0429  1.9868 -1.3934
  112MPD1    H7 2078   2.708   3.354  15.015 -1.4168  0.8371 -0.6058
  113MPD1     C 2079   4.588   4.744  14.567 -0.2730  0.3991 -0.0474
  113MPD1    C1 2080   4.546   4.711  14.435  0.5012 -0.2144 -0.4116
  113MPD1    C2 2081   4.582   4.596  14.378  0.4367 -0.4101 -0.4529
  113MPD1    C3 2082   4.670   4.510  14.441 -0.1447  0.3335 -0.3419
  113MPD1    C4 2083   4.728   4.551  14.566  0.9107 -0.3131 -0.9160
  113MPD1    C5 2084   4.690   4.671  14.623 -0.8204  0.1833 -0.4392
  113MPD1     H 2085   4.529   4.555  14.292  0.4307  0.4615 -0.8631
  113MPD1    H1 2086   0.031   4.493  14.612  0.0708  0.8409  1.9190
  113MPD1    H2 2087   4.547   0.056  14.614  0.6569  0.5939  0.3893
  113MPD1    H3 2088   4.733   4.710  14.715  0.1564 -2.1297  0.1003
  113MPD1     N 2089   4.713   4.390  14.384  0.0832 -0.4284 -0.0374
  113MPD1    H5 2090   4.768   4.324  14.438  0.9671 -1.5107 -2.2293
  113MPD1    N1 2091   4.442   0.009  14.378  0.7791 -0.3702  0.2980
  113MPD1    H6 2092   4.455   0.107  14.401  1.5895 -0.1745 -0.9681
  113MPD1    H7 2093   4.431   0.001  14.277  1.8862  1.3532  0.0304
  114MPD1     C 2094   4.184   2.776  14.544 -0.6375  0.5883  0.8146
  114MPD1    C1 2095   4.221   2.788  14.676  0.4555 -0.3316  0.0100
  114MPD1    C2 2096   4.195   2.912  14.743  0.2973  0.5720 -0.4891
  114MPD1    C3 2097   4.121   3.009  14.682  0.0315  0.0450  0.9448
  114MPD1    C4 2098   4.084   2.986  14.549  0.1746  0.2252  0.7112
  114MPD1    C5 2099   4.114   2.871  14.483 -0.0030  0.0510  0.3759
  114MPD1     H 2100   4.227   2.922  14.846  1.6657 -0.3574 -0.8193
  114MPD1    H1 2101   4.017   3.057  14.501  2.4462  2.5983  0.9909
  114MPD1    H2 2102   4.206   2.687  14.486  0.1711  1.3985 -0.1111
  114MPD1    H3 2103   4.072   2.868  14.383 -2.3319  1.1465  1.3160
  114MPD1     N 2104   4.086   3.133  14.741 -0.0885 -0.3720 -0.1169
  114MPD1    H5 2105   4.032   3.202  14.691 -0.2988 -0.1227  0.4597
  114MPD1    N1 2106   4.282   2.682  14.746  0.4634  0.0952  0.3816
  114MPD1    H6 2107   4.334   2.620  14.684 -0.3756  0.7914 -1.0200
  114MPD1    H7 2108   4.342   2.718  14.820  3.4822 -0.3413 -1.8675
  115MPD1     C 2109   4.062   1.286  13.715 -0.9144 -0.0238  0.7834
  115MPD1    C1 2110   4.072   1.420  13.741  0.2135  0.0282  0.2919
  115MPD1    C2 2111   4.080   1.506  13.640  0.0594 -0.3045 -0.1588
  115MPD1    C3 2112   4.092   1.467  13.508 -0.7743 -0.4428  0.0436
  115MPD1    C4 2113   4.081   1.327  13.485 -0.5985  0.1454  0.1443
  115MPD1    C5 2114   4.055   1.238  13.585 -0.6778  0.4164 -0.3789
  115MPD1     H 2115   4.079   1.611  13.667  2.1109 -0.8252  1.9652
  115MPD1    H1 2116   4.089   1.299  13.381 -0.5051 -4.4589  1.4219
  115MPD1    H2 2117   4.053   1.212  13.793 -2.6879  1.6463  2.1757
  115MPD1    H3 2118   4.039   1.134  13.558 -1.7475  0.2129  1.0141
  115MPD1     N 2119   4.112   1.557  13.403  0.2178 -0.1899 -0.1840
  115MPD1    H5 2120   4.165   1.521  13.325  0.4333 -2.4703  1.0074
  115MPD1    N1 2121   4.053   1.453  13.873  0.7478 -0.3314 -0.6980
  115MPD1    H6 2122   4.089   1.394  13.948 -0.9105 -1.0626 -0.4628
  115MPD1    H7 2123   4.090   1.545  13.896 -0.9515  0.4516 -1.0769
  116MPD1     C 2124   1.158   4.684  10.691  0.0984 -0.3444  0.0607
  116MPD1    C1 2125   1.084   4.774  10.758  0.0589  0.0361  0.2621
  116MPD1    C2 2126   1.112   0.001  10.894 -0.0993  0.2097 -0.2420
  116MPD1    C3 2127   1.199   4.689  10.954 -0.2053 -0.5354 -0.9691
  116MPD1    C4 2128   1.272   4.601  10.880  0.2067 -0.3456 -0.4751
  116MPD1    C5 2129   1.245   4.598  10.750 -0.0081 -0.8038  0.1829
  116MPD1     H 2130   1.063   0.070  10.962 -0.5941 -1.1886  0.8104
  116MPD1    H1 2131   1.344   4.527  10.913  0.0775  0.6839  2.1094
  116MPD1    H2 2132   1.150   4.681  10.583  0.9561 -1.4197  0.0274
  116MPD1    H3 2133   1.297   4.529  10.684  0.9896 -0.3267  0.4812
  116MPD1     N 2134   1.209   4.701  11.094  0.0209  0.1387 -0.0722
  116MPD1    H5 2135   1.145   4.765  11.140  0.6284  1.3303 -0.8985
  116MPD1    N1 2136   1.020   0.099  10.681 -0.1975 -0.1481  0.1026
  116MPD1    H6 2137   0.946   0.148  10.730 -0.4593 -0.9675  0.5358
  116MPD1    H7 2138   0.994   0.067  10.588  2.0196  0.3107 -0.6627
  117MPD1     C 2139   3.075   0.394   5.619 -0.2337  0.2100  0.6318
  117MPD1    C1 2140   2.962   0.330   5.570 -0.5109  0.5942 -0.2257
  117MPD1    C2 2141   2.840   0.378   5.618 -0.1218  0.5246  0.4932
  117MPD1    C3 2142   2.832   0.466   5.727 -0.7325  0.1210 -0.0738
  117MPD1    C4 2143   2.953   0.516   5.780 -0.0080 -0.3811  0.4396
  117MPD1    C5 2144   3.071   0.487   5.724  0.2981 -0.2468 -0.1843
  117MPD1     H 2145   2.751   0.346   5.565  0.2308  0.9305 -0.3454
  117MPD1    H1 2146   2.955   0.582   5.865 -0.1318 -0.6611  0.6634
  117MPD1    H2 2147   3.169   0.350   5.588 -0.7460 -1.4327  1.4053
  117MPD1    H3 2148   3.168   0.521   5.760 -0.7201  2.6370 -0.1589
  117MPD1     N 2149   2.712   0.498   5.788 -0.5378 -0.5591 -1.0268
  117MPD1    H5 2150   2.723   0.554   5.872  2.2014 -0.5312 -1.4137
  117MPD1    N1 2151   2.958   0.255   5.453 -0.4916 -0.1615 -0.3599
  117MPD1    H6 2152   2.884   0.187   5.467  0.5545 -1.4253 -0.9644
  117MPD1    H7 2153   3.049   0.211   5.437 -0.9592 -0.6396 -1.7390
  118MPD1     C 2154   1.210   1.211  11.029 -0.3925 -0.6219  0.6222
  118MPD1    C1 2155   1.267   1.233  10.901  0.4530 -0.1577  0.6537
  118MPD1    C2 2156   1.399   1.208  10.877 -0.6627  0.3832 -0.0895
  118MPD1    C3 2157   1.482   1.177  10.984  0.8345 -0.0609  0.4364
  118MPD1    C4 2158   1.430   1.159  11.115  0.2342 -1.0010  0.2640
  118MPD1    C5 2159   1.293   1.193  11.133  0.2504  0.4520  0.5589
  118MPD1     H 2160   1.448   1.219  10.780 -2.4012 -0.0423 -1.0163
  118MPD1    H1 2161   1.491   1.132  11.200  1.4446  0.5373 -0.1209
  118MPD1    H2 2162   1.104   1.224  11.050 -0.6623 -1.7760 -0.0313
  118MPD1    H3 2163   1.251   1.193  11.233 -0.1775 -0.7982  0.3788
  118MPD1     N 2164   1.609   1.124  10.946  0.1884 -0.3009  0.1398
  118MPD1    H5 2165   1.634   1.143  10.850 -0.2274 -0.0930  0.0706
  118MPD1    N1 2166   1.174   1.257  10.798  0.1232 -0.1388  0.1738
  118MPD1    H6 2167   1.088   1.300  10.830  0.7095  0.3250  1.1185
  118MPD1    H7 2168   1.208   1.312  10.719 -1.3562  1.1147  0.4047
  119MPD1     C 2169   4.165   4.753   9.049 -0.1120  0.1359 -0.1176
  119MPD1    C1 2170   4.258   0.070   9.092  0.1210  0.3106  0.2290
  119MPD1    C2 2171   4.383   0.020   9.130 -0.1056 -0.2611  0.1668
  119MPD1    C3 2172   4.402   4.655   9.142 -0.8081  0.2910  0.6675
  119MPD1    C4 2173   4.301   4.567   9.103 -0.4904  0.6424 -0.6523
  119MPD1    C5 2174   4.186   4.618   9.051 -0.6107 -0.3892 -0.2634
  119MPD1     H 2175   4.479   0.067   9.149 -0.4943  0.0733  1.2611
  119MPD1    H1 2176   4.305   4.460   9.122 -1.2890  0.6158 -0.5931
  119MPD1    H2 2177   4.068   0.009   9.012 -0.9451 -3.0047 -0.6941
  119MPD1    H3 2178   4.113   4.543   9.023 -0.5095 -0.8224  0.6308
  119MPD1     N 2179   4.526   4.609   9.194  0.0428  0.5812  0.0510
  119MPD1    H5 2180   4.592   4.679   9.228 -1.9568  2.7050 -0.4113
  119MPD1    N1 2181   4.244   0.207   9.064  0.0014 -0.2278  0.3928
  119MPD1    H6 2182   4.153   0.245   9.088  0.5483  2.5016 -1.8135
  119MPD1    H7 2183   4.318   0.262   9.108 -0.3472  0.0738  0.6083
  120MPD1     C 2184   3.122   3.532   5.852 -0.5363 -0.1785  0.6817
  120MPD1    C1 2185   3.125   3.605   5.968  0.0913  0.5568 -0.1702
  120MPD1    C2 2186   3.244   3.667   6.010 -0.4061  0.4185 -0.0935
  120MPD1    C3 2187   3.366   3.630   5.953  0.5574 -0.2993  0.0223
  120MPD1    C4 2188   3.356   3.546   5.841 -0.3273 -0.6853 -0.4224
  120MPD1    C5 2189   3.238   3.499   5.794 -0.2065  0.5875  0.1815
  120MPD1     H 2190   3.248   3.730   6.098 -1.3178  0.9208 -0.4011
  120MPD1    H1 2191   3.446   3.531   5.783 -0.0777  0.8677 -0.4266
  120MPD1    H2 2192   3.026   3.489   5.824 -1.2000  1.0041  1.1856
  120MPD1    H3 2193   3.232   3.435   5.706 -2.9353 -1.3732  1.7849
  120MPD1     N 2194   3.487   3.695   5.980  0.4814 -0.3044  0.3869
  120MPD1    H5 2195   3.567   3.662   5.928  0.0435  1.0915 -1.1855
  120MPD1    N1 2196   3.003   3.651   6.025  0.7773  0.5685 -0.1158
  120MPD1    H6 2197   3.011   3.680   6.122 -0.5733  0.8930 -0.0974
  120MPD1    H7 2198   2.938   3.573   6.014  0.3622  0.8445  0.3843
  121MPD1     C 2199   3.375   0.747   9.464  0.1242  0.0942 -0.1417
  121MPD1    C1 2200   3.317   0.686   9.358  0.1621  0.0691 -0.0430
  121MPD1    C2 2201   3.351   0.553   9.336 -0.2990  0.7829  1.1149
  121MPD1    C3 2202   3.442   0.486   9.416 -0.0381 -0.5661  0.5589
  121MPD1    C4 2203   3.497   0.555   9.516  0.3261 -0.1568 -0.1637
  121MPD1    C5 2204   3.469   0.680   9.542  0.0637 -0.1995  0.7034
  121MPD1     H 2205   3.302   0.488   9.264  1.9712  0.5790 -0.2607
  121MPD1    H1 2206   3.568   0.504   9.580  1.6837 -0.2335 -1.7233
  121MPD1    H2 2207   3.349   0.848   9.496 -0.1192  0.2375 -0.7808
  121MPD1    H3 2208   3.516   0.732   9.625  0.7646 -1.0680  0.8402
  121MPD1     N 2209   3.462   0.345   9.398 -0.5380  0.0100  0.6779
  121MPD1    H5 2210   3.392   0.282   9.362 -0.2076 -0.0115  0.0784
  121MPD1    N1 2211   3.237   0.762   9.273  0.1202  0.2513 -0.1892
  121MPD1    H6 2212   3.168   0.705   9.224  0.3358  1.0795 -1.4596
  121MPD1    H7 2213   3.188   0.838   9.319 -0.2729  0.1969 -0.5195
  122MPD1     C 2214   3.225   1.315  14.427  0.1456 -0.0049 -0.1860
  122MPD1    C1 2215   3.188   1.370  14.306  0.7503  0.0063 -0.8589
  122MPD1    C2 2216   3.116   1.291  14.217  0.2569  0.1890  0.5385
  122MPD1    C3 2217   3.111   1.155  14.237 -0.0731 -0.7371 -0.1183
  122MPD1    C4 2218   3.160   1.091  14.354 -0.3367  0.3319 -0.3241
  122MPD1    C5 2219   3.213   1.182  14.451  0.6288 -0.0706  0.0270
  122MPD1     H 2220   3.075   1.329  14.124 -1.0081  0.2528  1.1265
  122MPD1    H1 2221   3.145   0.986  14.376  1.0095  0.2468  0.2304
  122MPD1    H2 2222   3.279   1.380  14.495 -0.4051 -0.5855  0.8032
  122MPD1    H3 2223   3.242   1.147  14.550  0.0113  1.7104  0.8409
  122MPD1     N 2224   3.030   1.090  14.131  0.8237 -0.3694 -0.2536
  122MPD1    H5 2225   2.999   1.152  14.057 -1.2991 -2.0741 -0.7685
  122MPD1    N1 2226   3.215   1.504  14.270  0.3875  0.3309  0.3053
  122MPD1    H6 2227   3.298   1.541  14.315  0.1715  0.9335  0.2073
  122MPD1    H7 2228   3.211   1.516  14.169 -2.7929 -0.9158  0.2820
  123MPD1     C 2229   3.197   4.406  13.218 -0.3822 -0.2817 -0.0991
  123MPD1    C1 2230   3.205   4.365  13.351  0.6824 -0.8283  0.0171
  123MPD1    C2 2231   3.114   4.412  13.442 -0.0131  0.6435 -0.0108
  123MPD1    C3 2232   3.007   4.493  13.412 -0.0168  0.4240 -0.4127
  123MPD1    C4 2233   2.998   4.528  13.280  0.0613  0.0877  0.6959
  123MPD1    C5 2234   3.102   4.494  13.197 -0.4171  0.0663  0.1938
  123MPD1     H 2235   3.137   4.384  13.544 -1.1553  1.0803  0.3719
  123MPD1    H1 2236   2.918   4.591  13.245  0.1157  1.0909  2.3360
  123MPD1    H2 2237   3.277   4.393  13.145 -0.7399  1.8169 -0.8652
  123MPD1    H3 2238   3.098   4.528  13.094 -0.0213  3.8704  1.4145
  123MPD1     N 2239   2.917   4.555  13.507 -0.0675 -0.4577  0.1741
  123MPD1    H5 2240   2.841   4.593  13.453  0.3155  1.1532  0.7591
  123MPD1    N1 2241   3.314   4.282  13.388  0.2880  0.4789 -0.8075
  123MPD1    H6 2242   3.291   4.208  13.454  0.6719  1.4025  0.3700
  123MPD1    H7 2243   3.357   4.234  13.309 -0.8789 -2.2079  0.1929
  124MPD1     C 2244   3.699   2.903  12.173 -1.2106 -0.2117  0.0610
  124MPD1    C1 2245   3.599   2.990  12.214  0.7391 -0.3785 -0.1991
  124MPD1    C2 2246   3.500   2.939  12.291  0.0772 -0.0853 -0.3361
  124MPD1    C3 2247   3.503   2.805  12.330  0.6257  0.7108  0.6957
  124MPD1    C4 2248   3.602   2.719  12.278  0.5427  1.5737  0.5130
  124MPD1    C5 2249   3.700   2.775  12.207  0.4947 -0.1469 -0.3713
  124MPD1     H 2250   3.422   3.008  12.323 -1.1246 -1.7878  0.4015
  124MPD1    H1 2251   3.596   2.617  12.313  0.4396  1.4914  0.2516
  124MPD1    H2 2252   3.777   2.922  12.100 -2.0181 -0.7403 -0.9433
  124MPD1    H3 2253   3.782   2.714  12.171 -0.7696 -2.8238  1.3442
  124MPD1     N 2254   3.397   2.745  12.404  0.1940  0.2319 -0.2922
  124MPD1    H5 2255   3.406   2.649  12.437  2.3447 -0.0336 -1.6395
  124MPD1    N1 2256   3.590   3.120  12.161 -0.3057 -0.2039 -0.2280
  124MPD1    H6 2257   3.678   3.164  12.134 -0.4149  0.1793  0.0337
  124MPD1    H7 2258   3.567   3.184  12.237  0.1669 -0.2202 -0.0685
  125MPD1     C 2259   0.789   4.277   6.902 -0.5834 -0.2645 -0.9774
  125MPD1    C1 2260   0.802   4.365   6.801  0.3111  0.3265  0.4148
  125MPD1    C2 2261   0.825   4.492   6.832 -0.1467  0.5575 -0.7170
  125MPD1    C3 2262   0.795   4.546   6.954  0.2873  0.0144 -0.4686
  125MPD1    C4 2263   0.770   4.458   7.059  0.3663 -0.9285  0.0073
  125MPD1    C5 2264   0.780   4.324   7.031 -0.2690 -0.6141  0.5058
  125MPD1     H 2265   0.841   4.560   6.749 -1.2684 -0.3682 -1.6846
  125MPD1    H1 2266   0.745   4.479   7.163 -1.1335  0.3522 -0.6220
  125MPD1    H2 2267   0.776   4.171   6.885  1.2983 -0.5632 -0.5797
  125MPD1    H3 2268   0.757   4.253   7.110  0.0217 -0.2429  0.9248
  125MPD1     N 2269   0.823   4.679   7.000  0.3208 -0.9986  0.1352
  125MPD1    H5 2270   0.797   4.700   7.096 -3.3030  1.1030 -1.3075
  125MPD1    N1 2271   0.825   4.320   6.667 -0.3584 -0.1071 -0.2697
  125MPD1    H6 2272   0.809   4.395   6.600  1.2890  0.8653  0.4196
  125MPD1    H7 2273   0.772   4.235   6.650 -0.4764 -0.1638  0.3651
  126MPD1     C 2274   3.304   2.936  14.232  0.4580  0.3784  0.1952
  126MPD1    C1 2275   3.385   3.002  14.329  0.4778  0.1701 -0.1381
  126MPD1    C2 2276   3.352   3.135  14.359 -0.0111  0.3389 -0.1389
  126MPD1    C3 2277   3.253   3.203  14.281  0.5739  0.2816 -0.2991
  126MPD1    C4 2278   3.197   3.143  14.173 -0.3010 -0.4642  0.1525
  126MPD1    C5 2279   3.217   3.006  14.151 -0.5184  0.8466 -0.0849
  126MPD1     H 2280   3.395   3.179  14.448  0.6886 -1.2569  0.3072
  126MPD1    H1 2281   3.131   3.188  14.100  0.4829 -3.1105 -2.1575
  126MPD1    H2 2282   3.306   2.828  14.226  0.9103  0.3412  0.9449
  126MPD1    H3 2283   3.163   2.955  14.073 -1.0076 -0.5590  1.1615
  126MPD1     N 2284   3.218   3.336  14.315 -0.2507 -0.2255  0.3835
  126MPD1    H5 2285   3.283   3.376  14.382  2.2335 -2.1136 -0.9537
  126MPD1    N1 2286   3.460   2.929  14.423 -0.1608 -0.0668  0.4818
  126MPD1    H6 2287   3.523   2.972  14.490 -1.6017  1.9933  0.5054
  126MPD1    H7 2288   3.501   2.840  14.396  1.8293  0.4346  1.8633
  127MPD1     C 2289   0.260   0.436   8.489  0.1162 -0.5370 -0.2920
  127MPD1    C1 2290   0.380   0.489   8.525  0.4839  0.1637  0.0554
  127MPD1    C2 2291   0.458   0.542   8.426  0.5759 -0.4586  0.7077
  127MPD1    C3 2292   0.418   0.556   8.297  0.4239 -0.0842  0.0643
  127MPD1    C4 2293   0.285   0.538   8.271  0.7642 -0.0156 -0.5286
  127MPD1    C5 2294   0.207   0.474   8.366  0.6039  0.2233 -0.1444
  127MPD1     H 2295   0.562   0.563   8.444  1.1547 -1.1839 -1.7583
  127MPD1    H1 2296   0.245   0.560   8.172 -0.5067 -0.4845 -0.1230
  127MPD1    H2 2297   0.191   0.385   8.554 -0.8203  1.3544  0.2140
  127MPD1    H3 2298   0.107   0.440   8.343  0.1340  2.6129 -1.5940
  127MPD1     N 2299   0.495   0.616   8.194 -0.6831  0.4727  0.4704
  127MPD1    H5 2300   0.443   0.633   8.109  0.1534 -0.5752 -0.2595
  127MPD1    N1 2301   0.427   0.466   8.654  0.5680 -1.1482 -0.6352
  127MPD1    H6 2302   0.484   0.539   8.697 -0.6993 -1.0527  0.9117
  127MPD1    H7 2303   0.348   0.464   8.718  0.5313 -0.2434 -0.6407
  128MPD1     C 2304   1.408   1.048   7.783  0.3411 -0.5021  0.7994
  128MPD1    C1 2305   1.348   1.057   7.910  0.7537 -0.1348  0.5419
  128MPD1    C2 2306   1.228   0.998   7.932  0.1120  0.0311  0.5035
  128MPD1    C3 2307   1.166   0.938   7.828 -1.0225  0.4900  0.6463
  128MPD1    C4 2308   1.216   0.935   7.698  0.3821 -0.6971  0.7454
  128MPD1    C5 2309   1.339   0.989   7.677 -0.5120 -0.4330  0.9489
  128MPD1     H 2310   1.180   0.996   8.029 -3.4512 -0.9905 -1.2409
  128MPD1    H1 2311   1.157   0.892   7.617 -1.0925  1.5047  0.6507
  128MPD1    H2 2312   1.511   1.079   7.766 -0.0147 -0.5095 -1.3269
  128MPD1    H3 2313   1.393   0.992   7.583 -1.0326  0.9502  0.6944
  128MPD1     N 2314   1.046   0.861   7.848 -0.5079  0.2007  0.7201
  128MPD1    H5 2315   0.993   0.844   7.764  0.2972  2.2348 -0.2000
  128MPD1    N1 2316   1.418   1.114   8.019 -0.1365 -0.8118  0.2511
  128MPD1    H6 2317   1.349   1.167   8.072  2.1893  0.9083  1.5599
  128MPD1    H7 2318   1.470   1.189   7.974 -1.4301  0.5671  1.0826
  129MPD1     C 2319   2.880   3.615  13.502  0.2541  0.1829  0.2947
  129MPD1    C1 2320   2.741   3.611  13.523  0.4993  0.5727 -0.5735
  129MPD1    C2 2321   2.674   3.731  13.510 -0.5484  0.0324  0.2357
  129MPD1    C3 2322   2.733   3.849  13.485  0.0406 -0.8374 -0.5103
  129MPD1    C4 2323   2.873   3.859  13.466  0.6195  0.3030 -0.3552
  129MPD1    C5 2324   2.938   3.738  13.485 -0.1207  0.0903 -0.6875
  129MPD1     H 2325   2.567   3.723  13.496 -0.4378 -0.3990 -0.3400
  129MPD1    H1 2326   2.927   3.942  13.423 -3.3095  1.5665 -2.8681
  129MPD1    H2 2327   2.947   3.530  13.506  0.7650  0.6720  2.5217
  129MPD1    H3 2328   3.046   3.739  13.475 -0.0244  0.8754  0.4048
  129MPD1     N 2329   2.647   3.960  13.463 -0.3319 -0.0392 -0.7044
  129MPD1    H5 2330   2.546   3.948  13.466 -0.4727  0.5364 -2.9305
  129MPD1    N1 2331   2.676   3.491  13.545  0.3454  0.3161 -0.6081
  129MPD1    H6 2332   2.745   3.421  13.571  0.2646  0.9584  1.3312
  129MPD1    H7 2333   2.599   3.493  13.611 -0.7314  0.4350 -1.8619
  130MPD1     C 2334   1.630   3.308  12.563  0.3884 -0.2656 -0.0820
  130MPD1    C1 2335   1.757   3.269  12.589  0.1645  0.1576  0.3728
  130MPD1    C2 2336   1.783   3.173  12.685 -0.2303 -0.4437  0.8066
  130MPD1    C3 2337   1.673   3.123  12.762 -0.2452  0.2437  0.4382
  130MPD1    C4 2338   1.546   3.163  12.730 -0.7366  0.4526 -0.2817
  130MPD1    C5 2339   1.528   3.255  12.642  0.4466 -0.1813 -0.8145
  130MPD1     H 2340   1.886   3.144  12.702  0.6039  1.1841 -1.5015
  130MPD1    H1 2341   1.460   3.116  12.776 -0.9233 -0.5550 -1.6609
  130MPD1    H2 2342   1.605   3.367  12.475  0.4845  3.5176  2.4573
  130MPD1    H3 2343   1.424   3.280  12.622  0.3470  1.0321  1.2066
  130MPD1     N 2344   1.684   3.030  12.865 -0.0003  0.0374 -0.7002
  130MPD1    H5 2345   1.600   3.010  12.919  1.9448 -1.6041  1.7251
  130MPD1    N1 2346   1.864   3.323  12.518 -0.7963 -0.2464 -0.0161
  130MPD1    H6 2347   1.849   3.418  12.486  0.9756 -0.1523 -0.6070
  130MPD1    H7 2348   1.951   3.334  12.571  0.1682  1.9522 -2.0708
  131MPD1     C 2349   4.486   3.337  11.309  0.4172  0.0777 -0.4473
  131MPD1    C1 2350   4.435   3.422  11.212 -0.5636 -0.2972  0.0757
  131MPD1    C2 2351   4.502   3.549  11.209  0.7128  0.4675  0.4086
  131MPD1    C3 2352   4.578   3.594  11.311 -0.0495  0.1009 -0.3140
  131MPD1    C4 2353   4.601   3.509  11.420  0.1393 -0.1728  0.3610
  131MPD1    C5 2354   4.559   3.380  11.416  0.0749  0.5423 -0.4816
  131MPD1     H 2355   4.474   3.625  11.136  1.1939 -0.0351 -0.3012
  131MPD1    H1 2356   4.654   3.554  11.504  0.8547 -0.9879  0.3447
  131MPD1    H2 2357   4.476   3.230  11.299 -2.2548  0.1561  1.3720
  131MPD1    H3 2358   4.597   3.316  11.494 -0.8354  0.8451  0.2080
  131MPD1     N 2359   4.640   3.721  11.303  0.5554  0.2794  0.0755
  131MPD1    H5 2360   4.620   3.777  11.221 -0.7165 -1.0303 -0.5059
  131MPD1    N1 2361   4.357   3.380  11.099  0.1204 -0.0083  0.5667
  131MPD1    H6 2362   4.320   3.461  11.050  3.8074  1.7607  0.7101
  131MPD1    H7 2363   4.288   3.310  11.123  2.5911 -1.8280  2.3140
  132MPD1     C 2364   4.251   4.203  10.851  0.4937 -0.0625  0.4664
  132MPD1    C1 2365   4.347   4.303  10.857 -0.6470  0.2609 -0.0848
  132MPD1    C2 2366   4.459   4.266  10.937 -0.7295  0.3019  0.3254
  132MPD1    C3 2367   4.463   4.149  11.010 -0.0754 -0.4067  0.1408
  132MPD1    C4 2368   4.362   4.056  11.002  0.3608 -0.1332  0.5943
  132MPD1    C5 2369   4.255   4.086  10.920  0.7240  0.5307 -0.3476
  132MPD1     H 2370   4.536   4.341  10.953 -1.6776  1.4989 -0.7318
  132MPD1    H1 2371   4.378   3.963  11.054  0.4746 -1.1252 -1.2076
  132MPD1    H2 2372   4.168   4.209  10.782  1.5531  1.4066 -0.6715
  132MPD1    H3 2373   4.177   4.012  10.906  0.8230  0.7647 -2.0415
  132MPD1     N 2374   4.563   4.117  11.102  0.5896 -0.4426 -0.1660
  132MPD1    H5 2375   4.561   4.020  11.131  1.9202 -0.1593  0.8773
  132MPD1    N1 2376   4.337   4.415  10.774  0.3909  0.5543 -0.4289
  132MPD1    H6 2377   4.240   4.442  10.762 -0.2106 -1.2768  0.2464
  132MPD1    H7 2378   4.382   4.486  10.831  1.0913 -0.7617  0.6766
  133MPD1     C 2379   3.947   4.144   7.388 -0.3279 -0.3153 -0.0247
  133MPD1    C1 2380   3.955   4.248   7.473 -0.4977 -0.3234 -0.6522
  133MPD1    C2 2381   4.084   4.284   7.515 -0.4764 -0.0054 -0.2113
  133MPD1    C3 2382   4.196   4.227   7.461  0.3396 -0.0528 -0.9748
  133MPD1    C4 2383   4.183   4.126   7.364 -0.2715  0.3515  0.6433
  133MPD1    C5 2384   4.061   4.084   7.336 -0.2149 -0.3846 -0.3195
  133MPD1     H 2385   4.096   4.363   7.588 -1.0118 -1.0075  0.9648
  133MPD1    H1 2386   4.265   4.088   7.305  0.1322  1.3550  0.5665
  133MPD1    H2 2387   3.855   4.103   7.348  0.1059 -0.8011 -0.5383
  133MPD1    H3 2388   4.048   4.001   7.268 -1.9060 -0.0345 -0.4137
  133MPD1     N 2389   4.316   4.274   7.499  0.3551 -0.0319  0.3716
  133MPD1    H5 2390   4.318   4.357   7.558 -1.5949  0.4965 -0.3143
  133MPD1    N1 2391   3.840   4.296   7.538 -0.2505 -0.3296  0.6604
  133MPD1    H6 2392   3.758   4.283   7.479 -1.4428 -1.2879  2.4947
  133MPD1    H7 2393   3.834   4.397   7.542  0.7002 -0.2619  0.1503
  134MPD1     C 2394   1.508   2.243  14.414  0.2561 -0.5964  0.1384
  134MPD1    C1 2395   1.646   2.239  14.431  0.2098 -0.0875  0.6296
  134MPD1    C2 2396   1.712   2.115  14.444  0.3039 -0.0751 -0.0541
  134MPD1    C3 2397   1.636   1.999  14.423  0.6631 -0.5972 -0.1321
  134MPD1    C4 2398   1.497   2.011  14.416 -0.0690  0.3291  0.1179
  134MPD1    C5 2399   1.437   2.131  14.405  0.1272  0.6501  0.0807
  134MPD1     H 2400   1.818   2.109  14.464  0.4870  0.9328 -0.7270
  134MPD1    H1 2401   1.426   1.929  14.422  0.1656  0.2263  1.3032
  134MPD1    H2 2402   1.445   2.331  14.419 -0.2744 -0.9495 -0.3304
  134MPD1    H3 2403   1.328   2.132  14.401  0.0982 -1.2497  0.0848
  134MPD1     N 2404   1.699   1.870  14.420 -0.0233  0.4138  0.4532
  134MPD1    H5 2405   1.798   1.847  14.426 -0.2507 -0.5374  0.5204
  134MPD1    N1 2406   1.724   2.352  14.422  0.1591 -0.4487 -0.7772
  134MPD1    H6 2407   1.656   2.422  14.450  0.6647  0.5483 -2.0407
  134MPD1    H7 2408   1.805   2.350  14.485 -1.3652 -1.2062  1.1426
  135MPD1     C 2409   2.309   4.661   5.228  0.2242  0.3193 -0.2341
  135MPD1    C1 2410   2.435   4.724   5.209  0.2641  0.0472  0.0468
  135MPD1    C2 2411   2.517   4.754   5.321 -0.3777  1.0446  0.4607
  135MPD1    C3 2412   2.465   4.735   5.451 -0.3077  0.1846  0.0058
  135MPD1    C4 2413   2.332   4.691   5.468 -0.4611 -0.0671 -0.2929
  135MPD1    C5 2414   2.264   4.651   5.357 -0.2490  0.3587  0.1024
  135MPD1     H 2415   2.614   0.026   5.312 -0.8512  1.4084 -2.9027
  135MPD1    H1 2416   2.280   4.684   5.563  0.0547  1.2474  0.0871
  135MPD1    H2 2417   2.246   4.634   5.143  0.5281 -0.5066 -0.2004
  135MPD1    H3 2418   2.165   4.612   5.373 -0.5965  1.3294  0.3274
  135MPD1     N 2419   2.535   4.765   5.575  0.2786  0.2580  0.0109
  135MPD1    H5 2420   2.482   4.758   5.661 -0.7860 -1.3753 -0.7768
  135MPD1    N1 2421   2.492   4.731   5.077 -0.2478  0.1011  0.3232
  135MPD1    H6 2422   2.564   0.025   5.063 -0.8374  0.7022  0.2522
  135MPD1    H7 2423   2.418   4.756   5.011 -1.2491  1.0065  1.7729
  136MPD1     C 2424   0.132   1.152   9.069  0.1920 -0.0351 -0.3734
  136MPD1    C1 2425   0.214   1.231   8.995 -0.3424 -0.3642  0.1747
  136MPD1    C2 2426   0.346   1.180   8.975  0.4197 -0.0007  0.1594
  136MPD1    C3 2427   0.403   1.092   9.064 -0.7258 -0.7211 -0.2945
  136MPD1    C4 2428   0.312   1.027   9.153 -0.6522 -0.7243 -0.0216
  136MPD1    C5 2429   0.184   1.058   9.146 -0.7447 -0.1305  0.2325
  136MPD1     H 2430   0.403   1.219   8.892  0.0362  0.9258  0.3283
  136MPD1    H1 2431   0.328   0.951   9.228  0.9825  0.1020  0.4628
  136MPD1    H2 2432   0.027   1.173   9.083  0.0076 -0.5460 -1.0095
  136MPD1    H3 2433   0.126   1.001   9.217 -1.4573 -0.9660 -1.0233
  136MPD1     N 2434   0.544   1.061   9.060  0.3225  0.2798  0.0291
  136MPD1    H5 2435   0.599   1.100   8.984 -2.3583 -0.7765 -2.4529
  136MPD1    N1 2436   0.162   1.322   8.902  0.2022 -0.3465  0.1372
  136MPD1    H6 2437   0.083   1.367   8.947 -0.9858  0.3412 -2.6015
  136MPD1    H7 2438   0.229   1.390   8.866 -0.9905 -0.0576 -1.5303
  137MPD1     C 2439   0.957   0.985   8.341  0.6530  1.0852 -0.6752
  137MPD1    C1 2440   1.070   0.993   8.420 -0.7233  0.3604 -0.3216
  137MPD1    C2 2441   1.060   0.976   8.554  0.1268 -0.7256 -0.4456
  137MPD1    C3 2442   0.934   0.968   8.614  0.3641  0.0644  0.1948
  137MPD1    C4 2443   0.818   0.963   8.532 -0.1544 -0.3341 -0.1737
  137MPD1    C5 2444   0.834   0.970   8.396 -0.1973  0.1199  0.0093
  137MPD1     H 2445   1.152   0.974   8.611 -0.5418  1.6798  0.7093
  137MPD1    H1 2446   0.715   0.958   8.566  0.0324 -0.3507  0.3941
  137MPD1    H2 2447   0.952   0.999   8.234  1.3202 -1.9930 -1.1120
  137MPD1    H3 2448   0.749   0.962   8.329 -1.9665  2.8627  1.9341
  137MPD1     N 2449   0.907   0.967   8.760 -0.1087 -0.0145  0.0510
  137MPD1    H5 2450   0.810   0.944   8.782 -1.1902  2.0345 -2.4826
  137MPD1    N1 2451   1.195   0.997   8.362  0.7344 -0.2744 -0.4152
  137MPD1    H6 2452   1.262   1.042   8.424  2.3475 -0.1966 -2.2230
  137MPD1    H7 2453   1.185   1.041   8.271 -0.9805 -0.4456 -0.3078
  138MPD1     C 2454   0.285   4.314   5.745 -0.8495  0.0663  0.1469
  138MPD1    C1 2455   0.184   4.226   5.782  0.2291  0.5144 -0.4333
  138MPD1    C2 2456   0.162   4.202   5.917 -0.6777  0.1583 -0.1025
  138MPD1    C3 2457   0.216   4.283   6.017  0.5741  0.2653 -1.3908
  138MPD1    C4 2458   0.302   4.385   5.976 -0.7166 -0.1181  0.1078
  138MPD1    C5 2459   0.335   4.396   5.842  0.4337  0.0793 -0.0814
  138MPD1     H 2460   0.103   4.118   5.952  0.4416 -1.2805 -1.6958
  138MPD1    H1 2461   0.357   4.443   6.048 -1.5953  2.0959 -1.0106
  138MPD1    H2 2462   0.314   4.328   5.642  1.2853 -0.4817  0.6760
  138MPD1    H3 2463   0.404   4.470   5.805 -0.6835  0.2879 -1.7506
  138MPD1     N 2464   0.182   4.268   6.153 -0.0138  0.2912  0.1474
  138MPD1    H5 2465   0.111   4.196   6.168  0.6271 -0.4248 -0.2757
  138MPD1    N1 2466   0.128   4.138   5.689 -0.1255 -0.3422 -0.5587
  138MPD1    H6 2467   0.105   4.188   5.603  1.8669  0.0673 -0.8697
  138MPD1    H7 2468   0.048   4.080   5.713  0.0015 -0.7087 -1.0137
  139MPD1     C 2469   2.094   3.325  13.442 -0.0480 -0.3384 -0.6338
  139MPD1    C1 2470   2.098   3.399  13.324  0.1293 -0.3693 -0.3673
  139MPD1    C2 2471   2.224   3.441  13.288 -0.6787  0.1799  0.6260
  139MPD1    C3 2472   2.347   3.406  13.344 -0.3485  0.1392 -0.0491
  139MPD1    C4 2473   2.339   3.340  13.465 -0.0980 -0.3558 -0.1357
  139MPD1    C5 2474   2.217   3.297  13.510 -0.0277  0.2909  0.2466
  139MPD1     H 2475   2.224   3.500  13.197 -0.0285 -0.3272  0.2943
  139MPD1    H1 2476   2.427   3.319  13.524 -0.2416 -0.9352 -0.1307
  139MPD1    H2 2477   2.000   3.294  13.486  1.0109 -1.6734  0.6854
  139MPD1    H3 2478   2.210   3.234  13.598 -0.7841 -0.1652 -0.1393
  139MPD1     N 2479   2.471   3.462  13.300 -0.1619  0.1088 -0.3128
  139MPD1    H5 2480   2.550   3.412  13.340 -1.4231  0.8911  3.2024
  139MPD1    N1 2481   1.989   3.456  13.256  0.1967 -0.3070 -0.2119
  139MPD1    H6 2482   1.919   3.383  13.244  1.3456 -1.4067 -0.2626
  139MPD1    H7 2483   2.017   3.468  13.159  0.2719  2.3053  0.1188
  140MPD1     C 2484   0.424   3.039  14.103  0.0384  0.1615 -0.3971
  140MPD1    C1 2485   0.333   3.137  14.140 -0.2786 -0.1698 -0.2500
  140MPD1    C2 2486   0.379   3.261  14.182  0.1777  0.6821 -0.4551
  140MPD1    C3 2487   0.518   3.287  14.190 -0.1150  0.4390 -0.0569
  140MPD1    C4 2488   0.600   3.181  14.157  0.2598 -0.2640  0.4492
  140MPD1    C5 2489   0.556   3.064  14.108 -0.2677  0.0589  0.8900
  140MPD1     H 2490   0.307   3.338  14.207 -0.0895  1.1681 -2.6987
  140MPD1    H1 2491   0.706   3.200  14.170  0.6390 -2.3737  0.4648
  140MPD1    H2 2492   0.398   2.943  14.060 -0.5388  0.6222 -1.0798
  140MPD1    H3 2493   0.621   2.983  14.078  1.2288  1.6518 -0.1911
  140MPD1     N 2494   0.581   3.403  14.221 -0.3829  0.1605 -0.1361
  140MPD1    H5 2495   0.680   3.385  14.234 -0.7769  0.2723  3.0337
  140MPD1    N1 2496   0.197   3.126  14.109  0.0537  0.1570 -0.2942
  140MPD1    H6 2497   0.162   3.035  14.136 -1.6115  0.8940  0.0444
  140MPD1    H7 2498   0.135   3.200  14.143 -1.0784 -1.6345  1.5603
  141MPD1     C 2499   0.243   4.324  14.563 -0.1300  0.4061 -0.3963
  141MPD1    C1 2500   0.179   4.199  14.563 -0.4776 -0.4297  0.1145
  141MPD1    C2 2501   0.249   4.095  14.503 -0.2592 -0.0794 -0.5056
  141MPD1    C3 2502   0.380   4.102  14.463 -0.0642  0.3187  0.5942
  141MPD1    C4 2503   0.439   4.222  14.474 -1.1205 -0.3515  0.2963
  141MPD1    C5 2504   0.366   4.334  14.519  0.2808  0.0188  0.1012
  141MPD1     H 2505   0.200   3.999  14.488 -1.5981  0.8148 -1.8480
  141MPD1    H1 2506   0.546   4.234  14.464 -0.9466 -2.3039 -0.1658
  141MPD1    H2 2507   0.207   4.418  14.605 -0.0631  0.1748  0.1835
  141MPD1    H3 2508   0.418   4.428  14.534 -1.0629  0.6038  1.0313
  141MPD1     N 2509   0.457   3.993  14.425 -1.1456  0.1459  0.1908
  141MPD1    H5 2510   0.412   3.902  14.425 -1.5661  0.3596 -0.8307
  141MPD1    N1 2511   0.044   4.193  14.605 -0.1038 -0.2543 -0.6576
  141MPD1    H6 2512   0.022   4.095  14.618 -2.0733  0.5365  1.8176
  141MPD1    H7 2513   0.022   4.255  14.683  0.0535 -0.6549 -0.2972
  142MPD1     C 2514   0.250   0.264   6.708  0.1077 -0.1586 -0.3707
  142MPD1    C1 2515   0.167   0.303   6.810  0.2857  0.2462  0.0372
  142MPD1    C2 2516   0.034   0.269   6.802  0.2280  0.1433  0.6152
  142MPD1    C3 2517   4.755   0.200   6.696 -0.0548  0.9142 -0.3160
  142MPD1    C4 2518   0.067   0.176   6.594  0.4486 -1.0891  0.1552
  142MPD1    C5 2519   0.196   0.213   6.595  0.0083 -0.3782  0.4796
  142MPD1     H 2520   4.747   0.297   6.885  1.6377  0.5049  1.5548
  142MPD1    H1 2521   0.039   0.139   6.496 -3.2422 -0.7508  1.0931
  142MPD1    H2 2522   0.354   0.293   6.696  0.0057  0.4971  0.3243
  142MPD1    H3 2523   0.259   0.197   6.508 -0.1711 -2.3079  0.7077
  142MPD1     N 2524   4.630   0.150   6.680 -0.2147  0.5890  0.5497
  142MPD1    H5 2525   4.607   0.114   6.588  0.7586 -2.2070  1.4020
  142MPD1    N1 2526   0.212   0.346   6.933 -0.5731  0.0719  0.5937
  142MPD1    H6 2527   0.147   0.411   6.978 -2.9712  0.8035 -3.9424
  142MPD1    H7 2528   0.298   0.399   6.931 -0.3687 -0.3791 -2.0381
  143MPD1     C 2529   0.486   2.192   8.215  0.3757  0.4964  0.6812
  143MPD1    C1 2530   0.522   2.089   8.301 -0.1335  0.2173  0.0407
  143MPD1    C2 2531   0.434   2.052   8.401  0.2368  0.4764  0.1412
  143MPD1    C3 2532   0.311   2.118   8.400  0.0971 -0.7372  0.8289
  143MPD1    C4 2533   0.277   2.222   8.312  0.0986 -0.4143 -0.0874
  143MPD1    C5 2534   0.367   2.260   8.218 -0.0814  0.5125  0.4409
  143MPD1     H 2535   0.470   1.979   8.472 -0.1424 -1.4159 -1.6104
  143MPD1    H1 2536   0.183   2.275   8.323  0.3836  0.5553 -2.4243
  143MPD1    H2 2537   0.561   2.229   8.145  0.6564 -1.3384  0.0109
  143MPD1    H3 2538   0.344   2.342   8.151  0.4121  0.6579  0.4523
  143MPD1     N 2539   0.210   2.094   8.499 -0.1943  0.4744  0.2923
  143MPD1    H5 2540   0.128   2.153   8.496 -0.1449  0.4238 -2.1860
  143MPD1    N1 2541   0.653   2.042   8.310  0.1984 -0.4926  0.2381
  143MPD1    H6 2542   0.699   2.057   8.220  2.4931  1.8890  1.7954
  143MPD1    H7 2543   0.663   1.945   8.338 -0.3899 -0.5760  0.1606
  144MPD1     C 2544   0.582   0.023   6.679  0.3682  0.4846  0.6323
  144MPD1    C1 2545   0.536   4.672   6.725  0.6933  0.5606  0.1331
  144MPD1    C2 2546   0.477   4.666   6.847  0.4793 -0.5075 -0.3415
  144MPD1    C3 2547   0.479   4.773   6.933  1.0255  0.2733 -0.0555
  144MPD1    C4 2548   0.540   0.115   6.894 -0.2097 -0.0628  0.2517
  144MPD1    C5 2549   0.572   0.137   6.763  0.2426  0.0648  0.5879
  144MPD1     H 2550   0.431   4.575   6.882 -1.8591  1.2109  1.0523
  144MPD1    H1 2551   0.546   0.201   6.959  0.0611  1.4110 -1.7066
  144MPD1    H2 2552   0.635   0.042   6.586  0.8330  1.3668  1.0720
  144MPD1    H3 2553   0.621   0.230   6.734  1.2180 -0.2674  1.1468
  144MPD1     N 2554   0.411   4.757   7.058 -0.3087 -0.0478 -0.4738
  144MPD1    H5 2555   0.353   4.674   7.072 -0.4722 -0.2389 -2.2788
  144MPD1    N1 2556   0.524   4.570   6.630 -0.1461  0.1114  0.5902
  144MPD1    H6 2557   0.510   4.481   6.678  0.7207 -0.1729  0.3307
  144MPD1    H7 2558   0.606   4.565   6.570 -0.8763  0.3863 -0.4291
  145MPD1     C 2559   0.220   0.200   8.102  0.9488 -0.5332  0.0121
  145MPD1    C1 2560   0.107   0.144   8.063  0.4217 -0.0492  0.4968
  145MPD1    C2 2561   0.092   0.123   7.927  0.2208 -0.9223  0.1824
  145MPD1    C3 2562   0.188   0.174   7.836 -0.0181  0.0052  0.3554
  145MPD1    C4 2563   0.299   0.235   7.880 -0.2282  0.5369  0.5320
  145MPD1    C5 2564   0.315   0.251   8.015  0.2624  0.1307 -0.3176
  145MPD1     H 2565   0.010   0.067   7.882  1.9895 -2.8834 -0.6282
  145MPD1    H1 2566   0.380   0.279   7.822  1.8975 -2.2453  1.3690
  145MPD1    H2 2567   0.241   0.204   8.208  0.4833 -3.3484  0.1937
  145MPD1    H3 2568   0.415   0.280   8.044  0.7391  0.9714 -2.8225
  145MPD1     N 2569   0.160   0.147   7.700  0.1115  0.3270  0.3057
  145MPD1    H5 2570   0.066   0.119   7.675  0.7687 -0.7504 -0.9382
  145MPD1    N1 2571   0.025   0.070   8.151  0.3384 -0.2269 -0.1737
  145MPD1    H6 2572   4.710   0.056   8.108  0.8846 -0.7175 -1.1833
  145MPD1    H7 2573   0.010   0.118   8.239 -0.3847 -0.3927 -0.2121
  146MPD1     C 2574   1.580   3.380   8.567 -0.1654 -0.0444 -0.9272
  146MPD1    C1 2575   1.503   3.388   8.457 -0.6152 -1.0807 -0.0495
  146MPD1    C2 2576   1.394   3.308   8.451 -0.2060 -0.8762  0.1694
  146MPD1    C3 2577   1.356   3.211   8.545  0.7616  0.2424 -0.3673
  146MPD1    C4 2578   1.427   3.219   8.659 -0.0607 -0.0291 -0.4418
  146MPD1    C5 2579   1.538   3.301   8.672 -1.1194 -0.4169 -0.2248
  146MPD1     H 2580   1.329   3.309   8.364  0.8588  0.6078 -0.6123
  146MPD1    H1 2581   1.403   3.177   8.756 -1.3656  1.9526  0.0983
  146MPD1    H2 2582   1.670   3.438   8.580 -0.4142  0.0235  0.4489
  146MPD1    H3 2583   1.599   3.289   8.761 -0.7966 -1.2797 -0.5601
  146MPD1     N 2584   1.248   3.120   8.540 -0.1113  1.2074 -0.0712
  146MPD1    H5 2585   1.186   3.134   8.460  1.0107 -0.5765 -1.2671
  146MPD1    N1 2586   1.538   3.473   8.348 -0.0736 -0.4471  0.3559
  146MPD1    H6 2587   1.626   3.522   8.363  0.2410 -1.3619  1.6152
  146MPD1    H7 2588   1.543   3.401   8.276  0.1393  0.0710 -0.1359
  147MPD1     C 2589   0.538   2.082  11.502  0.4447 -0.2390 -0.3567
  147MPD1    C1 2590   0.644   2.099  11.591 -0.6082 -0.4407 -0.4369
  147MPD1    C2 2591   0.747   2.006  11.586  0.3640 -0.3043  0.5209
  147MPD1    C3 2592   0.751   1.891  11.502  0.0541  0.2545  0.0922
  147MPD1    C4 2593   0.646   1.884  11.409  0.1012 -0.4965  0.8617
  147MPD1    C5 2594   0.546   1.979  11.405 -0.1070  0.0933  0.9675
  147MPD1     H 2595   0.826   2.015  11.660 -0.8635 -2.3147  2.0643
  147MPD1    H1 2596   0.633   1.788  11.360  0.3247  0.0260 -0.2237
  147MPD1    H2 2597   0.457   2.154  11.498  0.8018  0.1370 -0.8252
  147MPD1    H3 2598   0.463   1.967  11.336 -0.3795 -0.1476  1.3400
  147MPD1     N 2599   0.843   1.781  11.516  0.0278 -0.4077 -0.0453
  147MPD1    H5 2600   0.849   1.705  11.448  0.8282  0.9861 -1.5332
  147MPD1    N1 2601   0.632   2.201  11.680  0.5216  0.0089 -0.3380
  147MPD1    H6 2602   0.721   2.229  11.721 -0.4187  1.8582  0.4430
  147MPD1    H7 2603   0.586   2.281  11.636 -0.6787 -1.1669 -1.2255
  148MPD1     C 2604   1.618   1.175  12.033 -0.6860 -0.0226  0.8258
  148MPD1    C1 2605   1.600   1.129  11.902 -0.4366  0.2241  0.5406
  148MPD1    C2 2606   1.502   1.179  11.819 -0.2822 -0.1206 -0.4274
  148MPD1    C3 2607   1.406   1.270  11.870  0.0736  0.7336 -1.1234
  148MPD1    C4 2608   1.420   1.306  12.003 -0.0589  0.1419 -0.4571
  148MPD1    C5 2609   1.524   1.263  12.080  0.0112 -0.3040  0.2216
  148MPD1     H 2610   1.508   1.155  11.713 -2.5256 -2.0592 -0.1214
  148MPD1    H1 2611   1.349   1.375  12.048 -0.7742 -0.5554 -0.5045
  148MPD1    H2 2612   1.710   1.154  12.086 -0.9296 -1.6819  0.5746
  148MPD1    H3 2613   1.535   1.308  12.178  0.2851 -1.5996  0.7943
  148MPD1     N 2614   1.318   1.339  11.777 -0.1062 -0.4183  0.0407
  148MPD1    H5 2615   1.337   1.326  11.678  1.0176  0.6282  0.1117
  148MPD1    N1 2616   1.709   1.070  11.846 -0.3094 -0.7481  0.3820
  148MPD1    H6 2617   1.767   1.013  11.907  0.4046  0.1290  0.5252
  148MPD1    H7 2618   1.671   1.007  11.775 -0.5544  0.2766 -0.3950
  149MPD1     C 2619   4.692   4.305  11.958 -0.0275  0.7336 -0.0453
  149MPD1    C1 2620   4.556   4.310  11.947 -0.1764 -0.0077 -0.0333
  149MPD1    C2 2621   4.504   4.342  11.824  0.2247 -0.1295 -0.2147
  149MPD1    C3 2622   4.583   4.381  11.718  0.2366 -0.4390 -0.0203
  149MPD1    C4 2623   4.721   4.374  11.732 -0.3790 -0.0620 -0.5403
  149MPD1    C5 2624   4.772   4.336  11.850  0.3816 -0.1864  0.5497
  149MPD1     H 2625   4.399   4.326  11.802  0.4278 -1.6957 -0.0847
  149MPD1    H1 2626   0.012   4.386  11.648  0.0523 -0.9052 -0.3156
  149MPD1    H2 2627   4.736   4.283  12.054 -0.0208 -1.4802 -0.5391
  149MPD1    H3 2628   0.104   4.336  11.858  0.1011  0.3977  4.1915
  149MPD1     N 2629   4.513   4.421  11.599  0.0413  0.6742  0.3274
  149MPD1    H5 2630   4.414   4.430  11.617  0.0916  2.3091 -0.1746
  149MPD1    N1 2631   4.463   4.246  12.040 -0.3734 -0.2553  0.5657
  149MPD1    H6 2632   4.481   4.267  12.138 -0.3018  1.2235  0.2246
  149MPD1    H7 2633   4.368   4.279  12.031 -0.9990 -2.4468 -0.8750
  150MPD1     C 2634   0.759   2.050  13.996  0.0441 -0.1313 -0.4060
  150MPD1    C1 2635   0.862   2.005  13.916 -0.7429  0.2083  0.2539
  150MPD1    C2 2636   0.881   1.868  13.906  0.0104  0.2836 -0.2895
  150MPD1    C3 2637   0.794   1.783  13.972 -0.4726 -0.6373  0.1041
  150MPD1    C4 2638   0.684   1.827  14.045 -0.3715  0.2219  0.2646
  150MPD1    C5 2639   0.664   1.964  14.050 -0.7009  0.5652 -0.0352
  150MPD1     H 2640   0.964   1.830  13.848 -0.6988 -0.3646 -0.8761
  150MPD1    H1 2641   0.613   1.763  14.096 -0.1290  0.9446  1.5116
  150MPD1    H2 2642   0.726   2.153  13.999 -1.3948 -0.5513 -2.1583
  150MPD1    H3 2643   0.573   1.999  14.095 -0.6084  0.7632 -0.0054
  150MPD1     N 2644   0.814   1.639  13.954  0.4935  0.1371  0.5452
  150MPD1    H5 2645   0.875   1.607  13.879  2.3157  1.0927  1.6392
  150MPD1    N1 2646   0.963   2.096  13.870  0.8088 -0.2756 -0.0947
  150MPD1    H6 2647   1.028   2.054  13.805 -0.8194 -3.0397  0.0654
  150MPD1    H7 2648   0.937   2.188  13.835  2.9265  1.1289  2.0571
  151MPD1     C 2649   3.294   3.576  13.986  0.7514 -0.3633 -1.0004
  151MPD1    C1 2650   3.249   3.702  13.971 -0.5281 -0.0193  0.1974
  151MPD1    C2 2651   3.338   3.811  13.997 -0.1958  0.5068  0.8696
  151MPD1    C3 2652   3.446   3.792  14.083  0.2831 -0.2528 -0.6261
  151MPD1    C4 2653   3.478   3.662  14.109  0.2929  0.0508  0.1332
  151MPD1    C5 2654   3.404   3.558  14.059  0.0371 -0.6239  0.4122
  151MPD1     H 2655   3.317   3.911  13.960 -0.0006 -0.3837 -1.6677
  151MPD1    H1 2656   3.577   3.642  14.148  0.6351  1.2012 -0.1489
  151MPD1    H2 2657   3.236   3.492  13.951 -1.2960  1.2322 -1.4416
  151MPD1    H3 2658   3.420   3.454  14.082  0.0215 -0.6827  0.1532
  151MPD1     N 2659   3.517   3.898  14.147  0.7283 -0.2796 -0.2253
  151MPD1    H5 2660   3.593   3.866  14.206  0.8249 -3.5544 -2.1134
  151MPD1    N1 2661   3.143   3.732  13.878  0.0874  0.3943  0.5710
  151MPD1    H6 2662   3.068   3.664  13.880  0.9896 -0.5110  3.6205
  151MPD1    H7 2663   3.103   3.825  13.883  1.7425  1.0885  1.0144
  152MPD1     C 2664   3.449   3.784   5.639  0.0956 -0.0028  1.2011
  152MPD1    C1 2665   3.359   3.866   5.704 -0.6969 -0.1012 -0.3108
  152MPD1    C2 2666   3.406   3.988   5.748 -0.2037 -0.5320 -0.2771
  152MPD1    C3 2667   3.539   4.021   5.741 -0.3472 -0.3899  0.2234
  152MPD1    C4 2668   3.630   3.931   5.677  0.2496 -0.2580  0.1559
  152MPD1    C5 2669   3.581   3.815   5.626 -0.0163 -0.1929 -0.1287
  152MPD1     H 2670   3.334   4.060   5.786 -1.7796 -1.4097 -1.6125
  152MPD1    H1 2671   3.738   3.936   5.674  0.2958  0.1063  1.8760
  152MPD1    H2 2672   3.408   3.696   5.591  0.0096 -0.6189  2.3806
  152MPD1    H3 2673   3.650   3.748   5.576 -0.4841 -0.0309 -0.9988
  152MPD1     N 2674   3.578   4.150   5.785  0.0797 -0.3570 -0.1699
  152MPD1    H5 2675   3.498   4.203   5.820  1.0212  1.1213 -0.2632
  152MPD1    N1 2676   3.222   3.840   5.702 -0.6228 -0.3661  0.0510
  152MPD1    H6 2677   3.171   3.868   5.785 -1.6322  0.6077 -0.8910
  152MPD1    H7 2678   3.208   3.740   5.689 -0.5229 -0.2731 -0.7708
  153MPD1     C 2679   0.746   1.730   5.904  0.1363 -0.5799 -1.0468
  153MPD1    C1 2680   0.783   1.749   6.034  0.3873 -0.0623  0.7904
  153MPD1    C2 2681   0.876   1.850   6.058 -0.1523  0.4728  0.0879
  153MPD1    C3 2682   0.908   1.942   5.965 -0.3705  0.4974  0.5074
  153MPD1    C4 2683   0.855   1.937   5.841  0.2235  0.1466 -0.2568
  153MPD1    C5 2684   0.781   1.827   5.810 -0.2208 -0.2536 -0.5437
  153MPD1     H 2685   0.927   1.864   6.152  0.2014 -1.2603  0.1543
  153MPD1    H1 2686   0.865   2.015   5.767 -1.9382 -0.9481 -1.7070
  153MPD1    H2 2687   0.673   1.654   5.878 -0.6384  0.5854 -2.2810
  153MPD1    H3 2688   0.754   1.821   5.705 -0.9624 -1.3836 -0.2828
  153MPD1     N 2689   0.997   2.042   6.003  0.3494  0.0646 -0.1118
  153MPD1    H5 2690   1.036   2.033   6.096 -1.9325  2.9490  1.1284
  153MPD1    N1 2691   0.754   1.646   6.127  0.3815 -0.0342 -0.2330
  153MPD1    H6 2692   0.753   1.670   6.226 -0.1936  0.7104 -0.4229
  153MPD1    H7 2693   0.663   1.609   6.101  1.2507 -1.8075 -0.7496
  154MPD1     C 2694   0.121   2.808   6.327 -0.7499 -0.6530  0.0086
  154MPD1    C1 2695   0.158   2.671   6.307 -0.2971 -0.1452  0.0871
  154MPD1    C2 2696   0.246   2.618   6.397 -0.0395 -0.3270 -0.0578
  154MPD1    C3 2697   0.304   2.690   6.500 -0.1104  0.5453 -0.4578
  154MPD1    C4 2698   0.267   2.821   6.513 -1.0229  0.5639  0.1945
  154MPD1    C5 2699   0.185   2.883   6.422 -0.1763 -0.0926  0.3184
  154MPD1     H 2700   0.279   2.516   6.379 -1.5191 -0.9041  0.5074
  154MPD1    H1 2701   0.325   2.887   6.576  1.0173 -0.6561 -0.4226
  154MPD1    H2 2702   0.040   2.850   6.269 -0.7799 -0.6788  0.0316
  154MPD1    H3 2703   0.145   2.979   6.450 -1.8793 -0.4254 -1.0326
  154MPD1     N 2704   0.389   2.638   6.594 -0.1845 -0.2238 -0.3797
  154MPD1    H5 2705   0.427   2.704   6.661 -2.3008  0.2251  0.3905
  154MPD1    N1 2706   0.109   2.600   6.200  0.3373  0.4792 -0.1402
  154MPD1    H6 2707   0.104   2.498   6.208 -2.4434  0.6611  0.4416
  154MPD1    H7 2708   0.019   2.636   6.169  0.8030  0.5058 -1.4971
  155MPD1     C 2709   0.391   4.737  10.802 -0.0062  0.3786  0.0228
  155MPD1    C1 2710   0.400   4.655  10.911 -0.0848  0.2240 -0.2153
  155MPD1    C2 2711   0.313   4.675  11.014  0.0859  0.1748 -0.5170
  155MPD1    C3 2712   0.239   0.015  11.028 -0.3650  0.1319 -0.7095
  155MPD1    C4 2713   0.234   0.099  10.924 -1.3330 -0.3073  0.3169
  155MPD1    C5 2714   0.308   0.070  10.815  0.2507 -0.3176 -0.2002
  155MPD1     H 2715   0.309   4.597  11.089  1.4042  0.0931 -0.5239
  155MPD1    H1 2716   0.151   0.166  10.907 -1.3372 -1.0850 -2.7659
  155MPD1    H2 2717   0.439   4.719  10.706 -0.2595  0.1816 -0.0654
  155MPD1    H3 2718   0.294   0.137  10.731 -0.7976  1.9618  1.8111
  155MPD1     N 2719   0.146   0.041  11.130 -0.0357 -0.1788 -0.4886
  155MPD1    H5 2720   0.092   0.127  11.124  0.5416  0.1129 -1.5723
  155MPD1    N1 2721   0.483   4.546  10.906 -0.2463 -0.2106 -0.3454
  155MPD1    H6 2722   0.512   4.519  11.000 -3.5296 -2.1603  0.1154
  155MPD1    H7 2723   0.562   4.561  10.845  1.4418  0.2450  1.9363
  156MPD1     C 2724   1.675   3.912  11.845 -0.5931  0.3695 -0.2646
  156MPD1    C1 2725   1.692   3.969  11.715 -0.3700 -0.5699  0.1066
  156MPD1    C2 2726   1.589   3.945  11.626 -0.3021 -0.2991 -0.3326
  156MPD1    C3 2727   1.492   3.849  11.643 -0.1816 -0.5372 -0.0010
  156MPD1    C4 2728   1.494   3.777  11.759 -0.3384 -0.3807 -0.1882
  156MPD1    C5 2729   1.586   3.812  11.856  0.6739 -0.1086 -0.4066
  156MPD1     H 2730   1.580   4.004  11.535 -0.8322  0.7623  0.4037
  156MPD1    H1 2731   1.428   3.693  11.779 -0.8629  0.3409  1.1761
  156MPD1    H2 2732   1.740   3.955  11.920 -1.5231 -0.0842  0.7949
  156MPD1    H3 2733   1.585   3.771  11.956  0.5739 -1.3165 -0.8978
  156MPD1     N 2734   1.387   3.817  11.547 -0.1963 -0.6359 -0.2779
  156MPD1    H5 2735   1.310   3.764  11.585  2.0127 -1.1653  3.4950
  156MPD1    N1 2736   1.778   4.080  11.704 -0.1940 -0.2872  1.1752
  156MPD1    H6 2737   1.796   4.104  11.607  1.0358  0.0910  1.4916
  156MPD1    H7 2738   1.865   4.069  11.756  0.0819 -2.7132  0.2196
  157MPD1     C 2739   2.165   0.288  11.387 -0.3137 -0.2598  0.4040
  157MPD1    C1 2740   2.050   0.354  11.391  0.5636 -0.3346  0.9757
  157MPD1    C2 2741   1.964   0.347  11.284  0.4586 -0.4211  0.2132
  157MPD1    C3 2742   1.994   0.268  11.171 -0.6238  0.2032  0.3584
  157MPD1    C4 2743   2.119   0.200  11.169 -0.2611  0.9323  0.1412
  157MPD1    C5 2744   2.199   0.211  11.283  0.1943 -0.5530  0.1975
  157MPD1     H 2745   1.864   0.390  11.283  0.3805 -0.5975  0.3721
  157MPD1    H1 2746   2.143   0.130  11.090  0.6668 -1.9626  2.9970
  157MPD1    H2 2747   2.237   0.286  11.468  1.5160  2.0452 -1.1898
  157MPD1    H3 2748   2.292   0.157  11.297 -1.1573 -2.0792  3.1584
  157MPD1     N 2749   1.916   0.255  11.054 -0.0449 -0.0526 -0.2922
  157MPD1    H5 2750   1.960   0.199  10.981  0.2238 -0.9896  0.5899
  157MPD1    N1 2751   2.027   0.440  11.496 -0.5150  0.1627 -0.5302
  157MPD1    H6 2752   2.073   0.410  11.582 -0.4058  1.4545 -0.1376
  157MPD1    H7 2753   1.929   0.459  11.516 -1.1328 -1.0100 -2.4616
  158MPD1     C 2754   0.758   0.449   9.801 -0.2470  0.1774 -0.2140
  158MPD1    C1 2755   0.691   0.325   9.779  0.0067 -0.2196 -0.0448
  158MPD1    C2 2756   0.745   0.211   9.825 -0.3702  0.1178  0.1785
  158MPD1    C3 2757   0.872   0.217   9.881 -0.0033  0.1369  0.7287
  158MPD1    C4 2758   0.933   0.342   9.911  0.2610 -1.3034  0.1279
  158MPD1    C5 2759   0.873   0.456   9.875 -0.2973  0.2452  0.3638
  158MPD1     H 2760   0.688   0.121   9.807  0.1324 -0.0154 -0.7728
  158MPD1    H1 2761   1.017   0.344   9.980  0.0902  0.0892  0.2796
  158MPD1    H2 2762   0.718   0.537   9.751 -1.2512  0.3815  0.9407
  158MPD1    H3 2763   0.914   0.551   9.907  3.3250 -1.2171  0.0206
  158MPD1     N 2764   0.919   0.088   9.926  0.1122 -0.7417  0.0618
  158MPD1    H5 2765   0.860   0.006   9.910  0.1972 -0.8352  0.2297
  158MPD1    N1 2766   0.570   0.318   9.707 -0.3364  0.0967 -0.9722
  158MPD1    H6 2767   0.505   0.244   9.734 -0.1466  0.4696  0.4894
  158MPD1    H7 2768   0.515   0.404   9.698 -0.3863  0.1149 -0.4527
  159MPD1     C 2769   1.724   4.431  10.380 -0.3278  0.5266 -0.2574
  159MPD1    C1 2770   1.622   4.393  10.451 -0.1869 -0.7144  0.3089
  159MPD1    C2 2771   1.492   4.424  10.420  0.8912 -0.2118 -0.5567
  159MPD1    C3 2772   1.477   4.502  10.298  0.4472  0.0328  0.3932
  159MPD1    C4 2773   1.583   4.525  10.211  0.6152  0.1240  0.5544
  159MPD1    C5 2774   1.703   4.486  10.258 -0.2074  0.7929 -0.2608
  159MPD1     H 2775   1.406   4.397  10.481  0.2793  1.8302 -0.5313
  159MPD1    H1 2776   1.560   4.567  10.114 -0.4061 -0.2961  0.6088
  159MPD1    H2 2777   1.824   4.397  10.402 -0.4616  1.5393  1.9808
  159MPD1    H3 2778   1.792   4.497  10.198  1.2545 -0.4184  1.6734
  159MPD1     N 2779   1.350   4.544  10.245  0.0871  0.1521  0.1698
  159MPD1    H5 2780   1.345   4.603  10.163  1.7367 -0.1888 -0.1740
  159MPD1    N1 2781   1.656   4.322  10.566 -0.0141 -0.3469  0.2267
  159MPD1    H6 2782   1.730   4.260  10.535  0.6976  0.5140  0.2026
  159MPD1    H7 2783   1.589   4.258  10.609  0.3485 -0.8621  0.0284
  160MPD1     C 2784   0.300   3.059  12.415  0.8531 -0.3545  0.2745
  160MPD1    C1 2785   0.288   3.119  12.293  0.3872 -0.1970  0.3442
  160MPD1    C2 2786   0.344   3.055  12.181 -0.2946 -1.0220 -1.0201
  160MPD1    C3 2787   0.434   2.953  12.202 -0.7502 -0.1477 -0.0739
  160MPD1    C4 2788   0.449   2.890  12.323  0.2508 -0.1672  0.1312
  160MPD1    C5 2789   0.368   2.942  12.428  0.2637  0.2598  0.4840
  160MPD1     H 2790   0.322   3.090  12.081  1.6974 -0.2908 -1.1926
  160MPD1    H1 2791   0.516   2.807  12.343  2.6642  1.6797 -0.4518
  160MPD1    H2 2792   0.254   3.108  12.501  0.3506  0.2991 -0.3648
  160MPD1    H3 2793   0.370   2.897  12.527  1.3994  0.1443  0.4109
  160MPD1     N 2794   0.497   2.887  12.090  1.0581  0.0140 -0.2552
  160MPD1    H5 2795   0.539   2.797  12.111 -0.1572 -0.8671 -1.5586
  160MPD1    N1 2796   0.207   3.233  12.277 -0.1291 -0.3837 -0.1266
  160MPD1    H6 2797   0.177   3.288  12.357 -0.1508  0.6147 -0.8178
  160MPD1    H7 2798   0.233   3.292  12.198 -0.7549  0.9008  0.6380
  161MPD1     C 2799   0.962   0.501  13.683 -0.1196  0.1394  0.1458
  161MPD1    C1 2800   1.061   0.583  13.731  0.3422 -0.3190 -0.3932
  161MPD1    C2 2801   1.196   0.552  13.716  0.6035 -0.0405 -0.5465
  161MPD1    C3 2802   1.235   0.430  13.666 -0.4266  0.2385 -0.2411
  161MPD1    C4 2803   1.140   0.349  13.624 -0.2598  0.3752  0.5308
  161MPD1    C5 2804   1.006   0.381  13.628  0.0764 -0.3292  0.0062
  161MPD1     H 2805   1.267   0.627  13.751 -1.3750  1.4004  0.3666
  161MPD1    H1 2806   1.163   0.253  13.579 -2.9186 -0.5066  1.0513
  161MPD1    H2 2807   0.855   0.518  13.689 -0.3272 -1.3099  0.3840
  161MPD1    H3 2808   0.931   0.309  13.598 -0.8688  0.5493  0.2303
  161MPD1     N 2809   1.369   0.402  13.681 -0.0611 -0.3841 -0.3151
  161MPD1    H5 2810   1.424   0.482  13.708 -0.0739 -0.1481 -0.9738
  161MPD1    N1 2811   1.017   0.705  13.793  0.3041 -0.4823 -0.2765
  161MPD1    H6 2812   0.930   0.689  13.844 -0.3854 -0.2399 -1.3763
  161MPD1    H7 2813   1.095   0.734  13.851  0.1829  2.2064 -1.4525
  162MPD1     C 2814   2.143   4.458  13.925  0.1470 -0.2396 -0.3486
  162MPD1    C1 2815   2.162   4.583  13.981  0.8878  0.0578 -0.5522
  162MPD1    C2 2816   2.082   4.682  13.946 -0.2744 -1.0169 -0.5381
  162MPD1    C3 2817   1.999   4.670  13.841  0.6696  0.8127  0.7010
  162MPD1    C4 2818   1.990   4.551  13.772  0.5542  0.6174 -0.4741
  162MPD1    C5 2819   2.064   4.445  13.817  0.0916 -0.5311  0.5499
  162MPD1     H 2820   2.085   0.002  13.997 -1.0055 -0.2148 -2.0116
  162MPD1    H1 2821   1.936   4.538  13.679 -1.6820  1.1549  0.7589
  162MPD1    H2 2822   2.195   4.373  13.968 -0.1479 -3.3058 -6.0892
  162MPD1    H3 2823   2.038   4.350  13.772  2.1480 -1.4131  1.2201
  162MPD1     N 2824   1.921   0.002  13.808  0.0136  0.0637  0.0546
  162MPD1    H5 2825   1.914   0.079  13.873  1.4353 -0.1800  0.4932
  162MPD1    N1 2826   2.235   4.594  14.097  0.3290 -0.1407 -0.4871
  162MPD1    H6 2827   2.325   4.548  14.085  0.8397  0.3106  1.4995
  162MPD1    H7 2828   2.267   4.691  14.102  0.5932 -0.3691  2.4514
  163MPD1     C 2829   0.047   1.582  10.498  0.1498 -0.6411 -1.0833
  163MPD1    C1 2830   4.757   1.597  10.380  0.0518  1.0414 -0.8152
  163MPD1    C2 2831   4.715   1.727  10.352 -1.1566  0.7782  0.1121
  163MPD1    C3 2832   4.739   1.839  10.440  0.2009  0.3454  0.6027
  163MPD1    C4 2833   0.039   1.825  10.553  1.3927  0.0401  0.2362
  163MPD1    C5 2834   0.079   1.694  10.579 -0.1282  0.1730  0.2087
  163MPD1     H 2835   4.665   1.741  10.256 -0.3845 -1.1743 -0.5710
  163MPD1    H1 2836   0.064   1.905  10.622 -0.2669  0.1586  0.6909
  163MPD1    H2 2837   0.067   1.482  10.536 -2.7865  0.1385  2.5292
  163MPD1    H3 2838   0.136   1.682  10.671 -0.5719  1.1161  0.6104
  163MPD1     N 2839   4.712   1.972  10.401  0.2769  0.4022  0.0289
  163MPD1    H5 2840   4.767   2.047  10.443 -0.7885  1.0271  0.3005
  163MPD1    N1 2841   4.706   1.480  10.307  0.5143  0.2461 -0.0845
  163MPD1    H6 2842   4.689   1.501  10.209  1.5244  0.7547 -0.1507
  163MPD1    H7 2843   4.775   1.406  10.299 -0.0751 -0.2164 -0.8202
  164MPD1     C 2844   0.695   4.040   7.680  0.3595  0.1203  0.2034
  164MPD1    C1 2845   0.734   3.979   7.561 -0.2114  0.1424  0.4301
  164MPD1    C2 2846   0.651   3.962   7.456  0.3994 -0.0128 -0.0385
  164MPD1    C3 2847   0.532   4.025   7.460 -0.5102 -0.6205 -0.8346
  164MPD1    C4 2848   0.480   4.090   7.574  0.2593 -0.7197 -0.3538
  164MPD1    C5 2849   0.565   4.091   7.682 -0.0966 -0.0338 -0.4426
  164MPD1     H 2850   0.682   3.909   7.367 -1.0426 -0.2904 -0.3779
  164MPD1    H1 2851   0.386   4.142   7.577  0.4246 -0.5046  0.8862
  164MPD1    H2 2852   0.763   4.061   7.761 -0.2618 -0.4915  0.8899
  164MPD1    H3 2853   0.522   4.143   7.767  0.7014  1.6943 -1.0828
  164MPD1     N 2854   0.455   4.023   7.342 -0.0659  1.3028  0.1211
  164MPD1    H5 2855   0.499   3.992   7.255  1.2566  1.9777  0.5545
  164MPD1    N1 2856   0.857   3.913   7.548  0.1653  0.0401  0.7324
  164MPD1    H6 2857   0.841   3.814   7.561  1.8124 -0.3451 -0.1702
  164MPD1    H7 2858   0.917   3.943   7.625  2.4082 -1.6734 -0.3579
  165MPD1     C 2859   4.622   3.661   6.799 -0.0471 -0.1966 -0.4440
  165MPD1    C1 2860   4.669   3.738   6.691 -0.1472 -0.2847  0.4275
  165MPD1    C2 2861   0.027   3.724   6.658  0.3136  0.1558 -0.5989
  165MPD1    C3 2862   0.116   3.651   6.737  0.2114 -0.0921 -0.2578
  165MPD1    C4 2863   0.063   3.586   6.843 -0.6159  0.2207 -0.2573
  165MPD1    C5 2864   4.703   3.586   6.877  0.5080 -0.7308  0.2401
  165MPD1     H 2865   0.073   3.781   6.578  0.9788  1.4479  0.7025
  165MPD1    H1 2866   0.129   3.522   6.901 -0.6048  0.9549  0.5401
  165MPD1    H2 2867   4.516   3.659   6.821  1.1003 -2.6172  4.7883
  165MPD1    H3 2868   4.669   3.527   6.961 -0.8711  0.6292  0.6260
  165MPD1     N 2869   0.257   3.649   6.704  0.5611  0.1197 -0.0069
  165MPD1    H5 2870   0.271   3.662   6.605 -1.0715  1.2938 -0.0877
  165MPD1    N1 2871   4.585   3.817   6.608  0.1616  0.2999  0.2737
  165MPD1    H6 2872   4.497   3.823   6.658 -0.2142 -0.8581 -0.2405
  165MPD1    H7 2873   4.617   3.913   6.605  1.3460 -0.1300 -1.2997
  166MPD1     C 2874   3.425   2.666  13.295  0.2926  0.0283 -0.1979
  166MPD1    C1 2875   3.382   2.713  13.170 -0.2387 -0.2780  0.5204
  166MPD1    C2 2876   3.405   2.623  13.064  0.4190 -0.0669  0.9198
  166MPD1    C3 2877   3.448   2.493  13.089 -0.0477 -0.2268 -0.4846
  166MPD1    C4 2878   3.469   2.445  13.217 -0.3662  0.1405 -0.4914
  166MPD1    C5 2879   3.468   2.538  13.321  0.5836 -0.4989 -0.5181
  166MPD1     H 2880   3.382   2.661  12.965  3.1881  0.1325  0.3580
  166MPD1    H1 2881   3.496   2.341  13.235 -1.3057 -0.0964 -0.4185
  166MPD1    H2 2882   3.421   2.740  13.374  0.1808 -2.3704  2.0269
  166MPD1    H3 2883   3.491   2.497  13.419  0.3153 -0.1195 -0.2965
  166MPD1     N 2884   3.494   2.403  12.987  0.2418  0.8412 -0.3207
  166MPD1    H5 2885   3.547   2.324  13.021  0.3138  0.8725 -0.3611
  166MPD1    N1 2886   3.347   2.843  13.141 -0.8812 -0.0178 -0.1317
  166MPD1    H6 2887   3.298   2.877  13.223  1.4705  1.3194  0.7052
  166MPD1    H7 2888   3.289   2.855  13.058 -1.3170 -1.4720 -0.0461
  167MPD1     C 2889   3.879   2.702  14.273  0.0473  0.0421  0.5138
  167MPD1    C1 2890   3.897   2.617  14.376  0.3927  0.1421  0.1157
  167MPD1    C2 2891   3.982   2.515  14.357  0.3130  0.4108 -0.5468
  167MPD1    C3 2892   4.044   2.491  14.235 -0.1333 -0.3958  0.0108
  167MPD1    C4 2893   4.008   2.566  14.124 -0.2768  0.3786 -0.2189
  167MPD1    C5 2894   3.935   2.679  14.143  0.0774 -0.4027  0.1502
  167MPD1     H 2895   4.007   2.446  14.436  2.4449  0.8137 -0.8836
  167MPD1    H1 2896   4.041   2.536  14.026  1.2542  0.0025  0.4096
  167MPD1    H2 2897   3.834   2.799  14.292  1.7357  0.9130  0.0594
  167MPD1    H3 2898   3.906   2.744  14.061 -0.5873 -1.6495 -0.5879
  167MPD1     N 2899   4.118   2.368  14.223  0.9974  0.1670 -0.4165
  167MPD1    H5 2900   4.125   2.322  14.313 -1.1027 -0.0375 -0.3663
  167MPD1    N1 2901   3.844   2.647  14.505  0.0131 -0.1409 -0.3902
  167MPD1    H6 2902   3.904   2.694  14.573  0.3086  1.3485 -1.6728
  167MPD1    H7 2903   3.825   2.560  14.553 -2.0439  2.1525  2.8831
  168MPD1     C 2904   2.981   3.281  15.249 -0.9752  0.1186  0.6899
  168MPD1    C1 2905   2.990   3.390  15.330  0.2945 -0.0116 -0.3133
  168MPD1    C2 2906   3.111   3.410  15.398 -0.2786  0.1355 -0.3851
  168MPD1    C3 2907   3.226   3.354  15.354 -0.2165  0.4430 -0.3422
  168MPD1    C4 2908   3.212   3.253  15.262 -0.3698 -0.3401 -0.4763
  168MPD1    C5 2909   3.094   3.213  15.207 -0.0447  0.8490 -0.0333
  168MPD1     H 2910   3.114   3.477  15.483 -2.5960  0.3258 -0.4494
  168MPD1    H1 2911   3.295   3.195  15.223  0.0291  0.2859 -0.5652
  168MPD1    H2 2912   2.887   3.249  15.206  0.4332  0.9238 -2.9323
  168MPD1    H3 2913   3.081   3.122  15.150 -1.5772  1.1612 -0.1909
  168MPD1     N 2914   3.357   3.386  15.397 -0.2028  0.3953  0.5538
  168MPD1    H5 2915   3.429   3.336  15.345 -0.8271  3.0466 -2.8794
  168MPD1    N1 2916   2.866   3.444  15.376  0.5294  0.0804  0.2737
  168MPD1    H6 2917   2.883   3.538  15.410  0.6721 -0.8973  2.9624
  168MPD1    H7 2918   2.787   3.450  15.313  1.3535 -3.0334 -1.0839
  169MPD1     C 2919   2.853   1.458   6.355 -0.1263  0.0662  0.1504
  169MPD1    C1 2920   2.737   1.533   6.375  1.2034 -0.3634  0.1833
  169MPD1    C2 2921   2.618   1.464   6.398  0.0598 -0.3765  0.3706
  169MPD1    C3 2922   2.607   1.326   6.377 -1.2921 -0.0763  0.0911
  169MPD1    C4 2923   2.726   1.259   6.351  1.2286 -0.0738  0.7498
  169MPD1    C5 2924   2.843   1.319   6.332  0.5421  0.4005  0.4744
  169MPD1     H 2925   2.533   1.517   6.440 -0.2641 -1.2084  0.7651
  169MPD1    H1 2926   2.728   1.150   6.351  0.2440 -0.0953 -0.2076
  169MPD1    H2 2927   2.951   1.503   6.348  0.1305 -0.7113 -1.1869
  169MPD1    H3 2928   2.938   1.272   6.310  1.6991  2.5220  0.9967
  169MPD1     N 2929   2.476   1.269   6.393 -0.2264 -0.0219  0.2792
  169MPD1    H5 2930   2.399   1.324   6.430 -2.3667 -0.8932 -2.8741
  169MPD1    N1 2931   2.728   1.669   6.408 -0.0263 -0.3695 -0.1478
  169MPD1    H6 2932   2.644   1.721   6.385 -1.2496 -1.5901  1.5337
  169MPD1    H7 2933   2.799   1.722   6.358  0.8761  0.1681  1.6995
  170MPD2     C 2934   3.577   0.890   9.877 -0.3061  0.0775 -0.4838
  170MPD2    C1 2935   3.459   0.812   9.891 -0.7320  0.4867 -0.3445
  170MPD2    C2 2936   3.331   0.876   9.893 -0.0535  0.3172  0.5372
  170MPD2    C3 2937   3.325   1.008   9.887 -0.2553 -0.6614 -0.2786
  170MPD2    C4 2938   3.442   1.084   9.864  0.5142  0.0251 -0.0471
  170MPD2    C5 2939   3.564   1.023   9.864 -0.1761 -0.6106  0.3107
  170MPD2     H 2940   3.240   0.817   9.895  0.9776 -1.2460  0.8233
  170MPD2    H1 2941   3.432   1.191   9.851  0.3020  0.0561  0.3838
  170MPD2    H2 2942   3.677   0.847   9.876  0.7623  2.4791  1.0097
  170MPD2    H3 2943   3.657   1.075   9.844 -1.3740  0.1438 -3.2502
  170MPD2     N 2944   3.201   1.077   9.871  0.1904  0.0452 -0.0165
  170MPD2    H5 2945   3.205   1.164   9.818 -3.0054  0.6957  0.7609
  170MPD2    N1 2946   3.488   0.674   9.885 -0.3150 -0.4766 -0.1010
  170MPD2    H7 2947   3.587   0.660   9.871 -0.2931 -0.9383  0.5585
  171MPD2     C 2948   2.509   0.704   9.903  0.1576 -0.0789  0.0273
  171MPD2    C1 2949   2.546   0.770   9.782  0.0990 -0.4066 -0.4061
  171MPD2    C2 2950   2.486   0.732   9.661 -0.5280  0.4244 -0.1817
  171MPD2    C3 2951   2.383   0.635   9.668 -0.3253  0.2664 -0.4509
  171MPD2    C4 2952   2.332   0.598   9.795 -0.1860  0.3465 -0.1495
  171MPD2    C5 2953   2.405   0.616   9.905 -0.6214  0.4523 -0.2949
  171MPD2     H 2954   2.536   0.765   9.571 -2.5192  2.6956 -0.4637
  171MPD2    H1 2955   2.247   0.533   9.808 -0.6096  1.3680  2.0614
  171MPD2    H2 2956   2.571   0.720   9.991 -0.6065  0.4981  0.4644
  171MPD2    H3 2957   2.376   0.567   9.997  3.0226 -3.2643 -1.1678
  171MPD2     N 2958   2.327   0.571   9.555  0.7221 -0.4517 -0.4425
  171MPD2    H5 2959   2.283   0.481   9.569  0.8300 -0.5355 -0.6428
  171MPD2    N1 2960   2.652   0.860   9.779  0.1010 -0.4120  0.2946
  171MPD2    H7 2961   2.693   0.870   9.871 -2.5423 -1.4294  1.5829
  172MPD2     C 2962   2.791   1.822   9.420 -0.4438 -0.4304  0.3431
  172MPD2    C1 2963   2.679   1.762   9.460 -0.3677  0.2887 -0.2923
  172MPD2    C2 2964   2.675   1.637   9.520  0.6749  0.4920 -0.0356
  172MPD2    C3 2965   2.797   1.571   9.548  0.7170 -0.6024 -0.6015
  172MPD2    C4 2966   2.911   1.640   9.525 -0.0596 -0.2617  0.2244
  172MPD2    C5 2967   2.909   1.758   9.456  0.0608  0.2615  0.4817
  172MPD2     H 2968   2.582   1.586   9.541 -0.1143  1.8425 -0.2513
  172MPD2    H1 2969   3.006   1.591   9.544  0.7971  2.5126  3.0570
  172MPD2    H2 2970   2.790   1.914   9.363 -0.0440 -2.3142 -2.7190
  172MPD2    H3 2971   3.002   1.808   9.431 -1.1163  0.3959 -3.6000
  172MPD2     N 2972   2.793   1.451   9.623 -0.2594 -0.4278  0.0129
  172MPD2    H5 2973   2.707   1.397   9.616  0.4144 -1.4564 -0.2867
  172MPD2    N1 2974   2.555   1.819   9.432  0.0142  0.2630 -0.1598
  172MPD2    H7 2975   2.475   1.769   9.469 -1.5291  5.1382  3.0576
  173MPD2     C 2976   2.636   2.365   6.136  0.2847 -0.3019  0.6657
  173MPD2    C1 2977   2.737   2.288   6.198 -0.2388  0.1716  0.5070
  173MPD2    C2 2978   2.744   2.153   6.164 -0.2253 -0.3016  0.8153
  173MPD2    C3 2979   2.647   2.092   6.079  0.1416  0.3586  0.2068
  173MPD2    C4 2980   2.547   2.178   6.027 -0.0214  0.1222 -0.1400
  173MPD2    C5 2981   2.543   2.312   6.059 -0.0747  0.5655  0.2953
  173MPD2     H 2982   2.811   2.079   6.207  1.8331 -0.5309 -2.8483
  173MPD2    H1 2983   2.479   2.145   5.950  0.2498 -3.3169  1.0879
  173MPD2    H2 2984   2.629   2.474   6.142 -3.3300 -0.4331 -1.2556
  173MPD2    H3 2985   2.469   2.376   6.011 -0.0630  0.3651  0.0106
  173MPD2     N 2986   2.646   1.956   6.047  0.3460  0.1133  0.7126
  173MPD2    H5 2987   2.717   1.898   6.091  1.5251  0.8953 -0.1361
  173MPD2    N1 2988   2.840   2.343   6.286 -0.3593  0.2157 -0.3895
  173MPD2    H7 2989   2.918   2.285   6.317 -0.8228 -0.9074 -1.3083
  174MPD2     C 2990   2.099   1.015   6.024  0.7265  0.2026  0.4988
  174MPD2    C1 2991   2.227   0.984   6.047  0.0283 -0.2074  0.6975
  174MPD2    C2 2992   2.325   1.087   6.061 -0.2132 -0.0868  0.1873
  174MPD2    C3 2993   2.284   1.224   6.064 -0.0580 -0.4417  0.4535
  174MPD2    C4 2994   2.146   1.250   6.047 -0.0244  0.5053  0.1649
  174MPD2    C5 2995   2.054   1.143   6.039 -0.0829  0.2769  0.1407
  174MPD2     H 2996   2.427   1.066   6.091  0.4228  1.0086 -1.2001
  174MPD2    H1 2997   2.105   1.349   6.031  1.4066  1.3937  2.1553
  174MPD2    H2 2998   2.028   0.943   5.987  1.4063 -0.2098 -0.0099
  174MPD2    H3 2999   1.949   1.165   6.020 -0.6958 -0.4555  2.6422
  174MPD2     N 3000   2.380   1.327   6.068 -0.1178 -0.1120  0.0257
  174MPD2    H5 3001   2.475   1.296   6.050  0.1600  0.6368  0.1935
  174MPD2    N1 3002   2.268   0.843   6.040  0.4721 -0.3951  0.4520
  174MPD2    H7 3003   2.195   0.775   6.024  0.7004 -0.4118 -0.5168
  175MPD2     C 3004   3.134   0.717  12.492  0.5031 -0.3756  0.7172
  175MPD2    C1 3005   3.204   0.734  12.608 -0.1354  1.1870 -0.2296
  175MPD2    C2 3006   3.192   0.850  12.677  0.1749  0.2678 -1.2596
  175MPD2    C3 3007   3.107   0.950  12.634  0.0976 -0.3272  0.5420
  175MPD2    C4 3008   3.035   0.930  12.515 -0.3176  0.2429 -0.7353
  175MPD2    C5 3009   3.048   0.809  12.447  0.3340 -0.3969  0.1515
  175MPD2     H 3010   3.244   0.869  12.770 -0.5012 -1.7373 -0.4661
  175MPD2    H1 3011   2.971   1.008  12.475  1.8298  1.7585 -1.2257
  175MPD2    H2 3012   3.152   0.630  12.429  0.5671 -0.2032  0.4963
  175MPD2    H3 3013   2.986   0.786  12.361  0.8793 -0.9931 -0.0835
  175MPD2     N 3014   3.105   1.072  12.699 -0.6036 -0.0703  0.5838
  175MPD2    H5 3015   3.173   1.082  12.774 -1.1126  0.8580  0.9293
  175MPD2    N1 3016   3.303   0.635  12.645 -0.3179 -0.4640 -0.1218
  175MPD2    H7 3017   3.331   0.561  12.581  0.1945  1.1795 -1.7938
  176MPD2     C 3018   4.097   0.757  12.147  0.4651 -0.3740  0.1844
  176MPD2    C1 3019   3.967   0.785  12.156 -0.2714  0.1018  0.4781
  176MPD2    C2 3020   3.888   0.749  12.260  0.3132 -0.3802 -0.2545
  176MPD2    C3 3021   3.950   0.685  12.367  0.2623  0.5084  0.4358
  176MPD2    C4 3022   4.089   0.669  12.373 -0.8153 -0.8178 -0.2348
  176MPD2    C5 3023   4.162   0.700  12.259  0.1718 -0.3567 -0.5988
  176MPD2     H 3024   3.783   0.775  12.260  0.1202 -1.1828  1.3078
  176MPD2    H1 3025   4.135   0.621  12.459  0.0221  0.7168  0.1770
  176MPD2    H2 3026   4.160   0.784  12.064  1.6140 -2.2177  0.4364
  176MPD2    H3 3027   4.269   0.683  12.250  0.4078  1.8923 -2.2874
  176MPD2     N 3028   3.884   0.638  12.479  0.3672  0.1221  0.1632
  176MPD2    H5 3029   3.932   0.617  12.566 -2.3345 -5.3176  0.3129
  176MPD2    N1 3030   3.888   0.839  12.050  0.5481  0.4240 -0.8297
  176MPD2    H7 3031   3.788   0.836  12.061  0.5409 -0.4917 -1.2187
  177MPD2     C 3032   4.238   0.559  13.214  0.3116  1.1440  0.2250
  177MPD2    C1 3033   4.130   0.477  13.227  0.0622  0.3203  0.2896
  177MPD2    C2 3034   4.015   0.493  13.151 -0.2295 -0.5119 -0.2106
  177MPD2    C3 3035   4.018   0.584  13.044  0.1305 -0.3587  0.2781
  177MPD2    C4 3036   4.132   0.662  13.032  0.0666  0.1035  0.0071
  177MPD2    C5 3037   4.238   0.652  13.113 -0.4414  0.1254  0.0518
  177MPD2     H 3038   3.925   0.432  13.157 -0.0704 -0.6632  0.6004
  177MPD2    H1 3039   4.131   0.737  12.954 -2.7916  1.3184  1.2118
  177MPD2    H2 3040   4.319   0.547  13.284 -0.1110 -0.6385  0.4212
  177MPD2    H3 3041   4.324   0.718  13.109 -1.3911  1.2937 -0.8465
  177MPD2     N 3042   3.912   0.603  12.954 -0.2954 -0.5000 -0.0775
  177MPD2    H5 3043   3.933   0.651  12.867 -0.2312 -1.9773 -0.8815
  177MPD2    N1 3044   4.144   0.365  13.322  0.3726  0.2907 -0.4259
  177MPD2    H7 3045   4.235   0.346  13.365 -1.4604 -0.9434  2.9480
  178MPD2     C 3046   1.613   4.656   6.936 -0.0390  0.2398 -0.1325
  178MPD2    C1 3047   1.689   4.674   7.046  0.2740 -0.2325 -0.7818
  178MPD2    C2 3048   1.815   4.722   7.027  0.0692 -0.4035 -0.4926
  178MPD2    C3 3049   1.874   4.745   6.902  0.0882 -0.7005 -0.5897
  178MPD2    C4 3050   1.793   4.729   6.794 -0.0857 -0.0764  0.7629
  178MPD2    C5 3051   1.663   4.688   6.809 -0.1983 -0.3941 -1.1803
  178MPD2     H 3052   1.880   4.739   7.112 -1.2361 -2.7518  0.9355
  178MPD2    H1 3053   1.825   4.752   6.693  1.2187 -1.2320  0.9248
  178MPD2    H2 3054   1.510   4.621   6.943 -0.3505  1.1333 -0.2828
  178MPD2    H3 3055   1.594   4.689   6.726 -2.1374 -0.8296  0.4349
  178MPD2     N 3056   1.997   0.040   6.903 -0.1038 -0.6680 -0.1634
  178MPD2    H5 3057   2.044   0.067   6.989 -0.4836  0.4584 -0.3082
  178MPD2    N1 3058   1.640   4.663   7.179  0.1782  0.2677  0.3582
  178MPD2    H7 3059   1.699   4.694   7.255  0.7674 -0.2755  0.1151
  179MPD2     C 3060   1.617   4.275   7.806  0.3825 -0.0257 -0.2775
  179MPD2    C1 3061   1.699   4.347   7.720 -0.1270 -0.0507 -0.1497
  179MPD2    C2 3062   1.791   4.283   7.638  0.4691 -0.4825  0.7502
  179MPD2    C3 3063   1.799   4.144   7.639 -0.2750  0.5321  0.1131
  179MPD2    C4 3064   1.715   4.077   7.717  0.1000  0.7639 -0.4057
  179MPD2    C5 3065   1.626   4.143   7.802 -0.3065 -0.4875 -0.0323
  179MPD2     H 3066   1.854   4.342   7.573 -0.5267 -1.4735 -1.1234
  179MPD2    H1 3067   1.705   3.969   7.721  1.5785  0.6257 -0.3938
  179MPD2    H2 3068   1.542   4.325   7.866  0.0485 -2.0217  0.9779
  179MPD2    H3 3069   1.562   4.081   7.865 -0.1325 -0.6259  0.0097
  179MPD2     N 3070   1.894   4.089   7.547  0.1681  0.0528 -0.1992
  179MPD2    H5 3071   1.945   4.147   7.481  0.5601  1.6145  1.4369
  179MPD2    N1 3072   1.672   4.490   7.708 -0.0229  0.5270  0.3725
  179MPD2    H7 3073   1.621   4.539   7.781 -1.3324  0.9916 -0.8505
  180MPD2     C 3074   1.354   3.906   7.527 -0.7333  0.0806 -0.6513
  180MPD2    C1 3075   1.449   3.961   7.437  0.1483 -0.1843 -0.1645
  180MPD2    C2 3076   1.465   4.097   7.433 -0.3391 -0.0867  0.3113
  180MPD2    C3 3077   1.381   4.180   7.510 -0.8645  0.1344 -0.6928
  180MPD2    C4 3078   1.296   4.126   7.596 -0.3340  0.3379 -0.2253
  180MPD2    C5 3079   1.284   3.989   7.608  0.2222 -0.8508 -0.0720
  180MPD2     H 3080   1.539   4.140   7.366 -1.0990 -0.5694 -0.8188
  180MPD2    H1 3081   1.226   4.183   7.657 -0.0763 -0.8578  1.2000
  180MPD2    H2 3082   1.346   3.799   7.541  1.5688  0.3250  2.5284
  180MPD2    H3 3083   1.218   3.936   7.676 -1.1219 -0.2867 -0.9158
  180MPD2     N 3084   1.399   4.319   7.496  0.2404  0.1409  0.2194
  180MPD2    H5 3085   1.451   4.358   7.418 -0.9167 -0.1987 -0.7315
  180MPD2    N1 3086   1.548   3.882   7.371 -0.3037  0.3081 -0.4190
  180MPD2    H7 3087   1.533   3.781   7.377 -0.0148  0.3707  1.2814
  181MPD2     C 3088   1.825   1.054   9.547  0.3877  0.2053 -0.2468
  181MPD2    C1 3089   1.758   0.983   9.452  0.9108 -0.0222 -0.1054
  181MPD2    C2 3090   1.678   0.879   9.488 -0.2747 -0.4074  0.4704
  181MPD2    C3 3091   1.671   0.830   9.618  0.2066 -0.3000  0.1214
  181MPD2    C4 3092   1.737   0.907   9.714  0.3128  0.8342 -0.3903
  181MPD2    C5 3093   1.817   1.015   9.679  0.2933 -0.1230  0.2231
  181MPD2     H 3094   1.633   0.823   9.407  0.7513 -0.9354  0.2744
  181MPD2    H1 3095   1.723   0.886   9.820 -0.6700 -0.3342 -0.7519
  181MPD2    H2 3096   1.888   1.140   9.525 -0.9512  1.8904  2.3645
  181MPD2    H3 3097   1.863   1.078   9.755 -0.9831  2.0527 -0.8130
  181MPD2     N 3098   1.606   0.709   9.649 -0.2903  0.7636  0.1598
  181MPD2    H5 3099   1.563   0.657   9.573 -1.8404  3.0297 -0.5368
  181MPD2    N1 3100   1.769   0.999   9.310  0.3038  0.0673 -0.6318
  181MPD2    H7 3101   1.698   0.949   9.257 -0.5326 -0.5304  1.0348
  182MPD2     C 3102   1.556   0.139  10.323  0.2111 -0.1607  0.3224
  182MPD2    C1 3103   1.656   0.132  10.227 -0.5835  0.3334 -0.7742
  182MPD2    C2 3104   1.775   0.063  10.263  0.1863 -0.6245  0.2757
  182MPD2    C3 3105   1.792   0.008  10.392 -0.5446  0.4050  0.3890
  182MPD2    C4 3106   1.690   0.010  10.490  0.4335 -1.1246  0.5801
  182MPD2    C5 3107   1.572   0.076  10.446  0.0057 -0.1387  0.6148
  182MPD2     H 3108   1.855   0.076  10.192  0.3793  0.4074  0.6837
  182MPD2    H1 3109   1.707   4.744  10.589 -0.5419 -0.8606  0.8697
  182MPD2    H2 3110   1.466   0.196  10.307  0.8231  0.9117  0.7190
  182MPD2    H3 3111   1.497   0.100  10.520  1.6750  0.7225  2.0375
  182MPD2     N 3112   1.923   4.737  10.413  0.2365  0.3773  0.2638
  182MPD2    H5 3113   1.983   4.717  10.334  1.3081  0.4403  1.0516
  182MPD2    N1 3114   1.653   0.188  10.098  0.7012  0.3679 -0.2131
  182MPD2    H7 3115   1.739   0.185  10.043  0.9548  0.7606  0.1592
  183MPD2     C 3116   0.037   0.970  14.625  0.1895  0.0480  0.1755
  183MPD2    C1 3117   0.120   1.010  14.525 -0.4157  0.4148 -0.1826
  183MPD2    C2 3118   0.165   0.907  14.445 -0.2324  0.6282 -1.0956
  183MPD2    C3 3119   0.150   0.776  14.474  0.3472 -0.3025  0.4475
  183MPD2    C4 3120   0.076   0.735  14.585 -0.4388 -0.4411  0.0490
  183MPD2    C5 3121   0.018   0.837  14.656  0.6507  0.2676 -0.1041
  183MPD2     H 3122   0.214   0.929  14.351 -1.2953 -3.2075 -2.5098
  183MPD2    H1 3123   0.048   0.631  14.597 -2.6701  0.0429 -0.8674
  183MPD2    H2 3124   4.761   1.049  14.678  0.3932  0.2226  0.1133
  183MPD2    H3 3125   4.720   0.801  14.727  0.9194 -0.9970 -0.4563
  183MPD2     N 3126   0.201   0.692  14.377  0.1620 -0.3196  0.6526
  183MPD2    H5 3127   0.245   0.738  14.298  0.2437 -2.1382 -0.3328
  183MPD2    N1 3128   0.131   1.145  14.505 -0.2134 -0.2124 -0.1313
  183MPD2    H7 3129   0.096   1.211  14.574  2.5054 -0.8264  1.8296
  184MPD2     C 3130   0.434   1.717  15.094 -0.5450  0.2722 -0.5190
  184MPD2    C1 3131   0.409   1.584  15.083  0.6752  0.1181  0.3348
  184MPD2    C2 3132   0.375   1.530  14.958 -0.0453  0.4054 -0.4445
  184MPD2    C3 3133   0.335   1.613  14.854 -1.0793 -0.1391  0.4465
  184MPD2    C4 3134   0.331   1.748  14.877  0.0945 -0.1879  0.4836
  184MPD2    C5 3135   0.382   1.795  14.986  0.6578  0.0287 -0.1241
  184MPD2     H 3136   0.365   1.423  14.949  2.5843  0.2396 -1.3472
  184MPD2    H1 3137   0.305   1.820  14.800 -3.7372 -3.0037 -0.8774
  184MPD2    H2 3138   0.459   1.766  15.188 -1.1532  0.5840 -0.5248
  184MPD2    H3 3139   0.387   1.903  14.996  0.4723 -0.0257  0.5338
  184MPD2     N 3140   0.281   1.558  14.735  0.0893 -0.1365 -0.7588
  184MPD2    H5 3141   0.292   1.457  14.732 -1.8740 -0.3629 -0.3529
  184MPD2    N1 3142   0.440   1.511  15.198 -0.0089 -0.2477  0.2485
  184MPD2    H7 3143   0.477   1.562  15.278 -2.1641  0.4324  0.8119
  185MPD2     C 3144   0.468   1.677  13.692  1.3670  0.0082  0.1531
  185MPD2    C1 3145   0.478   1.544  13.730  0.6639 -0.5240  0.6187
  185MPD2    C2 3146   0.420   1.497  13.848  0.3635  0.3954 -0.1740
  185MPD2    C3 3147   0.374   1.586  13.942 -0.3201  0.2669 -0.5819
  185MPD2    C4 3148   0.374   1.720  13.911  0.4965  0.6795 -0.5953
  185MPD2    C5 3149   0.409   1.762  13.785 -0.4990 -0.4192 -0.4200
  185MPD2     H 3150   0.418   1.390  13.866 -0.7886  0.3738 -0.4324
  185MPD2    H1 3151   0.348   1.793  13.986  0.9507 -0.4351  0.6581
  185MPD2    H2 3152   0.501   1.710  13.594  0.3635  1.0029  0.1540
  185MPD2    H3 3153   0.401   1.869  13.772  0.6162 -0.0004  2.3233
  185MPD2     N 3154   0.325   1.537  14.064 -0.2577  0.0105  0.1833
  185MPD2    H5 3155   0.331   1.436  14.078 -0.0858 -0.5289 -3.8397
  185MPD2    N1 3156   0.536   1.456  13.628 -0.1583 -0.4203 -0.0495
  185MPD2    H7 3157   0.537   1.498  13.536 -1.8260 -2.9065 -1.2100
  186MPD2     C 3158   2.802   1.289   7.720 -0.1526  0.2242  0.7326
  186MPD2    C1 3159   2.715   1.364   7.805  0.1562  0.2819  0.2021
  186MPD2    C2 3160   2.676   1.298   7.919 -0.2758 -0.2583 -0.2607
  186MPD2    C3 3161   2.698   1.164   7.937  0.1548 -0.4220  0.5504
  186MPD2    C4 3162   2.784   1.101   7.853 -0.1342  0.4716 -0.8917
  186MPD2    C5 3163   2.846   1.162   7.748  0.1061  0.4260 -0.0177
  186MPD2     H 3164   2.609   1.345   7.990  1.0989  0.5797  0.4793
  186MPD2    H1 3165   2.804   0.998   7.882 -0.9024  0.4383 -0.4954
  186MPD2    H2 3166   2.832   1.328   7.624  0.6128 -2.2065 -0.0076
  186MPD2    H3 3167   2.919   1.120   7.680 -0.0028  1.8310 -0.9948
  186MPD2     N 3168   2.651   1.092   8.047 -0.6941  0.8877  0.2946
  186MPD2    H5 3169   2.683   0.996   8.055  1.3157  1.5977  0.8767
  186MPD2    N1 3170   2.662   1.492   7.778  0.2224  0.0146 -0.8760
  186MPD2    H7 3171   2.585   1.528   7.834  0.8813  0.2731 -0.1265
  187MPD2     C 3172   2.047   0.518   8.750 -0.0055  0.3433  1.1899
  187MPD2    C1 3173   2.159   0.576   8.806  0.2671  0.3779  0.0709
  187MPD2    C2 3174   2.223   0.675   8.738  0.2867  0.3296  0.3714
  187MPD2    C3 3175   2.182   0.701   8.603 -0.3306  0.1239  0.5157
  187MPD2    C4 3176   2.071   0.640   8.545 -0.4623  0.3365 -0.3222
  187MPD2    C5 3177   2.009   0.546   8.621 -0.3196 -0.1532  0.9748
  187MPD2     H 3178   2.319   0.709   8.776 -0.2650  1.4401  0.7815
  187MPD2    H1 3179   2.036   0.661   8.444 -0.1404  0.4810 -0.4052
  187MPD2    H2 3180   1.999   0.436   8.801 -0.0750  1.5526  3.0490
  187MPD2    H3 3181   1.926   0.491   8.579 -1.2150  1.8164  0.1716
  187MPD2     N 3182   2.271   0.788   8.539 -0.8078 -0.0836  0.3590
  187MPD2    H5 3183   2.352   0.821   8.590 -1.0470  3.5068 -1.5309
  187MPD2    N1 3184   2.200   0.538   8.938 -0.1903  0.2234 -0.8920
  187MPD2    H7 3185   2.280   0.593   8.968 -0.5169  0.0758  0.2654
  188MPD2     C 3186   2.997   0.698   8.476  0.3165  0.4084  0.2707
  188MPD2    C1 3187   2.969   0.829   8.479 -0.2463 -0.0775 -0.0790
  188MPD2    C2 3188   3.059   0.912   8.544 -0.1578 -0.3689 -0.3900
  188MPD2    C3 3189   3.175   0.866   8.605  0.9038 -0.1971  0.1076
  188MPD2    C4 3190   3.206   0.728   8.591 -0.6971 -0.2669  0.2205
  188MPD2    C5 3191   3.119   0.653   8.523  0.6195 -0.6517  0.3966
  188MPD2     H 3192   3.027   1.015   8.544  1.9982  0.2921 -2.2877
  188MPD2    H1 3193   3.296   0.681   8.630  2.1520  4.2352 -1.0500
  188MPD2    H2 3194   2.929   0.632   8.424  0.0980  1.9564 -1.4138
  188MPD2    H3 3195   3.144   0.549   8.503  0.5510 -0.4250 -0.8358
  188MPD2     N 3196   3.260   0.950   8.677  0.2318 -0.2477  0.3185
  188MPD2    H5 3197   3.346   0.910   8.712 -0.9717 -2.6765  0.5020
  188MPD2    N1 3198   2.843   0.884   8.447  0.1063  0.2209 -0.1035
  188MPD2    H7 3199   2.836   0.985   8.446  1.4992  0.3039 -1.0218
  189MPD2     C 3200   3.542   0.418   8.128 -0.0986 -0.6414 -0.4826
  189MPD2    C1 3201   3.558   0.409   7.992  0.0362 -0.0631 -0.0916
  189MPD2    C2 3202   3.649   0.498   7.935  0.2172 -0.1960  0.2121
  189MPD2    C3 3203   3.716   0.598   8.009 -0.3353 -0.3753 -0.5201
  189MPD2    C4 3204   3.683   0.605   8.142 -0.4296  0.0714 -0.5354
  189MPD2    C5 3205   3.598   0.518   8.200  0.0860 -0.3894  0.6114
  189MPD2     H 3206   3.676   0.493   7.830 -0.9116  3.8726 -0.2637
  189MPD2    H1 3207   3.732   0.681   8.201 -2.2706  0.7078  0.1777
  189MPD2    H2 3208   3.479   0.346   8.178 -2.0953 -0.7888 -3.2318
  189MPD2    H3 3209   3.584   0.522   8.308 -0.6606 -0.0647  0.5012
  189MPD2     N 3210   3.812   0.695   7.960 -0.6654 -0.5096 -0.1064
  189MPD2    H5 3211   3.821   0.777   8.019 -0.0272 -0.8837  0.3155
  189MPD2    N1 3212   3.498   0.302   7.919  0.0404 -0.3461 -0.0598
  189MPD2    H7 3213   3.446   0.234   7.973 -0.0348 -0.8017 -0.6956
  190MPD2     C 3214   2.909   4.306   8.021  0.5955 -0.0379 -0.1628
  190MPD2    C1 3215   2.978   4.401   8.095 -0.2146 -0.0756  0.2498
  190MPD2    C2 3216   3.066   4.484   8.026  0.6907  0.0994 -0.1420
  190MPD2    C3 3217   3.086   4.473   7.893 -0.3906 -0.3858 -0.2853
  190MPD2    C4 3218   3.006   4.379   7.818 -0.6200  0.6002  0.2163
  190MPD2    C5 3219   2.918   4.302   7.886 -0.8297 -0.1628 -0.5184
  190MPD2     H 3220   3.127   4.556   8.080  0.7936  1.0756 -1.5568
  190MPD2    H1 3221   3.010   4.377   7.710 -1.1687 -0.2584  0.2128
  190MPD2    H2 3222   2.846   4.232   8.070  0.3277  0.2038 -0.1450
  190MPD2    H3 3223   2.854   4.233   7.833 -0.1617 -1.2865  0.1347
  190MPD2     N 3224   3.178   4.552   7.822 -0.0932  0.4805 -0.1211
  190MPD2    H5 3225   3.191   4.536   7.722 -0.8605 -3.2828  0.4160
  190MPD2    N1 3226   2.967   4.389   8.236 -0.4442  0.5397  0.5299
  190MPD2    H7 3227   2.897   4.321   8.261  0.4732 -0.4850  0.3197
  191MPD2     C 3228   3.955   4.660   7.542 -0.5933  0.6833  0.4764
  191MPD2    C1 3229   3.831   4.632   7.496  0.1627 -0.3283 -0.2410
  191MPD2    C2 3230   3.830   4.571   7.373  0.1722  0.5609 -0.4835
  191MPD2    C3 3231   3.947   4.548   7.300  0.0028 -0.2559  0.6147
  191MPD2    C4 3232   4.065   4.590   7.349 -0.3997 -0.3742  0.0045
  191MPD2    C5 3233   4.073   4.648   7.472 -0.2895 -0.1497 -0.6151
  191MPD2     H 3234   3.736   4.549   7.323 -0.1464  1.6157 -0.3543
  191MPD2    H1 3235   4.159   4.576   7.296 -0.4184  0.0225 -0.1296
  191MPD2    H2 3236   3.976   4.720   7.630  0.2856  0.0997  0.6615
  191MPD2    H3 3237   4.165   4.697   7.503  0.4465 -3.1136  1.9113
  191MPD2     N 3238   3.939   4.500   7.168  0.2068 -0.2827  0.2713
  191MPD2    H5 3239   3.847   4.463   7.144  0.5652 -0.4386 -0.8987
  191MPD2    N1 3240   3.716   4.665   7.571  0.0416  0.1735 -0.7044
  191MPD2    H7 3241   3.740   4.733   7.642  3.3503 -1.1955 -0.4896
  192MPD2     C 3242   0.200   0.257  11.772 -0.2451 -0.0375  0.1314
  192MPD2    C1 3243   0.181   0.352  11.672 -0.3869 -0.4892  0.3023
  192MPD2    C2 3244   0.252   0.337  11.553 -0.0163  0.5330 -0.0198
  192MPD2    C3 3245   0.338   0.226  11.535 -0.3074  0.0480  0.5220
  192MPD2    C4 3246   0.344   0.138  11.632 -0.2863  0.7116 -1.0659
  192MPD2    C5 3247   0.284   0.157  11.756  0.3805 -0.6045 -0.3652
  192MPD2     H 3248   0.241   0.411  11.475 -1.8986  1.5105  1.2050
  192MPD2    H1 3249   0.417   0.058  11.624  1.9506  2.6456 -0.0087
  192MPD2    H2 3250   0.149   0.262  11.867 -0.2010 -2.9602  0.2833
  192MPD2    H3 3251   0.315   0.083  11.830  0.5026  1.0176  1.2021
  192MPD2     N 3252   0.413   0.209  11.416  0.0905  0.0116  0.2567
  192MPD2    H5 3253   0.470   0.125  11.423 -1.1325 -0.6722  1.8503
  192MPD2    N1 3254   0.107   0.470  11.699  0.6662  0.2425  0.1047
  192MPD2    H7 3255   0.135   0.551  11.645  1.6752 -1.5540 -2.0907
  193MPD2     C 3256   4.578   0.808  12.443 -0.2307 -0.5526 -0.3854
  193MPD2    C1 3257   4.698   0.821  12.388 -1.4227 -0.1067 -0.3207
  193MPD2    C2 3258   0.017   0.880  12.464  0.7353 -0.0511 -1.0969
  193MPD2    C3 3259   4.774   0.929  12.588  0.7139 -0.2886  0.1514
  193MPD2    C4 3260   4.643   0.925  12.635  0.0429  0.5795  0.2020
  193MPD2    C5 3261   4.550   0.858  12.563 -0.8251  0.9607  0.3695
  193MPD2     H 3262   0.110   0.898  12.411 -0.2814  1.7033 -2.2887
  193MPD2    H1 3263   4.614   0.965  12.731  0.6551  1.1548  0.1467
  193MPD2    H2 3264   4.498   0.759  12.388 -0.4239 -1.8303  1.0569
  193MPD2    H3 3265   4.457   0.826  12.610 -0.5732 -0.1954  0.0684
  193MPD2     N 3266   0.099   1.002  12.666 -0.0901  0.2010 -0.3690
  193MPD2    H5 3267   0.084   1.043  12.757  1.6180  3.2794 -1.4427
  193MPD2    N1 3268   4.725   0.795  12.251 -0.1784 -0.3666 -0.3458
  193MPD2    H7 3269   0.044   0.817  12.224 -0.4330 -0.4295 -1.2796
  194MPD2     C 3270   3.099   0.942  15.228  0.0500 -0.0063  0.4241
  194MPD2    C1 3271   2.974   0.951  15.276  0.2043 -0.1421  1.1410
  194MPD2    C2 3272   2.903   1.068  15.261  0.1352  0.2879 -0.2843
  194MPD2    C3 3273   2.953   1.173  15.175 -0.4912 -1.0526  0.2999
  194MPD2    C4 3274   3.085   1.165  15.134  0.5745 -0.6423  0.1119
  194MPD2    C5 3275   3.158   1.054  15.170  0.8156 -0.0776 -0.0322
  194MPD2     H 3276   2.802   1.072  15.301  0.6372  0.4065  0.9643
  194MPD2    H1 3277   3.135   1.251  15.091 -2.0372 -0.9967 -3.5822
  194MPD2    H2 3278   3.157   0.851  15.233  1.1263  0.6258 -0.7181
  194MPD2    H3 3279   3.262   1.049  15.137  1.3649 -1.0194  1.8436
  194MPD2     N 3280   2.881   1.283  15.146 -0.7844 -0.3740 -0.9693
  194MPD2    H5 3281   2.926   1.353  15.087 -1.7820  0.6328 -0.5282
  194MPD2    N1 3282   2.909   0.833  15.326 -0.2382  0.4671  0.1623
  194MPD2    H7 3283   2.811   0.838  15.351 -0.3571 -3.0154  0.2982
  195MPD2     C 3284   2.472   1.827  14.617  0.2570 -0.3928  0.1238
  195MPD2    C1 3285   2.427   1.724  14.690 -0.0933 -0.0904  0.0607
  195MPD2    C2 3286   2.317   1.648  14.651 -0.0262  0.5666  0.0313
  195MPD2    C3 3287   2.242   1.698  14.544  0.5474  0.4045  0.0517
  195MPD2    C4 3288   2.281   1.810  14.482 -0.1418  0.2422  0.4835
  195MPD2    C5 3289   2.399   1.866  14.512  0.0756 -0.0092 -0.7092
  195MPD2     H 3290   2.271   1.566  14.706  1.8436 -0.3372  0.2247
  195MPD2    H1 3291   2.224   1.849  14.398 -0.9391 -1.2667  0.3215
  195MPD2    H2 3292   2.571   1.871  14.626  0.5576 -0.8232 -1.1545
  195MPD2    H3 3293   2.426   1.960  14.464  0.6470 -0.4092 -1.1716
  195MPD2     N 3294   2.114   1.647  14.504 -0.4277 -1.4159 -0.5099
  195MPD2    H5 3295   2.062   1.708  14.442 -0.0096 -0.9722 -0.4295
  195MPD2    N1 3296   2.493   1.695  14.814 -0.5503  0.0232  0.0396
  195MPD2    H7 3297   2.577   1.750  14.831 -1.3050  1.1834 -0.0302
  196MPD2     C 3298   3.084   2.211  15.198 -0.1889 -0.3991 -0.1094
  196MPD2    C1 3299   3.014   2.215  15.081  0.6999  0.0779 -0.6441
  196MPD2    C2 3300   2.938   2.099  15.050  0.1779 -0.4609  0.1896
  196MPD2    C3 3301   2.938   1.989  15.138  0.6572  0.2678 -0.1914
  196MPD2    C4 3302   3.008   1.993  15.254  0.3327 -0.6440  0.2323
  196MPD2    C5 3303   3.086   2.104  15.271  0.7574  0.0785 -0.3907
  196MPD2     H 3304   2.883   2.103  14.957 -0.2946  0.5477  0.5108
  196MPD2    H1 3305   3.006   1.910  15.324 -0.5886 -1.0890 -0.3234
  196MPD2    H2 3306   3.141   2.299  15.226  0.1289  0.4348 -3.4172
  196MPD2    H3 3307   3.157   2.087  15.350  1.1363  1.1898 -0.4983
  196MPD2     N 3308   2.856   1.881  15.099 -0.2166  0.2510  0.2326
  196MPD2    H5 3309   2.816   1.872  15.007 -0.0980  0.6743  0.1347
  196MPD2    N1 3310   3.001   2.332  15.004  0.0994 -0.6238  0.1188
  196MPD2    H7 3311   2.939   2.323  14.925  0.0089  0.1150  0.1077
  197MPD2     C 3312   3.516   0.537  11.835  0.4780 -0.2194  0.3128
  197MPD2    C1 3313   3.540   0.612  11.944  0.3812  0.7001  0.3417
  197MPD2    C2 3314   3.655   0.581  12.013  0.7940  0.1929  0.1555
  197MPD2    C3 3315   3.742   0.487  11.977  0.3988  0.0800  0.1939
  197MPD2    C4 3316   3.722   0.410  11.864 -0.2625  0.1608 -0.4437
  197MPD2    C5 3317   3.605   0.451  11.795 -0.7313  0.4591 -0.8081
  197MPD2     H 3318   3.669   0.631  12.109 -0.4605 -0.1698  0.5300
  197MPD2    H1 3319   3.795   0.348  11.814  0.9476 -0.1577  1.7224
  197MPD2    H2 3320   3.430   0.559  11.773  0.8522 -0.1469 -0.1824
  197MPD2    H3 3321   3.596   0.408  11.697 -0.1536 -2.0181  0.2397
  197MPD2     N 3322   3.849   0.463  12.070  0.5909  0.6356  0.1560
  197MPD2    H5 3323   3.847   0.519  12.154  0.1946 -0.5408  0.9396
  197MPD2    N1 3324   3.446   0.706  11.987 -0.2594 -0.3266  0.5744
  197MPD2    H7 3325   3.353   0.714  11.947  1.0892  1.5971 -2.2190
  198MPD2     C 3326   3.545   1.467  11.862 -0.1113  0.0645  0.8182
  198MPD2    C1 3327   3.432   1.405  11.837  0.5468 -0.5902 -0.1066
  198MPD2    C2 3328   3.355   1.452  11.734  0.3955  0.3241  0.1310
  198MPD2    C3 3329   3.395   1.562  11.664 -0.2963  0.4650 -0.3158
  198MPD2    C4 3330   3.524   1.609  11.678  0.6084  0.5430 -0.4356
  198MPD2    C5 3331   3.596   1.569  11.785 -0.4935 -0.1933 -0.1304
  198MPD2     H 3332   3.256   1.416  11.707  0.5622 -0.1748  0.1854
  198MPD2    H1 3333   3.557   1.688  11.612 -0.3654  0.9348 -0.4409
  198MPD2    H2 3334   3.613   1.441  11.942 -2.4681 -4.0311  1.4702
  198MPD2    H3 3335   3.694   1.609  11.808 -0.3848 -0.0361 -0.8989
  198MPD2     N 3336   3.301   1.615  11.569  0.6099 -0.4098  0.4643
  198MPD2    H5 3337   3.207   1.577  11.578 -0.3208  2.2651  1.8990
  198MPD2    N1 3338   3.385   1.288  11.913 -0.5188  0.6923  0.5474
  198MPD2    H7 3339   3.441   1.268  11.995  0.4068 -1.8887 -0.6933
  199MPD2     C 3340   2.675   0.847  11.884 -0.5127 -0.0942  0.3500
  199MPD2    C1 3341   2.806   0.805  11.878 -0.3802  0.0994 -0.3771
  199MPD2    C2 3342   2.822   0.690  11.800 -0.0911  0.1080 -0.2359
  199MPD2    C3 3343   2.720   0.630  11.726 -0.1411 -0.7273 -0.2106
  199MPD2    C4 3344   2.588   0.677  11.742  0.2394 -0.3181  0.0008
  199MPD2    C5 3345   2.570   0.780  11.826 -0.9290  0.2885  0.6573
  199MPD2     H 3346   2.921   0.647  11.800 -0.7552 -1.4085 -1.1067
  199MPD2    H1 3347   2.506   0.629  11.690 -0.2635  0.0904  0.4068
  199MPD2    H2 3348   2.656   0.936  11.943 -0.7664  0.5438 -0.6908
  199MPD2    H3 3349   2.475   0.832  11.830 -1.4994 -0.5800 -1.6257
  199MPD2     N 3350   2.747   0.515  11.651  0.1848 -0.7706  0.4905
  199MPD2    H5 3351   2.673   0.479  11.591  1.5261 -0.8799 -1.1022
  199MPD2    N1 3352   2.918   0.874  11.942  0.7992  0.0498  0.0456
  199MPD2    H7 3353   2.900   0.961  11.992 -3.0508 -2.1816  2.5131
  200MPD2     C 3354   2.036   0.793  11.398  0.0523 -0.5008  0.2775
  200MPD2    C1 3355   2.155   0.806  11.333 -0.5780 -0.5068 -0.5060
  200MPD2    C2 3356   2.152   0.773  11.200  1.1013  0.1327  0.4960
  200MPD2    C3 3357   2.040   0.735  11.137  0.8459  0.5640 -0.4513
  200MPD2    C4 3358   1.921   0.721  11.206 -1.0685 -0.4408 -0.0786
  200MPD2    C5 3359   1.920   0.756  11.341 -0.0071 -0.1918  0.5075
  200MPD2     H 3360   2.244   0.764  11.143  0.8452 -0.8140  0.2380
  200MPD2    H1 3361   1.832   0.675  11.166 -0.4001 -2.0694  0.3178
  200MPD2    H2 3362   2.034   0.811  11.505 -0.8479 -1.4795  0.4261
  200MPD2    H3 3363   1.832   0.738  11.402 -0.5258 -2.7339 -1.0241
  200MPD2     N 3364   2.051   0.692  11.004 -0.0774  0.0986  0.5557
  200MPD2    H5 3365   2.146   0.685  10.967 -0.9074  0.0349 -1.6067
  200MPD2    N1 3366   2.275   0.839  11.400 -0.3464  0.7464 -0.3560
  200MPD2    H7 3367   2.267   0.869  11.496 -0.0649  1.8876 -0.6904
  201MPD2     C 3368   1.951   0.858  10.215  0.4224  0.1194 -0.4808
  201MPD2    C1 3369   1.870   0.790  10.303 -0.1678  0.5583  0.4814
  201MPD2    C2 3370   1.730   0.782  10.279  0.6975 -0.1437 -0.0109
  201MPD2    C3 3371   1.671   0.846  10.178  0.7610  0.1137  0.5691
  201MPD2    C4 3372   1.754   0.930  10.107 -0.4527  0.0711 -0.0099
  201MPD2    C5 3373   1.891   0.937  10.118  0.0616 -0.0653 -0.1320
  201MPD2     H 3374   1.675   0.713  10.342 -0.7273  0.2372 -0.8337
  201MPD2    H1 3375   1.707   0.998  10.036  0.4860  1.9564  1.1619
  201MPD2    H2 3376   2.057   0.872  10.234  0.7840 -2.3188 -0.6525
  201MPD2    H3 3377   1.948   1.008  10.059 -1.2191  0.6541 -0.5099
  201MPD2     N 3378   1.530   0.846  10.151  0.0092 -0.4695  0.0768
  201MPD2    H5 3379   1.502   0.900  10.069  0.7622 -1.2437 -0.6913
  201MPD2    N1 3380   1.909   0.724  10.422  0.0478  0.3797  0.2139
  201MPD2    H7 3381   1.842   0.701  10.494  0.8289 -0.2442  0.7541
  202MPD2     C 3382   2.593   0.008  10.855  0.4966 -0.0452  0.0535
  202MPD2    C1 3383   2.578   0.081  10.971 -0.2342 -0.0966  0.0568
  202MPD2    C2 3384   2.489   0.192  10.961  0.3100 -0.9041 -0.0128
  202MPD2    C3 3385   2.435   0.236  10.836 -0.0112  0.5642  0.3138
  202MPD2    C4 3386   2.468   0.160  10.727  0.1148  0.3510  0.4225
  202MPD2    C5 3387   2.557   0.059  10.732  0.0266  0.0597 -0.3737
  202MPD2     H 3388   2.475   0.262  11.043 -0.7758 -1.6715  0.4579
  202MPD2    H1 3389   2.429   0.178  10.627 -0.5808 -0.3204  0.5787
  202MPD2    H2 3390   2.658   4.698  10.860 -0.9689 -1.0518  1.9100
  202MPD2    H3 3391   2.587   0.010  10.640  0.3484  1.6518 -1.1046
  202MPD2     N 3392   2.341   0.341  10.828  0.6332 -0.2400 -0.7875
  202MPD2    H5 3393   2.313   0.376  10.919  2.4035 -1.9841  0.4374
  202MPD2    N1 3394   2.631   0.033  11.093 -0.2877  0.1936  0.4173
  202MPD2    H7 3395   2.675   4.718  11.087  1.8250  1.2194  0.2164
  203MPD2     C 3396   3.426   3.792   8.529  0.6531  0.0479  0.2121
  203MPD2    C1 3397   3.322   3.850   8.454  0.8012 -0.1174 -0.2774
  203MPD2    C2 3398   3.305   3.795   8.327 -0.0190  0.5892  0.6474
  203MPD2    C3 3399   3.395   3.696   8.280 -0.0017 -0.3285  0.1440
  203MPD2    C4 3400   3.490   3.646   8.363  0.9614  0.0676  0.5350
  203MPD2    C5 3401   3.500   3.692   8.487 -0.7848  0.3710  0.1506
  203MPD2     H 3402   3.221   3.832   8.270 -2.5345 -0.3321  3.7656
  203MPD2    H1 3403   3.552   3.562   8.332  0.3879 -0.2251  0.1794
  203MPD2    H2 3404   3.460   3.837   8.621 -0.0344  0.4131  0.2875
  203MPD2    H3 3405   3.585   3.669   8.551  0.2696 -1.3011 -1.8338
  203MPD2     N 3406   3.393   3.648   8.150 -0.1287  0.2676  0.0324
  203MPD2    H5 3407   3.472   3.592   8.121 -0.5852 -0.1732 -0.3757
  203MPD2    N1 3408   3.264   3.965   8.514  0.4642  0.2865  0.0346
  203MPD2    H7 3409   3.289   3.974   8.612  0.3367  1.6644 -0.0670
  204MPD2     C 3410   4.127   3.517   7.746 -0.0785 -0.6905 -0.1182
  204MPD2    C1 3411   4.069   3.603   7.841 -0.1756 -0.5043 -0.2160
  204MPD2    C2 3412   3.935   3.609   7.858 -0.4897 -0.5090  0.1901
  204MPD2    C3 3413   3.846   3.544   7.774  0.0370 -0.5997  0.2822
  204MPD2    C4 3414   3.904   3.455   7.685 -0.4078 -0.7678 -0.5666
  204MPD2    C5 3415   4.042   3.445   7.668  0.2096  0.7001  0.2489
  204MPD2     H 3416   3.900   3.672   7.939 -0.0749 -0.0035 -0.0212
  204MPD2    H1 3417   3.840   3.411   7.611 -1.3664  3.7696 -2.4427
  204MPD2    H2 3418   4.235   3.503   7.746 -0.0836 -0.7481  1.4868
  204MPD2    H3 3419   4.087   3.388   7.587 -1.3524  1.5382 -1.2176
  204MPD2     N 3420   3.710   3.578   7.782 -0.4288  0.0819 -0.1674
  204MPD2    H5 3421   3.682   3.651   7.847  1.1042  1.4784 -1.0616
  204MPD2    N1 3422   4.156   3.691   7.906  0.0234  0.3215 -0.2952
  204MPD2    H7 3423   4.250   3.658   7.890  0.7068  2.4239 -0.7197
  205MPD2     C 3424   2.664   3.462   7.451  0.4279  0.5705 -0.5996
  205MPD2    C1 3425   2.674   3.598   7.483  0.8968 -0.0616 -0.4201
  205MPD2    C2 3426   2.793   3.638   7.542  0.2769 -0.2224 -0.4882
  205MPD2    C3 3427   2.904   3.550   7.566  0.6822  0.6230 -0.2130
  205MPD2    C4 3428   2.882   3.413   7.544 -0.7250 -0.1385  0.6772
  205MPD2    C5 3429   2.762   3.371   7.484 -0.0665  0.0458 -0.0018
  205MPD2     H 3430   2.811   3.738   7.582  0.9542 -0.3694 -0.4202
  205MPD2    H1 3431   2.953   3.335   7.570 -1.4986 -1.4188 -1.0034
  205MPD2    H2 3432   2.577   3.413   7.410 -1.2835  2.6576  0.5259
  205MPD2    H3 3433   2.737   3.266   7.470  3.4313 -1.0855  2.2926
  205MPD2     N 3434   3.019   3.599   7.630  0.2611 -0.6573 -0.1217
  205MPD2    H5 3435   3.027   3.696   7.660 -1.9968 -1.0496  1.7167
  205MPD2    N1 3436   2.557   3.681   7.469 -0.0069  0.1103  0.0922
  205MPD2    H7 3437   2.478   3.637   7.424 -0.0923  2.0067 -1.5872
  206MPD2     C 3438   3.624   2.357  11.102 -0.3995  0.5655  0.7456
  206MPD2    C1 3439   3.716   2.306  11.187 -0.6938  0.0053  0.0195
  206MPD2    C2 3440   3.734   2.365  11.317  0.2646  0.6442  0.2356
  206MPD2    C3 3441   3.659   2.476  11.358 -0.4651  0.7197  0.7480
  206MPD2    C4 3442   3.560   2.517  11.275  0.9198  0.8979  0.1539
  206MPD2    C5 3443   3.544   2.468  11.144 -1.0959 -0.5270 -0.4057
  206MPD2     H 3444   3.807   2.326  11.387  1.2287 -1.4795 -1.9543
  206MPD2    H1 3445   3.500   2.602  11.306  1.0536  0.4839  1.5685
  206MPD2    H2 3446   3.612   2.328  10.998  0.5161  2.4136  0.1378
  206MPD2    H3 3447   3.484   2.527  11.076  0.5209  0.1556 -1.2394
  206MPD2     N 3448   3.680   2.529  11.485  0.4456 -0.4994  0.2213
  206MPD2    H5 3449   3.731   2.471  11.551 -2.7792 -2.0510  1.3151
  206MPD2    N1 3450   3.808   2.215  11.134  0.8353  0.2040  0.0887
  206MPD2    H7 3451   3.784   2.185  11.040 -1.5103  1.5683  0.2645
  207MPD2     C 3452   3.570   1.794  10.715 -0.6490  0.4893  0.3468
  207MPD2    C1 3453   3.616   1.750  10.843  0.6156  0.4150  0.0699
  207MPD2    C2 3454   3.532   1.645  10.903  0.0465 -0.0919 -0.4157
  207MPD2    C3 3455   3.416   1.598  10.838 -0.3425  0.5016 -0.0397
  207MPD2    C4 3456   3.372   1.667  10.721 -0.5402 -0.6933 -0.3426
  207MPD2    C5 3457   3.453   1.753  10.664 -0.1113  0.1168  0.5440
  207MPD2     H 3458   3.561   1.593  10.994  1.1361 -1.4179 -1.5183
  207MPD2    H1 3459   3.283   1.653  10.660 -0.4752  0.4427 -0.6981
  207MPD2    H2 3460   3.633   1.860  10.657  0.2125  1.2072  2.0843
  207MPD2    H3 3461   3.425   1.791  10.566  1.5503 -0.7175 -0.2587
  207MPD2     N 3462   3.331   1.508  10.905 -0.2787  0.0803 -0.0132
  207MPD2    H5 3463   3.347   1.488  11.003  1.1987 -1.9782 -0.6845
  207MPD2    N1 3464   3.728   1.804  10.910  0.4139  0.2332  0.9175
  207MPD2    H7 3465   3.787   1.876  10.869  1.7938 -0.1283  2.2458
  208MPD2     C 3466   4.123   1.509  11.765  0.5222 -0.6394  0.0263
  208MPD2    C1 3467   4.017   1.466  11.682 -0.4007 -0.1872 -0.3665
  208MPD2    C2 3468   3.998   1.527  11.554 -0.1840 -0.7824 -0.5383
  208MPD2    C3 3469   4.088   1.623  11.513 -0.2855 -0.3739 -0.3548
  208MPD2    C4 3470   4.191   1.663  11.597  0.1848 -0.1559  0.0698
  208MPD2    C5 3471   4.207   1.604  11.721  0.2119  0.1637  0.1181
  208MPD2     H 3472   3.912   1.489  11.499 -0.4074  1.6359 -1.8399
  208MPD2    H1 3473   4.261   1.742  11.571  0.9337 -0.1254  2.2090
  208MPD2    H2 3474   4.149   1.465  11.861 -1.6881  0.1113  0.9775
  208MPD2    H3 3475   4.285   1.648  11.783  0.0694 -0.8635  1.0255
  208MPD2     N 3476   4.067   1.693  11.387 -0.3391 -0.2031  0.2096
  208MPD2    H5 3477   3.981   1.673  11.338  0.0062  0.5471 -0.6953
  208MPD2    N1 3478   3.935   1.359  11.738  0.5542 -0.8285  0.0581
  208MPD2    H7 3479   3.950   1.340  11.836 -2.1614  0.2758  0.7024
  209MPD2     C 3480   0.482   4.737   9.906 -0.5476  0.1450  0.1366
  209MPD2    C1 3481   0.386   0.046   9.852 -0.5955 -0.2577 -0.0936
  209MPD2    C2 3482   0.302   0.002   9.750  0.1980 -0.1918  0.0915
  209MPD2    C3 3483   0.325   4.653   9.703  0.4014  0.0528  0.1373
  209MPD2    C4 3484   0.433   4.579   9.740 -0.0065 -0.6644 -0.6969
  209MPD2    C5 3485   0.508   4.622   9.846 -0.0850 -0.2960 -0.7960
  209MPD2     H 3486   0.216   0.059   9.716  0.2487  0.9690  1.9432
  209MPD2    H1 3487   0.464   4.482   9.701  1.3634 -0.9666  1.1382
  209MPD2    H2 3488   0.542   4.772   9.990 -0.2176 -0.2232  0.0539
  209MPD2    H3 3489   0.588   4.555   9.874  0.6171  0.3864 -1.1518
  209MPD2     N 3490   0.242   4.588   9.605  0.0750 -0.0291 -0.7044
  209MPD2    H5 3491   0.269   4.498   9.569 -1.8829 -0.4267 -1.1739
  209MPD2    N1 3492   0.358   0.177   9.905 -0.0059  0.3363 -0.4767
  209MPD2    H7 3493   0.290   0.233   9.853  1.1988  0.6764 -1.6671
  210MPD2     C 3494   0.672   0.963   9.616  0.7579  0.3793 -0.0486
  210MPD2    C1 3495   0.545   0.996   9.650 -0.0125 -0.3887  0.1796
  210MPD2    C2 3496   0.491   0.931   9.755 -0.0420  0.4828  0.5037
  210MPD2    C3 3497   0.553   0.831   9.829  0.0735 -0.1578  0.1167
  210MPD2    C4 3498   0.683   0.809   9.800  0.6161  0.1494 -0.4739
  210MPD2    C5 3499   0.739   0.870   9.693  0.4965 -0.6638  0.0110
  210MPD2     H 3500   0.390   0.954   9.787 -1.6488 -1.4069 -3.1253
  210MPD2    H1 3501   0.742   0.731   9.846 -0.1150  0.1282  0.4362
  210MPD2    H2 3502   0.721   1.008   9.530  0.4381 -1.3989 -1.1637
  210MPD2    H3 3503   0.836   0.841   9.656  0.0639 -0.7980 -1.0100
  210MPD2     N 3504   0.478   0.763   9.919  0.2444 -0.4250  0.7739
  210MPD2    H5 3505   0.377   0.766   9.913  0.3761  1.3255 -0.2819
  210MPD2    N1 3506   0.463   1.086   9.568 -1.2454  0.4650 -0.0680
  210MPD2    H7 3507   0.510   1.131   9.491  0.4213  0.6062  1.0476
  211MPD2     C 3508   4.567   0.611  10.006  0.2280 -0.2574  0.1211
  211MPD2    C1 3509   4.631   0.504   9.936  0.1768 -0.5680 -1.3102
  211MPD2    C2 3510   4.557   0.404   9.875  1.2561 -0.0852  0.7060
  211MPD2    C3 3511   4.417   0.407   9.894 -0.7073 -0.5434 -0.0878
  211MPD2    C4 3512   4.361   0.519   9.952 -0.8585  0.6559  0.0183
  211MPD2    C5 3513   4.430   0.617  10.005 -0.8269  0.4862 -0.2301
  211MPD2     H 3514   4.614   0.325   9.828 -0.1247  0.5630 -1.9974
  211MPD2    H1 3515   4.257   0.513   9.981 -0.5253 -2.2954  0.7092
  211MPD2    H2 3516   4.610   0.696  10.057 -1.2077 -0.3517  1.4981
  211MPD2    H3 3517   4.372   0.683  10.069 -0.8533 -0.2107  0.4572
  211MPD2     N 3518   4.335   0.298   9.863 -0.0309 -0.0631 -0.3212
  211MPD2    H5 3519   4.237   0.312   9.887  0.1220 -0.9981  0.8671
  211MPD2    N1 3520   4.776   0.507   9.932 -0.3124  0.4309 -0.0562
  211MPD2    H7 3521   0.044   0.436   9.873  2.5924  2.9618 -0.9507
  212MPD2     C 3522   4.019   0.726  14.273  0.1087  0.3033 -0.2489
  212MPD2    C1 3523   3.900   0.688  14.210 -0.2256  0.2362 -0.5428
  212MPD2    C2 3524   3.888   0.552  14.180 -0.4814  0.2440 -0.1684
  212MPD2    C3 3525   3.993   0.462  14.199  0.4971  0.8812  0.0792
  212MPD2    C4 3526   4.109   0.505  14.250  0.0424  0.3628  0.0379
  212MPD2    C5 3527   4.120   0.638  14.285  0.1429 -0.2325 -0.5789
  212MPD2     H 3528   3.797   0.503  14.148 -0.6098 -0.1739  0.8633
  212MPD2    H1 3529   4.200   0.446  14.256  0.6177  1.1899 -0.5693
  212MPD2    H2 3530   4.043   0.821  14.318 -0.8363  0.9706 -1.1657
  212MPD2    H3 3531   4.219   0.659  14.322 -0.2092 -0.4075  0.4850
  212MPD2     N 3532   3.965   0.323  14.175 -0.1799 -0.2990 -0.5423
  212MPD2    H5 3533   3.876   0.295  14.135 -1.2922  2.7811 -0.2139
  212MPD2    N1 3534   3.786   0.781  14.203 -0.2625  0.5776 -0.0153
  212MPD2    H7 3535   3.702   0.747  14.157  0.3545 -0.7543 -0.1411
  213MPD2     C 3536   4.288   4.290  14.080  0.7402 -0.1389 -0.3634
  213MPD2    C1 3537   4.302   4.413  14.024  0.5992  0.1907  0.0479
  213MPD2    C2 3538   4.415   4.440  13.948  0.4438  0.0186  0.5297
  213MPD2    C3 3539   4.516   4.346  13.919  0.4936 -0.1561 -0.8585
  213MPD2    C4 3540   4.500   4.220  13.975  0.2329  0.0064 -0.0879
  213MPD2    C5 3541   4.392   4.198  14.056 -0.3099  0.0886  0.1121
  213MPD2     H 3542   4.413   4.535  13.896 -1.2794 -0.0343  0.4933
  213MPD2    H1 3543   4.571   4.145  13.942 -0.9253 -1.2504  0.2959
  213MPD2    H2 3544   4.200   4.270  14.140  0.2273 -1.6397 -1.6180
  213MPD2    H3 3545   4.383   4.095  14.089 -0.3706  0.3954  1.0437
  213MPD2     N 3546   4.627   4.373  13.826  0.1429  0.2464  0.0893
  213MPD2    H5 3547   4.698   4.301  13.811 -1.3157 -0.6451 -2.5145
  213MPD2    N1 3548   4.213   4.522  14.044 -0.2037  0.0191  0.3254
  213MPD2    H7 3549   4.215   4.595  13.974  2.4235  0.0778  0.4724
  214MPD2     C 3550   3.089   1.140  10.550  0.0414  0.6208  0.1410
  214MPD2    C1 3551   3.050   1.166  10.419  0.2191 -0.4343 -0.6805
  214MPD2    C2 3552   3.050   1.067  10.324 -1.1139  0.1446  0.2098
  214MPD2    C3 3553   3.099   0.938  10.360 -0.0977  0.2960  0.4858
  214MPD2    C4 3554   3.149   0.918  10.484  1.0701 -0.2173  0.7802
  214MPD2    C5 3555   3.141   1.018  10.581 -0.7654 -0.2848  0.1127
  214MPD2     H 3556   3.006   1.066  10.225  0.3488 -2.3968 -0.4154
  214MPD2    H1 3557   3.194   0.826  10.518  1.5600 -0.1186  0.3970
  214MPD2    H2 3558   3.087   1.218  10.626  0.0778 -0.2569  1.0340
  214MPD2    H3 3559   3.190   1.008  10.678 -2.8323 -0.1121  1.1827
  214MPD2     N 3560   3.110   0.843  10.251 -0.1203  0.0142  0.0178
  214MPD2    H5 3561   3.076   0.862  10.158  0.9339  0.3730 -0.3012
  214MPD2    N1 3562   3.014   1.302  10.392 -0.2260  0.0143 -0.0003
  214MPD2    H7 3563   3.009   1.367  10.470 -0.0705 -1.1482  0.9807
  215MPD2     C 3564   2.671   0.260   9.561 -0.6267  0.3678 -0.6857
  215MPD2    C1 3565   2.804   0.215   9.563  0.5885 -1.0069  0.1821
  215MPD2    C2 3566   2.891   0.269   9.645  0.2712 -0.0168  0.3089
  215MPD2    C3 3567   2.857   0.371   9.731  0.0603  0.4357  0.9580
  215MPD2    C4 3568   2.726   0.408   9.740  0.0006 -0.0448 -0.2381
  215MPD2    C5 3569   2.626   0.356   9.654  0.3894 -0.6479 -0.8048
  215MPD2     H 3570   2.991   0.228   9.640  0.9299  1.3498  2.2043
  215MPD2    H1 3571   2.690   0.486   9.806  1.0175 -1.1303  1.5660
  215MPD2    H2 3572   2.596   0.213   9.499 -0.4694 -2.1789  1.0617
  215MPD2    H3 3573   2.524   0.391   9.650  1.0597  1.3867 -0.2765
  215MPD2     N 3574   2.952   0.442   9.804 -0.1233 -0.5166  0.4039
  215MPD2    H5 3575   3.049   0.430   9.779  0.3235  2.1662  0.8820
  215MPD2    N1 3576   2.836   0.104   9.471  0.2254  0.3381 -0.1469
  215MPD2    H7 3577   2.768   0.096   9.395  0.1442 -1.5105  0.1186
  216MPD2     C 3578   4.656   2.417  11.097  0.7756  1.0149 -0.1637
  216MPD2    C1 3579   4.709   2.290  11.124  0.3716  0.0533 -1.1008
  216MPD2    C2 3580   4.680   2.183  11.032 -0.2426  0.4753  0.1091
  216MPD2    C3 3581   4.619   2.202  10.909  0.2833 -0.2627  0.2120
  216MPD2    C4 3582   4.582   2.334  10.886  0.5789 -0.1373  0.0302
  216MPD2    C5 3583   4.597   2.437  10.978  0.0447  0.1466  0.2626
  216MPD2     H 3584   4.707   2.085  11.067 -3.1893 -0.6660 -0.8394
  216MPD2    H1 3585   4.538   2.367  10.792 -0.4842 -1.9397 -0.1008
  216MPD2    H2 3586   4.664   2.501  11.166 -1.6873  0.2678  1.0329
  216MPD2    H3 3587   4.563   2.537  10.956 -1.2500 -0.2675  0.3823
  216MPD2     N 3588   4.599   2.087  10.825  1.1281  0.1147 -0.3716
  216MPD2    H5 3589   4.639   1.997  10.849  2.1300  0.9541  1.0623
  216MPD2    N1 3590   4.770   2.270  11.251  0.4246 -0.4975  0.0949
  216MPD2    H7 3591   0.001   2.174  11.283 -2.6647 -0.3500  1.1780
  217MPD2     C 3592   0.188   2.729  11.905 -0.2521 -0.1377 -0.2522
  217MPD2    C1 3593   0.181   2.722  11.768  0.0798 -0.2399 -0.0747
  217MPD2    C2 3594   0.145   2.839  11.704 -0.3393  0.0246  0.2827
  217MPD2    C3 3595   0.121   2.963  11.777 -0.0649 -0.3137  0.2147
  217MPD2    C4 3596   0.115   2.956  11.911  0.6033  0.0166 -0.1724
  217MPD2    C5 3597   0.147   2.836  11.975  0.2316  0.0287  0.3431
  217MPD2     H 3598   0.159   2.840  11.596  2.4868  1.9253  0.6741
  217MPD2    H1 3599   0.082   3.032  11.981  1.0781 -1.4355  1.6240
  217MPD2    H2 3600   0.194   2.634  11.956  0.1310  0.6304  1.1282
  217MPD2    H3 3601   0.134   2.830  12.083 -0.7801 -0.5163  0.1837
  217MPD2     N 3602   0.101   3.080  11.697  0.0717 -0.0782 -0.9355
  217MPD2    H5 3603   0.109   3.074  11.596 -0.1941 -0.1015 -0.9553
  217MPD2    N1 3604   0.209   2.610  11.685 -0.3367 -0.4833  0.0622
  217MPD2    H7 3605   0.179   2.620  11.589 -0.8965 -0.5980  0.2282
  218MPD2     C 3606   4.737   1.863  12.136  0.0663  0.1899 -0.1517
  218MPD2    C1 3607   4.666   1.870  12.017 -0.1559  0.7170  0.2362
  218MPD2    C2 3608   4.728   1.910  11.904 -0.4678 -0.1375  0.7454
  218MPD2    C3 3609   0.076   1.964  11.902 -0.2245  0.1574  0.3965
  218MPD2    C4 3610   0.151   1.950  12.019 -0.4008  0.0285 -0.5002
  218MPD2    C5 3611   0.095   1.902  12.135  0.6272 -0.5251 -0.2603
  218MPD2     H 3612   4.671   1.902  11.812  0.0309 -1.2296  0.5371
  218MPD2    H1 3613   0.256   1.976  12.014  0.1378 -2.3603 -2.0630
  218MPD2    H2 3614   4.687   1.838  12.229 -0.9064 -2.4541 -1.4043
  218MPD2    H3 3615   0.153   1.898  12.226  0.3465 -1.4289 -0.1210
  218MPD2     N 3616   0.135   2.019  11.795 -0.1462  0.6060  0.5021
  218MPD2    H5 3617   0.229   2.057  11.807  0.0205 -0.4032  2.3757
  218MPD2    N1 3618   4.533   1.826  12.022 -0.0617  0.1866 -0.1806
  218MPD2    H7 3619   4.501   1.775  12.104 -3.9116  0.5418 -1.4508
  219MPD2     C 3620   3.697   1.564   7.567  0.2476 -0.3076  0.5067
  219MPD2    C1 3621   3.663   1.488   7.677 -0.4187 -0.4171  0.6612
  219MPD2    C2 3622   3.725   1.364   7.682  0.0754  0.5513 -0.2601
  219MPD2    C3 3623   3.831   1.327   7.602 -0.3546 -0.6385  0.2046
  219MPD2    C4 3624   3.858   1.407   7.495  0.7884  0.2243 -0.1811
  219MPD2    C5 3625   3.789   1.517   7.476 -0.1704 -0.3953 -0.3887
  219MPD2     H 3626   3.695   1.302   7.766 -0.0236  0.6719 -0.2054
  219MPD2    H1 3627   3.938   1.380   7.426 -0.2482  2.6562 -2.3046
  219MPD2    H2 3628   3.656   1.664   7.564 -0.3500 -0.5807 -0.7972
  219MPD2    H3 3629   3.819   1.582   7.395 -1.1667 -0.0267 -0.4634
  219MPD2     N 3630   3.903   1.209   7.627  0.1111 -0.0827 -0.0980
  219MPD2    H5 3631   3.947   1.172   7.543  3.6252  1.4570  1.0177
  219MPD2    N1 3632   3.554   1.527   7.757 -0.2910 -0.1163 -0.0901
  219MPD2    H7 3633   3.491   1.600   7.726 -1.1688 -1.2516 -0.9936
  220MPD2     C 3634   3.463   1.537   8.567  0.5994 -0.2325 -0.2095
  220MPD2    C1 3635   3.539   1.557   8.457 -0.4131  0.4848  0.1760
  220MPD2    C2 3636   3.672   1.525   8.461  0.2663  0.3408 -0.7269
  220MPD2    C3 3637   3.740   1.495   8.575  0.0127  0.3437 -0.6709
  220MPD2    C4 3638   3.658   1.479   8.686  0.0396  0.2785  0.3087
  220MPD2    C5 3639   3.525   1.509   8.678 -0.9028 -0.3093 -0.4027
  220MPD2     H 3640   3.723   1.530   8.366 -0.2935 -0.0090 -1.0495
  220MPD2    H1 3641   3.702   1.443   8.778  0.2212  1.7032  0.7793
  220MPD2    H2 3642   3.358   1.568   8.565  1.4609  2.9839  3.9435
  220MPD2    H3 3643   3.474   1.504   8.773 -0.9129 -0.8604 -0.4321
  220MPD2     N 3644   3.874   1.448   8.587  0.3081  0.0439 -0.0129
  220MPD2    H5 3645   3.899   1.423   8.683 -0.6104  0.9569  0.4653
  220MPD2    N1 3646   3.490   1.594   8.331 -0.1732 -0.3012 -0.4030
  220MPD2    H7 3647   3.554   1.601   8.253 -0.3814 -1.9500 -0.7195
  221MPD2     C 3648   3.033   2.158   7.930  0.2193  0.6506 -0.5363
  221MPD2    C1 3649   3.150   2.104   7.885  0.4147  0.4620 -0.3060
  221MPD2    C2 3650   3.218   2.172   7.782  0.2291  0.0153 -0.3414
  221MPD2    C3 3651   3.169   2.292   7.724 -0.7437 -0.4334 -0.6799
  221MPD2    C4 3652   3.053   2.348   7.786  0.0887  0.1727  0.4246
  221MPD2    C5 3653   2.991   2.275   7.881 -0.4506  0.2097 -0.1892
  221MPD2     H 3654   3.300   2.121   7.733  0.8502  0.2788  0.4383
  221MPD2    H1 3655   2.998   2.428   7.738  1.6983  0.2140 -1.3758
  221MPD2    H2 3656   2.973   2.110   8.006 -2.8739  2.4023 -1.8751
  221MPD2    H3 3657   2.894   2.301   7.923 -0.8943 -1.2588 -0.3047
  221MPD2     N 3658   3.208   2.350   7.600  0.9182 -0.2987 -0.2686
  221MPD2    H5 3659   3.145   2.418   7.559 -0.2173  0.0488  2.0370
  221MPD2    N1 3660   3.193   1.981   7.942  0.2626 -0.0538  0.1475
  221MPD2    H7 3661   3.137   1.950   8.021 -0.1255 -1.6654 -0.7607
  222MPD2     C 3662   3.911   3.899  15.055  0.9272  0.1642 -0.1916
  222MPD2    C1 3663   3.769   3.896  15.063  0.6421  0.8273  0.0433
  222MPD2    C2 3664   3.715   3.945  15.187 -0.2718 -0.3675  1.3566
  222MPD2    C3 3665   3.791   3.979  15.302  0.7562 -0.4199 -0.4112
  222MPD2    C4 3666   3.928   3.984  15.284 -0.8021  0.0075 -0.4335
  222MPD2    C5 3667   3.983   3.940  15.166  0.6039  0.5776 -0.9588
  222MPD2     H 3668   3.607   3.948  15.195 -0.2073  1.3244  1.7549
  222MPD2    H1 3669   3.994   4.015  15.363 -0.5315  1.1574 -1.1079
  222MPD2    H2 3670   3.962   3.867  14.965  0.1187  0.2941 -0.7002
  222MPD2    H3 3671   4.091   3.942  15.164  0.6172  0.9848  0.8853
  222MPD2     N 3672   3.742   4.021  15.434  0.3999 -0.3215 -0.0697
  222MPD2    H5 3673   3.805   4.081  15.485 -0.8019  1.3408 -0.5276
  222MPD2    N1 3674   3.682   3.852  14.960  0.1207 -0.1576  0.8741
  222MPD2    H7 3675   3.584   3.878  14.967  0.1359  0.0269  0.4054
  223MPD2     C 3676   2.948   4.531  15.653  0.0230 -0.0929  0.0909
  223MPD2    C1 3677   3.053   4.540  15.562  0.3369  0.0901 -0.2375
  223MPD2    C2 3678   3.165   4.463  15.584  0.0741 -0.3152 -0.1952
  223MPD2    C3 3679   3.180   4.385  15.693  0.0066 -0.1138 -0.1641
  223MPD2    C4 3680   3.079   4.381  15.786 -0.3570  0.6120 -0.1990
  223MPD2    C5 3681   2.960   4.442  15.760 -0.0692  0.2228  0.3395
  223MPD2     H 3682   3.249   4.472  15.516  0.1197  0.2593 -0.0603
  223MPD2    H1 3683   3.077   4.316  15.872  1.1347  0.1755 -0.4951
  223MPD2    H2 3684   2.853   4.580  15.637  0.3789  0.8932  0.9902
  223MPD2    H3 3685   2.876   4.443  15.827  0.9400  0.7293  1.5985
  223MPD2     N 3686   3.294   4.300  15.701 -0.2809  0.1365 -0.5619
  223MPD2    H5 3687   3.360   4.301  15.623  1.7758 -0.4335  1.1770
  223MPD2    N1 3688   3.042   4.599  15.441 -0.1656 -0.4849 -0.1231
  223MPD2    H7 3689   3.123   4.591  15.380  0.1895  0.9781  0.1369
  224MPD2     C 3690   4.261   3.942  15.989  0.2946 -0.2149  0.4262
  224MPD2    C1 3691   4.200   4.062  16.000  0.3624  1.0253 -0.2512
  224MPD2    C2 3692   4.063   4.073  15.983  0.3834 -0.2781 -0.0422
  224MPD2    C3 3693   3.995   3.966  15.935 -0.0499  0.4980 -0.8641
  224MPD2    C4 3694   4.059   3.844  15.937  0.2533 -0.4816 -0.4555
  224MPD2    C5 3695   4.189   3.835  15.974 -0.4527 -0.3921 -0.4121
  224MPD2     H 3696   4.019   4.172  15.981  0.2635 -0.2987  1.5248
  224MPD2    H1 3697   4.003   3.753  15.918  0.2661 -1.2690  3.3393
  224MPD2    H2 3698   4.365   3.940  16.017 -0.5488 -0.3945  3.6058
  224MPD2    H3 3699   4.239   3.739  15.980 -0.3032 -0.2444  0.6486
  224MPD2     N 3700   3.864   3.962  15.895 -0.0798 -0.8293 -0.2963
  224MPD2    H5 3701   3.829   3.874  15.857 -0.3467 -0.0107 -1.9768
  224MPD2    N1 3702   4.284   4.166  16.035 -0.1277 -0.1332 -0.1561
  224MPD2    H7 3703   4.380   4.148  16.061 -0.5596 -1.0455  0.7756
  225MPD2     C 3704   4.637   4.727  10.835  0.9608  0.6409 -0.0805
  225MPD2    C1 3705   4.682   4.619  10.903 -0.1097 -0.3784 -0.4534
  225MPD2    C2 3706   0.012   4.553  10.856 -0.5012 -1.0140  0.2338
  225MPD2    C3 3707   0.082   4.582  10.742 -0.0207  0.5339  1.1291
  225MPD2    C4 3708   0.044   4.695  10.676  0.0326  0.7906 -0.1627
  225MPD2    C5 3709   4.714   4.767  10.723 -0.7592 -0.2517  0.8691
  225MPD2     H 3710   0.033   4.462  10.911  1.4424 -1.1126 -0.6720
  225MPD2    H1 3711   0.088   4.732  10.584  1.7250 -0.5812  0.1133
  225MPD2    H2 3712   4.550   0.014  10.852 -0.4113 -1.0548 -0.8240
  225MPD2    H3 3713   4.686   0.083  10.672 -0.8543 -1.4909 -1.3073
  225MPD2     N 3714   0.181   4.486  10.699  0.5745 -0.5571 -0.7736
  225MPD2    H5 3715   0.209   4.409  10.759 -0.8643 -0.1357  0.4166
  225MPD2    N1 3716   4.614   4.575  11.019  0.1229 -0.2033 -0.1386
  225MPD2    H7 3717   4.653   4.508  11.084  0.6073  0.4261  0.2136
  226MPD2     C 3718   4.409   3.687  10.074  0.1950 -0.7342  0.6244
  226MPD2    C1 3719   4.503   3.716  10.173 -0.7168  0.0179 -0.1178
  226MPD2    C2 3720   4.583   3.823  10.155  0.1976  0.0110 -0.1676
  226MPD2    C3 3721   4.575   3.900  10.043 -0.3963 -0.7337  0.3231
  226MPD2    C4 3722   4.482   3.876   9.945 -0.0604 -0.1569 -0.6740
  226MPD2    C5 3723   4.402   3.771   9.962 -0.5757 -0.2549 -0.5773
  226MPD2     H 3724   4.668   3.843  10.219 -0.9048  1.3974  0.8672
  226MPD2    H1 3725   4.455   3.941   9.863 -0.0276  0.2368 -0.3699
  226MPD2    H2 3726   4.323   3.625  10.096 -0.0720 -0.5589  0.0764
  226MPD2    H3 3727   4.319   3.767   9.894 -1.3361  0.0449  0.3309
  226MPD2     N 3728   4.656   4.015  10.033 -0.0856 -0.3983  0.0463
  226MPD2    H5 3729   4.733   4.023  10.100  2.2892  1.2584 -2.8812
  226MPD2    N1 3730   4.512   3.634  10.295  0.3580  0.1072 -0.1446
  226MPD2    H7 3731   4.574   3.666  10.368  3.8056 -1.5998 -2.3382
  227MPD2     C 3732   0.700   4.147  10.322 -0.0285  0.4004  0.1730
  227MPD2    C1 3733   0.691   4.236  10.222 -0.3308 -0.6743  0.9868
  227MPD2    C2 3734   0.575   4.235  10.144 -0.8902 -0.4554  0.3837
  227MPD2    C3 3735   0.468   4.149  10.171 -0.4654 -0.1911 -0.6285
  227MPD2    C4 3736   0.482   4.056  10.274 -0.5367 -0.4197 -0.2959
  227MPD2    C5 3737   0.598   4.055  10.350  0.0315 -1.2377 -0.2992
  227MPD2     H 3738   0.571   4.300  10.057 -0.3489 -1.0623 -0.0951
  227MPD2    H1 3739   0.407   3.980  10.294  0.1973 -1.2394 -0.6979
  227MPD2    H2 3740   0.774   4.157  10.401 -0.2888  0.7013  0.3798
  227MPD2    H3 3741   0.610   3.985  10.432  1.4465 -1.6586 -0.8657
  227MPD2     N 3742   0.348   4.168  10.102  0.3589 -0.3236 -0.2745
  227MPD2    H5 3743   0.270   4.113  10.138  2.1196 -2.7940 -0.2429
  227MPD2    N1 3744   0.788   4.332  10.216 -0.1185 -0.3205  0.1288
  227MPD2    H7 3745   0.865   4.313  10.279 -0.6302  1.6605  1.3296
  228MPD2     C 3746   4.742   0.072  10.046 -0.1255 -0.1818  0.0382
  228MPD2    C1 3747   0.064   4.760  10.081  0.5164  0.3257 -0.6312
  228MPD2    C2 3748   0.148   0.019  10.183 -0.1819 -0.0003 -0.0521
  228MPD2    C3 3749   0.148   0.143  10.240  0.6762 -0.2829 -0.2761
  228MPD2    C4 3750   0.056   0.238  10.199  0.0416 -0.7512 -0.4094
  228MPD2    C5 3751   4.729   0.195  10.115  0.2097 -0.0069  0.6156
  228MPD2     H 3752   0.221   4.721  10.218 -0.0780 -1.2964 -3.0152
  228MPD2    H1 3753   0.061   0.337  10.242 -0.9897 -0.9052  0.0445
  228MPD2    H2 3754   4.676   0.058   9.960  0.6799  0.2240 -0.6475
  228MPD2    H3 3755   4.650   0.263  10.085  0.1597 -1.0939 -1.6507
  228MPD2     N 3756   0.241   0.192  10.335  0.4273 -0.1489 -0.7057
  228MPD2    H5 3757   0.215   0.280  10.380  0.5565  0.4042 -1.7262
  228MPD2    N1 3758   0.076   4.633  10.015 -0.1478  0.0005  0.4924
  228MPD2    H7 3759   0.158   4.585  10.052  2.3062  2.2964 -1.9926
  229MPD2     C 3760   3.868   2.920  13.857  0.1819  0.1398 -0.3258
  229MPD2    C1 3761   3.988   2.847  13.862 -0.1374  0.4511  0.0816
  229MPD2    C2 3762   4.078   2.892  13.959  0.2855 -0.6931  0.1416
  229MPD2    C3 3763   4.055   2.998  14.042 -0.2544 -0.1669 -0.5965
  229MPD2    C4 3764   3.931   3.061  14.035  0.3182 -0.6384  0.6374
  229MPD2    C5 3765   3.838   3.019  13.942 -0.2077 -1.0165 -1.0548
  229MPD2     H 3766   4.168   2.833  13.969  0.8827  0.1977  0.0064
  229MPD2    H1 3767   3.895   3.142  14.097  0.3505  1.2539 -1.8190
  229MPD2    H2 3768   3.800   2.909  13.773  0.8834 -0.7019 -0.7752
  229MPD2    H3 3769   3.743   3.071  13.928  0.7356  0.8417 -0.5465
  229MPD2     N 3770   4.148   3.037  14.144  0.4171 -0.1502  0.0854
  229MPD2    H5 3771   4.129   3.116  14.206 -2.5412 -0.4457 -0.4607
  229MPD2    N1 3772   4.016   2.736  13.781 -0.1569 -0.3082  0.2768
  229MPD2    H7 3773   4.106   2.690  13.789  0.2485  0.6247  1.0551
  230MPD2     C 3774   4.269   3.674  14.360 -0.4980  0.1977 -0.1185
  230MPD2    C1 3775   4.393   3.617  14.345  0.1312 -0.8801  0.7620
  230MPD2    C2 3776   4.510   3.706  14.329 -0.1371 -0.1464  0.0844
  230MPD2    C3 3777   4.486   3.840  14.307  0.3351 -0.2451 -0.6023
  230MPD2    C4 3778   4.357   3.892  14.318  0.9704  0.2986 -0.2478
  230MPD2    C5 3779   4.256   3.805  14.333  0.0465  0.0113  0.4962
  230MPD2     H 3780   4.612   3.669  14.337 -0.2057 -0.5521 -0.9140
  230MPD2    H1 3781   4.337   3.989  14.273 -1.1340  0.2636  0.6358
  230MPD2    H2 3782   4.177   3.622  14.388  0.8520 -0.9417  2.2044
  230MPD2    H3 3783   4.157   3.847  14.319  0.1166  0.1568  0.4346
  230MPD2     N 3784   4.597   3.927  14.293  0.0015  0.5975 -0.3794
  230MPD2    H5 3785   4.569   4.025  14.293 -0.0370  0.5869 -0.2069
  230MPD2    N1 3786   4.427   3.483  14.369 -0.6588  0.5992 -0.5235
  230MPD2    H7 3787   4.520   3.451  14.343  0.4387  1.9191  1.7761
  231MPD2     C 3788   4.685   2.659  14.608  0.1914 -0.1250 -0.1060
  231MPD2    C1 3789   4.612   2.763  14.644 -0.0469 -0.6134 -0.1672
  231MPD2    C2 3790   4.586   2.784  14.776 -0.5861 -0.1267 -0.4977
  231MPD2    C3 3791   4.633   2.701  14.876 -0.0469  0.2810  0.3350
  231MPD2    C4 3792   4.725   2.601  14.839 -0.6108  0.1495 -0.4369
  231MPD2    C5 3793   4.750   2.584  14.703 -0.4964 -0.2135 -0.4757
  231MPD2     H 3794   4.525   2.869  14.804  0.2239  0.2988 -0.0434
  231MPD2    H1 3795   4.770   2.534  14.910 -0.9465  1.0210  0.5919
  231MPD2    H2 3796   4.710   2.643  14.504 -3.0641  1.3093 -1.1280
  231MPD2    H3 3797   0.040   2.501  14.679 -0.5905 -0.5595  0.4644
  231MPD2     N 3798   4.583   2.709  15.007  0.6478 -0.4222  0.3475
  231MPD2    H5 3799   4.625   2.645  15.074  2.4099 -0.4547 -0.7908
  231MPD2    N1 3800   4.569   2.860  14.547 -0.3849 -0.1277 -0.0127
  231MPD2    H7 3801   4.582   2.837  14.449 -0.5214  1.4162 -0.4034
  232MPD2     C 3802   0.877   4.720   8.979 -0.2729  0.1108  0.3850
  232MPD2    C1 3803   1.004   4.713   9.036  0.0930 -1.0278  0.3942
  232MPD2    C2 3804   1.094   4.616   8.997 -0.2973  0.3404 -0.4165
  232MPD2    C3 3805   1.064   4.525   8.902 -0.2040  0.1931  0.2718
  232MPD2    C4 3806   0.941   4.530   8.844 -0.3421 -0.2677 -1.1380
  232MPD2    C5 3807   0.843   4.622   8.884  0.0213 -0.0320 -0.5229
  232MPD2     H 3808   1.189   4.612   9.049 -0.5067  0.9605  0.0251
  232MPD2    H1 3809   0.916   4.467   8.759 -0.5992 -3.2619  1.1941
  232MPD2    H2 3810   0.812   0.027   9.004  1.9590  2.6614 -2.3254
  232MPD2    H3 3811   0.758   4.632   8.817 -0.4749 -1.8147 -0.1518
  232MPD2     N 3812   1.144   4.417   8.869  0.4198  0.6011  0.4175
  232MPD2    H5 3813   1.122   4.360   8.788 -1.5748  1.3272  0.4641
  232MPD2    N1 3814   1.023   0.037   9.141  0.3833 -0.4849  0.0645
  232MPD2    H7 3815   0.943   0.099   9.144  0.4806 -0.2384 -2.6960
  233MPD2     C 3816   1.692   0.606   9.057 -0.3606 -0.4489  0.1816
  233MPD2    C1 3817   1.640   0.553   9.175 -0.7162 -0.4604 -0.2538
  233MPD2    C2 3818   1.701   0.575   9.295 -0.3309  0.4194 -0.3032
  233MPD2    C3 3819   1.818   0.637   9.302 -0.8515  0.0112  1.0285
  233MPD2    C4 3820   1.879   0.684   9.186 -0.4002  0.6499 -0.1110
  233MPD2    C5 3821   1.821   0.659   9.060 -0.0981  0.1360  0.5699
  233MPD2     H 3822   1.657   0.536   9.387 -1.2769  2.4333  0.1119
  233MPD2    H1 3823   1.974   0.736   9.188  0.1584 -0.3853  0.1034
  233MPD2    H2 3824   1.634   0.596   8.967 -2.3771  0.0991  1.4272
  233MPD2    H3 3825   1.870   0.698   8.971  2.8424  0.7848  2.4583
  233MPD2     N 3826   1.882   0.648   9.427 -0.2565  0.2566 -0.0347
  233MPD2    H5 3827   1.828   0.619   9.508 -1.1650  1.2745 -0.2823
  233MPD2    N1 3828   1.522   0.480   9.169  0.5651 -0.6673 -0.2293
  233MPD2    H7 3829   1.476   0.472   9.079 -0.1460 -1.2698  0.1873
  234MPD2     C 3830   0.930   0.601   8.801  0.3728  0.5860  0.1713
  234MPD2    C1 3831   1.064   0.589   8.821 -0.1446  0.4609 -0.0525
  234MPD2    C2 3832   1.143   0.616   8.710  0.2583  0.0861 -0.1973
  234MPD2    C3 3833   1.092   0.650   8.584  0.0711  0.3223 -0.8965
  234MPD2    C4 3834   0.959   0.669   8.573 -0.0738 -0.8365 -0.0277
  234MPD2    C5 3835   0.881   0.642   8.681  0.7536  0.1030 -0.0996
  234MPD2     H 3836   1.251   0.616   8.722  0.1324 -0.1572  0.9106
  234MPD2    H1 3837   0.909   0.699   8.482  0.6156  0.4812  0.0293
  234MPD2    H2 3838   0.859   0.582   8.881  0.7440 -0.2354  0.3050
  234MPD2    H3 3839   0.772   0.634   8.681  0.7745 -0.3309  1.5881
  234MPD2     N 3840   1.169   0.670   8.464  0.1116 -0.0729  0.3993
  234MPD2    H5 3841   1.121   0.684   8.376 -1.5572 -0.1272  1.2891
  234MPD2    N1 3842   1.123   0.538   8.937  0.0281  0.3117  0.3271
  234MPD2    H7 3843   1.225   0.539   8.938 -0.0200  1.1050  4.6025
  235MPD2     C 3844   0.486   3.036  14.611 -0.4062 -0.1392  0.2027
  235MPD2    C1 3845   0.562   3.030  14.727 -0.6688 -0.0411  0.0760
  235MPD2    C2 3846   0.698   3.005  14.709 -0.7272 -0.4899 -0.6634
  235MPD2    C3 3847   0.754   2.990  14.583  0.2825 -0.3914 -0.8583
  235MPD2    C4 3848   0.674   3.006  14.477  0.1203 -0.3684 -0.2185
  235MPD2    C5 3849   0.542   3.024  14.487 -0.1213  0.0005 -0.2928
  235MPD2     H 3850   0.761   3.000  14.797 -2.0861  2.3123  0.4736
  235MPD2    H1 3851   0.714   2.998  14.376 -2.9304  2.4701 -1.6695
  235MPD2    H2 3852   0.378   3.044  14.610 -0.3108  0.8774 -1.2727
  235MPD2    H3 3853   0.475   3.024  14.402 -0.9824 -0.1588  0.3864
  235MPD2     N 3854   0.894   2.985  14.584 -0.1454 -0.0248 -0.1240
  235MPD2    H5 3855   0.938   2.981  14.676  1.1177  0.7253 -0.6902
  235MPD2    N1 3856   0.520   3.048  14.861  0.0404 -0.2056  0.0018
  235MPD2    H7 3857   0.585   3.042  14.939  1.1750 -2.7129 -1.1365
  236MPD2     C 3858   1.723   3.558  14.307  0.0050  0.9305 -0.0103
  236MPD2    C1 3859   1.632   3.509  14.220  0.9136 -0.3133 -0.0815
  236MPD2    C2 3860   1.556   3.406  14.252 -0.5477 -0.5130  0.9340
  236MPD2    C3 3861   1.558   3.354  14.382 -0.2238  0.4090  0.4046
  236MPD2    C4 3862   1.653   3.403  14.471 -1.0676  0.4103 -0.1353
  236MPD2    C5 3863   1.735   3.505  14.433 -0.1488 -0.4804  0.5416
  236MPD2     H 3864   1.474   3.386  14.185  1.0086  2.4348 -1.8404
  236MPD2    H1 3865   1.667   3.365  14.571  2.8693  1.8501 -0.1427
  236MPD2    H2 3866   1.803   3.630  14.299  1.2193 -0.7263 -2.9493
  236MPD2    H3 3867   1.819   3.536  14.494 -0.1942 -0.1150  0.4224
  236MPD2     N 3868   1.491   3.233  14.420  0.4102 -0.0003 -0.2261
  236MPD2    H5 3869   1.514   3.199  14.513  0.2324  1.5591  0.3905
  236MPD2    N1 3870   1.625   3.559  14.089 -0.0612  0.1312  0.0475
  236MPD2    H7 3871   1.556   3.510  14.033  0.2217  0.4298 -0.5638
  237MPD2     C 3872   1.532   2.781  14.965 -0.5419  0.2149 -0.0171
  237MPD2    C1 3873   1.570   2.887  14.878  0.2767  0.0731 -0.4717
  237MPD2    C2 3874   1.692   2.959  14.891  0.1712 -0.1602  0.2383
  237MPD2    C3 3875   1.776   2.922  14.995 -0.3567 -0.1098  0.1324
  237MPD2    C4 3876   1.737   2.823  15.083 -0.4146  0.7725 -0.2701
  237MPD2    C5 3877   1.629   2.746  15.062 -0.0365 -0.0222  1.2567
  237MPD2     H 3878   1.713   3.038  14.821  1.0847 -1.4838 -0.9872
  237MPD2    H1 3879   1.794   2.806  15.174  1.0102  1.1356 -1.0977
  237MPD2    H2 3880   1.438   2.728  14.971 -1.3908  1.7525  0.4463
  237MPD2    H3 3881   1.618   2.660  15.126 -1.6129  0.4632  1.6289
  237MPD2     N 3882   1.893   2.992  15.028  0.3034  0.4505  0.2272
  237MPD2    H5 3883   1.940   2.959  15.112 -0.6389  0.1370  0.6307
  237MPD2    N1 3884   1.486   2.925  14.767 -0.4963 -0.1156 -0.1973
  237MPD2    H7 3885   1.519   3.001  14.709 -0.5798  0.0961  0.0299
  238MPD2     C 3886   3.947   1.099  13.000 -0.8434  0.2908  0.2300
  238MPD2    C1 3887   3.968   1.235  13.029  0.7982 -0.6562 -0.1866
  238MPD2    C2 3888   4.097   1.286  13.037  0.7282 -0.9637  0.5169
  238MPD2    C3 3889   4.203   1.199  12.999 -0.0178 -0.1331  0.1797
  238MPD2    C4 3890   4.186   1.064  12.978  0.3300  0.2652  0.3964
  238MPD2    C5 3891   4.058   1.013  12.985  0.3689 -0.5364  0.0235
  238MPD2     H 3892   4.119   1.384  13.078  1.6299 -0.9411 -0.0126
  238MPD2    H1 3893   4.269   0.998  12.956 -0.9708 -1.0973 -0.5164
  238MPD2    H2 3894   3.848   1.057  12.988 -0.3714 -0.2750 -1.8494
  238MPD2    H3 3895   4.037   0.907  12.981 -0.4618 -0.4511  1.7156
  238MPD2     N 3896   4.332   1.256  12.983 -0.3572 -0.2994  0.1274
  238MPD2    H5 3897   4.339   1.357  12.986  0.1948 -0.3281 -0.0286
  238MPD2    N1 3898   3.851   1.316  13.054 -0.2733 -0.4145  0.3732
  238MPD2    H7 3899   3.763   1.273  13.029 -1.3663  1.4139  1.0037
  239MPD2     C 3900   3.358   2.099  13.175 -0.2156 -0.3649 -0.3663
  239MPD2    C1 3901   3.448   2.029  13.236 -0.2644 -0.2609  0.7264
  239MPD2    C2 3902   3.463   2.051  13.373 -0.7643  0.0686 -0.4934
  239MPD2    C3 3903   3.390   2.138  13.444  0.1882 -0.7118 -0.0076
  239MPD2    C4 3904   3.300   2.214  13.375  0.6991 -0.5630 -0.5135
  239MPD2    C5 3905   3.286   2.190  13.238  0.6638 -0.2171 -0.9388
  239MPD2     H 3906   3.541   1.993  13.421 -1.1624 -0.7877 -0.8695
  239MPD2    H1 3907   3.232   2.290  13.413 -0.3783 -1.5035 -0.5619
  239MPD2    H2 3908   3.337   2.081  13.070 -0.5779 -3.5442  0.2681
  239MPD2    H3 3909   3.222   2.255  13.178 -0.7275 -2.0563 -1.4588
  239MPD2     N 3910   3.402   2.138  13.584  0.4937  0.2104 -0.0473
  239MPD2    H5 3911   3.467   2.071  13.625 -0.2074 -0.0615  0.6216
  239MPD2    N1 3912   3.504   1.924  13.162  0.3313  0.3574 -0.8016
  239MPD2    H7 3913   3.477   1.915  13.065 -0.5147  0.0250 -0.5372
  240MPD2     C 3914   4.625   1.105   6.385 -0.3399 -0.1447  0.6280
  240MPD2    C1 3915   4.681   1.095   6.513 -0.0659 -0.2166  0.3173
  240MPD2    C2 3916   4.668   0.972   6.583  0.2657 -0.3303 -0.0633
  240MPD2    C3 3917   4.596   0.870   6.533 -0.6588  0.1136 -0.6732
  240MPD2    C4 3918   4.544   0.879   6.406  0.3584 -0.5287  0.1162
  240MPD2    C5 3919   4.557   0.997   6.338  0.1045 -0.2748  0.1432
  240MPD2     H 3920   4.714   0.952   6.679 -0.7804 -1.5958  0.1801
  240MPD2    H1 3921   4.486   0.799   6.362 -0.3607  0.3797 -0.6147
  240MPD2    H2 3922   4.645   1.191   6.321 -1.2845 -0.4779 -0.1022
  240MPD2    H3 3923   4.511   1.010   6.241  2.5685  0.0517 -0.9861
  240MPD2     N 3924   4.583   0.751   6.607  0.3445 -0.1612  0.1829
  240MPD2    H5 3925   4.617   0.754   6.702  0.7058  0.3977  0.0410
  240MPD2    N1 3926   4.751   1.196   6.573 -0.3537 -0.0320  0.2340
  240MPD2    H7 3927   0.007   1.177   6.667 -0.2621 -2.2195 -0.2372
  241MPD2     C 3928   0.090   0.435   7.478  0.6098  0.3397 -0.7503
  241MPD2    C1 3929   0.142   0.521   7.384  0.0434 -0.5590  0.7944
  241MPD2    C2 3930   0.075   0.535   7.263 -0.7403 -0.1170  0.4380
  241MPD2    C3 3931   4.734   0.461   7.237 -0.4115 -0.2909  0.0868
  241MPD2    C4 3932   4.686   0.368   7.333 -0.0168 -0.3152  0.2411
  241MPD2    C5 3933   4.755   0.360   7.450 -0.1767  0.4026 -0.7753
  241MPD2     H 3934   0.102   0.609   7.188  0.4494 -2.4359 -1.4105
  241MPD2    H1 3935   4.583   0.335   7.323  0.3888 -0.9879 -1.6155
  241MPD2    H2 3936   0.133   0.435   7.578 -1.7702  0.3701  0.2673
  241MPD2    H3 3937   4.712   0.298   7.528 -2.5900  2.2432 -0.6299
  241MPD2     N 3938   4.645   0.465   7.125  0.3719 -0.4672 -0.0402
  241MPD2    H5 3939   4.564   0.406   7.139 -0.9243  1.5071  0.8233
  241MPD2    N1 3940   0.235   0.619   7.425  0.2849  0.1930  0.4142
  241MPD2    H7 3941   0.277   0.608   7.517 -1.6221  2.6708  1.6121
  242MPD2     C 3942   3.849   0.496   7.249  0.2658 -0.3031  1.0151
  242MPD2    C1 3943   3.944   0.593   7.275 -0.5148  0.0588  0.4301
  242MPD2    C2 3944   4.055   0.595   7.198 -0.1580 -0.0701 -0.3118
  242MPD2    C3 3945   4.060   0.524   7.080 -0.7585 -0.3629 -0.7479
  242MPD2    C4 3946   3.959   0.433   7.049 -0.4287 -0.1152 -0.2743
  242MPD2    C5 3947   3.856   0.417   7.131 -0.1590 -0.0457  0.5318
  242MPD2     H 3948   4.141   0.658   7.216 -1.0453  1.0943 -0.1237
  242MPD2    H1 3949   3.974   0.376   6.958  1.0411  1.7007 -1.1794
  242MPD2    H2 3950   3.764   0.493   7.317 -0.9076  0.3615 -0.4168
  242MPD2    H3 3951   3.779   0.344   7.108  1.2111 -1.5896  0.8441
  242MPD2     N 3952   4.182   0.529   7.004  0.2054  0.4449  0.1398
  242MPD2    H5 3953   4.257   0.581   7.049 -0.9432  2.3094 -0.0717
  242MPD2    N1 3954   3.939   0.672   7.394 -0.4254  0.1037  0.2105
  242MPD2    H7 3955   3.865   0.642   7.457 -1.8098  0.7513 -1.0862
  243MPD2     C 3956   2.102   0.816  14.749 -0.2984  0.3893  0.4166
  243MPD2    C1 3957   1.977   0.765  14.742 -0.7942  0.4635 -0.4740
  243MPD2    C2 3958   1.866   0.850  14.737 -0.3535 -1.2256 -1.0552
  243MPD2    C3 3959   1.886   0.987  14.732 -0.3138 -0.3798 -0.0249
  243MPD2    C4 3960   2.009   1.040  14.755  0.4660 -0.7160 -0.1846
  243MPD2    C5 3961   2.122   0.951  14.756 -0.1466  0.7065  0.4463
  243MPD2     H 3962   1.766   0.809  14.733 -0.9520  0.1154  0.0055
  243MPD2    H1 3963   2.027   1.147  14.746 -0.5941 -0.7467 -2.6139
  243MPD2    H2 3964   2.192   0.756  14.763  0.5710  1.3245 -1.1190
  243MPD2    H3 3965   2.218   1.001  14.758  1.1268 -1.6080 -2.1448
  243MPD2     N 3966   1.778   1.078  14.704 -0.3499  0.4203  0.8403
  243MPD2    H5 3967   1.800   1.177  14.702 -0.7482  0.4526 -2.2950
  243MPD2    N1 3968   1.960   0.628  14.728  0.3097 -0.3441 -0.6329
  243MPD2    H7 3969   1.863   0.600  14.715  0.3731  0.0723 -1.9641
  244MPD2     C 3970   1.873   1.906  14.819  0.6097  0.1476 -0.5446
  244MPD2    C1 3971   1.734   1.913  14.796  0.4775  0.5992 -0.0547
  244MPD2    C2 3972   1.669   1.791  14.778 -0.4560 -1.1317 -0.0408
  244MPD2    C3 3973   1.730   1.671  14.810  0.3256 -0.1824 -0.4735
  244MPD2    C4 3974   1.862   1.667  14.853 -0.5894  0.3990  0.0859
  244MPD2    C5 3975   1.932   1.784  14.854  0.5708 -0.1757 -1.1164
  244MPD2     H 3976   1.569   1.791  14.735 -0.8729 -2.7611  0.9114
  244MPD2    H1 3977   1.905   1.572  14.881  3.0888  1.7491 -0.9119
  244MPD2    H2 3978   1.941   1.990  14.823  1.4769 -0.6087  0.4071
  244MPD2    H3 3979   2.030   1.785  14.901  0.1129 -2.7625 -0.1248
  244MPD2     N 3980   1.674   1.539  14.778 -0.5937 -0.5058 -0.0503
  244MPD2    H5 3981   1.733   1.457  14.785  0.1009 -0.0130 -0.0697
  244MPD2    N1 3982   1.651   2.029  14.782  0.4045  0.4747 -0.0541
  244MPD2    H7 3983   1.551   2.013  14.773  0.3882  1.0718 -0.8984
  245MPD2     C 3984   0.968   1.204  14.453 -0.2940  0.1820 -0.3870
  245MPD2    C1 3985   1.027   1.303  14.517 -0.6285  0.1027 -0.5149
  245MPD2    C2 3986   0.954   1.406  14.568  0.3657 -0.8581 -0.6769
  245MPD2    C3 3987   0.818   1.412  14.543 -0.5714 -0.4914 -0.3589
  245MPD2    C4 3988   0.756   1.314  14.477 -1.0222 -0.0827  0.4451
  245MPD2    C5 3989   0.832   1.205  14.434 -0.6730 -0.2490 -0.4731
  245MPD2     H 3990   1.000   1.485  14.627 -1.6282 -0.2730  0.1026
  245MPD2    H1 3991   0.651   1.315  14.449 -0.8050 -4.8486 -0.5457
  245MPD2    H2 3992   1.031   1.119  14.427  0.4592  0.4388  0.5994
  245MPD2    H3 3993   0.789   1.123  14.378  2.3639 -1.3195 -1.2116
  245MPD2     N 3994   0.750   1.534  14.582 -0.2347  0.4046  0.0738
  245MPD2    H5 3995   0.800   1.595  14.646 -0.4109  0.1803  0.4250
  245MPD2    N1 3996   1.167   1.313  14.531 -0.9804  0.0932 -0.4705
  245MPD2    H7 3997   1.206   1.385  14.591  1.5348 -2.2684  0.7556
  246MPD2     C 3998   2.128   4.744   7.840 -0.3321  0.4968  0.4593
  246MPD2    C1 3999   2.093   0.100   7.833 -0.8012  0.7608  0.0018
  246MPD2    C2 4000   1.966   0.143   7.870 -0.5869  0.0845 -0.0767
  246MPD2    C3 4001   1.874   0.049   7.921 -0.0141  0.0478 -0.5770
  246MPD2    C4 4002   1.915   4.691   7.924  0.1687 -0.2388 -0.1468
  246MPD2    C5 4003   2.040   4.650   7.883  0.0377 -0.3416 -0.5416
  246MPD2     H 4004   1.933   0.246   7.861 -0.4473 -0.0757 -2.3746
  246MPD2    H1 4005   1.849   4.611   7.958  1.0665 -0.6895  0.5432
  246MPD2    H2 4006   2.231   4.716   7.819 -0.6978 -1.0539  0.6857
  246MPD2    H3 4007   2.075   4.548   7.885  0.2427 -0.1357  4.5429
  246MPD2     N 4008   1.742   0.088   7.947  0.1057 -0.5766 -0.1335
  246MPD2    H5 4009   1.739   0.189   7.930 -0.7938 -1.1120 -3.1824
  246MPD2    N1 4010   2.190   0.191   7.791 -0.2820  0.3954  0.2798
  246MPD2    H7 4011   2.273   0.149   7.750 -1.0428 -1.6704  0.8472
  247MPD2     C 4012   2.370   0.524   7.003  0.7125 -0.5072 -0.6392
  247MPD2    C1 4013   2.285   0.463   7.094  0.3654 -0.0087  0.0145
  247MPD2    C2 4014   2.155   0.419   7.057  0.3050 -0.3957  0.2777
  247MPD2    C3 4015   2.106   0.465   6.935  0.8407 -0.1072  0.1774
  247MPD2    C4 4016   2.188   0.529   6.844 -0.9878  0.6993  0.0379
  247MPD2    C5 4017   2.321   0.549   6.876 -0.0466 -0.3781  0.2499
  247MPD2     H 4018   2.094   0.364   7.128  2.6821 -2.3690  0.8167
  247MPD2    H1 4019   2.156   0.575   6.751 -1.2167  2.1366  0.8306
  247MPD2    H2 4020   2.473   0.545   7.029  0.7911 -1.2441 -0.3578
  247MPD2    H3 4021   2.389   0.598   6.807 -1.2794  0.3255 -0.4794
  247MPD2     N 4022   1.975   0.439   6.896  0.0846 -0.6634  0.5114
  247MPD2    H5 4023   1.964   0.475   6.802 -0.4154 -2.2805 -0.0553
  247MPD2    N1 4024   2.322   0.454   7.232  0.7702 -0.9346 -0.0147
  247MPD2    H7 4025   2.397   0.517   7.257 -1.7345  1.5733  1.1231
  248MPD2     C 4026   1.642   0.764   7.726 -0.1051 -0.4004  0.2354
  248MPD2    C1 4027   1.685   0.640   7.766 -0.2100  0.0434 -0.5626
  248MPD2    C2 4028   1.820   0.610   7.762 -0.7321  0.1223 -0.3375
  248MPD2    C3 4029   1.908   0.698   7.702  0.0924  0.7442  0.2198
  248MPD2    C4 4030   1.861   0.819   7.646 -0.6975 -1.2783 -0.2547
  248MPD2    C5 4031   1.728   0.848   7.659 -0.3221 -0.4992  0.4857
  248MPD2     H 4032   1.856   0.514   7.797 -1.1607  0.2075  0.3399
  248MPD2    H1 4033   1.924   0.893   7.599 -0.5285 -0.0644  1.8888
  248MPD2    H2 4034   1.539   0.795   7.737 -0.4089 -1.0684 -0.7134
  248MPD2    H3 4035   1.697   0.948   7.629  1.3708 -0.1983 -0.3067
  248MPD2     N 4036   2.043   0.656   7.688  0.3194 -0.0908  1.0451
  248MPD2    H5 4037   2.061   0.565   7.729 -0.8424 -0.1482  1.4322
  248MPD2    N1 4038   1.592   0.544   7.804  0.2168  0.0497  0.2789
  248MPD2    H7 4039   1.492   0.562   7.792 -0.2722 -1.9560  1.2913
  249MPD2     C 4040   0.302   2.979  11.074  0.0254  0.0698  0.1112
  249MPD2    C1 4041   0.358   2.855  11.104  0.2331  0.2809 -0.0619
  249MPD2    C2 4042   0.399   2.835  11.232  0.1577 -0.2893 -0.4380
  249MPD2    C3 4043   0.384   2.922  11.339 -0.8882 -0.1218  0.1406
  249MPD2    C4 4044   0.327   3.044  11.301 -0.7263  0.7335  0.8518
  249MPD2    C5 4045   0.280   3.067  11.175  0.9180  0.3028 -0.1263
  249MPD2     H 4046   0.445   2.740  11.253  2.1060  0.2250 -2.4522
  249MPD2    H1 4047   0.308   3.123  11.373 -2.9661 -1.2469  2.4261
  249MPD2    H2 4048   0.252   2.995  10.979 -2.5294 -0.6176  1.3353
  249MPD2    H3 4049   0.246   3.166  11.151  1.0748  0.0722 -1.3033
  249MPD2     N 4050   0.423   2.900  11.470 -0.2926  0.1463 -0.4986
  249MPD2    H5 4051   0.420   2.984  11.526  0.9753 -1.0543  1.3704
  249MPD2    N1 4052   0.373   2.748  11.015  1.1174 -0.1699 -0.7799
  249MPD2    H7 4053   0.417   2.669  11.061  2.8381  0.9576 -0.4751
  250MPD2     C 4054   0.924   2.476  11.031  0.9536 -0.1015 -0.9270
  250MPD2    C1 4055   0.860   2.390  10.942  0.3834 -0.4022 -0.4180
  250MPD2    C2 4056   0.933   2.277  10.906 -0.2209  1.3162  0.4274
  250MPD2    C3 4057   1.059   2.245  10.953 -0.2597  0.8668 -0.2709
  250MPD2    C4 4058   1.107   2.320  11.057 -0.1479 -0.1177 -0.1499
  250MPD2    C5 4059   1.044   2.438  11.085 -1.0258 -0.4950 -0.1707
  250MPD2     H 4060   0.899   2.221  10.819  1.0912  0.4266  0.4802
  250MPD2    H1 4061   1.200   2.292  11.106 -1.4165 -2.1289  1.1023
  250MPD2    H2 4062   0.876   2.566  11.067  3.6107  0.1557  1.9478
  250MPD2    H3 4063   1.084   2.491  11.171 -1.9700 -1.8460  1.1045
  250MPD2     N 4064   1.123   2.130  10.896  0.0900  1.0040  0.7413
  250MPD2    H5 4065   1.073   2.084  10.820 -2.3486 -0.8175  3.4548
  250MPD2    N1 4066   0.733   2.429  10.901 -0.0231 -0.1910 -0.0967
  250MPD2    H7 4067   0.705   2.521  10.933 -1.9415  0.3980 -3.4727
  251MPD2     C 4068   0.130   2.734  10.290  0.8860 -0.1720  0.1828
  251MPD2    C1 4069   0.216   2.625  10.302 -0.0466  0.0758 -0.4210
  251MPD2    C2 4070   0.240   2.550  10.185 -0.3446 -0.0494 -0.4604
  251MPD2    C3 4071   0.174   2.574  10.068  0.1653  0.7075  0.5366
  251MPD2    C4 4072   0.107   2.696  10.055  0.4107  0.1939  0.2791
  251MPD2    C5 4073   0.081   2.775  10.170 -0.4803  0.0030  0.3029
  251MPD2     H 4074   0.306   2.464  10.193  2.0227  1.8479  0.4452
  251MPD2    H1 4075   0.063   2.729   9.961  2.7114 -0.0418 -0.8811
  251MPD2    H2 4076   0.098   2.795  10.374  1.2035 -0.1800  0.3105
  251MPD2    H3 4077   0.032   2.871  10.158 -0.0471  0.2630  0.5890
  251MPD2     N 4078   0.184   2.496   9.948  0.5794 -0.5129  0.2988
  251MPD2    H5 4079   0.165   2.534   9.856  0.9599  1.1262  0.9012
  251MPD2    N1 4080   0.275   2.620  10.431  0.5336 -0.7583  0.0405
  251MPD2    H7 4081   0.228   2.675  10.503  0.9195  1.0459 -1.0937
  252MPD2     C 4082   1.656   0.295  14.387 -0.2593  0.5403  0.0247
  252MPD2    C1 4083   1.677   0.436  14.400  0.0260  0.1756  0.3925
  252MPD2    C2 4084   1.805   0.490  14.402  0.5889 -0.6792 -0.2739
  252MPD2    C3 4085   1.917   0.404  14.407  0.6040  0.0208 -0.5579
  252MPD2    C4 4086   1.901   0.264  14.407 -0.1884  0.3178  0.1969
  252MPD2    C5 4087   1.770   0.220  14.385  0.2095 -0.0187 -0.2452
  252MPD2     H 4088   1.818   0.597  14.398 -0.0460 -0.6037 -0.3980
  252MPD2    H1 4089   1.988   0.201  14.420  0.8993  2.1897  2.0518
  252MPD2    H2 4090   1.559   0.251  14.362  0.2719 -0.1314 -0.8652
  252MPD2    H3 4091   1.755   0.116  14.358 -0.6999 -0.6173  2.4977
  252MPD2     N 4092   2.035   0.475  14.419 -0.1809 -0.1073  0.0321
  252MPD2    H5 4093   2.034   0.576  14.407  3.4554 -0.0839 -0.0552
  252MPD2    N1 4094   1.571   0.527  14.404  0.3559 -0.0981 -0.9583
  252MPD2    H7 4095   1.602   0.623  14.412  0.5818 -0.2077 -0.4874
  253MPD2     C 4096   3.110   0.587  14.387  0.3505  0.7029  0.9170
  253MPD2    C1 4097   3.074   0.613  14.517 -0.5020  0.0218  0.0263
  253MPD2    C2 4098   2.945   0.594  14.556 -1.2780 -0.6349  0.2041
  253MPD2    C3 4099   2.848   0.565  14.458 -0.0710  0.3662  0.1536
  253MPD2    C4 4100   2.883   0.552  14.330  0.1964  0.0174  0.0112
  253MPD2    C5 4101   3.011   0.560  14.297 -0.3196  0.0303 -0.5953
  253MPD2     H 4102   2.923   0.611  14.660  0.0519 -2.7555  0.8418
  253MPD2    H1 4103   2.815   0.535  14.248 -0.7509  1.1622  0.5457
  253MPD2    H2 4104   3.209   0.606  14.348  0.0418 -1.4917 -0.9860
  253MPD2    H3 4105   3.026   0.545  14.191 -3.0989  0.5641 -1.0649
  253MPD2     N 4106   2.712   0.567  14.503  0.3921 -0.5109  0.2787
  253MPD2    H5 4107   2.695   0.597  14.598  0.4262 -0.1450  0.1687
  253MPD2    N1 4108   3.166   0.645  14.616  0.4014  0.1016  0.9082
  253MPD2    H7 4109   3.138   0.646  14.714 -1.3658 -3.5534  0.4148
  254MPD2     C 4110   2.332   1.184  14.419  0.4610  0.1044 -0.3579
  254MPD2    C1 4111   2.409   1.099  14.501 -0.2344 -1.3223 -0.4672
  254MPD2    C2 4112   2.497   1.158  14.591  0.4461 -0.5889  0.4759
  254MPD2    C3 4113   2.527   1.293  14.583 -0.6412 -0.2011 -0.5331
  254MPD2    C4 4114   2.441   1.370  14.505  0.1293  0.6581  0.9307
  254MPD2    C5 4115   2.348   1.317  14.424 -0.0082  0.3381  0.2548
  254MPD2     H 4116   2.564   1.093  14.646  2.3227  0.2134 -0.8649
  254MPD2    H1 4117   2.459   1.477  14.508 -3.5203  1.3099 -0.7351
  254MPD2    H2 4118   2.253   1.139  14.359 -0.5982  0.8745  0.4653
  254MPD2    H3 4119   2.287   1.379  14.360  0.1161  0.0300 -0.1598
  254MPD2     N 4120   2.637   1.348  14.649 -0.5204  0.4528 -0.3288
  254MPD2    H5 4121   2.676   1.426  14.596 -1.1581  1.7922  1.1561
  254MPD2    N1 4122   2.398   0.962  14.518 -0.5601 -0.0847 -0.0979
  254MPD2    H7 4123   2.456   0.920  14.589 -0.3560 -0.0762 -0.2605
  255MPD2     C 4124   2.544   0.067  13.428 -0.2768  0.6116  0.5259
  255MPD2    C1 4125   2.434   4.761  13.409  0.2483 -0.3802  0.1002
  255MPD2    C2 4126   2.308   0.041  13.407 -0.2059 -0.2291 -0.0690
  255MPD2    C3 4127   2.289   0.183  13.408  0.3236 -0.0437 -0.2946
  255MPD2    C4 4128   2.401   0.261  13.426 -0.0781 -0.0614  1.0124
  255MPD2    C5 4129   2.524   0.196  13.450  0.0700 -0.0575 -0.8052
  255MPD2     H 4130   2.217   4.757  13.407 -1.3166  1.4626 -2.0774
  255MPD2    H1 4131   2.407   0.369  13.420 -1.6309 -0.0375  0.0545
  255MPD2    H2 4132   2.648   0.037  13.435 -0.7978 -1.3760 -0.2866
  255MPD2    H3 4133   2.611   0.259  13.464  1.2172 -1.7157 -0.5043
  255MPD2     N 4134   2.170   0.250  13.379 -0.7411  0.1009 -0.1049
  255MPD2    H5 4135   2.176   0.349  13.359 -1.1304  0.4206  1.3584
  255MPD2    N1 4136   2.443   4.624  13.376  0.2137  0.0771 -0.2122
  255MPD2    H7 4137   2.357   4.571  13.367  0.8250 -1.2623  1.6895
  256MPD2     C 4138   1.297   0.248  13.251  0.5268 -0.3798 -0.3708
  256MPD2    C1 4139   1.351   0.362  13.296  0.2373  0.5833  0.4345
  256MPD2    C2 4140   1.272   0.467  13.335  0.8475  0.3681  0.4530
  256MPD2    C3 4141   1.141   0.467  13.310 -0.4057  0.7713  0.2383
  256MPD2    C4 4142   1.086   0.356  13.250 -0.1552 -0.8442 -0.2995
  256MPD2    C5 4143   1.158   0.246  13.224 -0.4505  0.4844  0.3967
  256MPD2     H 4144   1.331   0.553  13.363  0.9796 -0.3544  2.3890
  256MPD2    H1 4145   0.980   0.356  13.225 -0.2795 -2.8685  0.2197
  256MPD2    H2 4146   1.351   0.161  13.218  0.3592 -0.7924  0.4430
  256MPD2    H3 4147   1.116   0.156  13.182 -1.1673 -0.1925  2.5401
  256MPD2     N 4148   1.053   0.577  13.337 -0.3701  0.2478  0.5289
  256MPD2    H5 4149   0.953   0.560  13.325  0.4666 -2.3973 -3.1148
  256MPD2    N1 4150   1.491   0.381  13.305  0.1827 -1.0521  0.0526
  256MPD2    H7 4151   1.528   0.469  13.341  0.4620 -1.1832  0.0807
  257MPD2     C 4152   2.136   0.871  12.765  0.5802  0.2443  0.1653
  257MPD2    C1 4153   2.010   0.813  12.754 -0.5159  0.0630  0.3743
  257MPD2    C2 4154   1.979   0.706  12.835 -0.0466 -0.2884 -0.0884
  257MPD2    C3 4155   2.065   0.676  12.941 -0.8518  0.2883  0.6048
  257MPD2    C4 4156   2.193   0.733  12.956 -0.2273  0.3482  0.3476
  257MPD2    C5 4157   2.223   0.835  12.868 -0.0528 -0.8663  0.1847
  257MPD2     H 4158   1.884   0.653  12.826  0.5731 -1.3658 -0.2878
  257MPD2    H1 4159   2.255   0.706  13.040  0.3613 -0.2353 -0.2760
  257MPD2    H2 4160   2.152   0.964  12.712  0.5281  0.6883  0.9368
  257MPD2    H3 4161   2.307   0.903  12.885 -1.8524  1.4720 -0.3460
  257MPD2     N 4162   2.029   0.589  13.050  0.3618  0.5817 -0.3222
  257MPD2    H5 4163   2.104   0.557  13.110 -0.0299  0.7861  0.2751
  257MPD2    N1 4164   1.934   0.858  12.643 -0.8799  0.5857 -0.0870
  257MPD2    H7 4165   1.977   0.919  12.575 -0.4794  0.8016  0.3626
  258MPD2     C 4166   4.258   2.605   9.255 -0.1148  0.4971  0.0601
  258MPD2    C1 4167   4.178   2.553   9.349 -0.2885  0.0919  0.4170
  258MPD2    C2 4168   4.068   2.482   9.305  0.1959  0.0812  0.0665
  258MPD2    C3 4169   4.048   2.473   9.175 -0.7409  0.9236 -0.6324
  258MPD2    C4 4170   4.127   2.534   9.082  0.4251  0.2739  0.6597
  258MPD2    C5 4171   4.245   2.592   9.121 -0.5107 -0.1358  0.0376
  258MPD2     H 4172   4.000   2.439   9.377  0.2921 -0.2203 -0.0234
  258MPD2    H1 4173   4.118   2.520   8.975  4.3892  0.5280  0.2796
  258MPD2    H2 4174   4.335   2.673   9.290 -1.9230  1.8550  1.4238
  258MPD2    H3 4175   4.316   2.641   9.054  2.6958 -1.4859  2.4211
  258MPD2     N 4176   3.928   2.407   9.136 -0.3529  0.0150 -0.2586
  258MPD2    H5 4177   3.874   2.367   9.212 -0.8691 -0.2915 -0.7827
  258MPD2    N1 4178   4.209   2.570   9.480  0.8259  0.2493  0.0984
  258MPD2    H7 4179   4.297   2.618   9.501  0.4122  1.0625 -0.0299
  259MPD2     C 4180   3.756   2.507   8.240 -0.1909  0.5981  0.1279
  259MPD2    C1 4181   3.846   2.513   8.343  0.5596  0.0897 -0.2987
  259MPD2    C2 4182   3.813   2.470   8.473 -0.4147  0.1641 -0.3615
  259MPD2    C3 4183   3.684   2.422   8.496 -0.1944 -1.0489 -0.8550
  259MPD2    C4 4184   3.598   2.406   8.393  0.7516 -0.5838  0.7215
  259MPD2    C5 4185   3.634   2.456   8.268  0.1674 -0.4746 -0.0191
  259MPD2     H 4186   3.876   2.490   8.559 -0.9961 -3.8492  0.9821
  259MPD2    H1 4187   3.495   2.378   8.412  1.1830 -2.3649  0.4497
  259MPD2    H2 4188   3.778   2.554   8.145  3.1259  0.5680  0.8907
  259MPD2    H3 4189   3.555   2.459   8.194  0.5056 -2.7287 -0.4690
  259MPD2     N 4190   3.655   2.404   8.628 -0.0997 -0.3189  0.2291
  259MPD2    H5 4191   3.729   2.435   8.691  1.6391 -0.3845 -1.7868
  259MPD2    N1 4192   3.971   2.582   8.337 -0.1479 -0.0964 -0.1937
  259MPD2    H7 4193   4.014   2.586   8.429 -0.4770  2.1605 -0.1385
  260MPD2     C 4194   3.377   1.849   9.203  0.9142  0.1519 -0.6027
  260MPD2    C1 4195   3.328   1.950   9.126  0.1698  0.0614 -0.2948
  260MPD2    C2 4196   3.201   1.945   9.081 -0.2767  0.2715 -0.0244
  260MPD2    C3 4197   3.115   1.842   9.115 -1.0784 -0.0489 -0.5213
  260MPD2    C4 4198   3.162   1.740   9.199 -0.0551  0.1383  0.1180
  260MPD2    C5 4199   3.291   1.751   9.245 -0.2152 -0.3545  0.2572
  260MPD2     H 4200   3.163   2.031   9.027  0.3442  0.6284  0.1123
  260MPD2    H1 4201   3.104   1.651   9.221 -0.3130  0.4219  0.5914
  260MPD2    H2 4202   3.467   1.862   9.263 -0.1408  1.6915  0.6455
  260MPD2    H3 4203   3.311   1.680   9.324  0.2082  0.3649  0.8007
  260MPD2     N 4204   2.979   1.848   9.067  0.0216  0.2466 -0.0289
  260MPD2    H5 4205   2.959   1.924   9.002 -0.6617 -0.6413 -0.8616
  260MPD2    N1 4206   3.406   2.062   9.088 -0.4249  0.0816 -0.3167
  260MPD2    H7 4207   3.362   2.138   9.037  0.1567  2.0124  2.0787
  261MPD2     C 4208   3.835   1.955   7.499  0.7708  0.2364  0.2141
  261MPD2    C1 4209   3.761   1.963   7.390 -0.4000  0.3310  0.1998
  261MPD2    C2 4210   3.627   1.950   7.407  0.0665  0.2735  0.0658
  261MPD2    C3 4211   3.568   1.927   7.531 -0.2817 -0.1822  0.3442
  261MPD2    C4 4212   3.644   1.925   7.647 -0.1907 -0.0317  0.2538
  261MPD2    C5 4213   3.778   1.938   7.625  0.1133 -0.5214 -0.2545
  261MPD2     H 4214   3.563   1.964   7.321  0.2571 -2.3771 -0.4817
  261MPD2    H1 4215   3.604   1.900   7.745 -1.2051 -0.0616 -0.1686
  261MPD2    H2 4216   3.943   1.968   7.495  1.0218 -1.4518  1.5630
  261MPD2    H3 4217   3.857   1.929   7.699 -1.0630 -3.3749  0.6464
  261MPD2     N 4218   3.419   1.916   7.540  0.2644  0.1403 -0.1200
  261MPD2    H5 4219   3.391   1.900   7.636 -1.6835  2.0513 -0.3783
  261MPD2    N1 4220   3.823   1.984   7.262 -0.6811  0.6310  0.1377
  261MPD2    H7 4221   3.911   2.032   7.273 -0.3828  0.4713 -1.6149
  262MPD2     C 4222   3.029   1.546   7.919  0.6280  0.6786 -0.0047
  262MPD2    C1 4223   3.066   1.541   7.786  0.0056  0.3371  0.3101
  262MPD2    C2 4224   3.118   1.426   7.728  0.8089  0.4078  0.1199
  262MPD2    C3 4225   3.139   1.312   7.804 -0.1166  0.2810 -0.2826
  262MPD2    C4 4226   3.104   1.316   7.935 -0.1551 -0.0702 -0.7416
  262MPD2    C5 4227   3.057   1.436   7.997  0.0412 -0.0156  0.7176
  262MPD2     H 4228   3.133   1.431   7.621 -0.3961  0.3427 -0.0461
  262MPD2    H1 4229   3.125   1.240   8.010  1.5846  0.9679 -0.1720
  262MPD2    H2 4230   2.990   1.638   7.961 -0.8340  0.9337 -1.9530
  262MPD2    H3 4231   3.047   1.449   8.105 -0.9801 -0.4272  0.6770
  262MPD2     N 4232   3.180   1.190   7.747  0.0946  0.1021 -0.3120
  262MPD2    H5 4233   3.193   1.110   7.808  0.1104 -0.9907 -1.7385
  262MPD2    N1 4234   3.063   1.654   7.705  0.0076  0.2791 -0.8016
  262MPD2    H7 4235   3.112   1.650   7.617  0.4716 -1.1584 -0.4787
  263MPD2     C 4236   2.802   2.526   7.086  0.1407  0.1542 -0.0326
  263MPD2    C1 4237   2.874   2.428   7.026  0.3908 -1.3374  0.2411
  263MPD2    C2 4238   2.896   2.313   7.104 -0.0957  0.5123  0.5949
  263MPD2    C3 4239   2.862   2.303   7.240 -0.1587  0.4872 -0.0787
  263MPD2    C4 4240   2.797   2.407   7.297 -0.4753  0.0463 -0.5775
  263MPD2    C5 4241   2.757   2.507   7.213 -0.1615  1.0355  0.7700
  263MPD2     H 4242   2.936   2.223   7.059 -0.1140  0.7823  0.0483
  263MPD2    H1 4243   2.766   2.403   7.401 -0.5437 -1.8859 -0.6766
  263MPD2    H2 4244   2.776   2.617   7.032  1.0589 -0.4383 -1.4786
  263MPD2    H3 4245   2.686   2.577   7.256 -0.4882  0.4259  1.2314
  263MPD2     N 4246   2.904   2.190   7.311 -0.0424  0.3392  0.4605
  263MPD2    H5 4247   2.950   2.117   7.258 -0.9663 -0.4633  0.7532
  263MPD2    N1 4248   2.918   2.437   6.895  0.2813 -0.4280 -0.2601
  263MPD2    H7 4249   2.969   2.357   6.861 -1.5029 -1.5556 -0.2785
  264MPD2     C 4250   3.118   0.688  13.709  0.3407  0.2377 -1.0736
  264MPD2    C1 4251   3.180   0.628  13.815 -0.2019  0.3391 -0.4725
  264MPD2    C2 4252   3.249   0.701  13.910 -0.4584 -0.1526 -0.3086
  264MPD2    C3 4253   3.271   0.828  13.889 -0.8361  0.0700  0.4197
  264MPD2    C4 4254   3.209   0.890  13.783 -0.2058 -0.9006  0.8406
  264MPD2    C5 4255   3.128   0.822  13.693 -0.4541  0.7047 -0.2319
  264MPD2     H 4256   3.274   0.646  14.000 -0.8407 -0.8244 -0.6171
  264MPD2    H1 4257   3.212   0.998  13.770  1.3183 -1.0717 -0.1855
  264MPD2    H2 4258   3.053   0.632  13.642  1.1497 -1.2927 -0.5957
  264MPD2    H3 4259   3.069   0.871  13.617 -1.5248 -0.5641 -0.2227
  264MPD2     N 4260   3.363   0.892  13.971  0.2609  0.1540 -0.0488
  264MPD2    H5 4261   3.395   0.836  14.049  1.4612 -1.6089 -1.7944
  264MPD2    N1 4262   3.161   0.492  13.846  0.3393 -0.6957 -0.5830
  264MPD2    H7 4263   3.188   0.465  13.939  1.2450  0.2677 -0.5714
  265MPD2     C 4264   3.535   1.597  14.414  0.3479 -0.1759  0.0202
  265MPD2    C1 4265   3.515   1.571  14.276  0.4918 -0.0285  0.1015
  265MPD2    C2 4266   3.500   1.670  14.185  0.1633 -0.6373 -0.0660
  265MPD2    C3 4267   3.508   1.800  14.229  0.1045  0.3213 -0.1934
  265MPD2    C4 4268   3.517   1.826  14.366  0.5569 -0.1868  0.6799
  265MPD2    C5 4269   3.543   1.727  14.454  0.0661  0.8761 -0.0876
  265MPD2     H 4270   3.475   1.636  14.085  1.3530 -0.4296 -0.4257
  265MPD2    H1 4271   3.509   1.925  14.409 -0.4122 -0.3965  0.9897
  265MPD2    H2 4272   3.547   1.524  14.493 -1.4530  0.3173  0.7463
  265MPD2    H3 4273   3.547   1.753  14.560  1.3291 -2.5166  0.6724
  265MPD2     N 4274   3.489   1.911  14.147 -0.4399  0.3419  0.0500
  265MPD2    H5 4275   3.516   2.004  14.176 -1.8012  0.6385  0.3241
  265MPD2    N1 4276   3.523   1.440  14.228  0.5332  0.1781  0.3158
  265MPD2    H7 4277   3.526   1.429  14.127 -1.8051 -0.1153  0.2912
  266MPD2     C 4278   0.595   3.066   8.885 -0.0247 -0.4743  0.1152
  266MPD2    C1 4279   0.587   3.196   8.843  0.0094  0.4047 -0.1964
  266MPD2    C2 4280   0.704   3.266   8.820 -0.5469  0.3506 -0.0683
  266MPD2    C3 4281   0.828   3.210   8.845  0.3129  0.1254 -0.4373
  266MPD2    C4 4282   0.830   3.087   8.906  0.3937  0.2787 -0.0589
  266MPD2    C5 4283   0.715   3.014   8.921  0.0594  0.5719  0.1997
  266MPD2     H 4284   0.698   3.370   8.790  3.0067  0.9868  1.4693
  266MPD2    H1 4285   0.925   3.037   8.921  0.3459  1.1232  3.1435
  266MPD2    H2 4286   0.516   2.993   8.894 -0.7851  0.1366 -1.6847
  266MPD2    H3 4287   0.724   2.912   8.956  2.2678 -0.2111 -2.6574
  266MPD2     N 4288   0.943   3.294   8.815  0.1845  0.0799  0.3099
  266MPD2    H5 4289   0.914   3.388   8.790 -0.8772 -0.0720  0.9302
  266MPD2    N1 4290   0.461   3.263   8.818  0.1204  0.1057  0.1677
  266MPD2    H7 4291   0.475   3.350   8.766 -0.7375 -0.2428 -0.6424
  267MPD2     C 4292   0.908   3.850   8.182  0.5699  0.3766  0.2701
  267MPD2    C1 4293   0.823   3.770   8.260  0.1001 -0.3855 -0.5494
  267MPD2    C2 4294   0.884   3.708   8.362 -0.1433 -0.3683 -0.4824
  267MPD2    C3 4295   1.016   3.734   8.403 -0.5742 -0.1532 -0.2586
  267MPD2    C4 4296   1.096   3.805   8.319  0.1866  0.4754  0.8099
  267MPD2    C5 4297   1.041   3.867   8.209 -0.1361  0.2202 -0.0535
  267MPD2     H 4298   0.822   3.641   8.420  1.0464  0.2626  1.5116
  267MPD2    H1 4299   1.202   3.812   8.336  0.9003  0.1265 -3.6439
  267MPD2    H2 4300   0.866   3.909   8.101  1.4660 -0.5470 -0.8669
  267MPD2    H3 4301   1.107   3.921   8.143 -1.5507  0.8099 -0.9808
  267MPD2     N 4302   1.070   3.658   8.514  0.1923  0.0993 -0.7605
  267MPD2    H5 4303   1.009   3.600   8.570 -0.7432  2.7109  0.9275
  267MPD2    N1 4304   0.681   3.748   8.241 -0.1303 -0.2303 -0.0824
  267MPD2    H7 4305   0.635   3.682   8.302 -1.8578 -0.6291 -1.8115
  268MPD2     C 4306   1.708   3.585   9.127  0.1626 -1.0573  0.3524
  268MPD2    C1 4307   1.631   3.464   9.108 -0.9981  0.8284  0.4978
  268MPD2    C2 4308   1.693   3.347   9.158 -0.0111 -0.1280  0.9378
  268MPD2    C3 4309   1.818   3.354   9.218 -0.7745 -0.0130 -0.1312
  268MPD2    C4 4310   1.884   3.476   9.239 -0.2429  0.7390  0.0579
  268MPD2    C5 4311   1.826   3.589   9.200 -0.0773 -0.3936  0.7833
  268MPD2     H 4312   1.648   3.250   9.139 -0.4209  0.3842 -0.7270
  268MPD2    H1 4313   1.973   3.485   9.300  1.3925 -3.3961 -1.6827
  268MPD2    H2 4314   1.667   3.677   9.087 -0.2282 -1.1630  0.5073
  268MPD2    H3 4315   1.868   3.684   9.233 -0.1638 -0.1863  0.2972
  268MPD2     N 4316   1.879   3.234   9.255  0.4981 -0.0726  0.2898
  268MPD2    H5 4317   1.829   3.147   9.241 -0.7622  0.4004  1.8620
  268MPD2    N1 4318   1.527   3.444   9.017 -0.1723 -0.1797  0.6109
  268MPD2    H7 4319   1.485   3.353   8.998 -2.1952  0.6899  0.8599
  269MPD2     C 4320   0.056   0.237  12.277 -0.6760 -0.3952 -0.0001
  269MPD2    C1 4321   0.067   0.329  12.381 -0.2763  0.4838 -1.0165
  269MPD2    C2 4322   0.123   0.459  12.352 -0.1189  0.1460 -0.2073
  269MPD2    C3 4323   0.166   0.485  12.222 -0.0546  0.6617 -0.4105
  269MPD2    C4 4324   0.139   0.396  12.119  0.5175  0.0595 -0.2709
  269MPD2    C5 4325   0.086   0.276  12.148  0.0437 -0.1280  0.6105
  269MPD2     H 4326   0.139   0.528  12.434  1.5793 -1.6441  0.9513
  269MPD2    H1 4327   0.161   0.429  12.018 -0.3165  0.0384 -0.4634
  269MPD2    H2 4328   0.013   0.139  12.294 -1.2432 -0.6525 -2.9322
  269MPD2    H3 4329   0.057   0.212  12.065  2.3610 -1.8269  1.1248
  269MPD2     N 4330   0.233   0.605  12.199  0.1690  0.0751 -0.3224
  269MPD2    H5 4331   0.260   0.662  12.278 -0.5420 -1.0196  0.7127
  269MPD2    N1 4332   0.028   0.286  12.509  0.2963 -0.1227 -0.0830
  269MPD2    H7 4333   4.760   0.194  12.508  0.5058 -0.2244 -0.0649
  270MPD2     C 4334   0.701   0.559  13.006  0.1098 -0.1862  0.9729
  270MPD2    C1 4335   0.697   0.435  12.942  0.3485  0.6675  0.3773
  270MPD2    C2 4336   0.579   0.366  12.925  0.2443 -0.2231  0.0566
  270MPD2    C3 4337   0.460   0.410  12.973  0.1217 -0.7381 -0.3938
  270MPD2    C4 4338   0.467   0.532  13.049 -0.1961  0.3034 -0.1505
  270MPD2    C5 4339   0.583   0.609  13.050 -0.5242  0.0014 -0.6146
  270MPD2     H 4340   0.575   0.266  12.884  1.5043 -1.2307  2.3731
  270MPD2    H1 4341   0.381   0.584  13.090  0.1618  0.8403 -0.0709
  270MPD2    H2 4342   0.786   0.624  13.025 -0.9324  1.4108  0.2250
  270MPD2    H3 4343   0.585   0.701  13.107  1.2128  0.5236 -1.5120
  270MPD2     N 4344   0.348   0.334  12.960 -0.5038  0.5244 -0.0254
  270MPD2    H5 4345   0.361   0.237  12.937  1.0660  0.4033  1.3713
  270MPD2    N1 4346   0.818   0.372  12.908  0.1297  0.1741  0.2659
  270MPD2    H7 4347   0.813   0.273  12.885 -1.5396  0.6358 -1.3302
  271MPD2     C 4348   0.462   4.337  13.044 -0.0055 -0.2635  0.2509
  271MPD2    C1 4349   0.460   4.395  12.917  0.0956  0.1309  0.3208
  271MPD2    C2 4350   0.365   4.490  12.881 -0.2357 -0.5474  0.8302
  271MPD2    C3 4351   0.281   4.551  12.978 -0.1050  0.3193  0.7723
  271MPD2    C4 4352   0.290   4.496  13.104 -1.1783 -0.5162  0.0391
  271MPD2    C5 4353   0.376   4.394  13.139  0.3454  0.6423  0.2725
  271MPD2     H 4354   0.365   4.533  12.782 -2.1273 -0.8148  0.7050
  271MPD2    H1 4355   0.238   4.543  13.187  1.2188  0.7853  0.7963
  271MPD2    H2 4356   0.525   4.253  13.070 -0.3299 -1.0457 -1.5105
  271MPD2    H3 4357   0.373   4.356  13.240 -0.1111 -1.8103 -0.6614
  271MPD2     N 4358   0.200   4.664  12.953 -0.2615  0.2336 -0.0334
  271MPD2    H5 4359   0.135   4.694  13.025 -1.9754 -0.1955 -1.4014
  271MPD2    N1 4360   0.558   4.373  12.822  0.5226 -0.0283 -0.1904
  271MPD2    H7 4361   0.559   4.435  12.742  1.5651  0.5944  0.3000
  272MPD2     C 4362   1.433   4.347  12.875 -0.6072 -0.0183 -0.7446
  272MPD2    C1 4363   1.485   4.469  12.926 -0.1903  1.1582 -1.2655
  272MPD2    C2 4364   1.425   4.585  12.919 -0.2551  0.0080  0.4265
  272MPD2    C3 4365   1.304   4.601  12.854 -0.0095 -0.0656 -0.2652
  272MPD2    C4 4366   1.250   4.481  12.795 -0.4124 -0.1331  0.1375
  272MPD2    C5 4367   1.311   4.362  12.813  0.6444  0.4593  0.6965
  272MPD2     H 4368   1.474   4.673  12.959  1.0298 -0.7624  0.5478
  272MPD2    H1 4369   1.162   4.481  12.732  0.1429  0.8551 -0.6344
  272MPD2    H2 4370   1.484   4.252  12.878  1.7215  1.3097  1.8868
  272MPD2    H3 4371   1.271   4.274  12.763 -0.2548  0.7765  0.8572
  272MPD2     N 4372   1.243   4.732  12.861 -0.0549  0.4362  0.2742
  272MPD2    H5 4373   1.301   0.028  12.902  0.9319  0.8488 -1.8915
  272MPD2    N1 4374   1.612   4.475  12.983  0.6643  0.5442 -0.2607
  272MPD2    H7 4375   1.652   4.566  13.004 -0.4827  1.3087 -1.3282
  273MPD2     C 4376   1.733   0.387  12.780  0.1674 -0.0645  0.0085
  273MPD2    C1 4377   1.648   0.302  12.830 -0.3134  0.0391  0.1271
  273MPD2    C2 4378   1.697   0.197  12.915 -0.0994 -0.3280  0.4922
  273MPD2    C3 4379   1.833   0.166  12.921  0.5912  0.3412 -0.0611
  273MPD2    C4 4380   1.922   0.250  12.857  0.4621 -0.2797  0.0174
  273MPD2    C5 4381   1.866   0.360  12.802 -0.0251 -0.5720  0.0230
  273MPD2     H 4382   1.633   0.137  12.979 -0.5362 -0.0314  0.3353
  273MPD2    H1 4383   2.029   0.235  12.846  0.6066  0.1736  0.7879
  273MPD2    H2 4384   1.694   0.480  12.739  1.3418  0.0234 -0.8950
  273MPD2    H3 4385   1.944   0.425  12.762  0.6536  0.8027  3.5855
  273MPD2     N 4386   1.871   0.039  12.974  1.1244 -0.3734 -0.3124
  273MPD2    H5 4387   1.798   4.757  13.014 -0.3792  1.6558 -0.1591
  273MPD2    N1 4388   1.516   0.330  12.815  0.3361 -0.3699 -0.0906
  273MPD2    H7 4389   1.488   0.399  12.747  0.2244  0.5033  0.8371
  274MPD2     C 4390   0.798   1.797  11.132 -0.1661  0.4011 -0.6964
  274MPD2    C1 4391   0.700   1.726  11.065 -0.2799  0.2622 -0.7462
  274MPD2    C2 4392   0.626   1.778  10.955  0.3037 -0.0429  0.1565
  274MPD2    C3 4393   0.658   1.912  10.915 -0.5003  0.5869 -0.0648
  274MPD2    C4 4394   0.761   1.971  10.982  0.0324 -0.4841 -0.1405
  274MPD2    C5 4395   0.839   1.916  11.083 -0.7378 -0.8083  0.0111
  274MPD2     H 4396   0.546   1.716  10.918  0.3165  0.5960 -0.9541
  274MPD2    H1 4397   0.785   2.072  10.949  2.1272 -0.5839  1.0395
  274MPD2    H2 4398   0.854   1.750  11.212  2.0342  1.5137 -1.5808
  274MPD2    H3 4399   0.922   1.963  11.134  0.7346 -0.7794 -2.4062
  274MPD2     N 4400   0.590   1.985  10.812  0.3798 -0.3488  0.3126
  274MPD2    H5 4401   0.630   2.072  10.777  0.9922 -0.4562  0.7397
  274MPD2    N1 4402   0.667   1.591  11.095 -1.0886  0.0278 -0.4005
  274MPD2    H7 4403   0.584   1.557  11.048 -0.0678  1.2463 -3.0737
  275MPD2     C 4404   0.095   1.980  10.053 -0.6730 -0.4927  0.0209
  275MPD2    C1 4405   0.167   1.894  10.118 -0.4813 -0.2578  0.4292
  275MPD2    C2 4406   0.172   1.768  10.078 -0.3333  0.3202 -0.4498
  275MPD2    C3 4407   0.123   1.732   9.955  0.0964  0.1344  0.3717
  275MPD2    C4 4408   0.046   1.819   9.884 -0.0257  0.0705 -0.0543
  275MPD2    C5 4409   0.034   1.944   9.939  0.8500  0.6941 -0.2757
  275MPD2     H 4410   0.222   1.689  10.133 -1.5574  0.8044  1.3883
  275MPD2    H1 4411   0.001   1.792   9.789 -0.0604  1.5884 -0.4609
  275MPD2    H2 4412   0.105   2.085  10.080  0.2099 -0.8540  1.1016
  275MPD2    H3 4413   4.746   2.014   9.886 -0.7563  0.1268  0.9322
  275MPD2     N 4414   0.144   1.599   9.919 -0.3382 -0.1146  0.3797
  275MPD2    H5 4415   0.192   1.537   9.983  0.2750  0.3362  0.3649
  275MPD2    N1 4416   0.254   1.932  10.225  0.1185 -0.2061 -0.7352
  275MPD2    H7 4417   0.257   2.027  10.262  0.0842  0.3862 -2.2570
  276MPD2     C 4418   1.105   2.144   9.984 -1.1151 -0.0085 -0.2261
  276MPD2    C1 4419   1.136   2.137  10.115 -0.3584 -0.1887  0.8724
  276MPD2    C2 4420   1.030   2.103  10.201 -0.6680  0.0074  0.0745
  276MPD2    C3 4421   0.902   2.077  10.152 -0.3652 -0.0843  0.4813
  276MPD2    C4 4422   0.881   2.089  10.016  0.4337 -0.0202  0.9039
  276MPD2    C5 4423   0.981   2.125   9.929 -0.1044  0.0166 -0.6007
  276MPD2     H 4424   1.049   2.107  10.308  3.4974  0.0433 -0.6384
  276MPD2    H1 4425   0.787   2.065   9.967  2.7752 -1.7911 -2.7281
  276MPD2    H2 4426   1.182   2.170   9.913 -0.9864 -1.5512 -0.6617
  276MPD2    H3 4427   0.966   2.129   9.822 -0.7822  0.7483 -0.4730
  276MPD2     N 4428   0.794   2.051  10.237 -0.3099  0.1887 -0.4302
  276MPD2    H5 4429   0.703   2.042  10.192 -0.7189 -1.4497  0.7267
  276MPD2    N1 4430   1.270   2.155  10.151 -0.6160  0.5051 -0.7434
  276MPD2    H7 4431   1.328   2.195  10.078  0.6084  2.9280  1.5539
  277MPD2     C 4432   0.528   2.683   9.986  0.6773  0.6441 -0.2245
  277MPD2    C1 4433   0.613   2.628  10.075  0.4205  0.2509 -0.1488
  277MPD2    C2 4434   0.716   2.549  10.025 -0.5842  0.0134  0.4186
  277MPD2    C3 4435   0.741   2.531   9.894 -0.5308 -0.7399  0.5967
  277MPD2    C4 4436   0.649   2.584   9.800  0.0858  0.3693  0.0417
  277MPD2    C5 4437   0.546   2.653   9.852  0.0085 -0.9434  0.3413
  277MPD2     H 4438   0.790   2.514  10.097 -0.1567 -2.6261 -1.3165
  277MPD2    H1 4439   0.661   2.576   9.693  1.0394 -0.4603  0.2168
  277MPD2    H2 4440   0.434   2.724  10.019  1.1251  1.4765  0.0147
  277MPD2    H3 4441   0.483   2.705   9.781  0.4268 -0.0846  0.5855
  277MPD2     N 4442   0.867   2.476   9.865 -0.2397 -0.4230  0.3815
  277MPD2    H5 4443   0.927   2.456   9.944  0.2962 -2.5762 -0.5489
  277MPD2    N1 4444   0.602   2.652  10.215 -0.0122 -0.0381 -0.2420
  277MPD2    H7 4445   0.648   2.586  10.276 -2.0141 -0.4225  0.8629
  278MPD2     C 4446   1.199   2.324  10.618  0.3628 -0.1265 -0.5016
  278MPD2    C1 4447   1.191   2.443  10.685 -0.3056  0.0010 -0.3595
  278MPD2    C2 4448   1.072   2.515  10.685 -0.1853  0.4565  1.2852
  278MPD2    C3 4449   0.966   2.469  10.615 -0.1660  0.1921  0.3135
  278MPD2    C4 4450   0.972   2.345  10.549  0.6325  0.6369  0.1333
  278MPD2    C5 4451   1.084   2.280  10.553 -0.7965  0.1911 -0.5398
  278MPD2     H 4452   1.065   2.592  10.761 -2.5528  0.9529  0.5642
  278MPD2    H1 4453   0.889   2.311  10.488  2.3445  0.8530 -2.2956
  278MPD2    H2 4454   1.283   2.255  10.616 -0.6946 -1.3742 -1.6246
  278MPD2    H3 4455   1.094   2.182  10.507  0.6179  0.2911 -0.4389
  278MPD2     N 4456   0.848   2.538  10.604 -0.4441  0.6604 -0.0476
  278MPD2    H5 4457   0.772   2.506  10.545 -0.3344  0.0824  0.1276
  278MPD2    N1 4458   1.302   2.490  10.765  0.0612 -0.4754  0.5663
  278MPD2    H7 4459   1.284   2.574  10.820  0.2212 -0.6948  0.9550
  279MPD2     C 4460   0.415   3.292  10.773  0.4088  0.4780 -0.6511
  279MPD2    C1 4461   0.423   3.241  10.643  0.6552 -0.0347 -0.3313
  279MPD2    C2 4462   0.364   3.320  10.543  0.3850 -0.2408 -0.2060
  279MPD2    C3 4463   0.314   3.446  10.573 -0.4519 -0.1460  0.4134
  279MPD2    C4 4464   0.314   3.490  10.699  0.0237 -0.5527 -0.2083
  279MPD2    C5 4465   0.357   3.413  10.800 -0.2930 -0.6994 -0.2583
  279MPD2     H 4466   0.370   3.281  10.442 -1.2618  0.8918 -0.7421
  279MPD2    H1 4467   0.268   3.587  10.717  2.5025  0.4773  0.5283
  279MPD2    H2 4468   0.444   3.232  10.858  0.5653  0.9677 -0.3633
  279MPD2    H3 4469   0.342   3.443  10.903 -1.4821 -3.3985  0.3756
  279MPD2     N 4470   0.246   3.530  10.478  0.2899 -0.2652 -0.0924
  279MPD2    H5 4471   0.241   3.628  10.503 -0.4571  0.3414 -2.5510
  279MPD2    N1 4472   0.475   3.114  10.607 -0.2120  0.3012 -0.2936
  279MPD2    H7 4473   0.475   3.094  10.507  0.6821  0.3825 -0.3125
  280MPD2     C 4474   2.691   3.941   8.023  0.3852  0.4360  0.5001
  280MPD2    C1 4475   2.698   3.946   7.883 -0.2621 -0.2152 -0.3436
  280MPD2    C2 4476   2.822   3.956   7.826 -0.0194  0.3519  0.2273
  280MPD2    C3 4477   2.938   3.956   7.903 -0.2748 -0.9747  0.3922
  280MPD2    C4 4478   2.930   3.964   8.045  0.1402 -0.3667  0.1605
  280MPD2    C5 4479   2.808   3.947   8.105 -0.0717 -0.1439  0.3249
  280MPD2     H 4480   2.842   3.957   7.719  0.4428 -2.4171  0.2843
  280MPD2    H1 4481   3.010   3.963   8.117  0.7623  2.3143 -0.4915
  280MPD2    H2 4482   2.592   3.935   8.066 -0.2168  2.0834 -0.6398
  280MPD2    H3 4483   2.800   3.943   8.213  0.3125  2.0091  0.4379
  280MPD2     N 4484   3.071   3.969   7.854  0.1775 -0.2629 -0.2219
  280MPD2    H5 4485   3.148   3.976   7.919 -0.5628 -0.3805  0.6745
  280MPD2    N1 4486   2.575   3.934   7.808 -0.1002  0.9495 -0.3891
  280MPD2    H7 4487   2.595   3.936   7.708 -2.3953  1.2149 -0.8326
  281MPD2     C 4488   2.319   4.720   7.482  0.2652 -0.2185  0.1179
  281MPD2    C1 4489   2.436   4.649   7.462 -0.7170  0.5601  0.3414
  281MPD2    C2 4490   2.432   4.512   7.491 -0.6844  0.3123 -0.7070
  281MPD2    C3 4491   2.321   4.449   7.544  0.0866  0.3430 -0.8033
  281MPD2    C4 4492   2.215   4.532   7.584 -0.0791  0.3250 -0.5170
  281MPD2    C5 4493   2.216   4.665   7.545  0.4221  0.3773 -0.0662
  281MPD2     H 4494   2.525   4.457   7.476  0.4183  1.2359  2.8204
  281MPD2    H1 4495   2.122   4.489   7.619 -0.8890  1.4504 -1.3178
  281MPD2    H2 4496   2.315   0.052   7.473 -0.3876 -0.1293  1.4873
  281MPD2    H3 4497   2.134   4.732   7.568 -1.2606 -1.1332 -1.5993
  281MPD2     N 4498   2.314   4.315   7.586 -0.1238 -0.0691  0.1450
  281MPD2    H5 4499   2.225   4.273   7.612  0.8903 -1.2445  1.6789
  281MPD2    N1 4500   2.563   4.712   7.413  0.3188 -0.6616 -0.5778
  281MPD2    H7 4501   2.568   0.038   7.409 -1.5673 -0.5825 -0.5382
  282MPD2     C 4502   0.804   3.559  13.383 -0.4584 -0.2919  0.0565
  282MPD2    C1 4503   0.706   3.483  13.318 -0.7358  0.3682 -0.2970
  282MPD2    C2 4504   0.681   3.497  13.187 -0.1748 -0.1284  0.0423
  282MPD2    C3 4505   0.743   3.600  13.119  0.0457 -0.5767  0.7706
  282MPD2    C4 4506   0.822   3.689  13.191 -0.1110  0.2709 -0.4701
  282MPD2    C5 4507   0.872   3.658  13.314  0.3867  0.3852  0.0512
  282MPD2     H 4508   0.627   3.430  13.122  0.8142 -3.5905  2.7589
  282MPD2    H1 4509   0.882   3.769  13.150  0.4438 -0.8176 -1.7748
  282MPD2    H2 4510   0.834   3.540  13.485  2.6240  1.0122 -0.6140
  282MPD2    H3 4511   0.951   3.718  13.358  0.9801 -0.9904  0.8921
  282MPD2     N 4512   0.719   3.627  12.983 -0.2151  0.1025  0.4406
  282MPD2    H5 4513   0.647   3.566  12.945 -1.5250  1.4754  0.7597
  282MPD2    N1 4514   0.635   3.392  13.402  1.1459  0.4861  0.0789
  282MPD2    H7 4515   0.635   3.401  13.503 -3.0775  0.3717  0.0810
  283MPD2     C 4516   0.146   4.021  13.628  0.4085 -0.6923 -0.6465
  283MPD2    C1 4517   0.174   3.945  13.738  0.1658 -0.0496  0.1271
  283MPD2    C2 4518   0.203   3.812  13.726 -0.1868  0.2661 -0.3237
  283MPD2    C3 4519   0.205   3.750  13.603  0.0722 -0.9046  0.9269
  283MPD2    C4 4520   0.176   3.826  13.489 -0.3138  0.2481 -0.1392
  283MPD2    C5 4521   0.150   3.958  13.506 -0.3546  0.4134  0.9882
  283MPD2     H 4522   0.209   3.757  13.819  1.2540  1.7521  0.4804
  283MPD2    H1 4523   0.163   3.791  13.387  1.7304 -0.6280 -0.0952
  283MPD2    H2 4524   0.114   4.123  13.646  3.0840  0.0353 -0.0674
  283MPD2    H3 4525   0.126   4.014  13.417  0.1647 -0.1069  0.5264
  283MPD2     N 4526   0.232   3.616  13.598  0.4016  0.1560  0.0868
  283MPD2    H5 4527   0.274   3.570  13.678 -0.5911 -1.2845 -0.2242
  283MPD2    N1 4528   0.161   3.985  13.874  0.0058 -0.5175  0.0687
  283MPD2    H7 4529   0.175   3.910  13.941  1.5184 -0.8410 -0.5841
  284MPD2     C 4530   1.275   3.400   6.291  0.5225  0.0490 -0.1815
  284MPD2    C1 4531   1.375   3.400   6.386  0.1869  0.0346 -0.6445
  284MPD2    C2 4532   1.488   3.322   6.368 -0.2126  0.4789  0.3391
  284MPD2    C3 4533   1.512   3.257   6.249 -0.4315 -0.2162 -0.5713
  284MPD2    C4 4534   1.417   3.273   6.149 -1.1242 -0.3452 -0.0850
  284MPD2    C5 4535   1.301   3.339   6.173  0.1309 -0.4458 -0.2899
  284MPD2     H 4536   1.556   3.320   6.453 -0.7284 -0.8004  0.7163
  284MPD2    H1 4537   1.429   3.228   6.051 -0.1068 -0.0520 -0.0899
  284MPD2    H2 4538   1.182   3.457   6.288  0.1553 -0.5882 -0.7946
  284MPD2    H3 4539   1.230   3.347   6.091 -0.0605 -0.4450 -0.1251
  284MPD2     N 4540   1.623   3.168   6.235  0.0739 -0.2298 -0.7166
  284MPD2    H5 4541   1.681   3.142   6.313 -0.0922 -0.0641 -0.5372
  284MPD2    N1 4542   1.349   3.466   6.504  0.1698  0.0251 -0.0549
  284MPD2    H7 4543   1.416   3.446   6.577  0.3587 -1.2636 -0.5719
  285MPD2     C 4544   2.023   2.388   6.700 -0.3321  0.2677  0.9162
  285MPD2    C1 4545   2.084   2.378   6.579 -0.0990  0.0914 -0.2819
  285MPD2    C2 4546   2.047   2.461   6.471 -0.0819  0.2499 -1.0816
  285MPD2    C3 4547   1.954   2.558   6.491  1.1544 -0.6503 -0.2862
  285MPD2    C4 4548   1.902   2.571   6.615 -0.3309 -0.3026  0.2611
  285MPD2    C5 4549   1.933   2.489   6.719  1.0664  0.4944 -0.1283
  285MPD2     H 4550   2.093   2.439   6.376  0.6492  0.2879 -0.7377
  285MPD2    H1 4551   1.829   2.647   6.640 -0.3052 -0.1123 -0.2398
  285MPD2    H2 4552   2.048   2.323   6.783  3.1138  1.4845  0.8247
  285MPD2    H3 4553   1.883   2.512   6.813  2.0977  1.7654  0.1258
  285MPD2     N 4554   1.911   2.632   6.374 -0.4219  0.0255 -0.7382
  285MPD2    H5 4555   1.949   2.604   6.285  1.8609 -2.6949  1.0935
  285MPD2    N1 4556   2.172   2.267   6.573 -0.4442 -0.1495  0.1865
  285MPD2    H7 4557   2.165   2.207   6.655 -1.3499 -0.9924 -0.5075
  286MPD2     C 4558   2.083   1.375   9.257 -0.1117 -0.3515 -0.5341
  286MPD2    C1 4559   2.059   1.482   9.171 -0.2561  0.1337 -0.2564
  286MPD2    C2 4560   2.169   1.562   9.131 -0.5087 -0.0134  0.3962
  286MPD2    C3 4561   2.300   1.533   9.173 -0.6304  0.0992 -0.6217
  286MPD2    C4 4562   2.314   1.438   9.269  0.2539  0.4302 -0.4378
  286MPD2    C5 4563   2.212   1.357   9.312  0.4536  0.4372  0.8169
  286MPD2     H 4564   2.156   1.638   9.055  0.5528 -1.7116 -1.4747
  286MPD2    H1 4565   2.413   1.400   9.289  0.8787  1.6524 -1.2110
  286MPD2    H2 4566   2.006   1.304   9.284  1.9964 -2.3562  0.2949
  286MPD2    H3 4567   2.237   1.270   9.370  0.6287 -0.2193 -0.2405
  286MPD2     N 4568   2.413   1.595   9.122  0.0346 -0.0895 -0.4569
  286MPD2    H5 4569   2.506   1.556   9.138  0.7083  1.3301 -0.9896
  286MPD2    N1 4570   1.931   1.504   9.118 -0.1508  0.7071 -0.2490
  286MPD2    H7 4571   1.916   1.573   9.045 -0.4029  1.0875  0.1640
  287MPD2     C 4572   1.316   2.075   9.085  0.2251  0.2552 -0.6304
  287MPD2    C1 4573   1.390   2.035   8.977  0.0982  0.4695 -0.5236
  287MPD2    C2 4574   1.412   1.900   8.944  0.1907 -0.2104 -0.7291
  287MPD2    C3 4575   1.364   1.806   9.031 -0.3634 -0.1773 -0.6009
  287MPD2    C4 4576   1.288   1.846   9.137  0.3590  0.8573  0.1747
  287MPD2    C5 4577   1.258   1.978   9.162  0.0788 -0.6204 -0.5956
  287MPD2     H 4578   1.476   1.864   8.864  0.7936  2.3382 -1.4095
  287MPD2    H1 4579   1.245   1.778   9.209  0.6253  1.1023  0.5696
  287MPD2    H2 4580   1.276   2.175   9.104  0.4029  0.7581 -2.8675
  287MPD2    H3 4581   1.196   2.009   9.245  0.6054 -3.5497  0.8581
  287MPD2     N 4582   1.404   1.673   9.003 -0.1184  0.0338  0.0154
  287MPD2    H5 4583   1.471   1.665   8.927 -0.4453  1.9947 -0.4554
  287MPD2    N1 4584   1.451   2.138   8.914 -0.3690 -0.5818  0.0496
  287MPD2    H7 4585   1.431   2.222   8.967  0.3983 -0.5044  0.2160
  288MPD2     C 4586   1.573   1.600   8.231 -0.3038  0.2810  0.1560
  288MPD2    C1 4587   1.694   1.572   8.290  0.0675  0.2131  0.2866
  288MPD2    C2 4588   1.692   1.517   8.420  0.0058 -0.1736  0.4954
  288MPD2    C3 4589   1.572   1.504   8.491 -0.3036 -0.6525  0.0565
  288MPD2    C4 4590   1.457   1.530   8.421  0.0469 -0.1707  0.5111
  288MPD2    C5 4591   1.452   1.570   8.290 -0.0510 -0.1299 -0.1875
  288MPD2     H 4592   1.781   1.499   8.480  1.2205  0.6438 -1.0797
  288MPD2    H1 4593   1.365   1.531   8.479 -0.1656  2.3572  0.1201
  288MPD2    H2 4594   1.563   1.633   8.129  2.0669  0.2230 -0.0857
  288MPD2    H3 4595   1.362   1.581   8.231  0.3120  1.5212 -0.4218
  288MPD2     N 4596   1.558   1.478   8.630  0.1744 -0.1094 -0.2115
  288MPD2    H5 4597   1.471   1.510   8.673  0.9007  1.4553  0.1067
  288MPD2    N1 4598   1.819   1.597   8.232  0.2494  0.2414 -0.2718
  288MPD2    H7 4599   1.907   1.586   8.280 -0.5603 -0.3372  1.0890
  289MPD2     C 4600   1.594   3.476   7.756 -0.1168  0.2260 -0.1484
  289MPD2    C1 4601   1.728   3.490   7.796  0.1139 -0.5619 -0.1672
  289MPD2    C2 4602   1.826   3.418   7.741 -0.6863 -0.0573 -0.8391
  289MPD2    C3 4603   1.790   3.312   7.653  0.2329  0.4774  0.3606
  289MPD2    C4 4604   1.659   3.292   7.624 -0.6703 -0.0888 -0.8461
  289MPD2    C5 4605   1.565   3.371   7.672  0.0632  0.2893  0.0596
  289MPD2     H 4606   1.929   3.429   7.771 -1.1567 -2.4203  1.6449
  289MPD2    H1 4607   1.630   3.209   7.560 -3.3193 -1.0351  1.5820
  289MPD2    H2 4608   1.515   3.541   7.790 -1.5959 -2.0400  0.7897
  289MPD2    H3 4609   1.459   3.360   7.652  0.3039 -0.3396 -0.8570
  289MPD2     N 4610   1.878   3.220   7.605  0.0181  0.2834 -0.9125
  289MPD2    H5 4611   1.835   3.153   7.542  0.3296 -0.6586 -0.1274
  289MPD2    N1 4612   1.768   3.591   7.887  0.2644 -0.2781 -0.3391
  289MPD2    H7 4613   1.867   3.611   7.887  0.1183  0.3816 -3.0731
  290MPD2     C 4614   1.690   2.677   7.601  0.6396  0.2270 -0.4287
  290MPD2    C1 4615   1.813   2.638   7.550 -0.1466 -0.0422 -0.3608
  290MPD2    C2 4616   1.837   2.508   7.522  0.1860 -0.1282 -0.2135
  290MPD2    C3 4617   1.745   2.410   7.560  0.0353  1.1348  0.3621
  290MPD2    C4 4618   1.622   2.443   7.616 -0.2940 -0.5512  0.9307
  290MPD2    C5 4619   1.599   2.581   7.633  0.2122 -0.3471  0.1211
  290MPD2     H 4620   1.936   2.476   7.491  0.4063  0.9323 -0.6119
  290MPD2    H1 4621   1.546   2.376   7.653 -1.1008 -0.5041 -0.6460
  290MPD2    H2 4622   1.668   2.780   7.626 -0.6884 -0.5494  1.5727
  290MPD2    H3 4623   1.507   2.609   7.682  1.1175 -0.4605  1.8898
  290MPD2     N 4624   1.788   2.276   7.543 -0.2775  0.2802 -0.2156
  290MPD2    H5 4625   1.872   2.263   7.487 -0.3448  1.3555 -0.5678
  290MPD2    N1 4626   1.903   2.746   7.532  0.1645  0.0104 -0.0469
  290MPD2    H7 4627   1.883   2.836   7.575  3.7579  0.5944  0.3937
  291MPD2     C 4628   2.710   2.988   7.555  0.5879  0.1317 -0.3233
  291MPD2    C1 4629   2.634   2.924   7.463 -0.4703  0.4983  0.7673
  291MPD2    C2 4630   2.694   2.845   7.368 -0.0797 -0.2649 -0.2223
  291MPD2    C3 4631   2.831   2.851   7.351  0.3525  0.0676 -0.7671
  291MPD2    C4 4632   2.913   2.924   7.444 -0.0172  0.4858 -0.4335
  291MPD2    C5 4633   2.845   2.996   7.540  0.5134  0.0533  0.6037
  291MPD2     H 4634   2.634   2.787   7.299  0.8075 -0.3242 -0.9472
  291MPD2    H1 4635   3.020   2.940   7.443 -0.2434  2.0438  1.0223
  291MPD2    H2 4636   2.659   3.039   7.636 -0.0998 -2.4834  0.8989
  291MPD2    H3 4637   2.911   3.049   7.609 -1.3269  0.9326  1.6854
  291MPD2     N 4638   2.890   2.792   7.242 -0.3236 -0.4168  0.5419
  291MPD2    H5 4639   2.831   2.785   7.159 -2.5186 -0.5773  2.1198
  291MPD2    N1 4640   2.493   2.927   7.471  0.1392 -0.3954  0.2543
  291MPD2    H7 4641   2.445   2.847   7.430  0.9609 -1.0298  0.5368
  292MPD2     C 4642   1.936   2.905  13.669  0.2247  0.2855  0.5287
  292MPD2    C1 4643   1.900   2.969  13.547 -0.0600 -0.0006 -0.5619
  292MPD2    C2 4644   1.999   2.966  13.450  0.2197  0.1217 -0.9940
  292MPD2    C3 4645   2.116   2.906  13.477 -0.6332  0.6279 -0.1489
  292MPD2    C4 4646   2.136   2.827  13.587  0.1203  0.3216 -0.0382
  292MPD2    C5 4647   2.045   2.830  13.688  0.7457 -0.6830 -0.0443
  292MPD2     H 4648   1.993   3.006  13.350 -0.9111 -0.3161 -1.1060
  292MPD2    H1 4649   2.221   2.763  13.606 -1.6704 -1.2397  2.7807
  292MPD2    H2 4650   1.861   2.896  13.747  0.9995 -0.4697  1.1882
  292MPD2    H3 4651   2.069   2.771  13.776  1.3664 -1.1708 -0.5388
  292MPD2     N 4652   2.217   2.904  13.373 -0.2178  0.2032 -0.7888
  292MPD2    H5 4653   2.186   2.948  13.287  1.5592 -0.5959 -1.8381
  292MPD2    N1 4654   1.770   3.027  13.535 -0.1874 -0.3824  0.4154
  292MPD2    H7 4655   1.708   3.025  13.615  0.0063  3.0917  0.6243
  293MPD2     C 4656   1.093   2.883  12.766 -0.2605  0.6504 -0.3539
  293MPD2    C1 4657   1.067   2.817  12.883 -0.4745  0.1229 -0.6517
  293MPD2    C2 4658   1.108   2.881  12.998 -0.2316  0.4503  0.1078
  293MPD2    C3 4659   1.186   2.993  13.001  0.3601 -0.4202 -0.7773
  293MPD2    C4 4660   1.216   3.058  12.883 -0.6735 -0.5312 -0.5734
  293MPD2    C5 4661   1.168   2.997  12.769 -0.0970  0.0815  0.4412
  293MPD2     H 4662   1.095   2.822  13.088  0.2319 -1.2243 -0.9322
  293MPD2    H1 4663   1.262   3.156  12.885  1.2547 -1.4630  1.4582
  293MPD2    H2 4664   1.060   2.851  12.668 -1.3177 -1.5953  0.7393
  293MPD2    H3 4665   1.173   3.051  12.676 -0.7740 -0.6953 -0.0444
  293MPD2     N 4666   1.244   3.035  13.122  0.2952 -0.1971 -0.1558
  293MPD2    H5 4667   1.212   2.989  13.206  1.6348  1.6650  1.3610
  293MPD2    N1 4668   1.000   2.692  12.892 -0.0533  0.1970  0.1915
  293MPD2    H7 4669   0.986   2.641  12.979 -0.1494 -0.7515 -0.3922
  294MPD2     C 4670   1.366   1.476  12.625 -0.2700 -0.0552 -0.3676
  294MPD2    C1 4671   1.261   1.419  12.550 -0.2685 -0.5145 -0.3047
  294MPD2    C2 4672   1.211   1.300  12.591  0.1232 -0.2760  0.9309
  294MPD2    C3 4673   1.270   1.222  12.695 -0.4009  0.4260 -0.4328
  294MPD2    C4 4674   1.367   1.280  12.772  1.0049  0.9740 -0.4903
  294MPD2    C5 4675   1.415   1.401  12.737 -0.2974 -0.2678 -0.0558
  294MPD2     H 4676   1.129   1.268  12.528 -0.1189  0.6813  0.7549
  294MPD2    H1 4677   1.404   1.230  12.861 -1.9683  0.7343  0.6005
  294MPD2    H2 4678   1.403   1.576  12.608  1.1304 -0.6747 -0.9530
  294MPD2    H3 4679   1.495   1.446  12.794 -0.1409 -1.3016  0.5484
  294MPD2     N 4680   1.247   1.082  12.712  0.3254 -0.0530  0.4713
  294MPD2    H5 4681   1.291   1.013  12.771 -0.8001 -1.5819 -0.4764
  294MPD2    N1 4682   1.209   1.475  12.432  0.1053 -0.5848 -0.1675
  294MPD2    H7 4683   1.118   1.452  12.393  0.8892 -2.2277 -1.0228
  295MPD2     C 4684   0.587   1.738  12.097  0.6656  0.5042  0.4205
  295MPD2    C1 4685   0.674   1.744  11.996  0.1583  0.5417 -0.0307
  295MPD2    C2 4686   0.633   1.750  11.864 -0.1549 -0.6510 -0.2689
  295MPD2    C3 4687   0.500   1.743  11.834 -0.3829 -0.7235  0.4688
  295MPD2    C4 4688   0.410   1.719  11.942  0.9989 -0.4790 -0.5228
  295MPD2    C5 4689   0.458   1.724  12.066  0.9256  0.1801  0.4145
  295MPD2     H 4690   0.700   1.758  11.779 -0.7601 -1.4024 -0.8123
  295MPD2    H1 4691   0.302   1.723  11.943  1.0276  0.1789  0.8463
  295MPD2    H2 4692   0.622   1.729  12.199 -1.1560 -1.8141  0.8443
  295MPD2    H3 4693   0.389   1.718  12.150 -0.9955  2.1704 -1.0435
  295MPD2     N 4694   0.460   1.743  11.699 -0.5869 -0.0623  0.1288
  295MPD2    H5 4695   0.528   1.765  11.628  0.9242  1.2236  1.9682
  295MPD2    N1 4696   0.815   1.747  12.024  0.5302  1.0534 -0.3900
  295MPD2    H7 4697   0.883   1.731  11.950 -1.1354 -0.8062 -1.5237
  296MPD2     C 4698   0.511   0.824  14.483  0.1179  0.2143  0.5789
  296MPD2    C1 4699   0.486   0.961  14.502 -0.0436 -0.7433  0.2000
  296MPD2    C2 4700   0.510   1.057  14.406  0.2105  0.4656 -0.2276
  296MPD2    C3 4701   0.575   1.015  14.288 -0.4224 -0.7324  0.0132
  296MPD2    C4 4702   0.609   0.882  14.265  0.2439 -0.0581 -0.3397
  296MPD2    C5 4703   0.566   0.787  14.359 -0.8759 -0.6725  0.1075
  296MPD2     H 4704   0.494   1.164  14.414  1.7526  0.7449 -0.8359
  296MPD2    H1 4705   0.668   0.848  14.181 -0.1856 -1.2462 -0.1591
  296MPD2    H2 4706   0.508   0.748  14.559  1.4099  0.5856  0.9950
  296MPD2    H3 4707   0.608   0.688  14.363  1.0488  0.1701  0.7352
  296MPD2     N 4708   0.604   1.113  14.184  0.2634 -0.0013  0.9288
  296MPD2    H5 4709   0.590   1.208  14.215 -1.7870  0.6748 -2.0269
  296MPD2    N1 4710   0.439   1.005  14.630  0.2098 -0.6550 -0.0798
  296MPD2    H7 4711   0.431   0.933  14.701 -0.5888 -1.1327 -0.6559
  297MPD2     C 4712   1.157   1.029  14.866  0.3263 -0.7195 -0.2536
  297MPD2    C1 4713   1.066   1.001  14.766 -0.5800 -0.0025 -0.2937
  297MPD2    C2 4714   0.934   1.033  14.776  0.5152  0.1828  0.6430
  297MPD2    C3 4715   0.888   1.067  14.902 -0.4975  0.3987  0.3116
  297MPD2    C4 4716   0.979   1.093  15.007 -0.0948 -0.1157 -0.3565
  297MPD2    C5 4717   1.114   1.072  14.987  0.1482  0.7339  0.0804
  297MPD2     H 4718   0.868   1.011  14.693 -0.7811  0.0173  1.7021
  297MPD2    H1 4719   0.954   1.123  15.108  0.1197 -1.2886  0.0431
  297MPD2    H2 4720   1.261   1.002  14.858  0.3190 -1.3682  1.7777
  297MPD2    H3 4721   1.177   1.076  15.075  0.3731 -1.3889  0.0148
  297MPD2     N 4722   0.760   1.102  14.918 -0.2651 -0.7039 -0.0766
  297MPD2    H5 4723   0.690   1.087  14.845  1.4765  1.4255 -2.1863
  297MPD2    N1 4724   1.109   0.927  14.654 -0.6888 -0.5711  0.7243
  297MPD2    H7 4725   1.052   0.924  14.570  1.4542 -0.5056 -0.7327
  298MPD2     C 4726   0.191   0.792  15.317 -0.1364  0.5669 -0.0472
  298MPD2    C1 4727   0.310   0.761  15.253  0.3149  0.6905 -0.3356
  298MPD2    C2 4728   0.387   0.659  15.309 -0.2882  0.6753  0.0483
  298MPD2    C3 4729   0.339   0.578  15.414 -0.1644  0.0018 -0.3846
  298MPD2    C4 4730   0.217   0.610  15.468 -0.1422 -0.2063 -0.4023
  298MPD2    C5 4731   0.143   0.720  15.421  0.5565  0.0839 -0.4448
  298MPD2     H 4732   0.480   0.619  15.270 -0.7787 -0.2020 -0.2388
  298MPD2    H1 4733   0.187   0.560  15.559 -0.0930  0.3539 -0.0767
  298MPD2    H2 4734   0.139   0.885  15.296 -1.0148 -0.3989 -2.1221
  298MPD2    H3 4735   0.062   0.771  15.473  1.9380  0.6306  1.1840
  298MPD2     N 4736   0.412   0.462  15.452 -0.1081 -0.4876  0.4118
  298MPD2    H5 4737   0.501   0.451  15.406  1.1769  1.7697  2.3527
  298MPD2    N1 4738   0.357   0.827  15.149 -0.4795  0.5886 -0.4108
  298MPD2    H7 4739   0.453   0.811  15.120 -0.5335  1.7858 -1.2726
  299MPD2     C 4740   1.806   2.984   7.126  0.0286  0.3656 -0.2190
  299MPD2    C1 4741   1.700   3.074   7.131  0.5823 -0.2832 -0.6077
  299MPD2    C2 4742   1.719   3.191   7.199 -0.3165  0.0458  0.0032
  299MPD2    C3 4743   1.842   3.237   7.240 -0.0207 -0.4559  0.1509
  299MPD2    C4 4744   1.949   3.149   7.232 -0.3765 -0.2995 -0.0263
  299MPD2    C5 4745   1.924   3.021   7.191  0.1126  0.0660 -0.2949
  299MPD2     H 4746   1.634   3.258   7.190  0.2645  0.8995  0.9154
  299MPD2    H1 4747   2.042   3.174   7.280 -0.0504 -2.5168  0.4672
  299MPD2    H2 4748   1.796   2.887   7.079  0.5814  1.1878 -2.0251
  299MPD2    H3 4749   2.010   2.955   7.192 -0.5474 -0.8071 -1.2645
  299MPD2     N 4750   1.862   3.364   7.303  0.0488 -0.0943 -0.6912
  299MPD2    H5 4751   1.958   3.394   7.316 -0.7267  2.6094 -1.2204
  299MPD2    N1 4752   1.566   3.051   7.087  0.2193 -0.6753 -0.1312
  299MPD2    H7 4753   1.498   3.124   7.105  1.0858  0.6852 -2.3146
  300MPD2     C 4754   1.776   3.518   6.507 -0.0208  0.3556 -0.0309
  300MPD2    C1 4755   1.875   3.481   6.586 -0.1275  0.4915  0.4947
  300MPD2    C2 4756   1.902   3.562   6.695  0.4851  0.6063 -0.5526
  300MPD2    C3 4757   1.825   3.673   6.731  0.5855  0.5835 -0.2650
  300MPD2    C4 4758   1.730   3.712   6.640  0.2321  0.2788  0.6832
  300MPD2    C5 4759   1.703   3.623   6.538  1.0736  0.3317 -0.0788
  300MPD2     H 4760   1.970   3.523   6.770 -0.9353 -1.5342 -0.3562
  300MPD2    H1 4761   1.678   3.807   6.650 -0.9657 -0.4342  1.1391
  300MPD2    H2 4762   1.757   3.456   6.420  0.9535  0.6848 -0.4647
  300MPD2    H3 4763   1.628   3.644   6.462 -0.1550  0.1523  1.0980
  300MPD2     N 4764   1.842   3.747   6.853 -0.0019 -0.1565 -0.1521
  300MPD2    H5 4765   1.767   3.810   6.879  0.4780  0.0948  0.6110
  300MPD2    N1 4766   1.956   3.362   6.565 -0.4913 -0.3053  0.0290
  300MPD2    H7 4767   2.027   3.349   6.636 -1.3586  0.3772  1.0302
  301MPD2     C 4768   4.724   1.484  13.282 -0.0816 -0.6499 -0.1663
  301MPD2    C1 4769   4.678   1.377  13.349  0.3551 -0.1491 -0.3191
  301MPD2    C2 4770   4.700   1.252  13.299  0.5495 -0.1257 -0.2809
  301MPD2    C3 4771   4.774   1.230  13.184 -0.4135  0.5965 -0.1348
  301MPD2    C4 4772   0.038   1.344  13.101  0.1779  0.3524  0.6991
  301MPD2    C5 4773   0.023   1.467  13.169  0.5190  0.0646 -0.7071
  301MPD2     H 4774   4.650   1.166  13.341  0.0646  0.7535  0.9106
  301MPD2    H1 4775   0.093   1.328  13.009  2.3089  3.3079  1.4683
  301MPD2    H2 4776   4.709   1.587  13.313 -1.8292 -1.5817  2.0839
  301MPD2    H3 4777   0.059   1.551  13.110 -1.3362  0.6430 -1.0159
  301MPD2     N 4778   0.021   1.100  13.143  0.2752  0.6175 -0.0149
  301MPD2    H5 4779   4.755   1.032  13.206 -0.7454  1.7857  0.5721
  301MPD2    N1 4780   4.588   1.388  13.458  0.4828 -0.2453 -0.4020
  301MPD2    H7 4781   4.549   1.302  13.494  0.6456 -1.1103 -2.2859
  302MPD2     C 4782   3.972   2.059  13.940 -0.0852 -0.0801 -0.3768
  302MPD2    C1 4783   4.054   2.081  13.833 -0.4126 -0.6198  0.2683
  302MPD2    C2 4784   4.149   1.985  13.808 -0.6501 -0.0864 -0.1918
  302MPD2    C3 4785   4.172   1.872  13.885 -0.0623 -0.1639 -0.8126
  302MPD2    C4 4786   4.091   1.850  13.992  0.0071 -0.2046 -0.7975
  302MPD2    C5 4787   3.987   1.942  14.012  0.3190 -0.0287 -0.4312
  302MPD2     H 4788   4.217   1.985  13.723 -0.6565  0.1347 -0.1955
  302MPD2    H1 4789   4.082   1.764  14.057 -1.8074  1.2245  0.8399
  302MPD2    H2 4790   3.890   2.121  13.973  1.8031  1.3238  1.6515
  302MPD2    H3 4791   3.916   1.931  14.094  0.0977  0.2165 -0.5895
  302MPD2     N 4792   4.279   1.786  13.846  0.4439  0.1947  0.2475
  302MPD2    H5 4793   4.326   1.806  13.759  1.5423  1.0001  1.0253
  302MPD2    N1 4794   4.031   2.196  13.752  0.3078 -0.1160  0.1785
  302MPD2    H7 4795   3.960   2.260  13.786 -0.6837 -1.5178  0.7508
  303MPD2     C 4796   4.107   0.840  13.869 -0.0672 -0.3099  0.1807
  303MPD2    C1 4797   4.134   0.885  13.745 -0.5882  0.2191  0.6442
  303MPD2    C2 4798   4.226   0.991  13.724 -0.1012 -0.4625  0.5208
  303MPD2    C3 4799   4.283   1.056  13.832 -0.0189  0.3626 -0.2070
  303MPD2    C4 4800   4.265   0.996  13.959 -0.1503  0.1221 -0.0850
  303MPD2    C5 4801   4.176   0.892  13.971  0.3370 -0.0960 -0.1546
  303MPD2     H 4802   4.246   1.042  13.630 -0.0622 -0.4518  0.5350
  303MPD2    H1 4803   4.308   1.036  14.050 -1.8794  0.2886  0.6502
  303MPD2    H2 4804   4.031   0.764  13.884 -0.6479  0.7185  2.4313
  303MPD2    H3 4805   4.154   0.855  14.070 -1.3078  0.1414 -0.4327
  303MPD2     N 4806   4.368   1.165  13.806  0.1648  0.1261  0.9346
  303MPD2    H5 4807   4.376   1.202  13.712 -0.2102 -1.3871  0.3150
  303MPD2    N1 4808   4.066   0.819  13.641  0.4025  0.9712  0.5423
  303MPD2    H7 4809   3.993   0.755  13.670  0.1280  1.5616  1.1484
  304MPD2     C 4810   1.468   1.732   7.248 -0.2222 -0.3201 -0.3028
  304MPD2    C1 4811   1.367   1.819   7.204  0.7573  0.0705  0.9926
  304MPD2    C2 4812   1.394   1.953   7.209  0.4393  0.0743 -0.1527
  304MPD2    C3 4813   1.517   1.999   7.239 -0.3560  0.1450 -0.0012
  304MPD2    C4 4814   1.615   1.912   7.266  0.4170  0.1866 -0.2783
  304MPD2    C5 4815   1.594   1.778   7.270 -0.2145 -0.5957 -0.2844
  304MPD2     H 4816   1.308   2.013   7.182 -0.5721 -0.4437  1.9137
  304MPD2    H1 4817   1.719   1.936   7.288 -0.3445  1.6006  1.8238
  304MPD2    H2 4818   1.446   1.626   7.250  2.8364 -0.9790 -0.7915
  304MPD2    H3 4819   1.666   1.700   7.292  0.0770 -0.0386  0.7565
  304MPD2     N 4820   1.547   2.136   7.248  0.2790  0.2919  0.1059
  304MPD2    H5 4821   1.645   2.160   7.243  0.6154 -0.3985  3.7579
  304MPD2    N1 4822   1.245   1.763   7.162  0.1542  0.0764 -0.2444
  304MPD2    H7 4823   1.246   1.662   7.145 -2.3765  0.0284 -0.1089
  305MPD2     C 4824   0.700   0.953   6.924  0.1724 -0.5786 -0.8502
  305MPD2    C1 4825   0.730   1.013   7.045  1.0374 -0.1329 -0.3051
  305MPD2    C2 4826   0.791   1.138   7.050 -0.1232  0.1642 -0.0622
  305MPD2    C3 4827   0.820   1.201   6.922 -0.2603 -0.3795 -0.4554
  305MPD2    C4 4828   0.803   1.131   6.805 -0.5434  0.4875 -0.2774
  305MPD2    C5 4829   0.732   1.010   6.807 -0.0502 -0.4640  0.3960
  305MPD2     H 4830   0.801   1.183   7.148 -2.5080 -2.3898  1.3835
  305MPD2    H1 4831   0.820   1.177   6.709 -0.6363  1.6967  0.2817
  305MPD2    H2 4832   0.636   0.865   6.924 -1.2316  0.4435  1.8752
  305MPD2    H3 4833   0.691   0.969   6.716  1.2681 -2.1763  0.5952
  305MPD2     N 4834   0.877   1.330   6.920  0.5694 -0.0958  0.4273
  305MPD2    H5 4835   0.874   1.365   6.825  2.2955 -0.9770  0.0564
  305MPD2    N1 4836   0.668   0.952   7.161 -0.4656  0.0684  0.3465
  305MPD2    H7 4837   0.650   0.853   7.148 -1.7670  0.1974  1.1716
  306MPD2     C 4838   0.579   1.717   6.502  0.8247  0.4673 -0.4509
  306MPD2    C1 4839   0.694   1.780   6.547  0.0048  0.1632  0.1476
  306MPD2    C2 4840   0.744   1.891   6.484  0.4859 -0.3480 -0.7745
  306MPD2    C3 4841   0.670   1.949   6.380 -0.2457 -0.1646  0.5118
  306MPD2    C4 4842   0.561   1.883   6.328 -0.2093  0.3066 -0.0990
  306MPD2    C5 4843   0.522   1.764   6.387 -0.2486 -0.3237  0.4982
  306MPD2     H 4844   0.831   1.941   6.524  1.1382 -1.2091 -1.1351
  306MPD2    H1 4845   0.502   1.924   6.247 -2.3377  0.7650  1.6833
  306MPD2    H2 4846   0.526   1.634   6.548  0.5576 -0.7041 -2.8654
  306MPD2    H3 4847   0.428   1.714   6.366 -0.1172 -0.7537  0.9433
  306MPD2     N 4848   0.710   2.079   6.345  0.7756 -0.2831 -0.0706
  306MPD2    H5 4849   0.781   2.119   6.406  0.2783  0.7417 -0.1504
  306MPD2    N1 4850   0.746   1.735   6.668 -0.2155  0.2281  0.2244
  306MPD2    H7 4851   0.714   1.646   6.706 -0.1431 -0.0216 -0.2923
  307MPD2     C 4852   0.333   3.301   9.590 -0.4598 -0.1994 -0.4350
  307MPD2    C1 4853   0.422   3.293   9.691 -0.4313  0.0282 -0.1697
  307MPD2    C2 4854   0.417   3.384   9.794 -0.3968  0.5134  0.1269
  307MPD2    C3 4855   0.313   3.478   9.802  0.1080 -0.0240 -0.0324
  307MPD2    C4 4856   0.237   3.497   9.688  0.2320 -0.3377 -0.2943
  307MPD2    C5 4857   0.245   3.408   9.580  0.0593  0.4143 -0.5244
  307MPD2     H 4858   0.475   3.378   9.885 -1.5198 -0.0135  0.8108
  307MPD2    H1 4859   0.165   3.577   9.675  0.4048  0.0637  1.2728
  307MPD2    H2 4860   0.320   3.223   9.516 -1.6076 -1.2085  0.8348
  307MPD2    H3 4861   0.165   3.418   9.507 -1.2611  2.3051  1.1708
  307MPD2     N 4862   0.298   3.560   9.923 -0.0244  0.1207  0.3048
  307MPD2    H5 4863   0.347   3.537  10.009  2.2135 -3.8199 -2.0519
  307MPD2    N1 4864   0.529   3.200   9.704 -0.2779 -0.0302  0.4152
  307MPD2    H7 4865   0.607   3.222   9.764  1.3991  1.1567 -2.1920
  308MPD2     C 4866   3.974   2.328   7.217 -0.1331 -0.1537  0.5979
  308MPD2    C1 4867   3.898   2.315   7.328  0.1115  0.2113 -0.5135
  308MPD2    C2 4868   3.962   2.275   7.444  0.1449  0.1362 -1.0559
  308MPD2    C3 4869   4.092   2.231   7.439 -1.0594 -0.4692  0.4262
  308MPD2    C4 4870   4.161   2.236   7.321  0.0092 -0.5426  0.5514
  308MPD2    C5 4871   4.103   2.290   7.210 -0.8449  0.4227  1.1052
  308MPD2     H 4872   3.902   2.268   7.534 -1.0945 -2.0551 -2.0466
  308MPD2    H1 4873   4.261   2.198   7.303  0.3422 -0.1092  1.4608
  308MPD2    H2 4874   3.941   2.374   7.124 -0.9680 -0.1166  0.9066
  308MPD2    H3 4875   4.150   2.314   7.115 -1.4514 -0.5441  0.5607
  308MPD2     N 4876   4.166   2.192   7.552 -0.6118  0.1601  1.4798
  308MPD2    H5 4877   4.264   2.185   7.527 -1.4305  1.5029 -2.0997
  308MPD2    N1 4878   3.760   2.337   7.329 -0.0193  0.3385 -0.5887
  308MPD2    H7 4879   3.711   2.310   7.413 -0.3711 -1.2879 -1.3307
  309MPD2     C 4880   4.165   2.729   7.746 -0.0594 -0.4865  0.0636
  309MPD2    C1 4881   4.184   2.623   7.663  0.4560 -0.3949  0.7119
  309MPD2    C2 4882   4.098   2.606   7.555 -0.7996 -0.3288 -1.1887
  309MPD2    C3 4883   3.998   2.698   7.538 -0.3605  0.4968  0.0256
  309MPD2    C4 4884   3.977   2.808   7.622  0.5130  0.5796  0.5065
  309MPD2    C5 4885   4.063   2.814   7.733 -0.7599 -0.8796  0.9046
  309MPD2     H 4886   4.106   2.525   7.483  4.5206 -2.5315  1.8837
  309MPD2    H1 4887   3.901   2.883   7.609 -1.1531 -0.9818  1.2133
  309MPD2    H2 4888   4.231   2.760   7.826  2.7657 -3.6523 -1.0564
  309MPD2    H3 4889   4.051   2.887   7.811 -0.9317 -1.2028  1.1819
  309MPD2     N 4890   3.919   2.673   7.423 -0.8676  0.2907  0.6918
  309MPD2    H5 4891   3.958   2.600   7.364 -0.3820  0.9878  0.1450
  309MPD2    N1 4892   4.287   2.526   7.694 -0.5114  0.0224 -0.3038
  309MPD2    H7 4893   4.297   2.440   7.641  0.9325  0.2786 -0.4437
  310MPD2     C 4894   3.881   2.155   8.259  0.1427  0.4062  0.0658
  310MPD2    C1 4895   4.013   2.183   8.270 -0.5647 -0.1091  0.3214
  310MPD2    C2 4896   4.071   2.190   8.399 -0.2076 -0.4370 -0.4015
  310MPD2    C3 4897   3.999   2.158   8.516  0.2430  0.6038  0.0970
  310MPD2    C4 4898   3.865   2.131   8.501 -0.9638  0.1458  0.2643
  310MPD2    C5 4899   3.802   2.136   8.371 -0.6525  0.0331 -0.3524
  310MPD2     H 4900   4.175   2.219   8.409  0.1819 -1.9969 -0.0042
  310MPD2    H1 4901   3.797   2.117   8.584  0.4265  0.9715  1.5337
  310MPD2    H2 4902   3.836   2.163   8.161  0.7625  0.3030 -0.2293
  310MPD2    H3 4903   3.695   2.128   8.355 -0.7613  0.9354 -0.1047
  310MPD2     N 4904   4.067   2.176   8.643  0.2410  0.6965  0.6813
  310MPD2    H5 4905   4.166   2.193   8.633  0.4053 -0.7108 -0.1602
  310MPD2    N1 4906   4.086   2.200   8.153 -0.5907  0.7849  0.1429
  310MPD2    H7 4907   4.035   2.179   8.068  0.6027 -0.5325 -0.2466
  311MPD2     C 4908   3.171   0.698   6.759  0.2434  0.1888 -0.5370
  311MPD2    C1 4909   3.191   0.595   6.857  0.2948 -0.3516 -0.2926
  311MPD2    C2 4910   3.199   0.637   6.989 -0.8177  0.3506 -0.5156
  311MPD2    C3 4911   3.198   0.769   7.027  0.0397  0.7848 -0.0313
  311MPD2    C4 4912   3.175   0.864   6.931 -0.3863 -0.1693  0.1209
  311MPD2    C5 4913   3.160   0.828   6.798 -0.1835 -1.0089 -0.0146
  311MPD2     H 4914   3.204   0.563   7.067  0.2766  0.8072 -0.1592
  311MPD2    H1 4915   3.176   0.971   6.945 -0.9689 -0.4064  1.9758
  311MPD2    H2 4916   3.156   0.675   6.654  1.5132  1.1413 -0.9152
  311MPD2    H3 4917   3.160   0.909   6.726 -0.4022 -0.4932  0.5618
  311MPD2     N 4918   3.214   0.795   7.163 -0.3335 -0.4196 -0.2397
  311MPD2    H5 4919   3.213   0.710   7.219  0.3199 -0.4242 -0.2366
  311MPD2    N1 4920   3.194   0.461   6.828  0.4716 -0.4302  0.6179
  311MPD2    H7 4921   3.212   0.402   6.909 -0.2283  0.6660  1.5756
  312MPD2     C 4922   3.848   0.093   7.123  0.2449  0.0522 -0.0024
  312MPD2    C1 4923   3.842   0.093   6.982 -0.6261 -0.1872  0.7214
  312MPD2    C2 4924   3.719   0.076   6.926  0.0454 -0.3785  0.5101
  312MPD2    C3 4925   3.604   0.059   6.996 -0.1321  0.1924 -0.2310
  312MPD2    C4 4926   3.613   0.072   7.135 -0.3582  0.9788  0.0817
  312MPD2    C5 4927   3.733   0.087   7.198 -0.0238 -0.0233  0.2482
  312MPD2     H 4928   3.720   0.070   6.818 -0.8012 -0.0796  0.4932
  312MPD2    H1 4929   3.523   0.080   7.194 -0.6075 -0.5768 -0.0749
  312MPD2    H2 4930   3.947   0.106   7.167  0.5781 -0.9807 -0.4487
  312MPD2    H3 4931   3.741   0.079   7.306  1.1999  1.5535  0.2714
  312MPD2     N 4932   3.473   0.055   6.944  0.1397  0.1762  0.0014
  312MPD2    H5 4933   3.395   0.081   7.004  1.5572 -1.3567  2.5320
  312MPD2    N1 4934   3.957   0.093   6.897  0.3025 -0.3537 -0.7182
  312MPD2    H7 4935   3.949   0.075   6.798 -1.1927  2.7068 -1.1440
  313MPD2     C 4936   1.063   2.645  14.324  0.4240  0.4731 -1.2990
  313MPD2    C1 4937   1.023   2.627  14.455  0.2955  0.9533 -0.2289
  313MPD2    C2 4938   1.113   2.590  14.549 -0.1590  0.6838  0.2894
  313MPD2    C3 4939   1.246   2.598  14.526  0.0121 -0.6069  0.7058
  313MPD2    C4 4940   1.289   2.628  14.398 -0.2986 -0.6086  0.1153
  313MPD2    C5 4941   1.201   2.642  14.296  0.0735 -0.9500  0.3973
  313MPD2     H 4942   1.089   2.565  14.652  1.8463  1.2322  0.8832
  313MPD2    H1 4943   1.394   2.645  14.377 -0.1043  1.1790  2.4827
  313MPD2    H2 4944   0.995   2.655  14.240  0.0617  1.0392 -0.9365
  313MPD2    H3 4945   1.234   2.672  14.197  2.0991 -1.1884  1.0090
  313MPD2     N 4946   1.331   2.553  14.635 -0.7988  0.9091  0.1091
  313MPD2    H5 4947   1.285   2.531  14.722 -1.5780  0.6958 -0.3561
  313MPD2    N1 4948   0.884   2.634  14.485 -0.1461  0.2417 -0.3016
  313MPD2    H7 4949   0.818   2.655  14.411  0.1521 -1.7840 -1.1336
  314MPD2     C 4950   0.919   1.979  15.127  0.7812 -0.4166 -0.3192
  314MPD2    C1 4951   0.922   2.027  15.001  0.6692 -0.8808 -0.3902
  314MPD2    C2 4952   1.032   2.111  14.969 -0.0432  0.1121 -0.2924
  314MPD2    C3 4953   1.134   2.143  15.064 -1.3087 -0.0326 -0.1946
  314MPD2    C4 4954   1.124   2.087  15.189  0.2995  0.8239  0.6798
  314MPD2    C5 4955   1.022   2.014  15.216 -0.0993 -0.6102  0.2955
  314MPD2     H 4956   1.025   2.153  14.869 -2.2025  0.7946  0.1402
  314MPD2    H1 4957   1.185   2.125  15.270  1.3852  1.0848 -0.2687
  314MPD2    H2 4958   0.836   1.917  15.160  0.2268  0.7700  0.5559
  314MPD2    H3 4959   0.998   2.001  15.321 -0.0853 -0.2291  0.3465
  314MPD2     N 4960   1.243   2.227  15.033 -0.3122 -0.2619  0.3593
  314MPD2    H5 4961   1.324   2.237  15.094 -0.9664 -1.8364  1.4992
  314MPD2    N1 4962   0.843   1.984  14.896 -0.1635 -0.2054  0.3054
  314MPD2    H7 4963   0.847   2.033  14.807 -2.7055 -0.3555  0.1080
  315MPD2     C 4964   3.867   4.250   9.865 -0.3074  0.2178 -0.3585
  315MPD2    C1 4965   3.727   4.250   9.855  0.1086  0.5701 -0.6601
  315MPD2    C2 4966   3.670   4.353   9.778  0.4207  0.1913 -0.0267
  315MPD2    C3 4967   3.744   4.444   9.702  0.0794 -0.8736  0.1677
  315MPD2    C4 4968   3.882   4.438   9.714 -0.7023  0.1938  0.6668
  315MPD2    C5 4969   3.935   4.347   9.793 -0.1734  0.7156 -0.3573
  315MPD2     H 4970   3.562   4.356   9.766  0.6648 -0.4127 -2.2852
  315MPD2    H1 4971   3.952   4.499   9.657  0.0401 -0.3040  1.0456
  315MPD2    H2 4972   3.920   4.171   9.917 -1.1779 -0.0502  0.1189
  315MPD2    H3 4973   4.042   4.340   9.805 -0.3009  0.2993  0.5124
  315MPD2     N 4974   3.686   4.530   9.613 -0.3946 -0.3902 -0.4793
  315MPD2    H5 4975   3.586   4.522   9.597 -0.7605  0.6591  1.2811
  315MPD2    N1 4976   3.666   4.140   9.910  0.3238  0.0466  0.5852
  315MPD2    H7 4977   3.726   4.077   9.961 -0.5872 -1.4314 -0.1707
  316MPD2     C 4978   3.421   3.466  10.204 -0.4333  0.2276  0.1947
  316MPD2    C1 4979   3.335   3.564  10.168  0.1990  0.2985  0.2379
  316MPD2    C2 4980   3.212   3.569  10.228  0.0676  0.3364 -0.2991
  316MPD2    C3 4981   3.190   3.485  10.338  0.0370 -0.1499  0.0678
  316MPD2    C4 4982   3.288   3.399  10.389 -0.0778  0.2055  0.4300
  316MPD2    C5 4983   3.403   3.390  10.318  0.3703 -1.0065 -0.2948
  316MPD2     H 4984   3.132   3.637  10.200 -1.0243 -0.7095  0.2620
  316MPD2    H1 4985   3.276   3.342  10.480  0.0397 -0.3469  0.0952
  316MPD2    H2 4986   3.518   3.464  10.156 -2.3620 -0.2785 -3.6277
  316MPD2    H3 4987   3.475   3.317  10.354  1.5389 -0.7975 -2.2362
  316MPD2     N 4988   3.065   3.496  10.403 -0.1353 -0.0699  0.0585
  316MPD2    H5 4989   3.005   3.573  10.374  1.7083  1.2980 -0.1245
  316MPD2    N1 4990   3.369   3.640  10.057  0.0007  0.6184  0.1671
  316MPD2    H7 4991   3.467   3.633  10.033  0.1327  1.1080  0.5574
  317MPD2     C 4992   3.673   4.143   9.222 -0.9298  0.6980 -0.3432
  317MPD2    C1 4993   3.721   4.187   9.342 -0.4209 -0.5046  0.0808
  317MPD2    C2 4994   3.687   4.127   9.463  0.1550 -0.0014 -0.5582
  317MPD2    C3 4995   3.625   4.009   9.460  0.3347  0.8319 -0.5349
  317MPD2    C4 4996   3.568   3.960   9.347 -0.0991 -0.0533 -0.9853
  317MPD2    C5 4997   3.592   4.025   9.226  0.5699  0.0087  0.9313
  317MPD2     H 4998   3.730   4.169   9.553  0.5167  2.7595 -2.0270
  317MPD2    H1 4999   3.511   3.868   9.347 -0.5996  0.2536  0.7473
  317MPD2    H2 5000   3.686   4.195   9.128 -1.7316  1.4211 -0.0583
  317MPD2    H3 5001   3.557   3.984   9.133 -2.1513  2.3260  0.9302
  317MPD2     N 5002   3.607   3.952   9.588  0.0908 -0.0805 -0.4449
  317MPD2    H5 5003   3.641   4.008   9.666  0.7452 -0.6970 -0.2891
  317MPD2    N1 5004   3.814   4.285   9.345 -0.5673 -0.5079  0.2267
  317MPD2    H7 5005   3.860   4.294   9.435  1.9094 -1.2259 -0.9524
  318MPD2     C 5006   4.701   0.915   7.847 -0.3322 -0.3547 -0.5493
  318MPD2    C1 5007   4.644   1.016   7.916  0.1769 -0.9105 -0.5303
  318MPD2    C2 5008   4.612   0.997   8.048  0.2041  0.4124 -0.1936
  318MPD2    C3 5009   4.654   0.881   8.107 -0.1642  0.2722  0.4182
  318MPD2    C4 5010   4.717   0.776   8.039 -0.4819  0.0255  0.4308
  318MPD2    C5 5011   4.731   0.792   7.905 -0.7407 -0.2289 -0.4224
  318MPD2     H 5012   4.569   1.083   8.099  1.3577  1.6334 -1.2716
  318MPD2    H1 5013   4.752   0.684   8.083 -2.3875 -1.2728 -0.7655
  318MPD2    H2 5014   4.726   0.917   7.742  0.4797 -1.4080 -0.3766
  318MPD2    H3 5015   0.004   0.715   7.847  0.2975 -0.1461  0.3499
  318MPD2     N 5016   4.638   0.862   8.244  0.5825 -0.1847 -0.1222
  318MPD2    H5 5017   4.657   0.771   8.284 -3.1805 -1.0659 -0.2649
  318MPD2    N1 5018   4.612   1.141   7.858 -0.0572 -0.5711  0.7456
  318MPD2    H7 5019   4.573   1.213   7.918  0.5456  0.7858 -0.4884
  319MPD2     C 5020   4.035   0.231   8.600 -0.3792 -0.5158  0.9738
  319MPD2    C1 5021   4.055   0.309   8.490  0.3033 -0.5411 -0.0773
  319MPD2    C2 5022   4.122   0.431   8.497 -0.1457  0.1345 -0.2877
  319MPD2    C3 5023   4.171   0.478   8.616  0.6185  0.5808  0.0205
  319MPD2    C4 5024   4.152   0.400   8.730  0.2713 -0.4070  0.9355
  319MPD2    C5 5025   4.084   0.280   8.723 -0.9019 -0.3631 -0.6476
  319MPD2     H 5026   4.134   0.490   8.406  1.0839  3.3217  1.9614
  319MPD2    H1 5027   4.188   0.440   8.824  0.5645 -0.6782  0.9359
  319MPD2    H2 5028   4.002   0.128   8.595 -0.5377 -0.3767 -0.7792
  319MPD2    H3 5029   4.063   0.219   8.810  1.0646 -1.0797 -0.6739
  319MPD2     N 5030   4.252   0.593   8.628  0.3703  0.2339  0.1527
  319MPD2    H5 5031   4.292   0.610   8.719 -0.0303 -0.5377  0.4720
  319MPD2    N1 5032   3.991   0.268   8.369  0.2990  0.6715 -0.3587
  319MPD2    H7 5033   3.952   0.175   8.358  0.2594  0.6626 -0.1344
  320MPD2     C 5034   4.552   1.236   8.993  0.6165  0.3085  0.1073
  320MPD2    C1 5035   4.555   1.258   8.856 -0.3556  0.3213 -0.5050
  320MPD2    C2 5036   4.585   1.380   8.803 -0.0469  0.2635  0.8022
  320MPD2    C3 5037   4.629   1.480   8.887 -0.7935  0.5354 -0.0857
  320MPD2    C4 5038   4.632   1.458   9.026 -0.1083 -0.2725 -0.5641
  320MPD2    C5 5039   4.580   1.339   9.080  0.3513  0.2487  0.5266
  320MPD2     H 5040   4.585   1.394   8.696  0.4618 -2.5901  0.4571
  320MPD2    H1 5041   4.661   1.530   9.101 -1.5454 -1.4072  1.0874
  320MPD2    H2 5042   4.520   1.146   9.043  2.2761 -0.7692 -0.7651
  320MPD2    H3 5043   4.584   1.311   9.185  0.5899  0.9388  0.7019
  320MPD2     N 5044   4.670   1.598   8.828 -0.0001 -0.0694 -0.1991
  320MPD2    H5 5045   4.661   1.597   8.727 -1.4026  0.6663 -0.0792
  320MPD2    N1 5046   4.525   1.150   8.766  0.8307  0.0571 -0.5158
  320MPD2    H7 5047   4.518   1.184   8.671 -1.4477  0.0652 -0.3621
  321MPD2     C 5048   3.478   4.253  14.645 -0.5264  0.3865 -0.6736
  321MPD2    C1 5049   3.534   4.129  14.636 -0.1026 -0.0835 -0.4091
  321MPD2    C2 5050   3.475   4.030  14.563  0.3012 -0.0402 -0.0634
  321MPD2    C3 5051   3.345   4.048  14.520  0.4827 -0.6287 -0.0307
  321MPD2    C4 5052   3.272   4.161  14.565  0.0481 -0.0853  0.7628
  321MPD2    C5 5053   3.342   4.263  14.623  0.1090  0.0323 -0.8247
  321MPD2     H 5054   3.533   3.945  14.532 -0.0437 -0.6482  0.9752
  321MPD2    H1 5055   3.167   4.174  14.544  0.3572 -2.0754 -1.9996
  321MPD2    H2 5056   3.529   4.328  14.704 -1.7008 -0.2524  1.1389
  321MPD2    H3 5057   3.288   4.354  14.646  2.5874  2.0504 -3.0287
  321MPD2     N 5058   3.270   3.956  14.437 -0.1288 -0.4090 -0.4050
  321MPD2    H5 5059   3.174   3.983  14.418 -1.0240 -2.2719  1.5527
  321MPD2    N1 5060   3.675   4.135  14.663 -0.7024 -0.5692  0.5003
  321MPD2    H7 5061   3.710   4.220  14.706  2.0858 -2.3617  1.7424
  322MPD2     C 5062   4.399   4.144  14.544 -0.5822  0.2612  0.4828
  322MPD2    C1 5063   4.296   4.056  14.561 -0.0492 -0.1488  0.3919
  322MPD2    C2 5064   4.176   4.078  14.488  0.2666  0.2825 -0.1239
  322MPD2    C3 5065   4.167   4.187  14.407  0.1539 -0.0072  0.2110
  322MPD2    C4 5066   4.270   4.280  14.393  0.1954 -0.5409 -0.1113
  322MPD2    C5 5067   4.388   4.250  14.462  0.6263 -0.1128 -0.1607
  322MPD2     H 5068   4.100   4.001  14.486  1.6544 -1.1257  0.3893
  322MPD2    H1 5069   4.254   4.371  14.337  0.1602 -0.4806 -0.0028
  322MPD2    H2 5070   4.490   4.134  14.603  0.5683  3.4503 -0.7490
  322MPD2    H3 5071   4.472   4.318  14.453 -0.9838  1.6580 -2.0547
  322MPD2     N 5072   4.047   4.204  14.328 -0.2872  0.1736  0.6506
  322MPD2    H5 5073   4.034   4.288  14.274  0.5831 -0.0214  0.1391
  322MPD2    N1 5074   4.312   3.949  14.655 -0.1907 -0.0649 -0.1220
  322MPD2    H7 5075   4.407   3.921  14.679 -1.3292 -1.9494  2.2493
  323MPD2     C 5076   4.756   3.202   7.954 -0.1741 -0.2019  0.3249
  323MPD2    C1 5077   4.618   3.207   7.933  0.2142 -0.3004  0.3912
  323MPD2    C2 5078   4.538   3.306   7.991 -0.1238  0.0713  0.0073
  323MPD2    C3 5079   4.598   3.412   8.058 -0.1067 -0.0260 -1.0358
  323MPD2    C4 5080   4.737   3.416   8.064  0.7677  0.0458 -0.3702
  323MPD2    C5 5081   0.040   3.309   8.020  0.1171 -0.5592 -0.1307
  323MPD2     H 5082   4.430   3.301   7.982 -0.0403 -1.0551 -0.3744
  323MPD2    H1 5083   0.011   3.502   8.107  0.6929 -0.5074  0.8060
  323MPD2    H2 5084   0.038   3.123   7.908 -0.2651 -0.9759  1.5394
  323MPD2    H3 5085   0.147   3.314   8.039  0.1580 -0.6019 -0.3439
  323MPD2     N 5086   4.517   3.520   8.109 -1.3164  0.2036  0.8632
  323MPD2    H5 5087   4.418   3.501   8.102 -1.6823  1.6694  2.1650
  323MPD2    N1 5088   4.567   3.111   7.848 -0.2271  0.4506 -0.4741
  323MPD2    H7 5089   4.626   3.032   7.822 -0.8307  0.4676 -1.8994
  324MPD2     C 5090   3.927   4.025   8.523 -0.8309 -0.2364 -0.0195
  324MPD2    C1 5091   4.017   3.926   8.509 -0.1418 -0.5153 -0.4437
  324MPD2    C2 5092   3.995   3.798   8.560 -0.1031 -0.4613 -0.1866
  324MPD2    C3 5093   3.878   3.771   8.632  0.2131 -0.2793 -0.8118
  324MPD2    C4 5094   3.790   3.881   8.660  0.5150  0.1809  0.3213
  324MPD2    C5 5095   3.811   4.006   8.603 -0.2110 -0.5392  0.3445
  324MPD2     H 5096   4.058   3.712   8.538  2.4291  0.8805  1.8837
  324MPD2    H1 5097   3.696   3.870   8.713 -0.0208  2.5054 -0.1198
  324MPD2    H2 5098   3.948   4.125   8.488 -0.8956 -0.2041  0.0342
  324MPD2    H3 5099   3.753   4.093   8.630 -1.5804 -0.9105 -1.4477
  324MPD2     N 5100   3.847   3.647   8.694  0.1762 -0.0884  0.3002
  324MPD2    H5 5101   3.771   3.648   8.762 -2.0655  0.4945 -2.2385
  324MPD2    N1 5102   4.133   3.944   8.432  0.4045  0.1743 -0.6320
  324MPD2    H7 5103   4.127   4.017   8.362  2.1887 -0.1426 -1.1341
  325MPD2     C 5104   4.489   2.471  12.841  0.2513  0.0920  0.9047
  325MPD2    C1 5105   4.426   2.537  12.730 -0.5675 -0.1915  0.2990
  325MPD2    C2 5106   4.325   2.628  12.765  0.2113  0.4412  0.1095
  325MPD2    C3 5107   4.306   2.668  12.901  0.5475  0.7612  0.2695
  325MPD2    C4 5108   4.376   2.609  13.001 -0.0077 -0.2399 -0.0156
  325MPD2    C5 5109   4.465   2.508  12.974 -0.5944 -0.2768  0.4275
  325MPD2     H 5110   4.266   2.670  12.684 -1.1355 -1.2451  0.1945
  325MPD2    H1 5111   4.371   2.635  13.106  1.6067  1.6239 -0.4065
  325MPD2    H2 5112   4.558   2.389  12.826  0.7650  0.1600  2.9029
  325MPD2    H3 5113   4.522   2.463  13.055  0.0007 -0.6135 -0.1789
  325MPD2     N 5114   4.206   2.770  12.941 -0.0537  0.9203 -0.2546
  325MPD2    H5 5115   4.187   2.785  13.040 -0.5856 -0.8087 -0.0911
  325MPD2    N1 5116   4.451   2.512  12.597 -0.1951 -0.2959  0.4290
  325MPD2    H7 5117   4.412   2.581  12.534 -0.4516 -0.5079  0.3565
  326MPD2     C 5118   0.342   2.150  12.226 -0.7435 -0.0103  0.0568
  326MPD2    C1 5119   0.295   2.204  12.349 -0.5132  0.4412  0.1861
  326MPD2    C2 5120   0.350   2.161  12.469  0.0522  0.3001 -0.1784
  326MPD2    C3 5121   0.452   2.065  12.469  0.0918  0.2151  0.6223
  326MPD2    C4 5122   0.501   2.018  12.348 -0.1726 -0.2063  0.4480
  326MPD2    C5 5123   0.443   2.059  12.231 -0.3468 -0.5393  0.2634
  326MPD2     H 5124   0.319   2.209  12.560  0.6121 -0.1302  0.2408
  326MPD2    H1 5125   0.584   1.949  12.339  0.9427  1.5617 -2.7190
  326MPD2    H2 5126   0.305   2.174  12.127 -5.9206  0.8995  2.2530
  326MPD2    H3 5127   0.476   2.024  12.134  0.5945  0.5888  0.1756
  326MPD2     N 5128   0.516   2.014  12.590  0.0267 -0.5428 -0.0007
  326MPD2    H5 5129   0.568   1.928  12.577 -0.7197 -0.7153 -1.7670
  326MPD2    N1 5130   0.181   2.284  12.350  0.1178  0.3666  0.6707
  326MPD2    H7 5131   0.147   2.312  12.441 -1.8478  3.9465 -1.1402
  327MPD2     C 5132   4.592   2.742  11.787 -0.0696  0.8586 -0.5942
  327MPD2    C1 5133   4.578   2.782  11.920  0.4461 -0.0502 -0.2878
  327MPD2    C2 5134   4.538   2.910  11.942  1.1687  0.2026  0.1063
  327MPD2    C3 5135   4.524   3.002  11.850  0.4755 -0.0145  0.4122
  327MPD2    C4 5136   4.535   2.962  11.718 -0.4104 -0.3611 -0.2190
  327MPD2    C5 5137   4.554   2.830  11.688 -0.0130  0.8190 -1.0834
  327MPD2     H 5138   4.520   2.946  12.043  1.0254 -0.8597  0.4588
  327MPD2    H1 5139   4.529   3.030  11.634 -0.0422  0.8747  0.7434
  327MPD2    H2 5140   4.624   2.644  11.755 -0.2583 -0.4466  3.2334
  327MPD2    H3 5141   4.592   2.795  11.592  0.1491  0.2970 -0.8287
  327MPD2     N 5142   4.497   3.137  11.899  0.3009 -0.2750  0.0231
  327MPD2    H5 5143   4.498   3.156  11.998 -1.3019  0.5657 -0.1207
  327MPD2    N1 5144   4.597   2.683  12.018  0.1528  0.0205  0.0409
  327MPD2    H7 5145   4.636   2.600  11.976 -2.1930 -0.6600 -0.7472
  328MPD2     C 5146   4.410   4.456   7.006  0.3554 -0.4045 -0.8767
  328MPD2    C1 5147   4.507   4.506   6.927 -0.2393 -0.8365  0.2805
  328MPD2    C2 5148   4.615   4.571   6.986  0.3951 -0.2166  0.2156
  328MPD2    C3 5149   4.629   4.584   7.126  0.2920  0.1004 -0.3466
  328MPD2    C4 5150   4.533   4.523   7.202 -0.2959  0.8937 -0.2490
  328MPD2    C5 5151   4.430   4.454   7.140 -0.7044  0.5233  0.2303
  328MPD2     H 5152   4.699   4.599   6.924  1.5547 -2.8027  0.6216
  328MPD2    H1 5153   4.529   4.515   7.310 -0.6501  1.1259 -0.2441
  328MPD2    H2 5154   4.325   4.409   6.959 -1.1089 -1.2677  2.6208
  328MPD2    H3 5155   4.352   4.403   7.195 -0.1192  3.5728  3.8866
  328MPD2     N 5156   4.732   4.652   7.184 -0.1071  0.2273  0.4971
  328MPD2    H5 5157   0.016   4.696   7.115  0.0291 -0.5355  0.1281
  328MPD2    N1 5158   4.490   4.507   6.787 -0.0173  0.2550  0.1888
  328MPD2    H7 5159   4.405   4.460   6.757 -0.5913  1.1271  0.4580
  329MPD2     C 5160   3.692   4.405   6.291 -0.0421 -0.2033 -0.2490
  329MPD2    C1 5161   3.790   4.341   6.222  0.4925  0.8360  0.1393
  329MPD2    C2 5162   3.917   4.387   6.239 -0.3380 -0.6111  0.4572
  329MPD2    C3 5163   3.950   4.477   6.334 -0.2692  0.2582 -0.1182
  329MPD2    C4 5164   3.852   4.549   6.400  0.5140 -1.0860 -0.0824
  329MPD2    C5 5165   3.718   4.510   6.379 -0.2327 -0.1439  0.2540
  329MPD2     H 5166   3.999   4.338   6.187  1.0417  2.2486 -0.0393
  329MPD2    H1 5167   3.879   4.637   6.457  0.9623 -0.2829 -1.5228
  329MPD2    H2 5168   3.591   4.376   6.263 -0.0612 -0.1322 -0.2540
  329MPD2    H3 5169   3.637   4.543   6.443 -0.5169 -0.2755 -0.0423
  329MPD2     N 5170   4.091   4.495   6.353 -0.5477  0.5957  0.9871
  329MPD2    H5 5171   4.142   4.437   6.287  1.8241  2.5046  1.1250
  329MPD2    N1 5172   3.759   4.232   6.141  0.0992 -0.3467 -0.2691
  329MPD2    H7 5173   3.659   4.211   6.134  0.0821 -0.0620 -0.8426
  330MPD2     C 5174   3.178   0.317   7.612  0.7709  0.1977  0.2762
  330MPD2    C1 5175   3.086   0.216   7.624 -0.1331  0.8135 -0.7207
  330MPD2    C2 5176   3.036   0.183   7.744 -0.5601  0.2388  0.2003
  330MPD2    C3 5177   3.065   0.266   7.856 -0.2221 -0.2444 -0.4106
  330MPD2    C4 5178   3.158   0.368   7.843 -0.3700 -0.4522  0.2952
  330MPD2    C5 5179   3.213   0.391   7.721  0.1872 -0.4417  0.1809
  330MPD2     H 5180   2.959   0.108   7.753  0.8302 -1.1599  0.4897
  330MPD2    H1 5181   3.186   0.430   7.927 -0.1979 -2.1794  1.5237
  330MPD2    H2 5182   3.227   0.345   7.519 -0.1170 -0.8170 -0.5115
  330MPD2    H3 5183   3.293   0.465   7.724  0.4828 -0.8206  1.4266
  330MPD2     N 5184   2.983   0.248   7.970 -0.2021  0.3168  0.7198
  330MPD2    H5 5185   2.923   0.166   7.968  1.2026 -0.7639  2.0900
  330MPD2    N1 5186   3.039   0.147   7.513 -0.6969  0.1022  0.4607
  330MPD2    H7 5187   2.996   0.056   7.526  0.7740 -1.2862 -4.1991
  331MPD2     C 5188   2.923   4.572   6.707  0.1474  0.0882 -0.4040
  331MPD2    C1 5189   2.812   4.630   6.771  0.0221  0.9053  0.0040
  331MPD2    C2 5190   2.687   4.614   6.719 -0.4269 -0.2303 -0.1654
  331MPD2    C3 5191   2.667   4.541   6.604 -0.2572 -0.5595 -0.0382
  331MPD2    C4 5192   2.773   4.471   6.550 -0.7476  0.6582  0.1457
  331MPD2    C5 5193   2.902   4.489   6.601  0.1990  0.5521  0.2703
  331MPD2     H 5194   2.605   4.658   6.775  0.1164 -1.3467  1.4996
  331MPD2    H1 5195   2.765   4.400   6.468  2.6160 -1.5682  1.7543
  331MPD2    H2 5196   3.024   4.595   6.739  0.8880 -1.4925 -1.6492
  331MPD2    H3 5197   2.987   4.454   6.543 -0.2446 -1.5789  0.8917
  331MPD2     N 5198   2.538   4.516   6.545  0.2635  0.2978  0.1164
  331MPD2    H5 5199   2.532   4.452   6.467 -1.9790  1.1060 -0.3701
  331MPD2    N1 5200   2.818   4.684   6.897 -0.0488  0.1276  0.2233
  331MPD2    H7 5201   2.734   4.712   6.947  1.2098 -0.3466  2.5743
  332MPD2     C 5202   1.012   1.068  12.110 -0.4294 -0.3494 -0.0700
  332MPD2    C1 5203   1.074   0.978  12.027 -0.2537 -0.5875  0.0017
  332MPD2    C2 5204   1.207   0.954  12.053 -0.0105  0.1333  0.2600
  332MPD2    C3 5205   1.267   1.001  12.173  0.0448  0.1913  0.2317
  332MPD2    C4 5206   1.190   1.066  12.264 -0.9266  0.7819 -0.0783
  332MPD2    C5 5207   1.069   1.109  12.227  0.1169  0.7935  0.8020
  332MPD2     H 5208   1.273   0.916  11.976  0.7129  0.4166  0.7295
  332MPD2    H1 5209   1.226   1.100  12.360  1.4336  0.2201 -0.7660
  332MPD2    H2 5210   0.923   1.117  12.072 -1.0018  0.7109  2.6142
  332MPD2    H3 5211   1.008   1.166  12.296 -3.6629 -1.4176 -0.7321
  332MPD2     N 5212   1.398   0.952  12.206 -0.7557  0.1061 -0.1641
  332MPD2    H5 5213   1.442   0.895  12.135  1.0463  0.6563  0.5182
  332MPD2    N1 5214   1.012   0.941  11.911  0.6164 -0.3943 -0.1076
  332MPD2    H7 5215   0.920   0.980  11.897  1.7380  2.4976  0.7121
  333MPD2     C 5216   1.203   0.414  11.292  0.8813 -0.4870 -0.7258
  333MPD2    C1 5217   1.218   0.483  11.409  0.0926 -0.6244  0.3936
  333MPD2    C2 5218   1.343   0.472  11.465 -0.1346 -0.6037 -0.0541
  333MPD2    C3 5219   1.455   0.411  11.401 -0.2550 -0.5216  0.0700
  333MPD2    C4 5220   1.428   0.347  11.285  0.1647  0.0149 -0.1165
  333MPD2    C5 5221   1.306   0.352  11.223 -0.9423  0.3090  0.8988
  333MPD2     H 5222   1.353   0.515  11.564  0.0913  0.9901 -0.7646
  333MPD2    H1 5223   1.512   0.303  11.231  0.7254  1.3450 -0.3273
  333MPD2    H2 5224   1.112   0.435  11.237  0.7826  0.4245 -0.2238
  333MPD2    H3 5225   1.285   0.314  11.123  0.1554 -1.8014  1.4753
  333MPD2     N 5226   1.589   0.415  11.444 -0.2345 -0.2887  0.0380
  333MPD2    H5 5227   1.650   0.359  11.384 -1.5745 -1.9936  0.2606
  333MPD2    N1 5228   1.123   0.566  11.475  0.2707 -0.4201 -0.4991
  333MPD2    H7 5229   1.152   0.616  11.558 -1.8948 -0.1400  0.0866
  334MPD2     C 5230   0.308   1.087  11.227  0.3606 -0.2120  0.3281
  334MPD2    C1 5231   0.397   1.173  11.297 -0.1893  0.0402  0.7497
  334MPD2    C2 5232   0.486   1.118  11.391  1.0950 -0.5566 -0.8321
  334MPD2    C3 5233   0.508   0.974  11.373  0.0094  0.3206 -0.6399
  334MPD2    C4 5234   0.414   0.890  11.312 -0.1859  0.6984  1.2390
  334MPD2    C5 5235   0.316   0.949  11.233 -0.0158 -0.6782  0.0227
  334MPD2     H 5236   0.572   1.175  11.423 -0.2241  1.2660 -0.4722
  334MPD2    H1 5237   0.428   0.783  11.307 -0.9049  0.8004 -2.8501
  334MPD2    H2 5238   0.235   1.127  11.156  0.0976  1.6911  1.6651
  334MPD2    H3 5239   0.254   0.886  11.170 -2.5990  0.1301  1.7952
  334MPD2     N 5240   0.612   0.909  11.438  0.4228  0.7320 -0.0550
  334MPD2    H5 5241   0.620   0.808  11.442 -2.2900  0.5321  0.6214
  334MPD2    N1 5242   0.362   1.316  11.297 -0.1324 -0.5359 -0.1165
  334MPD2    H7 5243   0.296   1.351  11.229  0.2456 -0.3946 -0.4102
  335MPD2     C 5244   2.584   2.900   9.324 -0.2692 -0.0029 -0.2546
  335MPD2    C1 5245   2.456   2.868   9.278  0.5194 -0.0621 -0.3014
  335MPD2    C2 5246   2.367   2.807   9.367 -0.6421 -0.8652  0.3395
  335MPD2    C3 5247   2.412   2.753   9.490 -0.1261 -0.7851  0.0192
  335MPD2    C4 5248   2.543   2.781   9.524 -0.5591  0.3725  0.2284
  335MPD2    C5 5249   2.618   2.858   9.448  0.2819 -1.8709  0.0715
  335MPD2     H 5250   2.265   2.784   9.337 -1.3999  1.6091  0.9835
  335MPD2    H1 5251   2.580   2.733   9.614  0.4004  1.0517  0.1903
  335MPD2    H2 5252   2.652   2.954   9.259 -0.5078 -0.7481 -1.1176
  335MPD2    H3 5253   2.719   2.878   9.479 -0.2563  0.1208  0.5574
  335MPD2     N 5254   2.334   2.677   9.578 -0.7255  0.6455 -0.4122
  335MPD2    H5 5255   2.362   2.673   9.675 -1.8876 -0.5068 -0.1264
  335MPD2    N1 5256   2.419   2.925   9.156 -0.4173  0.3674 -0.2305
  335MPD2    H7 5257   2.502   2.962   9.112 -0.2675 -2.2546 -2.1792
  336MPD2     C 5258   2.312   2.560   8.749  0.2512  1.2691 -0.2546
  336MPD2    C1 5259   2.355   2.584   8.878 -0.4327 -0.4331 -0.6136
  336MPD2    C2 5260   2.469   2.661   8.893  0.3992 -1.0702  0.1801
  336MPD2    C3 5261   2.540   2.711   8.783  0.5838  0.3325  0.7190
  336MPD2    C4 5262   2.489   2.689   8.655 -0.5268 -1.0094  0.6618
  336MPD2    C5 5263   2.380   2.607   8.642  1.2491  0.5644 -0.8291
  336MPD2     H 5264   2.511   2.684   8.990 -0.8670 -0.5435  0.5970
  336MPD2    H1 5265   2.534   2.730   8.565 -0.7012 -0.2404  0.9340
  336MPD2    H2 5266   2.226   2.499   8.723  2.0468 -1.2790 -0.2161
  336MPD2    H3 5267   2.335   2.583   8.547 -1.1235 -1.0563  0.7055
  336MPD2     N 5268   2.659   2.785   8.787  0.3467  0.3489  0.1898
  336MPD2    H5 5269   2.699   2.798   8.695 -1.5139  0.6117 -0.5773
  336MPD2    N1 5270   2.279   2.537   8.987  0.3613 -0.0419 -0.0457
  336MPD2    H7 5271   2.186   2.500   8.972  0.1994 -0.0485  0.9890
  337MPD2     C 5272   1.510   2.142   9.337  0.0774 -0.1847  0.2079
  337MPD2    C1 5273   1.515   2.271   9.382 -0.1147 -0.3803 -0.2534
  337MPD2    C2 5274   1.620   2.355   9.337  0.0133  0.4509 -0.0830
  337MPD2    C3 5275   1.726   2.298   9.260 -0.0464  0.2268 -0.0179
  337MPD2    C4 5276   1.724   2.163   9.235  0.1858 -0.4766 -0.0769
  337MPD2    C5 5277   1.607   2.088   9.262 -0.3903 -0.3748  0.4367
  337MPD2     H 5278   1.610   2.460   9.362  1.4527  0.6114 -0.1391
  337MPD2    H1 5279   1.807   2.120   9.180  0.2156 -0.5288  0.0089
  337MPD2    H2 5280   1.427   2.079   9.367 -0.4560  0.4062 -0.0258
  337MPD2    H3 5281   1.608   1.981   9.244  0.6668 -0.1953 -0.5743
  337MPD2     N 5282   1.849   2.365   9.235  0.2249 -0.6454  0.5487
  337MPD2    H5 5283   1.932   2.314   9.206 -0.1782 -0.9400 -0.0899
  337MPD2    N1 5284   1.424   2.324   9.475  1.0072  0.0262  0.0252
  337MPD2    H7 5285   1.438   2.421   9.503  3.1708 -0.2399 -0.2084
  338MPD2     C 5286   1.975   2.350  11.857 -0.1198  0.7373 -0.5811
  338MPD2    C1 5287   1.961   2.342  11.998 -0.6176 -0.1550 -0.7468
  338MPD2    C2 5288   1.847   2.370  12.056 -0.3692 -0.4190  0.2117
  338MPD2    C3 5289   1.736   2.405  11.993  0.0197 -0.2186 -0.3214
  338MPD2    C4 5290   1.745   2.407  11.853  0.6993  0.5726 -0.0745
  338MPD2    C5 5291   1.861   2.378  11.789  0.2120 -0.1030 -0.4965
  338MPD2     H 5292   1.843   2.376  12.164  2.1283  2.4158  0.1449
  338MPD2    H1 5293   1.656   2.427  11.794  1.0695  1.8027 -0.2064
  338MPD2    H2 5294   2.074   2.343  11.815  0.3733  0.4865  0.6031
  338MPD2    H3 5295   1.863   2.390  11.681 -0.0804  0.7715 -0.4052
  338MPD2     N 5296   1.621   2.434  12.068 -0.3947  0.2212 -0.1134
  338MPD2    H5 5297   1.625   2.437  12.169  1.7666  0.4073 -0.2067
  338MPD2    N1 5298   2.073   2.312  12.085 -0.1413 -0.4235  0.3110
  338MPD2    H7 5299   2.063   2.332  12.184  1.9441 -0.0540  0.4470
  339MPD2     C 5300   1.370   2.727  12.751 -1.1584 -0.9439 -0.0619
  339MPD2    C1 5301   1.387   2.603  12.694  0.9825  0.2391 -0.9294
  339MPD2    C2 5302   1.419   2.491  12.774 -0.6625  0.7318  0.3094
  339MPD2    C3 5303   1.407   2.503  12.909  0.1890 -0.2622 -0.5079
  339MPD2    C4 5304   1.384   2.629  12.964  0.1067 -0.5029  0.3672
  339MPD2    C5 5305   1.371   2.735  12.886  0.6966 -0.1906  0.2649
  339MPD2     H 5306   1.433   2.395  12.726  0.6101  0.1229  1.8672
  339MPD2    H1 5307   1.374   2.637  13.071 -0.1660 -0.1668  0.3165
  339MPD2    H2 5308   1.339   2.805  12.683  0.9592 -0.4357 -0.4386
  339MPD2    H3 5309   1.355   2.831  12.933  0.4628 -0.5572  0.9323
  339MPD2     N 5310   1.447   2.400  12.997  0.5587  0.2678 -0.5960
  339MPD2    H5 5311   1.421   2.417  13.094 -0.7357 -1.2197 -0.6799
  339MPD2    N1 5312   1.375   2.597  12.551  0.4092  0.4091 -0.0619
  339MPD2    H7 5313   1.357   2.681  12.497  2.4380  1.5363  1.0319
  340MPD2     C 5314   1.441   3.305  12.147  0.0836 -0.1331  0.2783
  340MPD2    C1 5315   1.542   3.216  12.120  0.2191  0.2317 -0.2574
  340MPD2    C2 5316   1.513   3.080  12.104 -1.1143  0.2107 -0.6091
  340MPD2    C3 5317   1.386   3.034  12.126 -0.5738 -0.1844 -0.2530
  340MPD2    C4 5318   1.281   3.125  12.147 -0.0069 -0.1025  0.6576
  340MPD2    C5 5319   1.313   3.259  12.147 -0.0525 -0.0345 -0.6401
  340MPD2     H 5320   1.601   3.019  12.087 -0.7821  0.5722 -0.1864
  340MPD2    H1 5321   1.177   3.092  12.152  0.0518 -0.7206 -1.8365
  340MPD2    H2 5322   1.466   3.411  12.145 -0.3646  0.0140  2.0251
  340MPD2    H3 5323   1.229   3.326  12.163  0.8837  0.8309  0.6639
  340MPD2     N 5324   1.373   2.894  12.125  0.3905  0.2371 -0.2004
  340MPD2    H5 5325   1.458   2.840  12.116 -0.3980 -0.4748 -3.4767
  340MPD2    N1 5326   1.677   3.250  12.103 -0.3187  0.6818 -0.9112
  340MPD2    H7 5327   1.740   3.172  12.114  0.4007  1.5928  1.6009
  341MPD2     C 5328   2.728   1.791  12.175  0.4959  0.7330 -0.1399
  341MPD2    C1 5329   2.683   1.900  12.101 -0.2943 -0.4697 -0.1511
  341MPD2    C2 5330   2.738   1.924  11.977 -0.5144  0.3859 -1.3067
  341MPD2    C3 5331   2.820   1.827  11.917 -0.1649  0.5842  0.0147
  341MPD2    C4 5332   2.850   1.715  11.992  0.2257 -0.5179  0.4932
  341MPD2    C5 5333   2.807   1.697  12.117  0.0288 -0.3554  0.1091
  341MPD2     H 5334   2.711   2.003  11.908 -2.3620 -0.5999 -1.6887
  341MPD2    H1 5335   2.906   1.633  11.950  0.7396  0.4383 -0.7020
  341MPD2    H2 5336   2.684   1.774  12.273  1.8838  1.0906  0.5587
  341MPD2    H3 5337   2.839   1.607  12.167 -1.2937 -0.7144  0.3147
  341MPD2     N 5338   2.861   1.857  11.785  0.0113 -0.5445  0.0478
  341MPD2    H5 5339   2.829   1.939  11.736 -0.1189 -1.2330 -1.0293
  341MPD2    N1 5340   2.590   1.992  12.144  0.3539  0.1104 -0.2775
  341MPD2    H7 5341   2.543   2.049  12.074  1.5891  2.4183  0.7772
  342MPD2     C 5342   3.256   2.252  11.122  0.1522  0.3407 -0.3508
  342MPD2    C1 5343   3.143   2.230  11.199 -0.1130  0.6365  0.1201
  342MPD2    C2 5344   3.032   2.309  11.173 -0.4272  0.0211  0.0813
  342MPD2    C3 5345   3.033   2.394  11.066  0.5311 -0.4500  0.2094
  342MPD2    C4 5346   3.141   2.398  10.977  0.3352 -0.2611 -0.5849
  342MPD2    C5 5347   3.252   2.331  11.011 -0.2256 -0.7037  0.1071
  342MPD2     H 5348   2.951   2.308  11.246 -0.0874  0.4334  0.4583
  342MPD2    H1 5349   3.153   2.459  10.888  2.3997  2.0271  1.2862
  342MPD2    H2 5350   3.349   2.204  11.150 -0.3201 -0.0136  0.6073
  342MPD2    H3 5351   3.345   2.336  10.955 -0.0544 -0.5862  0.4030
  342MPD2     N 5352   2.931   2.487  11.037  0.6145 -0.8721 -0.1642
  342MPD2    H5 5353   2.939   2.540  10.951 -0.0621 -0.3761  0.0822
  342MPD2    N1 5354   3.151   2.142  11.305  0.0210  0.3984  0.0190
  342MPD2    H7 5355   3.242   2.100  11.321 -1.9812 -2.3500  4.1268
  343MPD2     C 5356   2.256   2.575  10.499 -0.3175 -0.7925  0.2011
  343MPD2    C1 5357   2.313   2.476  10.415 -0.6678  0.0133 -0.0787
  343MPD2    C2 5358   2.249   2.422  10.311  0.9173  0.0652  0.1504
  343MPD2    C3 5359   2.114   2.457  10.291  0.6929 -0.3393  0.2064
  343MPD2    C4 5360   2.058   2.556  10.383 -0.0946  0.2531  0.2125
  343MPD2    C5 5361   2.129   2.617  10.480  0.9388 -0.8457 -0.3130
  343MPD2     H 5362   2.296   2.346  10.250 -0.0782 -0.2308 -0.2494
  343MPD2    H1 5363   1.955   2.588  10.370 -0.0268 -0.2033 -1.4474
  343MPD2    H2 5364   2.302   2.613  10.590 -2.4223 -1.5859  1.5994
  343MPD2    H3 5365   2.086   2.689  10.549  0.2649 -1.1151 -0.4556
  343MPD2     N 5366   2.025   2.388  10.201 -0.3669  0.0935  0.2094
  343MPD2    H5 5367   1.926   2.406  10.214 -0.6378 -1.7499  0.6394
  343MPD2    N1 5368   2.442   2.435  10.443 -0.2870  0.3842 -0.5089
  343MPD2    H7 5369   2.492   2.478  10.521 -0.5548  0.6461 -0.4851
  344MPD2     C 5370   2.763   2.952   9.799 -0.1778  0.0048 -0.1026
  344MPD2    C1 5371   2.827   2.838   9.841 -0.7616  0.5639 -0.1726
  344MPD2    C2 5372   2.753   2.724   9.871 -0.5642  0.1120  0.1547
  344MPD2    C3 5373   2.613   2.734   9.871 -0.9565  0.3050  0.2956
  344MPD2    C4 5374   2.552   2.852   9.839  0.2294 -0.4280 -0.5657
  344MPD2    C5 5375   2.628   2.960   9.813  0.6280  0.1139  0.3834
  344MPD2     H 5376   2.798   2.628   9.895  0.5513  0.6258  0.1194
  344MPD2    H1 5377   2.445   2.870   9.840  0.6102  1.7463  0.3953
  344MPD2    H2 5378   2.812   3.046   9.777  1.9683 -1.5201 -1.7612
  344MPD2    H3 5379   2.582   3.057   9.800 -1.6028 -0.9438  0.3851
  344MPD2     N 5380   2.532   2.618   9.899 -0.0130 -0.3935  0.4257
  344MPD2    H5 5381   2.582   2.530   9.896  0.7810  0.0731  0.0036
  344MPD2    N1 5382   2.965   2.828   9.852 -1.0090  0.2399  0.0508
  344MPD2    H7 5383   3.010   2.745   9.890 -1.1421 -0.2533 -0.8703
  345MPD2     C 5384   2.460   1.624   9.973  0.1782  0.4247 -0.1053
  345MPD2    C1 5385   2.554   1.725  10.006  0.2224  0.3912  0.0109
  345MPD2    C2 5386   2.528   1.856   9.972 -0.1194 -0.1649  0.0394
  345MPD2    C3 5387   2.413   1.893   9.905 -0.3261 -0.0875 -0.0526
  345MPD2    C4 5388   2.322   1.795   9.877  0.5730  0.0733 -0.0570
  345MPD2    C5 5389   2.344   1.657   9.906 -0.2981 -0.8563  0.3640
  345MPD2     H 5390   2.594   1.935  10.005  0.3893  0.0760 -1.5380
  345MPD2    H1 5391   2.228   1.828   9.833  1.0907 -0.6769 -1.7198
  345MPD2    H2 5392   2.477   1.518   9.990 -0.5544  0.0769 -1.5620
  345MPD2    H3 5393   2.278   1.574   9.885  1.6482 -2.1881 -0.5370
  345MPD2     N 5394   2.367   2.027   9.885 -0.0446 -0.3399 -0.1917
  345MPD2    H5 5395   2.273   2.038   9.849  0.1157  2.2178  0.1619
  345MPD2    N1 5396   2.668   1.683  10.072 -1.0021 -0.1221 -0.5693
  345MPD2    H7 5397   2.659   1.589  10.110 -0.6947 -0.6026 -1.6784
  346MPD2     C 5398   2.731   3.806   6.325  0.3162  0.1462  0.4017
  346MPD2    C1 5399   2.735   3.673   6.335 -0.1367 -0.1696  0.6891
  346MPD2    C2 5400   2.621   3.606   6.297 -0.2199  0.2589 -0.1106
  346MPD2    C3 5401   2.500   3.671   6.258  0.2134  0.2278 -0.3224
  346MPD2    C4 5402   2.495   3.806   6.275 -0.0040  0.3069 -0.2041
  346MPD2    C5 5403   2.615   3.872   6.307  0.0905 -0.8400 -0.1509
  346MPD2     H 5404   2.619   3.499   6.286  0.1491  0.4858 -2.2945
  346MPD2    H1 5405   2.405   3.865   6.282 -0.0569  0.0081  1.7227
  346MPD2    H2 5406   2.818   3.865   6.351  0.7351 -0.0620 -0.5279
  346MPD2    H3 5407   2.613   3.977   6.332 -0.6795 -0.8315 -0.2364
  346MPD2     N 5408   2.392   3.589   6.233 -0.1736 -0.0991  0.3237
  346MPD2    H5 5409   2.406   3.489   6.245  0.4459  0.0332  0.6901
  346MPD2    N1 5410   2.855   3.616   6.387 -0.3462  0.4411  0.4322
  346MPD2    H7 5411   2.939   3.670   6.402  0.4820 -0.2194 -1.8768
  347MPD2     C 5412   3.751   3.096  12.544  0.6045 -0.7904 -0.1748
  347MPD2    C1 5413   3.691   3.218  12.527 -0.4241  0.3953  0.7774
  347MPD2    C2 5414   3.764   3.309  12.446 -0.0232  0.3025 -0.7132
  347MPD2    C3 5415   3.897   3.286  12.407 -0.4790  0.3307  0.1883
  347MPD2    C4 5416   3.953   3.165  12.434  0.4604  0.4750  0.3691
  347MPD2    C5 5417   3.880   3.065  12.495  0.2669  0.2334 -0.1214
  347MPD2     H 5418   3.720   3.405  12.425  0.4940  0.6000 -0.4219
  347MPD2    H1 5419   4.057   3.145  12.415  0.2966  0.4355 -0.4881
  347MPD2    H2 5420   3.691   3.015  12.585  0.4270  0.0383  1.1853
  347MPD2    H3 5421   3.916   2.964  12.511  1.5459  0.7605  0.3019
  347MPD2     N 5422   3.954   3.387  12.322  0.6013 -0.4084 -0.5655
  347MPD2    H5 5423   3.895   3.457  12.279  0.5727  0.9616  1.6658
  347MPD2    N1 5424   3.556   3.246  12.574  0.2866 -0.3500 -0.0284
  347MPD2    H7 5425   3.510   3.167  12.618  0.1048 -1.6478 -2.5436
  348MPD2     C 5426   2.980   2.781  12.983  0.5708  0.2396  0.2548
  348MPD2    C1 5427   2.901   2.891  12.971 -0.5881  0.2410 -0.1713
  348MPD2    C2 5428   2.951   2.992  12.895  0.2748  0.3076 -1.0406
  348MPD2    C3 5429   3.084   2.991  12.842 -0.3621 -0.4403  0.4501
  348MPD2    C4 5430   3.166   2.882  12.868 -0.1453  0.6261  0.2114
  348MPD2    C5 5431   3.108   2.777  12.935  0.1269 -0.2780 -0.3134
  348MPD2     H 5432   2.888   3.080  12.881  0.1056  0.3213 -0.1562
  348MPD2    H1 5433   3.269   2.869  12.839 -0.1298  0.3058  0.4116
  348MPD2    H2 5434   2.943   2.687  13.022  0.0378  0.0590 -0.6769
  348MPD2    H3 5435   3.166   2.687  12.952 -1.7333 -1.3155  0.5185
  348MPD2     N 5436   3.135   3.094  12.761 -0.0811 -0.7242 -0.0454
  348MPD2    H5 5437   3.234   3.100  12.742 -0.4683  0.1071 -1.8410
  348MPD2    N1 5438   2.762   2.895  13.002 -0.2117 -0.5971 -0.3317
  348MPD2    H7 5439   2.711   2.978  12.975 -0.4885 -0.2792  1.2191
  349MPD2     C 5440   3.087   4.147  12.788 -0.6751 -0.1583 -0.9261
  349MPD2    C1 5441   3.160   4.120  12.678  0.0961  0.5419  0.4234
  349MPD2    C2 5442   3.185   3.995  12.634  0.1173  0.1679 -0.0706
  349MPD2    C3 5443   3.140   3.886  12.702 -0.8503 -0.6967 -0.5433
  349MPD2    C4 5444   3.068   3.916  12.819 -0.2429 -0.5365  0.1884
  349MPD2    C5 5445   3.041   4.044  12.860 -0.4039  0.5462  0.4468
  349MPD2     H 5446   3.249   3.972  12.550  0.6616  1.8707 -0.1205
  349MPD2    H1 5447   3.031   3.837  12.882  0.8927 -0.3469  1.0855
  349MPD2    H2 5448   3.073   4.248  12.824 -0.9010 -0.5322  0.0252
  349MPD2    H3 5449   2.988   4.060  12.953 -1.2961  1.3001 -0.2011
  349MPD2     N 5450   3.172   3.754  12.663  0.6134 -0.6902  0.0417
  349MPD2    H5 5451   3.235   3.743  12.585  0.8158  0.7041  0.0074
  349MPD2    N1 5452   3.206   4.226  12.604  0.7572  0.2358  0.8727
  349MPD2    H7 5453   3.235   4.200  12.510 -0.2645 -0.8232  0.8601
  350MPD2     C 5454   1.252   2.543   9.068 -0.0584 -0.0970  0.0469
  350MPD2    C1 5455   1.202   2.483   8.951  0.0440 -0.0072 -0.1584
  350MPD2    C2 5456   1.257   2.528   8.825  0.3500 -0.7406  0.2709
  350MPD2    C3 5457   1.344   2.633   8.826  0.0133  0.4159 -0.0037
  350MPD2    C4 5458   1.390   2.686   8.944  0.2517  1.0688 -0.1881
  350MPD2    C5 5459   1.351   2.640   9.064 -0.0067 -0.1864  0.5905
  350MPD2     H 5460   1.219   2.490   8.732 -0.4035 -0.2860  0.3957
  350MPD2    H1 5461   1.481   2.746   8.939  1.3338 -0.6015 -0.7093
  350MPD2    H2 5462   1.213   2.509   9.163  0.4482  0.7932  0.5731
  350MPD2    H3 5463   1.397   2.665   9.158  0.4117 -2.7291  1.0809
  350MPD2     N 5464   1.392   2.697   8.705  0.3292  0.0503 -0.5943
  350MPD2    H5 5465   1.453   2.777   8.716  0.6705 -0.6190  2.4066
  350MPD2    N1 5466   1.116   2.367   8.962  0.3390 -0.2525 -0.0814
  350MPD2    H7 5467   1.085   2.338   9.054 -1.0468 -2.8730 -1.3714
  351MPD2     C 5468   1.873   3.205   8.569  0.3856  0.0281 -0.1989
  351MPD2    C1 5469   1.854   3.162   8.443  0.0193  0.4045 -0.2591
  351MPD2    C2 5470   1.949   3.188   8.346  0.5575 -0.3150 -0.1742
  351MPD2    C3 5471   2.069   3.254   8.371 -0.6124  0.0821 -0.1311
  351MPD2    C4 5472   2.083   3.304   8.497  0.3255 -1.4234 -0.4731
  351MPD2    C5 5473   1.992   3.276   8.594  0.1551 -0.2992  0.5488
  351MPD2     H 5474   1.930   3.162   8.243  0.4704 -0.1422 -0.2028
  351MPD2    H1 5475   2.166   3.365   8.531  0.4197 -0.4657 -2.4209
  351MPD2    H2 5476   1.801   3.190   8.649  2.4915 -0.8603  1.5163
  351MPD2    H3 5477   2.007   3.313   8.695  2.7478 -1.0820  0.4696
  351MPD2     N 5478   2.175   3.278   8.276  0.4148  0.1916  0.1657
  351MPD2    H5 5479   2.264   3.314   8.309 -0.6222  0.6183  2.4966
  351MPD2    N1 5480   1.743   3.082   8.402 -0.4858  0.0327  0.1995
  351MPD2    H7 5481   1.734   3.053   8.305  0.4241 -0.8200  0.3767
  352MPD2     C 5482   0.790   3.070   8.131  0.0880 -0.1096 -0.0348
  352MPD2    C1 5483   0.904   3.146   8.093 -0.0131 -0.0775 -0.4242
  352MPD2    C2 5484   1.028   3.091   8.113  0.1171 -0.3397  0.1989
  352MPD2    C3 5485   1.050   2.966   8.178  0.5981  0.5452 -0.3128
  352MPD2    C4 5486   0.937   2.894   8.216  0.0320  0.1466  0.3899
  352MPD2    C5 5487   0.817   2.944   8.181  0.6766  0.3809 -0.1926
  352MPD2     H 5488   1.117   3.145   8.083 -0.4749  1.1818  1.2207
  352MPD2    H1 5489   0.934   2.802   8.273  2.2002  0.3606  0.8701
  352MPD2    H2 5490   0.687   3.103   8.137  1.0532  2.6140  1.1177
  352MPD2    H3 5491   0.724   2.891   8.199  0.7433 -0.7333 -3.1856
  352MPD2     N 5492   1.171   2.918   8.224 -0.2667  0.7173  0.3726
  352MPD2    H5 5493   1.160   2.831   8.276  2.4740  0.1940  0.1091
  352MPD2    N1 5494   0.875   3.269   8.027  0.4152  0.1247  0.0690
  352MPD2    H7 5495   0.781   3.306   8.034  0.2096 -0.3321 -0.2927
  353MPD2     C 5496   2.256   0.981  12.144  0.1829  0.4490 -1.2102
  353MPD2    C1 5497   2.134   0.960  12.079  0.7186 -0.0081 -0.3574
  353MPD2    C2 5498   2.121   1.006  11.956  0.3433  0.0055  0.1221
  353MPD2    C3 5499   2.221   1.063  11.891 -0.1955  0.3838 -0.2828
  353MPD2    C4 5500   2.347   1.080  11.949 -0.0625  0.0787 -0.8239
  353MPD2    C5 5501   2.365   1.032  12.077  0.9256  0.2716 -1.0053
  353MPD2     H 5502   2.021   0.989  11.916  0.3639  1.1921 -0.4065
  353MPD2    H1 5503   2.435   1.111  11.894  0.6706 -2.0038 -0.8208
  353MPD2    H2 5504   2.274   0.930  12.238  0.5562 -2.5003 -2.9030
  353MPD2    H3 5505   2.462   1.042  12.125  0.8952 -3.0299 -0.2165
  353MPD2     N 5506   2.212   1.124  11.768 -0.3341 -0.1638  0.3744
  353MPD2    H5 5507   2.288   1.186  11.739 -0.8878  0.0948 -0.5100
  353MPD2    N1 5508   2.027   0.911  12.161  0.3544 -0.0223 -0.3776
  353MPD2    H7 5509   2.046   0.921  12.260  1.6806  0.5265 -0.6928
  354MPD2     C 5510   1.339   1.802  12.884  0.1822 -0.3203  0.4882
  354MPD2    C1 5511   1.369   1.905  12.801 -0.8715  0.4160 -0.0699
  354MPD2    C2 5512   1.283   2.013  12.788 -0.0068 -0.2511 -0.2667
  354MPD2    C3 5513   1.181   2.029  12.876 -0.1674 -0.2179  0.8439
  354MPD2    C4 5514   1.163   1.934  12.975  0.1791  0.3298 -0.2335
  354MPD2    C5 5515   1.227   1.812  12.967  0.6982 -0.0462 -0.5042
  354MPD2     H 5516   1.297   2.094  12.718 -2.4958 -2.1841 -2.9887
  354MPD2    H1 5517   1.074   1.937  13.037 -0.4763 -0.4967 -1.1211
  354MPD2    H2 5518   1.399   1.712  12.890 -0.1866 -0.5578  0.5627
  354MPD2    H3 5519   1.195   1.731  13.031 -1.4444  0.1301 -1.3439
  354MPD2     N 5520   1.095   2.133  12.855 -0.7964 -0.0853 -0.6702
  354MPD2    H5 5521   1.101   2.185  12.769 -0.0249  1.2317  0.1836
  354MPD2    N1 5522   1.487   1.906  12.718  0.1982  0.6474  0.1324
  354MPD2    H7 5523   1.500   1.985  12.655 -1.3361  1.1731  0.4825
  355MPD2     C 5524   1.824   2.662  12.600  0.2242  0.0969 -1.2653
  355MPD2    C1 5525   1.916   2.576  12.541 -0.1610  0.6297 -0.1803
  355MPD2    C2 5526   1.918   2.441  12.560 -0.2786 -0.0841  0.4399
  355MPD2    C3 5527   1.819   2.379  12.635  0.0252  0.4582 -0.2588
  355MPD2    C4 5528   1.730   2.463  12.695 -0.1126 -0.1576  0.4702
  355MPD2    C5 5529   1.734   2.598  12.683  0.0016 -0.7253 -0.1876
  355MPD2     H 5530   1.993   2.391  12.500  1.4485  0.5998  1.9932
  355MPD2    H1 5531   1.660   2.429  12.771 -1.1395  0.1464 -0.3418
  355MPD2    H2 5532   1.826   2.770  12.602 -0.9931  0.0934 -0.4165
  355MPD2    H3 5533   1.658   2.657  12.732  2.3706  1.2609  1.0899
  355MPD2     N 5534   1.812   2.242  12.652 -0.4184 -0.0367 -0.0809
  355MPD2    H5 5535   1.733   2.208  12.707  0.0563 -3.0362 -1.2253
  355MPD2    N1 5536   2.035   2.633  12.485 -0.6701 -0.1896 -1.1074
  355MPD2    H7 5537   2.108   2.568  12.456 -0.2562 -0.5055  0.6493
  356MPD2     C 5538   0.331   3.494  13.115 -0.2957  0.3993  0.2602
  356MPD2    C1 5539   0.333   3.621  13.069 -0.3096  0.2987 -0.0346
  356MPD2    C2 5540   0.254   3.661  12.956  0.7067  0.1118 -0.0953
  356MPD2    C3 5541   0.166   3.568  12.904 -0.2879  0.0166 -0.6621
  356MPD2    C4 5542   0.165   3.442  12.950  0.2481  0.0888  0.5007
  356MPD2    C5 5543   0.245   3.407  13.056 -0.5230 -0.3085  0.4900
  356MPD2     H 5544   0.255   3.763  12.921 -2.7602  0.6986  1.5243
  356MPD2    H1 5545   0.096   3.367  12.912  0.2131  0.5297 -0.3064
  356MPD2    H2 5546   0.399   3.458  13.192 -0.3726  0.3664  0.3127
  356MPD2    H3 5547   0.252   3.306  13.092 -0.0326 -0.8359 -1.0818
  356MPD2     N 5548   0.057   3.602  12.812  0.1111  0.3972 -0.3202
  356MPD2    H5 5549   4.761   3.533  12.794 -0.0122 -0.0003  1.6357
  356MPD2    N1 5550   0.425   3.707  13.144 -0.6028  1.0730  0.3676
  356MPD2    H7 5551   0.482   3.650  13.206 -0.2279  0.8934 -0.1463
  357MPD2     C 5552   0.908   4.595  13.050  0.3572 -0.0345 -0.0859
  357MPD2    C1 5553   0.811   4.583  13.153  0.1319 -0.3155  0.3997
  357MPD2    C2 5554   0.770   4.458  13.207  0.4004 -0.0868  0.0269
  357MPD2    C3 5555   0.829   4.345  13.150 -0.3695 -0.4985  0.0736
  357MPD2    C4 5556   0.922   4.355  13.044 -0.4858  0.0606  0.9678
  357MPD2    C5 5557   0.962   4.484  13.003 -0.0188  1.2226 -0.8122
  357MPD2     H 5558   0.699   4.455  13.289 -1.3970 -1.0825 -1.5598
  357MPD2    H1 5559   0.968   4.269  12.996 -0.0384  1.2083 -0.6859
  357MPD2    H2 5560   0.929   4.690  13.002 -0.6505 -0.8633 -2.1585
  357MPD2    H3 5561   1.033   4.490  12.921  1.8850 -1.9700  0.6047
  357MPD2     N 5562   0.785   4.219  13.195  0.3292 -0.0847 -0.3838
  357MPD2    H5 5563   0.813   4.146  13.131 -0.1137  2.0487 -3.0376
  357MPD2    N1 5564   0.751   4.702  13.197  0.1067 -0.0824  0.0425
  357MPD2    H7 5565   0.684   4.692  13.272  0.1810 -1.4425 -0.0779
  358MPD2     C 5566   3.031   0.396   8.742  0.5513 -0.2794  0.6010
  358MPD2    C1 5567   3.050   0.476   8.859 -0.9210 -0.0495 -0.0844
  358MPD2    C2 5568   3.111   0.422   8.975  0.6608  0.4096  0.0321
  358MPD2    C3 5569   3.128   0.283   8.978  0.6111  0.0145 -0.3235
  358MPD2    C4 5570   3.117   0.211   8.861 -0.9722  0.2850 -0.2864
  358MPD2    C5 5571   3.073   0.264   8.742 -0.0335  0.5046  0.1380
  358MPD2     H 5572   3.142   0.482   9.060  0.7057  0.6419 -0.1466
  358MPD2    H1 5573   3.161   0.112   8.862 -0.3664  0.5514 -0.5499
  358MPD2    H2 5574   2.986   0.441   8.654 -0.3666 -1.0806  0.6650
  358MPD2    H3 5575   3.076   0.200   8.655 -0.2664 -1.4925  1.6112
  358MPD2     N 5576   3.162   0.216   9.098  0.5973 -0.1696  0.6856
  358MPD2    H5 5577   3.197   0.121   9.091 -0.9471 -0.5068 -2.6217
  358MPD2    N1 5578   3.007   0.613   8.851  0.4507 -0.1096 -0.2379
  358MPD2    H7 5579   2.977   0.652   8.762 -0.6459  3.3390  1.6682
  359MPD2     C 5580   3.026   0.888   9.504 -0.5768 -0.3787  0.0628
  359MPD2    C1 5581   2.952   0.848   9.396  0.0571 -0.0341 -0.1479
  359MPD2    C2 5582   2.921   0.940   9.298 -0.2744  0.2736  0.6128
  359MPD2    C3 5583   2.974   1.067   9.294  0.1306  0.0273 -0.8506
  359MPD2    C4 5584   3.038   1.109   9.407  1.0846 -0.2723  0.6434
  359MPD2    C5 5585   3.068   1.021   9.513  0.1580  0.0894  0.5360
  359MPD2     H 5586   2.849   0.907   9.224 -0.3509 -0.3323  0.9554
  359MPD2    H1 5587   3.078   1.209   9.415 -0.4200  0.1648  2.5712
  359MPD2    H2 5588   3.049   0.825   9.589 -0.5666 -1.4833 -0.7618
  359MPD2    H3 5589   3.126   1.051   9.600  1.4806  0.2959 -0.4321
  359MPD2     N 5590   2.967   1.163   9.188 -0.4553  0.1695  0.2621
  359MPD2    H5 5591   2.996   1.258   9.208 -0.5549  0.0108  1.1485
  359MPD2    N1 5592   2.902   0.715   9.383  0.4797  0.4192  0.6758
  359MPD2    H7 5593   2.873   0.691   9.289  1.7912 -1.8881  0.8778
  360MPD2     C 5594   2.465   0.165   8.731 -0.9561  0.5687  0.2428
  360MPD2    C1 5595   2.592   0.203   8.684  0.2040  0.2142  0.0577
  360MPD2    C2 5596   2.679   0.259   8.779  0.5262 -0.2480 -0.1225
  360MPD2    C3 5597   2.636   0.287   8.908 -0.4507 -0.1686 -0.8831
  360MPD2    C4 5598   2.507   0.258   8.945 -0.1384 -0.2721  0.1170
  360MPD2    C5 5599   2.422   0.192   8.859  0.0666  0.4301 -0.2162
  360MPD2     H 5600   2.766   0.309   8.738  0.9746 -0.9617 -0.0427
  360MPD2    H1 5601   2.474   0.279   9.046 -2.3485 -0.1964 -0.6343
  360MPD2    H2 5602   2.392   0.113   8.670 -2.2708  2.9042 -0.1637
  360MPD2    H3 5603   2.321   0.161   8.885  0.6917 -0.2425  1.4219
  360MPD2     N 5604   2.726   0.338   9.004  0.2878 -0.1488 -0.3693
  360MPD2    H5 5605   2.826   0.338   8.986  0.1819 -1.2838 -0.9584
  360MPD2    N1 5606   2.628   0.186   8.546 -0.1381 -0.0134 -0.1042
  360MPD2    H7 5607   2.558   0.161   8.476  1.8792 -1.0442 -1.7485
  361MPD2     C 5608   2.285   3.500   7.827 -0.0992 -0.3160 -0.0368
  361MPD2    C1 5609   2.313   3.588   7.930  0.0046  0.0208  0.8669
  361MPD2    C2 5610   2.442   3.603   7.974 -0.2494  0.2729 -0.2240
  361MPD2    C3 5611   2.543   3.532   7.917 -0.5859 -0.6592  0.2894
  361MPD2    C4 5612   2.518   3.451   7.808  0.0824 -0.1141 -0.0305
  361MPD2    C5 5613   2.390   3.441   7.757  0.3210 -0.3188 -0.3307
  361MPD2     H 5614   2.456   3.677   8.052 -0.3440  0.0950 -0.0395
  361MPD2    H1 5615   2.596   3.396   7.756 -0.2511  1.6254 -2.3736
  361MPD2    H2 5616   2.188   3.472   7.786 -0.1204 -0.4351  0.0913
  361MPD2    H3 5617   2.373   3.382   7.667 -1.7373  1.4537 -1.0804
  361MPD2     N 5618   2.680   3.528   7.965 -0.3118  0.1463 -0.2098
  361MPD2    H5 5619   2.738   3.463   7.914 -0.6700  0.9527 -1.6464
  361MPD2    N1 5620   2.222   3.667   7.996  0.2933 -0.1286  0.0132
  361MPD2    H7 5621   2.249   3.708   8.085  1.7804 -1.5593  0.2109
  362MPD2     C 5622   2.909   3.017   7.903 -0.8852 -0.9005 -0.5714
  362MPD2    C1 5623   3.029   3.051   7.964 -0.4633  0.7606  0.4305
  362MPD2    C2 5624   3.125   2.953   8.000 -0.1483  0.4008  0.3470
  362MPD2    C3 5625   3.097   2.815   7.991  0.9237  0.1820 -0.3595
  362MPD2    C4 5626   2.977   2.782   7.928  0.2553  0.0502  0.0672
  362MPD2    C5 5627   2.892   2.879   7.875  0.3453  0.9258  0.2778
  362MPD2     H 5628   3.208   2.987   8.061 -1.0170 -1.2551  2.4318
  362MPD2    H1 5629   2.958   2.677   7.905 -1.1811 -0.2414  2.6057
  362MPD2    H2 5630   2.847   3.087   7.847 -1.9289 -0.8258  0.6797
  362MPD2    H3 5631   2.797   2.866   7.823 -0.8407  0.1403  2.6560
  362MPD2     N 5632   3.173   2.707   8.057  0.1595 -0.3435 -0.1380
  362MPD2    H5 5633   3.123   2.620   8.072 -1.3357  0.4832 -0.2854
  362MPD2    N1 5634   3.059   3.188   7.991 -0.0216  0.1941 -0.3715
  362MPD2    H7 5635   3.144   3.210   8.042  0.5889 -0.4963 -1.0881
  363MPD2     C 5636   2.989   3.310   8.663  0.0106 -0.0757  0.2552
  363MPD2    C1 5637   2.887   3.317   8.574 -0.2148 -0.7963  0.2988
  363MPD2    C2 5638   2.762   3.273   8.606  0.5175 -0.3953 -0.2065
  363MPD2    C3 5639   2.740   3.222   8.732 -0.7260  0.6419  0.1578
  363MPD2    C4 5640   2.849   3.208   8.817 -0.4594 -0.1126  0.2512
  363MPD2    C5 5641   2.962   3.272   8.786  0.1490  0.3137  0.6695
  363MPD2     H 5642   2.683   3.271   8.532 -2.3451  0.7416  2.8168
  363MPD2    H1 5643   2.842   3.180   8.922  0.7251  1.6041  0.7970
  363MPD2    H2 5644   3.088   3.344   8.638 -0.0517  0.2526  0.4632
  363MPD2    H3 5645   3.035   3.271   8.867  0.4283  0.0963  0.4173
  363MPD2     N 5646   2.619   3.161   8.781  0.0064  0.6190  0.4405
  363MPD2    H5 5647   2.616   3.114   8.871  1.4963 -0.1788  0.0834
  363MPD2    N1 5648   2.900   3.385   8.452  0.7498  0.4011 -0.7352
  363MPD2    H7 5649   2.819   3.392   8.391  0.4273  0.6502 -0.2720
  364MPD2     C 5650   0.662   3.032   5.822  0.1827 -0.0661 -0.5673
  364MPD2    C1 5651   0.610   3.009   5.947  0.0961  0.1783  0.5003
  364MPD2    C2 5652   0.610   2.885   6.003  0.0908 -0.1323 -0.4779
  364MPD2    C3 5653   0.678   2.786   5.943  0.5251  0.0956 -0.2826
  364MPD2    C4 5654   0.730   2.797   5.816  0.5177 -0.4103 -0.1298
  364MPD2    C5 5655   0.717   2.920   5.757  0.2439  0.0266 -0.0191
  364MPD2     H 5656   0.583   2.871   6.107 -0.4089 -3.4553 -1.0662
  364MPD2    H1 5657   0.776   2.712   5.766  0.8713 -0.8273  0.9118
  364MPD2    H2 5658   0.669   3.133   5.783  0.2767  0.3087  0.4179
  364MPD2    H3 5659   0.741   2.929   5.651  1.2057 -1.8494  0.0518
  364MPD2     N 5660   0.697   2.669   6.022  0.0621 -0.6165  0.1111
  364MPD2    H5 5661   0.661   2.674   6.117 -0.8479 -3.2092 -0.0980
  364MPD2    N1 5662   0.576   3.118   6.033  0.1069  0.3474 -0.5307
  364MPD2    H7 5663   0.549   3.088   6.126  1.6588 -2.7409 -1.0882
  365MPD2     C 5664   0.691   3.027   6.638  0.6456 -0.2312  0.9628
  365MPD2    C1 5665   0.634   3.013   6.517 -0.1769  0.0841 -0.3543
  365MPD2    C2 5666   0.637   2.893   6.452 -0.0883 -0.0659  0.0880
  365MPD2    C3 5667   0.711   2.786   6.497  0.1962  0.0290 -0.1065
  365MPD2    C4 5668   0.773   2.802   6.623 -0.6624  0.6539 -0.1818
  365MPD2    C5 5669   0.757   2.923   6.690  0.4913 -0.4129 -0.1092
  365MPD2     H 5670   0.573   2.894   6.364 -1.5903  1.1429  1.2184
  365MPD2    H1 5671   0.832   2.723   6.670  1.1486  2.0739 -0.0486
  365MPD2    H2 5672   0.687   3.122   6.691 -1.4355  0.1477  0.1026
  365MPD2    H3 5673   0.809   2.925   6.785  1.2947  1.6816 -0.6037
  365MPD2     N 5674   0.718   2.673   6.421  0.6254 -0.1869 -0.3279
  365MPD2    H5 5675   0.662   2.665   6.337  0.7864  0.7268 -0.5255
  365MPD2    N1 5676   0.563   3.118   6.453  0.5034  0.6670  0.2653
  365MPD2    H7 5677   0.539   3.088   6.359  0.5494 -0.9494  0.7659
  366MPD2     C 5678   4.199   0.754   7.969 -0.1957 -0.3085  0.5883
  366MPD2    C1 5679   4.263   0.867   7.928 -0.4236 -0.4718 -0.5130
  366MPD2    C2 5680   4.256   0.978   8.014  0.2214 -0.1551 -0.4706
  366MPD2    C3 5681   4.202   0.960   8.138 -0.4669  0.4560 -0.4507
  366MPD2    C4 5682   4.138   0.846   8.182 -0.5152  0.1363  0.5584
  366MPD2    C5 5683   4.131   0.747   8.092 -0.1789  0.2545 -0.7946
  366MPD2     H 5684   4.301   1.074   7.994  0.0060  0.0990  0.2803
  366MPD2    H1 5685   4.095   0.837   8.282  0.7382 -1.0148  0.9951
  366MPD2    H2 5686   4.199   0.664   7.909 -0.2209  0.6634 -0.8465
  366MPD2    H3 5687   4.065   0.663   8.112  1.3566 -0.8722 -0.4117
  366MPD2     N 5688   4.214   1.073   8.224 -0.1662 -0.5893  0.5802
  366MPD2    H5 5689   4.284   1.137   8.188 -1.3516  0.6549  0.4761
  366MPD2    N1 5690   4.347   0.876   7.813 -0.0429 -0.5737  0.2620
  366MPD2    H7 5691   4.389   0.964   7.786  0.0792 -1.0472 -1.0851
  367MPD2     C 5692   4.415   1.373   7.422  0.1621 -0.0436  0.2714
  367MPD2    C1 5693   4.473   1.259   7.365 -0.3325  0.0593 -0.6339
  367MPD2    C2 5694   4.567   1.285   7.263  0.1326  0.4241 -0.0829
  367MPD2    C3 5695   4.588   1.410   7.217 -1.0824 -0.3893  0.1137
  367MPD2    C4 5696   4.524   1.514   7.275 -0.4065 -0.6140  0.3608
  367MPD2    C5 5697   4.441   1.497   7.379  0.5577  0.5445  0.6467
  367MPD2     H 5698   4.614   1.201   7.214 -1.1062 -0.7290  0.6832
  367MPD2    H1 5699   4.540   1.617   7.244  0.0044 -0.5581  0.7596
  367MPD2    H2 5700   4.359   1.356   7.513 -0.1779  1.3433  0.3123
  367MPD2    H3 5701   4.390   1.585   7.417  0.1947  0.5447  0.1607
  367MPD2     N 5702   4.673   1.447   7.111  0.1884 -0.1053  0.0728
  367MPD2    H5 5703   4.669   1.545   7.086 -2.3684 -0.5437 -1.2442
  367MPD2    N1 5704   4.437   1.136   7.400 -0.5242 -0.3842 -0.6311
  367MPD2    H7 5705   4.356   1.129   7.461  1.3388  0.7170  1.9644
  368MPD2     C 5706   4.000   0.257   7.508  0.2353  0.4269  1.0137
  368MPD2    C1 5707   4.059   0.302   7.625  0.6865  0.7927  0.6194
  368MPD2    C2 5708   4.167   0.390   7.623 -0.1008 -0.0450  0.2904
  368MPD2    C3 5709   4.218   0.426   7.499  0.0061  0.3375  0.1895
  368MPD2    C4 5710   4.174   0.363   7.391  0.0502 -0.5090  0.5099
  368MPD2    C5 5711   4.062   0.291   7.394 -0.0501 -0.0086  0.0327
  368MPD2     H 5712   4.220   0.421   7.712 -0.8954 -0.6225  0.9726
  368MPD2    H1 5713   4.215   0.377   7.291 -1.4884 -0.1808 -0.0780
  368MPD2    H2 5714   3.914   0.192   7.519  0.9374 -0.1925  2.9335
  368MPD2    H3 5715   4.007   0.256   7.307 -0.2124  1.1912 -0.3470
  368MPD2     N 5716   4.324   0.511   7.498  0.2191 -0.6975  0.0501
  368MPD2    H5 5717   4.357   0.539   7.590 -0.8513  1.7074 -0.2830
  368MPD2    N1 5718   4.007   0.276   7.755  0.1672  0.1904  0.0982
  368MPD2    H7 5719   4.031   0.349   7.821  2.7545  1.1308 -1.8649
  369MPD2     C 5720   3.419   3.390   6.152  0.9726 -0.5494 -0.5372
  369MPD2    C1 5721   3.440   3.444   6.276 -0.1494  0.2370 -0.3521
  369MPD2    C2 5722   3.568   3.451   6.321  0.2569 -0.2562 -0.6300
  369MPD2    C3 5723   3.674   3.418   6.241 -0.2061  0.8569 -0.1309
  369MPD2    C4 5724   3.651   3.361   6.117  0.3235 -0.1906  0.3670
  369MPD2    C5 5725   3.519   3.344   6.071 -0.7566  0.3319 -0.1788
  369MPD2     H 5726   3.587   3.504   6.414 -0.3617 -1.3000  0.0791
  369MPD2    H1 5727   3.734   3.333   6.053  0.5568 -0.0731  0.6218
  369MPD2    H2 5728   3.317   3.384   6.113  0.3877  1.6557  0.6353
  369MPD2    H3 5729   3.492   3.311   5.971 -0.6653 -0.4537  0.0594
  369MPD2     N 5730   3.812   3.422   6.278  0.5527 -0.0238  0.1087
  369MPD2    H5 5731   3.879   3.393   6.207  0.1689  1.1173 -0.7134
  369MPD2    N1 5732   3.328   3.481   6.352  0.1900 -0.3333  0.5259
  369MPD2    H7 5733   3.235   3.471   6.310  0.6035 -0.5143 -0.3452
  370MPD2     C 5734   3.231   3.045   7.222  0.0127 -0.1087 -0.5958
  370MPD2    C1 5735   3.316   3.022   7.123 -0.7140  0.0174  0.6290
  370MPD2    C2 5736   3.300   3.094   7.005  0.1762  0.6397 -0.8244
  370MPD2    C3 5737   3.195   3.184   6.985 -0.0198  0.5837 -0.4046
  370MPD2    C4 5738   3.099   3.192   7.081  0.0810  0.2230 -0.2985
  370MPD2    C5 5739   3.116   3.120   7.197  0.5314 -0.2801  0.2411
  370MPD2     H 5740   3.366   3.087   6.919  0.5193  4.8794 -0.8947
  370MPD2    H1 5741   3.018   3.263   7.070 -0.3167  0.2414  2.6348
  370MPD2    H2 5742   3.245   2.990   7.314  0.2380 -0.5846 -0.9135
  370MPD2    H3 5743   3.044   3.123   7.278 -0.5355 -2.4458 -0.6114
  370MPD2     N 5744   3.187   3.257   6.866  0.0409 -0.0460 -0.5164
  370MPD2    H5 5745   3.259   3.240   6.797  0.3889  1.9806 -0.6512
  370MPD2    N1 5746   3.421   2.940   7.154  0.4503 -0.9233  0.0404
  370MPD2    H7 5747   3.427   2.905   7.249 -0.8563  1.0105  0.8213
  371MPD2     C 5748   1.800   0.180   8.275  0.3017  0.6369 -0.4610
  371MPD2    C1 5749   1.763   0.309   8.295  0.2632  0.0737  0.7460
  371MPD2    C2 5750   1.842   0.414   8.255 -0.0626  0.1032  0.2518
  371MPD2    C3 5751   1.962   0.389   8.201 -0.6235 -0.3041  0.8878
  371MPD2    C4 5752   2.006   0.261   8.192  0.2703  0.2734  0.4451
  371MPD2    C5 5753   1.930   0.156   8.236 -0.1366  0.1513  0.1656
  371MPD2     H 5754   1.800   0.513   8.262  0.4856  0.4863 -1.8118
  371MPD2    H1 5755   2.108   0.239   8.162  0.4728  1.7400  0.0826
  371MPD2    H2 5756   1.749   0.099   8.326  1.3573  0.4383  0.2696
  371MPD2    H3 5757   1.973   0.058   8.220  1.4289  0.4408  2.5790
  371MPD2     N 5758   2.039   0.492   8.146 -0.0726 -0.1378 -0.2532
  371MPD2    H5 5759   2.130   0.467   8.110  0.2196  0.5516  0.0019
  371MPD2    N1 5760   1.637   0.335   8.353 -0.2229 -0.0535  0.3226
  371MPD2    H7 5761   1.624   0.422   8.405 -0.5372 -0.1679  0.4400
  372MPD2     C 5762   1.830   1.204   7.932 -0.4028 -0.5492  0.4659
  372MPD2    C1 5763   1.924   1.143   7.848  0.4340  0.0282  0.1228
  372MPD2    C2 5764   1.942   1.185   7.715  0.1211 -0.2314 -0.8558
  372MPD2    C3 5765   1.872   1.297   7.673  0.3019 -0.2258 -0.0412
  372MPD2    C4 5766   1.781   1.356   7.760  0.0734 -0.5654 -0.6009
  372MPD2    C5 5767   1.758   1.305   7.883 -0.0042  0.1042 -0.0790
  372MPD2     H 5768   2.020   1.144   7.652  0.0515 -2.9729  0.8525
  372MPD2    H1 5769   1.727   1.444   7.728  0.4037 -0.6542 -1.4097
  372MPD2    H2 5770   1.808   1.153   8.025  0.2476  1.6798  1.8336
  372MPD2    H3 5771   1.679   1.345   7.946 -1.0558 -0.2351 -1.1836
  372MPD2     N 5772   1.883   1.353   7.546  0.2399 -0.0837  0.0513
  372MPD2    H5 5773   1.815   1.420   7.512 -1.0691 -2.5685 -2.1700
  372MPD2    N1 5774   2.006   1.045   7.904  0.4224 -0.2606 -0.1426
  372MPD2    H7 5775   1.969   0.992   7.982 -1.0285 -0.4548 -0.9549
  373MPD2     C 5776   2.959   0.669   7.998 -0.4944  0.6113  0.2115
  373MPD2    C1 5777   2.914   0.711   7.875  0.8320 -0.3282  0.4305
  373MPD2    C2 5778   2.780   0.744   7.861  0.1458 -0.3031 -0.0703
  373MPD2    C3 5779   2.702   0.733   7.975 -0.2431  0.1697 -0.5911
  373MPD2    C4 5780   2.753   0.695   8.098  0.2226 -0.0484  0.0816
  373MPD2    C5 5781   2.881   0.664   8.103 -1.1410  0.2617  0.7100
  373MPD2     H 5782   2.748   0.790   7.768  0.3310  1.8130  0.9126
  373MPD2    H1 5783   2.710   0.677   8.195  0.7877  1.1068  0.5500
  373MPD2    H2 5784   3.065   0.658   8.015 -0.6854  1.3508  1.8188
  373MPD2    H3 5785   2.925   0.634   8.197 -0.1386 -0.1931  0.0881
  373MPD2     N 5786   2.561   0.746   7.954 -0.2874 -0.4987 -0.2556
  373MPD2    H5 5787   2.532   0.781   7.863 -1.7946 -0.8460  0.1025
  373MPD2    N1 5788   3.009   0.739   7.769 -0.3693 -0.4917  0.9100
  373MPD2    H7 5789   3.108   0.744   7.790 -0.5011  0.5339  1.2920
  374MPD2     C 5790   0.604   1.919   7.016  0.5193  0.0400  0.4480
  374MPD2    C1 5791   0.515   1.970   6.923  0.5223  0.3329 -0.3029
  374MPD2    C2 5792   0.425   1.877   6.871  0.3710  0.3438  0.1119
  374MPD2    C3 5793   0.409   1.748   6.923  0.4952  0.7272  0.3019
  374MPD2    C4 5794   0.493   1.711   7.022  0.7597  1.3832 -0.1551
  374MPD2    C5 5795   0.596   1.793   7.061  0.0699 -0.1791 -0.5846
  374MPD2     H 5796   0.353   1.907   6.795  2.4375  1.2325 -1.5062
  374MPD2    H1 5797   0.485   1.609   7.057 -2.6413  1.9227  0.7257
  374MPD2    H2 5798   0.688   1.967   7.065 -0.4706  1.4923  0.6976
  374MPD2    H3 5799   0.665   1.760   7.138 -1.2110 -0.6378  0.3551
  374MPD2     N 5800   0.304   1.659   6.885 -0.2905  0.5139 -0.5596
  374MPD2    H5 5801   0.296   1.566   6.925  1.8713  0.2758 -0.6988
  374MPD2    N1 5802   0.518   2.102   6.878  0.6032  0.5913 -0.0150
  374MPD2    H7 5803   0.445   2.130   6.813  0.9215 -1.8646 -1.4327
  375MPD2     C 5804   4.261   3.945  11.338  0.4475  0.2841 -0.4156
  375MPD2    C1 5805   4.196   4.050  11.273 -0.2642  0.3172 -0.1068
  375MPD2    C2 5806   4.106   4.019  11.174  0.2352  0.3147  0.2765
  375MPD2    C3 5807   4.083   3.885  11.139 -0.3193  1.2927  0.6790
  375MPD2    C4 5808   4.154   3.786  11.200 -0.7414 -0.4604  0.1317
  375MPD2    C5 5809   4.248   3.817  11.288 -0.5958  0.5860  0.4368
  375MPD2     H 5810   4.036   4.098  11.149  0.3012  0.0734 -0.6650
  375MPD2    H1 5811   4.133   3.680  11.197 -0.1131 -0.5004 -2.1125
  375MPD2    H2 5812   4.331   3.972  11.416  0.3175 -1.2990  0.2420
  375MPD2    H3 5813   4.305   3.734  11.328 -1.2473 -0.0989 -0.0511
  375MPD2     N 5814   3.983   3.846  11.046  0.1633 -0.1389  0.0328
  375MPD2    H5 5815   3.983   3.746  11.024 -1.1622 -0.2059  0.3083
  375MPD2    N1 5816   4.228   4.181  11.309  0.6465  0.1862 -0.2818
  375MPD2    H7 5817   4.299   4.186  11.382  0.0819  0.5953  0.2322
  376MPD2     C 5818   3.924   3.084  10.993  0.9151  0.1954 -0.7799
  376MPD2    C1 5819   3.827   3.149  11.058 -0.1193  0.4960 -0.3067
  376MPD2    C2 5820   3.766   3.260  11.011  0.0120 -0.1730  0.4870
  376MPD2    C3 5821   3.814   3.312  10.895 -0.0202  0.2772 -0.3827
  376MPD2    C4 5822   3.925   3.256  10.830  0.0012  0.1357  0.5731
  376MPD2    C5 5823   3.976   3.140  10.882  0.5641  0.1046 -0.1405
  376MPD2     H 5824   3.699   3.323  11.067  0.1686  0.7810 -0.3878
  376MPD2    H1 5825   3.962   3.301  10.739 -0.9096 -1.2154 -0.4743
  376MPD2    H2 5826   3.976   2.997  11.032 -0.6998 -0.8270 -0.9104
  376MPD2    H3 5827   4.062   3.102  10.827 -0.5550 -1.1881 -0.9910
  376MPD2     N 5828   3.759   3.437  10.851  0.1794  0.8004 -0.7920
  376MPD2    H5 5829   3.683   3.477  10.905 -0.5731  0.6310 -1.7267
  376MPD2    N1 5830   3.794   3.119  11.193  0.4257 -0.0732 -0.4616
  376MPD2    H7 5831   3.711   3.159  11.237 -0.0811 -1.0838 -0.4899
  377MPD2     C 5832   3.116   3.554  11.335  0.5402 -0.2524 -0.2971
  377MPD2    C1 5833   3.229   3.481  11.296  0.0283  0.1523  0.5109
  377MPD2    C2 5834   3.329   3.536  11.212 -0.2691 -0.5750 -0.6216
  377MPD2    C3 5835   3.315   3.667  11.163 -0.1795 -0.2921  0.3989
  377MPD2    C4 5836   3.212   3.736  11.216  0.0620  0.3222 -0.7656
  377MPD2    C5 5837   3.115   3.688  11.299  0.2010 -0.1465  0.0793
  377MPD2     H 5838   3.412   3.476  11.177 -0.4034  0.2760 -2.3653
  377MPD2    H1 5839   3.198   3.841  11.191  0.8427  0.7092  0.3764
  377MPD2    H2 5840   3.039   3.517  11.401  0.2916  3.3119  1.3945
  377MPD2    H3 5841   3.036   3.752  11.335 -1.0360 -0.6188 -1.8528
  377MPD2     N 5842   3.414   3.738  11.089  0.1426  0.1292 -0.7580
  377MPD2    H5 5843   3.407   3.837  11.067  0.1390  0.3986  0.4651
  377MPD2    N1 5844   3.257   3.350  11.335 -0.3608 -0.1384  0.1227
  377MPD2    H7 5845   3.342   3.314  11.292 -0.3727 -0.3079  0.2395
  378MPD2     C 5846   4.095   3.388  13.180  0.2434 -0.3345 -0.0306
  378MPD2    C1 5847   4.056   3.520  13.183 -0.1267  0.4029 -0.0781
  378MPD2    C2 5848   4.065   3.590  13.303  0.4287  0.1095  0.9660
  378MPD2    C3 5849   4.120   3.527  13.412  0.1626  0.3186 -0.5548
  378MPD2    C4 5850   4.159   3.390  13.410 -0.1496 -0.3067 -0.5943
  378MPD2    C5 5851   4.146   3.322  13.291  0.6758 -0.7493  0.1452
  378MPD2     H 5852   4.029   3.691  13.314  0.7950  0.4721 -1.1852
  378MPD2    H1 5853   4.191   3.333  13.497 -1.2534 -0.5247 -0.3342
  378MPD2    H2 5854   4.087   3.331  13.088 -0.2904  1.4018 -1.0587
  378MPD2    H3 5855   4.174   3.217  13.289  0.9969 -0.6618  0.0507
  378MPD2     N 5856   4.117   3.606  13.530 -0.2226 -0.1970 -0.4822
  378MPD2    H5 5857   4.064   3.693  13.531  1.4209  0.8031 -0.5141
  378MPD2    N1 5858   3.996   3.571  13.071 -0.1599  0.6657 -0.4167
  378MPD2    H7 5859   3.981   3.510  12.992 -1.9077  0.9983 -0.3327
  379MPD2     C 5860   3.844   4.229  13.893 -0.2643 -0.1999  0.7571
  379MPD2    C1 5861   3.971   4.203  13.843 -0.3070  0.1269  0.8656
  379MPD2    C2 5862   4.031   4.293  13.758  0.4164 -0.7851  0.3571
  379MPD2    C3 5863   3.962   4.408  13.725  0.2084 -0.3198  0.4401
  379MPD2    C4 5864   3.831   4.431  13.766  0.0010 -0.1950  0.0076
  379MPD2    C5 5865   3.774   4.340  13.854  0.1942  0.4319  0.0742
  379MPD2     H 5866   4.123   4.261  13.711  0.8337 -1.7782  1.8737
  379MPD2    H1 5867   3.771   4.514  13.731 -1.1275 -0.2848  1.7618
  379MPD2    H2 5868   3.799   4.163  13.966  0.4581  0.1042  1.4766
  379MPD2    H3 5869   3.675   4.363  13.889  1.2248  0.6865  2.8036
  379MPD2     N 5870   4.026   4.503  13.639 -0.8438  0.2692  0.5113
  379MPD2    H5 5871   4.118   4.480  13.600 -1.3494  0.5080 -0.8164
  379MPD2    N1 5872   4.023   4.075  13.868 -0.4641 -0.4284  0.2735
  379MPD2    H7 5873   3.974   4.010  13.928  1.7815 -1.2014  1.2701
  380MPD2     C 5874   3.716   3.370  14.071 -0.6196  0.1066 -0.2134
  380MPD2    C1 5875   3.789   3.473  14.127 -0.2513 -0.6128  0.0433
  380MPD2    C2 5876   3.756   3.511  14.254  0.4205  0.3497  0.9127
  380MPD2    C3 5877   3.658   3.443  14.326  0.1112 -0.2950  0.4034
  380MPD2    C4 5878   3.611   3.322  14.276  0.3318  0.1489 -0.3013
  380MPD2    C5 5879   3.643   3.283  14.145 -0.0616 -0.2177  0.1989
  380MPD2     H 5880   3.789   3.607  14.292 -0.7926  0.7857  0.8521
  380MPD2    H1 5881   3.555   3.250  14.335 -1.4224 -0.7286 -3.0735
  380MPD2    H2 5882   3.719   3.342  13.967  0.9226 -1.7641  0.3313
  380MPD2    H3 5883   3.611   3.190  14.100  0.8625  0.2220 -1.3829
  380MPD2     N 5884   3.621   3.508  14.447 -0.5765 -0.1046  0.4280
  380MPD2    H5 5885   3.668   3.595  14.470 -1.2742  0.6120 -0.8286
  380MPD2    N1 5886   3.871   3.542  14.037 -0.1570 -0.5649  0.0102
  380MPD2    H7 5887   3.854   3.519  13.939 -0.4166 -0.4998  0.0411
  381MPD2     C 5888   2.398   0.927  14.070 -0.1715 -0.4944 -0.2248
  381MPD2    C1 5889   2.465   0.821  14.131  0.5725 -0.4503 -0.2783
  381MPD2    C2 5890   2.563   0.842  14.222  0.5541  0.0518 -0.6082
  381MPD2    C3 5891   2.610   0.974  14.236 -0.1169 -0.0965 -0.7075
  381MPD2    C4 5892   2.542   1.078  14.173  0.3581  0.1229  0.4077
  381MPD2    C5 5893   2.430   1.059  14.096  0.6606  0.1971 -0.5641
  381MPD2     H 5894   2.611   0.758  14.271  0.2324 -0.6026 -1.4081
  381MPD2    H1 5895   2.565   1.182  14.191 -0.7624 -0.3222  4.4450
  381MPD2    H2 5896   2.309   0.908  14.011  0.0144 -1.4110 -0.2007
  381MPD2    H3 5897   2.363   1.141  14.070 -0.5046 -0.9368 -1.1643
  381MPD2     N 5898   2.711   1.004  14.330 -0.0401  0.0756 -0.0736
  381MPD2    H5 5899   2.742   0.926  14.387  0.6122 -0.0425 -0.5832
  381MPD2    N1 5900   2.427   0.687  14.104 -0.7839 -0.2553  0.3473
  381MPD2    H7 5901   2.476   0.604  14.135  1.6141  1.8743  2.2976
  382MPD2     C 5902   1.491   0.470  13.987  0.1010 -0.4947 -0.3882
  382MPD2    C1 5903   1.537   0.339  13.993  0.2082 -0.2361  0.2922
  382MPD2    C2 5904   1.670   0.326  14.026  0.3668 -0.5794  0.3504
  382MPD2    C3 5905   1.753   0.432  14.054 -0.6719  0.1957 -0.2974
  382MPD2    C4 5906   1.702   0.561  14.040  0.7333  0.3901  0.8912
  382MPD2    C5 5907   1.572   0.582  14.004  0.5732 -0.4266  0.5412
  382MPD2     H 5908   1.707   0.224  14.023  0.9819 -0.3547  0.2635
  382MPD2    H1 5909   1.766   0.649  14.047  0.3982  0.7700 -0.7668
  382MPD2    H2 5910   1.393   0.484  13.943  0.0729  0.7327  0.0645
  382MPD2    H3 5911   1.549   0.686  13.984  2.5262 -0.3599 -1.4451
  382MPD2     N 5912   1.896   0.424  14.077 -0.3804  0.1947  0.6187
  382MPD2    H5 5913   1.950   0.510  14.075  1.0415 -0.7648 -3.3657
  382MPD2    N1 5914   1.449   0.230  13.973 -0.1282  0.4834  0.6357
  382MPD2    H7 5915   1.351   0.254  13.961 -0.7350 -2.0889  0.4038
  383MPD2     C 5916   4.749   3.355  12.448  0.4490 -0.4338 -0.1247
  383MPD2    C1 5917   0.013   3.458  12.370 -0.7925  0.3521  0.5611
  383MPD2    C2 5918   0.131   3.514  12.401 -0.7495  0.2163 -0.3803
  383MPD2    C3 5919   0.202   3.478  12.515  0.1539 -0.0909  0.0446
  383MPD2    C4 5920   0.164   3.366  12.587 -0.4672  0.9230  0.1508
  383MPD2    C5 5921   0.044   3.312  12.551 -0.3560 -0.5112 -0.2767
  383MPD2     H 5922   0.165   3.592  12.333 -0.0742 -1.2274 -1.7175
  383MPD2    H1 5923   0.220   3.338  12.676 -1.4267  0.8131  0.7135
  383MPD2    H2 5924   4.659   3.300  12.423 -0.0308  0.5342 -0.5317
  383MPD2    H3 5925   0.012   3.226  12.610 -1.2870 -1.7133 -2.5510
  383MPD2     N 5926   0.311   3.561  12.552 -0.1193 -0.4072  0.6904
  383MPD2    H5 5927   0.336   3.637  12.490  0.5666 -0.2040  1.2082
  383MPD2    N1 5928   4.723   3.504  12.251 -0.3697 -0.6294  0.1375
  383MPD2    H7 5929   4.774   3.569  12.191 -2.3972  2.0694  1.3131
  384MPD2     C 5930   4.764   4.205  12.799  0.3229  0.3556 -0.9572
  384MPD2    C1 5931   0.029   4.112  12.898 -0.0645  0.3172 -0.9213
  384MPD2    C2 5932   0.156   4.060  12.898  0.1173 -0.3744  0.6539
  384MPD2    C3 5933   0.234   4.095  12.789  0.9956 -0.7836  0.3339
  384MPD2    C4 5934   0.199   4.196  12.698 -0.5824  0.4018 -0.7362
  384MPD2    C5 5935   0.073   4.250  12.705 -0.7117  0.5157  0.5811
  384MPD2     H 5936   0.199   3.977  12.953  1.1422 -2.7379 -3.7434
  384MPD2    H1 5937   0.262   4.234  12.619 -0.5945 -0.7728 -1.3039
  384MPD2    H2 5938   4.663   4.243  12.795  0.5824  1.3039  1.3243
  384MPD2    H3 5939   0.051   4.328  12.633 -0.2441 -0.8078 -0.9811
  384MPD2     N 5940   0.364   4.026  12.785 -0.1250  0.7429  0.1268
  384MPD2    H5 5941   0.391   3.973  12.868 -0.8245 -1.8446 -1.2823
  384MPD2    N1 5942   4.710   4.086  12.998 -0.2412  0.0239  0.2141
  384MPD2    H7 5943   4.630   4.148  13.009 -2.0951 -2.0825 -1.3711
  385MPD2     C 5944   4.443   1.692  15.788 -0.3067  0.0862 -0.0766
  385MPD2    C1 5945   4.382   1.578  15.740  0.3674  0.6822 -0.0654
  385MPD2    C2 5946   4.350   1.575  15.609  0.0999 -0.5845  0.2584
  385MPD2    C3 5947   4.368   1.691  15.529 -0.1591  0.0703 -0.5104
  385MPD2    C4 5948   4.426   1.805  15.577 -0.4260  0.0975 -0.4243
  385MPD2    C5 5949   4.468   1.800  15.704 -0.6292  0.4066 -0.1349
  385MPD2     H 5950   4.298   1.487  15.572  0.4918 -1.4789  1.8280
  385MPD2    H1 5951   4.451   1.885  15.508  1.2781 -0.5868 -0.5809
  385MPD2    H2 5952   4.461   1.703  15.895  3.9907  0.2567 -0.8197
  385MPD2    H3 5953   4.504   1.886  15.758  0.4452 -0.9016  1.2261
  385MPD2     N 5954   4.314   1.692  15.394  0.2237  0.2502  0.6979
  385MPD2    H5 5955   4.285   1.782  15.358 -0.7074  0.4936  2.0506
  385MPD2    N1 5956   4.355   1.464  15.823  0.0359  0.2969 -0.0218
  385MPD2    H7 5957   4.314   1.382  15.780  0.0828  0.2167  0.0860
  386MPD2     C 5958   3.901   2.357  15.126  0.5061 -0.7041  0.4105
  386MPD2    C1 5959   4.026   2.321  15.153 -0.6075 -0.1475 -0.1715
  386MPD2    C2 5960   4.056   2.187  15.146  0.3935 -0.6900 -0.0801
  386MPD2    C3 5961   3.968   2.088  15.107  0.6068  0.5191  0.1414
  386MPD2    C4 5962   3.837   2.122  15.082  0.2449  0.3823  0.9635
  386MPD2    C5 5963   3.806   2.257  15.091 -0.2502  0.1536 -0.0185
  386MPD2     H 5964   4.159   2.158  15.166  1.0279  2.3657  1.0183
  386MPD2    H1 5965   3.764   2.050  15.047 -1.2920  2.3086  0.1869
  386MPD2    H2 5966   3.865   2.459  15.135 -0.8907 -1.0518 -1.2286
  386MPD2    H3 5967   3.706   2.290  15.065 -0.3823 -2.4670 -2.8530
  386MPD2     N 5968   4.022   1.960  15.104  0.0583 -0.2450 -0.1914
  386MPD2    H5 5969   4.120   1.945  15.127 -0.3617 -1.9304  0.4831
  386MPD2    N1 5970   4.132   2.409  15.185  0.1328  0.0715  0.4377
  386MPD2    H7 5971   4.217   2.365  15.218  1.7979 -0.7253 -4.8940
  387MPD2     C 5972   4.285   1.526  14.341  0.3604  0.0247  0.0724
  387MPD2    C1 5973   4.252   1.650  14.392  0.1140  0.2028  0.2093
  387MPD2    C2 5974   4.209   1.656  14.529  0.3118 -0.5540  0.8283
  387MPD2    C3 5975   4.214   1.542  14.612  0.3328  0.2666  0.2352
  387MPD2    C4 5976   4.257   1.426  14.558  0.2104  0.2135  0.1443
  387MPD2    C5 5977   4.293   1.416  14.423 -0.1350  0.5003  0.7184
  387MPD2     H 5978   4.197   1.755  14.570  0.8594  0.2468 -0.9388
  387MPD2    H1 5979   4.272   1.340  14.623 -0.8450  0.9251  1.3252
  387MPD2    H2 5980   4.308   1.517  14.236 -1.0337 -0.4186 -0.1903
  387MPD2    H3 5981   4.318   1.318  14.383  2.0281  1.7081 -0.9064
  387MPD2     N 5982   4.192   1.567  14.750  0.1509 -0.1566  0.0943
  387MPD2    H5 5983   4.182   1.663  14.779  1.2479 -0.2004  0.6250
  387MPD2    N1 5984   4.267   1.766  14.310 -0.4708 -0.1914 -0.1459
  387MPD2    H7 5985   4.278   1.759  14.209 -1.3193  1.1145 -0.3225
  388MPD2     C 5986   2.107   0.347  10.092  0.8222  0.0396 -0.7777
  388MPD2    C1 5987   1.984   0.420  10.106 -0.5885  0.5844 -0.2237
  388MPD2    C2 5988   1.917   0.429  10.225  0.1366 -0.3598 -0.2157
  388MPD2    C3 5989   1.964   0.362  10.335  0.3987 -0.8125 -0.4322
  388MPD2    C4 5990   2.086   0.303  10.330 -0.1745  0.9957  0.4550
  388MPD2    C5 5991   2.151   0.292  10.207  0.3397  0.3577  0.0095
  388MPD2     H 5992   1.836   0.501  10.237 -0.3424 -0.7586 -1.0495
  388MPD2    H1 5993   2.139   0.263  10.415 -0.5490 -1.9123 -0.6556
  388MPD2    H2 5994   2.157   0.344   9.996 -0.0264  0.3782 -1.2295
  388MPD2    H3 5995   2.249   0.245  10.205 -0.6302 -1.7635  2.1451
  388MPD2     N 5996   1.884   0.359  10.449  0.2764  0.3431  0.5411
  388MPD2    H5 5997   1.790   0.391  10.431  0.2945  1.2832  2.1450
  388MPD2    N1 5998   1.937   0.512  10.007  0.5562 -0.0331  0.0433
  388MPD2    H7 5999   1.858   0.569  10.036  1.2409  1.1341 -0.3921
  389MPD2     C 6000   2.356   1.188   9.703 -0.1371 -0.1003 -0.4537
  389MPD2    C1 6001   2.326   1.090   9.792  0.7910 -1.1644 -0.4944
  389MPD2    C2 6002   2.398   1.083   9.908 -0.2687  0.6619  0.4313
  389MPD2    C3 6003   2.479   1.190   9.948  0.5272 -0.5124  0.1646
  389MPD2    C4 6004   2.506   1.285   9.853 -0.5088 -0.0907 -0.2339
  389MPD2    C5 6005   2.453   1.279   9.730  0.0492  0.4382 -0.9262
  389MPD2     H 6006   2.405   1.001   9.979  0.4768  1.7344  1.5797
  389MPD2    H1 6007   2.581   1.362   9.871  0.9467 -1.5439 -0.1106
  389MPD2    H2 6008   2.309   1.192   9.606 -3.0565  0.5016  0.9816
  389MPD2    H3 6009   2.478   1.364   9.667  0.3082  0.6932 -0.4838
  389MPD2     N 6010   2.535   1.186  10.074  0.1715  0.3460  0.4354
  389MPD2    H5 6011   2.499   1.110  10.130  0.2589 -0.9313 -1.2323
  389MPD2    N1 6012   2.228   0.993   9.768 -0.1184 -0.5240  0.5680
  389MPD2    H7 6013   2.195   0.995   9.672  0.4353  1.5207  0.4107
  390MPD2     C 6014   1.985   2.137  10.420 -0.9207  0.4040 -0.8849
  390MPD2    C1 6015   1.946   2.004  10.408  1.2076  0.4117 -0.1454
  390MPD2    C2 6016   1.829   1.961  10.469  0.0666 -0.2121  0.9271
  390MPD2    C3 6017   1.740   2.054  10.532  0.1213 -0.3384  0.6764
  390MPD2    C4 6018   1.780   2.182  10.541 -0.6228  0.0091 -1.1056
  390MPD2    C5 6019   1.898   2.223  10.485 -0.0998 -0.2227  0.2677
  390MPD2     H 6020   1.813   1.854  10.480 -2.4838 -0.1431 -1.9776
  390MPD2    H1 6021   1.717   2.252  10.595  1.1381  0.6670  0.0970
  390MPD2    H2 6022   2.083   2.169  10.389 -0.6746  0.9598  0.4674
  390MPD2    H3 6023   1.924   2.326  10.503  1.9922 -0.7902  0.4864
  390MPD2     N 6024   1.624   2.017  10.590  0.5253  0.0761  0.4964
  390MPD2    H5 6025   1.569   2.087  10.639  1.5394  1.2890 -0.1270
  390MPD2    N1 6026   2.019   1.904  10.340 -0.7058  0.3710  0.4006
  390MPD2    H7 6027   1.975   1.812  10.336  1.3826 -0.6036 -0.3953
  391MPD2     C 6028   2.350   1.408  10.896 -0.6710 -0.1449  0.1805
  391MPD2    C1 6029   2.275   1.330  10.810 -0.3233  0.1851  0.2799
  391MPD2    C2 6030   2.272   1.364  10.679  0.0041 -0.4948 -0.1168
  391MPD2    C3 6031   2.333   1.470  10.621 -0.4449  0.4593  0.5042
  391MPD2    C4 6032   2.411   1.547  10.706 -0.1369 -0.4344 -0.2299
  391MPD2    C5 6033   2.413   1.514  10.842  0.1688  0.2464 -0.6225
  391MPD2     H 6034   2.202   1.305  10.622  0.3605  0.1387 -1.2125
  391MPD2    H1 6035   2.468   1.630  10.667 -2.9194  2.8578  2.7076
  391MPD2    H2 6036   2.359   1.393  11.003 -1.3201 -0.9100  0.1269
  391MPD2    H3 6037   2.470   1.578  10.908 -2.1941  0.9324  0.7515
  391MPD2     N 6038   2.319   1.497  10.480  0.7446 -0.1642  0.1551
  391MPD2    H5 6039   2.274   1.426  10.424 -0.0023  0.5741 -0.1762
  391MPD2    N1 6040   2.197   1.217  10.852 -0.0387 -0.6343  0.1735
  391MPD2    H7 6041   2.156   1.167  10.774  0.5616 -1.2213  0.2418
  392MPD2     C 6042   1.773   1.279  10.241  0.1940 -0.0378  0.6051
  392MPD2    C1 6043   1.903   1.265  10.280 -0.0226  0.3883 -0.1921
  392MPD2    C2 6044   1.926   1.180  10.388  0.3976  0.5349 -0.7166
  392MPD2    C3 6045   1.822   1.111  10.448  0.4744 -0.7107  0.4329
  392MPD2    C4 6046   1.699   1.116  10.388 -0.0939 -0.0269 -0.0866
  392MPD2    C5 6047   1.678   1.201  10.287 -0.0164 -0.0867  0.5843
  392MPD2     H 6048   2.029   1.163  10.419  0.5071  1.5924 -0.5146
  392MPD2    H1 6049   1.620   1.053  10.429  1.1962 -1.9689 -0.5853
  392MPD2    H2 6050   1.740   1.341  10.158  0.3220  1.8719  1.9862
  392MPD2    H3 6051   1.578   1.201  10.245  0.5881 -1.0846 -0.8561
  392MPD2     N 6052   1.832   1.040  10.578  0.0995 -0.5112 -0.9988
  392MPD2    H5 6053   1.752   0.989  10.614 -0.7252  0.9040 -0.8136
  392MPD2    N1 6054   2.011   1.359  10.245  0.1196 -0.3616  0.1015
  392MPD2    H7 6055   2.103   1.351  10.287 -0.4587  2.4718  1.9352
  393MPD2     C 6056   1.385   2.900   5.920 -0.2363 -0.6278 -0.6383
  393MPD2    C1 6057   1.310   2.966   6.016  0.2560  0.0819  0.4806
  393MPD2    C2 6058   1.199   3.037   5.980  0.4315 -0.3422 -0.1286
  393MPD2    C3 6059   1.174   3.051   5.846 -0.1329  0.4950  0.4885
  393MPD2    C4 6060   1.246   2.985   5.751  0.4914  0.0973 -0.1687
  393MPD2    C5 6061   1.353   2.908   5.787  0.3214  0.3000 -0.1675
  393MPD2     H 6062   1.127   3.071   6.053  1.5590 -2.2311  1.8848
  393MPD2    H1 6063   1.226   2.979   5.645 -4.5454 -1.7874  0.9099
  393MPD2    H2 6064   1.474   2.847   5.951 -0.2771 -0.2536  0.0967
  393MPD2    H3 6065   1.416   2.856   5.715  0.3156  0.2631 -0.1459
  393MPD2     N 6066   1.069   3.142   5.814 -0.0407 -0.2678 -0.1136
  393MPD2    H5 6067   1.023   3.183   5.895  2.1796 -2.4397  2.2267
  393MPD2    N1 6068   1.338   2.942   6.157 -0.5066 -0.7904 -0.6040
  393MPD2    H7 6069   1.279   2.995   6.222 -1.1652  0.9791 -2.6441
  394MPD2     C 6070   0.335   3.192   5.496  0.1583  0.5961  0.5296
  394MPD2    C1 6071   0.392   3.230   5.614  0.2551 -0.5071  0.1795
  394MPD2    C2 6072   0.313   3.220   5.729 -0.4144  0.3818 -0.5078
  394MPD2    C3 6073   0.181   3.202   5.725 -0.4832 -0.0113  0.3301
  394MPD2    C4 6074   0.123   3.170   5.604  0.0444  0.8238  0.5025
  394MPD2    C5 6075   0.197   3.169   5.489  0.5507  0.3525  0.5735
  394MPD2     H 6076   0.345   3.255   5.827 -2.5615 -0.6915  0.5648
  394MPD2    H1 6077   0.019   3.149   5.583 -0.8488  3.0627  2.6348
  394MPD2    H2 6078   0.393   3.191   5.405  2.7107 -2.5746  2.2220
  394MPD2    H3 6079   0.143   3.149   5.397  0.7762  0.3213  0.4474
  394MPD2     N 6080   0.100   3.231   5.835  0.0904  0.6455 -0.0980
  394MPD2    H5 6081   0.143   3.266   5.920  0.3280 -0.1631  0.1103
  394MPD2    N1 6082   0.522   3.277   5.625  0.1241  0.2970 -0.7435
  394MPD2    H7 6083   0.550   3.301   5.719  0.2401 -2.3805 -0.0950
  395MPD2     C 6084   0.525   3.889   6.146 -0.5134  0.0945 -0.9723
  395MPD2    C1 6085   0.600   3.786   6.197  0.1493 -0.1509  0.6242
  395MPD2    C2 6086   0.662   3.694   6.105 -0.1094 -0.2720 -0.5720
  395MPD2    C3 6087   0.650   3.712   5.969 -0.1671 -0.2311  0.2753
  395MPD2    C4 6088   0.575   3.819   5.926  0.3188 -0.0228  0.0513
  395MPD2    C5 6089   0.520   3.911   6.006 -0.3311  0.2010  0.1983
  395MPD2     H 6090   0.706   3.605   6.147 -1.0339 -0.0758  0.7997
  395MPD2    H1 6091   0.566   3.827   5.818 -0.2106 -1.2739  0.0088
  395MPD2    H2 6092   0.473   3.958   6.212  0.2406 -0.1905 -0.0922
  395MPD2    H3 6093   0.458   3.995   5.974 -0.9953  0.2043  1.4952
  395MPD2     N 6094   0.692   3.617   5.876  0.1110  0.2531 -0.7137
  395MPD2    H5 6095   0.657   3.625   5.781  1.0836 -0.5418 -1.1358
  395MPD2    N1 6096   0.598   3.772   6.343 -0.2134  0.2149 -0.0893
  395MPD2    H7 6097   0.548   3.837   6.403  0.1053  1.3897 -1.1090
  396MPD2     C 6098   4.512   4.332  12.407  0.3830  0.3294 -0.0324
  396MPD2    C1 6099   4.440   4.275  12.512  0.0845  0.2320  0.0696
  396MPD2    C2 6100   4.337   4.350  12.564 -0.8294 -0.0710 -0.2649
  396MPD2    C3 6101   4.310   4.477  12.530  0.1473 -0.4608  0.5503
  396MPD2    C4 6102   4.388   4.535  12.427 -0.2178 -1.0154 -0.3702
  396MPD2    C5 6103   4.481   4.456  12.360 -0.5171 -0.2202  0.2237
  396MPD2     H 6104   4.282   4.309  12.648 -1.6310 -0.9919 -1.2517
  396MPD2    H1 6105   4.379   4.638  12.392 -1.2752 -0.0142  2.7834
  396MPD2    H2 6106   4.602   4.283  12.371 -0.7851 -1.7936 -0.0519
  396MPD2    H3 6107   4.544   4.512  12.294 -0.3308 -0.4152  0.2357
  396MPD2     N 6108   4.194   4.540  12.585  0.3235  0.5574  0.8970
  396MPD2    H5 6109   4.166   4.506  12.676 -2.4776  1.7844  0.4880
  396MPD2    N1 6110   4.460   4.144  12.569 -0.6616  0.0532 -0.2014
  396MPD2    H7 6111   4.416   4.116  12.656  1.3948  1.2737  1.2424
  397MPD2     C 6112   3.874   3.500  12.699 -0.5226 -0.6582 -0.1398
  397MPD2    C1 6113   3.989   3.437  12.740 -0.2569  0.7986 -0.4581
  397MPD2    C2 6114   4.114   3.486  12.715 -0.1414 -0.5759 -0.2887
  397MPD2    C3 6115   4.128   3.612  12.658 -0.1941 -0.0043  0.9555
  397MPD2    C4 6116   4.011   3.679  12.629  0.1553 -0.1748  0.7937
  397MPD2    C5 6117   3.888   3.625  12.645  0.0486  0.0309 -0.1529
  397MPD2     H 6118   4.207   3.433  12.729 -0.0217  0.0318  1.2006
  397MPD2    H1 6119   4.012   3.780  12.591  1.3829 -0.5272 -0.0948
  397MPD2    H2 6120   3.771   3.469  12.708 -0.5762  0.0464  1.5430
  397MPD2    H3 6121   3.800   3.683  12.620  0.7209  0.9626 -0.3496
  397MPD2     N 6122   4.246   3.681  12.641  0.2849 -0.4806  0.6926
  397MPD2    H5 6123   4.249   3.756  12.573 -2.0005 -0.9147  0.1231
  397MPD2    N1 6124   3.991   3.312  12.810  0.1725  0.2473 -0.4990
  397MPD2    H7 6125   4.073   3.256  12.830 -1.1239 -0.6490  2.2968
  398MPD2     C 6126   3.895   4.107  10.623  0.6475  0.0451 -0.3965
  398MPD2    C1 6127   3.974   4.192  10.550 -0.3649 -0.0600  0.9484
  398MPD2    C2 6128   3.929   4.321  10.528 -0.1308  0.4501 -0.1433
  398MPD2    C3 6129   3.813   4.373  10.568  0.6168 -0.0777  0.2005
  398MPD2    C4 6130   3.735   4.287  10.639  0.0667  0.7263  0.3328
  398MPD2    C5 6131   3.773   4.159  10.668 -0.3349  0.5477  0.1012
  398MPD2     H 6132   3.990   4.381  10.461  1.3256 -2.7312 -1.6809
  398MPD2    H1 6133   3.635   4.316  10.668 -0.0110  1.5234 -0.7128
  398MPD2    H2 6134   3.923   4.006  10.650  1.6709  0.3765 -0.1979
  398MPD2    H3 6135   3.710   4.094  10.728 -2.4912  2.7237  0.1705
  398MPD2     N 6136   3.778   4.501  10.524  0.4121  0.2141 -0.1096
  398MPD2    H5 6137   3.856   4.548  10.480  0.6998  0.2897  0.4786
  398MPD2    N1 6138   4.102   4.162  10.498 -0.3290  0.0102  0.1917
  398MPD2    H7 6139   4.141   4.235  10.439 -2.4206 -2.2237 -3.8964
  399MPD2     C 6140   3.961   0.698  10.808  0.1734  0.8587  0.3340
  399MPD2    C1 6141   3.902   0.595  10.882  0.0511 -0.5704  0.6199
  399MPD2    C2 6142   3.898   0.469  10.830  0.6200  0.5139  0.0418
  399MPD2    C3 6143   3.936   0.441  10.700  0.0165  0.5204  0.3162
  399MPD2    C4 6144   4.003   0.544  10.631  0.6661  0.1515  0.1937
  399MPD2    C5 6145   4.018   0.669  10.687  0.9908  0.3053  0.3634
  399MPD2     H 6146   3.884   0.390  10.904 -1.2133  1.5269  0.7916
  399MPD2    H1 6147   4.048   0.528  10.534 -2.4945  0.3452 -1.3031
  399MPD2    H2 6148   3.971   0.799  10.846  0.3606  1.0723 -0.2750
  399MPD2    H3 6149   4.055   0.749  10.623  3.2462 -1.1829 -0.2056
  399MPD2     N 6150   3.913   0.320  10.631 -0.2135  0.4372  0.9422
  399MPD2    H5 6151   3.921   0.326  10.530 -2.2233 -0.0847  0.7496
  399MPD2    N1 6152   3.850   0.638  11.001 -0.4082  0.1245 -0.2326
  399MPD2    H7 6153   3.868   0.737  11.017  1.6247  0.0101 -1.7815
  400MPD2     C 6154   4.439   4.688  10.159  0.5606 -0.1601 -0.1109
  400MPD2    C1 6155   4.362   4.599  10.231 -0.6170 -0.4401 -0.4008
  400MPD2    C2 6156   4.236   4.644  10.265  0.0851 -0.7768  0.6294
  400MPD2    C3 6157   4.192   4.773  10.231  0.0528  0.0241  0.3943
  400MPD2    C4 6158   4.285   0.083  10.177 -0.0701  0.7511 -0.0108
  400MPD2    C5 6159   4.408   0.041  10.143 -0.1286 -0.1318 -0.0243
  400MPD2     H 6160   4.165   4.577  10.313  1.9982 -2.8302  0.6335
  400MPD2    H1 6161   4.269   0.189  10.162  1.9965  1.2477  1.3442
  400MPD2    H2 6162   4.532   4.650  10.119 -0.0385 -0.9975 -0.6996
  400MPD2    H3 6163   4.476   0.112  10.097 -0.5615 -0.1412 -0.6807
  400MPD2     N 6164   4.061   0.042  10.258 -0.0796  0.1735 -0.0432
  400MPD2    H5 6165   4.045   0.142  10.265  5.0136  1.0394 -1.3340
  400MPD2    N1 6166   4.408   4.467  10.245 -0.4374 -0.4770 -0.5619
  400MPD2    H7 6167   4.496   4.438  10.203  1.5949  0.9681  2.6579
  401MPD2     C 6168   1.493   2.638  11.594 -0.4758  0.2386 -0.1582
  401MPD2    C1 6169   1.532   2.511  11.560  0.1534 -0.6934 -0.0361
  401MPD2    C2 6170   1.644   2.494  11.483  0.0106 -0.3641  0.3979
  401MPD2    C3 6171   1.728   2.604  11.452 -0.3082 -0.5177  0.1102
  401MPD2    C4 6172   1.685   2.732  11.481 -0.5766 -0.3256 -0.4537
  401MPD2    C5 6173   1.569   2.740  11.555  0.1769 -0.0423  0.3290
  401MPD2     H 6174   1.668   2.391  11.460 -2.9253 -0.2561 -3.1566
  401MPD2    H1 6175   1.749   2.816  11.460 -0.4504  0.0998  1.5881
  401MPD2    H2 6176   1.405   2.660  11.654 -0.5214 -1.4044  0.4013
  401MPD2    H3 6177   1.523   2.836  11.576  1.6853  0.1669  2.7012
  401MPD2     N 6178   1.863   2.593  11.409  0.3239 -0.0011  0.1391
  401MPD2    H5 6179   1.924   2.674  11.404 -0.0014  0.3786  2.2797
  401MPD2    N1 6180   1.460   2.402  11.607 -0.2958  0.1262 -0.7719
  401MPD2    H7 6181   1.388   2.417  11.677  0.6944  1.0263  0.0438
  402MPD2     C 6182   0.748   2.296  12.101 -0.0039 -0.2425  0.2313
  402MPD2    C1 6183   0.792   2.358  11.987 -0.2596  0.3066  0.4691
  402MPD2    C2 6184   0.921   2.347  11.939  0.1215 -0.0849  0.4909
  402MPD2    C3 6185   1.003   2.247  11.990 -0.0622 -0.2523  0.2042
  402MPD2    C4 6186   0.956   2.162  12.095 -0.3461 -0.0718  0.2163
  402MPD2    C5 6187   0.828   2.187  12.141  0.2001 -0.0266  0.5512
  402MPD2     H 6188   0.945   2.397  11.846 -0.9693  0.2365  0.3750
  402MPD2    H1 6189   1.009   2.079  12.140  3.0061  2.2710  0.5860
  402MPD2    H2 6190   0.654   2.309  12.152 -0.0791 -0.4289  0.1391
  402MPD2    H3 6191   0.786   2.135  12.226  1.5227 -1.8206  0.1336
  402MPD2     N 6192   1.122   2.229  11.923  0.2853 -0.3243 -0.1858
  402MPD2    H5 6193   1.148   2.291  11.847  0.5379 -0.1328  0.0572
  402MPD2    N1 6194   0.702   2.462  11.940 -0.8142 -0.3022  0.1802
  402MPD2    H7 6195   0.617   2.471  11.995 -0.9559 -0.8007  0.0399
  403MPD2     C 6196   1.959   1.931  11.893 -0.1292 -0.3356  1.3794
  403MPD2    C1 6197   1.865   1.880  11.815  0.7510  0.4992 -0.0505
  403MPD2    C2 6198   1.884   1.772  11.730  0.0139  0.1873  0.5067
  403MPD2    C3 6199   2.009   1.723  11.713  0.4025  0.2027 -0.2516
  403MPD2    C4 6200   2.106   1.771  11.800  0.3180  0.2713  0.2598
  403MPD2    C5 6201   2.088   1.884  11.883 -0.3364  0.0881  0.4838
  403MPD2     H 6202   1.810   1.727  11.664 -0.4998  1.4459  0.2257
  403MPD2    H1 6203   2.209   1.737  11.809  0.1419  0.1917  1.9221
  403MPD2    H2 6204   1.945   2.011  11.965 -0.8618  1.1426 -0.3998
  403MPD2    H3 6205   2.166   1.925  11.947  0.0720  1.9554 -1.2199
  403MPD2     N 6206   2.026   1.613  11.626  0.1272  0.5017  0.1704
  403MPD2    H5 6207   1.943   1.590  11.573 -0.1642  1.1608  0.3436
  403MPD2    N1 6208   1.734   1.931  11.808  0.2634  0.4830 -0.0205
  403MPD2    H7 6209   1.675   1.887  11.738 -0.5460  0.9674  0.3536
  404MPD2     C 6210   1.926   0.207   6.069 -0.3382 -1.0673  0.1168
  404MPD2    C1 6211   1.996   0.297   6.153 -0.1024 -0.5229  0.2318
  404MPD2    C2 6212   1.943   0.326   6.279 -0.0598 -0.9016 -0.6259
  404MPD2    C3 6213   1.835   0.250   6.332 -0.6719 -0.0942 -0.7277
  404MPD2    C4 6214   1.779   0.150   6.251 -0.9349 -0.0588 -0.2570
  404MPD2    C5 6215   1.828   0.131   6.122  0.1545 -0.2932  0.2299
  404MPD2     H 6216   1.995   0.392   6.348 -2.5395  0.8584 -0.4743
  404MPD2    H1 6217   1.707   0.081   6.292 -1.2160 -0.1713 -0.9364
  404MPD2    H2 6218   1.964   0.185   5.969 -0.4217  0.1167 -0.1813
  404MPD2    H3 6219   1.794   0.046   6.064 -1.1954  0.8991 -0.7151
  404MPD2     N 6220   1.795   0.279   6.466  0.0578  1.0140  0.1934
  404MPD2    H5 6221   1.824   0.369   6.502  0.2620 -0.3067  3.3617
  404MPD2    N1 6222   2.111   0.360   6.106  0.2442 -0.0711  0.1746
  404MPD2    H7 6223   2.160   0.413   6.177  1.2966 -0.4745 -0.2481
  405MPD2     C 6224   1.184   0.079   7.381 -0.2294  0.2580  0.1974
  405MPD2    C1 6225   1.303   0.146   7.410 -0.4417  0.4705 -0.2744
  405MPD2    C2 6226   1.379   0.188   7.303  0.0388  0.1561  0.0165
  405MPD2    C3 6227   1.352   0.160   7.169 -0.6509 -0.0859 -0.2210
  405MPD2    C4 6228   1.228   0.103   7.145  0.3126 -1.2555  0.4339
  405MPD2    C5 6229   1.147   0.064   7.252  0.0223 -0.5196 -0.0628
  405MPD2     H 6230   1.465   0.243   7.337  0.5972 -0.8388  0.2110
  405MPD2    H1 6231   1.203   0.077   7.042  0.4507  0.2180  0.0334
  405MPD2    H2 6232   1.128   0.027   7.458  0.4202  0.9603  1.1294
  405MPD2    H3 6233   1.056   0.007   7.234 -1.7261  2.7045 -1.3145
  405MPD2     N 6234   1.438   0.213   7.068 -0.7787 -0.4703 -0.2081
  405MPD2    H5 6235   1.526   0.253   7.101 -2.0181  0.2306  2.2716
  405MPD2    N1 6236   1.359   0.170   7.539 -0.5294  0.7825 -0.1618
  405MPD2    H7 6237   1.440   0.230   7.535 -0.7723  1.1600  0.5118
  406MPD2     C 6238   3.325   4.300   9.234  0.3125 -0.2837 -0.6039
  406MPD2    C1 6239   3.344   4.421   9.177  0.1785 -0.1057  0.2067
  406MPD2    C2 6240   3.310   4.426   9.036  0.2281  0.0589  0.6167
  406MPD2    C3 6241   3.261   4.315   8.968 -0.1573  0.6976 -0.2725
  406MPD2    C4 6242   3.229   4.200   9.034  0.0555  1.3827  0.2193
  406MPD2    C5 6243   3.279   4.190   9.167  0.3884 -0.3926  0.0133
  406MPD2     H 6244   3.340   4.511   8.974 -0.5362  1.1003  1.6712
  406MPD2    H1 6245   3.187   4.113   8.985  0.3979  0.7888  0.9786
  406MPD2    H2 6246   3.361   4.287   9.335 -1.6049 -1.0088 -0.0106
  406MPD2    H3 6247   3.270   4.089   9.207  0.6210 -0.8082 -0.9749
  406MPD2     N 6248   3.234   4.311   8.829  0.0975  0.3346 -0.5320
  406MPD2    H5 6249   3.207   4.219   8.795 -0.2971  0.8005 -1.4844
  406MPD2    N1 6250   3.404   4.524   9.257  0.1141 -0.4928 -0.1173
  406MPD2    H7 6251   3.443   4.510   9.350  1.5579 -0.8806 -0.7904
  407MPD2     C 6252   3.000   0.560  15.094  0.9484  0.1860 -0.1260
  407MPD2    C1 6253   3.118   0.625  15.062 -0.4142 -0.3243  0.6363
  407MPD2    C2 6254   3.103   0.739  14.983 -0.0488  0.5887  0.1771
  407MPD2    C3 6255   2.971   0.771  14.938 -0.2338  0.0900 -0.1937
  407MPD2    C4 6256   2.857   0.692  14.960 -0.7539  0.5726 -0.6559
  407MPD2    C5 6257   2.876   0.591  15.043  0.3122 -0.2004  0.3533
  407MPD2     H 6258   3.191   0.795  14.953 -0.3829  0.4538 -1.0794
  407MPD2    H1 6259   2.761   0.719  14.917 -1.4570 -0.2175  0.4326
  407MPD2    H2 6260   3.005   0.471  15.155  4.8982  1.4784  1.3787
  407MPD2    H3 6261   2.793   0.524  15.062 -0.0937  0.1642 -0.1157
  407MPD2     N 6262   2.978   0.889  14.857 -0.5642 -0.6389  0.5555
  407MPD2    H5 6263   3.069   0.932  14.843 -1.1668 -0.0127 -1.3648
  407MPD2    N1 6264   3.242   0.570  15.107 -0.0302  0.0141  0.9106
  407MPD2    H7 6265   3.236   0.517  15.193 -0.2886  0.4314  1.1484
  408MPD2     C 6266   1.177   0.815   9.569  0.1225  0.1479  0.5452
  408MPD2    C1 6267   1.099   0.734   9.488  0.4070  0.5008  0.3159
  408MPD2    C2 6268   1.080   0.600   9.523 -0.7707  0.2466  0.0107
  408MPD2    C3 6269   1.137   0.548   9.631 -0.6914  0.3727  0.7274
  408MPD2    C4 6270   1.216   0.628   9.716 -0.4723  0.1791 -0.2468
  408MPD2    C5 6271   1.226   0.758   9.684 -0.2145 -0.8598  0.5101
  408MPD2     H 6272   1.020   0.539   9.457  0.0779  0.3227 -0.8358
  408MPD2    H1 6273   1.261   0.592   9.809  1.2393  0.1364 -1.0902
  408MPD2    H2 6274   1.189   0.921   9.553  1.0901 -0.1586 -0.7422
  408MPD2    H3 6275   1.278   0.825   9.751 -0.2262 -0.8027  0.4624
  408MPD2     N 6276   1.137   0.407   9.649  0.1290  0.7104  0.1394
  408MPD2    H5 6277   1.190   0.378   9.731  1.0814 -3.2971 -1.9104
  408MPD2    N1 6278   1.032   0.788   9.377  0.0757  0.5117 -0.3436
  408MPD2    H7 6279   0.951   0.736   9.345 -0.5941 -0.0331  2.2335
  409MPD2     C 6280   1.715   4.525   9.239  0.7750 -0.1505 -0.6660
  409MPD2    C1 6281   1.586   4.481   9.219  0.6671 -0.5640  0.7110
  409MPD2    C2 6282   1.492   4.533   9.304  0.2598 -0.6314  0.6778
  409MPD2    C3 6283   1.517   4.631   9.391 -0.3981 -0.5856  0.0239
  409MPD2    C4 6284   1.642   4.678   9.408  0.6621 -0.3786 -0.2193
  409MPD2    C5 6285   1.742   4.623   9.335  0.5958 -0.2968 -0.1405
  409MPD2     H 6286   1.389   4.509   9.276  0.7412 -2.9039  0.8040
  409MPD2    H1 6287   1.668   4.759   9.475  2.0502 -0.3833 -0.7470
  409MPD2    H2 6288   1.805   4.498   9.185  0.7278 -0.0398 -0.8002
  409MPD2    H3 6289   1.843   4.659   9.352  0.1221  0.3843  1.2213
  409MPD2     N 6290   1.400   4.670   9.475  0.2196  0.2813 -0.5387
  409MPD2    H5 6291   1.315   4.619   9.453 -0.6922  0.7419  1.9437
  409MPD2    N1 6292   1.557   4.369   9.140 -0.3011  0.3430  1.3917
  409MPD2    H7 6293   1.458   4.348   9.128  0.0551  0.1716 -1.2149
  410MPD2     C 6294   0.760   4.190   9.802 -0.1550  0.3943  0.2439
  410MPD2    C1 6295   0.878   4.210   9.872 -0.9816  0.5044 -0.6368
  410MPD2    C2 6296   0.948   4.321   9.850 -0.4433 -0.5072  0.5112
  410MPD2    C3 6297   0.901   4.417   9.755  0.1497 -0.1812  0.3999
  410MPD2    C4 6298   0.782   4.393   9.691 -0.3074 -0.4571 -0.6488
  410MPD2    C5 6299   0.715   4.277   9.717  0.1034 -0.4237 -1.0509
  410MPD2     H 6300   1.048   4.326   9.892  0.3690 -0.9762 -1.4008
  410MPD2    H1 6301   0.744   4.456   9.611  1.1392 -0.4018 -1.2936
  410MPD2    H2 6302   0.695   4.105   9.818  1.1010 -0.6235 -0.0650
  410MPD2    H3 6303   0.620   4.260   9.668 -0.2812 -2.6764  0.4660
  410MPD2     N 6304   0.988   4.520   9.714  0.8990  0.3565  0.2818
  410MPD2    H5 6305   1.082   4.511   9.752  0.5386 -2.0006  0.6224
  410MPD2    N1 6306   0.909   4.107   9.965  0.1173  0.7357 -0.3493
  410MPD2    H7 6307   0.849   4.025   9.966 -0.0554  0.8302 -2.2347
  411MPD2     C 6308   2.822   1.583  11.029 -0.1631  0.5003  0.0054
  411MPD2    C1 6309   2.889   1.609  10.914  0.2140  0.3112  0.3886
  411MPD2    C2 6310   2.856   1.536  10.799 -0.1948  0.2195  0.3543
  411MPD2    C3 6311   2.759   1.436  10.805 -0.0478 -0.0718  0.4767
  411MPD2    C4 6312   2.702   1.404  10.926  0.1241  0.4512 -0.4966
  411MPD2    C5 6313   2.733   1.485  11.035  0.6143 -0.0844  0.5962
  411MPD2     H 6314   2.910   1.551  10.706 -2.7819 -2.3995 -1.5685
  411MPD2    H1 6315   2.620   1.333  10.935 -2.0047  3.2466  2.0297
  411MPD2    H2 6316   2.839   1.645  11.116  1.4943 -1.0003  0.7465
  411MPD2    H3 6317   2.673   1.466  11.123 -1.4632 -0.5254 -0.9182
  411MPD2     N 6318   2.720   1.347  10.707  0.2190  0.6474  0.5866
  411MPD2    H5 6319   2.659   1.272  10.736 -1.9456  0.8063 -3.6087
  411MPD2    N1 6320   2.993   1.711  10.905  0.2019  0.7787  0.4154
  411MPD2    H7 6321   3.023   1.727  10.810 -1.2620 -2.9661 -0.6846
  412MPD2     C 6322   2.853   0.435  10.312  0.2611  0.0311  0.1128
  412MPD2    C1 6323   2.904   0.523  10.403  0.2128 -0.1210 -0.4971
  412MPD2    C2 6324   2.846   0.646  10.417  0.4660  0.5826 -0.4486
  412MPD2    C3 6325   2.742   0.688  10.337 -0.1354  0.6154  0.2761
  412MPD2    C4 6326   2.699   0.604  10.244 -0.4402 -0.1651  0.6732
  412MPD2    C5 6327   2.751   0.480  10.239 -0.0049 -0.7765 -0.1041
  412MPD2     H 6328   2.890   0.714  10.489 -1.4301  2.0588 -0.6668
  412MPD2    H1 6329   2.608   0.624  10.188 -0.1183  0.6739  0.4466
  412MPD2    H2 6330   2.890   0.334  10.304  3.4697  1.1705  0.3940
  412MPD2    H3 6331   2.716   0.416  10.159 -1.3467 -3.3573  2.5416
  412MPD2     N 6332   2.692   0.825  10.345  0.1999  0.5733 -0.1671
  412MPD2    H5 6333   2.620   0.848  10.277 -0.7065 -0.5018  0.4223
  412MPD2    N1 6334   3.008   0.498  10.496 -0.6133  0.1118 -0.1372
  412MPD2    H7 6335   3.049   0.569  10.555 -0.3015 -0.5712  0.4625
  413MPD2     C 6336   4.684   2.542   8.185  0.4393 -0.0352 -0.6963
  413MPD2    C1 6337   4.643   2.660   8.124  0.1321  0.0346 -0.3462
  413MPD2    C2 6338   4.727   2.717   8.024 -0.3433 -0.1266  0.0480
  413MPD2    C3 6339   0.072   2.662   7.994 -0.4117  0.4366  0.0193
  413MPD2    C4 6340   0.111   2.552   8.068 -0.1372  0.6223 -0.2959
  413MPD2    C5 6341   0.031   2.491   8.161 -1.1033 -0.1562  0.5189
  413MPD2     H 6342   4.684   2.809   7.987 -1.6780 -1.6060 -2.0757
  413MPD2    H1 6343   0.204   2.499   8.053 -0.0319  0.8125 -0.3118
  413MPD2    H2 6344   4.629   2.506   8.271  2.7593 -2.6740 -0.3264
  413MPD2    H3 6345   0.063   2.400   8.211 -2.0213 -0.6043  0.2954
  413MPD2     N 6346   0.160   2.715   7.899 -0.1887  0.1190 -0.4978
  413MPD2    H5 6347   0.250   2.669   7.892 -0.2791 -0.2662  0.8392
  413MPD2    N1 6348   4.512   2.707   8.155  0.6199 -0.1066  0.1913
  413MPD2    H7 6349   4.454   2.646   8.211 -2.5686  0.8044 -2.1444
  414MPD2     C 6350   4.377   3.254   8.882  0.2788 -0.3497  0.5339
  414MPD2    C1 6351   4.473   3.220   8.790 -0.6495 -0.4031  1.2210
  414MPD2    C2 6352   4.441   3.161   8.670  0.1274 -0.6425 -0.2970
  414MPD2    C3 6353   4.313   3.127   8.647  0.7748  0.0804 -0.0357
  414MPD2    C4 6354   4.212   3.171   8.734 -0.6327 -0.0734  0.6485
  414MPD2    C5 6355   4.245   3.238   8.846  0.3965 -0.6409  0.9816
  414MPD2     H 6356   4.520   3.136   8.600  1.4873  0.2567  0.9051
  414MPD2    H1 6357   4.105   3.172   8.720 -0.5671 -2.0537  0.0024
  414MPD2    H2 6358   4.401   3.298   8.978 -0.0266 -0.8778  0.8543
  414MPD2    H3 6359   4.168   3.283   8.908  1.9419  1.3477  1.4588
  414MPD2     N 6360   4.291   3.057   8.527  0.2158  0.7437  0.7240
  414MPD2    H5 6361   4.373   3.016   8.484 -0.6251 -0.2913  0.0929
  414MPD2    N1 6362   4.609   3.240   8.818  0.3249  0.1123  0.2933
  414MPD2    H7 6363   4.680   3.202   8.755  1.6726  0.5341  1.5554
  415MPD2     C 6364   0.158   2.702  15.299 -0.4685 -0.0347  0.0013
  415MPD2    C1 6365   0.102   2.772  15.195  0.0335  0.4211  0.2005
  415MPD2    C2 6366   0.148   2.751  15.069  0.4631  0.1528 -0.5688
  415MPD2    C3 6367   0.259   2.674  15.044 -0.2004  0.7322 -0.5942
  415MPD2    C4 6368   0.287   2.576  15.137 -0.4655 -0.0729 -0.2318
  415MPD2    C5 6369   0.250   2.603  15.268  0.2103 -0.0564 -0.0764
  415MPD2     H 6370   0.116   2.816  14.989 -2.4674  1.5890  1.7792
  415MPD2    H1 6371   0.366   2.502  15.123 -1.3111 -0.5725 -2.3894
  415MPD2    H2 6372   0.135   2.699  15.405  1.7498  0.0240  0.4897
  415MPD2    H3 6373   0.285   2.548  15.355 -3.5483 -0.9221  0.9198
  415MPD2     N 6374   0.324   2.667  14.913 -0.3287  0.9447 -0.6510
  415MPD2    H5 6375   0.271   2.714  14.840 -0.7369 -1.1160 -1.6815
  415MPD2    N1 6376   0.009   2.870  15.211 -0.0308 -0.3334  0.2084
  415MPD2    H7 6377   4.766   2.928  15.130  0.2989 -0.8616 -0.2447
  416MPD2     C 6378   0.245   2.689  14.148  0.7294  0.3364  0.3561
  416MPD2    C1 6379   0.377   2.666  14.169  0.3236 -0.1684 -0.2704
  416MPD2    C2 6380   0.468   2.674  14.070 -0.1599  0.5162  0.3605
  416MPD2    C3 6381   0.425   2.700  13.939 -0.5618 -0.3685  0.0057
  416MPD2    C4 6382   0.287   2.722  13.914  0.5720  0.7450 -0.0546
  416MPD2    C5 6383   0.202   2.715  14.019 -0.0547  0.0885  0.1769
  416MPD2     H 6384   0.572   2.649  14.088 -0.1328 -0.8027 -1.6517
  416MPD2    H1 6385   0.257   2.730  13.811 -0.3344 -1.4987  0.0221
  416MPD2    H2 6386   0.166   2.675  14.221  0.7966 -0.5385  0.2602
  416MPD2    H3 6387   0.098   2.744  14.014  0.0288  0.6312  1.4916
  416MPD2     N 6388   0.519   2.712  13.832 -0.5111 -0.3676  0.6255
  416MPD2    H5 6389   0.484   2.723  13.737 -2.4717 -0.7977  1.2911
  416MPD2    N1 6390   0.441   2.641  14.296  0.0287  0.6313 -0.3235
  416MPD2    H7 6391   0.542   2.636  14.302 -0.0168  0.7124  0.4142
  417MPD2     C 6392   0.206   1.811  12.599  0.2625  0.3624 -0.0110
  417MPD2    C1 6393   0.213   1.705  12.685  0.0941 -0.6971  0.2290
  417MPD2    C2 6394   0.198   1.742  12.816 -0.4092 -0.4019  0.8533
  417MPD2    C3 6395   0.160   1.864  12.862  0.2742  0.4892 -0.1229
  417MPD2    C4 6396   0.120   1.958  12.776 -0.3595 -0.3342 -0.0539
  417MPD2    C5 6397   0.159   1.933  12.642  0.2830 -0.1624  0.0405
  417MPD2     H 6398   0.204   1.660  12.887  1.5404 -1.9224 -1.0565
  417MPD2    H1 6399   0.079   2.057  12.796 -1.7612 -1.1307  1.0764
  417MPD2    H2 6400   0.234   1.798  12.495 -1.6849 -1.5294 -0.2885
  417MPD2    H3 6401   0.145   2.012  12.569 -0.9675  0.0142  0.4802
  417MPD2     N 6402   0.146   1.902  12.995 -0.6288  0.0628  0.3140
  417MPD2    H5 6403   0.101   1.990  13.017  0.8937  0.8827  0.1354
  417MPD2    N1 6404   0.263   1.575  12.652 -0.4929  0.2536 -0.1685
  417MPD2    H7 6405   0.314   1.563  12.565 -0.7557 -0.5023 -0.2174
  418MPD2     C 6406   4.552   2.549  13.298 -0.7765  0.3355  0.2401
  418MPD2    C1 6407   4.476   2.446  13.344 -0.2074 -0.1360 -0.2593
  418MPD2    C2 6408   4.537   2.321  13.366  0.3836  0.6164 -0.2805
  418MPD2    C3 6409   4.669   2.309  13.332 -0.0416 -0.0065  0.8995
  418MPD2    C4 6410   4.738   2.411  13.280  0.7390  0.0660 -0.0365
  418MPD2    C5 6411   4.685   2.544  13.269  0.7195 -0.1260 -0.1761
  418MPD2     H 6412   4.483   2.234  13.401  0.9408  0.9295  1.3664
  418MPD2    H1 6413   0.068   2.399  13.261  0.2723 -1.2208 -1.8583
  418MPD2    H2 6414   4.510   2.648  13.284  2.1703  1.6086  0.2854
  418MPD2    H3 6415   4.741   2.631  13.238  0.9231  0.1908  1.0856
  418MPD2     N 6416   4.742   2.190  13.344 -0.1343 -0.2794  0.3310
  418MPD2    H5 6417   0.058   2.185  13.303 -0.8345 -0.3601 -1.2050
  418MPD2    N1 6418   4.338   2.446  13.373 -0.0178  0.1816 -0.5600
  418MPD2    H7 6419   4.300   2.355  13.398  1.7166  0.0345  1.4542
  419MPD2     C 6420   0.073   1.464  13.738 -0.1529  0.3499  0.1440
  419MPD2    C1 6421   0.051   1.596  13.757  0.3659  0.9074  0.1729
  419MPD2    C2 6422   4.765   1.632  13.874  0.3627  0.3766 -0.0693
  419MPD2    C3 6423   4.737   1.547  13.982 -0.6673  0.8133 -0.9465
  419MPD2    C4 6424   4.757   1.407  13.954 -0.1536 -0.2301 -0.5309
  419MPD2    C5 6425   0.039   1.375  13.838 -0.5831 -0.2075 -0.0056
  419MPD2     H 6426   4.752   1.736  13.901 -0.8551  0.5543 -1.3554
  419MPD2    H1 6427   4.744   1.325  14.023 -1.0134  2.7379  2.8488
  419MPD2    H2 6428   0.123   1.432  13.647 -0.5892  1.4609 -0.4760
  419MPD2    H3 6429   0.052   1.271  13.811  1.7816  0.4491 -1.3889
  419MPD2     N 6430   4.699   1.601  14.108  0.3613 -0.3697  0.0345
  419MPD2    H5 6431   4.692   1.701  14.120  1.2614 -0.2350 -0.6020
  419MPD2    N1 6432   0.093   1.698  13.671 -0.4460 -0.2485  0.2323
  419MPD2    H7 6433   0.081   1.794  13.703  1.0349 -0.1324  0.4506
  420MPD2     C 6434   4.155   3.760  11.612 -0.3857  0.0792 -0.5173
  420MPD2    C1 6435   4.023   3.751  11.573 -0.4671 -0.4739  0.1781
  420MPD2    C2 6436   3.977   3.619  11.569  0.1287 -0.3884  0.6799
  420MPD2    C3 6437   4.051   3.505  11.613 -0.3447 -0.3270  0.0091
  420MPD2    C4 6438   4.178   3.526  11.649  0.1023  0.1984 -0.2432
  420MPD2    C5 6439   4.231   3.648  11.654  0.3668 -0.4190 -0.0705
  420MPD2     H 6440   3.876   3.601  11.534 -0.0368  1.7673  0.0497
  420MPD2    H1 6441   4.233   3.439  11.683  0.8905  0.7152 -0.1902
  420MPD2    H2 6442   4.201   3.857  11.626 -1.1380  0.3936 -0.2359
  420MPD2    H3 6443   4.332   3.667  11.690  1.4914  0.3742 -3.7192
  420MPD2     N 6444   4.000   3.374  11.631  0.4213  0.6566 -0.2964
  420MPD2    H5 6445   4.060   3.295  11.649 -0.3100  0.0344 -0.6106
  420MPD2    N1 6446   3.954   3.856  11.512 -0.1668  0.3969  0.2810
  420MPD2    H7 6447   3.997   3.948  11.518 -1.4059  0.7307  4.0903
  421MPD2     C 6448   3.211   4.148  11.124  0.3834  0.1603 -0.3726
  421MPD2    C1 6449   3.246   4.217  11.236  0.3117 -0.4119 -0.4450
  421MPD2    C2 6450   3.158   4.315  11.288  0.0123  0.7946 -0.1273
  421MPD2    C3 6451   3.039   4.349  11.222 -0.4935 -0.4064  0.7365
  421MPD2    C4 6452   3.007   4.276  11.104 -0.0806 -0.4353  0.5852
  421MPD2    C5 6453   3.090   4.178  11.065  0.2974 -0.2626  0.3373
  421MPD2     H 6454   3.185   4.371  11.377 -2.2336  1.6131  0.0543
  421MPD2    H1 6455   2.914   4.293  11.052  0.3077  1.4767  0.5492
  421MPD2    H2 6456   3.261   4.066  11.074 -0.0290  0.0084 -0.5362
  421MPD2    H3 6457   3.054   4.118  10.982 -1.0947  0.9186  0.0941
  421MPD2     N 6458   2.947   4.444  11.261  0.6483 -0.2235  0.8287
  421MPD2    H5 6459   2.875   4.460  11.192  3.1482  0.5928 -1.5956
  421MPD2    N1 6460   3.374   4.198  11.299  0.1709 -0.1740 -0.0573
  421MPD2    H7 6461   3.388   4.261  11.377 -1.7681 -0.0147  0.1562
  422MPD2     C 6462   3.981   4.617  11.266  0.5547  0.7981 -0.3330
  422MPD2    C1 6463   3.973   4.524  11.372 -0.1167  0.9509 -0.2379
  422MPD2    C2 6464   4.052   4.543  11.485  0.5765  0.4882 -0.1181
  422MPD2    C3 6465   4.118   4.666  11.498 -0.3893 -0.3346 -0.4046
  422MPD2    C4 6466   4.121   4.758  11.393  0.2035  0.1894  0.3968
  422MPD2    C5 6467   4.062   4.725  11.276  0.0550  0.1924 -0.5275
  422MPD2     H 6468   4.051   4.482  11.575  1.5813  0.6286 -0.0026
  422MPD2    H1 6469   4.177   0.075  11.403  2.5662 -1.1538 -0.5442
  422MPD2    H2 6470   3.924   4.597  11.176  0.8881 -0.8981 -0.1780
  422MPD2    H3 6471   4.076   0.023  11.198 -0.6229  2.0074  1.0522
  422MPD2     N 6472   4.195   4.698  11.613 -0.0932  0.4432  0.8269
  422MPD2    H5 6473   4.214   0.019  11.636 -1.3568  0.8601  0.0888
  422MPD2    N1 6474   3.891   4.409  11.354 -0.2040  0.0564 -1.0287
  422MPD2    H7 6475   3.829   4.407  11.273 -1.5140  0.9279 -0.0441
  423MPD2     C 6476   4.008   4.343  13.349  0.4056 -0.7899 -0.4000
  423MPD2    C1 6477   4.102   4.340  13.251  0.3917  0.0852  0.9391
  423MPD2    C2 6478   4.096   4.424  13.146  0.0947  0.8499  0.4569
  423MPD2    C3 6479   3.980   4.496  13.117 -0.0328 -0.1238  0.1702
  423MPD2    C4 6480   3.878   4.493  13.211  0.1104  0.3162  0.5091
  423MPD2    C5 6481   3.895   4.418  13.330  0.1318 -0.0549  0.0787
  423MPD2     H 6482   4.180   4.437  13.079  0.1959 -0.1972  0.3882
  423MPD2    H1 6483   3.784   4.545  13.198  0.6014  0.5601 -2.0698
  423MPD2    H2 6484   4.015   4.282  13.438  0.1255 -0.6771 -0.3005
  423MPD2    H3 6485   3.811   4.418  13.398  1.1464 -2.7363  1.3365
  423MPD2     N 6486   3.975   4.572  12.997  0.0736  0.6822  0.0265
  423MPD2    H5 6487   4.048   4.546  12.933  1.0767 -1.1734  1.9222
  423MPD2    N1 6488   4.208   4.248  13.266 -0.3125 -0.5065 -0.1292
  423MPD2    H7 6489   4.204   4.183  13.344  1.0629 -3.0528 -2.1640
  424MPD2     C 6490   4.600   3.673  13.933 -0.4562  0.2987  0.0453
  424MPD2    C1 6491   4.542   3.605  13.826 -0.0385 -0.8418 -0.2731
  424MPD2    C2 6492   4.514   3.676  13.711 -0.3227 -0.1445 -0.0625
  424MPD2    C3 6493   4.549   3.812  13.698 -0.2800 -0.3423  0.0720
  424MPD2    C4 6494   4.594   3.884  13.807 -0.4094 -0.2956 -0.0887
  424MPD2    C5 6495   4.624   3.804  13.922  0.6789  1.0135  0.3173
  424MPD2     H 6496   4.472   3.617  13.630  0.0047 -0.7102  0.1774
  424MPD2    H1 6497   4.604   3.992  13.803 -0.7301 -0.2070  1.6035
  424MPD2    H2 6498   4.618   3.622  14.027 -0.4159  1.4880  0.6921
  424MPD2    H3 6499   4.685   3.847  14.001  1.9488 -0.1929 -0.0182
  424MPD2     N 6500   4.528   3.874  13.570  0.2206  0.0783 -0.3066
  424MPD2    H5 6501   4.493   3.805  13.504  1.2626 -2.0623  1.3808
  424MPD2    N1 6502   4.518   3.460  13.837  0.5679 -0.4505  0.4496
  424MPD2    H7 6503   4.482   3.414  13.753 -1.4287 -1.5740  1.9128
  425MPD2     C 6504   1.862   4.605   8.275 -0.0317  0.2171  0.9392
  425MPD2    C1 6505   1.934   4.575   8.390  0.2196 -0.2458  0.3277
  425MPD2    C2 6506   1.865   4.518   8.498  0.4121 -0.4268  0.1490
  425MPD2    C3 6507   1.731   4.478   8.483 -0.4020 -0.5083 -0.4649
  425MPD2    C4 6508   1.662   4.498   8.371 -0.7821  0.2664  0.0959
  425MPD2    C5 6509   1.727   4.573   8.274  0.1131 -0.4525  0.4543
  425MPD2     H 6510   1.915   4.484   8.589 -1.4786  0.6116  1.5775
  425MPD2    H1 6511   1.560   4.465   8.359 -0.9777  0.8117  0.2576
  425MPD2    H2 6512   1.913   4.644   8.188 -1.9922  0.5544 -0.0764
  425MPD2    H3 6513   1.670   4.599   8.186  0.1079 -0.5160  0.4389
  425MPD2     N 6514   1.673   4.414   8.595 -0.1226 -0.2076  0.5203
  425MPD2    H5 6515   1.737   4.409   8.674 -0.0466  2.7938  0.6170
  425MPD2    N1 6516   2.079   4.568   8.387  0.2854  0.6787  0.3190
  425MPD2    H7 6517   2.126   4.534   8.471  1.9457  0.0921 -0.8425
  426MPD2     C 6518   0.363   2.729   7.043 -0.5099 -0.1694  0.3197
  426MPD2    C1 6519   0.309   2.606   7.017 -0.2985 -0.0975 -0.4542
  426MPD2    C2 6520   0.206   2.599   6.926  0.0312 -0.3738 -0.3731
  426MPD2    C3 6521   0.162   2.707   6.854  0.1584 -0.5316  0.3932
  426MPD2    C4 6522   0.237   2.827   6.862 -0.3127  0.3353  0.6423
  426MPD2    C5 6523   0.334   2.835   6.956 -1.0926 -0.5186  0.2776
  426MPD2     H 6524   0.147   2.508   6.937 -1.3558  0.5220 -0.4149
  426MPD2    H1 6525   0.220   2.919   6.808  0.5489  0.7373  1.0444
  426MPD2    H2 6526   0.445   2.735   7.114 -1.8621 -0.6163  1.9187
  426MPD2    H3 6527   0.397   2.922   6.969 -1.4672 -0.3349  0.9245
  426MPD2     N 6528   0.054   2.697   6.767  0.4237  0.1798 -0.7287
  426MPD2    H5 6529   0.013   2.783   6.731 -1.2555 -0.6816 -0.8795
  426MPD2    N1 6530   0.354   2.485   7.072  0.2594  0.3062  0.8394
  426MPD2    H7 6531   0.314   2.401   7.031  1.1609  0.1945  0.1815
  427MPD2     C 6532   4.177   3.026   6.911 -0.2310  0.7162  0.1329
  427MPD2    C1 6533   4.239   2.904   6.942 -0.2405  0.2551 -0.3120
  427MPD2    C2 6534   4.266   2.869   7.076 -0.3223  0.0162  1.0460
  427MPD2    C3 6535   4.214   2.947   7.174  0.8811  0.1787 -0.6954
  427MPD2    C4 6536   4.157   3.069   7.144 -0.7168 -1.0206 -0.9028
  427MPD2    C5 6537   4.139   3.105   7.010  0.1445 -0.6024  0.6964
  427MPD2     H 6538   4.307   2.773   7.105  0.0977  0.0001  0.3867
  427MPD2    H1 6539   4.129   3.138   7.222 -0.3727  0.6670 -2.2660
  427MPD2    H2 6540   4.160   3.061   6.810 -0.4803  2.0728  0.6415
  427MPD2    H3 6541   4.106   3.204   6.979 -1.5420 -1.0728  0.9780
  427MPD2     N 6542   4.230   2.909   7.305 -0.1519 -0.0267  0.0899
  427MPD2    H5 6543   4.275   2.820   7.319  1.2250  0.8598  1.2827
  427MPD2    N1 6544   4.283   2.817   6.843 -0.4168 -0.5370  0.1787
  427MPD2    H7 6545   4.294   2.866   6.755  0.5111  1.8087  1.5981
  428MPD2     C 6546   4.427   2.631   6.148 -0.0854 -0.3730 -0.3565
  428MPD2    C1 6547   4.362   2.603   6.261 -0.1119 -0.0143  0.4377
  428MPD2    C2 6548   4.270   2.496   6.251  0.6457 -0.4195 -0.0755
  428MPD2    C3 6549   4.255   2.415   6.137  0.7861  0.1351 -0.8365
  428MPD2    C4 6550   4.346   2.440   6.031  0.2001  0.6130 -0.0963
  428MPD2    C5 6551   4.424   2.552   6.037 -0.0452  0.0463  0.7708
  428MPD2     H 6552   4.217   2.474   6.343  1.8192  3.0965  1.4286
  428MPD2    H1 6553   4.355   2.375   5.945  2.1857  2.4807 -1.3059
  428MPD2    H2 6554   4.496   2.713   6.137 -0.6431 -0.1371 -2.0914
  428MPD2    H3 6555   4.489   2.578   5.954  0.7450  0.5639  1.5614
  428MPD2     N 6556   4.181   2.296   6.141 -0.0512 -0.2151  0.1772
  428MPD2    H5 6557   4.201   2.221   6.076  1.5599  0.0563  0.3526
  428MPD2    N1 6558   4.388   2.668   6.391  0.3433  0.7657 -0.3143
  428MPD2    H7 6559   4.339   2.625   6.469  1.4079 -0.5204 -0.3540
  429MPD2     C 6560   1.911   3.291  11.784  0.4608 -0.4004  0.8083
  429MPD2    C1 6561   1.844   3.174  11.831 -0.4841 -0.3636  0.4327
  429MPD2    C2 6562   1.905   3.089  11.919  0.1693  0.0197  0.3994
  429MPD2    C3 6563   2.031   3.110  11.960 -0.2767 -0.2826 -0.4860
  429MPD2    C4 6564   2.103   3.222  11.918 -0.0464 -0.7163 -0.6377
  429MPD2    C5 6565   2.040   3.306  11.828 -0.2157 -0.7393  0.7745
  429MPD2     H 6566   1.845   3.006  11.955  1.3685 -1.0211 -0.0229
  429MPD2    H1 6567   2.200   3.248  11.958  0.5954 -3.7048 -0.2234
  429MPD2    H2 6568   1.864   3.369  11.725  0.7436 -1.6995 -1.1120
  429MPD2    H3 6569   2.099   3.388  11.787  0.1890 -2.6607 -2.4578
  429MPD2     N 6570   2.092   3.015  12.048 -0.4122  0.5849  1.2741
  429MPD2    H5 6571   2.031   2.941  12.082 -0.0790 -1.1652 -1.9085
  429MPD2    N1 6572   1.716   3.165  11.785  0.9034 -0.4068 -0.1561
  429MPD2    H7 6573   1.685   3.253  11.746 -1.6539 -0.7728  1.0570
  430MPD2     C 6574   0.866   2.756  12.172  0.0092 -0.1847  0.0671
  430MPD2    C1 6575   0.857   2.885  12.153  0.4107  0.3741  0.3830
  430MPD2    C2 6576   0.926   2.937  12.049  0.0805  0.5513 -0.3787
  430MPD2    C3 6577   1.000   2.854  11.967  0.2170 -0.8506  0.2966
  430MPD2    C4 6578   1.003   2.715  11.984 -0.4033 -0.1621 -0.1284
  430MPD2    C5 6579   0.927   2.672  12.088  0.1178 -0.1193  0.0139
  430MPD2     H 6580   0.934   3.044  12.036 -1.6346  0.6152 -0.8865
  430MPD2    H1 6581   1.059   2.649  11.919 -0.2177  0.4612 -0.6099
  430MPD2    H2 6582   0.814   2.720  12.259  0.5089 -0.4007  0.2786
  430MPD2    H3 6583   0.922   2.567  12.113 -0.2657 -0.3507 -1.0609
  430MPD2     N 6584   1.078   2.916  11.875 -0.1934  0.4742 -0.4324
  430MPD2    H5 6585   1.079   3.017  11.873  2.5843  0.4474 -0.2734
  430MPD2    N1 6586   0.783   2.960  12.242 -0.7460  0.2468  0.1007
  430MPD2    H7 6587   0.751   2.914  12.327  0.1404  1.9960  1.4070
  431MPD2     C 6588   1.610   1.127   8.480  0.1878  0.0692 -0.2678
  431MPD2    C1 6589   1.572   1.119   8.608  0.1290  0.3380 -0.4036
  431MPD2    C2 6590   1.447   1.145   8.653 -0.2113 -0.5736  0.8298
  431MPD2    C3 6591   1.358   1.210   8.560  0.2032 -0.6478  0.1892
  431MPD2    C4 6592   1.394   1.219   8.425  0.3189 -0.7850 -0.0276
  431MPD2    C5 6593   1.521   1.178   8.386 -0.2260  0.8978 -0.0530
  431MPD2     H 6594   1.418   1.121   8.755  0.6949  0.1780  1.2636
  431MPD2    H1 6595   1.341   1.282   8.355 -0.8811 -0.1513  1.4525
  431MPD2    H2 6596   1.706   1.095   8.439  1.1575  2.1036  0.4363
  431MPD2    H3 6597   1.565   1.193   8.289 -1.2311  0.0736 -0.6338
  431MPD2     N 6598   1.238   1.261   8.617 -0.4287 -0.0419  0.1739
  431MPD2    H5 6599   1.219   1.244   8.715  1.1700 -2.3969  0.0744
  431MPD2    N1 6600   1.678   1.076   8.690 -0.2158  0.8613 -0.1149
  431MPD2    H7 6601   1.765   1.048   8.646 -2.0564 -0.5195 -2.9314
  432MPD2     C 6602   3.509   1.414  13.322 -0.5580 -0.2824 -0.1609
  432MPD2    C1 6603   3.466   1.311  13.235  0.6196 -0.2889  0.0035
  432MPD2    C2 6604   3.538   1.194  13.227  0.4134  0.0434 -0.6500
  432MPD2    C3 6605   3.646   1.174  13.311 -0.6672  0.9747  0.0807
  432MPD2    C4 6606   3.692   1.278  13.386  0.5726 -0.7013 -0.0173
  432MPD2    C5 6607   3.624   1.395  13.390 -0.5087  0.0071 -0.1422
  432MPD2     H 6608   3.507   1.114  13.160 -2.4222  0.3608  0.2828
  432MPD2    H1 6609   3.780   1.267  13.449  0.7211 -1.4872 -0.3558
  432MPD2    H2 6610   3.451   1.505  13.326  0.8786  0.6071  0.1113
  432MPD2    H3 6611   3.655   1.480  13.450  0.4106 -0.5389  0.1667
  432MPD2     N 6612   3.727   1.057  13.313 -0.2649  0.1323  0.6910
  432MPD2    H5 6613   3.800   1.051  13.383  0.3372 -0.3641  0.0140
  432MPD2    N1 6614   3.348   1.335  13.162 -0.1520  0.0659  0.2037
  432MPD2    H7 6615   3.306   1.424  13.185  0.5976 -0.1477  2.3998
  433MPD2     C 6616   2.593   1.213  13.255 -0.9187 -0.1604  0.5313
  433MPD2    C1 6617   2.721   1.219  13.293  0.2125  0.3373 -0.1859
  433MPD2    C2 6618   2.749   1.176  13.427  0.3074  0.6421  0.5476
  433MPD2    C3 6619   2.652   1.127  13.512 -0.0516 -0.4565 -0.2749
  433MPD2    C4 6620   2.529   1.129  13.471 -0.1024  0.8044  1.8697
  433MPD2    C5 6621   2.498   1.172  13.346 -0.1915 -0.2712  0.6469
  433MPD2     H 6622   2.851   1.192  13.461  1.3103 -0.8621 -1.7784
  433MPD2    H1 6623   2.447   1.099  13.535  0.2495  0.9854  2.4040
  433MPD2    H2 6624   2.559   1.274  13.173 -0.8029 -0.6761  0.1026
  433MPD2    H3 6625   2.392   1.181  13.322  0.1606 -0.9084 -1.1452
  433MPD2     N 6626   2.684   1.071  13.634  0.1030 -0.3378 -0.0076
  433MPD2    H5 6627   2.615   1.028  13.695  0.2620 -0.7104 -0.0893
  433MPD2    N1 6628   2.832   1.259  13.208 -0.0673 -0.3830  0.2601
  433MPD2    H7 6629   2.921   1.272  13.254 -0.0354 -0.3929  0.2017
  434MPD2     C 6630   1.433   1.543  11.139 -0.8939 -1.1946  0.3171
  434MPD2    C1 6631   1.444   1.489  11.263 -0.4990 -0.8755  0.0159
  434MPD2    C2 6632   1.560   1.430  11.307  0.2584 -0.6421  0.0067
  434MPD2    C3 6633   1.674   1.438  11.227  0.6889  0.2226  1.1955
  434MPD2    C4 6634   1.665   1.502  11.102 -0.5263 -0.7861 -0.4452
  434MPD2    C5 6635   1.541   1.551  11.061  0.4898 -0.1113  0.0409
  434MPD2     H 6636   1.554   1.373  11.398  0.0260 -0.3227  0.1929
  434MPD2    H1 6637   1.747   1.516  11.033 -2.4529  0.3329 -2.4925
  434MPD2    H2 6638   1.339   1.577  11.098 -1.5890 -2.4244  0.8730
  434MPD2    H3 6639   1.520   1.595  10.964  0.6460 -1.0080 -0.3980
  434MPD2     N 6640   1.803   1.389  11.267 -0.7968  0.0144  0.1626
  434MPD2    H5 6641   1.886   1.413  11.215 -0.4055  0.5370  1.0207
  434MPD2    N1 6642   1.332   1.466  11.350  0.0017 -0.3955 -0.0335
  434MPD2    H7 6643   1.359   1.408  11.430 -0.6964 -1.6104 -0.6869
  435MPD2     C 6644   3.793   2.248  13.359  0.4549 -0.3229 -0.2418
  435MPD2    C1 6645   3.811   2.210  13.223  1.2530  0.0240  0.6035
  435MPD2    C2 6646   3.828   2.308  13.126  0.3818  0.2544 -0.4373
  435MPD2    C3 6647   3.821   2.440  13.160 -0.0741  0.9719  0.1713
  435MPD2    C4 6648   3.792   2.475  13.288 -0.2091  0.1469 -0.1452
  435MPD2    C5 6649   3.790   2.380  13.392  0.3138  0.3928 -0.3610
  435MPD2     H 6650   3.850   2.287  13.022  1.1555 -0.3165 -0.1576
  435MPD2    H1 6651   3.764   2.576  13.316  1.4230 -0.1914  2.5935
  435MPD2    H2 6652   3.788   2.181  13.444  1.2609 -0.5122 -0.3381
  435MPD2    H3 6653   3.764   2.398  13.496  0.8759  2.6804 -0.6151
  435MPD2     N 6654   3.837   2.547  13.069  0.0214  0.0011 -0.0254
  435MPD2    H5 6655   3.781   2.628  13.093 -1.8689 -0.8783 -1.4260
  435MPD2    N1 6656   3.841   2.080  13.199 -0.0933  0.4806  0.0175
  435MPD2    H7 6657   3.824   2.027  13.284 -1.1635  1.5006  0.4452
  436MPD2     C 6658   4.369   2.018  13.211  0.2156 -0.3962  0.4852
  436MPD2    C1 6659   4.375   2.025  13.067  0.9221  0.0750  0.0414
  436MPD2    C2 6660   4.445   1.921  13.003 -0.7578 -0.7524 -0.0253
  436MPD2    C3 6661   4.494   1.815  13.078 -0.4469  0.0056  0.4168
  436MPD2    C4 6662   4.476   1.805  13.214  0.0623  0.7886  0.0010
  436MPD2    C5 6663   4.418   1.909  13.279  0.0759  0.0478  0.1904
  436MPD2     H 6664   4.453   1.910  12.896  2.1807 -0.5598  0.1943
  436MPD2    H1 6665   4.516   1.720  13.268  0.6489  0.2020 -1.3405
  436MPD2    H2 6666   4.334   2.105  13.264 -2.3901  0.2670 -2.3618
  436MPD2    H3 6667   4.406   1.895  13.386 -2.5486 -1.4538 -0.3163
  436MPD2     N 6668   4.549   1.700  13.017 -0.5038 -0.2687 -0.0920
  436MPD2    H5 6669   4.555   1.621  13.081  1.8769 -0.2117 -0.2747
  436MPD2    N1 6670   4.310   2.129  12.988  0.3866  0.2171  0.8246
  436MPD2    H7 6671   4.326   2.128  12.887 -0.3270 -1.7608  0.7362
  437MPD2     C 6672   3.983   2.352  12.078  0.5172  0.0695 -0.3119
  437MPD2    C1 6673   4.025   2.245  12.161 -0.2427  0.0393  0.0158
  437MPD2    C2 6674   4.029   2.260  12.303  0.2249 -0.3258  0.2571
  437MPD2    C3 6675   3.995   2.374  12.365 -0.5709 -0.0940  0.2322
  437MPD2    C4 6676   3.946   2.478  12.287 -0.3658  0.2493  0.1705
  437MPD2    C5 6677   3.936   2.465  12.144 -0.1083  0.6279 -0.2141
  437MPD2     H 6678   4.057   2.176  12.365 -0.8866  0.7668  2.2410
  437MPD2    H1 6679   3.937   2.577  12.332 -1.1196  0.4955 -0.5273
  437MPD2    H2 6680   3.975   2.344  11.971  0.2771 -2.0367 -0.1534
  437MPD2    H3 6681   3.901   2.556  12.096 -1.0208  0.1981 -0.3676
  437MPD2     N 6682   4.014   2.389  12.504  0.6601 -0.0510  0.1326
  437MPD2    H5 6683   3.990   2.477  12.548  0.3964 -0.2501  0.3890
  437MPD2    N1 6684   4.082   2.129  12.100 -0.4204 -0.1801 -0.0722
  437MPD2    H7 6685   4.095   2.136  12.000  2.8094 -0.4241  0.3239
  438MPD2     C 6686   0.665   0.473  12.496  1.0151 -0.5013  0.5305
  438MPD2    C1 6687   0.699   0.562  12.600  0.2910  0.2165  0.3727
  438MPD2    C2 6688   0.591   0.608  12.678 -0.5540 -0.4012 -0.1643
  438MPD2    C3 6689   0.458   0.572  12.649  0.1155 -0.0503 -1.0287
  438MPD2    C4 6690   0.429   0.468  12.566 -0.3348  0.0119 -0.2309
  438MPD2    C5 6691   0.538   0.420  12.496 -0.7769 -0.4346 -0.3492
  438MPD2     H 6692   0.612   0.676  12.760 -1.0133  0.4291 -0.7389
  438MPD2    H1 6693   0.326   0.441  12.544 -1.2687  2.7675  0.8580
  438MPD2    H2 6694   0.737   0.436  12.424  0.1760 -0.8232 -0.1331
  438MPD2    H3 6695   0.526   0.332  12.434  0.2493 -0.1534 -0.9470
  438MPD2     N 6696   0.346   0.631  12.720  0.1310 -0.3971 -0.4789
  438MPD2    H5 6697   0.258   0.585  12.702  1.6520 -1.8081 -4.2160
  438MPD2    N1 6698   0.829   0.613  12.626 -0.7022 -0.0832 -0.4971
  438MPD2    H7 6699   0.841   0.676  12.705 -3.2628  0.2008 -0.3219
  439MPD2     C 6700   4.489   2.094   7.129 -0.6034  0.5898 -0.1422
  439MPD2    C1 6701   4.418   2.192   7.064  0.1848 -0.6857  0.5819
  439MPD2    C2 6702   4.452   2.327   7.066 -0.5378  0.0394 -0.0101
  439MPD2    C3 6703   4.576   2.363   7.119 -0.0185 -0.1987  0.0249
  439MPD2    C4 6704   4.646   2.273   7.186 -0.2874  1.0012  0.0882
  439MPD2    C5 6705   4.606   2.141   7.190  0.7414 -0.6625  0.1343
  439MPD2     H 6706   4.395   2.407   7.018  1.3325  0.2206 -1.9203
  439MPD2    H1 6707   4.736   2.291   7.244  0.6162  0.3526 -1.0928
  439MPD2    H2 6708   4.479   1.987   7.120 -3.2643  0.8509 -0.1522
  439MPD2    H3 6709   4.667   2.064   7.236 -0.5868 -1.2161  0.9635
  439MPD2     N 6710   4.612   2.502   7.118  0.3618 -0.3424  0.3137
  439MPD2    H5 6711   4.558   2.574   7.072 -0.4348 -0.8555  0.4514
  439MPD2    N1 6712   4.297   2.159   6.996  0.1727 -0.1523 -0.1484
  439MPD2    H7 6713   4.253   2.237   6.950  0.8369 -1.4543 -2.9986
  440MPD2     C 6714   0.276   3.341   7.647 -0.9170 -0.7489  0.4778
  440MPD2    C1 6715   0.342   3.256   7.570  0.3605 -0.0211  0.2882
  440MPD2    C2 6716   0.278   3.150   7.506  0.5385 -0.2699  0.4343
  440MPD2    C3 6717   0.139   3.133   7.507  0.3627 -0.3443  1.1336
  440MPD2    C4 6718   0.073   3.220   7.589  0.2344 -0.1314  0.2409
  440MPD2    C5 6719   0.141   3.323   7.659  0.3250  0.3538  0.1496
  440MPD2     H 6720   0.344   3.081   7.454 -0.7434 -1.9677  1.0470
  440MPD2    H1 6721   4.742   3.211   7.601  0.3395 -1.0988  0.4118
  440MPD2    H2 6722   0.330   3.412   7.709 -0.1620  0.4792 -1.6083
  440MPD2    H3 6723   0.092   3.387   7.731  3.5742  0.1386  2.5694
  440MPD2     N 6724   0.074   3.042   7.428 -0.4049 -0.0219  0.2593
  440MPD2    H5 6725   4.752   3.057   7.411 -0.8369 -1.7898  1.1758
  440MPD2    N1 6726   0.481   3.280   7.580 -0.1561  0.1046 -0.4349
  440MPD2    H7 6727   0.511   3.370   7.616 -0.6924  0.6491 -1.3579
  441MPD2     C 6728   0.171   3.182   6.821 -0.4121 -0.8358  0.3683
  441MPD2    C1 6729   0.047   3.127   6.811 -0.9225 -0.2039  0.1407
  441MPD2    C2 6730   4.759   3.122   6.687 -0.3022  0.2043 -0.4140
  441MPD2    C3 6731   0.051   3.181   6.579 -0.2724  0.1107 -0.0573
  441MPD2    C4 6732   0.169   3.254   6.601 -0.7824 -0.1287  0.8509
  441MPD2    C5 6733   0.227   3.254   6.719  0.2172  0.7721 -0.3031
  441MPD2     H 6734   4.660   3.081   6.675  0.1623 -1.5980  1.8862
  441MPD2    H1 6735   0.207   3.326   6.531 -0.5694 -0.4801  0.6072
  441MPD2    H2 6736   0.221   3.190   6.917  1.2340 -3.0824 -0.3024
  441MPD2    H3 6737   0.314   3.316   6.737 -0.8471  2.8201 -2.2170
  441MPD2     N 6738   4.775   3.192   6.449  0.5297 -0.3649  0.1027
  441MPD2    H5 6739   4.676   3.172   6.439  0.4251  1.0473 -1.6802
  441MPD2    N1 6740   0.000   3.063   6.929 -0.0084  0.2938  0.0297
  441MPD2    H7 6741   0.058   3.072   7.012  1.5907 -0.5424 -1.0141
  442MPD2     C 6742   3.017   2.621  14.072  0.5104 -0.5583 -0.0867
  442MPD2    C1 6743   3.107   2.535  14.140  0.4498 -0.9174 -0.5313
  442MPD2    C2 6744   3.110   2.549  14.281 -0.6191 -0.2481 -0.1631
  442MPD2    C3 6745   3.030   2.646  14.350 -0.2261 -0.2702 -1.1007
  442MPD2    C4 6746   2.956   2.744  14.273  0.2739 -0.5677 -0.5892
  442MPD2    C5 6747   2.954   2.733  14.136  0.4073  0.0289  0.1954
  442MPD2     H 6748   3.175   2.489  14.344 -1.4683 -1.5712 -0.5675
  442MPD2    H1 6749   2.894   2.821  14.316  0.1584 -0.8284 -0.2890
  442MPD2    H2 6750   3.005   2.613  13.964 -1.0355 -1.7793  0.1827
  442MPD2    H3 6751   2.903   2.804  14.072  0.8939  0.4731  0.2968
  442MPD2     N 6752   3.013   2.660  14.490 -0.4056 -0.1604  0.3353
  442MPD2    H5 6753   2.963   2.740  14.528 -0.1777  1.3242 -2.4720
  442MPD2    N1 6754   3.182   2.432  14.075 -0.4471 -0.2553  0.5242
  442MPD2    H7 6755   3.167   2.428  13.974  1.0602 -2.5031  0.3814
  443MPD2     C 6756   3.492   1.392  10.076  0.5237 -0.1175 -0.8101
  443MPD2    C1 6757   3.606   1.317  10.092  0.4618 -0.4822 -0.4194
  443MPD2    C2 6758   3.582   1.202  10.167  0.2368 -0.3115 -0.1415
  443MPD2    C3 6759   3.458   1.163  10.228 -0.4776  0.1837  1.2488
  443MPD2    C4 6760   3.348   1.242  10.208 -0.7028  0.1113  0.8334
  443MPD2    C5 6761   3.373   1.353  10.133  1.1584 -0.2872 -0.2320
  443MPD2     H 6762   3.671   1.141  10.178  1.6401  1.8892  0.7028
  443MPD2    H1 6763   3.245   1.218  10.235 -0.8400  0.4034  0.5734
  443MPD2    H2 6764   3.486   1.478  10.010  2.0664 -0.2923 -1.1897
  443MPD2    H3 6765   3.292   1.421  10.110  2.6971  1.0485 -1.7223
  443MPD2     N 6766   3.439   1.046  10.303 -0.2995 -0.7823  0.3939
  443MPD2    H5 6767   3.346   1.025  10.338 -0.4536 -1.4145 -0.3974
  443MPD2    N1 6768   3.728   1.330  10.025  0.0733  0.0569 -0.4428
  443MPD2    H7 6769   3.803   1.266  10.050 -0.6725  0.4492  2.8506
  444MPD2     C 6770   4.034   0.746   9.904 -0.2508 -0.5004 -0.1267
  444MPD2    C1 6771   3.986   0.854   9.979 -1.2896 -0.3319 -0.1707
  444MPD2    C2 6772   3.908   0.835  10.085 -0.0452  0.1908 -0.3980
  444MPD2    C3 6773   3.855   0.713  10.109  0.0508 -0.5239 -0.5094
  444MPD2    C4 6774   3.907   0.603  10.047 -0.9521 -0.5234  0.4291
  444MPD2    C5 6775   3.995   0.617   9.940  0.0839 -0.6350 -0.5503
  444MPD2     H 6776   3.862   0.919  10.135 -0.4004  1.0598 -2.2021
  444MPD2    H1 6777   3.863   0.507  10.072 -0.9271 -0.5108  0.5202
  444MPD2    H2 6778   4.081   0.755   9.807  1.4833 -0.3619  0.7246
  444MPD2    H3 6779   4.024   0.537   9.872  1.5844 -1.0995  0.6409
  444MPD2     N 6780   3.768   0.712  10.214 -0.2410  0.8737  0.3535
  444MPD2    H5 6781   3.726   0.799  10.246 -1.0608  0.2129  1.0758
  444MPD2    N1 6782   4.010   0.990   9.950 -0.5592  0.2259  0.4045
  444MPD2    H7 6783   3.974   1.057  10.018 -1.0291 -0.5404  0.9166
  445MPD2     C 6784   4.495   1.604   9.313  0.3607 -0.2570  0.3783
  445MPD2    C1 6785   4.533   1.514   9.400 -0.8281  0.1731  0.1472
  445MPD2    C2 6786   4.440   1.453   9.485  0.2721 -0.1375 -0.0887
  445MPD2    C3 6787   4.311   1.494   9.478  0.6881 -0.5814  0.4674
  445MPD2    C4 6788   4.283   1.610   9.406  0.3528 -0.4828 -0.6220
  445MPD2    C5 6789   4.371   1.662   9.318  0.0188 -0.5602 -0.2319
  445MPD2     H 6790   4.465   1.371   9.552  3.5367 -0.8819 -2.2078
  445MPD2    H1 6791   4.183   1.651   9.408 -0.2495 -1.9746 -0.3381
  445MPD2    H2 6792   4.567   1.650   9.247 -0.9902 -0.7106 -1.4161
  445MPD2    H3 6793   4.348   1.752   9.262  0.2638  0.3707  1.1422
  445MPD2     N 6794   4.218   1.418   9.552  0.0064 -0.0307 -0.3245
  445MPD2    H5 6795   4.260   1.343   9.607  0.0024 -1.3972 -2.1689
  445MPD2    N1 6796   4.667   1.472   9.392  0.1105  0.3327 -0.2510
  445MPD2    H7 6797   4.725   1.526   9.328 -0.5367 -0.0464 -1.1468
  446MPD2     C 6798   1.517   4.231  14.527  0.2654 -0.3149  0.2327
  446MPD2    C1 6799   1.392   4.206  14.471 -0.7916 -0.1038  0.0095
  446MPD2    C2 6800   1.344   4.284  14.367  1.0460  0.4673  0.5286
  446MPD2    C3 6801   1.420   4.391  14.325 -0.1157  0.3959  0.1031
  446MPD2    C4 6802   1.545   4.417  14.378  0.0078 -0.0441 -0.9497
  446MPD2    C5 6803   1.585   4.331  14.478  0.2538 -0.1195 -0.6307
  446MPD2     H 6804   1.240   4.280  14.338  1.1147  1.2462  0.1736
  446MPD2    H1 6805   1.603   4.505  14.352 -0.5642  0.2378 -1.2562
  446MPD2    H2 6806   1.556   4.190  14.620  0.2240  1.6989  1.1448
  446MPD2    H3 6807   1.680   4.344  14.529 -0.8838  1.5800  1.0701
  446MPD2     N 6808   1.383   4.478  14.223 -0.1402  0.5483  0.0917
  446MPD2    H5 6809   1.445   4.559  14.216  2.7249 -1.6844 -0.3706
  446MPD2    N1 6810   1.319   4.104  14.535  0.3076  0.0999  0.2010
  446MPD2    H7 6811   1.354   4.068  14.623  1.5177 -0.5838 -0.5598
  447MPD2     C 6812   0.652   3.983  15.254  0.0259 -0.3588 -0.0900
  447MPD2    C1 6813   0.699   4.071  15.166  0.0491 -0.4278 -0.0644
  447MPD2    C2 6814   0.784   4.025  15.063  0.0083  0.2262 -0.7487
  447MPD2    C3 6815   0.846   3.902  15.068 -0.0543  0.0602 -0.6422
  447MPD2    C4 6816   0.792   3.813  15.161 -0.3944 -0.2481 -0.1418
  447MPD2    C5 6817   0.691   3.859  15.244 -0.0863  0.4122 -0.3050
  447MPD2     H 6818   0.822   4.090  14.984  1.3774 -1.0925 -1.1653
  447MPD2    H1 6819   0.823   3.710  15.163 -1.2745 -0.5263 -0.8715
  447MPD2    H2 6820   0.574   3.999  15.327 -1.9064  0.6899 -2.3921
  447MPD2    H3 6821   0.647   3.784  15.309 -0.1124 -0.4245 -1.2892
  447MPD2     N 6822   0.939   3.857  14.969 -0.5772  0.3347  0.2333
  447MPD2    H5 6823   0.973   3.762  14.965  0.0872  0.6241 -0.7302
  447MPD2    N1 6824   0.651   4.209  15.164 -0.3732  0.0348 -0.1554
  447MPD2    H7 6825   0.704   4.275  15.108 -0.7613 -0.2840 -0.8975
  448MPD2     C 6826   0.439   3.470  14.627 -0.1061 -0.8683 -0.0522
  448MPD2    C1 6827   0.470   3.608  14.640  0.7599  0.6960 -0.3266
  448MPD2    C2 6828   0.602   3.650  14.619  0.0920  0.0916 -0.3291
  448MPD2    C3 6829   0.698   3.559  14.597  0.3975 -0.2113 -0.5616
  448MPD2    C4 6830   0.668   3.421  14.566 -0.0732 -0.1340  0.7987
  448MPD2    C5 6831   0.540   3.379  14.582  0.6040 -0.3398  0.0231
  448MPD2     H 6832   0.637   3.749  14.646  1.7115 -1.0553  1.7931
  448MPD2    H1 6833   0.747   3.349  14.548 -0.6083  0.1743 -2.7892
  448MPD2    H2 6834   0.346   3.422  14.654 -1.3377  2.0507  0.8713
  448MPD2    H3 6835   0.531   3.271  14.584  1.3038 -0.4544 -2.9220
  448MPD2     N 6836   0.837   3.604  14.593  0.1835 -0.2566 -0.4724
  448MPD2    H5 6837   0.908   3.532  14.585 -2.1123 -2.6426  0.4112
  448MPD2    N1 6838   0.368   3.700  14.683  0.4690 -0.8080 -0.0323
  448MPD2    H7 6839   0.281   3.655  14.707  0.7526 -1.7228 -0.7300
  449MPD2     C 6840   2.669   2.075   6.929  0.2140 -0.1494  0.0028
  449MPD2    C1 6841   2.610   2.151   7.030  0.4848 -0.5117  0.4509
  449MPD2    C2 6842   2.592   2.093   7.153  0.3147 -0.1355 -0.9418
  449MPD2    C3 6843   2.633   1.961   7.183 -0.8761  0.3821  0.6558
  449MPD2    C4 6844   2.700   1.893   7.083  0.4748 -0.3671  0.1692
  449MPD2    C5 6845   2.722   1.951   6.962 -0.1136 -0.1045  0.7319
  449MPD2     H 6846   2.557   2.166   7.224  0.7994 -1.4823  0.6849
  449MPD2    H1 6847   2.720   1.788   7.105  0.6797  0.1632  2.4882
  449MPD2    H2 6848   2.672   2.113   6.828 -0.4921  0.5207  0.2295
  449MPD2    H3 6849   2.761   1.894   6.879 -2.2516 -2.2740  1.2251
  449MPD2     N 6850   2.627   1.904   7.314  1.0596  0.7402 -0.0412
  449MPD2    H5 6851   2.652   1.808   7.334 -2.3240  0.4899  2.8837
  449MPD2    N1 6852   2.560   2.287   7.014 -0.2338 -0.5784  0.1519
  449MPD2    H7 6853   2.517   2.329   7.095  1.2025 -1.4340  1.3483
  450MPD2     C 6854   2.379   2.263   7.931 -0.7910 -0.4029  0.3036
  450MPD2    C1 6855   2.442   2.154   7.976  0.6719  0.3294 -0.7364
  450MPD2    C2 6856   2.503   2.153   8.101 -0.4708 -0.0973 -0.2092
  450MPD2    C3 6857   2.484   2.262   8.181  0.5947 -1.1758 -1.0340
  450MPD2    C4 6858   2.423   2.377   8.131  0.2541  0.0436 -0.7774
  450MPD2    C5 6859   2.371   2.377   8.001 -0.0693 -1.2179  0.7474
  450MPD2     H 6860   2.545   2.061   8.140 -3.2896 -0.5693  1.7143
  450MPD2    H1 6861   2.399   2.466   8.187 -0.8550 -0.5438 -0.3163
  450MPD2    H2 6862   2.343   2.259   7.829  2.4510 -0.5803 -0.8606
  450MPD2    H3 6863   2.322   2.464   7.959  0.1170  0.7322  4.5401
  450MPD2     N 6864   2.548   2.261   8.307 -0.4289  0.9777  0.4024
  450MPD2    H5 6865   2.588   2.170   8.325 -0.8801  0.0419 -3.4009
  450MPD2    N1 6866   2.461   2.050   7.884  0.0917  0.7838  0.2664
  450MPD2    H7 6867   2.414   2.061   7.794 -0.7308  0.0238  0.6019
  451MPD2     C 6868   0.733   0.868  12.163 -0.0703  0.1476 -0.0668
  451MPD2    C1 6869   0.685   0.995  12.152  0.1094 -1.2620 -0.0414
  451MPD2    C2 6870   0.670   1.065  12.268  0.1264 -0.1935  0.3512
  451MPD2    C3 6871   0.695   1.009  12.389  0.0115 -0.1621  0.1890
  451MPD2    C4 6872   0.752   0.881  12.393  0.2231  0.0429 -0.3324
  451MPD2    C5 6873   0.764   0.808  12.280  0.5120 -0.4130 -0.3288
  451MPD2     H 6874   0.638   1.168  12.263  1.3690  0.2399  1.2064
  451MPD2    H1 6875   0.775   0.837  12.489  0.5890 -2.4220 -1.5614
  451MPD2    H2 6876   0.731   0.802  12.077  0.9031  0.5424 -0.3873
  451MPD2    H3 6877   0.789   0.703  12.288  0.6253 -0.1654  2.4966
  451MPD2     N 6878   0.658   1.080  12.508 -0.4618  0.1298  0.2051
  451MPD2    H5 6879   0.666   1.023  12.592 -2.6914  1.9707  1.6476
  451MPD2    N1 6880   0.634   1.051  12.028 -0.3167 -0.8890 -0.3803
  451MPD2    H7 6881   0.582   1.136  12.043  0.3256 -0.2467 -1.8415
  452MPD2     C 6882   2.269   1.199   8.569  0.2652 -0.1533  0.7085
  452MPD2    C1 6883   2.280   1.108   8.664 -0.1170 -0.5703  0.1281
  452MPD2    C2 6884   2.405   1.080   8.708  0.8244 -0.1732  0.3915
  452MPD2    C3 6885   2.513   1.128   8.641  1.0009 -0.3943  0.0832
  452MPD2    C4 6886   2.511   1.230   8.550 -0.2584 -0.0945 -0.4494
  452MPD2    C5 6887   2.378   1.264   8.513 -0.5400  0.8328  0.6649
  452MPD2     H 6888   2.420   1.011   8.790  1.6536  0.7443  1.0109
  452MPD2    H1 6889   2.598   1.270   8.499  0.2730 -1.2141 -0.4162
  452MPD2    H2 6890   2.173   1.238   8.536  0.9820  1.9337  1.0626
  452MPD2    H3 6891   2.362   1.333   8.430 -0.7117  1.2561  1.0489
  452MPD2     N 6892   2.636   1.083   8.678 -0.3883  0.0186  0.1064
  452MPD2    H5 6893   2.720   1.136   8.659  0.6994 -1.2447  1.3920
  452MPD2    N1 6894   2.158   1.067   8.732 -0.0750 -0.3099 -0.2942
  452MPD2    H7 6895   2.070   1.113   8.711  1.9307  3.7567  0.3624
  453MPD2     C 6896   4.345   3.644   6.436 -0.3087  0.0669 -0.8627
  453MPD2    C1 6897   4.320   3.582   6.318 -0.9400 -0.0923  0.1789
  453MPD2    C2 6898   4.206   3.614   6.244 -0.0247  0.3631 -0.8366
  453MPD2    C3 6899   4.125   3.721   6.283 -0.2479 -0.1939  0.9270
  453MPD2    C4 6900   4.155   3.786   6.404  0.2758  0.6569 -0.0015
  453MPD2    C5 6901   4.266   3.744   6.478  0.3008 -0.6605  1.1301
  453MPD2     H 6902   4.186   3.560   6.152  0.5963 -2.0648  0.4650
  453MPD2    H1 6903   4.090   3.867   6.435 -1.1010  0.1288 -1.5785
  453MPD2    H2 6904   4.425   3.609   6.500  0.5349  0.6792 -1.5763
  453MPD2    H3 6905   4.291   3.794   6.571  0.0094  4.5352 -1.5772
  453MPD2     N 6906   4.015   3.766   6.210 -0.0196 -0.1784  0.0678
  453MPD2    H5 6907   3.974   3.855   6.237 -0.4091 -0.5126  0.5884
  453MPD2    N1 6908   4.420   3.487   6.273 -0.4940 -0.0708  0.3549
  453MPD2    H7 6909   4.496   3.470   6.338 -0.1877  1.1820  0.3222
  454MPD2     C 6910   0.712   1.780  15.931 -0.4757  0.6103  0.4830
  454MPD2    C1 6911   0.717   1.798  15.795 -0.8589  0.2004 -0.3628
  454MPD2    C2 6912   0.729   1.679  15.720  0.4464  0.0403 -0.0426
  454MPD2    C3 6913   0.688   1.560  15.776  0.2155  0.6701 -0.0797
  454MPD2    C4 6914   0.669   1.548  15.914  0.2334  0.3505  1.0061
  454MPD2    C5 6915   0.685   1.661  15.987  0.3732  0.4552  0.1996
  454MPD2     H 6916   0.748   1.695  15.614 -1.9661  2.6094 -0.0853
  454MPD2    H1 6917   0.653   1.453  15.965 -0.3033  0.4811  1.0867
  454MPD2    H2 6918   0.721   1.860  16.004  1.5776  1.9163 -1.1725
  454MPD2    H3 6919   0.691   1.665  16.096  0.6369  2.0308  0.1257
  454MPD2     N 6920   0.674   1.441  15.700 -0.1723 -0.6231 -0.0637
  454MPD2    H5 6921   0.618   1.364  15.733 -0.4168 -0.1116  0.7097
  454MPD2    N1 6922   0.732   1.936  15.743  0.1961 -0.1906  0.0504
  454MPD2    H7 6923   0.705   2.014  15.803  0.9582 -0.2869  0.5129
  455MPD2     C 6924   0.467   2.672  15.805 -0.7222 -0.3603  0.2313
  455MPD2    C1 6925   0.503   2.643  15.672  0.4924 -0.6902 -0.4818
  455MPD2    C2 6926   0.479   2.731  15.572  0.1527  0.4679  0.2317
  455MPD2    C3 6927   0.410   2.851  15.596  0.1530 -0.2690 -0.9261
  455MPD2    C4 6928   0.363   2.876  15.721 -0.1029 -0.6292  0.3301
  455MPD2    C5 6929   0.397   2.791  15.823 -0.9245  0.6000 -0.2078
  455MPD2     H 6930   0.515   2.707  15.472 -2.6408 -0.9015 -0.4225
  455MPD2    H1 6931   0.324   2.975  15.744 -0.1016 -0.1439 -1.7428
  455MPD2    H2 6932   0.479   2.612  15.894  2.0341  0.3996  0.3939
  455MPD2    H3 6933   0.384   2.818  15.927  1.4702  1.0102 -0.0167
  455MPD2     N 6934   0.393   2.946  15.491 -0.8063  0.1117 -0.0866
  455MPD2    H5 6935   0.325   3.018  15.510 -0.0963  1.3115 -2.1435
  455MPD2    N1 6936   0.553   2.521  15.633  0.3945  0.0949  0.1405
  455MPD2    H7 6937   0.583   2.501  15.538 -0.8248 -0.9393 -0.0159
  456MPD2     C 6938   0.583   2.242  14.957 -0.1361 -0.1980  0.1697
  456MPD2    C1 6939   0.495   2.205  15.058 -0.0701  0.0648  0.1069
  456MPD2    C2 6940   0.363   2.175  15.021  0.6445 -0.0965  0.0817
  456MPD2    C3 6941   0.318   2.223  14.904  0.0031  0.2410 -0.4081
  456MPD2    C4 6942   0.406   2.253  14.800  0.8379 -0.4469 -0.2276
  456MPD2    C5 6943   0.537   2.260  14.829  0.0913 -0.3791 -0.2645
  456MPD2     H 6944   0.290   2.141  15.094 -0.2409 -0.4735 -0.9916
  456MPD2    H1 6945   0.381   2.281  14.699  2.1405  1.3233 -0.0620
  456MPD2    H2 6946   0.688   2.246  14.985 -0.2681  0.9927  0.5259
  456MPD2    H3 6947   0.606   2.296  14.754  1.5251 -1.9261  0.3081
  456MPD2     N 6948   0.179   2.229  14.884  0.4806  0.3790 -0.6559
  456MPD2    H5 6949   0.122   2.206  14.965 -0.3286  1.8531 -0.8086
  456MPD2    N1 6950   0.540   2.201  15.194 -0.1597 -0.4171  0.0315
  456MPD2    H7 6951   0.640   2.218  15.200 -0.4349  1.1592  0.2420
  457MPD2     C 6952   2.015   1.833  12.951  0.5635  0.3016  0.0281
  457MPD2    C1 6953   1.894   1.781  12.976 -0.4364 -0.4503  0.1664
  457MPD2    C2 6954   1.869   1.646  12.960  0.5595  0.3868 -0.0623
  457MPD2    C3 6955   1.971   1.568  12.915 -0.6402  0.1801 -1.0257
  457MPD2    C4 6956   2.089   1.624  12.872 -0.0810 -0.4070 -0.3066
  457MPD2    C5 6957   2.110   1.757  12.897  0.1523 -0.6368 -0.5596
  457MPD2     H 6958   1.771   1.604  12.983  1.0026 -0.9722 -0.6315
  457MPD2    H1 6959   2.171   1.566  12.831  2.9361  1.2793  3.3000
  457MPD2    H2 6960   2.046   1.930  12.987 -0.0183  0.4211  0.2073
  457MPD2    H3 6961   2.206   1.800  12.870  0.0874 -1.6504 -2.3895
  457MPD2     N 6962   1.949   1.431  12.900  0.1325 -0.4625  0.0695
  457MPD2    H5 6963   1.855   1.397  12.920 -0.4132 -0.3538 -2.2395
  457MPD2    N1 6964   1.797   1.879  13.021 -0.1872 -0.0978 -0.0045
  457MPD2    H7 6965   1.837   1.973  13.022 -1.0807  0.2889 -0.4857
  458MPD2     C 6966   2.062   0.690  13.596 -0.6569  0.0519 -0.0193
  458MPD2    C1 6967   1.953   0.656  13.527  0.0248 -0.4330 -0.7173
  458MPD2    C2 6968   1.932   0.728  13.414  0.4639 -0.9543  1.2320
  458MPD2    C3 6969   2.016   0.828  13.372  0.1861 -0.0159 -0.1935
  458MPD2    C4 6970   2.135   0.854  13.443  1.1244 -0.0752  1.1849
  458MPD2    C5 6971   2.155   0.782  13.554 -0.5299  0.1552 -1.1160
  458MPD2     H 6972   1.841   0.707  13.358  0.5900 -3.1058  1.8380
  458MPD2    H1 6973   2.194   0.943  13.428 -0.3420  0.5791 -0.6662
  458MPD2    H2 6974   2.077   0.648  13.695  3.8556  0.3121 -0.5939
  458MPD2    H3 6975   2.228   0.807  13.630 -2.5533 -2.4591  1.6900
  458MPD2     N 6976   1.984   0.887  13.244  0.1257  0.5525 -0.0119
  458MPD2    H5 6977   1.908   0.845  13.192  0.3359  3.5176 -2.7695
  458MPD2    N1 6978   1.855   0.564  13.567 -0.1374  0.4390 -0.7228
  458MPD2    H7 6979   1.771   0.565  13.510 -1.3765 -0.1972  1.1117
  459MPD2     C 6980   1.478   0.745  12.945 -0.5571 -0.5299  0.6644
  459MPD2    C1 6981   1.502   0.875  12.980 -0.4719  0.1950 -0.3396
  459MPD2    C2 6982   1.419   0.936  13.073 -0.2241 -0.2063 -0.4546
  459MPD2    C3 6983   1.331   0.864  13.147  0.2194  0.3706 -0.1146
  459MPD2    C4 6984   1.317   0.730  13.118 -0.2133  0.8867 -0.1194
  459MPD2    C5 6985   1.386   0.673  13.017  0.1320  1.4269  0.1707
  459MPD2     H 6986   1.444   1.036  13.104 -1.6318  0.9348 -2.9949
  459MPD2    H1 6987   1.254   0.666  13.179 -1.5313 -0.1345 -2.5542
  459MPD2    H2 6988   1.538   0.690  12.874  0.5921 -0.4070  1.5493
  459MPD2    H3 6989   1.381   0.565  13.008  0.1801  1.6210 -2.3130
  459MPD2     N 6990   1.254   0.926  13.247  0.0553  0.5794  0.4403
  459MPD2    H5 6991   1.208   0.868  13.316  0.8880 -1.2109 -0.5219
  459MPD2    N1 6992   1.627   0.924  12.938 -0.3175  0.3219 -0.3295
  459MPD2    H7 6993   1.701   0.857  12.917 -1.6871 -0.6081 -2.2156
  460MPD2     C 6994   3.684   0.179  10.057  0.4665  0.7356  0.2107
  460MPD2    C1 6995   3.692   0.101   9.941  0.3761 -0.4829 -0.5439
  460MPD2    C2 6996   3.572   0.060   9.890 -0.0437  0.9281 -0.1155
  460MPD2    C3 6997   3.453   0.114   9.935  0.3182  0.0460 -0.2779
  460MPD2    C4 6998   3.446   0.196  10.043  0.2042 -0.0866  0.9563
  460MPD2    C5 6999   3.563   0.217  10.109  0.5278 -0.3321  0.8207
  460MPD2     H 7000   3.580   4.768   9.806 -2.0525 -3.0658  2.9322
  460MPD2    H1 7001   3.356   0.243  10.081  1.5942  2.5906  0.9169
  460MPD2    H2 7002   3.768   0.215  10.117 -0.8179  0.2442  2.3141
  460MPD2    H3 7003   3.562   0.290  10.189  1.2318 -1.0070  1.4473
  460MPD2     N 7004   3.333   0.086   9.870 -0.7918 -0.0608 -0.5128
  460MPD2    H5 7005   3.249   0.132   9.902 -0.4208 -0.0667  0.4517
  460MPD2    N1 7006   3.813   0.057   9.883 -0.3448  0.6223 -0.7965
  460MPD2    H7 7007   3.811   4.754   9.820  2.0037 -0.2853  0.2571
  461MPD2     C 7008   2.762   4.385  10.038  0.3178  0.1305 -0.0859
  461MPD2    C1 7009   2.717   4.513  10.027  0.1820  0.2706 -0.0632
  461MPD2    C2 7010   2.606   4.562  10.107  0.4293  0.1242 -0.0797
  461MPD2    C3 7011   2.565   4.485  10.212  0.1138 -0.7453  0.0516
  461MPD2    C4 7012   2.612   4.356  10.229  0.5123  0.0622 -0.0477
  461MPD2    C5 7013   2.703   4.312  10.138  0.2120 -0.4295 -1.2384
  461MPD2     H 7014   2.568   4.662  10.091  1.3229  0.5482  0.4667
  461MPD2    H1 7015   2.578   4.291  10.308  1.8608 -2.5547 -1.6272
  461MPD2    H2 7016   2.834   4.335   9.975  0.6040  1.5084 -0.8553
  461MPD2    H3 7017   2.741   4.214  10.162  2.5006  0.9312  0.7568
  461MPD2     N 7018   2.478   4.536  10.303  0.5852  1.1927 -0.3542
  461MPD2    H5 7019   2.452   4.478  10.382 -0.9569  0.7807 -1.1530
  461MPD2    N1 7020   2.781   4.608   9.943  0.3900 -0.2617 -0.7083
  461MPD2    H7 7021   2.737   4.697   9.923  2.4725  0.7325 -0.8273
  462MPD2     C 7022   1.998   3.548   8.845  0.0991  0.0748 -0.1319
  462MPD2    C1 7023   2.119   3.572   8.780 -0.4495 -0.7180 -0.4840
  462MPD2    C2 7024   2.107   3.607   8.649 -0.8105 -0.1077  0.2674
  462MPD2    C3 7025   1.985   3.632   8.588  0.5179 -0.2340 -0.4601
  462MPD2    C4 7026   1.871   3.618   8.663  0.6250  0.1466  0.4804
  462MPD2    C5 7027   1.873   3.580   8.795 -0.0080  0.2652  0.0577
  462MPD2     H 7028   2.200   3.631   8.598  0.0029 -1.7482  0.9492
  462MPD2    H1 7029   1.778   3.664   8.629  0.2699  0.6332  2.0992
  462MPD2    H2 7030   1.994   3.521   8.950 -1.7738  0.1937 -0.1878
  462MPD2    H3 7031   1.783   3.565   8.854  1.0089 -1.3710  1.1523
  462MPD2     N 7032   1.987   3.671   8.456  0.1095  0.3778  0.0076
  462MPD2    H5 7033   2.072   3.717   8.424 -0.0623  0.7044  0.0225
  462MPD2    N1 7034   2.244   3.554   8.845  0.0671 -0.2626 -0.0260
  462MPD2    H7 7035   2.248   3.519   8.940  0.6826 -1.7251 -0.5870
  463MPD2     C 7036   3.440   3.446  15.012 -0.2591  0.2883  0.0447
  463MPD2    C1 7037   3.538   3.509  15.083 -0.1753  0.1725  0.0027
  463MPD2    C2 7038   3.500   3.612  15.168  0.3364  0.1381  0.5799
  463MPD2    C3 7039   3.367   3.645  15.187 -0.0232 -0.0673  0.2231
  463MPD2    C4 7040   3.270   3.583  15.116  0.3098 -1.3174 -0.5624
  463MPD2    C5 7041   3.305   3.481  15.033  0.2627  0.1761  0.4120
  463MPD2     H 7042   3.572   3.668  15.226  0.7732  0.6834 -0.4817
  463MPD2    H1 7043   3.168   3.605  15.143  0.2529 -1.5313 -0.6054
  463MPD2    H2 7044   3.458   3.363  14.945  1.3625  1.3568 -0.8496
  463MPD2    H3 7045   3.229   3.441  14.966 -0.7104  0.7626  1.1793
  463MPD2     N 7046   3.339   3.751  15.272  0.0519 -0.1563 -0.0042
  463MPD2    H5 7047   3.416   3.783  15.330  0.6625  2.6826 -2.3575
  463MPD2    N1 7048   3.673   3.478  15.068  0.2904 -0.0618  0.2825
  463MPD2    H7 7049   3.743   3.531  15.119  2.6015 -1.7306 -1.1773
  464MPD2     C 7050   4.518   3.908  15.184 -0.5046  0.6850 -0.2012
  464MPD2    C1 7051   4.399   3.888  15.257 -0.0519  0.5447 -0.2654
  464MPD2    C2 7052   4.314   3.782  15.227  0.8145 -0.1407  0.3194
  464MPD2    C3 7053   4.348   3.692  15.125  0.9302 -0.1952  0.8393
  464MPD2    C4 7054   4.473   3.710  15.054  0.1028 -0.1761  0.1233
  464MPD2    C5 7055   4.556   3.808  15.097 -0.1570 -0.1097 -0.6346
  464MPD2     H 7056   4.213   3.785  15.266  1.9760 -0.5280  3.3439
  464MPD2    H1 7057   4.500   3.630  14.987  0.5083 -0.7673  0.9945
  464MPD2    H2 7058   4.580   3.994  15.205 -2.0304  2.1440 -1.7560
  464MPD2    H3 7059   4.654   3.807  15.050 -0.6197  0.3677 -1.6142
  464MPD2     N 7060   4.270   3.592  15.079  0.3579 -0.5810 -0.3419
  464MPD2    H5 7061   4.308   3.542  15.000 -2.9155 -1.7804 -1.1409
  464MPD2    N1 7062   4.365   3.991  15.354  0.2561  0.5534 -0.3488
  464MPD2    H7 7063   4.430   4.069  15.358  1.1758 -0.2769  0.6281
  465MPD2     C 7064   3.571   4.099  12.444  0.4627  0.0250  0.5689
  465MPD2    C1 7065   3.627   4.120  12.567  0.8128  0.0791 -0.4271
  465MPD2    C2 7066   3.664   4.246  12.604 -0.5656 -0.2961 -0.0941
  465MPD2    C3 7067   3.622   4.353  12.530  0.0584  0.2497 -0.0279
  465MPD2    C4 7068   3.556   4.337  12.410 -0.5221  0.3330 -0.0445
  465MPD2    C5 7069   3.538   4.214  12.373 -0.6183  0.8892  0.1562
  465MPD2     H 7070   3.713   4.248  12.701 -1.7731  0.7660  0.4963
  465MPD2    H1 7071   3.512   4.415  12.349 -3.1245 -1.3438 -0.3178
  465MPD2    H2 7072   3.546   3.997  12.413  1.4768 -0.1793  0.4327
  465MPD2    H3 7073   3.490   4.194  12.278  2.4584  0.4864 -1.3159
  465MPD2     N 7074   3.649   4.475  12.590 -0.7918  0.7260 -0.4100
  465MPD2    H5 7075   3.686   4.466  12.684 -1.9544 -0.3605 -0.0604
  465MPD2    N1 7076   3.656   4.003  12.642  0.4746  0.7951 -0.2848
  465MPD2    H7 7077   3.603   3.918  12.629  1.3961  0.4728 -1.9468
  466MPD2     C 7078   0.079   3.686  10.894 -0.1755  0.1572 -0.7521
  466MPD2    C1 7079   0.045   3.556  10.918 -0.1023  0.0227  0.5418
  466MPD2    C2 7080   0.066   3.491  11.036  0.3745 -0.2980 -1.3600
  466MPD2    C3 7081   0.127   3.556  11.139  0.4072  0.5207 -0.7463
  466MPD2    C4 7082   0.170   3.685  11.116 -0.0370  0.4701  0.5902
  466MPD2    C5 7083   0.140   3.748  11.000 -0.8632 -0.6137  0.2863
  466MPD2     H 7084   0.059   3.383  11.045 -1.0569 -0.0849  0.0863
  466MPD2    H1 7085   0.228   3.739  11.190  0.4708  0.6484  0.0667
  466MPD2    H2 7086   0.060   3.735  10.800 -1.3321  1.1078 -0.0238
  466MPD2    H3 7087   0.178   3.850  10.994 -1.2271 -0.5221 -0.4759
  466MPD2     N 7088   0.164   3.492  11.261  0.2260 -0.7084  0.4090
  466MPD2    H5 7089   0.210   3.560  11.321  1.2327 -0.1646 -0.9604
  466MPD2    N1 7090   4.757   3.485  10.811 -0.4838 -0.0437 -0.3958
  466MPD2    H7 7091   4.714   3.398  10.839  0.0846  0.3738  1.7999
  467MPD2     C 7092   4.725   2.643  10.697 -0.4256 -0.5385 -0.0774
  467MPD2    C1 7093   4.682   2.691  10.571 -0.0228  0.2767 -0.1931
  467MPD2    C2 7094   4.652   2.821  10.547  0.7498  0.1043 -1.0292
  467MPD2    C3 7095   4.672   2.916  10.647 -0.4961  0.6413  0.4641
  467MPD2    C4 7096   4.729   2.879  10.766 -0.0955 -0.8008  0.6336
  467MPD2    C5 7097   4.748   2.743  10.792  0.4116  0.3412 -0.2282
  467MPD2     H 7098   4.598   2.839  10.455 -0.2662 -0.9127 -0.6263
  467MPD2    H1 7099   4.743   2.955  10.842  0.2319 -0.0300 -0.1988
  467MPD2    H2 7100   4.760   2.542  10.718 -0.3104 -0.9314 -2.1191
  467MPD2    H3 7101   0.026   2.709  10.880 -0.1809  1.1846  0.4541
  467MPD2     N 7102   4.647   3.054  10.626  0.0927  0.5381 -0.1004
  467MPD2    H5 7103   4.687   3.123  10.689  0.2992 -0.5450  0.9599
  467MPD2    N1 7104   4.675   2.594  10.464  0.1603 -0.4948 -0.0174
  467MPD2    H7 7105   4.634   2.631  10.379 -0.1652  0.5847  0.6135
  468MPD2     C 7106   4.707   2.445   7.783  0.1000 -0.7622 -0.9494
  468MPD2    C1 7107   4.709   2.518   7.666 -0.7915 -0.3932  0.5421
  468MPD2    C2 7108   0.005   2.474   7.560 -0.2645  0.0908 -0.2276
  468MPD2    C3 7109   0.066   2.351   7.565 -0.3025 -0.3522 -0.4191
  468MPD2    C4 7110   0.066   2.279   7.680 -0.2756  0.3905 -0.0735
  468MPD2    C5 7111   4.771   2.324   7.791 -0.3949 -0.6701 -0.0009
  468MPD2     H 7112   0.021   2.540   7.476  1.4205  0.4778  0.4196
  468MPD2    H1 7113   0.120   2.185   7.686 -0.3478  0.3158 -0.6942
  468MPD2    H2 7114   4.660   2.480   7.875  0.6483  0.1001 -0.9988
  468MPD2    H3 7115   4.763   2.271   7.885  0.8332 -2.2879 -0.8017
  468MPD2     N 7116   0.133   2.306   7.447  0.1768 -0.4404  0.1396
  468MPD2    H5 7117   0.156   2.376   7.376  2.6447 -0.2689  1.1112
  468MPD2    N1 7118   4.635   2.638   7.667  0.6976 -0.1448  0.3979
  468MPD2    H7 7119   4.593   2.661   7.756  0.9781 -0.2109  0.5493
  469MPD2     C 7120   0.777   2.315   7.703 -0.0891 -0.1144  0.3253
  469MPD2    C1 7121   0.762   2.201   7.625  0.1924 -0.1439  0.3489
  469MPD2    C2 7122   0.802   2.077   7.677  0.0359  0.3614  0.0540
  469MPD2    C3 7123   0.838   2.061   7.808 -0.1615  0.5139 -0.0073
  469MPD2    C4 7124   0.853   2.175   7.883  0.0656 -0.2837 -0.4727
  469MPD2    C5 7125   0.822   2.299   7.834 -0.4923  0.6063  0.4042
  469MPD2     H 7126   0.802   1.984   7.621  1.6292 -0.0520  0.7302
  469MPD2    H1 7127   0.898   2.176   7.982 -1.8516  0.0216  0.3918
  469MPD2    H2 7128   0.746   2.415   7.676  2.2924  1.2956  2.8026
  469MPD2    H3 7129   0.831   2.393   7.888  0.8758 -0.0420  1.2846
  469MPD2     N 7130   0.874   1.933   7.860 -0.6082  0.4520 -0.2483
  469MPD2    H5 7131   0.887   1.861   7.789  0.4369 -0.4851  0.9020
  469MPD2    N1 7132   0.696   2.216   7.498 -0.2432 -0.7819  0.8366
  469MPD2    H7 7133   0.686   2.315   7.476  1.3988 -1.1554 -1.5054
  470MPD2     C 7134   4.061   4.313  12.389  1.6056  0.2796  0.2426
  470MPD2    C1 7135   4.122   4.316  12.262 -0.5780  0.4841 -0.5090
  470MPD2    C2 7136   4.171   4.196  12.214 -0.0063  0.2821 -0.0314
  470MPD2    C3 7137   4.155   4.084  12.289 -0.1604 -0.7063 -0.4275
  470MPD2    C4 7138   4.097   4.090  12.412 -0.0377  0.5489 -0.2819
  470MPD2    C5 7139   4.043   4.204  12.464 -0.2765 -0.3048 -0.1318
  470MPD2     H 7140   4.223   4.200  12.119  0.9294 -1.3544  0.4128
  470MPD2    H1 7141   4.084   4.001  12.472  0.8818  0.5691 -0.0612
  470MPD2    H2 7142   4.035   4.411  12.426  0.8489 -0.0215  0.5170
  470MPD2    H3 7143   3.987   4.206  12.556 -1.9733  0.9535 -1.1916
  470MPD2     N 7144   4.211   3.974  12.231  0.2867  0.1430  0.4434
  470MPD2    H5 7145   4.230   3.976  12.131 -0.8523  0.6273  0.2318
  470MPD2    N1 7146   4.142   4.445  12.208 -0.0252 -0.4351 -0.0632
  470MPD2    H7 7147   4.111   4.525  12.262  1.3679  1.1064 -1.5129
  471MPD2     C 7148   3.636   0.016  11.836  0.2098  0.2127 -0.5453
  471MPD2    C1 7149   3.758   0.044  11.769  0.8704 -0.3790 -0.2524
  471MPD2    C2 7150   3.756   0.072  11.633  0.5809 -0.0744 -0.5949
  471MPD2    C3 7151   3.639   0.094  11.565  0.1468 -0.3838 -0.8073
  471MPD2    C4 7152   3.523   0.074  11.633 -0.0390 -0.9505 -0.2041
  471MPD2    C5 7153   3.524   0.029  11.761 -0.0012  0.8217  0.3550
  471MPD2     H 7154   3.855   0.084  11.590  0.6331  0.9245 -0.1806
  471MPD2    H1 7155   3.427   0.093  11.585 -0.2335  0.1054  0.5867
  471MPD2    H2 7156   3.628   0.013  11.944  0.2575  1.2909 -0.5078
  471MPD2    H3 7157   3.431   0.015  11.817  0.5455  1.6117  1.4563
  471MPD2     N 7158   3.630   0.142  11.436  0.0501  0.5569 -0.4115
  471MPD2    H5 7159   3.541   0.177  11.403  1.0777  0.8116 -2.8790
  471MPD2    N1 7160   3.886   0.052  11.830 -0.2029  0.3583  0.3936
  471MPD2    H7 7161   3.966   0.074  11.772  0.8036 -1.4365  1.1191
  472MPD2     C 7162   1.207   3.149   9.931 -0.5357 -0.3291 -0.5344
  472MPD2    C1 7163   1.097   3.227   9.892 -0.1322 -0.2006  0.2541
  472MPD2    C2 7164   1.086   3.358   9.931 -0.0727 -0.7507 -0.3474
  472MPD2    C3 7165   1.186   3.415  10.013  0.3813 -0.2345 -0.7764
  472MPD2    C4 7166   1.294   3.337  10.047  0.6057 -0.3386 -0.2698
  472MPD2    C5 7167   1.304   3.206  10.014  0.0737  0.1772  0.4523
  472MPD2     H 7168   0.995   3.404   9.896 -0.0207 -0.6456 -0.3439
  472MPD2    H1 7169   1.373   3.387  10.101 -0.4314  0.4467  0.5215
  472MPD2    H2 7170   1.222   3.048   9.896  0.7678  0.2482 -1.6081
  472MPD2    H3 7171   1.387   3.148  10.053 -1.3535 -1.9306  0.3661
  472MPD2     N 7172   1.165   3.553  10.059  0.0316  0.1668 -0.5139
  472MPD2    H5 7173   1.231   3.591  10.126 -3.0334  3.0817  0.8484
  472MPD2    N1 7174   0.994   3.171   9.812 -0.8908 -0.0134  0.4853
  472MPD2    H7 7175   0.912   3.231   9.807 -2.1647 -1.9735 -2.0874
  473MPD2     C 7176   1.329   4.130  10.620  0.0660 -0.6605  0.0833
  473MPD2    C1 7177   1.254   4.015  10.609 -0.3655 -0.1932 -0.4012
  473MPD2    C2 7178   1.211   3.948  10.722 -0.0064  0.4242 -0.1798
  473MPD2    C3 7179   1.255   3.992  10.843  0.0160  0.2447  0.4612
  473MPD2    C4 7180   1.332   4.104  10.852 -0.2930  0.4026  0.3835
  473MPD2    C5 7181   1.370   4.177  10.741 -0.0717  0.7125 -0.3614
  473MPD2     H 7182   1.152   3.857  10.730 -0.6024  0.7703 -0.6612
  473MPD2    H1 7183   1.366   4.148  10.946  0.1695  0.6420  0.1040
  473MPD2    H2 7184   1.360   4.187  10.534 -0.7682 -0.3667 -0.0244
  473MPD2    H3 7185   1.426   4.269  10.755  3.4791 -1.5018  0.0916
  473MPD2     N 7186   1.228   3.932  10.965 -1.1763  0.0113 -0.2384
  473MPD2    H5 7187   1.262   3.988  11.043  0.5557 -1.5668  0.1468
  473MPD2    N1 7188   1.219   3.983  10.482  0.3295  0.3373 -0.2229
  473MPD2    H7 7189   1.255   4.046  10.411  0.7715  0.7961  0.4145
  474MPD2     C 7190   0.164   2.413  15.683 -0.0066  0.4741  0.6577
  474MPD2    C1 7191   0.092   2.333  15.597  0.6612  0.4716  0.5580
  474MPD2    C2 7192   4.764   2.387  15.532  0.3953  0.0365 -0.5754
  474MPD2    C3 7193   4.742   2.524  15.546  0.1583  0.3589  0.0844
  474MPD2    C4 7194   0.047   2.605  15.626 -0.6395  0.3795 -0.6265
  474MPD2    C5 7195   0.148   2.547  15.691  0.2120 -0.1091  0.2248
  474MPD2     H 7196   4.700   2.328  15.468 -0.2753  2.6879 -2.3747
  474MPD2    H1 7197   0.037   2.712  15.641  1.2742  0.5054 -0.2417
  474MPD2    H2 7198   0.247   2.382  15.746  0.6134  0.8870  0.0533
  474MPD2    H3 7199   0.209   2.608  15.756 -1.8353  1.9914  0.1841
  474MPD2     N 7200   4.643   2.582  15.467 -0.1645  0.0374  0.3260
  474MPD2    H5 7201   4.657   2.680  15.442  0.0315 -0.3316 -1.0245
  474MPD2    N1 7202   0.121   2.196  15.592 -0.3708  0.6705  0.2528
  474MPD2    H7 7203   0.201   2.164  15.645 -0.1160 -0.0285 -0.5616
  475MPD2     C 7204   4.291   0.249   9.490 -0.5054  0.8571 -0.6181
  475MPD2    C1 7205   4.168   0.189   9.474 -0.0391 -0.5769 -0.1403
  475MPD2    C2 7206   4.049   0.266   9.492 -0.1853 -0.5604  0.1520
  475MPD2    C3 7207   4.062   0.401   9.531  0.2077 -0.1059  0.2257
  475MPD2    C4 7208   4.186   0.447   9.579  0.1972 -0.1123  0.1942
  475MPD2    C5 7209   4.297   0.378   9.550 -0.8658  0.4804 -0.4829
  475MPD2     H 7210   3.951   0.227   9.467  0.4830 -0.1640 -3.1748
  475MPD2    H1 7211   4.194   0.545   9.625  0.9650 -0.2496  0.3564
  475MPD2    H2 7212   4.380   0.187   9.482 -0.7402  0.7413 -2.2863
  475MPD2    H3 7213   4.391   0.428   9.573 -1.4846  1.5776 -0.3269
  475MPD2     N 7214   3.944   0.474   9.526 -0.2554 -0.6407  0.6257
  475MPD2    H5 7215   3.855   0.432   9.501  0.5722 -1.6982 -0.5590
  475MPD2    N1 7216   4.165   0.065   9.424 -0.2152  0.1089  1.0439
  475MPD2    H7 7217   4.248   0.008   9.433  0.5203  0.1630 -4.9780
  476MPD2     C 7218   4.057   4.024   9.603 -0.7224 -0.2478  0.1012
  476MPD2    C1 7219   4.128   4.137   9.615  0.6569 -0.8813 -0.2251
  476MPD2    C2 7220   4.194   4.154   9.740 -0.2039  0.4924 -0.2453
  476MPD2    C3 7221   4.178   4.072   9.851 -0.2686  0.3170 -0.5682
  476MPD2    C4 7222   4.107   3.958   9.829  0.1992  0.2044 -0.5191
  476MPD2    C5 7223   4.049   3.932   9.707 -1.1160 -0.8218  0.0134
  476MPD2     H 7224   4.259   4.239   9.755  0.1742  0.5222 -2.0339
  476MPD2    H1 7225   4.088   3.874   9.896 -3.9219 -0.1063 -2.0381
  476MPD2    H2 7226   3.992   4.004   9.518 -1.8296  1.9646  0.4182
  476MPD2    H3 7227   4.003   3.836   9.687 -3.1313  0.2807 -0.5385
  476MPD2     N 7228   4.251   4.093   9.968  1.2449 -0.7566 -0.3151
  476MPD2    H5 7229   4.327   4.160   9.970  1.1586 -0.6845  0.8540
  476MPD2    N1 7230   4.139   4.224   9.504  0.0319  0.3460 -0.3268
  476MPD2    H7 7231   4.095   4.183   9.422 -0.1338  0.3003 -0.2159
  477MPD2     C 7232   4.225   1.446  12.469  0.2336  0.1336 -0.0967
  477MPD2    C1 7233   4.184   1.576  12.457  0.2737 -0.2010  0.2049
  477MPD2    C2 7234   4.155   1.659  12.567  0.2461  0.4725  0.2196
  477MPD2    C3 7235   4.165   1.600  12.690  0.9671 -0.2430  0.0069
  477MPD2    C4 7236   4.212   1.466  12.704 -0.0790 -0.1162 -0.5636
  477MPD2    C5 7237   4.243   1.395  12.597  0.0841 -0.1340 -0.1842
  477MPD2     H 7238   4.129   1.763  12.551  3.1339  1.3475  1.1572
  477MPD2    H1 7239   4.229   1.414  12.798  1.1585  1.1436 -0.0892
  477MPD2    H2 7240   4.246   1.383  12.383 -0.8626 -0.6319  0.2022
  477MPD2    H3 7241   4.284   1.295  12.610  1.4903  0.4970  0.2112
  477MPD2     N 7242   4.146   1.681  12.808 -0.4626  0.0456 -0.1657
  477MPD2    H5 7243   4.111   1.775  12.793 -1.5050 -0.1736  0.9113
  477MPD2    N1 7244   4.170   1.639  12.330  0.2496  0.1490 -0.4226
  477MPD2    H7 7245   4.166   1.741  12.330  1.0437  0.1800 -0.3733
  478MPD2     C 7246   4.483   4.525  13.073  0.3672  0.3924  0.4121
  478MPD2    C1 7247   4.485   4.503  13.205 -0.3542  0.0298 -0.2580
  478MPD2    C2 7248   4.586   4.435  13.264  0.7655 -0.1819 -0.5801
  478MPD2    C3 7249   4.694   4.392  13.190 -0.9202  0.1846  0.3445
  478MPD2    C4 7250   4.685   4.399  13.055  0.4384  0.2630 -0.0409
  478MPD2    C5 7251   4.586   4.469  12.995  0.8180 -0.5174  0.0859
  478MPD2     H 7252   4.584   4.407  13.368  0.3371  1.2136 -0.2074
  478MPD2    H1 7253   4.770   4.368  12.996  1.6276  0.1219  1.7332
  478MPD2    H2 7254   4.404   4.581  13.022 -0.6011 -0.3765  1.0683
  478MPD2    H3 7255   4.584   4.469  12.886  2.3274  0.7146  0.0643
  478MPD2     N 7256   0.028   4.327  13.251  0.2034 -0.3701 -0.4224
  478MPD2    H5 7257   0.083   4.274  13.184  1.4996  0.8398 -0.3310
  478MPD2    N1 7258   4.399   4.565  13.296  0.3374  0.3525 -0.0457
  478MPD2    H7 7259   4.396   4.542  13.395 -0.1864 -0.1475 -0.1748
  479MPD2     C 7260   0.219   0.284  13.460 -0.2989 -1.0419 -0.6103
  479MPD2    C1 7261   0.147   0.235  13.570 -0.5436  0.5192  0.8898
  479MPD2    C2 7262   0.130   0.314  13.681 -0.8078 -0.1608 -0.3677
  479MPD2    C3 7263   0.157   0.449  13.674 -0.5567 -0.1287 -1.4363
  479MPD2    C4 7264   0.230   0.501  13.567 -1.0314 -1.6079  0.0728
  479MPD2    C5 7265   0.262   0.417  13.463  0.2813 -0.3210 -0.1435
  479MPD2     H 7266   0.075   0.280  13.768  0.2805  1.2957  0.9045
  479MPD2    H1 7267   0.249   0.608  13.560 -0.0715 -1.8929 -1.6702
  479MPD2    H2 7268   0.252   0.219  13.380 -1.6809 -0.3448 -1.7358
  479MPD2    H3 7269   0.318   0.445  13.375 -0.2290  1.0394 -0.0262
  479MPD2     N 7270   0.142   0.536  13.788  0.3900 -0.4795 -0.0308
  479MPD2    H5 7271   0.175   0.630  13.772  0.4863 -0.8673 -2.1673
  479MPD2    N1 7272   0.109   0.105  13.578 -0.1080 -0.3366 -0.3423
  479MPD2    H7 7273   0.068   0.079  13.667  2.8847  2.0927  1.7561
  480MPD2     C 7274   0.720   1.125   7.932  0.0791  1.0511 -0.7235
  480MPD2    C1 7275   0.611   1.055   7.905 -0.2438  0.7145  0.1917
  480MPD2    C2 7276   0.520   1.030   8.012 -0.4369 -0.5686 -0.2192
  480MPD2    C3 7277   0.548   1.073   8.141 -0.7506  0.7476 -0.6160
  480MPD2    C4 7278   0.660   1.146   8.164  0.3102 -0.0316  0.3298
  480MPD2    C5 7279   0.741   1.167   8.058  0.0272  0.0170 -0.4836
  480MPD2     H 7280   0.440   0.959   7.993  0.1197 -1.7841  2.0202
  480MPD2    H1 7281   0.693   1.176   8.263 -1.5992 -1.7231  1.4790
  480MPD2    H2 7282   0.801   1.145   7.863 -0.1380 -0.9528 -1.5516
  480MPD2    H3 7283   0.833   1.222   8.073  1.1226 -2.5777  2.1784
  480MPD2     N 7284   0.472   1.026   8.249 -0.5772  0.1577 -0.0079
  480MPD2    H5 7285   0.515   1.038   8.340  0.5972 -1.9568 -0.2874
  480MPD2    N1 7286   0.593   1.006   7.769 -0.1420 -0.0672 -0.2703
  480MPD2    H7 7287   0.667   1.031   7.704  0.8286  0.0431  0.8805
  481MPD2     C 7288   0.685   2.387  14.164  0.6667 -0.1989 -0.4424
  481MPD2    C1 7289   0.565   2.319  14.169  0.2083  0.8985  0.2364
  481MPD2    C2 7290   0.535   2.237  14.284  0.1060 -0.2838  0.2671
  481MPD2    C3 7291   0.631   2.217  14.380  0.0711 -0.4319 -0.5004
  481MPD2    C4 7292   0.749   2.286  14.375 -0.3291 -0.2555 -0.0983
  481MPD2    C5 7293   0.774   2.363  14.264  0.3353 -0.9231 -0.4637
  481MPD2     H 7294   0.435   2.194  14.282 -0.4643  1.0378  0.0406
  481MPD2    H1 7295   0.821   2.267  14.454 -1.7193 -2.6201  0.5917
  481MPD2    H2 7296   0.723   2.437  14.075 -0.2196  0.9566 -0.1750
  481MPD2    H3 7297   0.873   2.406  14.250  1.5484 -2.9114  2.0045
  481MPD2     N 7298   0.623   2.124  14.485 -0.0482  1.0170 -0.4716
  481MPD2    H5 7299   0.693   2.130  14.559  0.6084  0.9183 -1.0909
  481MPD2    N1 7300   0.468   2.337  14.076 -0.1278 -0.0383  0.6447
  481MPD2    H7 7301   0.376   2.302  14.100  0.2586 -1.0072  0.7225
  482MPD2     C 7302   4.573   2.548  14.047  0.0804 -0.2799 -0.7400
  482MPD2    C1 7303   4.659   2.448  14.072 -0.5824  1.0031  0.1404
  482MPD2    C2 7304   4.652   2.381  14.190  1.0945  0.2216 -0.7242
  482MPD2    C3 7305   4.569   2.425  14.292 -0.5377 -0.8388  0.0975
  482MPD2    C4 7306   4.481   2.524  14.265 -1.0173 -0.1900 -0.1464
  482MPD2    C5 7307   4.479   2.584  14.139 -0.0214 -0.3748 -0.3905
  482MPD2     H 7308   4.727   2.304  14.210 -0.7817 -1.3222  0.3672
  482MPD2    H1 7309   4.401   2.547  14.333  1.7156  0.1527  2.9573
  482MPD2    H2 7310   4.570   2.593  13.949 -1.3618  0.3995 -0.3924
  482MPD2    H3 7311   4.402   2.656  14.113  1.3332  1.2576  0.1125
  482MPD2     N 7312   4.581   2.366  14.421  0.3608 -0.5806 -0.1469
  482MPD2    H5 7313   4.659   2.301  14.422 -0.0575 -1.1039 -1.7437
  482MPD2    N1 7314   4.761   2.407  13.979  0.0097  0.4030 -0.1301
  482MPD2    H7 7315   0.054   2.340  14.012  0.0361  1.2018  1.4308
  483MPD2     C 7316   0.372   2.695  13.068  1.1408 -0.0455  0.1551
  483MPD2    C1 7317   0.429   2.573  13.103 -0.8902 -0.2530 -0.3805
  483MPD2    C2 7318   0.413   2.523  13.230  0.8267  0.4743 -0.4347
  483MPD2    C3 7319   0.308   2.567  13.310 -0.3916 -0.0121  0.0499
  483MPD2    C4 7320   0.243   2.686  13.270 -0.3859  0.0446 -0.6514
  483MPD2    C5 7321   0.270   2.743  13.153 -0.1885 -0.1536 -0.7177
  483MPD2     H 7322   0.473   2.437  13.257 -1.4283 -0.4961  1.5090
  483MPD2    H1 7323   0.174   2.742  13.332 -0.4053  1.0187 -1.5408
  483MPD2    H2 7324   0.394   2.747  12.975  0.6550  0.8917  0.5585
  483MPD2    H3 7325   0.227   2.837  13.120 -2.1264 -0.6079  0.5410
  483MPD2     N 7326   0.269   2.509  13.431 -0.1935  0.9478  0.0362
  483MPD2    H5 7327   0.191   2.558  13.474 -0.5624 -1.0372  1.6315
  483MPD2    N1 7328   0.526   2.523  13.015 -0.5051  0.1438  0.0700
  483MPD2    H7 7329   0.542   2.585  12.937 -0.5537  0.2521  0.1468
  484MPD2     C 7330   3.455   0.259  10.609  0.1308 -0.2840 -0.7558
  484MPD2    C1 7331   3.454   0.182  10.725  0.4045 -0.0167 -0.1110
  484MPD2    C2 7332   3.399   0.055  10.720 -0.2086  0.0723 -0.0754
  484MPD2    C3 7333   3.354   0.004  10.598  0.7286  0.0614 -0.2761
  484MPD2    C4 7334   3.375   0.072  10.478  0.1459 -0.1674  1.1960
  484MPD2    C5 7335   3.428   0.194  10.491  0.2977 -0.0637  0.2331
  484MPD2     H 7336   3.392   4.765  10.805  0.4767  1.9004  1.3906
  484MPD2    H1 7337   3.328   0.027  10.390 -2.8949 -1.8888  3.7150
  484MPD2    H2 7338   3.491   0.361  10.611  0.7492 -0.5081 -0.4108
  484MPD2    H3 7339   3.455   0.249  10.401 -0.1656 -0.2030  0.0112
  484MPD2     N 7340   3.292   4.658  10.606 -0.1339  0.1053  0.2878
  484MPD2    H5 7341   3.265   4.619  10.696  1.7580  0.9462  1.2124
  484MPD2    N1 7342   3.515   0.242  10.828 -0.4835  0.4273 -0.2745
  484MPD2    H7 7343   3.528   0.343  10.824 -0.6076  0.4628  0.2030
  485MPD2     C 7344   1.554   0.246  11.891  0.3500  0.2318 -0.2471
  485MPD2    C1 7345   1.565   0.200  11.758 -0.5260  0.4211  0.5450
  485MPD2    C2 7346   1.449   0.195  11.680  0.6362  0.0322  0.9392
  485MPD2    C3 7347   1.324   0.211  11.733  0.2380 -0.2993  0.2966
  485MPD2    C4 7348   1.317   0.260  11.862  0.2080 -0.7331 -0.2123
  485MPD2    C5 7349   1.433   0.278  11.940 -0.1647  0.4440  0.6724
  485MPD2     H 7350   1.463   0.147  11.584  1.4601 -0.5242  1.3415
  485MPD2    H1 7351   1.222   0.294  11.901 -0.2809 -2.9692  0.5296
  485MPD2    H2 7352   1.635   0.253  11.963 -0.8611  1.1843  1.0179
  485MPD2    H3 7353   1.413   0.305  12.043  0.6191  0.2496  0.8773
  485MPD2     N 7354   1.203   0.185  11.662  0.3788 -0.4828  0.2945
  485MPD2    H5 7355   1.116   0.212  11.706  0.6360 -0.6620  0.9051
  485MPD2    N1 7356   1.694   0.163  11.722  0.4766 -0.2070  0.2368
  485MPD2    H7 7357   1.768   0.174  11.790  1.5923 -0.1242 -1.0050
  486MPD2     C 7358   1.776   4.486  11.650 -0.7877 -0.3128 -0.0865
  486MPD2    C1 7359   1.685   4.562  11.730  0.0020 -0.2911 -0.5005
  486MPD2    C2 7360   1.726   4.606  11.852  0.3125  0.0224  0.3596
  486MPD2    C3 7361   1.854   4.577  11.902 -0.7566 -0.3658  0.7330
  486MPD2    C4 7362   1.939   4.501  11.825  0.8053  0.3777  0.0771
  486MPD2    C5 7363   1.898   4.455  11.701  0.4379  0.5765 -0.8814
  486MPD2     H 7364   1.660   4.669  11.911  2.6919  1.5871  1.3585
  486MPD2    H1 7365   2.036   4.476  11.865  1.1250 -0.5229 -1.2515
  486MPD2    H2 7366   1.761   4.456  11.547  1.3633  1.5236 -0.9277
  486MPD2    H3 7367   1.965   4.398  11.638 -0.9597 -0.8930 -1.0574
  486MPD2     N 7368   1.879   4.626  12.030 -0.2182 -0.0405 -0.3452
  486MPD2    H5 7369   1.810   4.679  12.083  2.6625  2.7314  0.7230
  486MPD2    N1 7370   1.556   4.605  11.685 -0.0331  0.1047 -0.0347
  486MPD2    H7 7371   1.500   4.666  11.744 -0.2328 -0.4208  0.3185
  487MPD2     C 7372   3.382   2.089   6.771 -0.1645 -0.8376  0.2038
  487MPD2    C1 7373   3.394   2.187   6.676 -0.3031 -0.3960  0.7974
  487MPD2    C2 7374   3.518   2.201   6.608 -0.2822  0.6450 -0.4716
  487MPD2    C3 7375   3.611   2.098   6.611  0.2296  0.3843 -0.4795
  487MPD2    C4 7376   3.588   1.987   6.698  0.1755 -0.4850 -0.0658
  487MPD2    C5 7377   3.471   1.983   6.768 -0.8527 -0.1367 -0.6176
  487MPD2     H 7378   3.536   2.277   6.533  0.3258 -0.4357 -1.4187
  487MPD2    H1 7379   3.661   1.916   6.734 -0.0292 -0.2866  0.7247
  487MPD2    H2 7380   3.293   2.068   6.829 -0.8272 -2.4707 -1.3821
  487MPD2    H3 7381   3.464   1.902   6.839  1.2288  0.8294  0.7074
  487MPD2     N 7382   3.714   2.097   6.519 -0.7938 -0.4332 -0.7905
  487MPD2    H5 7383   3.697   2.146   6.431  0.0756  0.8173 -0.2714
  487MPD2    N1 7384   3.278   2.267   6.657  0.5027 -0.1038 -0.6217
  487MPD2    H7 7385   3.202   2.249   6.722 -2.3396  0.2652 -3.8872
  488MPD2     C 7386   4.550   1.873   6.163  0.1530  0.0510  0.4452
  488MPD2    C1 7387   4.463   1.858   6.273 -0.3145  0.5401  0.1283
  488MPD2    C2 7388   4.516   1.873   6.402 -1.4614  0.3588  0.5440
  488MPD2    C3 7389   4.652   1.912   6.416  0.3877  0.2604  0.2725
  488MPD2    C4 7390   4.736   1.925   6.307 -0.4637 -0.0443 -0.3519
  488MPD2    C5 7391   4.681   1.905   6.182 -0.6048 -0.7578 -0.8406
  488MPD2     H 7392   4.450   1.855   6.485 -1.4142 -1.3019  0.2104
  488MPD2    H1 7393   0.063   1.950   6.327  0.3751 -1.5852 -2.8039
  488MPD2    H2 7394   4.518   1.860   6.060  0.2053  1.6302  0.2315
  488MPD2    H3 7395   4.743   1.928   6.096  0.6023  1.5160  0.6077
  488MPD2     N 7396   4.710   1.931   6.546  0.5458 -0.0542  0.2056
  488MPD2    H5 7397   0.029   1.966   6.551 -0.0184  1.1606  2.5628
  488MPD2    N1 7398   4.324   1.854   6.252  0.2540 -0.8315 -0.0851
  488MPD2    H7 7399   4.301   1.862   6.154  0.4621  0.2935 -0.0450
  489MPD2     C 7400   3.348   0.708  11.557 -0.0564 -0.1021 -0.1972
  489MPD2    C1 7401   3.327   0.841  11.598 -0.3004  0.0198 -0.9304
  489MPD2    C2 7402   3.204   0.901  11.594  0.3634 -0.3728  0.9721
  489MPD2    C3 7403   3.092   0.831  11.541  0.1853 -0.5241  0.1827
  489MPD2    C4 7404   3.118   0.703  11.498 -0.2685 -0.3191 -0.5458
  489MPD2    C5 7405   3.239   0.639  11.511 -0.3493  0.0570 -0.5023
  489MPD2     H 7406   3.203   0.998  11.641 -1.6826 -0.3211  0.8229
  489MPD2    H1 7407   3.039   0.640  11.458  0.1595 -0.6849 -0.8112
  489MPD2    H2 7408   3.442   0.655  11.551 -0.1063  0.1790 -3.1635
  489MPD2    H3 7409   3.235   0.535  11.482  2.7808 -0.3712  0.6700
  489MPD2     N 7410   2.962   0.890  11.531  0.1587 -0.9116  0.1197
  489MPD2    H5 7411   2.952   0.979  11.578  1.4470 -0.4823 -0.4119
  489MPD2    N1 7412   3.434   0.920  11.646 -1.3895 -0.0246 -0.4310
  489MPD2    H7 7413   3.408   1.014  11.677 -1.6081 -0.6944  1.4638
  490MPD2     C 7414   1.117   1.201  14.082 -0.5388  0.2755 -0.3597
  490MPD2    C1 7415   1.122   1.063  14.067 -0.1579 -0.7663 -0.5924
  490MPD2    C2 7416   1.065   1.008  13.957 -0.0403 -0.6109 -0.0017
  490MPD2    C3 7417   1.011   1.091  13.857  1.5701 -0.6664  0.0540
  490MPD2    C4 7418   1.023   1.227  13.865  0.3819  0.2545 -0.4853
  490MPD2    C5 7419   1.063   1.281  13.983 -0.5555 -0.1312  0.2246
  490MPD2     H 7420   1.067   0.900  13.943  0.6680 -0.5547 -0.3482
  490MPD2    H1 7421   0.978   1.291  13.790  2.9310  1.8381 -0.6421
  490MPD2    H2 7422   1.151   1.245  14.175 -0.3412 -1.4429  0.3738
  490MPD2    H3 7423   1.065   1.388  13.994 -0.9277 -0.1726  0.7430
  490MPD2     N 7424   0.963   1.017  13.746 -0.1257 -0.2574  0.0564
  490MPD2    H5 7425   0.982   0.918  13.738 -0.1841 -0.2807  0.2028
  490MPD2    N1 7426   1.181   0.982  14.168  0.0284  0.0257  0.0232
  490MPD2    H7 7427   1.211   1.034  14.250  0.1067 -1.5679  1.0070
  491MPD2     C 7428   0.790   1.335  12.802 -0.1903 -0.7673 -0.2108
  491MPD2    C1 7429   0.734   1.385  12.922  0.2979 -0.5455  0.0318
  491MPD2    C2 7430   0.746   1.309  13.037 -0.1625  0.1220 -0.3829
  491MPD2    C3 7431   0.826   1.197  13.042  0.6706  0.2051 -0.6385
  491MPD2    C4 7432   0.892   1.157  12.928 -0.0429 -0.0129  0.0140
  491MPD2    C5 7433   0.870   1.226  12.808 -0.9681  0.1139  0.5791
  491MPD2     H 7434   0.701   1.344  13.129 -2.6265  1.0158 -1.9042
  491MPD2    H1 7435   0.968   1.080  12.926 -0.5461 -0.4708 -2.1274
  491MPD2    H2 7436   0.776   1.385  12.707  0.3044  0.3715  0.3181
  491MPD2    H3 7437   0.915   1.193  12.715 -0.7477  3.0319 -0.3624
  491MPD2     N 7438   0.815   1.112  13.154 -0.0460  0.6017  0.3648
  491MPD2    H5 7439   0.737   1.122  13.218 -0.1029 -1.1616  0.5911
  491MPD2    N1 7440   0.655   1.499  12.921  0.2413  0.1697 -0.3271
  491MPD2    H7 7441   0.615   1.522  13.012  0.2982  0.3107 -0.3379
  492MPD2     C 7442   2.761   4.692  12.164 -0.1480 -0.1985  0.0461
  492MPD2    C1 7443   2.881   4.672  12.098  0.2465  0.9578  0.0604
  492MPD2    C2 7444   2.897   4.707  11.969 -0.1773  0.2764  0.5050
  492MPD2    C3 7445   2.786   4.752  11.904  0.4869 -0.0023 -0.0008
  492MPD2    C4 7446   2.668   0.001  11.965  0.6935 -0.0391  0.2905
  492MPD2    C5 7447   2.660   4.753  12.102  0.2322  0.5933 -0.3176
  492MPD2     H 7448   2.992   4.685  11.922 -0.9890 -0.7224 -0.6971
  492MPD2    H1 7449   2.583   0.050  11.920  1.4921 -0.7319 -2.0093
  492MPD2    H2 7450   2.756   4.682  12.272  1.1187  0.7624  0.1920
  492MPD2    H3 7451   2.571   0.002  12.158 -1.6654 -2.1808 -2.1100
  492MPD2     N 7452   2.802   4.768  11.767  0.0260 -0.2581 -0.2536
  492MPD2    H5 7453   2.895   4.764  11.727  0.2538  0.8576  0.1859
  492MPD2    N1 7454   2.999   4.636  12.170  1.0536 -0.6944 -0.2066
  492MPD2    H7 7455   3.091   4.657  12.132  0.8954  1.6324  0.6654
  493MPD2     C 7456   3.533   0.135  12.788 -0.3646 -0.1426 -0.4969
  493MPD2    C1 7457   3.498   0.135  12.652 -0.1471  0.1767  0.4894
  493MPD2    C2 7458   3.591   0.166  12.559 -0.4965  0.1855 -0.6579
  493MPD2    C3 7459   3.712   0.222  12.604  0.7799 -0.9372 -0.0705
  493MPD2    C4 7460   3.744   0.230  12.740 -0.2766  0.3175  0.1495
  493MPD2    C5 7461   3.652   0.190  12.828 -0.7145  0.1704  0.3702
  493MPD2     H 7462   3.560   0.157  12.456 -1.4000 -0.4817 -0.3308
  493MPD2    H1 7463   3.841   0.261  12.778 -1.1685  1.2161  1.6778
  493MPD2    H2 7464   3.467   0.093  12.863 -1.1683  1.8058 -0.1048
  493MPD2    H3 7465   3.672   0.191  12.934 -0.5708 -2.1463  0.3784
  493MPD2     N 7466   3.809   0.234  12.508  0.0693 -0.1237  0.0507
  493MPD2    H5 7467   3.785   0.201  12.415 -1.2292  0.3408  0.2254
  493MPD2    N1 7468   3.373   0.069  12.610 -0.1987  0.3904  0.4116
  493MPD2    H7 7469   3.307   0.043  12.682 -1.0591  1.2068 -0.0939
  494MPD2     C 7470   0.977   0.549  10.848  0.2493 -0.3435  0.6838
  494MPD2    C1 7471   1.010   0.422  10.894  0.1108 -0.0058 -0.6693
  494MPD2    C2 7472   1.142   0.378  10.870 -0.3895 -0.5955  0.7120
  494MPD2    C3 7473   1.239   0.454  10.803 -0.7676  0.3564  0.5705
  494MPD2    C4 7474   1.205   0.581  10.764  0.0524 -0.3518  0.1322
  494MPD2    C5 7475   1.074   0.621  10.780 -0.1643  0.1432 -0.1460
  494MPD2     H 7476   1.168   0.278  10.904  1.9820  0.1109  0.9534
  494MPD2    H1 7477   1.276   0.655  10.730 -0.1845 -0.2150 -0.0673
  494MPD2    H2 7478   0.880   0.596  10.855  0.4917  0.7687 -3.5290
  494MPD2    H3 7479   1.064   0.727  10.760  0.8942  0.5731  1.6104
  494MPD2     N 7480   1.365   0.400  10.787  0.2042 -0.1583 -0.8123
  494MPD2    H5 7481   1.380   0.305  10.821  0.2246 -0.1920 -0.9146
  494MPD2    N1 7482   0.912   0.342  10.966 -0.7413  0.4957 -0.2948
  494MPD2    H7 7483   0.946   0.257  11.012 -1.3855  1.2361  1.5508
  495MPD2     C 7484   0.575   4.195  11.191  0.7988 -0.8144 -0.4985
  495MPD2    C1 7485   0.475   4.273  11.243 -0.0264 -0.6600  0.1377
  495MPD2    C2 7486   0.491   4.410  11.243  0.0560  0.5606  0.1442
  495MPD2    C3 7487   0.606   4.476  11.200  0.9292  0.3001  0.2215
  495MPD2    C4 7488   0.709   4.399  11.154 -0.3296 -0.4162 -0.2734
  495MPD2    C5 7489   0.690   4.260  11.151 -0.3374  0.1847 -0.3011
  495MPD2     H 7490   0.412   4.473  11.284  0.3788  2.1927 -1.6917
  495MPD2    H1 7491   0.805   4.435  11.117 -0.1176  0.3834  1.0597
  495MPD2    H2 7492   0.568   4.088  11.173  1.4408 -0.8821 -0.3244
  495MPD2    H3 7493   0.772   4.205  11.106  0.8452  1.4414  0.2995
  495MPD2     N 7494   0.602   4.613  11.200 -0.8263  0.2326  0.0095
  495MPD2    H5 7495   0.521   4.655  11.245  0.2942  0.4154  1.8427
  495MPD2    N1 7496   0.351   4.227  11.284  0.2352  0.8915  0.2896
  495MPD2    H7 7497   0.278   4.295  11.305 -1.4768 -1.2921  1.4537
  496MPD2     C 7498   0.303   3.947   8.875  0.5643 -0.0978  0.5718
  496MPD2    C1 7499   0.211   3.880   8.947  0.1841  0.4057  0.4632
  496MPD2    C2 7500   0.161   3.939   9.063 -0.5246 -0.1229 -0.1362
  496MPD2    C3 7501   0.207   4.067   9.096 -0.3403  0.1895  0.2794
  496MPD2    C4 7502   0.299   4.135   9.018  0.2349  0.1587  0.3157
  496MPD2    C5 7503   0.344   4.074   8.906  0.6342 -0.3715  0.5833
  496MPD2     H 7504   0.097   3.886   9.133 -0.0667  0.1416  0.4814
  496MPD2    H1 7505   0.338   4.234   9.036  2.0867 -0.4676 -0.3248
  496MPD2    H2 7506   0.347   3.921   8.779  2.0804  0.4058  1.1306
  496MPD2    H3 7507   0.423   4.123   8.851 -0.3360 -0.5073 -0.9343
  496MPD2     N 7508   0.148   4.149   9.202  0.1164  0.0839 -0.0153
  496MPD2    H5 7509   0.056   4.121   9.234 -0.2123  2.3836  1.0975
  496MPD2    N1 7510   0.159   3.756   8.910  0.5388 -0.2277  0.5162
  496MPD2    H7 7511   0.085   3.718   8.967 -0.7314  0.2717 -0.8063
  497MPD2     C 7512   1.908   4.062   8.420  0.2079  0.4034  0.5839
  497MPD2    C1 7513   2.013   4.103   8.497 -0.3023  0.0361 -0.0174
  497MPD2    C2 7514   2.015   4.060   8.631 -0.5383 -0.0365  0.5447
  497MPD2    C3 7515   1.914   3.992   8.687 -0.1568 -0.4010  0.7084
  497MPD2    C4 7516   1.808   3.948   8.605  0.9499  0.4484 -0.0238
  497MPD2    C5 7517   1.806   3.993   8.477  0.1386 -0.5005 -0.3028
  497MPD2     H 7518   2.089   4.105   8.696 -0.4025  1.3426 -0.5614
  497MPD2    H1 7519   1.729   3.880   8.638  2.8208 -0.3210  2.8705
  497MPD2    H2 7520   1.896   4.087   8.315  1.4004  1.2534  0.6504
  497MPD2    H3 7521   1.724   3.968   8.409  1.8963  0.0078 -2.6094
  497MPD2     N 7522   1.909   3.971   8.833 -0.4296  0.7882 -0.4127
  497MPD2    H5 7523   1.990   3.993   8.891 -1.9597  1.0172  1.6324
  497MPD2    N1 7524   2.116   4.171   8.435  0.3129 -0.2885 -0.1045
  497MPD2    H7 7525   2.109   4.186   8.335 -2.7933  0.1771  0.1769
  498MPD2     C 7526   1.522   4.186   9.540  0.8454 -1.2286  0.5091
  498MPD2    C1 7527   1.640   4.214   9.472 -0.7929  0.3713  0.1900
  498MPD2    C2 7528   1.722   4.318   9.515  0.8956  0.2852  1.3112
  498MPD2    C3 7529   1.669   4.396   9.616 -0.3901 -0.1774  0.3532
  498MPD2    C4 7530   1.543   4.380   9.668 -0.2450 -0.2774  0.2198
  498MPD2    C5 7531   1.475   4.275   9.632 -0.3868  0.3610  0.1048
  498MPD2     H 7532   1.812   4.342   9.460  0.6794 -2.2218 -0.1648
  498MPD2    H1 7533   1.498   4.445   9.740 -0.8333 -0.4171 -0.0227
  498MPD2    H2 7534   1.468   4.092   9.530  1.8979 -1.5398 -2.1923
  498MPD2    H3 7535   1.376   4.263   9.673 -1.4859  4.3369 -1.4524
  498MPD2     N 7536   1.759   4.493   9.659 -0.6335 -0.5689 -0.0199
  498MPD2    H5 7537   1.851   4.487   9.616  0.3145  0.3867  1.8809
  498MPD2    N1 7538   1.691   4.126   9.377  0.1253  0.0548 -0.1400
  498MPD2    H7 7539   1.780   4.150   9.334  1.2361  0.9978  2.7096
  499MPD2     C 7540   2.386   4.285   9.527  0.0158 -0.4529 -0.1651
  499MPD2    C1 7541   2.258   4.324   9.541 -0.1569 -0.4576 -1.0628
  499MPD2    C2 7542   2.162   4.242   9.485 -0.6469  0.1151 -0.5273
  499MPD2    C3 7543   2.194   4.131   9.409 -0.2179 -0.4188 -0.8366
  499MPD2    C4 7544   2.329   4.106   9.383 -0.1546  0.4612  0.4211
  499MPD2    C5 7545   2.425   4.181   9.450 -0.0836  0.1737  0.6249
  499MPD2     H 7546   2.061   4.262   9.517 -1.1925 -0.8257 -1.6704
  499MPD2    H1 7547   2.356   4.007   9.348  2.6932  1.0334  0.9726
  499MPD2    H2 7548   2.454   4.348   9.583 -0.5490 -0.0644  0.0815
  499MPD2    H3 7549   2.527   4.143   9.454 -1.1590 -2.8409 -0.8078
  499MPD2     N 7550   2.085   4.054   9.365 -0.0451  0.1943 -0.2562
  499MPD2    H5 7551   1.991   4.067   9.402 -1.0760 -0.4401 -2.6864
  499MPD2    N1 7552   2.225   4.437   9.618 -0.7471  0.3091 -0.2830
  499MPD2    H7 7553   2.298   4.470   9.681  0.0122 -1.0999 -0.4202
  500MPD2     C 7554   4.219   1.460  11.139  0.3954 -0.0797 -0.5684
  500MPD2    C1 7555   4.121   1.375  11.187  0.0458  0.5106  0.4221
  500MPD2    C2 7556   4.007   1.359  11.113  0.4247  0.2659  0.5337
  500MPD2    C3 7557   3.989   1.423  10.985 -0.1402 -0.4877  0.3139
  500MPD2    C4 7558   4.091   1.500  10.937  0.4319 -0.4369  0.6434
  500MPD2    C5 7559   4.190   1.527  11.022  0.0655 -0.2773 -0.7342
  500MPD2     H 7560   3.941   1.280  11.146  0.6591 -0.2644 -0.2514
  500MPD2    H1 7561   4.089   1.543  10.838 -0.6145 -1.7194  0.1057
  500MPD2    H2 7562   4.308   1.483  11.196  0.2983  0.6211 -0.7037
  500MPD2    H3 7563   4.268   1.598  10.995  1.8774 -1.7092  0.6725
  500MPD2     N 7564   3.871   1.391  10.914 -0.0850  0.0558  0.6562
  500MPD2    H5 7565   3.811   1.321  10.958 -0.8780 -1.0862 -2.2084
  500MPD2    N1 7566   4.149   1.304  11.311 -0.3143  0.2700  0.0699
  500MPD2    H7 7567   4.237   1.327  11.356 -0.7262 -1.2103  1.6375
  501MPD2     C 7568   4.516   1.430  11.871 -0.3089  0.4059 -0.3215
  501MPD2    C1 7569   4.509   1.387  11.737 -0.2718 -0.2537 -0.4184
  501MPD2    C2 7570   4.592   1.451  11.647  0.0554 -0.1662 -0.5098
  501MPD2    C3 7571   4.691   1.537  11.688 -0.4827  0.4870 -0.0590
  501MPD2    C4 7572   4.707   1.574  11.820  0.0490 -0.5939  0.1777
  501MPD2    C5 7573   4.619   1.510  11.910 -0.4546  0.1878 -0.2010
  501MPD2     H 7574   4.576   1.424  11.543  1.3985 -1.6117 -0.3504
  501MPD2    H1 7575   0.020   1.620  11.859 -1.8270  2.9552  0.2005
  501MPD2    H2 7576   4.446   1.394  11.946  1.3125 -0.4239  0.8103
  501MPD2    H3 7577   4.634   1.527  12.016  0.4632  1.9813 -0.6153
  501MPD2     N 7578   0.009   1.588  11.599  0.2655  0.1225 -0.0752
  501MPD2    H5 7579   0.082   1.646  11.639 -1.3914  1.0713  1.5936
  501MPD2    N1 7580   4.419   1.291  11.687  0.2604  0.2876 -0.3614
  501MPD2    H7 7581   4.410   1.292  11.586 -3.3165  0.0452 -0.0417
  502MPD2     C 7582   4.115   0.562  11.287 -0.5835  0.5157  0.5237
  502MPD2    C1 7583   4.193   0.604  11.391 -0.1928  0.6900  0.4295
  502MPD2    C2 7584   4.305   0.524  11.423 -0.0685  0.3132 -0.9203
  502MPD2    C3 7585   4.336   0.400  11.355  0.2607  0.0814 -0.2601
  502MPD2    C4 7586   4.263   0.375  11.246 -0.3920  0.1131 -0.3984
  502MPD2    C5 7587   4.148   0.451  11.218  0.2399  0.0284  0.1055
  502MPD2     H 7588   4.369   0.543  11.508 -2.5607  1.4541  0.7024
  502MPD2    H1 7589   4.274   0.281  11.193 -0.2263  0.2585 -0.6175
  502MPD2    H2 7590   4.030   0.618  11.250  0.4193  0.7391 -1.4715
  502MPD2    H3 7591   4.089   0.420  11.132  1.1799  0.9009 -0.8456
  502MPD2     N 7592   4.447   0.326  11.400  0.6298  0.3065  0.4770
  502MPD2    H5 7593   4.493   0.348  11.488  1.5252  0.0513  0.0755
  502MPD2    N1 7594   4.157   0.724  11.453  0.0019  0.3920 -0.0528
  502MPD2    H7 7595   4.068   0.765  11.425 -1.4988 -2.6169  0.3626
  503MPD2     C 7596   0.643   1.141  10.597 -0.2924 -0.5337  0.7352
  503MPD2    C1 7597   0.772   1.168  10.592 -0.5479  0.2714 -0.2945
  503MPD2    C2 7598   0.856   1.077  10.530 -0.5447 -0.3892  0.0460
  503MPD2    C3 7599   0.811   0.968  10.466 -0.2112  0.6173  0.1498
  503MPD2    C4 7600   0.674   0.960  10.454 -0.2399  0.1843 -0.4409
  503MPD2    C5 7601   0.589   1.038  10.526 -0.3747 -0.0301 -0.0023
  503MPD2     H 7602   0.963   1.097  10.523 -0.3974 -0.6616  1.4867
  503MPD2    H1 7603   0.639   0.882  10.388 -0.5414  0.6587 -0.8425
  503MPD2    H2 7604   0.581   1.215  10.645 -1.0124  0.8463 -2.3362
  503MPD2    H3 7605   0.483   1.020  10.535 -0.6261 -1.4956 -6.1271
  503MPD2     N 7606   0.896   0.880  10.399 -0.0021 -0.2122  0.0105
  503MPD2    H5 7607   0.862   0.817  10.327 -0.1859  1.4540 -1.3654
  503MPD2    N1 7608   0.819   1.286  10.648 -0.2409 -0.2816 -0.7608
  503MPD2    H7 7609   0.747   1.338  10.696 -0.2665 -1.2723  0.2741
  504MPD2     C 7610   1.023   1.272   9.849  0.5196 -0.3596 -0.1179
  504MPD2    C1 7611   0.947   1.159   9.889 -0.4008 -0.1129  0.0882
  504MPD2    C2 7612   0.812   1.167   9.880  0.4067  0.2661  0.0236
  504MPD2    C3 7613   0.751   1.278   9.827  0.5366 -0.5359 -0.4404
  504MPD2    C4 7614   0.821   1.385   9.782  0.7218  0.0720 -0.0516
  504MPD2    C5 7615   0.958   1.382   9.794 -0.2793  0.3049 -0.3036
  504MPD2     H 7616   0.751   1.088   9.923 -0.1677 -0.1528 -1.5473
  504MPD2    H1 7617   0.774   1.470   9.735 -0.3118 -0.2445  0.4079
  504MPD2    H2 7618   1.131   1.267   9.846  0.6108  0.9882  0.7719
  504MPD2    H3 7619   1.022   1.466   9.768  2.0699 -1.5500 -0.4830
  504MPD2     N 7620   0.609   1.278   9.838  0.2853 -0.9701 -0.2903
  504MPD2    H5 7621   0.568   1.193   9.877  0.8339 -0.7816  0.6935
  504MPD2    N1 7622   0.995   1.043   9.963  0.1499 -0.6001 -0.0040
  504MPD2    H7 7623   0.926   0.982  10.006  0.1913 -0.2950  0.5013
  505MPD2     C 7624   2.173   3.547  12.832 -0.0812 -0.6388  0.3723
  505MPD2    C1 7625   2.081   3.464  12.890  0.2090  0.3032 -0.2344
  505MPD2    C2 7626   2.127   3.356  12.951  0.5295  0.5020 -0.3076
  505MPD2    C3 7627   2.264   3.327  12.963  0.5405  0.0393 -0.8314
  505MPD2    C4 7628   2.356   3.412  12.901 -0.1856 -0.7477 -0.5302
  505MPD2    C5 7629   2.311   3.527  12.841 -0.6622 -0.0294 -0.4796
  505MPD2     H 7630   2.051   3.303  13.007  2.9249 -2.9483 -0.2776
  505MPD2    H1 7631   2.465   3.405  12.901 -0.1617 -0.3733 -0.6402
  505MPD2    H2 7632   2.132   3.630  12.776 -1.0873  0.0772  2.1573
  505MPD2    H3 7633   2.382   3.598  12.802 -1.7397  0.8440 -0.8487
  505MPD2     N 7634   2.308   3.211  13.026  0.4671 -0.1511 -0.1567
  505MPD2    H5 7635   2.234   3.154  13.066  0.3779 -1.8411 -2.7246
  505MPD2    N1 7636   1.944   3.503  12.886 -0.6492  0.0943  0.6740
  505MPD2    H7 7637   1.917   3.583  12.829 -1.2873 -1.3395 -0.9996
  506MPD2     C 7638   3.304   4.679  11.356  1.0607 -0.8563 -0.6974
  506MPD2    C1 7639   3.204   4.722  11.270 -0.1179  0.3633  0.1087
  506MPD2    C2 7640   3.185   4.656  11.150 -0.2039  0.2062  1.1779
  506MPD2    C3 7641   3.276   4.560  11.114 -0.1831  0.0011 -0.5373
  506MPD2    C4 7642   3.380   4.532  11.193 -0.1823 -0.5105  0.0423
  506MPD2    C5 7643   3.389   4.587  11.317  0.0931 -0.1433  0.3008
  506MPD2     H 7644   3.106   4.679  11.079  0.5977 -0.4134  0.0880
  506MPD2    H1 7645   3.441   4.444  11.172 -2.3191 -1.8926 -0.4099
  506MPD2    H2 7646   3.314   4.727  11.453  0.6631  0.7631 -1.4557
  506MPD2    H3 7647   3.464   4.552  11.387 -0.6974 -0.4873  0.9836
  506MPD2     N 7648   3.264   4.485  10.989  0.3493  0.3372  0.3050
  506MPD2    H5 7649   3.332   4.410  10.979  0.4451  0.5803 -0.9570
  506MPD2    N1 7650   3.122   0.056  11.294  0.1840  0.1250 -0.5544
  506MPD2    H7 7651   3.078   0.090  11.209  1.9955 -0.0730 -1.5764
  507MPD2     C 7652   2.834   0.631  10.936 -0.4270 -1.0147 -0.6553
  507MPD2    C1 7653   2.870   0.672  11.058 -0.4133 -0.3165  1.1341
  507MPD2    C2 7654   2.956   0.779  11.076  0.3804 -0.5268 -0.0092
  507MPD2    C3 7655   3.006   0.842  10.961 -0.0631  0.4172 -0.0537
  507MPD2    C4 7656   2.973   0.798  10.836  0.1623 -0.2571  0.1538
  507MPD2    C5 7657   2.881   0.699  10.831  0.9124 -0.6103  0.2138
  507MPD2     H 7658   2.985   0.800  11.179  1.6369  1.6497 -0.7936
  507MPD2    H1 7659   3.015   0.839  10.745 -1.1981 -1.2361 -0.8997
  507MPD2    H2 7660   2.776   0.543  10.914 -1.2457 -0.7942  0.5906
  507MPD2    H3 7661   2.865   0.665  10.729  2.1910  1.8102 -0.7748
  507MPD2     N 7662   3.074   0.963  10.964  0.4092 -0.0431 -0.2806
  507MPD2    H5 7663   3.108   1.009  10.880  0.1068 -0.6023 -0.7109
  507MPD2    N1 7664   2.852   0.580  11.169  0.3387 -0.1749 -0.7955
  507MPD2    H7 7665   2.850   0.621  11.262 -1.2071  1.4556 -1.5586
  508MPD2     C 7666   4.034   2.978  15.092  0.1789  0.5075  0.4459
  508MPD2    C1 7667   4.091   3.046  15.197 -0.2948  0.0911  0.0067
  508MPD2    C2 7668   4.014   3.111  15.291 -0.8510 -0.0859  0.3812
  508MPD2    C3 7669   3.881   3.127  15.261 -0.4045  0.1804  0.8045
  508MPD2    C4 7670   3.814   3.069  15.153  0.1092  0.5890 -0.2619
  508MPD2    C5 7671   3.895   2.993  15.072 -0.2862 -0.5496 -0.2551
  508MPD2     H 7672   4.057   3.159  15.378 -0.6661 -1.1320  0.8616
  508MPD2    H1 7673   3.710   3.083  15.129 -0.3015 -0.9090  0.6102
  508MPD2    H2 7674   4.087   2.914  15.023 -1.4762  0.4786 -0.7954
  508MPD2    H3 7675   3.848   2.937  14.991  1.1408 -3.3767  0.8421
  508MPD2     N 7676   3.803   3.220  15.333  0.7188  0.2751  0.0745
  508MPD2    H5 7677   3.703   3.208  15.322  0.9206 -2.0380  0.7256
  508MPD2    N1 7678   4.229   3.038  15.200  0.2152  0.8987  0.0577
  508MPD2    H7 7679   4.267   3.006  15.111 -0.5917  0.6745 -0.2082
  509MPD2     C 7680   4.409   3.396  14.768  0.2761  0.1811  0.0371
  509MPD2    C1 7681   4.530   3.374  14.836  0.3985 -0.8246  0.0667
  509MPD2    C2 7682   4.634   3.469  14.827  0.2201 -0.3761 -0.1357
  509MPD2    C3 7683   4.616   3.590  14.758 -0.2891  0.7977  0.2850
  509MPD2    C4 7684   4.496   3.607  14.691 -0.0169 -0.6599 -0.0779
  509MPD2    C5 7685   4.393   3.516  14.704  0.5852 -0.6946  0.1438
  509MPD2     H 7686   4.715   3.466  14.899  0.1587  1.3785  0.0213
  509MPD2    H1 7687   4.485   3.694  14.627 -0.0664 -1.1437 -0.7210
  509MPD2    H2 7688   4.329   3.324  14.775  0.6284 -0.0854  1.2506
  509MPD2    H3 7689   4.297   3.536  14.658  0.6049  1.5547  1.1101
  509MPD2     N 7690   4.714   3.691  14.773 -0.0634  0.1341  0.1532
  509MPD2    H5 7691   0.025   3.661  14.817 -0.7993 -1.4061  0.5491
  509MPD2    N1 7692   4.536   3.262  14.917  0.2977  0.4207 -0.2744
  509MPD2    H7 7693   4.449   3.211  14.929  0.6709 -0.4439 -1.2232
  510MPD2     C 7694   2.339   0.032  15.188 -0.6887 -0.1165 -0.3488
  510MPD2    C1 7695   2.304   0.167  15.167  0.4643  0.1746  0.0140
  510MPD2    C2 7696   2.386   0.259  15.229 -0.2605  0.1074  0.1647
  510MPD2    C3 7697   2.488   0.221  15.319 -0.3317 -0.3435  0.2678
  510MPD2    C4 7698   2.509   0.086  15.355  0.3567  0.4860 -0.3610
  510MPD2    C5 7699   2.433   0.002  15.285  0.6694 -0.3270  0.8177
  510MPD2     H 7700   2.371   0.367  15.226  0.2436  0.1481 -1.1500
  510MPD2    H1 7701   2.590   0.053  15.418  0.7781  1.2178 -0.5225
  510MPD2    H2 7702   2.300   4.725  15.130 -2.6940  0.4141  0.2491
  510MPD2    H3 7703   2.465   4.675  15.291  1.1865 -0.2264 -0.1145
  510MPD2     N 7704   2.569   0.310  15.389  0.2286  0.2143  0.9387
  510MPD2    H5 7705   2.624   0.274  15.466  0.5339 -2.5065 -0.5744
  510MPD2    N1 7706   2.207   0.209  15.072  0.2242 -0.1618 -0.1228
  510MPD2    H7 7707   2.192   0.309  15.071 -2.5883 -0.5781  1.4710
  511MPD2     C 7708   3.277   4.775  15.674  0.3221  0.3136  0.3117
  511MPD2    C1 7709   3.324   0.109  15.604  0.1397  0.4273 -0.2887
  511MPD2    C2 7710   3.257   0.222  15.616 -0.1815 -0.4729  0.4894
  511MPD2    C3 7711   3.137   0.243  15.682 -0.1632  0.2874 -0.0335
  511MPD2    C4 7712   3.089   0.136  15.757 -0.8912  0.1643  0.3211
  511MPD2    C5 7713   3.163   0.022  15.749  0.3937 -0.1574  0.1648
  511MPD2     H 7714   3.300   0.310  15.569 -2.3322  1.3344  1.8701
  511MPD2    H1 7715   3.007   0.128  15.827  0.3001 -2.8422  1.3820
  511MPD2    H2 7716   3.320   4.676  15.673  0.1199  0.2181  1.6271
  511MPD2    H3 7717   3.130   4.721  15.817  0.5821 -0.0837  0.3397
  511MPD2     N 7718   3.060   0.359  15.666  0.8846  0.2666  0.6469
  511MPD2    H5 7719   3.104   0.427  15.604  0.8567 -0.8710 -0.6246
  511MPD2    N1 7720   3.436   0.099  15.522  0.1166 -0.0080 -0.1413
  511MPD2    H7 7721   3.467   0.192  15.495 -0.6219  0.0808 -0.6792
  512MPD2     C 7722   2.145   4.355  10.336  0.3487  0.0522  0.6683
  512MPD2    C1 7723   2.192   4.336  10.211 -0.1329 -1.2416  0.3026
  512MPD2    C2 7724   2.281   4.230  10.182 -0.0110 -0.4995  0.1915
  512MPD2    C3 7725   2.301   4.132  10.276 -0.1712 -0.0551 -0.5023
  512MPD2    C4 7726   2.248   4.155  10.401 -0.6749  0.3632 -0.1827
  512MPD2    C5 7727   2.183   4.273  10.429  0.3953  0.0111 -0.6401
  512MPD2     H 7728   2.308   4.224  10.077  0.9745 -0.5167  0.4418
  512MPD2    H1 7729   2.257   4.075  10.473  0.4108  0.2650 -0.4170
  512MPD2    H2 7730   2.080   4.439  10.358 -0.5230 -0.5222  0.2670
  512MPD2    H3 7731   2.148   4.294  10.529 -0.3122  0.0121 -0.8833
  512MPD2     N 7732   2.365   4.010  10.248 -0.5825  0.5703  0.3322
  512MPD2    H5 7733   2.335   3.938  10.313 -2.0764  0.8166 -0.0745
  512MPD2    N1 7734   2.162   4.413  10.100  0.1300  0.3427  0.1847
  512MPD2    H7 7735   2.209   4.377  10.017  0.0888 -1.3910  0.9256
  513MPD2     C 7736   2.819   1.589  11.392  0.4150 -0.3296  0.3348
  513MPD2    C1 7737   2.892   1.478  11.367 -0.0054 -0.4136 -0.1908
  513MPD2    C2 7738   2.845   1.354  11.415 -0.1103 -0.4379  0.0546
  513MPD2    C3 7739   2.725   1.342  11.482  0.0011  0.3237  0.4539
  513MPD2    C4 7740   2.665   1.454  11.523  0.4254 -0.2330  0.2781
  513MPD2    C5 7741   2.707   1.577  11.470 -1.1544 -0.2278  1.2379
  513MPD2     H 7742   2.894   1.259  11.399  0.5756  0.1338 -1.2020
  513MPD2    H1 7743   2.585   1.457  11.596  0.1352 -0.4558 -0.0317
  513MPD2    H2 7744   2.855   1.684  11.355 -0.3111 -1.2214 -2.6779
  513MPD2    H3 7745   2.659   1.665  11.511 -0.2685  1.2419 -0.8871
  513MPD2     N 7746   2.686   1.214  11.507  0.6607  0.0098 -0.5723
  513MPD2    H5 7747   2.753   1.143  11.479  0.7595 -0.6098  1.1934
  513MPD2    N1 7748   3.007   1.477  11.290 -0.3760 -0.0289  0.3860
  513MPD2    H7 7749   3.015   1.557  11.228 -2.8031  0.8117  1.1615
  514MPD2     C 7750   0.239   0.868  15.712 -0.4153  0.4046 -0.2558
  514MPD2    C1 7751   0.209   0.998  15.673  0.2149 -0.7186  0.1533
  514MPD2    C2 7752   0.099   1.063  15.723 -0.0962  0.0867 -0.4166
  514MPD2    C3 7753   0.016   0.995  15.811 -0.3131 -0.2371  0.1407
  514MPD2    C4 7754   0.040   0.866  15.844 -0.6276  0.0175  0.0135
  514MPD2    C5 7755   0.151   0.802  15.797  1.0189  0.4402  0.2306
  514MPD2     H 7756   0.069   1.163  15.693  2.8069  0.9342 -0.5232
  514MPD2    H1 7757   4.750   0.800  15.898  0.3717 -2.2285 -1.5102
  514MPD2    H2 7758   0.319   0.806  15.674 -2.2518 -1.3762 -1.2219
  514MPD2    H3 7759   0.151   0.696  15.819 -3.0811  0.1551 -1.0772
  514MPD2     N 7760   4.680   1.057  15.857  0.0023  0.2237 -0.2976
  514MPD2    H5 7761   4.683   1.156  15.835 -0.4666  1.0295  3.1989
  514MPD2    N1 7762   0.294   1.064  15.581  0.0447 -0.2413  0.2543
  514MPD2    H7 7763   0.253   1.154  15.560  0.6221 -0.5257 -2.0555
  515MPD2     C 7764   0.670   3.211   7.145 -0.3585  1.0491 -0.1688
  515MPD2    C1 7765   0.654   3.346   7.161  0.4630  0.0128  0.5672
  515MPD2    C2 7766   0.527   3.402   7.157 -0.3666  0.2373 -0.6418
  515MPD2    C3 7767   0.415   3.325   7.179  0.2305  0.1433 -0.0680
  515MPD2    C4 7768   0.427   3.184   7.167 -0.4608 -0.8315 -0.1101
  515MPD2    C5 7769   0.555   3.135   7.149  0.2982 -0.0096  0.6266
  515MPD2     H 7770   0.503   3.506   7.175 -1.1765 -0.0516 -0.0489
  515MPD2    H1 7771   0.345   3.113   7.167  0.3584 -1.7708 -1.7772
  515MPD2    H2 7772   0.764   3.159   7.143 -0.3535  1.0422  0.2206
  515MPD2    H3 7773   0.571   3.031   7.125 -0.2405  0.6145 -2.4066
  515MPD2     N 7774   0.289   3.390   7.191  0.5529  0.2654  0.0369
  515MPD2    H5 7775   0.291   3.489   7.211 -2.9887  0.5740 -1.2161
  515MPD2    N1 7776   0.776   3.426   7.144  0.4532  0.0287 -0.3129
  515MPD2    H7 7777   0.861   3.376   7.125  1.5535  1.7357  0.1070
  516MPD2     C 7778   0.140   3.848   7.693  0.0974 -0.2626 -0.4268
  516MPD2    C1 7779   0.198   3.729   7.645  0.3878 -0.2642  0.0467
  516MPD2    C2 7780   0.330   3.698   7.680  0.0235  0.0545  0.6928
  516MPD2    C3 7781   0.403   3.777   7.766  0.5139 -0.0649 -1.2011
  516MPD2    C4 7782   0.347   3.896   7.800  0.7478 -0.1386  0.2925
  516MPD2    C5 7783   0.224   3.931   7.761  0.4767  0.0718  0.8749
  516MPD2     H 7784   0.371   3.609   7.633 -0.1370  0.0401  0.5806
  516MPD2    H1 7785   0.408   3.955   7.866  0.1894  3.0065 -2.0096
  516MPD2    H2 7786   0.043   3.881   7.657  0.1990  0.4896 -0.0298
  516MPD2    H3 7787   0.184   4.026   7.794 -1.8494 -1.5485  2.7481
  516MPD2     N 7788   0.532   3.735   7.808  0.0270 -0.2097  0.0290
  516MPD2    H5 7789   0.580   3.808   7.860  1.9255 -1.0105 -0.5782
  516MPD2    N1 7790   0.136   3.634   7.564 -1.0111 -0.2301  0.3827
  516MPD2    H7 7791   0.185   3.548   7.542 -2.0918 -0.8400  0.3998
  517MPD2     C 7792   4.110   3.724   6.962  0.0300  0.3147 -0.1299
  517MPD2    C1 7793   4.178   3.616   6.912  0.5429  0.0726 -0.5176
  517MPD2    C2 7794   4.285   3.574   6.985 -0.1905 -0.3927  0.2966
  517MPD2    C3 7795   4.333   3.642   7.099  0.0087 -0.1802  1.0326
  517MPD2    C4 7796   4.276   3.763   7.129 -0.6079 -0.0876  0.4285
  517MPD2    C5 7797   4.160   3.799   7.065 -0.1701 -0.4080  0.6455
  517MPD2     H 7798   4.346   3.491   6.950  0.6734  0.0968  0.6379
  517MPD2    H1 7799   4.327   3.823   7.204 -1.6574  1.6186 -0.2165
  517MPD2    H2 7800   4.019   3.762   6.918  0.0909  2.2357  1.4222
  517MPD2    H3 7801   4.111   3.887   7.105 -1.4027 -0.3069 -1.0947
  517MPD2     N 7802   4.432   3.593   7.189 -0.5511  0.5249 -0.3624
  517MPD2    H5 7803   4.477   3.659   7.251 -1.3036  0.1070  0.6233
  517MPD2    N1 7804   4.134   3.552   6.793 -0.2517  0.4894 -0.6570
  517MPD2    H7 7805   4.074   3.614   6.740  1.9868  1.3700 -2.1308
  518MPD2     C 7806   2.360   0.307  13.748  0.5749  0.5922  0.3096
  518MPD2    C1 7807   2.486   0.284  13.794  0.0386 -0.0916 -0.2877
  518MPD2    C2 7808   2.562   0.391  13.828  0.0087 -0.2159  0.4597
  518MPD2    C3 7809   2.518   0.521  13.802 -0.2728  0.5290 -0.1082
  518MPD2    C4 7810   2.401   0.542  13.736 -0.0916  0.4087 -0.3728
  518MPD2    C5 7811   2.318   0.435  13.718  0.2208 -0.1478 -0.1416
  518MPD2     H 7812   2.657   0.379  13.880 -0.6748  1.7105  2.1290
  518MPD2    H1 7813   2.366   0.643  13.720  1.3495  0.7891 -1.0914
  518MPD2    H2 7814   2.302   0.216  13.743  0.3247  0.6992  1.2120
  518MPD2    H3 7815   2.214   0.437  13.687 -0.0116 -0.6019  0.6120
  518MPD2     N 7816   2.597   0.638  13.822 -0.0664 -0.2279 -0.3192
  518MPD2    H5 7817   2.566   0.722  13.775  5.3828  1.2365 -1.1907
  518MPD2    N1 7818   2.526   0.153  13.804  0.1516  0.3813  0.5905
  518MPD2    H7 7819   2.455   0.082  13.796  1.1955 -0.3675 -1.8250
  519MPD2     C 7820   2.625   4.031  14.288 -0.4095 -0.2989 -0.1047
  519MPD2    C1 7821   2.746   4.055  14.230  0.1080 -0.7400  0.0785
  519MPD2    C2 7822   2.767   4.175  14.160 -0.8764 -0.2129  0.1933
  519MPD2    C3 7823   2.661   4.262  14.129  0.1528  0.7164 -0.3363
  519MPD2    C4 7824   2.539   4.230  14.178  0.2546  0.2859 -0.1314
  519MPD2    C5 7825   2.525   4.124  14.257  0.6695  0.1973 -0.2272
  519MPD2     H 7826   2.865   4.199  14.120 -1.7156 -0.5836 -2.0624
  519MPD2    H1 7827   2.452   4.292  14.155  1.1744  0.7651 -2.3450
  519MPD2    H2 7828   2.600   3.943  14.347 -0.9382 -0.3727 -0.4420
  519MPD2    H3 7829   2.428   4.106  14.302  1.4379 -2.1644  0.4643
  519MPD2     N 7830   2.682   4.370  14.037  0.5319  0.6257 -0.1911
  519MPD2    H5 7831   2.776   4.369  14.000 -0.3720 -3.3312 -2.2913
  519MPD2    N1 7832   2.851   3.956  14.234 -0.1593 -0.2416 -0.1690
  519MPD2    H7 7833   2.943   3.984  14.204  0.0515 -1.4460 -0.6849
  520MPD2     C 7834   3.524   0.309  13.206  0.0715 -0.0379 -1.0682
  520MPD2    C1 7835   3.593   0.345  13.319  0.7563 -0.1133  0.6085
  520MPD2    C2 7836   3.562   0.279  13.440 -0.3967 -0.3030 -0.9194
  520MPD2    C3 7837   3.459   0.183  13.444  0.2809  0.1989  0.4695
  520MPD2    C4 7838   3.398   0.141  13.324 -0.5361  0.1446 -0.0220
  520MPD2    C5 7839   3.433   0.207  13.208 -0.4170  0.5683 -0.1524
  520MPD2     H 7840   3.622   0.300  13.528 -1.7749 -1.9721  0.4176
  520MPD2    H1 7841   3.317   0.070  13.317 -1.0031  0.6211  0.4772
  520MPD2    H2 7842   3.518   0.368  13.116 -0.2724 -0.5867 -1.4044
  520MPD2    H3 7843   3.385   0.179  13.116 -0.1271 -0.6991  0.0824
  520MPD2     N 7844   3.408   0.130  13.564  0.0211 -0.0322 -0.1136
  520MPD2    H5 7845   3.312   0.103  13.550  0.8501 -3.2035  0.4592
  520MPD2    N1 7846   3.685   0.449  13.311 -0.6953 -0.1776 -0.5535
  520MPD2    H7 7847   3.697   0.484  13.217 -0.2087 -0.0564 -0.4416
  521MPD2     C 7848   3.106   1.662   8.818 -0.1147 -0.2966 -0.6488
  521MPD2    C1 7849   3.193   1.767   8.793  0.0786  0.3106 -0.1240
  521MPD2    C2 7850   3.145   1.878   8.730 -0.1920 -0.1110 -0.2194
  521MPD2    C3 7851   3.015   1.884   8.687  0.0891  0.6023  0.6258
  521MPD2    C4 7852   2.929   1.780   8.718 -0.1455 -0.0570  0.2820
  521MPD2    C5 7853   2.976   1.667   8.777 -0.1027 -0.0360 -0.0744
  521MPD2     H 7854   3.212   1.956   8.694 -1.6853  1.5762  0.6343
  521MPD2    H1 7855   2.826   1.789   8.685  0.3894 -1.0656 -1.6817
  521MPD2    H2 7856   3.137   1.568   8.862 -3.1664 -1.7767 -1.6230
  521MPD2    H3 7857   2.907   1.588   8.805  0.8800 -1.3940 -1.5090
  521MPD2     N 7858   2.971   2.004   8.626  0.1641 -0.1050  0.3668
  521MPD2    H5 7859   3.043   2.071   8.599 -1.9341  1.9526 -0.1776
  521MPD2    N1 7860   3.325   1.747   8.834 -0.3163  0.0257 -0.7203
  521MPD2    H7 7861   3.346   1.670   8.897  0.6334  1.3401  0.5743
  522MPD2     C 7862   4.022   1.827   8.431 -0.6624  0.0967 -0.4416
  522MPD2    C1 7863   4.042   1.831   8.573 -0.1581  0.4229  0.3573
  522MPD2    C2 7864   4.175   1.853   8.611 -0.3710 -0.1228  0.2807
  522MPD2    C3 7865   4.273   1.889   8.525 -0.0700 -0.6728 -0.3676
  522MPD2    C4 7866   4.246   1.895   8.392  0.7418 -0.7435 -0.7214
  522MPD2    C5 7867   4.122   1.859   8.346  0.2247 -0.4323 -0.5631
  522MPD2     H 7868   4.203   1.855   8.715  1.5030  0.6212 -0.2305
  522MPD2    H1 7869   4.323   1.925   8.321  1.1158  0.4259  0.1911
  522MPD2    H2 7870   3.919   1.813   8.401 -0.4664 -0.4955 -0.8239
  522MPD2    H3 7871   4.105   1.859   8.239 -1.4447  2.6686 -0.2975
  522MPD2     N 7872   4.402   1.890   8.584  0.0961  0.1638  0.6497
  522MPD2    H5 7873   4.402   1.878   8.684 -0.5839  0.6595  0.7072
  522MPD2    N1 7874   3.929   1.809   8.662 -0.0082  0.0066 -0.2684
  522MPD2    H7 7875   3.841   1.808   8.613  0.0682 -1.9554 -0.3536
  523MPD2     C 7876   3.617   1.288   9.540  0.7070  0.7698  0.0505
  523MPD2    C1 7877   3.668   1.250   9.421 -0.0680  0.0288  0.1511
  523MPD2    C2 7878   3.656   1.334   9.307  0.1965  0.4268 -0.2866
  523MPD2    C3 7879   3.595   1.456   9.319 -0.4041 -0.6084 -0.3774
  523MPD2    C4 7880   3.531   1.490   9.436  0.3803  0.0645 -0.7675
  523MPD2    C5 7881   3.544   1.405   9.544  0.4785 -0.0443  0.6560
  523MPD2     H 7882   3.695   1.297   9.213  2.7951  2.8644 -0.1709
  523MPD2    H1 7883   3.480   1.585   9.449 -0.7209 -0.5710 -0.4544
  523MPD2    H2 7884   3.618   1.227   9.630  3.1837 -0.6023 -0.8959
  523MPD2    H3 7885   3.496   1.425   9.640  0.6128 -0.6953  0.8593
  523MPD2     N 7886   3.597   1.551   9.213 -0.0144 -0.0748 -0.2606
  523MPD2    H5 7887   3.530   1.627   9.222  1.3177  1.1072 -0.3643
  523MPD2    N1 7888   3.738   1.127   9.402  0.4581  0.2468 -0.5271
  523MPD2    H7 7889   3.781   1.102   9.313 -1.4253 -1.5065 -0.9420
  524MPD2     C 7890   2.382   4.762   9.669  0.3455  0.1324  0.6030
  524MPD2    C1 7891   2.402   0.007   9.540 -0.1503  0.1310  0.0280
  524MPD2    C2 7892   2.500   4.699   9.480  0.5001  0.1377  0.3018
  524MPD2    C3 7893   2.569   4.604   9.554  0.7305  0.0310  0.2954
  524MPD2    C4 7894   2.537   4.585   9.687 -0.0305 -0.4524  0.1683
  524MPD2    C5 7895   2.443   4.664   9.739  0.1701  0.9133  0.1078
  524MPD2     H 7896   2.525   4.711   9.375 -0.1225  0.2675  0.1713
  524MPD2    H1 7897   2.574   4.506   9.751 -1.2298 -2.1537 -1.2205
  524MPD2    H2 7898   2.320   0.056   9.725  0.4008 -0.0405  0.8790
  524MPD2    H3 7899   2.426   4.664   9.846  0.9491 -4.5814  0.2175
  524MPD2     N 7900   2.670   4.522   9.503  0.0356  0.0462 -0.2725
  524MPD2    H5 7901   2.724   4.462   9.565 -1.2083 -0.0335  0.7309
  524MPD2    N1 7902   2.339   0.115   9.473 -0.2279  0.1938 -0.0193
  524MPD2    H7 7903   2.285   0.174   9.535  1.8253  0.8794  1.1341
  525MPD2     C 7904   2.483   3.834   9.009 -0.1110 -0.0571 -0.0799
  525MPD2    C1 7905   2.563   3.908   8.926  0.4096  0.2640 -0.0833
  525MPD2    C2 7906   2.656   3.984   8.992  0.5413 -0.0734 -0.4608
  525MPD2    C3 7907   2.667   3.988   9.127  0.6646  0.4170  0.3752
  525MPD2    C4 7908   2.591   3.902   9.203  0.4319 -0.5349  0.7095
  525MPD2    C5 7909   2.497   3.829   9.146 -0.5246 -0.4321 -0.7643
  525MPD2     H 7910   2.734   4.044   8.946 -0.0244  0.4397 -0.7405
  525MPD2    H1 7911   2.599   3.894   9.311 -0.1039  0.1919  0.8036
  525MPD2    H2 7912   2.394   3.788   8.966 -0.7510  0.3666  0.8061
  525MPD2    H3 7913   2.427   3.764   9.198  1.7584 -1.4187  1.0139
  525MPD2     N 7914   2.760   4.075   9.180 -0.0750  0.2952 -0.0752
  525MPD2    H5 7915   2.796   4.143   9.113 -2.5596  0.3812 -1.3336
  525MPD2    N1 7916   2.536   3.907   8.789 -0.2074  0.0535  0.0563
  525MPD2    H7 7917   2.450   3.867   8.754  0.7384 -1.2566 -0.7461
  526MPD2     C 7918   2.975   4.627   8.775 -0.2623  0.2511  0.6342
  526MPD2    C1 7919   2.906   4.518   8.832  0.3277  0.1661 -0.2079
  526MPD2    C2 7920   2.796   4.471   8.765 -0.0652 -0.0931  1.1204
  526MPD2    C3 7921   2.749   4.532   8.647  0.4350 -0.4778  0.4790
  526MPD2    C4 7922   2.825   4.638   8.588  0.0783 -0.0318 -0.1456
  526MPD2    C5 7923   2.935   4.687   8.655 -1.0119 -0.7192 -0.1310
  526MPD2     H 7924   2.734   4.390   8.802 -0.8396  0.4663  1.0272
  526MPD2    H1 7925   2.793   4.684   8.495  1.4649  0.2518 -0.4713
  526MPD2    H2 7926   3.061   4.669   8.826 -2.4704  2.7292  2.3515
  526MPD2    H3 7927   2.996   4.766   8.611  0.1074 -0.9826  0.9419
  526MPD2     N 7928   2.626   4.484   8.595 -0.1845 -0.2056 -0.2897
  526MPD2    H5 7929   2.582   4.400   8.630 -0.6131 -0.1372 -0.6720
  526MPD2    N1 7930   2.947   4.486   8.965 -0.1074  0.3619 -0.6762
  526MPD2    H7 7931   3.012   4.549   9.011 -1.4568  0.8141  0.6076
  527MPD2     C 7932   4.629   2.501   9.078 -0.1071  0.0286  0.6314
  527MPD2    C1 7933   4.589   2.391   9.149  0.5634 -0.5418  0.0135
  527MPD2    C2 7934   4.662   2.348   9.255 -0.6804  0.2844 -0.1475
  527MPD2    C3 7935   4.769   2.425   9.307  0.8528  0.1085 -0.0138
  527MPD2    C4 7936   0.033   2.529   9.226  0.3640  0.5699  0.4544
  527MPD2    C5 7937   4.739   2.569   9.108  0.0068 -0.2390  0.3875
  527MPD2     H 7938   4.629   2.262   9.313  0.0812 -0.5756 -0.9820
  527MPD2    H1 7939   0.115   2.594   9.256 -1.0762  2.1348  1.0239
  527MPD2    H2 7940   4.582   2.539   8.988 -0.2467  0.3233  0.8293
  527MPD2    H3 7941   4.764   2.660   9.055  0.0466 -0.7881 -0.5409
  527MPD2     N 7942   0.067   2.396   9.423 -0.1403 -0.2427  0.2811
  527MPD2    H5 7943   0.122   2.473   9.460  0.6974 -0.7237  0.0436
  527MPD2    N1 7944   4.477   2.309   9.108  0.1632 -0.3526  0.2890
  527MPD2    H7 7945   4.453   2.236   9.174 -1.2437  0.0087  0.1762
  528MPD2     C 7946   0.775   1.771   9.422 -0.2885  0.4943 -0.0940
  528MPD2    C1 7947   0.736   1.881   9.347 -0.1717  0.4740 -0.0793
  528MPD2    C2 7948   0.623   1.944   9.392 -0.5138  0.2087  0.2590
  528MPD2    C3 7949   0.563   1.918   9.510  0.4481 -0.3405 -0.6614
  528MPD2    C4 7950   0.592   1.799   9.573  0.7480 -0.1192 -0.1515
  528MPD2    C5 7951   0.699   1.721   9.522  0.6852 -0.0460 -0.4400
  528MPD2     H 7952   0.596   2.033   9.336  1.6580  0.6804 -0.0119
  528MPD2    H1 7953   0.545   1.761   9.663  0.3245 -0.6416 -0.5887
  528MPD2    H2 7954   0.862   1.717   9.387 -0.8773  1.9932 -3.7925
  528MPD2    H3 7955   0.736   1.638   9.581  0.1347  0.8838  1.1967
  528MPD2     N 7956   0.454   2.001   9.547 -0.1377 -0.4467  0.1230
  528MPD2    H5 7957   0.427   2.082   9.492 -0.6478 -1.0926 -0.5802
  528MPD2    N1 7958   0.817   1.913   9.231  0.2383 -0.5142  0.3094
  528MPD2    H7 7959   0.893   1.847   9.215 -0.1039 -0.6111 -0.8885
  529MPD2     C 7960   2.384   4.150  10.719 -0.7324 -0.4359  0.3559
  529MPD2    C1 7961   2.330   4.051  10.784 -0.2296 -0.2825  0.0261
  529MPD2    C2 7962   2.389   3.923  10.773 -0.2113  0.0914 -0.2468
  529MPD2    C3 7963   2.501   3.902  10.683 -0.4879  0.2697  0.6274
  529MPD2    C4 7964   2.551   4.014  10.616 -0.8491  0.0924 -0.2043
  529MPD2    C5 7965   2.491   4.135  10.632  0.0017 -0.4056  0.5759
  529MPD2     H 7966   2.370   3.830  10.825 -0.1423  0.4453  0.4106
  529MPD2    H1 7967   2.640   4.012  10.554 -0.8814 -0.7026 -0.2263
  529MPD2    H2 7968   2.329   4.243  10.715 -0.3084 -0.3018 -2.2817
  529MPD2    H3 7969   2.537   4.221  10.583 -1.2858 -1.2818 -2.1748
  529MPD2     N 7970   2.559   3.766  10.672  0.4039 -0.4633  0.5584
  529MPD2    H5 7971   2.515   3.691  10.723 -1.6810  0.1195 -0.4110
  529MPD2    N1 7972   2.208   4.070  10.858  0.0282 -0.3857 -0.3538
  529MPD2    H7 7973   2.154   4.154  10.842  3.8834  2.2738  0.3306
  530MPD2     C 7974   2.107   3.474  10.746 -0.5482  0.2492  1.0245
  530MPD2    C1 7975   2.073   3.587  10.678  0.5038 -0.0715  0.4107
  530MPD2    C2 7976   2.143   3.624  10.568 -0.1149 -0.2536 -1.1849
  530MPD2    C3 7977   2.247   3.552  10.524  0.9559 -0.1924 -0.3892
  530MPD2    C4 7978   2.282   3.435  10.595  0.0588 -0.4383 -0.4769
  530MPD2    C5 7979   2.217   3.401  10.704 -0.6681 -0.0874  0.3865
  530MPD2     H 7980   2.120   3.718  10.519 -2.2847 -0.6819 -0.9936
  530MPD2    H1 7981   2.368   3.372  10.577  0.6777 -0.2556  1.9563
  530MPD2    H2 7982   2.045   3.443  10.829 -1.2152 -0.0934  0.3940
  530MPD2    H3 7983   2.248   3.313  10.760  0.3607 -0.6665 -1.1119
  530MPD2     N 7984   2.319   3.602  10.413 -0.3505 -0.2734  0.1656
  530MPD2    H5 7985   2.295   3.697  10.385  0.8109 -0.0568 -0.0702
  530MPD2    N1 7986   1.979   3.672  10.748 -0.0078 -0.3909  0.3945
  530MPD2    H7 7987   1.940   3.639  10.835 -0.0073  1.2766  1.0173
  531MPD2     C 7988   2.080   3.430  11.154  0.3000 -0.3198  0.6234
  531MPD2    C1 7989   2.131   3.554  11.127 -0.8347  0.4411 -0.2371
  531MPD2    C2 7990   2.269   3.561  11.095  0.0371 -0.9244  0.0564
  531MPD2    C3 7991   2.344   3.446  11.106 -0.2483 -0.8001 -0.8811
  531MPD2    C4 7992   2.287   3.332  11.154 -0.5861 -0.4915 -0.1661
  531MPD2    C5 7993   2.151   3.319  11.175  0.1871  0.4359  0.1279
  531MPD2     H 7994   2.316   3.659  11.093  0.5818 -1.2284 -2.0210
  531MPD2    H1 7995   2.351   3.245  11.164 -0.4717 -0.1896  1.6877
  531MPD2    H2 7996   1.977   3.423  11.184  0.6393  1.8902  2.3549
  531MPD2    H3 7997   2.099   3.237  11.223 -1.0897  0.3437 -1.4351
  531MPD2     N 7998   2.480   3.436  11.073 -0.2745 -0.1409  0.7284
  531MPD2    H5 7999   2.519   3.343  11.082 -0.3217 -0.2054  0.2428
  531MPD2    N1 8000   2.060   3.671  11.117  0.3847  0.0546 -0.4180
  531MPD2    H7 8001   2.108   3.756  11.087  0.6528 -0.2265 -0.7889
  532MPD2     C 8002   4.079   2.820   6.478  0.0334  0.0547  0.0183
  532MPD2    C1 8003   4.044   2.926   6.558  0.4830  0.5644 -0.2432
  532MPD2    C2 8004   3.978   2.907   6.677 -0.0243  0.4347  0.2126
  532MPD2    C3 8005   3.963   2.781   6.722 -0.1243 -0.3629  1.0430
  532MPD2    C4 8006   4.001   2.670   6.647  0.5827  0.2916  0.5088
  532MPD2    C5 8007   4.054   2.691   6.520  1.1765 -0.1576 -0.4318
  532MPD2     H 8008   3.941   2.990   6.736 -1.6726  0.6107 -1.0841
  532MPD2    H1 8009   3.988   2.565   6.671  0.9294 -0.6758 -3.3951
  532MPD2    H2 8010   4.129   2.837   6.383  0.5165  0.9528  0.4245
  532MPD2    H3 8011   4.072   2.608   6.454  3.3236 -1.1512  1.4126
  532MPD2     N 8012   3.907   2.773   6.852 -0.0759 -0.3179 -0.0814
  532MPD2    H5 8013   3.867   2.857   6.892  0.0247  0.3409 -1.3925
  532MPD2    N1 8014   4.078   3.065   6.535  0.4524 -0.4850 -0.0633
  532MPD2    H7 8015   4.051   3.130   6.608 -1.3662  0.3371 -1.4583
  533MPD2     C 8016   2.257   2.372  10.734 -0.0656 -0.1822 -0.4921
  533MPD2    C1 8017   2.238   2.457  10.837 -0.2469 -0.1661 -0.3841
  533MPD2    C2 8018   2.114   2.471  10.898 -0.2512  0.5829 -0.8335
  533MPD2    C3 8019   2.016   2.380  10.868 -0.2816  0.1171 -0.3515
  533MPD2    C4 8020   2.038   2.279  10.781  0.4267 -0.2763  0.3349
  533MPD2    C5 8021   2.151   2.289  10.701  0.2888 -0.0288 -0.0602
  533MPD2     H 8022   2.097   2.543  10.977  0.9365 -1.1375  1.0106
  533MPD2    H1 8023   1.972   2.194  10.763 -0.5741  0.4405  0.6070
  533MPD2    H2 8024   2.345   2.349  10.675  0.3632 -0.1332  0.1404
  533MPD2    H3 8025   2.157   2.214  10.623 -2.2218  0.7086 -0.9859
  533MPD2     N 8026   1.885   2.383  10.928  0.0609 -0.9129 -0.3316
  533MPD2    H5 8027   1.826   2.308  10.894 -0.5659  0.2784 -1.8536
  533MPD2    N1 8028   2.336   2.539  10.891 -0.6082 -0.3085 -0.7095
  533MPD2    H7 8029   2.316   2.595  10.973  1.9285 -1.1853  0.5310
  534MPD2     C 8030   2.418   2.814  11.537  0.0357  0.0374 -0.3265
  534MPD2    C1 8031   2.519   2.728  11.496 -0.6284  0.7495 -0.3612
  534MPD2    C2 8032   2.610   2.689  11.596  0.8875  0.0769 -0.1650
  534MPD2    C3 8033   2.609   2.737  11.724 -0.2026 -0.0137  0.0407
  534MPD2    C4 8034   2.503   2.818  11.759 -0.2591 -0.7615  0.1282
  534MPD2    C5 8035   2.409   2.857  11.669  0.5996  0.2034  0.2152
  534MPD2     H 8036   2.692   2.629  11.556  0.1533 -1.3224  0.4303
  534MPD2    H1 8037   2.503   2.864  11.857 -2.9341  1.8010 -1.0758
  534MPD2    H2 8038   2.352   2.862  11.466 -1.2510 -1.8881 -0.4290
  534MPD2    H3 8039   2.343   2.935  11.704  0.4716  0.0352  0.3500
  534MPD2     N 8040   2.721   2.697  11.810 -0.2710  0.0684 -0.0694
  534MPD2    H5 8041   2.790   2.632  11.774 -1.6421 -1.6349  0.3480
  534MPD2    N1 8042   2.542   2.700  11.357 -0.2433  0.2240  0.1531
  534MPD2    H7 8043   2.628   2.650  11.335 -0.3302  0.3020 -0.3581
  535MPD2     C 8044   1.099   4.170   7.192  0.2332 -0.5561 -0.0785
  535MPD2    C1 8045   1.049   4.106   7.297 -0.0858  0.2946 -0.0316
  535MPD2    C2 8046   0.995   4.180   7.402  0.7285  0.3088  0.3491
  535MPD2    C3 8047   1.013   4.315   7.408 -0.1528  0.6624  0.2311
  535MPD2    C4 8048   1.068   4.383   7.297 -0.3933 -0.1238 -0.2637
  535MPD2    C5 8049   1.116   4.305   7.191  0.7167 -0.6178 -0.1519
  535MPD2     H 8050   0.966   4.119   7.486 -2.1295  4.2718  2.2086
  535MPD2    H1 8051   1.088   4.490   7.302  0.3350 -0.2293 -0.8858
  535MPD2    H2 8052   1.126   4.121   7.098 -0.6714  0.0670 -0.6642
  535MPD2    H3 8053   1.165   4.346   7.103  0.6724 -1.7954 -0.7221
  535MPD2     N 8054   0.960   4.386   7.520  0.9188  0.4545  0.5905
  535MPD2    H5 8055   0.934   4.329   7.600 -0.7661 -1.6502 -1.4414
  535MPD2    N1 8056   1.046   3.961   7.295  0.9926 -0.3185 -0.1555
  535MPD2    H7 8057   0.983   3.918   7.362  1.7025 -0.7326  0.2403
  536MPD2     C 8058   1.674   3.270   6.858 -0.2274 -0.1246  0.7203
  536MPD2    C1 8059   1.551   3.243   6.801 -0.0473 -0.5127  0.1935
  536MPD2    C2 8060   1.443   3.321   6.847  0.3933 -0.2089  0.6288
  536MPD2    C3 8061   1.462   3.408   6.957 -0.2414  0.0977 -0.1295
  536MPD2    C4 8062   1.586   3.430   7.007 -1.2122 -0.2851 -0.4062
  536MPD2    C5 8063   1.692   3.360   6.954 -0.2400  0.2628  0.5271
  536MPD2     H 8064   1.344   3.314   6.805  1.4575 -3.4630 -1.3863
  536MPD2    H1 8065   1.606   3.497   7.089  0.1546 -0.3644 -0.6884
  536MPD2    H2 8066   1.755   3.200   6.838 -1.6300 -1.2019 -1.1107
  536MPD2    H3 8067   1.784   3.388   7.005  1.1225 -2.9640 -0.1732
  536MPD2     N 8068   1.359   3.476   7.031 -0.4285  0.5135 -0.0867
  536MPD2    H5 8069   1.383   3.545   7.102  0.5796  0.5628 -0.4783
  536MPD2    N1 8070   1.545   3.142   6.706  0.2781 -0.7948  0.2707
  536MPD2    H7 8071   1.615   3.070   6.720 -0.2636 -1.4221 -0.2535
  537MPD2     C 8072   3.732   2.440   6.600  0.1348 -0.3084 -0.0547
  537MPD2    C1 8073   3.695   2.419   6.729  0.3115  0.1721 -0.3781
  537MPD2    C2 8074   3.582   2.480   6.777 -0.3036  0.5254  0.1716
  537MPD2    C3 8075   3.509   2.570   6.696 -0.6207 -0.7876 -0.2772
  537MPD2    C4 8076   3.549   2.588   6.565 -0.2928 -0.0203  0.2207
  537MPD2    C5 8077   3.657   2.521   6.517  0.3072 -0.3851 -0.4043
  537MPD2     H 8078   3.564   2.470   6.883 -0.6985 -2.0940 -0.1476
  537MPD2    H1 8079   3.486   2.640   6.494 -0.3620 -1.3217 -0.6723
  537MPD2    H2 8080   3.809   2.383   6.548  0.0526  0.9874 -1.6204
  537MPD2    H3 8081   3.687   2.535   6.413 -0.5376  0.1826 -0.5750
  537MPD2     N 8082   3.405   2.648   6.754  1.0855  0.3225 -0.1394
  537MPD2    H5 8083   3.365   2.712   6.686  1.8816  0.6593 -0.2998
  537MPD2    N1 8084   3.771   2.335   6.811 -0.3183  0.3975  0.0602
  537MPD2    H7 8085   3.743   2.320   6.907  3.2930 -1.7030  0.7998
  538MPD2     C 8086   1.285   1.404   7.717 -0.8945 -0.2170 -0.4658
  538MPD2    C1 8087   1.276   1.526   7.784 -1.0413 -0.1682  0.4387
  538MPD2    C2 8088   1.380   1.613   7.771  0.6646 -0.2686  0.0273
  538MPD2    C3 8089   1.491   1.589   7.689 -0.1506  0.0298  1.0025
  538MPD2    C4 8090   1.481   1.475   7.611 -0.1154 -0.1431  0.1181
  538MPD2    C5 8091   1.388   1.378   7.630 -0.2239  0.2823  0.4890
  538MPD2     H 8092   1.377   1.706   7.828 -2.5401 -0.7211  0.6411
  538MPD2    H1 8093   1.558   1.447   7.540 -2.5716 -1.3833 -2.0355
  538MPD2    H2 8094   1.217   1.320   7.726 -1.3458  0.2444  0.4623
  538MPD2    H3 8095   1.391   1.287   7.572  1.4116 -0.7990  2.3100
  538MPD2     N 8096   1.594   1.684   7.681  0.1704 -0.0728  0.3250
  538MPD2    H5 8097   1.576   1.762   7.744  2.2725 -1.6123  2.8480
  538MPD2    N1 8098   1.170   1.561   7.864  0.0925 -0.0211 -0.1015
  538MPD2    H7 8099   1.170   1.654   7.904  0.9405  0.1327 -0.4664
  539MPD2     C 8100   2.454   1.624   7.199 -0.0670  0.1106 -0.4044
  539MPD2    C1 8101   2.421   1.567   7.320 -0.3119 -0.2521  0.3323
  539MPD2    C2 8102   2.323   1.623   7.395  0.2172  0.3107  0.2271
  539MPD2    C3 8103   2.246   1.733   7.354  0.1879  0.0134 -0.3197
  539MPD2    C4 8104   2.279   1.792   7.233 -0.1363  0.0056  0.1959
  539MPD2    C5 8105   2.386   1.741   7.164  0.2791 -0.3726  0.3604
  539MPD2     H 8106   2.294   1.576   7.488 -1.9905  1.4458  0.1066
  539MPD2    H1 8107   2.227   1.875   7.186 -1.8092 -0.9857  0.2903
  539MPD2    H2 8108   2.533   1.598   7.129 -1.1626 -3.9409 -0.1368
  539MPD2    H3 8109   2.402   1.780   7.064  1.7523  1.8590  1.4335
  539MPD2     N 8110   2.140   1.779   7.436 -0.8951  0.6903 -0.0146
  539MPD2    H5 8111   2.127   1.732   7.524 -0.9371  0.9570  0.1230
  539MPD2    N1 8112   2.495   1.452   7.357 -0.7106 -0.7126 -0.1740
  539MPD2    H7 8113   2.557   1.416   7.285  0.4091  0.9344 -0.0422
  540MPD2     C 8114   2.587   2.887  12.611  0.2626  0.1803  0.4915
  540MPD2    C1 8115   2.686   2.884  12.516  0.0081  0.6514  0.1240
  540MPD2    C2 8116   2.687   2.971  12.408  0.4965  0.3534  0.2943
  540MPD2    C3 8117   2.569   3.033  12.380 -0.6555 -0.2581  0.1816
  540MPD2    C4 8118   2.461   3.026  12.461 -0.0504 -0.4463  0.0335
  540MPD2    C5 8119   2.477   2.963  12.579  0.1203 -0.0256  0.0319
  540MPD2     H 8120   2.775   2.985  12.346 -0.6174  1.1117 -1.1303
  540MPD2    H1 8121   2.371   3.081  12.437  0.3237  0.5869  0.9331
  540MPD2    H2 8122   2.587   2.820  12.696  1.1909 -2.0744 -1.2758
  540MPD2    H3 8123   2.399   2.959  12.654 -0.2422  0.1900 -0.3350
  540MPD2     N 8124   2.551   3.119  12.265 -0.3583  0.5556 -0.6189
  540MPD2    H5 8125   2.460   3.163  12.254 -0.6018 -0.3502 -2.2752
  540MPD2    N1 8126   2.805   2.811  12.539 -0.5560  0.2387 -0.3130
  540MPD2    H7 8127   2.876   2.824  12.468 -1.6947 -0.1136 -1.5200
  541MPD2     C 8128   3.276   2.108  12.651  0.1826  0.0372 -0.2972
  541MPD2    C1 8129   3.271   2.188  12.542 -0.3932 -0.1002  0.1065
  541MPD2    C2 8130   3.317   2.146  12.419 -1.2056 -0.1640 -0.1724
  541MPD2    C3 8131   3.369   2.022  12.408  0.8677 -0.6682  0.2400
  541MPD2    C4 8132   3.377   1.943  12.524 -0.1275  0.0301  0.1007
  541MPD2    C5 8133   3.332   1.988  12.644 -0.0928 -0.7751 -0.3376
  541MPD2     H 8134   3.305   2.196  12.324 -1.1319  0.6003  0.2153
  541MPD2    H1 8135   3.405   1.839  12.519  1.3076  0.3853  0.5164
  541MPD2    H2 8136   3.239   2.142  12.748  0.4540  0.1221 -0.2245
  541MPD2    H3 8137   3.337   1.929  12.736  1.8551 -0.6307 -0.3473
  541MPD2     N 8138   3.408   1.979  12.278  0.1198  1.0937  0.1854
  541MPD2    H5 8139   3.374   2.037  12.201 -0.3639 -1.5959 -1.6329
  541MPD2    N1 8140   3.231   2.323  12.550  0.8755 -0.0179 -0.2516
  541MPD2    H7 8141   3.233   2.375  12.463  0.1547 -2.7711 -1.9423
  542MPD2     C 8142   0.970   3.850  12.219  0.0847 -0.9862  0.5985
  542MPD2    C1 8143   0.862   3.803  12.143 -0.1101 -0.2139 -0.0497
  542MPD2    C2 8144   0.764   3.723  12.197  0.3897 -0.4684 -1.2920
  542MPD2    C3 8145   0.785   3.682  12.328 -0.4915  0.0210 -0.7338
  542MPD2    C4 8146   0.885   3.739  12.408  0.4865 -0.0212 -0.4899
  542MPD2    C5 8147   0.980   3.820  12.349  0.6997  0.1788 -0.8257
  542MPD2     H 8148   0.697   3.666  12.133 -1.3707 -0.5715  0.6465
  542MPD2    H1 8149   0.894   3.709  12.511  2.7611 -1.1327 -1.0123
  542MPD2    H2 8150   1.037   3.930  12.189 -1.3168 -0.6485 -1.6674
  542MPD2    H3 8151   1.063   3.859  12.407 -0.9363  1.7897  0.4352
  542MPD2     N 8152   0.733   3.562  12.378  0.1909  0.6559 -0.2788
  542MPD2    H5 8153   0.780   3.519  12.457 -0.8855  1.2230  0.6635
  542MPD2    N1 8154   0.874   3.835  12.003 -0.3682 -0.2156  0.2162
  542MPD2    H7 8155   0.957   3.880  11.966  0.4464 -0.4459  1.7787
  543MPD2     C 8156   0.737   4.577  11.968 -0.4906 -0.3186 -0.0824
  543MPD2    C1 8157   0.803   4.457  11.979  0.1308 -0.0564 -0.2691
  543MPD2    C2 8158   0.865   4.428  12.100  1.0095 -0.2896 -0.1758
  543MPD2    C3 8159   0.848   4.512  12.210  0.2345  0.4354 -0.3307
  543MPD2    C4 8160   0.781   4.628  12.194  0.1696  0.0126  0.1892
  543MPD2    C5 8161   0.726   4.659  12.077 -0.2593  0.4047 -0.2071
  543MPD2     H 8162   0.911   4.331  12.119 -0.8815 -1.5699 -2.2708
  543MPD2    H1 8163   0.771   4.694  12.279 -0.4717 -1.2234  1.0670
  543MPD2    H2 8164   0.665   4.602  11.891 -1.8661 -0.2584  1.2214
  543MPD2    H3 8165   0.669   4.751  12.076  0.6414  0.9795  0.9032
  543MPD2     N 8166   0.889   4.458  12.339  0.3702 -0.4229  0.5360
  543MPD2    H5 8167   0.934   4.367  12.342  2.4815  0.6609  2.0414
  543MPD2    N1 8168   0.803   4.363  11.871 -0.1021  0.0646  0.1208
  543MPD2    H7 8169   0.716   4.364  11.818  0.1581 -2.0984 -0.3492
  544MPD2     C 8170   0.167   4.076  11.666 -0.2551 -0.2987 -0.2207
  544MPD2    C1 8171   0.244   3.988  11.731  0.0276 -0.0592 -0.4066
  544MPD2    C2 8172   0.182   3.874  11.792 -0.4309  0.2067 -0.0474
  544MPD2    C3 8173   0.043   3.858  11.776  0.3823 -0.0131  0.3892
  544MPD2    C4 8174   4.744   3.951  11.701 -0.1833  0.7979  0.2414
  544MPD2    C5 8175   0.035   4.055  11.646 -0.0569 -0.2861  0.0533
  544MPD2     H 8176   0.224   3.797  11.854  0.7967  1.8707  1.1733
  544MPD2    H1 8177   4.635   3.946  11.706 -0.0793 -1.9610 -0.5233
  544MPD2    H2 8178   0.201   4.175  11.636 -1.0687 -0.9998 -3.5309
  544MPD2    H3 8179   4.754   4.139  11.608 -1.5831 -1.1991  0.3335
  544MPD2     N 8180   4.763   3.736  11.819  0.4158  0.1486  0.5735
  544MPD2    H5 8181   0.040   3.685  11.888  0.6828 -1.1171 -0.5555
  544MPD2    N1 8182   0.386   3.998  11.741 -0.0782 -0.6138  0.1380
  544MPD2    H7 8183   0.425   3.928  11.804  1.5505  1.1639  1.1305
  545MPD2     C 8184   1.248   0.506   6.655 -0.0625  0.1315  0.1937
  545MPD2    C1 8185   1.248   0.486   6.792 -0.7523 -0.1669 -0.2358
  545MPD2    C2 8186   1.356   0.537   6.863 -0.4994 -0.8663  0.1583
  545MPD2    C3 8187   1.460   0.608   6.802 -0.3799 -1.3272 -0.3533
  545MPD2    C4 8188   1.445   0.634   6.661  0.0356  0.1709  0.0726
  545MPD2    C5 8189   1.345   0.577   6.593 -0.7252 -0.5611 -0.1511
  545MPD2     H 8190   1.364   0.519   6.970  2.4218  1.2722  0.3067
  545MPD2    H1 8191   1.517   0.687   6.600 -0.6539 -0.3255 -1.1811
  545MPD2    H2 8192   1.168   0.466   6.594 -0.7397 -1.1089  1.8922
  545MPD2    H3 8193   1.353   0.578   6.485 -0.4630  0.0144 -0.1306
  545MPD2     N 8194   1.572   0.668   6.865  0.3652 -0.1156 -0.4252
  545MPD2    H5 8195   1.640   0.707   6.800 -0.0990 -0.7397 -1.2761
  545MPD2    N1 8196   1.147   0.406   6.851 -0.5004 -0.7627 -0.4494
  545MPD2    H7 8197   1.089   0.361   6.781 -1.0078 -2.6814  1.2227
  546MPD2     C 8198   0.597   0.188   7.769 -0.3331 -0.0209 -0.0181
  546MPD2    C1 8199   0.623   0.307   7.705  0.0851  0.2496  0.7237
  546MPD2    C2 8200   0.655   0.311   7.573  0.0836 -0.4155 -0.1447
  546MPD2    C3 8201   0.663   0.198   7.501  0.2594 -0.0099 -0.1259
  546MPD2    C4 8202   0.616   0.083   7.559  0.5018  0.2296 -0.0858
  546MPD2    C5 8203   0.590   0.082   7.691 -0.0261  0.4975  0.3323
  546MPD2     H 8204   0.692   0.404   7.530  0.4016  0.9999  3.1731
  546MPD2    H1 8205   0.607   4.768   7.500 -0.5697 -0.2174  0.7612
  546MPD2    H2 8206   0.575   0.191   7.875 -1.8629 -1.2248 -0.2942
  546MPD2    H3 8207   0.544   4.770   7.735 -2.2017  0.6292 -1.6845
  546MPD2     N 8208   0.715   0.185   7.372  0.1880 -0.4204 -0.1660
  546MPD2    H5 8209   0.724   0.097   7.323  0.8340 -0.0282 -0.7539
  546MPD2    N1 8210   0.635   0.432   7.780  0.3155  0.2160  0.0945
  546MPD2    H7 8211   0.649   0.418   7.880 -1.0424  1.3651  0.4483
  547MPD2     C 8212   2.662   2.125  11.241  0.1565  0.1247  0.2229
  547MPD2    C1 8213   2.582   2.216  11.191 -0.5462 -0.0594 -0.3050
  547MPD2    C2 8214   2.591   2.244  11.049 -0.3512 -0.7000  0.4535
  547MPD2    C3 8215   2.685   2.181  10.970 -0.0717 -0.0911 -0.2635
  547MPD2    C4 8216   2.773   2.088  11.030 -0.0398 -0.2422 -0.6213
  547MPD2    C5 8217   2.761   2.060  11.166  0.0503 -0.4993 -0.5865
  547MPD2     H 8218   2.527   2.315  10.997 -0.2460 -0.0930  1.1408
  547MPD2    H1 8219   2.848   2.039  10.970 -0.3897 -1.5133 -0.0311
  547MPD2    H2 8220   2.651   2.115  11.348  2.4382 -1.4030  0.3053
  547MPD2    H3 8221   2.828   1.993  11.217 -1.5548 -0.8954  1.0045
  547MPD2     N 8222   2.692   2.222  10.833  0.2183 -0.2079  0.4234
  547MPD2    H5 8223   2.619   2.284  10.801  0.6065  0.9338  1.7628
  547MPD2    N1 8224   2.488   2.280  11.276  0.1630 -0.1530  0.4413
  547MPD2    H7 8225   2.495   2.261  11.375 -0.5140  0.4676  0.6075
  548MPD2     C 8226   3.303   2.436  10.495  0.2459  0.2789  0.0741
  548MPD2    C1 8227   3.203   2.415  10.402 -0.4449 -0.1924  0.3440
  548MPD2    C2 8228   3.202   2.503  10.301  0.1031  0.0485 -0.1144
  548MPD2    C3 8229   3.304   2.596  10.273 -0.5138  0.7819  0.2893
  548MPD2    C4 8230   3.400   2.615  10.370  0.2693  0.0277  0.7417
  548MPD2    C5 8231   3.402   2.536  10.479  0.2806 -0.7962  0.1835
  548MPD2     H 8232   3.117   2.502  10.235 -0.3571 -0.8301  0.4994
  548MPD2    H1 8233   3.475   2.694  10.364  0.7347 -0.4738 -0.0380
  548MPD2    H2 8234   3.302   2.382  10.588  1.3555 -1.6234 -1.0154
  548MPD2    H3 8235   3.487   2.552  10.545 -1.2452 -1.1687  2.2302
  548MPD2     N 8236   3.284   2.673  10.160  0.2713  0.0186  0.1550
  548MPD2    H5 8237   3.209   2.667  10.092 -0.2509  0.2738  0.7064
  548MPD2    N1 8238   3.098   2.323  10.428 -0.4920  0.1566 -0.1839
  548MPD2    H7 8239   3.093   2.280  10.520 -0.5267  1.6894  0.5332
  549MPD2     C 8240   2.148   4.240  13.530  0.0134  0.0173  0.4738
  549MPD2    C1 8241   2.012   4.270  13.507 -0.2676  0.6649 -0.8232
  549MPD2    C2 8242   1.915   4.194  13.576 -0.3995  0.1593  0.5028
  549MPD2    C3 8243   1.959   4.088  13.661  0.6145 -0.2766  0.3452
  549MPD2    C4 8244   2.096   4.076  13.697 -0.2045  0.5057 -0.5450
  549MPD2    C5 8245   2.189   4.155  13.631  0.0036 -0.3253  1.1266
  549MPD2     H 8246   1.812   4.211  13.550  0.6050  2.5290 -1.9380
  549MPD2    H1 8247   2.141   3.995  13.752 -0.5927  0.5989 -0.0864
  549MPD2    H2 8248   2.228   4.279  13.469  0.9097 -0.8897  1.0664
  549MPD2    H3 8249   2.293   4.133  13.651  0.5911  0.8826 -0.5741
  549MPD2     N 8250   1.869   3.986  13.711  0.3672 -0.6967  0.2091
  549MPD2    H5 8251   1.907   3.908  13.763  1.6209 -1.0350 -1.2357
  549MPD2    N1 8252   1.972   4.348  13.401  0.8699 -0.6965  0.4080
  549MPD2    H7 8253   1.873   4.343  13.382  0.8040 -0.0117  0.5958
  550MPD2     C 8254   0.880   4.033  13.809 -0.0637  0.3230 -0.2794
  550MPD2    C1 8255   0.930   3.932  13.888 -0.5717  0.1919  0.2911
  550MPD2    C2 8256   1.056   3.880  13.858 -0.1872  0.1026 -0.1490
  550MPD2    C3 8257   1.132   3.931  13.753  1.0243 -0.5914 -0.1413
  550MPD2    C4 8258   1.078   4.025  13.668 -0.2854 -0.3672  0.4444
  550MPD2    C5 8259   0.953   4.072  13.698 -1.0124  0.0896  0.4360
  550MPD2     H 8260   1.090   3.805  13.929 -0.1173  0.2444 -0.0317
  550MPD2    H1 8261   1.142   4.069  13.593  0.9886  0.0801  1.8009
  550MPD2    H2 8262   0.796   4.087  13.852  0.4437  2.5948 -2.2005
  550MPD2    H3 8263   0.921   4.155  13.637 -2.0732  0.5534  1.6369
  550MPD2     N 8264   1.264   3.891  13.737 -0.1141 -0.3279  0.2216
  550MPD2    H5 8265   1.325   3.947  13.678  0.5389 -0.2959  0.9324
  550MPD2    N1 8266   0.850   3.885  13.999 -0.1629 -0.0707  0.0964
  550MPD2    H7 8267   0.762   3.931  14.019 -1.0430 -2.1485  1.0125
  551MPD2     C 8268   0.714   1.845   8.752  0.1242  0.9828 -0.0189
  551MPD2    C1 8269   0.741   1.925   8.641  0.2421 -0.2429  0.4076
  551MPD2    C2 8270   0.802   1.871   8.531 -0.0344  0.8432 -0.2352
  551MPD2    C3 8271   0.817   1.734   8.510 -0.9539  0.5729  0.8029
  551MPD2    C4 8272   0.779   1.656   8.616  0.3364 -0.8422  0.3703
  551MPD2    C5 8273   0.729   1.713   8.729 -0.2299  0.1346  0.4303
  551MPD2     H 8274   0.818   1.932   8.443 -0.8645  1.5424  0.0946
  551MPD2    H1 8275   0.784   1.548   8.608  0.8687 -0.7863 -0.0108
  551MPD2    H2 8276   0.666   1.873   8.846  1.4313  0.0361  0.9317
  551MPD2    H3 8277   0.719   1.633   8.802 -0.1082 -0.0183  0.2797
  551MPD2     N 8278   0.881   1.685   8.391  0.1438  0.0849  0.1325
  551MPD2    H5 8279   0.918   1.761   8.335 -0.5278 -1.4704 -2.4225
  551MPD2    N1 8280   0.733   2.068   8.650  0.0950  0.0690  0.0545
  551MPD2    H7 8281   0.764   2.119   8.567 -3.2067  1.2210 -0.4530
  552MPD2     C 8282   3.837   0.972  15.790  0.3549 -0.5530 -0.1961
  552MPD2    C1 8283   3.965   0.943  15.750  0.0758  0.2512 -0.0034
  552MPD2    C2 8284   3.988   0.847  15.649  0.3773  0.3094  0.1293
  552MPD2    C3 8285   3.885   0.797  15.576  0.2091 -0.8570  0.0856
  552MPD2    C4 8286   3.754   0.823  15.615  0.7956 -0.2718 -0.1416
  552MPD2    C5 8287   3.735   0.911  15.716 -0.2731 -0.0711 -0.1508
  552MPD2     H 8288   4.090   0.818  15.628 -0.0375 -0.2509 -1.1065
  552MPD2    H1 8289   3.666   0.792  15.560 -0.2276  0.9214  0.8352
  552MPD2    H2 8290   3.816   1.039  15.873  2.3190 -0.3061  0.1182
  552MPD2    H3 8291   3.637   0.949  15.743 -0.1320  0.7160 -0.7598
  552MPD2     N 8292   3.919   0.735  15.457 -0.5379  0.0190 -0.0934
  552MPD2    H5 8293   4.017   0.723  15.431 -0.3139 -1.4730  1.4180
  552MPD2    N1 8294   4.083   0.989  15.814 -0.1328  0.2183 -0.5984
  552MPD2    H7 8295   4.170   0.953  15.776 -0.4129 -0.2844 -0.7641
  553MPD2     C 8296   3.983   0.817   8.696 -0.2892  0.2489  0.2222
  553MPD2    C1 8297   4.016   0.921   8.775  0.4919 -0.3678 -0.3583
  553MPD2    C2 8298   3.975   0.918   8.912  0.1012 -0.2132 -0.9797
  553MPD2    C3 8299   3.913   0.806   8.965 -0.4445 -0.2563 -0.8890
  553MPD2    C4 8300   3.896   0.698   8.880 -0.2030  0.2620 -0.1121
  553MPD2    C5 8301   3.928   0.705   8.750  0.7599  0.2139  0.3851
  553MPD2     H 8302   3.996   1.008   8.970 -1.7101 -0.9812  0.9017
  553MPD2    H1 8303   3.851   0.602   8.902  1.0465  0.1013  1.7506
  553MPD2    H2 8304   4.009   0.829   8.592 -1.8299 -0.1648 -0.2102
  553MPD2    H3 8305   3.906   0.628   8.677 -0.7486  1.5666 -0.5904
  553MPD2     N 8306   3.860   0.811   9.095 -0.2859 -0.3998 -0.0091
  553MPD2    H5 8307   3.869   0.896   9.150  1.4331  0.1876 -1.2038
  553MPD2    N1 8308   4.059   1.038   8.711 -0.1024  0.0556 -0.1869
  553MPD2    H7 8309   4.068   1.035   8.610 -1.7836 -1.1174 -0.2911
  554MPD2     C 8310   1.285   0.743  11.182 -0.0056 -0.2325 -0.1472
  554MPD2    C1 8311   1.255   0.814  11.297  0.0053 -0.1280 -0.3831
  554MPD2    C2 8312   1.141   0.892  11.294  0.1730  0.6270  0.0575
  554MPD2    C3 8313   1.066   0.898  11.176  0.7195 -0.3804  0.4465
  554MPD2    C4 8314   1.093   0.809  11.077 -0.3249 -0.6314  0.4700
  554MPD2    C5 8315   1.203   0.733  11.077  0.0494  0.3761  0.5655
  554MPD2     H 8316   1.100   0.926  11.389 -1.9683 -0.5444 -0.4527
  554MPD2    H1 8317   1.036   0.805  10.985 -1.8477  0.2727  1.3679
  554MPD2    H2 8318   1.370   0.676  11.177  0.2349  0.2426 -2.1805
  554MPD2    H3 8319   1.216   0.679  10.984 -0.8724 -0.5380  0.9615
  554MPD2     N 8320   0.940   0.974  11.159  0.1846 -0.9720  0.5779
  554MPD2    H5 8321   0.890   0.967  11.071 -0.9773 -0.5497  1.2026
  554MPD2    N1 8322   1.348   0.793  11.405 -0.1094 -0.1020 -0.7766
  554MPD2    H7 8323   1.427   0.732  11.387  0.7277  0.7687 -0.0856
  555MPD2     C 8324   1.729   0.523  12.183 -0.1228 -0.7261  0.3808
  555MPD2    C1 8325   1.611   0.579  12.134  0.5621 -0.0097  0.2134
  555MPD2    C2 8326   1.513   0.618  12.222 -0.9130 -0.6469 -0.4058
  555MPD2    C3 8327   1.524   0.597  12.356  0.6319  0.1691 -0.0751
  555MPD2    C4 8328   1.645   0.547  12.403 -0.0450  0.9705 -0.0549
  555MPD2    C5 8329   1.740   0.506  12.316 -0.7732 -0.0011 -0.7089
  555MPD2     H 8330   1.423   0.671  12.193  0.2643  2.4914  1.6663
  555MPD2    H1 8331   1.682   0.555  12.505 -1.6994  0.1446  0.6183
  555MPD2    H2 8332   1.811   0.493  12.119  0.7233  2.4779 -0.0632
  555MPD2    H3 8333   1.830   0.456  12.351  0.0329  1.6493 -0.4226
  555MPD2     N 8334   1.417   0.637  12.435  0.4572 -0.6591 -0.0413
  555MPD2    H5 8335   1.333   0.680  12.398  0.8511  0.6806  0.6370
  555MPD2    N1 8336   1.599   0.602  12.001 -0.3162  0.1598 -0.0378
  555MPD2    H7 8337   1.668   0.560  11.939  0.2495 -0.9839  1.3735
  556MPD2     C 8338   0.639   0.676  13.517  0.1443 -0.2699 -0.6352
  556MPD2    C1 8339   0.612   0.575  13.606 -0.1633 -0.4792 -0.4507
  556MPD2    C2 8340   0.546   0.595  13.722 -0.3137  0.3787  0.0973
  556MPD2    C3 8341   0.507   0.717  13.752 -0.0167  0.4671  0.0904
  556MPD2    C4 8342   0.530   0.821  13.666  0.3625 -0.4004  0.4350
  556MPD2    C5 8343   0.585   0.800  13.546 -0.2808 -0.9900 -0.4334
  556MPD2     H 8344   0.539   0.518  13.798 -0.0093  0.9584  0.7119
  556MPD2    H1 8345   0.503   0.924  13.687 -1.2734 -0.5772 -0.7130
  556MPD2    H2 8346   0.694   0.674  13.424  0.8510  1.1874 -0.2509
  556MPD2    H3 8347   0.594   0.881  13.474  0.3904 -0.8174 -0.1551
  556MPD2     N 8348   0.443   0.746  13.873  0.6978  0.2792 -0.3100
  556MPD2    H5 8349   0.402   0.838  13.887 -0.2631 -0.3721  1.1073
  556MPD2    N1 8350   0.637   0.445  13.566  0.0883  0.3311  0.2410
  556MPD2    H7 8351   0.597   0.369  13.621 -1.2356  0.9416  0.0998
  557MPD2     C 8352   1.985   4.252  12.798  0.0259  0.2797 -0.4524
  557MPD2    C1 8353   2.080   4.348  12.779  0.2171 -0.2557 -0.0016
  557MPD2    C2 8354   2.180   4.349  12.871 -0.3766 -0.4208 -0.4641
  557MPD2    C3 8355   2.198   4.253  12.970 -0.7399  0.0459 -0.5707
  557MPD2    C4 8356   2.116   4.147  12.968  0.0871  0.5417  0.1339
  557MPD2    C5 8357   2.002   4.148  12.890 -0.0140 -0.7659 -0.0920
  557MPD2     H 8358   2.242   4.436  12.857  0.1931 -1.0764 -2.0477
  557MPD2    H1 8359   2.118   4.065  13.040  1.9211  1.5639  1.2367
  557MPD2    H2 8360   1.898   4.243  12.733 -0.6307 -0.3602  0.5086
  557MPD2    H3 8361   1.933   4.065  12.901 -2.0233  0.8469 -0.4100
  557MPD2     N 8362   2.301   4.275  13.070  0.4984 -0.0372  0.4879
  557MPD2    H5 8363   2.357   4.359  13.059 -0.7658  0.9842  1.8952
  557MPD2    N1 8364   2.061   4.449  12.689  0.1294  0.1016 -0.2987
  557MPD2    H7 8365   2.116   4.533  12.698 -0.6921  0.4616  1.3989
  558MPD2     C 8366   0.063   4.708  15.563  0.6884  0.0137  0.4816
  558MPD2    C1 8367   0.094   4.584  15.514 -0.1447 -0.1270 -0.0375
  558MPD2    C2 8368   4.767   4.489  15.517 -0.0560 -0.3065  0.2103
  558MPD2    C3 8369   4.651   4.509  15.595  0.4603 -0.0779  0.4017
  558MPD2    C4 8370   4.627   4.643  15.635 -0.5023  0.2170  0.3116
  558MPD2    C5 8371   4.723   4.739  15.621 -0.3509 -0.8658  0.0958
  558MPD2     H 8372   4.770   4.402  15.453  0.5041  0.2204 -0.4814
  558MPD2    H1 8373   4.545   4.686  15.691 -0.8292  1.2734 -0.9612
  558MPD2    H2 8374   0.134   0.013  15.555  0.5526  0.2563  1.7740
  558MPD2    H3 8375   4.700   0.058  15.666  0.0023 -0.5748 -0.3400
  558MPD2     N 8376   4.548   4.407  15.591  0.4084 -1.0289  0.1958
  558MPD2    H5 8377   4.580   4.313  15.568 -1.6036 -1.4023 -1.1088
  558MPD2    N1 8378   0.211   4.553  15.445 -0.8004  0.2222  0.4394
  558MPD2    H7 8379   0.225   4.457  15.416  0.8516  0.6387 -0.1651
  559MPD2     C 8380   3.605   4.612  15.810  0.0799 -0.5130 -0.7373
  559MPD2    C1 8381   3.730   4.671  15.825  0.2836 -0.3109  0.1887
  559MPD2    C2 8382   3.845   4.591  15.813  0.0637 -0.4815  0.6034
  559MPD2    C3 8383   3.832   4.465  15.764 -0.0502 -0.3899  0.3861
  559MPD2    C4 8384   3.707   4.411  15.749  0.0359  0.4282  0.2215
  559MPD2    C5 8385   3.595   4.480  15.782  0.7409  0.0358 -0.1943
  559MPD2     H 8386   3.942   4.639  15.822 -0.3366  0.7766 -1.7309
  559MPD2    H1 8387   3.691   4.309  15.715 -0.7837  0.2072  1.2720
  559MPD2    H2 8388   3.512   4.666  15.829  0.3150 -0.0893 -0.7816
  559MPD2    H3 8389   3.497   4.439  15.763  1.5255 -1.8176 -0.2784
  559MPD2     N 8390   3.944   4.390  15.749 -0.6816  0.2633 -0.0477
  559MPD2    H5 8391   4.028   4.429  15.789  0.7299  0.8756 -3.6077
  559MPD2    N1 8392   3.736   0.031  15.856  0.3642 -0.1027  0.6277
  559MPD2    H7 8393   3.649   0.082  15.871  2.0415  2.7360  0.7778
  560MPD2     C 8394   3.851   4.010  11.798 -0.2151  0.1971 -0.6062
  560MPD2    C1 8395   3.828   3.884  11.839  0.3723 -0.0810  0.5349
  560MPD2    C2 8396   3.715   3.823  11.802 -0.4995  0.4458 -0.6582
  560MPD2    C3 8397   3.620   3.880  11.722  0.6335 -0.4572 -0.6898
  560MPD2    C4 8398   3.636   4.015  11.698  0.2718  0.0642 -0.0385
  560MPD2    C5 8399   3.749   4.080  11.732  0.3775  0.0361  0.8905
  560MPD2     H 8400   3.697   3.721  11.834  2.8208  1.2091  3.6660
  560MPD2    H1 8401   3.561   4.077  11.651  2.2762  2.7922  0.3624
  560MPD2    H2 8402   3.943   4.063  11.821 -0.3662  0.4968 -0.6959
  560MPD2    H3 8403   3.766   4.183  11.704  0.1463 -0.3667 -0.7372
  560MPD2     N 8404   3.512   3.797  11.675 -0.3256 -0.0066  0.2162
  560MPD2    H5 8405   3.509   3.704  11.714 -1.9585 -0.8161 -1.8546
  560MPD2    N1 8406   3.926   3.817  11.911  0.0395 -0.5833  0.1524
  560MPD2    H7 8407   4.005   3.879  11.929  0.0326 -0.1074 -1.4326
  561MPD2     C 8408   0.324   1.652   7.494 -0.5560  0.1180  0.3710
  561MPD2    C1 8409   0.187   1.652   7.470  0.4024 -0.1441 -0.0253
  561MPD2    C2 8410   0.143   1.718   7.356  0.0430 -0.0544  0.4027
  561MPD2    C3 8411   0.224   1.788   7.276 -0.5830  0.6331 -0.4059
  561MPD2    C4 8412   0.359   1.797   7.310 -0.2469  0.0470 -0.3628
  561MPD2    C5 8413   0.409   1.721   7.413  0.4940 -0.4924 -0.0749
  561MPD2     H 8414   0.037   1.706   7.333 -0.2661  1.2850  1.0960
  561MPD2    H1 8415   0.436   1.854   7.259  0.3790 -0.3882  0.0955
  561MPD2    H2 8416   0.359   1.599   7.581 -0.1288 -0.0937  0.0682
  561MPD2    H3 8417   0.516   1.722   7.427  0.7999 -1.9681 -2.2879
  561MPD2     N 8418   0.178   1.858   7.156  0.0414 -0.2739  0.0420
  561MPD2    H5 8419   0.244   1.925   7.118 -0.0017 -1.1720 -1.6536
  561MPD2    N1 8420   0.100   1.591   7.562  0.6271  0.7820 -0.2814
  561MPD2    H7 8421   0.140   1.527   7.629 -2.5794  0.2435  1.1189
  562MPD2     C 8422   4.505   1.621   8.385 -0.4192  0.6217  0.2095
  562MPD2    C1 8423   4.606   1.660   8.303 -0.7500 -0.5709 -0.2946
  562MPD2    C2 8424   4.593   1.674   8.167 -0.1352 -0.5068 -0.7361
  562MPD2    C3 8425   4.478   1.632   8.102 -0.1655 -0.4092  0.5428
  562MPD2    C4 8426   4.374   1.602   8.190 -0.2605 -0.4620  0.7711
  562MPD2    C5 8427   4.385   1.592   8.323  0.6755  0.4501 -0.0059
  562MPD2     H 8428   4.679   1.713   8.114  0.2157 -0.0243  0.1742
  562MPD2    H1 8429   4.279   1.584   8.140  1.7135 -1.8532 -2.4555
  562MPD2    H2 8430   4.508   1.624   8.493  4.1791  2.2062  0.0483
  562MPD2    H3 8431   4.301   1.553   8.379  0.9987 -0.4132 -0.1136
  562MPD2     N 8432   4.478   1.630   7.959 -0.5794 -0.0407 -0.3213
  562MPD2    H5 8433   4.562   1.667   7.915  0.0859  0.4449  1.3687
  562MPD2    N1 8434   4.741   1.672   8.346  0.1544  0.3678 -0.0090
  562MPD2    H7 8435   0.030   1.701   8.274  1.7120 -0.1812  1.1787
  563MPD2     C 8436   3.295   3.621  10.703  0.1597  0.5287  0.7105
  563MPD2    C1 8437   3.213   3.693  10.791  0.9957 -0.4866  0.0086
  563MPD2    C2 8438   3.214   3.833  10.797  0.1063  0.2614 -0.6232
  563MPD2    C3 8439   3.310   3.898  10.722  0.5161  0.5244  0.1436
  563MPD2    C4 8440   3.390   3.825  10.631  0.1547 -0.1825  0.1224
  563MPD2    C5 8441   3.381   3.693  10.620  0.9344 -0.3376  0.6926
  563MPD2     H 8442   3.148   3.897  10.855 -2.5016 -0.4348 -2.8262
  563MPD2    H1 8443   3.454   3.875  10.559 -0.1326 -1.3588 -0.9376
  563MPD2    H2 8444   3.309   3.514  10.702 -1.4030  0.3549 -2.1229
  563MPD2    H3 8445   3.434   3.636  10.544 -1.7881 -1.5574 -0.2806
  563MPD2     N 8446   3.302   4.043  10.725 -0.0841  0.2100 -0.7296
  563MPD2    H5 8447   3.235   4.072  10.795 -1.4811 -1.3800 -1.3862
  563MPD2    N1 8448   3.119   3.617  10.866 -0.1675 -0.1565  0.7442
  563MPD2    H7 8449   3.133   3.517  10.864 -1.1093 -0.2509 -1.0215
  564MPD2     C 8450   2.124   2.275  13.009  0.0028  0.0589  0.4437
  564MPD2    C1 8451   2.096   2.375  12.918  0.1464  0.2652  0.0796
  564MPD2    C2 8452   2.147   2.365  12.790 -0.6502  0.1503 -0.0307
  564MPD2    C3 8453   2.227   2.251  12.758  0.0897 -0.2125  0.0889
  564MPD2    C4 8454   2.252   2.152  12.849  0.2784  0.5963 -0.3733
  564MPD2    C5 8455   2.202   2.166  12.976 -0.2437  0.2217 -0.1195
  564MPD2     H 8456   2.125   2.441  12.716  1.1272 -2.5736 -3.3439
  564MPD2    H1 8457   2.321   2.070  12.828  0.5669  0.3865  1.3376
  564MPD2    H2 8458   2.097   2.282  13.114  0.7527  1.4620  0.5444
  564MPD2    H3 8459   2.229   2.084  13.041 -0.0045  1.1128  0.9012
  564MPD2     N 8460   2.278   2.222  12.627 -0.0070 -0.2813  0.8782
  564MPD2    H5 8461   2.331   2.136  12.617 -1.2793 -1.2469  2.4416
  564MPD2    N1 8462   2.015   2.484  12.945  0.5725  0.0362  0.1272
  564MPD2    H7 8463   1.996   2.541  12.863  0.6378  3.3506  2.4067
  565MPD2     C 8464   1.377   2.681  13.727  0.4749 -1.0811 -0.0629
  565MPD2    C1 8465   1.320   2.719  13.605  0.7598 -0.0970  0.6489
  565MPD2    C2 8466   1.396   2.731  13.493  0.8504  0.2643 -0.2882
  565MPD2    C3 8467   1.537   2.722  13.507  0.9325  0.3191  0.1650
  565MPD2    C4 8468   1.592   2.681  13.625  0.7122 -0.7960 -0.2102
  565MPD2    C5 8469   1.511   2.658  13.734 -0.1558 -0.1264 -0.0154
  565MPD2     H 8470   1.348   2.767  13.403 -1.4967  0.9082  1.2292
  565MPD2    H1 8471   1.698   2.657  13.635  1.0492  0.7759  0.0534
  565MPD2    H2 8472   1.323   2.667  13.820 -0.0182 -0.2472 -0.2178
  565MPD2    H3 8473   1.557   2.623  13.826 -0.7253 -1.7097 -0.3330
  565MPD2     N 8474   1.627   2.729  13.400 -0.4089 -0.0331  0.1784
  565MPD2    H5 8475   1.725   2.712  13.421 -0.5855 -0.3876  0.7420
  565MPD2    N1 8476   1.179   2.733  13.582 -0.4383 -0.3328  0.0682
  565MPD2    H7 8477   1.152   2.784  13.498  1.6216  1.6223  0.5812
  566MPD2     C 8478   0.212   1.460  12.150 -0.4503  0.3885 -0.1085
  566MPD2    C1 8479   0.196   1.342  12.220  0.5543  0.3033  0.3750
  566MPD2    C2 8480   0.118   1.331  12.335 -0.2592  0.0064  0.0316
  566MPD2    C3 8481   0.056   1.447  12.376  0.3618  0.4165 -0.2318
  566MPD2    C4 8482   0.077   1.567  12.310  0.0790 -0.2024 -0.1433
  566MPD2    C5 8483   0.147   1.572  12.196 -0.0072 -0.3868 -0.9279
  566MPD2     H 8484   0.105   1.237  12.387  1.1982 -0.6027 -0.7140
  566MPD2    H1 8485   0.039   1.658  12.355  2.3212  0.3236  0.6817
  566MPD2    H2 8486   0.269   1.472  12.059 -1.6944 -0.3833 -0.9886
  566MPD2    H3 8487   0.160   1.669  12.150  0.9414  0.0220  0.2008
  566MPD2     N 8488   4.753   1.465  12.493  0.0362 -0.5097  0.2727
  566MPD2    H5 8489   4.727   1.562  12.510  1.3290 -0.0536 -0.3575
  566MPD2    N1 8490   0.261   1.230  12.163 -0.2503  0.2229  0.2235
  566MPD2    H7 8491   0.335   1.240  12.095  0.8481 -1.2426  1.1946
  567MPD2     C 8492   4.438   4.643   8.242 -0.4615 -0.2411 -0.2128
  567MPD2    C1 8493   4.559   4.575   8.233 -0.2679 -0.0618 -0.2538
  567MPD2    C2 8494   4.590   4.519   8.108 -0.1994  0.1933 -0.1939
  567MPD2    C3 8495   4.499   4.522   8.006 -0.5034  0.0671  0.0789
  567MPD2    C4 8496   4.378   4.591   8.015  0.1138  0.3136 -0.2910
  567MPD2    C5 8497   4.344   4.639   8.143 -0.1742 -0.4113  0.4820
  567MPD2     H 8498   4.684   4.466   8.104  0.7399  1.7469  1.2271
  567MPD2    H1 8499   4.300   4.599   7.940  0.7669  0.8450 -0.9154
  567MPD2    H2 8500   4.419   4.696   8.334 -0.4333 -2.7035  1.1877
  567MPD2    H3 8501   4.249   4.689   8.154 -0.3055 -0.5197 -0.1431
  567MPD2     N 8502   4.534   4.483   7.868  0.2458 -0.3603  1.1450
  567MPD2    H5 8503   4.468   4.515   7.797  1.1843 -1.7687 -0.3614
  567MPD2    N1 8504   4.653   4.556   8.343 -0.0273  0.0790 -0.6850
  567MPD2    H7 8505   4.740   4.514   8.313 -0.7456 -1.0554 -1.1787
  568MPD2     C 8506   0.375   4.369   6.998  0.9431  0.7114  0.4748
  568MPD2    C1 8507   0.240   4.341   6.969 -0.0020 -0.2576 -0.5149
  568MPD2    C2 8508   0.146   4.351   7.066  0.4298 -0.1399  0.2030
  568MPD2    C3 8509   0.187   4.374   7.194  0.0670 -0.1173 -0.2650
  568MPD2    C4 8510   0.319   4.388   7.224 -0.4679  0.5306  0.1379
  568MPD2    C5 8511   0.412   4.390   7.125  0.4874 -0.5775  0.3027
  568MPD2     H 8512   0.040   4.345   7.042  0.2626  1.9009  0.4334
  568MPD2    H1 8513   0.360   4.370   7.323 -1.4440  3.2947  1.0554
  568MPD2    H2 8514   0.463   4.371   6.934 -0.1463  0.0694 -1.0456
  568MPD2    H3 8515   0.512   4.407   7.161 -0.1660  0.5473  1.6099
  568MPD2     N 8516   0.089   4.365   7.296 -0.2332  0.6669  0.5879
  568MPD2    H5 8517   4.769   4.350   7.266 -0.2851  1.5059  0.3361
  568MPD2    N1 8518   0.198   4.293   6.839 -0.0428 -0.4704 -0.0039
  568MPD2    H7 8519   0.103   4.258   6.840 -0.3366  0.3763  1.8874
  569MPD2     C 8520   1.083   3.350  13.070  1.0300  0.0909  0.0675
  569MPD2    C1 8521   1.131   3.381  12.942  0.5081 -0.2257  0.1741
  569MPD2    C2 8522   1.045   3.354  12.841 -0.1875  0.4997  0.8337
  569MPD2    C3 8523   0.917   3.305  12.865  0.2385  0.1117  0.2283
  569MPD2    C4 8524   0.873   3.292  12.998  0.0825 -0.1982  0.3802
  569MPD2    C5 8525   0.953   3.319  13.103 -0.0791 -0.7341  0.1448
  569MPD2     H 8526   1.074   3.374  12.739 -1.8749  0.7215  0.4043
  569MPD2    H1 8527   0.771   3.263  13.022  0.2689 -0.5896  0.7088
  569MPD2    H2 8528   1.150   3.350  13.155  1.5121  1.2659 -0.3276
  569MPD2    H3 8529   0.917   3.302  13.204 -1.4628  0.6461 -0.1233
  569MPD2     N 8530   0.816   3.282  12.764  0.1885 -0.6628  0.1826
  569MPD2    H5 8531   0.723   3.247  12.784  0.0607  0.2879  1.2225
  569MPD2    N1 8532   1.263   3.428  12.909  0.6911  0.2009 -1.1205
  569MPD2    H7 8533   1.281   3.462  12.815 -0.2533  1.4701 -0.8508
  570MPD2     C 8534   1.576   1.045  14.206 -0.5738  0.1821  0.0177
  570MPD2    C1 8535   1.569   1.172  14.162  0.2937 -0.6360 -0.0112
  570MPD2    C2 8536   1.520   1.200  14.034 -0.0382  0.0259  0.3391
  570MPD2    C3 8537   1.468   1.102  13.951  0.6729  0.2369 -0.5693
  570MPD2    C4 8538   1.471   0.974  14.003  0.8756  0.4359 -0.5373
  570MPD2    C5 8539   1.527   0.944  14.127 -0.0519  0.3605 -0.7483
  570MPD2     H 8540   1.539   1.303  14.006 -1.6955 -0.2319 -1.7147
  570MPD2    H1 8541   1.441   0.887  13.946  3.6902  0.1006 -1.5336
  570MPD2    H2 8542   1.617   1.011  14.300 -1.3754 -0.7159  0.0449
  570MPD2    H3 8543   1.531   0.842  14.164 -2.5624  0.5357 -0.0067
  570MPD2     N 8544   1.409   1.132  13.830 -0.1752  0.7063  0.1170
  570MPD2    H5 8545   1.407   1.226  13.793  0.6264  1.1215  1.1262
  570MPD2    N1 8546   1.625   1.285  14.231 -0.2445  0.4183 -0.1907
  570MPD2    H7 8547   1.603   1.376  14.194  1.0113  0.9867  0.4730
  571MPD2     C 8548   4.614   0.530   8.656 -0.7826  0.3436  1.0770
  571MPD2    C1 8549   4.685   0.618   8.727 -0.1800  0.6776  0.4903
  571MPD2    C2 8550   4.680   0.624   8.864  0.3928 -0.1402 -0.0992
  571MPD2    C3 8551   4.593   0.539   8.932 -0.3643 -0.8123 -0.7748
  571MPD2    C4 8552   4.508   0.458   8.860 -0.2279  0.2846 -0.0389
  571MPD2    C5 8553   4.524   0.453   8.724 -0.3344 -0.3321 -0.8375
  571MPD2     H 8554   4.753   0.685   8.916 -0.1916 -0.1684  0.7477
  571MPD2    H1 8555   4.448   0.384   8.910 -0.9082  0.9489  0.1221
  571MPD2    H2 8556   4.616   0.526   8.548  2.3896 -0.0526  1.1591
  571MPD2    H3 8557   4.462   0.391   8.661 -2.9204  1.1008  0.2822
  571MPD2     N 8558   4.610   0.527   9.070  0.7781 -0.4939  1.0185
  571MPD2    H5 8559   4.682   0.586   9.111  1.6674 -0.1369 -1.0430
  571MPD2    N1 8560   4.776   0.708   8.672 -0.2859  0.3575  0.2926
  571MPD2    H7 8561   0.037   0.776   8.737  0.6463 -0.2409  0.3837
  572MPD2     C 8562   0.514   0.581   9.146 -0.5278  0.3234  0.3902
  572MPD2    C1 8563   0.383   0.610   9.136 -0.4248  0.9087  0.4661
  572MPD2    C2 8564   0.355   0.702   9.037  0.1433 -0.0040 -0.5646
  572MPD2    C3 8565   0.441   0.754   8.941 -0.2258 -0.1469 -0.0282
  572MPD2    C4 8566   0.579   0.722   8.952  0.0215  0.0835 -0.3407
  572MPD2    C5 8567   0.608   0.631   9.053 -0.0336 -0.1512  0.1334
  572MPD2     H 8568   0.251   0.725   9.016 -0.3045  0.3389  1.9343
  572MPD2    H1 8569   0.646   0.745   8.870  0.7411  0.8735  0.4563
  572MPD2    H2 8570   0.549   0.534   9.237 -0.7304 -0.9500 -0.1988
  572MPD2    H3 8571   0.711   0.609   9.079  0.5786  0.1365 -1.9913
  572MPD2     N 8572   0.388   0.824   8.833 -0.2926  0.3382  0.0507
  572MPD2    H5 8573   0.292   0.858   8.836  0.6293  2.8596  0.5346
  572MPD2    N1 8574   0.294   0.552   9.231 -0.0031  1.0832  0.3654
  572MPD2    H7 8575   0.345   0.497   9.299  0.0140  1.2175  0.4598
  573MPD2     C 8576   2.148   0.024   6.345 -0.3079 -1.0474 -0.7910
  573MPD2    C1 8577   2.258   0.097   6.367  0.1160  0.1704  0.1565
  573MPD2    C2 8578   2.359   0.118   6.268 -0.2142  0.1736 -0.0839
  573MPD2    C3 8579   2.355   0.049   6.145 -0.0390 -0.9298  0.5944
  573MPD2    C4 8580   2.247   4.735   6.129 -0.5359  0.2369 -0.3494
  573MPD2    C5 8581   2.146   4.736   6.221  0.1083 -0.8571 -0.3755
  573MPD2     H 8582   2.442   0.186   6.284 -1.5205  2.2276 -2.1057
  573MPD2    H1 8583   2.247   4.670   6.042  3.6803 -1.0306  0.5962
  573MPD2    H2 8584   2.064   0.009   6.412  0.1455  0.4753  0.1171
  573MPD2    H3 8585   2.058   4.682   6.187  2.3609 -3.2035 -2.4553
  573MPD2     N 8586   2.452   0.059   6.041 -0.0794  0.0912  0.1483
  573MPD2    H5 8587   2.434   4.775   5.961  1.3819 -2.6865  1.9143
  573MPD2    N1 8588   2.267   0.144   6.507 -0.3186  0.7827 -0.1752
  573MPD2    H7 8589   2.195   0.117   6.574 -0.6755  0.2676 -0.7678
  574MPD2     C 8590   3.204   0.176   6.196 -0.9842  0.3049  1.0328
  574MPD2    C1 8591   3.184   0.097   6.087  0.6364 -0.2915  0.0300
  574MPD2    C2 8592   3.284   0.008   6.047  0.2059 -0.1055 -0.2765
  574MPD2    C3 8593   3.397   4.775   6.121  0.0086  0.0110 -0.0596
  574MPD2    C4 8594   3.416   0.078   6.230 -0.3399 -0.4453  0.2006
  574MPD2    C5 8595   3.322   0.168   6.267  0.3383  0.7872 -0.6499
  574MPD2     H 8596   3.280   4.733   5.952 -0.8375 -0.6405  0.0599
  574MPD2    H1 8597   3.512   0.082   6.280 -0.2492  0.2546 -0.0332
  574MPD2    H2 8598   3.124   0.235   6.238  0.7558  1.0388  3.3084
  574MPD2    H3 8599   3.332   0.246   6.342  1.7533 -0.9201  0.9663
  574MPD2     N 8600   3.498   4.689   6.078 -0.2251 -0.1029  0.5094
  574MPD2    H5 8601   3.589   4.690   6.124  0.1896 -0.6728 -0.3093
  574MPD2    N1 8602   3.062   0.122   6.015  0.4443  0.0072 -0.5535
  574MPD2    H7 8603   3.001   0.189   6.060 -0.5688 -1.0627 -0.3243
  575MPD2     C 8604   4.137   4.139   6.375  1.0218 -0.2219  0.3850
  575MPD2    C1 8605   4.202   4.176   6.491 -0.1117  0.1437  0.7098
  575MPD2    C2 8606   4.337   4.157   6.517 -0.7305  0.2424  0.4770
  575MPD2    C3 8607   4.420   4.119   6.418  0.1184 -0.2030  0.6562
  575MPD2    C4 8608   4.364   4.091   6.295  0.0582  0.2344 -0.2123
  575MPD2    C5 8609   4.224   4.090   6.274  0.4281  0.0491  0.2473
  575MPD2     H 8610   4.375   4.182   6.615  1.1834  0.4174 -0.3174
  575MPD2    H1 8611   4.426   4.080   6.206  1.1470  1.8255  0.3505
  575MPD2    H2 8612   4.034   4.163   6.353  1.0785 -0.7063 -0.4199
  575MPD2    H3 8613   4.175   4.073   6.179  1.9443 -0.4917 -0.4456
  575MPD2     N 8614   4.563   4.135   6.424 -0.3211 -1.0250  0.9065
  575MPD2    H5 8615   4.602   4.142   6.331  0.1690  2.8312  1.4264
  575MPD2    N1 8616   4.112   4.235   6.587 -1.0790  0.3175  0.3250
  575MPD2    H7 8617   4.011   4.221   6.581 -1.2162  1.2936  0.1894
  576MPD2     C 8618   2.900   2.071  12.351 -0.7233  0.1548  1.0474
  576MPD2    C1 8619   2.971   2.084  12.237 -0.4359 -0.2996 -0.0087
  576MPD2    C2 8620   3.005   2.212  12.192 -0.2490 -0.0090  0.1013
  576MPD2    C3 8621   2.970   2.326  12.261 -0.2410  0.1009 -0.1251
  576MPD2    C4 8622   2.894   2.317  12.379 -0.2189 -0.1940 -0.4250
  576MPD2    C5 8623   2.858   2.189  12.413  0.2988 -0.3113 -0.0459
  576MPD2     H 8624   3.063   2.222  12.100 -1.2405  0.2046 -0.5024
  576MPD2    H1 8625   2.868   2.405  12.438  0.5665 -1.6855  2.1456
  576MPD2    H2 8626   2.878   1.973  12.393  0.7949 -1.1915 -1.3004
  576MPD2    H3 8627   2.793   2.176  12.499 -1.2338  2.0400 -0.8400
  576MPD2     N 8628   3.017   2.449  12.203 -0.2749  0.2644  0.0809
  576MPD2    H5 8629   3.073   2.436  12.119  1.1496 -1.2739  1.2548
  576MPD2    N1 8630   3.023   1.968  12.179  0.3432 -0.0304  0.3458
  576MPD2    H7 8631   3.011   1.877  12.221 -1.8678  1.2060  2.4223
  577MPD2     C 8632   3.332   2.379  11.561 -0.2090 -0.3228 -0.5330
  577MPD2    C1 8633   3.256   2.375  11.682  0.7211  0.5113 -0.5797
  577MPD2    C2 8634   3.258   2.253  11.747  0.3210 -0.0855  0.5910
  577MPD2    C3 8635   3.333   2.150  11.713  0.2452 -1.0929 -0.6254
  577MPD2    C4 8636   3.408   2.156  11.601 -0.3585 -0.0509  0.0513
  577MPD2    C5 8637   3.403   2.271  11.523 -0.5054  0.6979 -0.5677
  577MPD2     H 8638   3.182   2.241  11.823 -0.5856  0.2152 -0.2629
  577MPD2    H1 8639   3.481   2.080  11.574  1.5803  0.5228  3.7317
  577MPD2    H2 8640   3.338   2.468  11.499 -0.5043  1.4644  2.0275
  577MPD2    H3 8641   3.460   2.275  11.431 -0.1748  2.9694 -0.2706
  577MPD2     N 8642   3.332   2.042  11.795 -0.7219  0.9334 -0.0852
  577MPD2    H5 8643   3.261   2.041  11.867  0.7579 -0.1252  1.3659
  577MPD2    N1 8644   3.199   2.491  11.739 -0.4621  0.1229 -0.4327
  577MPD2    H7 8645   3.204   2.579  11.687  2.7743 -0.9287 -1.8905
  578MPD2     C 8646   3.422   3.263  12.997 -0.5843 -0.1363 -0.9654
  578MPD2    C1 8647   3.412   3.396  12.974 -0.3131 -0.3878 -0.4657
  578MPD2    C2 8648   3.278   3.448  12.980 -0.0061 -0.3156  0.3168
  578MPD2    C3 8649   3.172   3.387  13.037  0.1647  0.0156  0.0662
  578MPD2    C4 8650   3.197   3.260  13.080  0.2994  0.3471 -0.0155
  578MPD2    C5 8651   3.318   3.204  13.052  0.2012  0.1540 -0.3213
  578MPD2     H 8652   3.248   3.543  12.937  0.0163 -0.5586 -0.2325
  578MPD2    H1 8653   3.118   3.203  13.127  1.3132 -1.8334 -0.9174
  578MPD2    H2 8654   3.517   3.210  12.994  0.3042  1.5304 -2.1507
  578MPD2    H3 8655   3.331   3.102  13.086 -1.3084  0.3141  0.7111
  578MPD2     N 8656   3.049   3.461  13.045 -0.7626  0.1263 -0.1112
  578MPD2    H5 8657   3.055   3.549  12.996 -0.1286 -0.3730 -0.9212
  578MPD2    N1 8658   3.527   3.470  12.943  0.5402  0.5298 -0.1971
  578MPD2    H7 8659   3.612   3.415  12.935 -0.4599 -0.9400 -0.8606
  579MPD2     C 8660   2.785   4.197  13.077  0.0859 -0.1682  0.1296
  579MPD2    C1 8661   2.713   4.102  13.015 -0.2724 -0.2503 -0.1667
  579MPD2    C2 8662   2.633   4.138  12.909  0.0500  0.1515 -0.8198
  579MPD2    C3 8663   2.629   4.271  12.861 -0.5123  0.3320  0.3037
  579MPD2    C4 8664   2.724   4.360  12.914  0.0174  0.2540  0.8504
  579MPD2    C5 8665   2.791   4.323  13.023  0.4510 -0.7564 -0.0754
  579MPD2     H 8666   2.569   4.065  12.860  1.8436 -2.3333  0.5561
  579MPD2    H1 8667   2.730   4.464  12.886  1.5143 -0.5726 -1.9232
  579MPD2    H2 8668   2.846   4.183  13.166 -2.0229 -1.5993  1.3341
  579MPD2    H3 8669   2.855   4.392  13.077  0.0167  0.6556 -1.3559
  579MPD2     N 8670   2.556   4.310  12.748  0.9107 -0.4929  0.2204
  579MPD2    H5 8671   2.585   4.399  12.709  1.3438 -1.3473 -1.4160
  579MPD2    N1 8672   2.710   3.965  13.060 -0.8025  0.4041 -0.2855
  579MPD2    H7 8673   2.632   3.915  13.019  0.6266 -0.8564 -1.4954
  580MPD2     C 8674   1.771   1.759   9.902 -0.4950 -0.7100  0.2915
  580MPD2    C1 8675   1.823   1.881   9.914  0.9661 -0.3676 -0.5196
  580MPD2    C2 8676   1.919   1.921   9.825 -0.3575  0.6190 -0.2080
  580MPD2    C3 8677   1.946   1.848   9.712  0.3114 -0.6824 -0.2179
  580MPD2    C4 8678   1.885   1.730   9.695 -0.2077  0.0948 -0.4319
  580MPD2    C5 8679   1.806   1.681   9.794  0.0231  0.2635 -0.1303
  580MPD2     H 8680   1.961   2.020   9.838 -1.2461  1.3688 -2.8530
  580MPD2    H1 8681   1.896   1.662   9.611 -1.2018 -0.2845 -0.2498
  580MPD2    H2 8682   1.700   1.718   9.973 -0.5498  1.6999  1.6469
  580MPD2    H3 8683   1.757   1.587   9.772 -0.0299  0.2045  0.2427
  580MPD2     N 8684   2.016   1.887   9.600  0.1798  0.1811  0.2442
  580MPD2    H5 8685   2.026   1.822   9.523  1.6911  1.3344 -0.5114
  580MPD2    N1 8686   1.794   1.972  10.016 -0.2576 -0.1865  0.7666
  580MPD2    H7 8687   1.854   2.054  10.017  0.9965 -1.1012  0.8172
  581MPD2     C 8688   1.860   2.459   9.846  0.1602  0.1770  0.1742
  581MPD2    C1 8689   1.740   2.433   9.910  0.3461 -0.6399  0.3365
  581MPD2    C2 8690   1.667   2.330   9.852  0.5657  0.5039  0.2309
  581MPD2    C3 8691   1.701   2.265   9.730 -0.7220 -0.5855  0.4960
  581MPD2    C4 8692   1.820   2.295   9.667 -1.3712 -0.3566  0.5254
  581MPD2    C5 8693   1.897   2.393   9.730 -1.0773 -0.4525 -0.2755
  581MPD2     H 8694   1.568   2.314   9.892  0.6297  0.8702  0.5351
  581MPD2    H1 8695   1.862   2.233   9.588  1.7947 -0.5670  2.3648
  581MPD2    H2 8696   1.928   2.537   9.879 -0.7997  1.2714 -0.4463
  581MPD2    H3 8697   1.996   2.418   9.691 -1.1763 -0.1255 -0.3134
  581MPD2     N 8698   1.622   2.158   9.688  0.4770 -0.3641 -0.5961
  581MPD2    H5 8699   1.666   2.103   9.615  1.2071 -1.0355  0.3528
  581MPD2    N1 8700   1.714   2.494  10.033 -0.2813  1.0420  0.1184
  581MPD2    H7 8701   1.778   2.571  10.049 -0.5016  0.9924  1.2961
  582MPD2     C 8702   2.695   3.409   9.694 -0.5768  0.7335  0.6084
  582MPD2    C1 8703   2.575   3.393   9.762  0.5801  0.8732  0.0139
  582MPD2    C2 8704   2.481   3.300   9.726 -1.0177  0.0946 -0.0852
  582MPD2    C3 8705   2.504   3.220   9.619  0.0317 -0.5477  1.4042
  582MPD2    C4 8706   2.624   3.240   9.546  0.4575 -0.2256  0.1167
  582MPD2    C5 8707   2.720   3.333   9.586  0.4973  0.1333 -0.7695
  582MPD2     H 8708   2.388   3.299   9.782 -1.3879 -1.9029 -0.7583
  582MPD2    H1 8709   2.646   3.186   9.455  1.0707  0.8157 -0.3548
  582MPD2    H2 8710   2.756   3.495   9.717 -1.9977  1.1500  2.8254
  582MPD2    H3 8711   2.807   3.352   9.525  0.1109 -0.0061 -1.3621
  582MPD2     N 8712   2.404   3.141   9.557  0.1780  0.4591  0.4797
  582MPD2    H5 8713   2.425   3.115   9.462 -4.1446  1.3882 -0.6991
  582MPD2    N1 8714   2.547   3.475   9.877  0.1125 -0.0036  0.3328
  582MPD2    H7 8715   2.460   3.451   9.923 -0.2494 -0.5196 -0.6296
  583MPD2     C 8716   1.741   4.238   6.961  0.2223 -0.3593 -0.5735
  583MPD2    C1 8717   1.871   4.192   6.956 -0.6254 -0.0428  0.1320
  583MPD2    C2 8718   1.963   4.240   6.863 -0.2922  0.0211 -0.5633
  583MPD2    C3 8719   1.911   4.325   6.766 -0.3808 -0.1187  0.9141
  583MPD2    C4 8720   1.773   4.356   6.764 -0.4564  0.1185  0.0782
  583MPD2    C5 8721   1.688   4.316   6.862  0.4101 -0.2351 -0.6239
  583MPD2     H 8722   2.068   4.213   6.873 -0.4429 -0.0323  0.8645
  583MPD2    H1 8723   1.726   4.422   6.692  0.2451  0.6776  0.1251
  583MPD2    H2 8724   1.667   4.204   7.032  0.1049 -1.1595 -1.0818
  583MPD2    H3 8725   1.582   4.338   6.866  0.0593 -2.4194  1.8879
  583MPD2     N 8726   2.003   4.393   6.687  0.1156  0.4796 -0.1038
  583MPD2    H5 8727   2.101   4.368   6.695  0.5134  2.6915  1.7501
  583MPD2    N1 8728   1.913   4.106   7.064  0.0955 -0.6804 -0.3419
  583MPD2    H7 8729   1.845   4.086   7.137  0.1433 -0.6957 -0.3014
  584MPD2     C 8730   2.304   3.194   7.146  0.7878  0.3281 -0.5234
  584MPD2    C1 8731   2.254   3.262   7.041  0.1490 -0.7227 -0.2282
  584MPD2    C2 8732   2.219   3.393   7.059  0.0829  0.6350 -0.5906
  584MPD2    C3 8733   2.249   3.459   7.178  0.2409  0.5236 -0.5023
  584MPD2    C4 8734   2.327   3.392   7.273  0.3069  0.1539  0.8175
  584MPD2    C5 8735   2.348   3.257   7.263 -0.3691 -0.0500  0.5543
  584MPD2     H 8736   2.163   3.444   6.981  0.7746  1.6868 -0.4072
  584MPD2    H1 8737   2.364   3.432   7.367 -2.8469  0.8628  1.7413
  584MPD2    H2 8738   2.333   3.089   7.147 -0.8242 -0.0853  1.3249
  584MPD2    H3 8739   2.396   3.200   7.340 -1.3023  0.2644  1.3688
  584MPD2     N 8740   2.213   3.596   7.188 -0.4874  0.5023 -0.0885
  584MPD2    H5 8741   2.154   3.631   7.113 -1.4376 -0.4783  0.2005
  584MPD2    N1 8742   2.236   3.198   6.913  0.3937  0.1127  1.0568
  584MPD2    H7 8743   2.266   3.101   6.910 -2.2951 -0.7136  0.6216
  585MPD2     C 8744   1.314   4.055  12.364 -0.2771  0.2187  0.1875
  585MPD2    C1 8745   1.247   4.050  12.488  0.2598 -0.8215 -0.1750
  585MPD2    C2 8746   1.306   3.965  12.586 -0.0720 -0.3823 -0.1905
  585MPD2    C3 8747   1.418   3.889  12.562  0.5297 -0.5299 -0.7866
  585MPD2    C4 8748   1.483   3.897  12.440 -0.0755 -0.0880 -0.6137
  585MPD2    C5 8749   1.425   3.976  12.339  0.1910 -0.4963  0.0105
  585MPD2     H 8750   1.263   3.956  12.684 -0.6806  1.5675 -0.2667
  585MPD2    H1 8751   1.579   3.852  12.417  1.3105  2.7737 -0.4345
  585MPD2    H2 8752   1.269   4.106  12.280 -1.1150  1.2637  1.2829
  585MPD2    H3 8753   1.463   3.976  12.237 -0.8016  5.1624 -0.3704
  585MPD2     N 8754   1.461   3.820  12.673  0.3567 -0.6528 -0.1579
  585MPD2    H5 8755   1.418   3.841  12.763  2.8632  1.2099  0.5900
  585MPD2    N1 8756   1.128   4.126  12.507  0.5231  0.5447 -0.6627
  585MPD2    H7 8757   1.100   4.187  12.432  0.1378 -0.1931 -1.1229
  586MPD2     C 8758   0.322   0.995  10.790  0.2690  0.2191 -0.3453
  586MPD2    C1 8759   0.449   0.952  10.826 -0.0413 -0.1292 -0.2341
  586MPD2    C2 8760   0.499   0.833  10.775 -0.2572 -0.3835  0.5336
  586MPD2    C3 8761   0.425   0.763  10.675  0.8759 -0.0320  0.8243
  586MPD2    C4 8762   0.309   0.818  10.629  0.0575  0.9068  0.5307
  586MPD2    C5 8763   0.255   0.933  10.691  0.6413  0.1900 -0.4096
  586MPD2     H 8764   0.592   0.793  10.812  0.7433  1.4552  0.0362
  586MPD2    H1 8765   0.252   0.774  10.548  0.9578 -0.1843  0.4873
  586MPD2    H2 8766   0.269   1.077  10.836  0.5888  1.3376 -1.9624
  586MPD2    H3 8767   0.159   0.969  10.656 -0.2101 -0.2994  1.4193
  586MPD2     N 8768   0.482   0.647  10.620 -0.2784 -0.4372  0.4466
  586MPD2    H5 8769   0.570   0.614  10.658 -0.0998 -0.1320  0.2903
  586MPD2    N1 8770   0.534   1.016  10.918  0.0327 -0.0236 -0.6287
  586MPD2    H7 8771   0.610   0.959  10.952 -1.3477 -0.1494  2.2232
  587MPD2     C 8772   2.200   0.193  12.103  0.6510 -0.3618  0.1768
  587MPD2    C1 8773   2.210   0.082  12.023  0.2606 -0.0327 -1.4521
  587MPD2    C2 8774   2.278   4.744  12.061 -0.2941  0.1154  0.1556
  587MPD2    C3 8775   2.318   4.739  12.196 -0.2754  0.8551  0.2331
  587MPD2    C4 8776   2.303   0.083  12.275  1.0006  0.7317 -0.0805
  587MPD2    C5 8777   2.242   0.196  12.233 -0.4535 -0.0973  0.0527
  587MPD2     H 8778   2.294   4.657  11.998  1.1484 -0.0027  0.6629
  587MPD2    H1 8779   2.340   0.082  12.376  0.7702 -1.5404 -0.0290
  587MPD2    H2 8780   2.149   0.281  12.066 -0.2391 -1.4529 -1.1859
  587MPD2    H3 8781   2.246   0.283  12.297  1.1524  0.6645 -1.0920
  587MPD2     N 8782   2.359   4.614  12.240  0.6977  0.1231 -0.2655
  587MPD2    H5 8783   2.373   4.538  12.175 -4.3595 -0.2627 -0.9147
  587MPD2    N1 8784   2.141   0.085  11.898  0.3520  0.0108  0.4925
  587MPD2    H7 8785   2.088   0.171  11.889 -0.4729 -0.6209 -0.6726
  588MPD2     C 8786   2.447   4.493  11.042  0.8454  0.2586 -0.0419
  588MPD2    C1 8787   2.339   4.579  11.012 -0.2145 -0.5556  0.2120
  588MPD2    C2 8788   2.254   4.626  11.113 -1.0352  0.9624 -0.0883
  588MPD2    C3 8789   2.281   4.592  11.243  0.1016 -0.1170 -0.0277
  588MPD2    C4 8790   2.387   4.511  11.271 -0.3330  0.8750  0.3431
  588MPD2    C5 8791   2.473   4.467  11.172  0.1903 -0.1097  0.6507
  588MPD2     H 8792   2.177   4.692  11.076 -0.7936  1.2016 -0.1630
  588MPD2    H1 8793   2.408   4.485  11.374  0.0236  0.6255  0.2098
  588MPD2    H2 8794   2.514   4.450  10.969  1.3126  1.6443 -0.4199
  588MPD2    H3 8795   2.555   4.402  11.203  0.5749 -0.0295 -0.2082
  588MPD2     N 8796   2.199   4.626  11.355  0.1798 -0.8821 -0.3961
  588MPD2    H5 8797   2.236   4.590  11.442  1.0118  2.5943  0.6609
  588MPD2    N1 8798   2.307   4.618  10.886 -0.4690  0.7538  0.0573
  588MPD2    H7 8799   2.229   4.681  10.869 -0.8246 -0.1885 -1.7822
  589MPD2     C 8800   1.028   1.867  13.302 -0.0967 -0.5559 -0.5561
  589MPD2    C1 8801   1.148   1.818  13.342 -0.2317  0.4816  0.2880
  589MPD2    C2 8802   1.161   1.683  13.392 -0.1443 -0.5175 -0.1656
  589MPD2    C3 8803   1.046   1.607  13.410 -0.6655 -0.1548  0.1158
  589MPD2    C4 8804   0.924   1.658  13.375 -0.4599  0.1807  0.5978
  589MPD2    C5 8805   0.926   1.781  13.314 -0.4099  0.3000 -0.0837
  589MPD2     H 8806   1.256   1.639  13.420 -1.3345 -2.2408  1.2279
  589MPD2    H1 8807   0.838   1.592  13.385  1.5502 -2.6880 -0.9228
  589MPD2    H2 8808   1.010   1.965  13.261  2.2124  0.6187  1.2080
  589MPD2    H3 8809   0.844   1.814  13.251 -2.7398 -0.2634  2.6927
  589MPD2     N 8810   1.061   1.473  13.456 -0.0782 -0.0714 -0.6770
  589MPD2    H5 8811   0.980   1.414  13.445 -1.2515  0.8408  2.8721
  589MPD2    N1 8812   1.276   1.887  13.329 -0.3493  0.1930 -0.3133
  589MPD2    H7 8813   1.360   1.830  13.330  0.1916  1.0034 -0.4087
  590MPD2     C 8814   4.323   0.105   6.131  0.3271  0.0043  0.6137
  590MPD2    C1 8815   4.222   0.095   6.223  0.1074 -0.0665  0.6431
  590MPD2    C2 8816   4.107   0.018   6.194 -0.2557  0.1771 -1.6832
  590MPD2    C3 8817   4.095   4.737   6.068 -0.5196  0.0899  0.3746
  590MPD2    C4 8818   4.202   4.753   5.976  0.4963  0.2251 -0.0628
  590MPD2    C5 8819   4.312   0.048   6.010  0.4017 -0.0883  0.6557
  590MPD2     H 8820   4.035   4.774   6.272 -0.8501 -0.0444 -2.2821
  590MPD2    H1 8821   4.202   4.722   5.872  0.2778  0.7098 -0.2065
  590MPD2    H2 8822   4.415   0.156   6.157  0.0234 -0.3344  2.4194
  590MPD2    H3 8823   4.394   0.068   5.942 -0.5475  1.8864  0.1031
  590MPD2     N 8824   3.990   4.653   6.026 -0.4982  0.1402 -0.6355
  590MPD2    H5 8825   3.903   4.662   6.077 -0.4734  2.5517 -0.9907
  590MPD2    N1 8826   4.253   0.138   6.356 -0.0230 -0.6270  0.2166
  590MPD2    H7 8827   4.349   0.167   6.373 -0.5057  0.8847  0.3743
  591MPD2     C 8828   3.498   0.464  14.322  0.9866 -0.6721  0.2759
  591MPD2    C1 8829   3.525   0.337  14.286  0.2158 -0.2613 -0.1535
  591MPD2    C2 8830   3.628   0.273  14.353 -0.3363  0.1732 -0.3734
  591MPD2    C3 8831   3.708   0.348  14.442  0.6534  0.0938  0.3668
  591MPD2    C4 8832   3.688   0.479  14.462 -0.5003  0.4412 -0.2118
  591MPD2    C5 8833   3.575   0.530  14.409  0.1019  0.9419  0.7321
  591MPD2     H 8834   3.650   0.168  14.337 -1.5938  0.3994 -3.5128
  591MPD2    H1 8835   3.739   0.546  14.530  0.9345  0.2076 -1.0598
  591MPD2    H2 8836   3.428   0.523  14.264  0.3297 -0.6403  1.1097
  591MPD2    H3 8837   3.551   0.633  14.436  1.1344  1.3868 -0.0420
  591MPD2     N 8838   3.839   0.308  14.492  0.2482 -0.3627  0.5299
  591MPD2    H5 8839   3.895   0.377  14.541 -1.6829 -0.0820  2.3520
  591MPD2    N1 8840   3.458   0.267  14.181  0.1186  0.1259 -0.2551
  591MPD2    H7 8841   3.487   0.171  14.161  1.3163 -0.4528  4.2617
  592MPD2     C 8842   0.395   3.008   8.502 -0.1320 -0.4119  0.3731
  592MPD2    C1 8843   0.507   3.088   8.489  0.2019 -0.0326  0.3016
  592MPD2    C2 8844   0.495   3.215   8.444  0.4020 -0.3846  0.2137
  592MPD2    C3 8845   0.374   3.274   8.399  0.5118 -0.3286  0.4629
  592MPD2    C4 8846   0.271   3.191   8.396 -0.0498 -0.9013 -0.1953
  592MPD2    C5 8847   0.277   3.062   8.447 -0.6097 -0.0598 -0.0746
  592MPD2     H 8848   0.584   3.276   8.438  2.3744 -3.2306  0.8929
  592MPD2    H1 8849   0.174   3.221   8.359  0.8366  1.8158 -0.2808
  592MPD2    H2 8850   0.385   2.917   8.561 -0.8385  0.8652  2.2309
  592MPD2    H3 8851   0.186   3.003   8.440  0.3182 -1.4325 -0.6550
  592MPD2     N 8852   0.370   3.401   8.350  0.3001 -0.1908 -0.0223
  592MPD2    H5 8853   0.452   3.459   8.364 -0.4545  0.5349  1.4106
  592MPD2    N1 8854   0.627   3.027   8.526 -0.3725  0.0088 -0.3344
  592MPD2    H7 8855   0.621   2.956   8.598  0.7788  0.4378  0.1760
  593MPD2     C 8856   0.800   2.537   9.240 -0.2841 -0.2598 -0.1096
  593MPD2    C1 8857   0.856   2.666   9.244  0.6259  0.4405 -0.1398
  593MPD2    C2 8858   0.928   2.703   9.126 -0.0370  0.6116 -0.0994
  593MPD2    C3 8859   0.896   2.650   9.003 -0.4686 -0.1048 -0.3210
  593MPD2    C4 8860   0.827   2.533   8.998 -0.3247 -0.3802 -0.0873
  593MPD2    C5 8861   0.783   2.474   9.118 -0.1635 -0.1351  0.3833
  593MPD2     H 8862   0.989   2.792   9.140  1.2101 -0.5996  2.1320
  593MPD2    H1 8863   0.810   2.481   8.905 -0.4511 -0.4392 -0.0322
  593MPD2    H2 8864   0.765   2.493   9.333  2.0587 -3.4128 -0.6984
  593MPD2    H3 8865   0.727   2.381   9.116 -1.6084  0.7671 -0.6501
  593MPD2     N 8866   0.945   2.716   8.889  0.0960  0.5337 -0.1185
  593MPD2    H5 8867   1.003   2.798   8.897 -2.2942  2.0999  0.9076
  593MPD2    N1 8868   0.844   2.749   9.359  0.5326 -0.5424 -0.4657
  593MPD2    H7 8869   0.902   2.833   9.363 -0.1976  0.0319 -1.8843
  594MPD2     C 8870   2.609   2.897   6.709 -0.2467 -0.1140  0.5200
  594MPD2    C1 8871   2.730   2.962   6.731 -0.1647  0.4924 -0.3978
  594MPD2    C2 8872   2.741   3.100   6.731  0.0126  0.1502  0.1106
  594MPD2    C3 8873   2.637   3.179   6.705 -0.9563  0.3907 -0.4408
  594MPD2    C4 8874   2.515   3.115   6.690  0.1349  0.0347  0.0550
  594MPD2    C5 8875   2.496   2.978   6.690  0.1561  0.3674  0.1082
  594MPD2     H 8876   2.836   3.137   6.768 -0.0206 -0.4380  0.7825
  594MPD2    H1 8877   2.426   3.172   6.667 -1.0312 -2.2291 -0.9375
  594MPD2    H2 8878   2.593   2.790   6.708  2.0188 -0.4129 -3.3737
  594MPD2    H3 8879   2.397   2.937   6.676  0.8959 -2.4998  3.3138
  594MPD2     N 8880   2.652   3.317   6.730  0.0160  0.6664 -0.3700
  594MPD2    H5 8881   2.735   3.342   6.783  0.2535  0.4608 -0.6476
  594MPD2    N1 8882   2.836   2.883   6.774 -0.1676 -0.0342  0.7884
  594MPD2    H7 8883   2.819   2.793   6.819 -0.1440  1.3254  3.5353
  595MPD2     C 8884   0.713   2.160  13.593 -0.2579  0.4938 -0.3762
  595MPD2    C1 8885   0.700   2.245  13.489  0.5926  0.1558 -0.0161
  595MPD2    C2 8886   0.663   2.200  13.364  0.1929 -0.1484 -1.1189
  595MPD2    C3 8887   0.634   2.066  13.344 -0.2073 -0.0855  0.1391
  595MPD2    C4 8888   0.643   1.980  13.454  0.2636  0.1096 -0.5694
  595MPD2    C5 8889   0.675   2.032  13.575  0.3542 -0.3089 -0.1630
  595MPD2     H 8890   0.652   2.274  13.286 -0.2866  0.7050 -0.2453
  595MPD2    H1 8891   0.626   1.874  13.445  2.2790 -0.2116 -0.4670
  595MPD2    H2 8892   0.757   2.184  13.689  1.2649  0.4714 -1.0656
  595MPD2    H3 8893   0.682   1.969  13.663 -0.6318 -1.0300 -0.6028
  595MPD2     N 8894   0.604   2.026  13.211 -0.1116  0.0052 -0.1379
  595MPD2    H5 8895   0.594   2.100  13.143 -0.9976 -1.0527 -1.1740
  595MPD2    N1 8896   0.738   2.378  13.521  0.2324 -0.2531 -0.0410
  595MPD2    H7 8897   0.765   2.395  13.617  1.6244 -0.3967 -0.4148
  596MPD2     C 8898   2.574   2.405  12.108  0.5571 -0.5465  0.6374
  596MPD2    C1 8899   2.492   2.504  12.065  0.0939  0.0406 -0.2466
  596MPD2    C2 8900   2.455   2.511  11.938 -0.2522  0.1147  0.0088
  596MPD2    C3 8901   2.483   2.404  11.850 -0.3946 -0.5938 -0.0836
  596MPD2    C4 8902   2.568   2.302  11.886 -0.7506  0.5044 -0.8249
  596MPD2    C5 8903   2.610   2.306  12.021 -0.7013 -0.1557  0.4818
  596MPD2     H 8904   2.398   2.598  11.909  2.2747  0.7117 -3.2316
  596MPD2    H1 8905   2.594   2.217  11.823 -1.1398 -0.3361  0.1404
  596MPD2    H2 8906   2.620   2.395  12.205  0.6791  0.3529  0.6785
  596MPD2    H3 8907   2.667   2.219  12.052  0.7218  0.1610 -1.2408
  596MPD2     N 8908   2.402   2.390  11.733 -0.7008 -0.2973 -0.1851
  596MPD2    H5 8909   2.426   2.320  11.664 -1.5071  1.2531 -2.0591
  596MPD2    N1 8910   2.457   2.613  12.142 -0.1013  0.3170 -0.5649
  596MPD2    H7 8911   2.398   2.678  12.092  1.0292  1.8909  0.1386
  597MPD2     C 8912   0.400   1.884   8.961  0.1128 -0.2811 -0.3932
  597MPD2    C1 8913   0.399   1.752   8.923 -0.9687 -0.0657  0.2558
  597MPD2    C2 8914   0.384   1.660   9.033 -0.2620 -0.0136  0.2608
  597MPD2    C3 8915   0.366   1.699   9.164  0.5472  0.0682 -0.2851
  597MPD2    C4 8916   0.367   1.836   9.187 -0.0014 -0.0824  0.0759
  597MPD2    C5 8917   0.388   1.925   9.087  0.0097  0.1185 -0.1171
  597MPD2     H 8918   0.383   1.552   9.017 -1.7825 -0.5819  4.1113
  597MPD2    H1 8919   0.331   1.872   9.283  2.4829 -0.9401  1.3152
  597MPD2    H2 8920   0.404   1.959   8.882 -0.7241  1.1044  0.8712
  597MPD2    H3 8921   0.375   2.031   9.108  1.5650 -0.0214  1.5081
  597MPD2     N 8922   0.343   1.613   9.273 -0.0540 -0.4749 -0.0384
  597MPD2    H5 8923   0.309   1.653   9.360  0.4599  1.5278 -0.7772
  597MPD2    N1 8924   0.401   1.717   8.783  1.1582  1.1610  0.2849
  597MPD2    H7 8925   0.417   1.791   8.715 -1.0594 -0.2200 -1.7276
  598MPD2     C 8926   0.543   1.844   7.781  0.6184  0.4832 -0.8621
  598MPD2    C1 8927   0.581   1.722   7.839 -0.2300  0.0180 -0.5968
  598MPD2    C2 8928   0.543   1.692   7.971  0.3617  1.0326  0.3802
  598MPD2    C3 8929   0.456   1.782   8.032  0.2744  0.3147 -0.2762
  598MPD2    C4 8930   0.408   1.897   7.965 -0.8565  0.2254 -0.0035
  598MPD2    C5 8931   0.460   1.938   7.844  0.6989  0.0558  0.0714
  598MPD2     H 8932   0.568   1.600   8.022  2.2088  0.8657 -0.8258
  598MPD2    H1 8933   0.347   1.968   8.020 -1.4267 -0.9147  0.8538
  598MPD2    H2 8934   0.580   1.880   7.685  0.3142  1.5932 -0.5665
  598MPD2    H3 8935   0.441   2.037   7.804 -0.6776 -0.2554 -0.0644
  598MPD2     N 8936   0.402   1.760   8.162  0.6077  0.3468 -0.1115
  598MPD2    H5 8937   0.329   1.824   8.191  1.1457  1.0177 -0.2445
  598MPD2    N1 8938   0.650   1.633   7.758 -0.1358  0.0260 -1.3373
  598MPD2    H7 8939   0.672   1.670   7.666  2.1330  1.0266 -0.3759
  599MPD2     C 8940   0.325   4.488  13.882  0.4712  0.4092  0.1118
  599MPD2    C1 8941   0.281   4.621  13.892  0.0961  0.0347 -0.0253
  599MPD2    C2 8942   0.321   4.714  13.797  0.1108 -0.0688  0.7203
  599MPD2    C3 8943   0.385   4.667  13.680 -0.1794  0.4423  0.5631
  599MPD2    C4 8944   0.411   4.532  13.662  0.0939 -0.0256 -0.0158
  599MPD2    C5 8945   0.377   4.442  13.762 -0.1565  0.5361 -0.3010
  599MPD2     H 8946   0.323   0.044  13.818 -2.0957  0.1316 -0.0933
  599MPD2    H1 8947   0.470   4.498  13.578  0.7149 -0.9634  0.7971
  599MPD2    H2 8948   0.298   4.405  13.947 -0.7784  0.2847 -0.5729
  599MPD2    H3 8949   0.404   4.338  13.745  1.6465  0.7711  1.1136
  599MPD2     N 8950   0.423   4.772  13.591  0.9056 -0.1666  0.4052
  599MPD2    H5 8951   0.397   0.093  13.603 -0.8865 -0.5864 -0.0302
  599MPD2    N1 8952   0.207   4.660  14.007 -0.0239 -0.0098 -0.0956
  599MPD2    H7 8953   0.190   4.595  14.083  3.5697 -2.1293 -1.0987
  600MPD2     C 8954   2.731   3.833  14.609  1.1642 -0.1497 -0.3318
  600MPD2    C1 8955   2.823   3.931  14.626 -0.7947  0.0674  0.1161
  600MPD2    C2 8956   2.957   3.893  14.652  0.1206  0.9058 -0.7458
  600MPD2    C3 8957   2.991   3.757  14.658  0.2065  0.8584 -0.0569
  600MPD2    C4 8958   2.890   3.661  14.658  0.1408 -0.1092 -0.3641
  600MPD2    C5 8959   2.763   3.706  14.635  0.1980  0.0851 -0.4386
  600MPD2     H 8960   3.036   3.965  14.668 -0.1959  1.5785 -2.2744
  600MPD2    H1 8961   2.897   3.554  14.673 -2.4191 -0.0603  1.2019
  600MPD2    H2 8962   2.627   3.857  14.591  0.4552 -2.8213  0.1022
  600MPD2    H3 8963   2.686   3.629  14.633  0.3825 -0.0928 -0.7489
  600MPD2     N 8964   3.126   3.721  14.696 -0.1284 -0.4867  0.0259
  600MPD2    H5 8965   3.144   3.621  14.693 -1.6278 -0.8137  1.4053
  600MPD2    N1 8966   2.799   4.071  14.622 -0.3124 -0.4435  0.3868
  600MPD2    H7 8967   2.883   4.128  14.618 -0.8074  0.1919 -0.9786
  601MPD2     C 8968   2.130   3.810   6.486 -0.2239  0.7081 -0.2291
  601MPD2    C1 8969   2.240   3.883   6.517 -0.4606 -0.3819  0.3697
  601MPD2    C2 8970   2.250   4.005   6.460  0.3341 -0.7270 -0.2716
  601MPD2    C3 8971   2.146   4.067   6.392 -0.6306  0.1212  0.3770
  601MPD2    C4 8972   2.035   3.992   6.368  0.1651 -0.6818  0.1512
  601MPD2    C5 8973   2.030   3.866   6.409 -0.0580 -0.2920  0.1316
  601MPD2     H 8974   2.340   4.066   6.466  0.1052 -0.5190  1.0845
  601MPD2    H1 8975   1.954   4.033   6.309  3.1810  1.3515 -2.5365
  601MPD2    H2 8976   2.119   3.711   6.528 -0.8076  1.3133  1.0334
  601MPD2    H3 8977   1.936   3.811   6.401 -0.8849  1.3928 -1.7754
  601MPD2     N 8978   2.148   4.196   6.336 -0.1943  0.6326 -0.1458
  601MPD2    H5 8979   2.059   4.234   6.306 -0.3725 -0.0083 -0.4488
  601MPD2    N1 8980   2.348   3.821   6.582  0.5834  0.2166 -0.5116
  601MPD2    H7 8981   2.323   3.735   6.630 -0.3267  1.7809  1.8359
  602MPD2     C 8982   2.907   3.019  11.312 -0.3829  0.0802 -0.5916
  602MPD2    C1 8983   2.839   3.138  11.333 -0.0681  0.9799  0.1789
  602MPD2    C2 8984   2.767   3.158  11.447 -0.6230 -0.4571  0.4434
  602MPD2    C3 8985   2.760   3.065  11.547  0.9458  0.0971 -0.1450
  602MPD2    C4 8986   2.841   2.951  11.535  0.5154 -0.6782  0.1728
  602MPD2    C5 8987   2.907   2.926  11.411 -0.2577 -0.5104 -0.7398
  602MPD2     H 8988   2.724   3.256  11.464  1.0530  0.3351  0.0810
  602MPD2    H1 8989   2.850   2.884  11.620  1.6665 -0.2703  0.3774
  602MPD2    H2 8990   2.964   2.996  11.223  0.6431  1.4273 -0.2795
  602MPD2    H3 8991   2.973   2.843  11.391 -2.6181 -2.5183 -0.2280
  602MPD2     N 8992   2.691   3.091  11.669 -1.2091 -0.1334  0.4839
  602MPD2    H5 8993   2.707   3.024  11.743  0.0982 -0.4266 -0.0539
  602MPD2    N1 8994   2.834   3.243  11.237  0.2364 -0.3151  0.2472
  602MPD2    H7 8995   2.770   3.316  11.266 -0.7253 -0.5966 -1.1798
  603MPD2     C 8996   0.352   1.386  10.605 -0.3291 -0.4152 -0.8365
  603MPD2    C1 8997   0.439   1.446  10.515  0.7433  0.3210 -0.2893
  603MPD2    C2 8998   0.417   1.406  10.385 -0.1225  0.9403 -0.4512
  603MPD2    C3 8999   0.311   1.331  10.342 -0.7731  0.9743 -0.7108
  603MPD2    C4 9000   0.228   1.273  10.432  0.2217 -0.5676  0.0628
  603MPD2    C5 9001   0.260   1.299  10.563  0.5013 -0.3313  0.5639
  603MPD2     H 9002   0.495   1.451  10.326  1.2833  0.2395  0.8591
  603MPD2    H1 9003   0.145   1.208  10.406 -0.9932  0.6027  1.0936
  603MPD2    H2 9004   0.352   1.398  10.713 -3.0147 -0.3665 -0.8357
  603MPD2    H3 9005   0.211   1.239  10.639  0.5143  0.9434  1.5750
  603MPD2     N 9006   0.289   1.324  10.204 -0.3397  0.2606 -0.0132
  603MPD2    H5 9007   0.365   1.369  10.154 -0.2775  1.1788  0.9024
  603MPD2    N1 9008   0.543   1.524  10.552  0.3436  0.5720  0.1785
  603MPD2    H7 9009   0.595   1.562  10.473  2.4558  0.4783  1.5217
  604MPD2     C 9010   0.919   1.724   9.859  0.4134  0.3288  0.0457
  604MPD2    C1 9011   1.039   1.746   9.923 -0.3155 -0.3506 -0.0510
  604MPD2    C2 9012   1.041   1.738  10.063  0.2061 -0.2404  0.1796
  604MPD2    C3 9013   0.927   1.700  10.131  0.5136  0.2768 -0.7315
  604MPD2    C4 9014   0.810   1.679  10.060 -0.9262 -1.0145 -0.2203
  604MPD2    C5 9015   0.802   1.701   9.924  0.2969  0.8502 -0.2307
  604MPD2     H 9016   1.131   1.756  10.121 -0.0862  2.0047 -0.0590
  604MPD2    H1 9017   0.715   1.660  10.108 -0.4270 -0.9522  0.8154
  604MPD2    H2 9018   0.914   1.726   9.750 -1.9069 -1.5748  0.1083
  604MPD2    H3 9019   0.710   1.687   9.868 -0.2402  0.0481  0.8593
  604MPD2     N 9020   0.923   1.694  10.275  0.2636 -0.2787 -0.4044
  604MPD2    H5 9021   1.008   1.734  10.313 -1.2790  3.7621 -1.1753
  604MPD2    N1 9022   1.157   1.773   9.856 -0.4757  0.0238 -0.2065
  604MPD2    H7 9023   1.240   1.786   9.913 -0.6031  0.8675 -0.2230
  605MPD2     C 9024   3.457   4.580   8.196 -0.2706  0.2396 -0.0216
  605MPD2    C1 9025   3.540   4.575   8.088 -0.2476  0.4228  0.4763
  605MPD2    C2 9026   3.532   4.470   7.990  0.3167  0.7430 -0.1946
  605MPD2    C3 9027   3.443   4.373   8.006 -0.4100  0.2810 -0.0771
  605MPD2    C4 9028   3.359   4.376   8.114 -0.0460 -0.0061 -0.0378
  605MPD2    C5 9029   3.371   4.475   8.210 -0.5501 -0.6196 -0.7612
  605MPD2     H 9030   3.598   4.477   7.905 -1.6176 -0.3615 -1.7765
  605MPD2    H1 9031   3.276   4.308   8.126  0.3899 -0.4777  0.2545
  605MPD2    H2 9032   3.449   4.658   8.270 -0.5012  0.0855  0.1171
  605MPD2    H3 9033   3.306   4.471   8.297 -2.4130 -0.5051 -2.1657
  605MPD2     N 9034   3.401   4.278   7.913  0.0275  0.2291 -0.3530
  605MPD2    H5 9035   3.327   4.217   7.947  0.5325  0.1026  0.5160
  605MPD2    N1 9036   3.617   4.682   8.052  0.0594  0.1148  0.6068
  605MPD2    H7 9037   3.669   4.680   7.965  3.8592  2.2668  2.8818
  606MPD2     C 9038   0.692   4.626  14.675  0.6220 -0.4412  0.3098
  606MPD2    C1 9039   0.572   4.630  14.740  0.4394  0.5384  0.0271
  606MPD2    C2 9040   0.462   4.674  14.666  0.3783 -0.0452  0.3733
  606MPD2    C3 9041   0.479   4.709  14.534  0.4068  0.2731 -0.0299
  606MPD2    C4 9042   0.603   4.706  14.475 -0.2060  0.4675 -0.0744
  606MPD2    C5 9043   0.710   4.654  14.543  0.9009 -0.2255  0.1416
  606MPD2     H 9044   0.362   4.683  14.706  0.5563  1.4146  0.4901
  606MPD2    H1 9045   0.622   4.736  14.373  4.9249  1.3422  1.1297
  606MPD2    H2 9046   0.780   4.584  14.722  0.1924  0.2139  1.6952
  606MPD2    H3 9047   0.810   4.665  14.503  0.4279  0.7023 -0.7899
  606MPD2     N 9048   0.370   4.742  14.450 -0.2738 -0.5289  0.3078
  606MPD2    H5 9049   0.390   4.771  14.355 -1.5815  1.0936  0.5461
  606MPD2    N1 9050   0.568   4.606  14.880 -0.1671 -0.2219  0.8959
  606MPD2    H7 9051   0.658   4.579  14.920  0.7129 -0.2645 -1.0935
  607MPD2     C 9052   2.479   4.558   7.957  0.4497 -0.3731 -0.0249
  607MPD2    C1 9053   2.555   4.566   8.074 -0.0538 -0.2542 -0.3851
  607MPD2    C2 9054   2.583   4.448   8.143  0.3920 -0.7529 -0.1565
  607MPD2    C3 9055   2.526   4.324   8.099 -0.5429  0.8631 -0.5776
  607MPD2    C4 9056   2.444   4.320   7.986 -0.3709  0.1292  0.4368
  607MPD2    C5 9057   2.427   4.439   7.915 -0.5180 -0.0518  0.1566
  607MPD2     H 9058   2.635   4.455   8.238 -1.2140  4.0879  0.3607
  607MPD2    H1 9059   2.393   4.229   7.956 -1.8245  0.8758  0.6227
  607MPD2    H2 9060   2.467   4.648   7.896  1.9133 -0.4892 -0.4748
  607MPD2    H3 9061   2.386   4.426   7.815 -0.8242 -2.8872  0.6458
  607MPD2     N 9062   2.554   4.207   8.168  0.6285  0.3584  0.4145
  607MPD2    H5 9063   2.492   4.130   8.143  0.4169  0.9521 -0.9116
  607MPD2    N1 9064   2.602   4.685   8.131  0.1101 -0.9033  0.0761
  607MPD2    H7 9065   2.626   4.676   8.229 -2.5416 -2.4425  0.5611
  608MPD2     C 9066   2.045   3.942  11.873  0.3674 -0.2552 -0.3500
  608MPD2    C1 9067   2.043   3.895  11.996  0.2211  0.2605  0.1927
  608MPD2    C2 9068   2.081   3.980  12.102 -0.4391 -0.4258 -0.1271
  608MPD2    C3 9069   2.118   4.114  12.079  0.6162  0.3305 -0.5994
  608MPD2    C4 9070   2.097   4.162  11.950 -0.5129  0.3353 -0.0065
  608MPD2    C5 9071   2.065   4.076  11.851  0.0223 -0.6084  0.2227
  608MPD2     H 9072   2.072   3.938  12.202  4.8023  0.8942  0.9052
  608MPD2    H1 9073   2.125   4.264  11.924  1.2515 -0.2875 -0.4963
  608MPD2    H2 9074   2.025   3.879  11.787  0.8295  0.7231 -1.1785
  608MPD2    H3 9075   2.067   4.109  11.748 -1.8437  1.1418  0.7644
  608MPD2     N 9076   2.170   4.201  12.178 -0.2661  0.2267 -0.2852
  608MPD2    H5 9077   2.191   4.296  12.149  1.4199  0.0487  0.3878
  608MPD2    N1 9078   2.034   3.754  12.003  0.5836 -0.3424 -0.3730
  608MPD2    H7 9079   2.007   3.714  11.914 -1.4865  1.7265 -0.6727
  609MPD2     C 9080   4.562   4.772  12.171 -0.3722  0.1369 -0.3957
  609MPD2    C1 9081   4.501   0.094  12.098 -0.2412  0.3397  0.2331
  609MPD2    C2 9082   4.531   0.097  11.960 -0.4585  0.0638 -0.2906
  609MPD2    C3 9083   4.627   0.013  11.904 -0.3990 -0.9154  0.5775
  609MPD2    C4 9084   4.707   4.717  11.987 -0.1839 -0.2456 -0.3505
  609MPD2    C5 9085   4.666   4.698  12.114  0.1579  0.3082  0.3358
  609MPD2     H 9086   4.478   0.164  11.894 -0.9536  0.6167  0.6670
  609MPD2    H1 9087   0.015   4.656  11.954 -0.5301 -0.8202 -0.1585
  609MPD2    H2 9088   4.537   4.751  12.274 -1.7045 -0.5206 -0.8488
  609MPD2    H3 9089   4.722   4.632  12.179  0.6685  1.8325  1.4430
  609MPD2     N 9090   4.653   0.042  11.764  0.1638  0.1792 -0.4566
  609MPD2    H5 9091   4.592   0.110  11.720  0.3838 -0.3597 -1.6059
  609MPD2    N1 9092   4.385   0.165  12.143  0.4522  0.0059  0.1065
  609MPD2    H7 9093   4.337   0.231  12.083  1.6672 -0.0293 -0.9083
  610MPD2     C 9094   0.619   3.497  11.770 -0.7571  0.3135 -0.7550
  610MPD2    C1 9095   0.590   3.561  11.656  0.8318  0.2592 -0.2536
  610MPD2    C2 9096   0.687   3.603  11.567  0.4686  1.0052  0.1658
  610MPD2    C3 9097   0.818   3.603  11.606 -0.4146  0.7483  0.2396
  610MPD2    C4 9098   0.855   3.545  11.722  0.5523  0.2060 -0.5338
  610MPD2    C5 9099   0.753   3.498  11.806 -0.2341  0.1207 -0.1238
  610MPD2     H 9100   0.647   3.646  11.476  1.2089  0.2768 -0.4974
  610MPD2    H1 9101   0.961   3.538  11.743  0.4056  0.3305  0.2581
  610MPD2    H2 9102   0.543   3.441  11.823 -1.2952  0.6322 -1.1772
  610MPD2    H3 9103   0.790   3.446  11.894  2.1955  0.3592 -0.9999
  610MPD2     N 9104   0.923   3.647  11.526  0.0769  0.1731  0.5293
  610MPD2    H5 9105   1.019   3.630  11.553  0.4046 -0.7163 -1.1500
  610MPD2    N1 9106   0.453   3.563  11.621  0.3644  0.0364 -0.5888
  610MPD2    H7 9107   0.439   3.581  11.522  1.5258 -1.4929 -1.0182
  611MPD2     C 9108   3.760   3.198  13.517  0.3199  0.1761 -0.1871
  611MPD2    C1 9109   3.866   3.114  13.472  0.1614  0.5116 -0.1817
  611MPD2    C2 9110   3.985   3.105  13.542 -0.0421  0.0723 -0.7502
  611MPD2    C3 9111   4.000   3.175  13.663 -0.3748 -0.0463 -0.9825
  611MPD2    C4 9112   3.900   3.253  13.703 -0.0549  0.4394 -0.3468
  611MPD2    C5 9113   3.775   3.260  13.635 -0.2109  0.1578 -0.7288
  611MPD2     H 9114   4.057   3.034  13.502 -0.0045 -0.0752 -0.4243
  611MPD2    H1 9115   3.902   3.303  13.799  0.7846  2.8164 -1.5994
  611MPD2    H2 9116   3.665   3.217  13.467  0.2498 -0.0046 -0.1252
  611MPD2    H3 9117   3.697   3.331  13.660 -0.4714 -0.4408  0.1256
  611MPD2     N 9118   4.118   3.171  13.738 -0.0677 -0.0553  0.2736
  611MPD2    H5 9119   4.123   3.214  13.830  2.4817 -0.7018  0.4418
  611MPD2    N1 9120   3.854   3.063  13.340  0.1023  0.2828  0.5447
  611MPD2    H7 9121   3.778   3.096  13.282  0.0340 -2.5653 -0.9957
  612MPD2     C 9122   3.695   2.139  11.946 -0.8246  0.0148 -0.6678
  612MPD2    C1 9123   3.649   2.253  12.002  0.0568 -0.0607  0.0113
  612MPD2    C2 9124   3.650   2.261  12.138 -0.6343 -0.5601 -0.2041
  612MPD2    C3 9125   3.683   2.154  12.221  0.5480  0.0827  0.0618
  612MPD2    C4 9126   3.738   2.042  12.164  0.3232 -0.0281 -0.3007
  612MPD2    C5 9127   3.751   2.039  12.024 -0.4822  0.3683 -0.3578
  612MPD2     H 9128   3.630   2.356  12.185 -0.2818 -0.6313  0.0937
  612MPD2    H1 9129   3.780   1.956  12.215 -2.4797 -0.1171  1.8376
  612MPD2    H2 9130   3.691   2.128  11.838  2.1889 -0.7846 -0.7121
  612MPD2    H3 9131   3.800   1.952  11.981  0.8111  1.6589 -1.5086
  612MPD2     N 9132   3.689   2.169  12.356  0.0049 -0.7935  0.5440
  612MPD2    H5 9133   3.739   2.096  12.406 -0.2747 -0.9248  0.6280
  612MPD2    N1 9134   3.618   2.365  11.922  0.2043 -0.3554  0.3132
  612MPD2    H7 9135   3.666   2.363  11.833 -0.7354 -0.5373 -0.1876
  613MPD2     C 9136   3.090   3.256  12.044 -0.7269  0.8208  0.2590
  613MPD2    C1 9137   3.162   3.257  11.927  0.4933  0.1016 -0.2217
  613MPD2    C2 9138   3.244   3.156  11.884  0.5270 -0.1810  0.5128
  613MPD2    C3 9139   3.256   3.044  11.970  0.7437  0.1296 -0.1424
  613MPD2    C4 9140   3.180   3.040  12.083 -0.0040  0.2907  0.0853
  613MPD2    C5 9141   3.094   3.138  12.119 -0.6526 -1.6689  0.1930
  613MPD2     H 9142   3.317   3.172  11.806  0.7768 -0.0842  0.7684
  613MPD2    H1 9143   3.200   2.971  12.164 -1.3802 -0.0124  0.1793
  613MPD2    H2 9144   3.017   3.331  12.071  0.1145  2.0652 -0.9435
  613MPD2    H3 9145   3.035   3.127  12.209 -2.4396  0.4854 -0.7301
  613MPD2     N 9146   3.343   2.937  11.942  0.1100 -0.7071 -0.6229
  613MPD2    H5 9147   3.352   2.866  12.013 -1.9347 -0.3925 -0.0539
  613MPD2    N1 9148   3.159   3.389  11.862  0.0854 -0.0417 -0.4310
  613MPD2    H7 9149   3.106   3.461  11.911  0.3201  0.5920 -1.1217
  614MPD2     C 9150   3.651   3.835   7.200 -0.4571  0.2543 -1.0565
  614MPD2    C1 9151   3.615   3.960   7.236 -0.4531 -0.1940  0.3931
  614MPD2    C2 9152   3.653   4.061   7.155  0.2153 -1.0310  0.1512
  614MPD2    C3 9153   3.732   4.036   7.044  0.1689 -0.7864  0.2658
  614MPD2    C4 9154   3.771   3.908   7.016 -0.2209 -0.7075 -0.6458
  614MPD2    C5 9155   3.726   3.805   7.091 -0.1732  0.3890  0.4821
  614MPD2     H 9156   3.633   4.162   7.190 -0.4463 -0.9811 -0.3468
  614MPD2    H1 9157   3.837   3.880   6.934 -0.5566 -0.6689 -0.9282
  614MPD2    H2 9158   3.622   3.754   7.266 -1.3398 -0.8024 -2.7410
  614MPD2    H3 9159   3.754   3.705   7.060 -0.7472  0.5603 -0.5781
  614MPD2     N 9160   3.778   4.141   6.958  0.9534  0.5919 -0.3041
  614MPD2    H5 9161   3.856   4.121   6.895  0.4410 -0.9086 -0.4587
  614MPD2    N1 9162   3.551   3.994   7.359 -0.4135  0.2540 -0.4040
  614MPD2    H7 9163   3.545   4.094   7.375 -1.5962  0.3312 -1.3706
  615MPD2     C 9164   2.242   2.188   8.675 -1.0146  1.0471  0.2512
  615MPD2    C1 9165   2.115   2.149   8.647  0.6461 -0.2945  0.4939
  615MPD2    C2 9166   2.077   2.086   8.531 -0.4442  0.4772  0.2284
  615MPD2    C3 9167   2.176   2.044   8.450 -0.1383 -0.0051  0.9408
  615MPD2    C4 9168   2.310   2.066   8.484  0.0432 -0.1259 -0.7661
  615MPD2    C5 9169   2.342   2.142   8.591  0.1888 -0.4879  0.4577
  615MPD2     H 9170   1.971   2.073   8.513 -0.2259 -0.5316 -0.2869
  615MPD2    H1 9171   2.394   2.036   8.423 -0.6134 -0.0950 -1.6908
  615MPD2    H2 9172   2.271   2.248   8.761  1.6465 -2.0926  1.5039
  615MPD2    H3 9173   2.447   2.168   8.601  0.3489 -1.4838  1.4014
  615MPD2     N 9174   2.135   1.977   8.336 -0.5309  0.1221 -0.1174
  615MPD2    H5 9175   2.036   1.964   8.318 -0.1446  1.4765 -3.1989
  615MPD2    N1 9176   2.007   2.179   8.733  0.1658  0.2281  0.1605
  615MPD2    H7 9177   1.915   2.148   8.704 -0.7609  1.8695  1.3294
  616MPD2     C 9178   1.826   2.693   8.512 -0.2906 -0.2748 -0.2150
  616MPD2    C1 9179   1.744   2.583   8.501  0.1803  0.7861  1.2139
  616MPD2    C2 9180   1.722   2.526   8.376  0.3351  0.0616 -0.2502
  616MPD2    C3 9181   1.781   2.578   8.265  0.7390 -0.1834  0.4556
  616MPD2    C4 9182   1.854   2.697   8.269 -0.1923 -0.0537 -0.8838
  616MPD2    C5 9183   1.867   2.756   8.390 -0.1183 -0.9542  0.4997
  616MPD2     H 9184   1.671   2.430   8.377  1.7821 -0.7504 -3.5965
  616MPD2    H1 9185   1.882   2.743   8.176 -0.8473  0.6337 -0.7400
  616MPD2    H2 9186   1.845   2.750   8.603 -0.4282 -0.7741  0.1235
  616MPD2    H3 9187   1.916   2.852   8.396 -0.5182 -0.6623 -0.9608
  616MPD2     N 9188   1.771   2.520   8.141  0.4967 -0.6681  1.0901
  616MPD2    H5 9189   1.813   2.568   8.063  0.4649 -1.4442  0.5927
  616MPD2    N1 9190   1.702   2.511   8.613  0.4730 -0.2373 -0.5257
  616MPD2    H7 9191   1.683   2.411   8.607 -2.5735  0.2503  0.8985
  617MPD2     C 9192   3.253   4.698  14.589  0.6930 -0.5659  0.1417
  617MPD2    C1 9193   3.197   4.595  14.515  0.0531  0.0771  0.2250
  617MPD2    C2 9194   3.279   4.511  14.444  0.4509 -0.5036  0.4506
  617MPD2    C3 9195   3.414   4.539  14.430  0.8160  0.4170 -0.3344
  617MPD2    C4 9196   3.465   4.654  14.487  0.1060 -0.0740  0.4045
  617MPD2    C5 9197   3.383   4.727  14.568  0.2369 -0.4279  0.0482
  617MPD2     H 9198   3.238   4.424  14.393  1.4918 -1.9005  1.9701
  617MPD2    H1 9199   3.568   4.683  14.467  0.5096 -2.4906 -1.0979
  617MPD2    H2 9200   3.182   4.762  14.642  0.4622 -0.6377 -0.0816
  617MPD2    H3 9201   3.427   0.043  14.605  0.0782 -0.5718  0.6029
  617MPD2     N 9202   3.483   4.450  14.349 -0.3071 -0.1528 -0.4346
  617MPD2    H5 9203   3.449   4.358  14.322 -2.2918  0.3018  0.4931
  617MPD2    N1 9204   3.058   4.572  14.535  0.7570 -0.5245 -0.0153
  617MPD2    H7 9205   3.006   4.639  14.591 -0.1517 -1.1342 -0.1346
  618MPD2     C 9206   4.408   0.370  14.446 -0.2809  0.2615 -0.3590
  618MPD2    C1 9207   4.541   0.375  14.504  0.0258  0.2025  0.3955
  618MPD2    C2 9208   4.570   0.447  14.619  0.5002 -1.2827  0.6626
  618MPD2    C3 9209   4.463   0.509  14.687 -0.1927 -0.4820  0.0755
  618MPD2    C4 9210   4.337   0.507  14.631 -0.2245  0.3093  0.1622
  618MPD2    C5 9211   4.308   0.441  14.512 -0.3801 -0.1807 -0.0079
  618MPD2     H 9212   4.670   0.447  14.660  0.9334 -1.0466 -0.3846
  618MPD2    H1 9213   4.258   0.565  14.676 -0.5806  0.2992 -0.4405
  618MPD2    H2 9214   4.385   0.313  14.357  0.4142  0.3037 -0.5663
  618MPD2    H3 9215   4.206   0.446  14.475  0.1210 -1.5378 -1.5719
  618MPD2     N 9216   4.485   0.592  14.797 -0.2377  0.1231 -0.3102
  618MPD2    H5 9217   4.398   0.629  14.835 -0.7627 -0.7602 -0.6527
  618MPD2    N1 9218   4.650   0.306  14.445  0.3302 -0.3128  0.4853
  618MPD2    H7 9219   4.739   0.297  14.494  0.1218 -2.7819  0.3717
  619MPD2     C 9220   1.532   2.812   9.976  0.1228  0.4624  0.1176
  619MPD2    C1 9221   1.554   2.739   9.862  0.7962 -0.1117  0.1612
  619MPD2    C2 9222   1.660   2.772   9.780 -0.1133  0.4046 -0.0369
  619MPD2    C3 9223   1.755   2.867   9.815 -0.2782  0.3584  0.0758
  619MPD2    C4 9224   1.740   2.932   9.936  0.5262  0.2677  0.5121
  619MPD2    C5 9225   1.625   2.909  10.008 -0.5223 -0.6024 -0.3475
  619MPD2     H 9226   1.662   2.722   9.683  2.6887  0.7924 -0.1919
  619MPD2    H1 9227   1.809   3.009   9.969  0.0189  1.6191 -1.5494
  619MPD2    H2 9228   1.445   2.795  10.038 -1.0133 -0.0304 -1.6034
  619MPD2    H3 9229   1.595   2.979  10.086  1.6867  0.7265 -0.7023
  619MPD2     N 9230   1.855   2.921   9.729  0.1715  0.2293  0.0784
  619MPD2    H5 9231   1.915   2.991   9.771 -0.8218  1.8600 -1.1818
  619MPD2    N1 9232   1.468   2.637   9.823 -0.2840 -0.3255  0.2842
  619MPD2    H7 9233   1.499   2.577   9.747 -2.3375 -0.7506 -0.2428
  620MPD2     C 9234   4.163   4.264  15.181  0.7391 -0.2925 -0.6345
  620MPD2    C1 9235   4.213   4.359  15.267  0.2129  0.0333 -0.1768
  620MPD2    C2 9236   4.125   4.436  15.335  0.2105 -0.6348  0.3041
  620MPD2    C3 9237   3.988   4.440  15.317  0.0285  0.2427  0.2147
  620MPD2    C4 9238   3.942   4.357  15.223 -0.5011  0.9697 -0.4971
  620MPD2    C5 9239   4.025   4.264  15.165 -0.6325  0.2186  0.2344
  620MPD2     H 9240   4.157   4.515  15.402  1.7750 -1.0797  0.0753
  620MPD2    H1 9241   3.836   4.353  15.198 -0.8079  1.2816  0.8004
  620MPD2    H2 9242   4.227   4.198  15.124 -0.7300 -2.3620  0.1019
  620MPD2    H3 9243   3.983   4.193  15.095  1.8505 -1.8484  0.8547
  620MPD2     N 9244   3.904   4.530  15.383 -0.0457 -0.5116 -0.2462
  620MPD2    H5 9245   3.806   4.530  15.359 -0.2354  2.3300  0.5614
  620MPD2    N1 9246   4.352   4.389  15.280 -0.0174  0.1474  0.0989
  620MPD2    H7 9247   4.363   4.481  15.319  0.3816 -0.6271  1.7943
  621MPD2     C 9248   4.286   0.333  15.073  0.4381 -0.6745 -0.1729
  621MPD2    C1 9249   4.166   0.283  15.030 -1.0055 -0.3181 -0.2272
  621MPD2    C2 9250   4.060   0.273  15.122 -0.1001 -1.1693  0.0389
  621MPD2    C3 9251   4.085   0.312  15.252 -0.2964 -0.4722  1.2258
  621MPD2    C4 9252   4.206   0.358  15.290  0.2591  0.4665 -0.1860
  621MPD2    C5 9253   4.302   0.374  15.197 -0.1920 -0.0935 -0.0216
  621MPD2     H 9254   3.974   0.210  15.103  0.0524 -0.5563 -2.7631
  621MPD2    H1 9255   4.229   0.392  15.390  0.1356  0.3690 -0.1236
  621MPD2    H2 9256   4.369   0.349  15.006  0.9475  1.1973  0.9099
  621MPD2    H3 9257   4.395   0.422  15.224  0.1367 -0.6523 -0.1634
  621MPD2     N 9258   3.993   0.286  15.347 -0.2989 -0.6043 -0.6918
  621MPD2    H5 9259   4.030   0.281  15.441 -0.0461  1.4028 -0.6900
  621MPD2    N1 9260   4.148   0.242  14.897 -0.0766  0.0846 -0.4327
  621MPD2    H7 9261   4.050   0.219  14.879 -0.1580 -0.7708  1.0822
  622MPD2     C 9262   3.567   3.196   9.254 -0.0692  0.0636 -0.0907
  622MPD2    C1 9263   3.576   3.186   9.116  0.7370  0.7694  0.4634
  622MPD2    C2 9264   3.460   3.134   9.056 -0.1322 -0.0642  0.9294
  622MPD2    C3 9265   3.349   3.107   9.131  0.7878  0.5566  0.0307
  622MPD2    C4 9266   3.338   3.113   9.265 -0.6180  0.0861  0.1552
  622MPD2    C5 9267   3.452   3.159   9.324  0.7167 -0.5987  0.0371
  622MPD2     H 9268   3.461   3.118   8.949  0.2047  0.8039  0.7968
  622MPD2    H1 9269   3.250   3.087   9.322 -0.0697 -2.1963 -0.0584
  622MPD2    H2 9270   3.654   3.235   9.305  0.9794 -2.4582  0.0725
  622MPD2    H3 9271   3.464   3.179   9.430  4.6340  0.3899 -0.5840
  622MPD2     N 9272   3.239   3.061   9.052  0.5773 -0.3448 -0.1814
  622MPD2    H5 9273   3.248   3.074   8.952 -2.5959 -0.4955 -0.4967
  622MPD2    N1 9274   3.692   3.194   9.027  0.0584  0.1758  0.2899
  622MPD2    H7 9275   3.684   3.145   8.938 -0.2828  1.4237 -0.3594
  623MPD2     C 9276   3.303   2.998   8.400 -0.4789  0.5765 -0.1270
  623MPD2    C1 9277   3.323   2.998   8.529 -0.3950  0.1434  0.1537
  623MPD2    C2 9278   3.450   3.020   8.572 -0.4523  0.0232  0.3944
  623MPD2    C3 9279   3.557   3.061   8.495 -0.6410  0.2605  0.2245
  623MPD2    C4 9280   3.536   3.069   8.358  0.1414  0.1879  0.1992
  623MPD2    C5 9281   3.407   3.044   8.309 -0.1326 -0.8491  0.2431
  623MPD2     H 9282   3.460   3.006   8.679 -0.5229 -0.6732  0.3159
  623MPD2    H1 9283   3.619   3.100   8.295  1.9150 -1.8763  1.5315
  623MPD2    H2 9284   3.201   2.980   8.367 -0.6340  3.1223 -1.0899
  623MPD2    H3 9285   3.398   3.039   8.201 -0.3128  0.6124  0.1889
  623MPD2     N 9286   3.675   3.105   8.547  1.1417 -0.2311 -0.1138
  623MPD2    H5 9287   3.746   3.118   8.475  0.6632  0.7841 -0.3940
  623MPD2    N1 9288   3.227   2.961   8.630 -0.2010  0.7480 -0.2282
  623MPD2    H7 9289   3.257   2.974   8.726  1.8991 -1.1308 -0.6523
  624MPD2     C 9290   1.750   2.374   6.145 -0.1783  0.3645  0.1903
  624MPD2    C1 9291   1.659   2.281   6.191 -0.4080  0.4672  0.2074
  624MPD2    C2 9292   1.703   2.168   6.261 -0.1505  0.2781  0.0315
  624MPD2    C3 9293   1.835   2.140   6.280  0.3346  0.0983 -0.6438
  624MPD2    C4 9294   1.919   2.242   6.239 -0.0750  0.2742  0.0048
  624MPD2    C5 9295   1.880   2.348   6.165  0.3016  0.4947 -0.1678
  624MPD2     H 9296   1.635   2.096   6.306 -1.0634  0.2110 -1.4333
  624MPD2    H1 9297   2.027   2.232   6.245  0.3013  2.4964 -3.0828
  624MPD2    H2 9298   1.726   2.463   6.088 -1.2994 -0.7579 -1.0737
  624MPD2    H3 9299   1.959   2.410   6.125 -0.3050  0.1301 -1.9594
  624MPD2     N 9300   1.874   2.019   6.346 -0.1467 -0.0305 -0.0879
  624MPD2    H5 9301   1.802   1.961   6.389  0.1342 -1.9207 -2.1309
  624MPD2    N1 9302   1.524   2.300   6.160 -0.3492 -0.2426 -0.8719
  624MPD2    H7 9303   1.504   2.388   6.113 -0.7422 -0.9324 -1.9791
  625MPD2     C 9304   1.066   2.982   6.436 -0.1383  0.3470 -0.2931
  625MPD2    C1 9305   1.109   2.876   6.511 -0.8365 -0.9712  0.5936
  625MPD2    C2 9306   1.122   2.754   6.448 -0.0857  0.1715  0.0242
  625MPD2    C3 9307   1.098   2.738   6.314 -0.5133 -0.1473  0.6162
  625MPD2    C4 9308   1.046   2.848   6.235 -0.4165  0.1327  0.5974
  625MPD2    C5 9309   1.029   2.965   6.301  0.0174 -0.1725  0.0461
  625MPD2     H 9310   1.122   2.669   6.516 -2.9425  0.6933  0.6484
  625MPD2    H1 9311   1.015   2.841   6.131  0.9566 -0.2120  0.2119
  625MPD2    H2 9312   1.042   3.077   6.483 -1.6112  0.7667 -1.8738
  625MPD2    H3 9313   0.989   3.053   6.253  3.3656  0.9418 -0.7467
  625MPD2     N 9314   1.124   2.609   6.256 -0.5353  0.3995  0.5337
  625MPD2    H5 9315   1.160   2.535   6.316  1.0197 -0.0278 -0.9040
  625MPD2    N1 9316   1.106   2.891   6.652  0.7031 -0.4801 -0.4573
  625MPD2    H7 9317   1.073   2.982   6.685  0.9368  0.3304 -2.4670
  626MPD2     C 9318   1.094   2.828   7.273  0.6821  0.2086 -0.9809
  626MPD2    C1 9319   1.128   2.710   7.210  0.5994  0.0097  1.0209
  626MPD2    C2 9320   1.036   2.631   7.147  0.0679 -0.1062 -0.3465
  626MPD2    C3 9321   0.915   2.687   7.117  0.2932  0.1457  0.9625
  626MPD2    C4 9322   0.885   2.816   7.162 -0.1070  0.6611 -0.1376
  626MPD2    C5 9323   0.966   2.877   7.252  0.3808  0.4652  0.8326
  626MPD2     H 9324   1.066   2.540   7.097  1.6027  0.7339 -0.9262
  626MPD2    H1 9325   0.797   2.870   7.128 -0.7132 -1.8355 -2.5524
  626MPD2    H2 9326   1.159   2.881   7.342 -0.3148 -0.0582  0.1591
  626MPD2    H3 9327   0.927   2.965   7.302  2.8581  1.1633  1.5476
  626MPD2     N 9328   0.832   2.613   7.023  0.5321 -0.7181  0.0145
  626MPD2    H5 9329   0.860   2.518   7.005 -0.2709 -0.5186 -2.2558
  626MPD2    N1 9330   1.248   2.643   7.222 -0.2660 -0.2399  0.2350
  626MPD2    H7 9331   1.254   2.548   7.188 -0.2580 -0.1577  0.0074
  627MPD2     C 9332   0.370   4.742   9.222 -0.4040 -0.2469  0.0372
  627MPD2    C1 9333   0.241   4.774   9.193 -0.2529 -0.0724 -0.1151
  627MPD2    C2 9334   0.179   4.696   9.103 -0.2527  0.4332 -0.0234
  627MPD2    C3 9335   0.231   4.584   9.038  0.2801  0.7011 -0.0326
  627MPD2    C4 9336   0.355   4.543   9.085 -0.0428  0.0003 -0.5624
  627MPD2    C5 9337   0.422   4.626   9.172 -0.0297 -0.2788 -0.4979
  627MPD2     H 9338   0.078   4.721   9.074 -1.1274 -1.6966  1.1644
  627MPD2    H1 9339   0.397   4.449   9.051 -2.2668 -2.4903  3.5718
  627MPD2    H2 9340   0.418   0.034   9.291  2.9057 -0.3428 -2.1941
  627MPD2    H3 9341   0.519   4.587   9.202 -0.0264  0.0100 -0.1428
  627MPD2     N 9342   0.170   4.514   8.937 -0.6505 -0.1901  0.6813
  627MPD2    H5 9343   0.236   4.463   8.879 -1.0267 -0.2859  0.3311
  627MPD2    N1 9344   0.185   0.104   9.270  0.0867  0.4671  0.0625
  627MPD2    H7 9345   0.249   0.145   9.337 -1.0939  2.5969 -0.0931
  628MPD2     C 9346   0.458   4.230   8.326 -0.3348  0.4597 -0.1958
  628MPD2    C1 9347   0.427   4.360   8.314  0.2414 -0.8198 -0.4732
  628MPD2    C2 9348   0.490   4.431   8.219 -0.4596 -0.3806  0.4031
  628MPD2    C3 9349   0.587   4.370   8.138  0.0141 -0.0814  0.3609
  628MPD2    C4 9350   0.616   4.235   8.156 -0.3986  0.7659  0.2241
  628MPD2    C5 9351   0.551   4.164   8.254 -0.1123  0.4450  0.4310
  628MPD2     H 9352   0.477   4.538   8.206 -1.3347 -0.3524  1.5126
  628MPD2    H1 9353   0.696   4.183   8.104 -0.1648  1.0028  0.3504
  628MPD2    H2 9354   0.427   4.168   8.410  0.4161 -1.4950 -1.3543
  628MPD2    H3 9355   0.581   4.062   8.271 -2.1703 -0.1040  0.7218
  628MPD2     N 9356   0.644   4.448   8.039 -0.0076  0.6753  0.2067
  628MPD2    H5 9357   0.630   4.548   8.050 -1.9396  0.2035  1.9110
  628MPD2    N1 9358   0.330   4.425   8.398 -0.1290  0.1051 -0.1347
  628MPD2    H7 9359   0.308   4.523   8.382  1.3276  0.5646  0.6689
  629MPD2     C 9360   2.583   4.362  15.208  0.6124  0.2205 -0.1038
  629MPD2    C1 9361   2.713   4.379  15.157 -0.6346  0.1336 -0.5548
  629MPD2    C2 9362   2.829   4.327  15.220  0.5071 -0.6212 -0.5307
  629MPD2    C3 9363   2.811   4.262  15.337  0.2273 -0.3385 -0.5053
  629MPD2    C4 9364   2.678   4.235  15.383 -0.2892  0.0724 -0.1971
  629MPD2    C5 9365   2.566   4.294  15.325 -0.2467  0.4868 -0.4956
  629MPD2     H 9366   2.928   4.338  15.178  1.4290 -1.6391  1.4146
  629MPD2    H1 9367   2.658   4.177  15.472 -1.4434 -0.7661 -0.9978
  629MPD2    H2 9368   2.495   4.400  15.158 -1.1622 -1.2623  1.9213
  629MPD2    H3 9369   2.467   4.287  15.367 -0.0013  0.9322  0.1472
  629MPD2     N 9370   2.927   4.195  15.389 -0.2166 -0.3860  0.2791
  629MPD2    H5 9371   3.016   4.214  15.343 -1.4271  0.0418 -1.8798
  629MPD2    N1 9372   2.719   4.406  15.023  0.9508  0.1187  0.1087
  629MPD2    H7 9373   2.631   4.420  14.975  1.1205 -2.3742 -0.9216
  630MPD2     C 9374   1.009   0.360   7.651  0.3650  0.2181 -0.3969
  630MPD2    C1 9375   1.019   0.294   7.768 -0.2918  0.1225  0.3211
  630MPD2    C2 9376   1.088   0.342   7.880  0.0978  0.4562  0.1406
  630MPD2    C3 9377   1.136   0.472   7.874  0.5519  0.7947  0.5876
  630MPD2    C4 9378   1.117   0.543   7.756  0.6284  0.3592 -0.3346
  630MPD2    C5 9379   1.055   0.488   7.645 -0.0147  0.9093  0.8739
  630MPD2     H 9380   1.096   0.282   7.969 -2.6597 -0.2885 -0.1205
  630MPD2    H1 9381   1.156   0.643   7.742  0.2076  0.3750 -1.4155
  630MPD2    H2 9382   0.951   0.323   7.567  1.1654 -1.8371 -0.0511
  630MPD2    H3 9383   1.038   0.543   7.553  1.5136  0.0534  0.0755
  630MPD2     N 9384   1.206   0.532   7.983  0.2592 -0.1453 -0.2898
  630MPD2    H5 9385   1.190   0.494   8.075 -0.9208 -2.8123 -1.6093
  630MPD2    N1 9386   0.959   0.163   7.770 -0.4783 -0.2942 -0.4591
  630MPD2    H7 9387   0.924   0.132   7.680  1.0535 -2.7484 -0.2168
  631MPD2     C 9388   3.545   0.376  14.777 -0.1025  0.7404 -0.4743
  631MPD2    C1 9389   3.576   0.351  14.908 -0.3092  0.2274 -0.1704
  631MPD2    C2 9390   3.477   0.292  14.989 -0.0474 -0.1456 -0.3517
  631MPD2    C3 9391   3.348   0.266  14.935  0.1754 -0.3203  0.0443
  631MPD2    C4 9392   3.324   0.284  14.805  0.5888 -0.4802 -0.2390
  631MPD2    C5 9393   3.425   0.340  14.725 -0.7222 -0.1524 -0.4649
  631MPD2     H 9394   3.492   0.292  15.096  0.2981 -0.4144 -0.4000
  631MPD2    H1 9395   3.225   0.277  14.762 -0.0064 -2.9880  1.5426
  631MPD2    H2 9396   3.611   0.427  14.707  0.4016 -1.4318 -1.5724
  631MPD2    H3 9397   3.413   0.365  14.620 -1.7015 -1.0853 -0.5731
  631MPD2     N 9398   3.239   0.221  15.015 -0.9079  0.5376  0.3743
  631MPD2    H5 9399   3.154   0.220  14.960 -0.1771 -1.1906 -0.7262
  631MPD2    N1 9400   3.692   0.397  14.978 -0.2157  0.0287 -0.5466
  631MPD2    H7 9401   3.703   0.375  15.076  0.6222 -1.0251 -0.8697
  632MPD2     C 9402   2.344   0.032  14.768  0.0705  0.2864  1.0611
  632MPD2    C1 9403   2.394   4.698  14.830 -0.7547  0.4153  0.8829
  632MPD2    C2 9404   2.508   4.708  14.916 -0.1326  0.4483  0.0700
  632MPD2    C3 9405   2.573   0.055  14.926  0.2428  0.4859 -0.0309
  632MPD2    C4 9406   2.514   0.166  14.865 -0.1146 -0.5519 -0.1359
  632MPD2    C5 9407   2.403   0.158  14.786 -0.0698  0.7446 -0.1154
  632MPD2     H 9408   2.550   4.624  14.971  0.1250  2.0431  2.3238
  632MPD2    H1 9409   2.542   0.269  14.883 -0.8073 -0.5079  0.6777
  632MPD2    H2 9410   2.252   0.029  14.712  0.5610  1.4825  0.2056
  632MPD2    H3 9411   2.369   0.248  14.736  1.0759  0.5499 -1.2415
  632MPD2     N 9412   2.692   0.064  15.013 -0.0448  0.2632  0.3770
  632MPD2    H5 9413   2.722   4.752  15.053  1.8843  0.2057 -1.1710
  632MPD2    N1 9414   2.322   4.579  14.804  0.2943  0.3940  0.2751
  632MPD2    H7 9415   2.237   4.593  14.750  0.6397 -0.0139 -0.3770
  633MPD2     C 9416   4.473   2.336   9.665 -0.2190  0.6708 -0.4254
  633MPD2    C1 9417   4.560   2.393   9.763 -0.2887  0.1878 -0.3225
  633MPD2    C2 9418   4.626   2.508   9.728  0.0242  0.4997  0.2974
  633MPD2    C3 9419   4.616   2.564   9.601  0.3445  0.6954  0.2162
  633MPD2    C4 9420   4.536   2.501   9.503  0.2462  0.4548  0.1454
  633MPD2    C5 9421   4.475   2.387   9.542 -0.1921 -0.0141  0.5426
  633MPD2     H 9422   4.680   2.565   9.802  1.3465 -0.7017  0.2571
  633MPD2    H1 9423   4.535   2.540   9.402 -0.1122 -0.3445 -0.1615
  633MPD2    H2 9424   4.407   2.253   9.684 -1.6211  1.9098  0.1849
  633MPD2    H3 9425   4.413   2.340   9.467  1.8636 -0.1930 -1.0675
  633MPD2     N 9426   4.683   2.688   9.572  0.3296 -0.0737 -0.5562
  633MPD2    H5 9427   4.653   2.738   9.490 -0.0485 -1.5342 -1.3162
  633MPD2    N1 9428   4.572   2.332   9.891 -0.5309  1.0321 -0.1596
  633MPD2    H7 9429   4.536   2.238   9.905  0.6752  0.6555  0.3637
  634MPD2     C 9430   1.188   2.899   7.828  1.0258  0.1461  0.0392
  634MPD2    C1 9431   1.104   2.885   7.718  0.0375  0.4816 -0.0974
  634MPD2    C2 9432   1.098   2.769   7.652 -0.4869  0.3007  0.2532
  634MPD2    C3 9433   1.165   2.659   7.694  0.2876  0.6098 -0.1813
  634MPD2    C4 9434   1.253   2.671   7.802 -0.2579  0.2951 -0.2251
  634MPD2    C5 9435   1.259   2.791   7.868 -0.6443  0.6567  0.5774
  634MPD2     H 9436   1.022   2.763   7.575  0.8138 -0.1693 -0.9884
  634MPD2    H1 9437   1.307   2.582   7.832 -2.3444 -1.0551 -0.4922
  634MPD2    H2 9438   1.188   2.982   7.897  0.6638  0.1384  0.0467
  634MPD2    H3 9439   1.303   2.795   7.966 -1.5359 -1.2205  1.0561
  634MPD2     N 9440   1.144   2.539   7.619  1.1262  0.8135  0.4363
  634MPD2    H5 9441   1.068   2.540   7.552  1.6156 -1.2331 -0.1531
  634MPD2    N1 9442   1.010   2.980   7.672  0.1113 -0.2816 -0.3102
  634MPD2    H7 9443   0.936   2.947   7.611  0.0245 -1.1110  0.2407
  635MPD2     C 9444   4.601   1.450  15.193  0.3058 -0.6444  0.3895
  635MPD2    C1 9445   4.677   1.560  15.165 -0.2918 -0.3316 -0.3334
  635MPD2    C2 9446   4.657   1.614  15.035 -0.0508 -0.0605  0.3495
  635MPD2    C3 9447   4.603   1.536  14.932  0.2539  0.7377  0.0712
  635MPD2    C4 9448   4.540   1.416  14.962  0.9291  0.5022  0.1306
  635MPD2    C5 9449   4.544   1.373  15.093 -0.3803  0.3257 -0.0003
  635MPD2     H 9450   4.694   1.711  15.003 -0.7827 -1.2230 -4.0729
  635MPD2    H1 9451   4.497   1.355  14.883 -1.3111  0.3558  1.4665
  635MPD2    H2 9452   4.597   1.410  15.294 -0.4033 -0.5545  0.4023
  635MPD2    H3 9453   4.514   1.271  15.113 -1.2602  0.7971  1.0390
  635MPD2     N 9454   4.601   1.585  14.802  0.6961  0.3755 -0.3886
  635MPD2    H5 9455   4.624   1.683  14.787  1.4708  0.5823  2.1353
  635MPD2    N1 9456   4.751   1.618  15.267 -0.0489  0.5302 -0.1092
  635MPD2    H7 9457   4.751   1.573  15.357  0.4432  1.1768  0.2140
  636MPD2     C 9458   3.642   2.519   9.923 -0.2416  0.0227  0.9253
  636MPD2    C1 9459   3.728   2.626   9.921  0.5166  0.0073 -0.2473
  636MPD2    C2 9460   3.759   2.675   9.791 -0.2041  0.7765 -0.6782
  636MPD2    C3 9461   3.691   2.631   9.678 -0.5705  0.2332 -0.3072
  636MPD2    C4 9462   3.598   2.534   9.694  0.5244  0.4824 -0.7193
  636MPD2    C5 9463   3.572   2.484   9.815  0.3156 -0.3055  0.1315
  636MPD2     H 9464   3.820   2.765   9.786 -0.7214  1.0618 -1.9809
  636MPD2    H1 9465   3.551   2.497   9.603  1.3576  0.5534 -1.1842
  636MPD2    H2 9466   3.612   2.471  10.015 -0.9093 -2.7611 -0.7528
  636MPD2    H3 9467   3.500   2.403   9.825 -0.1636  0.2859  1.5114
  636MPD2     N 9468   3.713   2.686   9.550  0.5041  0.5244 -0.3932
  636MPD2    H5 9469   3.662   2.647   9.471  2.9370  0.7343 -2.0759
  636MPD2    N1 9470   3.774   2.698  10.037  0.3847  0.1458  0.4964
  636MPD2    H7 9471   3.826   2.784  10.024 -0.3539  0.7357  1.4111
  637MPD2     C 9472   4.040   1.944  10.200 -0.0462 -0.4866  0.6277
  637MPD2    C1 9473   4.160   2.008  10.230 -0.6715  0.3585 -0.8431
  637MPD2    C2 9474   4.194   2.115  10.147  0.0640  0.3099  0.2688
  637MPD2    C3 9475   4.100   2.180  10.067  0.6576 -0.4244  0.1563
  637MPD2    C4 9476   3.973   2.128  10.060 -0.4149  0.4757  0.1535
  637MPD2    C5 9477   3.950   2.009  10.119 -0.6027  0.2254 -0.7978
  637MPD2     H 9478   4.291   2.159  10.166 -0.4806  1.8436 -0.4958
  637MPD2    H1 9479   3.897   2.164   9.993 -0.4670  0.8465  0.4127
  637MPD2    H2 9480   4.012   1.852  10.250 -1.8126  0.3076  1.1198
  637MPD2    H3 9481   3.849   1.971  10.124 -0.3983 -0.0786  1.0056
  637MPD2     N 9482   4.125   2.306   9.999 -0.1122 -0.4329  0.6856
  637MPD2    H5 9483   4.045   2.340   9.946  0.8830  0.0439 -0.5208
  637MPD2    N1 9484   4.249   1.963  10.327  0.3845 -0.0358  0.6695
  637MPD2    H7 9485   4.329   2.019  10.353 -0.8722  1.4323  1.3858
  638MPD2     C 9486   3.824   2.711  10.907  0.2470  0.5781 -0.4283
  638MPD2    C1 9487   3.718   2.786  10.855 -0.1244  0.0625  0.5272
  638MPD2    C2 9488   3.626   2.843  10.942 -0.4820 -0.0342  0.6549
  638MPD2    C3 9489   3.641   2.828  11.079 -0.1384  0.0809  0.2159
  638MPD2    C4 9490   3.747   2.745  11.123 -1.1939  0.0094 -0.4360
  638MPD2    C5 9491   3.835   2.685  11.042  0.2141  0.6044  0.3081
  638MPD2     H 9492   3.544   2.898  10.896 -1.9071 -1.4982  1.4455
  638MPD2    H1 9493   3.765   2.718  11.226 -0.6275  1.3165 -0.1904
  638MPD2    H2 9494   3.906   2.681  10.844 -2.7068 -0.0401 -3.9601
  638MPD2    H3 9495   3.911   2.614  11.073  1.1662  0.7626 -1.6518
  638MPD2     N 9496   3.544   2.869  11.177 -0.1861  0.0622  0.2666
  638MPD2    H5 9497   3.559   2.829  11.270  0.7703  0.1492  0.1559
  638MPD2    N1 9498   3.698   2.799  10.711 -0.3332 -0.3953  0.2210
  638MPD2    H7 9499   3.630   2.867  10.681 -1.1428 -1.3375 -0.0867
  639MPD2     C 9500   4.479   0.166  15.487  0.9892 -0.1254  0.2978
  639MPD2    C1 9501   4.562   0.159  15.377  0.5645 -0.2500  0.0930
  639MPD2    C2 9502   4.631   0.275  15.334  0.2745 -1.0066  0.3014
  639MPD2    C3 9503   4.608   0.404  15.381  0.5926 -0.6689 -0.0232
  639MPD2    C4 9504   4.516   0.413  15.479  0.1669  0.4362  0.2833
  639MPD2    C5 9505   4.458   0.297  15.532  0.2393 -1.0113 -0.4545
  639MPD2     H 9506   4.706   0.256  15.258  1.4364 -0.7167  1.3794
  639MPD2    H1 9507   4.500   0.511  15.524 -3.7547 -0.6073  1.1651
  639MPD2    H2 9508   4.452   0.075  15.538  1.7164 -0.4805  0.0449
  639MPD2    H3 9509   4.387   0.319  15.610  1.1256  1.2102 -0.2749
  639MPD2     N 9510   4.665   0.518  15.321  0.3571  0.1419 -0.8075
  639MPD2    H5 9511   4.740   0.498  15.255  1.2961  1.6284 -0.1930
  639MPD2    N1 9512   4.588   0.028  15.329  0.0747  0.3537 -0.1397
  639MPD2    H7 9513   4.525   4.735  15.367  1.7025 -0.4926  1.0661
  640MPD2     C 9514   1.713   1.307   6.365  0.0580  1.0865  0.8576
  640MPD2    C1 9515   1.741   1.180   6.412 -0.7576  0.5731 -0.4667
  640MPD2    C2 9516   1.645   1.104   6.463 -0.0517 -0.5587 -0.4321
  640MPD2    C3 9517   1.518   1.153   6.484 -0.4823  0.0757  0.3749
  640MPD2    C4 9518   1.487   1.272   6.423  0.4764  0.6041  0.0817
  640MPD2    C5 9519   1.583   1.342   6.359 -0.1999  0.4406  0.4580
  640MPD2     H 9520   1.670   1.004   6.498 -2.8985 -1.9036 -2.2526
  640MPD2    H1 9521   1.381   1.297   6.422  0.2512 -0.3294  0.4364
  640MPD2    H2 9522   1.787   1.377   6.328 -0.2153  1.2414  0.6021
  640MPD2    H3 9523   1.548   1.433   6.313  1.4775 -0.0826 -1.8952
  640MPD2     N 9524   1.421   1.087   6.564  0.3235  0.5184 -0.4926
  640MPD2    H5 9525   1.324   1.117   6.562  0.2141  0.0406 -2.5981
  640MPD2    N1 9526   1.871   1.125   6.424  0.2820 -0.0187 -0.4134
  640MPD2    H7 9527   1.884   1.030   6.457  2.2678  0.2232 -0.5071
  641MPD2     C 9528   2.534   1.491   6.748 -0.0378  0.6467 -0.1175
  641MPD2    C1 9529   2.442   1.590   6.778  0.6539  0.0336  0.0430
  641MPD2    C2 9530   2.324   1.560   6.843 -0.0192 -0.4794 -0.1548
  641MPD2    C3 9531   2.318   1.447   6.927 -0.9298  0.4373  0.1683
  641MPD2    C4 9532   2.420   1.351   6.903 -0.0916 -0.1454  1.1946
  641MPD2    C5 9533   2.523   1.368   6.818  0.0468  0.0189  0.6815
  641MPD2     H 9534   2.237   1.623   6.855  0.1795 -0.0238 -1.1024
  641MPD2    H1 9535   2.416   1.253   6.950 -0.3229 -1.8119 -2.2652
  641MPD2    H2 9536   2.622   1.508   6.687  0.4541  3.2261  1.3235
  641MPD2    H3 9537   2.598   1.293   6.798 -0.3751 -0.5537  1.2431
  641MPD2     N 9538   2.205   1.413   7.010  0.0860 -0.3069 -0.5085
  641MPD2    H5 9539   2.218   1.326   7.061 -1.6198 -1.4127 -1.9809
  641MPD2    N1 9540   2.462   1.714   6.711 -0.8299  0.0619 -0.1610
  641MPD2    H7 9541   2.554   1.734   6.672 -1.0126 -0.0703 -0.6587
  642MPD2     C 9542   0.547   4.028   6.641  0.5905 -0.4058 -0.1062
  642MPD2    C1 9543   0.586   3.988   6.769  0.1058 -1.0657  0.5318
  642MPD2    C2 9544   0.714   3.944   6.793 -0.1546 -0.3116 -0.0133
  642MPD2    C3 9545   0.808   3.945   6.687  0.7115  0.5284 -0.4641
  642MPD2    C4 9546   0.770   3.992   6.563  0.1923  0.4518  0.5174
  642MPD2    C5 9547   0.646   4.039   6.539  0.6411  0.8899 -0.8052
  642MPD2     H 9548   0.738   3.898   6.889 -2.0487 -0.7730  0.2313
  642MPD2    H1 9549   0.837   3.988   6.479  0.3112  0.0038  0.6337
  642MPD2    H2 9550   0.450   4.073   6.619  0.2407  0.1040  2.4711
  642MPD2    H3 9551   0.620   4.079   6.441 -1.9200  0.1022 -0.4460
  642MPD2     N 9552   0.934   3.884   6.698  0.4104 -0.2371  0.2034
  642MPD2    H5 9553   0.980   3.863   6.610  0.2862  0.8029 -0.1065
  642MPD2    N1 9554   0.496   3.993   6.875 -0.3402  0.1099 -0.1652
  642MPD2    H7 9555   0.537   3.980   6.967 -0.7175 -1.0712 -0.1742
  643MPD2     C 9556   2.444   2.750   7.732  0.2809  0.3784 -0.3269
  643MPD2    C1 9557   2.343   2.799   7.808  0.4708  0.0974  0.4818
  643MPD2    C2 9558   2.225   2.726   7.820  0.2644  0.2129  0.9135
  643MPD2    C3 9559   2.208   2.612   7.751  0.4309  0.0160  0.5684
  643MPD2    C4 9560   2.312   2.561   7.678  0.6646 -1.0124 -0.0531
  643MPD2    C5 9561   2.431   2.626   7.658 -0.2401 -0.9339 -0.8196
  643MPD2     H 9562   2.141   2.778   7.864  1.0688  0.7263  1.8303
  643MPD2    H1 9563   2.285   2.474   7.619  0.8669 -1.2449  0.1999
  643MPD2    H2 9564   2.538   2.801   7.714 -0.3935  1.8791  0.4443
  643MPD2    H3 9565   2.510   2.593   7.591 -0.5330 -3.4157  0.0666
  643MPD2     N 9566   2.095   2.528   7.751  0.9958  0.3800 -0.1671
  643MPD2    H5 9567   2.104   2.442   7.697  0.2895  1.1346 -1.4928
  643MPD2    N1 9568   2.358   2.923   7.874  0.0749  0.9995 -0.4093
  643MPD2    H7 9569   2.282   2.934   7.940  0.2183  2.0396 -0.4075
  644MPD2     C 9570   3.303   2.701   9.099 -0.4077 -0.5167  0.7870
  644MPD2    C1 9571   3.414   2.714   9.023  0.6239  0.4185  0.3078
  644MPD2    C2 9572   3.412   2.693   8.889 -0.2244  0.3407 -0.2384
  644MPD2    C3 9573   3.302   2.637   8.839 -0.1618 -0.5763  0.2465
  644MPD2    C4 9574   3.189   2.608   8.909 -0.7727  0.1562 -0.1023
  644MPD2    C5 9575   3.190   2.652   9.042  0.1562 -0.0850 -0.6124
  644MPD2     H 9576   3.497   2.728   8.831 -0.1172  2.2036  1.0546
  644MPD2    H1 9577   3.100   2.562   8.868 -0.3087  1.0931 -2.1822
  644MPD2    H2 9578   3.302   2.732   9.203  0.3865 -0.3621  0.7513
  644MPD2    H3 9579   3.096   2.644   9.096 -0.4312 -2.2556 -1.9613
  644MPD2     N 9580   3.294   2.600   8.701  0.3367  0.8982  0.3955
  644MPD2    H5 9581   3.212   2.547   8.674  0.5998  0.9452 -0.4800
  644MPD2    N1 9582   3.534   2.736   9.096  0.1766  0.5107 -0.5876
  644MPD2    H7 9583   3.522   2.758   9.195 -1.5332 -0.6752 -0.5316
  645MPD2     C 9584   1.593   1.245   6.851  0.3974 -0.3457 -0.6671
  645MPD2    C1 9585   1.724   1.224   6.859  0.1260  0.8629 -0.2966
  645MPD2    C2 9586   1.810   1.307   6.797  0.3559  0.5532  0.0592
  645MPD2    C3 9587   1.754   1.412   6.721  0.1627  0.5017 -0.2223
  645MPD2    C4 9588   1.622   1.424   6.700 -0.5285  0.4442  0.6036
  645MPD2    C5 9589   1.540   1.347   6.777  0.3394  0.1385  0.3783
  645MPD2     H 9590   1.918   1.299   6.803  0.3039  1.4032  2.0305
  645MPD2    H1 9591   1.571   1.492   6.634  2.7163  2.8137  0.5693
  645MPD2    H2 9592   1.524   1.186   6.910 -1.2596  2.3923  0.1709
  645MPD2    H3 9593   1.434   1.362   6.760  0.6718  0.4849 -1.4031
  645MPD2     N 9594   1.844   1.497   6.657 -0.8260  0.6322 -0.5556
  645MPD2    H5 9595   1.941   1.467   6.656 -1.0113 -0.0001 -0.0296
  645MPD2    N1 9596   1.755   1.119   6.947 -0.4521 -0.1203  0.0234
  645MPD2    H7 9597   1.679   1.072   6.994 -1.8966  2.0167 -0.1963
  646MPD2     C 9598   0.248   4.382  15.960 -0.3611  0.3489 -0.2646
  646MPD2    C1 9599   0.176   4.494  15.925  0.7335 -0.5451 -0.2127
  646MPD2    C2 9600   0.232   4.599  15.860  1.0493 -0.1093 -0.2637
  646MPD2    C3 9601   0.366   4.593  15.823 -0.0391 -0.4763  0.7524
  646MPD2    C4 9602   0.430   4.473  15.846  0.2248  0.7178 -0.8456
  646MPD2    C5 9603   0.377   4.379  15.920  0.4740  0.5727 -0.0938
  646MPD2     H 9604   0.176   4.683  15.820 -0.3510 -2.3173 -2.9037
  646MPD2    H1 9605   0.532   4.450  15.816 -0.0391  0.1675 -1.3152
  646MPD2    H2 9606   0.202   4.295  16.006  1.0423 -1.3123 -1.9683
  646MPD2    H3 9607   0.432   4.289  15.945 -1.7123 -0.7746 -0.1954
  646MPD2     N 9608   0.417   4.708  15.759  0.2070 -0.0545 -0.5161
  646MPD2    H5 9609   0.360   0.015  15.751 -0.2040 -0.4662 -1.7405
  646MPD2    N1 9610   0.035   4.493  15.937  0.0295 -0.4011  0.3383
  646MPD2    H7 9611   4.774   4.582  15.908  2.4380  0.3489 -0.3642
  647MPD2     C 9612   2.570   3.644  14.999 -0.7206 -0.0938  0.8397
  647MPD2    C1 9613   2.438   3.626  14.966  0.1068  0.2302  0.0673
  647MPD2    C2 9614   2.370   3.731  14.904 -1.0479 -0.3847 -0.1355
  647MPD2    C3 9615   2.435   3.850  14.872  0.3489 -0.5832  0.0738
  647MPD2    C4 9616   2.571   3.853  14.894 -0.0456 -0.4113 -0.5884
  647MPD2    C5 9617   2.645   3.746  14.950  0.2254 -0.4856  0.1998
  647MPD2     H 9618   2.266   3.718  14.877 -1.3224  0.5582  0.4664
  647MPD2    H1 9619   2.627   3.941  14.865 -1.9408  1.1685  0.5735
  647MPD2    H2 9620   2.625   3.560  15.041 -1.2717 -0.5152  0.7252
  647MPD2    H3 9621   2.753   3.748  14.954  0.2919 -1.4981 -1.1125
  647MPD2     N 9622   2.378   3.966  14.827 -0.8036 -0.3919 -0.1204
  647MPD2    H5 9623   2.447   4.031  14.791 -1.7842  1.2220  0.9330
  647MPD2    N1 9624   2.376   3.499  14.996  0.2647  0.5282 -0.1205
  647MPD2    H7 9625   2.443   3.435  15.036  2.2991  2.7693  0.0481
  648MPD2     C 9626   3.382   0.775  11.173  0.2708  0.9169 -0.3158
  648MPD2    C1 9627   3.360   0.781  11.034 -0.3343 -0.1039 -0.0263
  648MPD2    C2 9628   3.392   0.894  10.965  0.2636  0.4633  0.4580
  648MPD2    C3 9629   3.441   1.006  11.027  0.4287 -0.7553  0.0843
  648MPD2    C4 9630   3.463   0.997  11.163 -0.2116  0.6272 -0.0075
  648MPD2    C5 9631   3.435   0.880  11.231  0.1181  0.0986  0.2758
  648MPD2     H 9632   3.402   0.882  10.858 -3.5749  0.5409  0.1206
  648MPD2    H1 9633   3.493   1.089  11.212 -0.5069  0.5656  0.2913
  648MPD2    H2 9634   3.343   0.698  11.239 -0.6901  1.9601  0.3427
  648MPD2    H3 9635   3.450   0.887  11.338  0.2717  0.9506  0.2032
  648MPD2     N 9636   3.472   1.128  10.956  0.4169 -0.0761  0.9090
  648MPD2    H5 9637   3.532   1.194  11.005  1.3485 -0.9080  0.9014
  648MPD2    N1 9638   3.319   0.662  10.969  0.5037  0.4478  0.2933
  648MPD2    H7 9639   3.318   0.578  11.027  1.6889  0.7928  0.8099
  649MPD2     C 9640   0.916   2.525   8.149  0.1193 -0.7359  0.3665
  649MPD2    C1 9641   0.780   2.520   8.168 -0.0917  0.7017 -0.0112
  649MPD2    C2 9642   0.703   2.577   8.069  0.0641  0.0580 -0.1637
  649MPD2    C3 9643   0.756   2.651   7.959 -0.6910 -1.3476 -0.1562
  649MPD2    C4 9644   0.894   2.649   7.945  0.2864  0.9936 -0.0873
  649MPD2    C5 9645   0.974   2.599   8.046 -0.5925 -0.6075  0.1378
  649MPD2     H 9646   0.597   2.581   8.091 -0.4130  1.5462 -2.6285
  649MPD2    H1 9647   0.940   2.701   7.861 -1.3607 -1.5904 -2.6035
  649MPD2    H2 9648   0.985   2.472   8.213  2.4276  0.1288 -1.3833
  649MPD2    H3 9649   1.082   2.594   8.033 -0.3696 -0.5765  1.9319
  649MPD2     N 9650   0.674   2.720   7.864  0.3708 -0.4557  0.2185
  649MPD2    H5 9651   0.725   2.771   7.792  1.3103 -1.2910  0.2810
  649MPD2    N1 9652   0.717   2.479   8.283  0.9641  0.7684  0.1407
  649MPD2    H7 9653   0.616   2.487   8.289  0.8913 -0.6186  0.7052
  650MPD2     C 9654   0.989   0.732   7.288  0.3624 -0.3502 -0.2948
  650MPD2    C1 9655   1.047   0.837   7.228 -0.0768 -0.6241  0.0453
  650MPD2    C2 9656   1.048   0.958   7.300 -0.5866  0.1711  0.1673
  650MPD2    C3 9657   0.999   0.976   7.429 -0.0360  0.1517  0.0354
  650MPD2    C4 9658   0.932   0.869   7.486  0.2661  0.1914  0.2795
  650MPD2    C5 9659   0.927   0.753   7.408  0.3474 -0.6405  0.2854
  650MPD2     H 9660   1.092   1.044   7.252  0.2064 -0.1627  0.3022
  650MPD2    H1 9661   0.888   0.867   7.585  2.7262  0.7843  1.3907
  650MPD2    H2 9662   0.974   0.636   7.240 -2.1988 -0.5817  0.9185
  650MPD2    H3 9663   0.858   0.678   7.443  0.8096 -1.4408 -0.5385
  650MPD2     N 9664   1.007   1.108   7.485  0.1074  0.7164 -0.7846
  650MPD2    H5 9665   1.057   1.175   7.427  1.9818  0.4180  0.4715
  650MPD2    N1 9666   1.093   0.814   7.099  0.0647  0.0075  0.2226
  650MPD2    H7 9667   1.074   0.727   7.052  1.5293  0.3859 -1.0938
  651TMC3    C1 9668   2.770   1.057   9.725 -0.0353  0.2888 -0.3552
  651TMC3    C2 9669   2.777   1.181   9.675  0.2115 -0.1272  0.5260
  651TMC3    C3 9670   2.876   1.258   9.733 -0.3633 -0.3535 -0.3920
  651TMC3    C4 9671   2.863   1.002   9.811  0.4680 -0.4234  0.0940
  651TMC3    C5 9672   2.960   1.086   9.864 -0.1955 -0.4825  0.1176
  651TMC3    C6 9673   2.971   1.216   9.826  0.3925  0.3306  0.1861
  651TMC3     C 9674   2.677   0.956   9.682 -0.1112  0.9548  0.8709
  651TMC3     O 9675   2.618   0.980   9.577 -0.1424  0.1974  0.5108
  651TMC3     H 9676   2.706   1.210   9.598  0.7471 -1.6118 -0.5259
  651TMC3    H1 9677   2.874   0.896   9.829 -1.1745 -0.4329  1.0715
  651TMC3    H2 9678   3.035   1.278   9.888 -1.5515 -0.4513  3.0092
  651TMC3    C7 9679   3.086   1.023   9.917  0.2133  0.6714  0.4012
  651TMC3    C8 9680   2.899   1.394   9.693 -0.0747 -0.2573  0.0048
  651TMC3    O1 9681   3.066   0.925   9.991 -0.2459 -0.2800 -0.4163
  651TMC3    O2 9682   3.014   1.437   9.698 -0.2843  0.3759  0.1918
  652TMC3    C1 9683   2.708   1.582   6.010  0.2671 -0.4393  0.2289
  652TMC3    C2 9684   2.692   1.715   5.989 -0.3700 -0.1149  0.0312
  652TMC3    C3 9685   2.560   1.758   5.988 -0.1656  0.4591  0.1660
  652TMC3    C4 9686   2.603   1.496   6.033 -0.5019  0.1194 -0.5347
  652TMC3    C5 9687   2.477   1.551   6.051  0.0056  1.0648 -0.4417
  652TMC3    C6 9688   2.451   1.679   6.018 -0.1180  0.0986  0.6989
  652TMC3     C 9689   2.841   1.529   6.036 -0.3016 -0.6171 -0.0043
  652TMC3     O 9690   2.921   1.624   6.055  0.1967 -0.3787  0.3858
  652TMC3     H 9691   2.780   1.776   5.969  0.6619 -2.0796 -1.4362
  652TMC3    H1 9692   2.622   1.394   6.064 -0.7526  0.2448  0.0379
  652TMC3    H2 9693   2.349   1.717   6.018  1.4014  4.2426  1.2269
  652TMC3    C7 9694   2.360   1.468   6.065  0.5391  1.2724  0.0936
  652TMC3    C8 9695   2.536   1.897   5.987 -0.1060 -0.0408  0.2281
  652TMC3    O1 9696   2.250   1.519   6.058  0.0625  0.2299 -0.3717
  652TMC3    O2 9697   2.427   1.928   5.944  0.3286  0.0601  0.6186
  653TMC3    C1 9698   3.697   0.562  12.607 -0.2940 -0.3342 -0.5254
  653TMC3    C2 9699   3.566   0.581  12.617  0.1883  0.1334  0.3991
  653TMC3    C3 9700   3.503   0.573  12.740  1.1466  0.1919 -0.0626
  653TMC3    C4 9701   3.781   0.547  12.718  0.4866 -0.1730  0.4886
  653TMC3    C5 9702   3.718   0.564  12.835 -0.2353  0.3642  0.1066
  653TMC3    C6 9703   3.584   0.571  12.852  0.2460 -0.3272 -0.0536
  653TMC3     C 9704   3.747   0.606  12.477 -0.2471 -0.7164 -1.1677
  653TMC3     O 9705   3.675   0.608  12.378 -0.1706  0.4957 -0.0740
  653TMC3     H 9706   3.506   0.594  12.528 -0.6902  2.1298  1.2746
  653TMC3    H1 9707   3.885   0.518  12.705  0.7097  0.5456  0.6384
  653TMC3    H2 9708   3.559   0.608  12.951 -0.1378  0.4925 -0.4570
  653TMC3    C7 9709   3.786   0.550  12.966  0.0125  0.1004  0.7756
  653TMC3    C8 9710   3.377   0.645  12.757  0.7195 -0.1164  0.0886
  653TMC3    O1 9711   3.729   0.482  13.050  0.2619 -0.2278 -0.0377
  653TMC3    O2 9712   3.358   0.701  12.867 -0.2184  0.0604  0.2104
  654TMC3    C1 9713   1.582   4.655   7.571  1.0500 -0.0403  0.2365
  654TMC3    C2 9714   1.581   4.696   7.436 -0.4572  0.0531 -0.7461
  654TMC3    C3 9715   1.483   4.651   7.352  0.4176  0.3558  0.1457
  654TMC3    C4 9716   1.470   4.593   7.616 -0.3698  0.3463  0.0985
  654TMC3    C5 9717   1.369   4.552   7.532 -0.1335  0.2878 -0.4897
  654TMC3    C6 9718   1.370   4.583   7.403 -0.2641 -0.1295  1.2194
  654TMC3     C 9719   1.699   4.571   7.604  0.0784  0.6563 -0.5070
  654TMC3     O 9720   1.767   4.541   7.502 -0.1365  0.2181  0.0437
  654TMC3     H 9721   1.660   4.761   7.400 -0.5543  1.3582  1.4439
  654TMC3    H1 9722   1.463   4.573   7.723  0.9245 -1.0011 -0.0707
  654TMC3    H2 9723   1.301   4.538   7.332  0.7175  1.2739 -0.6410
  654TMC3    C7 9724   1.326   4.416   7.567 -0.0412 -0.0892  0.3632
  654TMC3    C8 9725   1.508   4.645   7.206 -0.6878 -0.0972 -0.2518
  654TMC3    O1 9726   1.272   4.403   7.679  0.1251 -0.5321 -0.0175
  654TMC3    O2 9727   1.433   4.572   7.140 -0.3826 -0.6580  0.5364
  655TMC3    C1 9728   1.577   0.508   9.761  1.1042 -0.2435  0.2018
  655TMC3    C2 9729   1.637   0.424   9.670 -0.0057  0.5480  0.5959
  655TMC3    C3 9730   1.671   0.293   9.698 -0.4556 -0.1026 -0.0497
  655TMC3    C4 9731   1.565   0.455   9.889  0.0749 -0.5894 -1.0081
  655TMC3    C5 9732   1.596   0.327   9.918 -0.6429 -0.5839  0.1371
  655TMC3    C6 9733   1.656   0.248   9.823 -0.6126  0.0938 -0.0793
  655TMC3     C 9734   1.621   0.647   9.770  0.1057  1.2260 -0.0379
  655TMC3     O 9735   1.652   0.687   9.879 -0.6910  0.2532 -0.1668
  655TMC3     H 9736   1.673   0.472   9.580 -1.8279  2.6775  1.0183
  655TMC3    H1 9737   1.533   0.510   9.977  0.6573 -1.4956 -0.2238
  655TMC3    H2 9738   1.680   0.143   9.836  0.3749  0.3613  0.3445
  655TMC3    C7 9739   1.561   0.278  10.048 -0.3045  0.0809  0.1183
  655TMC3    C8 9740   1.773   0.227   9.620 -0.1591  0.3102  0.2691
  655TMC3    O1 9741   1.453   0.302  10.093  0.1276  0.2423  0.1554
  655TMC3    O2 9742   1.853   0.158   9.685 -0.3354  0.1933  1.1485
  656TMC3    C1 9743   0.203   1.541  14.506 -1.0137  0.0364  0.1762
  656TMC3    C2 9744   0.224   1.611  14.392 -0.0111  0.2834  0.5025
  656TMC3    C3 9745   0.243   1.538  14.282 -0.1448 -0.2301  0.5374
  656TMC3    C4 9746   0.211   1.405  14.517  0.3337  0.5156  0.3302
  656TMC3    C5 9747   0.220   1.335  14.396  0.4259 -0.0590 -0.8002
  656TMC3    C6 9748   0.225   1.397  14.280 -0.1503 -0.8923 -0.6880
  656TMC3     C 9749   0.217   1.626  14.627 -0.1829 -0.2201  0.2009
  656TMC3     O 9750   0.204   1.745  14.601  0.6980  0.1123  0.2772
  656TMC3     H 9751   0.207   1.717  14.382 -0.5253  0.2946  1.4707
  656TMC3    H1 9752   0.206   1.353  14.612  0.5198 -1.4455 -0.7407
  656TMC3    H2 9753   0.209   1.336  14.192  0.8781 -4.3072  1.4897
  656TMC3    C7 9754   0.199   1.197  14.391 -0.2900  0.0232  0.4117
  656TMC3    C8 9755   0.258   1.613  14.160 -0.6066  0.3234 -0.3124
  656TMC3    O1 9756   0.223   1.139  14.287 -0.3967 -0.7408 -0.2606
  656TMC3    O2 9757   0.214   1.726  14.155  0.0767  0.4216  0.3065
  657TMC3    C1 9758   2.385   0.893   8.370  0.7000 -0.3214 -0.1927
  657TMC3    C2 9759   2.499   0.823   8.401  0.0228 -0.3533 -0.2998
  657TMC3    C3 9760   2.623   0.880   8.375 -0.2306 -0.5775  0.0855
  657TMC3    C4 9761   2.401   0.993   8.280 -0.1180  0.2873  0.2893
  657TMC3    C5 9762   2.529   1.034   8.237 -0.4997  0.8881 -0.2586
  657TMC3    C6 9763   2.645   0.979   8.286 -0.2859 -0.2421 -0.5474
  657TMC3     C 9764   2.256   0.848   8.418 -0.8754  0.4993 -1.1894
  657TMC3     O 9765   2.149   0.869   8.360 -0.2769  0.2328 -0.5126
  657TMC3     H 9766   2.507   0.739   8.468 -2.0194 -0.8888 -0.7248
  657TMC3    H1 9767   2.311   1.039   8.240  1.3648  0.3403 -3.0396
  657TMC3    H2 9768   2.743   1.022   8.269 -0.8986  2.1047  2.0446
  657TMC3    C7 9769   2.545   1.127   8.132  0.5760 -0.0810 -0.8061
  657TMC3    C8 9770   2.730   0.807   8.419 -0.0932  0.5811  0.2423
  657TMC3    O1 9771   2.464   1.222   8.140 -0.2550  0.4718 -0.1648
  657TMC3    O2 9772   2.709   0.685   8.419  0.9444  0.1771 -0.1883
  658TMC3    C1 9773   3.312   4.739   7.775  0.5642  0.9096 -0.7657
  658TMC3    C2 9774   3.393   4.668   7.686  0.7022 -0.6457 -0.5198
  658TMC3    C3 9775   3.503   4.729   7.630 -0.0913  0.1901  0.2075
  658TMC3    C4 9776   3.355   0.091   7.811 -0.2660  0.2856  0.0914
  658TMC3    C5 9777   3.458   0.150   7.741 -0.7552 -0.2113  0.7637
  658TMC3    C6 9778   3.532   0.079   7.647  0.5649 -0.3749  0.0719
  658TMC3     C 9779   3.225   4.667   7.870 -0.5374  0.5628  0.2743
  658TMC3     O 9780   3.200   4.745   7.961  0.1475 -0.5928  0.0505
  658TMC3     H 9781   3.380   4.562   7.669 -0.0628 -0.3216 -1.9813
  658TMC3    H1 9782   3.279   0.145   7.867 -0.4965 -0.3374  0.3774
  658TMC3    H2 9783   3.620   0.126   7.603  0.2128  0.9688  0.8000
  658TMC3    C7 9784   3.521   0.274   7.786 -0.5646 -0.2826 -0.5811
  658TMC3    C8 9785   3.584   4.644   7.543 -0.4371 -0.1037 -0.4116
  658TMC3    O1 9786   3.600   0.335   7.711  0.0105 -0.4955 -0.2970
  658TMC3    O2 9787   3.534   4.572   7.453  0.3076  0.0843  0.0574
  659TMC3    C1 9788   4.726   0.609  11.830  0.3215 -0.2906  0.0219
  659TMC3    C2 9789   4.688   0.616  11.957  0.2520 -0.3546  0.3157
  659TMC3    C3 9790   4.719   0.725  12.029  0.4347  0.2646 -0.3535
  659TMC3    C4 9791   0.017   0.711  11.769 -0.0070 -0.7383 -0.1804
  659TMC3    C5 9792   0.035   0.826  11.843  0.0565 -0.0947  0.0486
  659TMC3    C6 9793   0.007   0.832  11.977  0.0701  1.1861 -1.2078
  659TMC3     C 9794   0.008   0.477  11.798  0.1381 -0.3085  0.7751
  659TMC3     O 9795   4.727   0.385  11.862  0.2241 -0.2240  0.5845
  659TMC3     H 9796   4.633   0.537  12.007 -1.9473 -0.8574 -2.8487
  659TMC3    H1 9797   0.039   0.709  11.663 -0.2026 -1.2794 -0.2090
  659TMC3    H2 9798   0.028   0.927  12.026  2.7416  0.7878 -1.5365
  659TMC3    C7 9799   0.131   0.919  11.796  0.2014  0.2230  0.2097
  659TMC3    C8 9800   4.653   0.733  12.162  0.0095  0.4490  0.1797
  659TMC3    O1 9801   0.211   0.876  11.714  0.6202 -0.7488 -0.2910
  659TMC3    O2 9802   4.546   0.677  12.176 -0.4415  0.6092  0.1349
  660TMC3    C1 9803   2.586   1.574  14.988 -0.5146 -0.8054  0.3985
  660TMC3    C2 9804   2.659   1.683  15.026 -0.1820  0.3685  0.4747
  660TMC3    C3 9805   2.747   1.665  15.130 -0.2725 -0.2228  0.1962
  660TMC3    C4 9806   2.609   1.448  15.040 -0.2363  0.3781 -0.2206
  660TMC3    C5 9807   2.706   1.437  15.127  0.5745  0.3445  0.3809
  660TMC3    C6 9808   2.778   1.543  15.179  0.0021  0.0684 -0.2421
  660TMC3     C 9809   2.472   1.591  14.901 -0.0062 -0.1306 -0.0476
  660TMC3     O 9810   2.377   1.514  14.904  0.0368 -0.4960 -0.2885
  660TMC3     H 9811   2.628   1.786  15.010 -0.1937  0.6229  2.0769
  660TMC3    H1 9812   2.537   1.368  15.025  2.4593 -2.0432 -0.1055
  660TMC3    H2 9813   2.837   1.526  15.268  1.1600 -3.8851 -1.7509
  660TMC3    C7 9814   2.752   1.305  15.178 -0.1916 -0.9634 -0.1747
  660TMC3    C8 9815   2.829   1.775  15.185  0.3160  0.3895  0.2274
  660TMC3    O1 9816   2.662   1.230  15.211  0.2555  0.0935 -0.1085
  660TMC3    O2 9817   2.867   1.750  15.299 -0.4023  0.9598 -0.2999
  661TMC3    C1 9818   3.267   1.094  11.979 -0.2743  0.4030 -0.6266
  661TMC3    C2 9819   3.150   1.031  11.968 -0.8165 -0.1258  0.1180
  661TMC3    C3 9820   3.141   0.909  12.021 -0.4634  0.2433  0.4198
  661TMC3    C4 9821   3.383   1.029  12.025  0.7644 -0.9876  0.0479
  661TMC3    C5 9822   3.371   0.903  12.081 -0.2017 -0.5084 -0.6777
  661TMC3    C6 9823   3.246   0.849  12.088 -0.6214  0.2199  0.0573
  661TMC3     C 9824   3.282   1.203  11.882  0.6233  0.1285  0.2128
  661TMC3     O 9825   3.215   1.195  11.780 -0.0228 -0.6400 -0.8600
  661TMC3     H 9826   3.065   1.076  11.916 -0.0195  0.9221 -0.2742
  661TMC3    H1 9827   3.484   1.068  12.022  0.6206 -0.6020  0.1220
  661TMC3    H2 9828   3.234   0.750  12.130 -0.2253  1.2879  2.6702
  661TMC3    C7 9829   3.482   0.815  12.059 -0.0709  0.0457  0.8088
  661TMC3    C8 9830   3.036   0.815  11.985  0.2777 -0.5139  0.5647
  661TMC3    O1 9831   3.598   0.857  12.083 -0.0240 -0.1924  0.2634
  661TMC3    O2 9832   3.072   0.702  11.973 -0.4364 -0.3631 -0.4048
  662TMC3    C1 9833   2.067   0.653  10.579 -0.3279  0.0126  0.0392
  662TMC3    C2 9834   2.173   0.573  10.587  0.3731  0.3949  0.7003
  662TMC3    C3 9835   2.202   0.517  10.713  0.0191  0.6969 -0.2405
  662TMC3    C4 9836   1.976   0.671  10.681  0.2837  0.5506  0.3354
  662TMC3    C5 9837   2.008   0.615  10.795  0.7971  0.2557 -0.7468
  662TMC3    C6 9838   2.120   0.537  10.821 -0.0472 -0.6571 -0.1122
  662TMC3     C 9839   2.045   0.707  10.448 -0.5371 -0.5151 -0.1230
  662TMC3     O 9840   2.143   0.716  10.378  0.4793 -0.1112 -0.4724
  662TMC3     H 9841   2.232   0.550  10.499 -1.9997  0.2874 -0.8563
  662TMC3    H1 9842   1.893   0.740  10.673 -0.0563 -0.1524 -2.3545
  662TMC3    H2 9843   2.112   0.479  10.913  0.0291  0.3166  0.5114
  662TMC3    C7 9844   1.954   0.669  10.919 -0.6939  0.0863  0.6621
  662TMC3    C8 9845   2.302   0.403  10.708  0.6751  0.0994  0.8222
  662TMC3    O1 9846   1.832   0.685  10.929  0.2241  0.1537  0.1657
  662TMC3    O2 9847   2.348   0.392  10.595  0.0995  0.4458  0.1396
  663TMC3    C1 9848   3.472   3.547   7.756 -1.1663  0.2993 -0.5020
  663TMC3    C2 9849   3.373   3.526   7.668  1.1466  0.6659 -0.6281
  663TMC3    C3 9850   3.251   3.578   7.703 -0.0455  0.3876  0.2384
  663TMC3    C4 9851   3.461   3.607   7.876  0.0142  0.3492 -0.2971
  663TMC3    C5 9852   3.332   3.639   7.916  0.1658 -0.0152  0.1808
  663TMC3    C6 9853   3.232   3.635   7.823  0.0141 -0.4709  0.4163
  663TMC3     C 9854   3.603   3.523   7.704 -0.5036 -0.1033  0.2572
  663TMC3     O 9855   3.611   3.444   7.610  0.1489  0.6659 -0.4856
  663TMC3     H 9856   3.391   3.488   7.569 -0.8106 -0.7081 -0.4592
  663TMC3    H1 9857   3.539   3.599   7.951 -2.0985  0.5546  1.9430
  663TMC3    H2 9858   3.133   3.662   7.855  0.0487  0.1130  0.0207
  663TMC3    C7 9859   3.300   3.688   8.049  0.4503 -0.0277 -0.3152
  663TMC3    C8 9860   3.139   3.528   7.624 -0.2834  0.6494 -0.7655
  663TMC3    O1 9861   3.203   3.762   8.062 -0.5169 -0.2017 -0.2439
  663TMC3    O2 9862   3.159   3.440   7.542  0.4590  0.3538 -0.1738
  664TMC3    C1 9863   3.890   1.847  11.085  0.5334 -0.3681  0.3148
  664TMC3    C2 9864   3.979   1.778  11.160  0.1717 -0.4191 -0.0572
  664TMC3    C3 9865   4.086   1.852  11.210  0.3496  0.0065 -0.7711
  664TMC3    C4 9866   3.886   1.985  11.064 -0.3360  0.4041 -0.2429
  664TMC3    C5 9867   3.981   2.054  11.126  0.1533 -0.2957 -0.0357
  664TMC3    C6 9868   4.085   1.987  11.195 -0.4254  0.2005 -0.4644
  664TMC3     C 9869   3.772   1.772  11.033  0.2148 -0.3180 -0.1405
  664TMC3     O 9870   3.739   1.681  11.109  0.1330  0.1200 -0.0016
  664TMC3     H 9871   3.977   1.670  11.164  0.9763 -0.4737 -1.2612
  664TMC3    H1 9872   3.823   2.032  10.990 -2.2467 -1.3377  0.3051
  664TMC3    H2 9873   4.159   2.033  11.259  0.4611 -1.3281 -0.3798
  664TMC3    C7 9874   3.923   2.169  11.198  0.2828 -0.7773  0.0998
  664TMC3    C8 9875   4.146   1.796  11.329 -0.1607  0.7306  0.8358
  664TMC3    O1 9876   3.954   2.178  11.316  0.6255 -0.0336 -0.1421
  664TMC3    O2 9877   4.249   1.846  11.376 -0.3486  0.1947  0.0315
  665TMC3    C1 9878   0.429   0.603  10.079  0.2230  0.3348  0.3830
  665TMC3    C2 9879   0.309   0.644  10.035  0.2845 -0.5968  0.2505
  665TMC3    C3 9880   0.222   0.551   9.993 -0.3881 -0.3226 -0.5134
  665TMC3    C4 9881   0.466   0.472  10.068 -0.3899  0.3016  0.1194
  665TMC3    C5 9882   0.379   0.384  10.024  0.3018 -0.1981 -0.5135
  665TMC3    C6 9883   0.257   0.418   9.997 -0.2241 -0.5150  0.5644
  665TMC3     C 9884   0.531   0.683  10.019 -0.9486  0.3402 -0.4354
  665TMC3     O 9885   0.647   0.674  10.065  0.1047 -0.2700  0.2302
  665TMC3     H 9886   0.273   0.744  10.056 -0.0490 -0.2597 -1.9115
  665TMC3    H1 9887   0.570   0.441  10.076 -0.5274  0.0107  0.7792
  665TMC3    H2 9888   0.177   0.347   9.981  1.4168 -2.8770  2.7957
  665TMC3    C7 9889   0.427   0.248  10.000 -0.4128 -0.9566 -0.2926
  665TMC3    C8 9890   0.080   0.584  10.009 -0.7732 -0.0812 -0.2687
  665TMC3    O1 9891   0.519   0.214  10.067 -0.2840 -0.2184  0.8354
  665TMC3    O2 9892   0.066   0.674  10.096 -0.5513 -0.6326 -0.4053
  666TMC3    C1 9893   4.019   4.637  14.092  0.2283  0.2791  0.2581
  666TMC3    C2 9894   4.075   4.759  14.137  0.5183 -0.3255 -0.9516
  666TMC3    C3 9895   3.989   0.093  14.145 -0.0848 -0.2010 -0.5002
  666TMC3    C4 9896   3.885   4.610  14.076 -0.4482 -0.5969  0.2413
  666TMC3    C5 9897   3.805   4.718  14.092  0.8631 -0.2642  0.3269
  666TMC3    C6 9898   3.855   0.064  14.127  0.8802 -0.2352 -0.0438
  666TMC3     C 9899   4.095   4.517  14.103  0.1083  0.2810  0.4804
  666TMC3     O 9900   4.042   4.431  14.172 -0.3089  0.2416 -0.2469
  666TMC3     H 9901   4.176   4.759  14.175  1.0374 -0.5119 -2.3503
  666TMC3    H1 9902   3.852   4.509  14.058  1.9841 -0.9728 -2.0773
  666TMC3    H2 9903   3.786   0.147  14.138  0.4355 -0.6578  0.3280
  666TMC3    C7 9904   3.655   4.715  14.100 -0.2976  0.0856 -0.2274
  666TMC3    C8 9905   4.049   0.219  14.195  0.4322  0.8182 -0.1784
  666TMC3    O1 9906   3.590   0.017  14.162 -0.4532 -0.0920  0.3463
  666TMC3    O2 9907   4.164   0.219  14.237 -0.4204  0.1868  0.4185
  667TMC3    C1 9908   3.167   0.636  10.139 -0.4897 -0.0869  0.8335
  667TMC3    C2 9909   3.286   0.606  10.079 -0.1405  0.0695 -0.2645
  667TMC3    C3 9910   3.281   0.577   9.944 -0.3435 -0.0116  0.4136
  667TMC3    C4 9911   3.054   0.631  10.074  0.2257 -0.7678  0.3958
  667TMC3    C5 9912   3.053   0.598   9.940  0.7893 -0.8165  0.3008
  667TMC3    C6 9913   3.169   0.566   9.865  0.2532 -0.6769 -0.0951
  667TMC3     C 9914   3.170   0.718  10.264  0.1053  0.7217  0.6591
  667TMC3     O 9915   3.216   0.660  10.360 -0.3548 -0.0030 -0.2360
  667TMC3     H 9916   3.381   0.610  10.131  0.5326  3.3136 -1.7533
  667TMC3    H1 9917   2.964   0.654  10.130  0.8469 -1.1409  1.5364
  667TMC3    H2 9918   3.166   0.556   9.757  1.3339 -3.6498  0.1306
  667TMC3    C7 9919   2.929   0.535   9.901  0.2771  0.8879  0.7659
  667TMC3    C8 9920   3.409   0.567   9.870 -0.3211  0.6250 -0.4310
  667TMC3    O1 9921   2.827   0.580   9.955 -0.1665  0.0178 -0.7444
  667TMC3    O2 9922   3.442   0.453   9.841  0.5509 -0.5892  0.4644
  668TMC3    C1 9923   0.132   2.317  11.440  0.1659 -0.5224 -0.3868
  668TMC3    C2 9924   0.197   2.412  11.508  0.2952  0.7677  0.2996
  668TMC3    C3 9925   0.248   2.380  11.631 -0.0042  0.7779 -0.2189
  668TMC3    C4 9926   0.100   2.194  11.484  0.7215  0.0382  0.0255
  668TMC3    C5 9927   0.148   2.160  11.607 -0.4425  0.1931  0.7698
  668TMC3    C6 9928   0.222   2.252  11.678 -0.3464 -0.1511 -0.7425
  668TMC3     C 9929   0.060   2.366  11.324  0.7751 -0.2098 -0.0449
  668TMC3     O 9930   0.076   2.486  11.295  0.0804 -0.3697 -0.0538
  668TMC3     H 9931   0.231   2.495  11.448 -1.0030  1.8055  1.0139
  668TMC3    H1 9932   0.030   2.128  11.436  2.2645 -1.0718 -0.6947
  668TMC3    H2 9933   0.275   2.234  11.771 -0.9200 -0.5600 -0.4964
  668TMC3    C7 9934   0.079   2.052  11.673 -0.2567 -0.7891 -0.3040
  668TMC3    C8 9935   0.262   2.489  11.725 -0.1315 -0.3055  0.2845
  668TMC3    O1 9936   4.748   2.022  11.627 -0.2641 -0.1384 -0.3941
  668TMC3    O2 9937   0.311   2.465  11.834 -0.1135 -0.2480 -0.1031
  669TMC3    C1 9938   3.345   1.645   8.160  0.5690 -0.3484  0.0278
  669TMC3    C2 9939   3.406   1.551   8.087  0.2607 -0.4486  0.6508
  669TMC3    C3 9940   3.421   1.566   7.955 -0.1322 -0.2975  0.2961
  669TMC3    C4 9941   3.312   1.769   8.107 -0.2664  0.2782  0.2201
  669TMC3    C5 9942   3.319   1.777   7.972 -0.3637  0.7220  0.1778
  669TMC3    C6 9943   3.374   1.678   7.894 -0.5381  0.3320  0.3472
  669TMC3     C 9944   3.362   1.625   8.300  0.3391 -0.4511 -0.1949
  669TMC3     O 9945   3.275   1.663   8.376  0.3800  0.6807 -0.4333
  669TMC3     H 9946   3.452   1.464   8.132 -0.0328 -1.1261 -0.3612
  669TMC3    H1 9947   3.270   1.850   8.166 -0.9734  1.3782 -1.8077
  669TMC3    H2 9948   3.402   1.704   7.793  1.8731  1.5422  1.3085
  669TMC3    C7 9949   3.299   1.902   7.902  0.4964 -0.1311  0.8197
  669TMC3    C8 9950   3.517   1.483   7.882  0.4867  0.0744 -0.5217
  669TMC3    O1 9951   3.372   1.921   7.809 -0.5799  0.1537  0.7257
  669TMC3    O2 9952   3.549   1.379   7.939 -0.4723 -0.3329 -0.2160
  670TMC3    C1 9953   3.439   4.130  15.767  0.8126  0.1498  0.4977
  670TMC3    C2 9954   3.464   4.105  15.635 -0.4005 -0.8620 -0.3758
  670TMC3    C3 9955   3.575   4.035  15.604  0.6303 -0.0344 -0.7403
  670TMC3    C4 9956   3.537   4.124  15.870 -0.0011  0.4778  0.6228
  670TMC3    C5 9957   3.653   4.057  15.828 -0.2463 -0.3155 -0.1026
  670TMC3    C6 9958   3.669   4.019  15.701  0.3771 -0.3739 -0.7633
  670TMC3     C 9959   3.329   4.217  15.805  0.0239 -0.2444 -0.1873
  670TMC3     O 9960   3.279   4.197  15.913 -0.0489  0.3933  0.1928
  670TMC3     H 9961   3.386   4.109  15.560  2.0825  2.1060 -2.7801
  670TMC3    H1 9962   3.523   4.139  15.976  2.7958 -0.0672  1.0863
  670TMC3    H2 9963   3.748   3.949  15.675  0.0750 -1.6249  1.6913
  670TMC3    C7 9964   3.774   4.066  15.906 -0.3264 -0.2636  1.2715
  670TMC3    C8 9965   3.606   4.012  15.466 -0.2750  0.5025  0.2620
  670TMC3    O1 9966   3.783   4.162  15.983  0.3844  0.2075 -0.3721
  670TMC3    O2 9967   3.512   3.973  15.394  0.2911  0.2257 -0.1992
  671TMC3    C1 9968   0.495   4.261  10.628 -0.7082  0.3938  0.1937
  671TMC3    C2 9969   0.369   4.308  10.623 -0.5562  0.6416  0.4009
  671TMC3    C3 9970   0.358   4.427  10.552 -0.6043 -0.4537 -1.3052
  671TMC3    C4 9971   0.605   4.322  10.583 -0.4008 -0.6700 -0.4502
  671TMC3    C5 9972   0.587   4.439  10.517  0.3363  0.6958 -0.0259
  671TMC3    C6 9973   0.465   4.492  10.499  0.0897  0.5627 -0.2113
  671TMC3     C 9974   0.507   4.130  10.681 -0.2687  0.1673 -0.4844
  671TMC3     O 9975   0.417   4.052  10.660  0.0336  0.1125 -0.1974
  671TMC3     H 9976   0.286   4.244  10.647 -2.3217  2.1852 -1.5739
  671TMC3    H1 9977   0.702   4.274  10.577  0.3649  1.0611 -1.9640
  671TMC3    H2 9978   0.438   4.581  10.443  0.6078  0.1125 -1.1713
  671TMC3    C7 9979   0.711   4.517  10.489 -0.4530  0.1620 -0.7955
  671TMC3    C8 9980   0.233   4.497  10.571  0.1738 -0.9821 -0.4210
  671TMC3    O1 9981   0.816   4.460  10.515  0.4401 -0.4194 -0.0848
  671TMC3    O2 9982   0.191   4.572  10.480  0.7557 -0.9064  0.0334
  672TMC3    C1 9983   0.191   4.283   9.965  0.4095  0.3764 -0.0185
  672TMC3    C2 9984   0.162   4.409   9.920 -0.1795 -0.5970  0.0180
  672TMC3    C3 9985   0.028   4.440   9.899  0.5819 -0.2368 -0.5507
  672TMC3    C4 9986   0.099   4.184   9.969  0.3730 -0.0164 -0.4265
  672TMC3    C5 9987   4.743   4.223   9.957  0.1630 -0.3077  0.4771
  672TMC3    C6 9988   4.709   4.348   9.918  0.0822 -0.2535  0.2880
  672TMC3     C 9989   0.331   4.242   9.986  0.9689  0.1641  0.4007
  672TMC3     O 9990   0.410   4.300   9.913  1.0287  0.3881 -0.2646
  672TMC3     H 9991   0.242   4.477   9.894  0.5176 -0.9050  1.3178
  672TMC3    H1 9992   0.137   4.085   9.991  0.7097  0.3811  0.7786
  672TMC3    H2 9993   4.605   4.378   9.924 -0.6246 -2.4468 -0.9863
  672TMC3    C7 9994   4.631   4.127   9.965 -0.7934 -0.1270 -1.0306
  672TMC3    C8 9995   4.766   4.578   9.921  0.2775  0.2089 -0.9661
  672TMC3    O1 9996   4.527   4.160   9.909  0.1386  0.0069  0.0256
  672TMC3    O2 9997   4.650   4.613   9.895  0.4491  0.7333 -0.3241
  673TMC3    C1 9998   4.388   3.252  14.373  0.6441  0.6288 -0.0738
  673TMC3    C2 9999   4.333   3.189  14.267 -0.6737 -0.1033  0.0996
  673TMC3    C310000   4.351   3.054  14.253  0.5104 -0.1853 -0.5060
  673TMC3    C410001   4.463   3.191  14.465  0.5486 -0.1021  0.4650
  673TMC3    C510002   4.475   3.050  14.457 -0.0942 -0.1735 -0.4823
  673TMC3    C610003   4.422   2.984  14.346 -0.7698 -0.1626 -0.3346
  673TMC3     C10004   4.335   3.384  14.407  0.6865 -1.0901 -0.3008
  673TMC3     O10005   4.215   3.388  14.401  0.1927  0.1623  0.6280
  673TMC3     H10006   4.274   3.240  14.192 -0.8380 -0.0350  0.2754
  673TMC3    H110007   4.478   3.239  14.561 -0.5325 -1.6426  1.3922
  673TMC3    H210008   4.417   2.876  14.347 -2.4842 -0.0965 -1.7577
  673TMC3    C710009   4.514   2.985  14.573  0.4061  0.0150  0.1395
  673TMC3    C810010   4.275   2.984  14.151  0.4039  0.1266 -0.4209
  673TMC3    O110011   4.533   3.052  14.675  0.1635 -0.1159 -0.0144
  673TMC3    O210012   4.327   2.887  14.102 -0.8379 -0.1216  0.6341
  674TMC3    C110013   1.337   0.356   9.237 -0.0366  0.0142  0.5265
  674TMC3    C210014   1.254   0.445   9.165 -0.2094  0.4498  1.0079
  674TMC3    C310015   1.127   0.408   9.143  0.9953  0.0153 -0.3015
  674TMC3    C410016   1.285   0.234   9.278  0.4491  0.6533 -0.4043
  674TMC3    C510017   1.154   0.201   9.247 -0.4402 -0.0511  0.2684
  674TMC3    C610018   1.070   0.290   9.186  0.6477 -0.5779  0.3544
  674TMC3     C10019   1.467   0.402   9.271  0.5409  0.3258  0.2687
  674TMC3     O10020   1.523   0.356   9.372 -0.5289  0.3891 -0.3171
  674TMC3     H10021   1.284   0.544   9.132  1.1626  0.4223  2.1943
  674TMC3    H110022   1.356   0.169   9.328  0.6357  0.9695 -0.2641
  674TMC3    H210023   0.964   0.283   9.169  0.8486 -0.8901 -0.7754
  674TMC3    C710024   1.142   0.062   9.206  0.0389 -0.3326 -0.6414
  674TMC3    C810025   1.051   0.483   9.045  0.3067  0.4605  0.2657
  674TMC3    O110026   1.240   4.765   9.232 -0.0019 -0.2471 -0.0538
  674TMC3    O210027   0.929   0.482   9.066 -0.3670  0.2187 -0.0687
  675TMC3    C110028   1.328   3.064  14.433 -0.1379  0.0977 -0.1849
  675TMC3    C210029   1.390   3.004  14.537 -0.2768  0.6797 -0.0520
  675TMC3    C310030   1.306   2.931  14.622  0.0293 -0.4555 -0.3893
  675TMC3    C410031   1.195   3.053  14.409  0.5186  0.0408  0.2076
  675TMC3    C510032   1.119   2.985  14.495 -0.4515 -0.3257  0.3333
  675TMC3    C610033   1.173   2.931  14.604  0.7739  0.4496  0.1103
  675TMC3     C10034   1.387   3.170  14.352  0.6083  0.0935  0.0339
  675TMC3     O10035   1.351   3.189  14.237 -0.0176 -0.0632  0.1404
  675TMC3     H10036   1.498   3.002  14.532 -0.1595  1.8094  2.0783
  675TMC3    H110037   1.151   3.113  14.329  0.5431 -0.0847  0.1004
  675TMC3    H210038   1.115   2.873  14.676  0.9054  0.6810  0.4010
  675TMC3    C710039   0.971   2.977  14.472  0.4191  0.2328 -0.3702
  675TMC3    C810040   1.357   2.878  14.745  0.2704  0.1441 -0.1867
  675TMC3    O110041   0.950   2.989  14.353  0.8273 -0.0478  0.6967
  675TMC3    O210042   1.287   2.802  14.808  0.7592  0.0044 -0.9182
  676TMC3    C110043   3.734   1.531  13.064  0.6099  0.1006 -0.5769
  676TMC3    C210044   3.648   1.504  12.953  0.3246  0.0872  0.1580
  676TMC3    C310045   3.533   1.583  12.941  0.5801  0.3394  0.0124
  676TMC3    C410046   3.726   1.644  13.144 -0.5946  0.2510 -0.0381
  676TMC3    C510047   3.604   1.715  13.121 -0.5686  0.4849 -0.1219
  676TMC3    C610048   3.510   1.687  13.027 -0.5457  0.1309 -0.3307
  676TMC3     C10049   3.853   1.449  13.093  0.2008 -0.0910  0.3928
  676TMC3     O10050   3.934   1.507  13.163 -0.0606 -0.0360  0.2278
  676TMC3     H10051   3.670   1.414  12.897  1.7328 -1.3375  2.9763
  676TMC3    H110052   3.795   1.667  13.224  0.0222 -0.6273 -0.3056
  676TMC3    H210053   3.414   1.739  13.022 -0.7029 -0.0464  0.8983
  676TMC3    C710054   3.587   1.823  13.214 -0.4150 -1.2094 -0.1364
  676TMC3    C810055   3.435   1.575  12.832  0.2365  0.1098 -0.1479
  676TMC3    O110056   3.647   1.823  13.322 -0.2099  0.0090  0.4528
  676TMC3    O210057   3.322   1.627  12.848 -0.3649 -0.5918  0.1875
  677TMC3    C110058   4.563   0.531   6.906 -0.0253 -0.4892 -0.1270
  677TMC3    C210059   4.598   0.567   6.778  0.1907 -0.2204 -0.0573
  677TMC3    C310060   4.491   0.560   6.689 -0.7494 -0.0628 -0.7187
  677TMC3    C410061   4.439   0.492   6.948  0.3123 -1.0202 -0.0160
  677TMC3    C510062   4.348   0.488   6.845 -0.2209  0.0390 -0.2553
  677TMC3    C610063   4.368   0.515   6.712  0.0686 -0.2179 -0.0136
  677TMC3     C10064   4.674   0.523   7.000  0.7739  0.2347 -0.0607
  677TMC3     O10065   4.772   0.588   6.976  0.1374  0.0984 -0.2760
  677TMC3     H10066   4.696   0.606   6.752 -1.4029  2.8012 -1.4691
  677TMC3    H110067   4.417   0.462   7.050  2.7801 -2.1323  0.1918
  677TMC3    H210068   4.285   0.516   6.642  0.0651  1.4038  0.0117
  677TMC3    C710069   4.209   0.473   6.883  0.5343 -0.2034 -0.9310
  677TMC3    C810070   4.506   0.646   6.574  1.3469 -0.3556  0.1420
  677TMC3    O110071   4.131   0.426   6.801  0.0647  0.4659  0.4604
  677TMC3    O210072   4.424   0.620   6.486 -0.2698  0.1988  0.3989
  678TMC3    C110073   1.513   1.379  14.685 -0.7136  0.1953  0.5457
  678TMC3    C210074   1.596   1.271  14.719 -0.0355 -0.0608 -0.0986
  678TMC3    C310075   1.562   1.151  14.661 -0.2812  0.2117  1.0584
  678TMC3    C410076   1.409   1.372  14.591  0.1554 -0.5628  0.8511
  678TMC3    C510077   1.385   1.242  14.547  0.1271  0.0207  0.5322
  678TMC3    C610078   1.459   1.132  14.580  0.2680 -0.3634 -0.0728
  678TMC3     C10079   1.548   1.514  14.735 -0.8298 -0.3221  0.3600
  678TMC3     O10080   1.456   1.594  14.718  0.1134  0.4948 -0.1892
  678TMC3     H10081   1.665   1.279  14.803  1.1967  0.1328 -1.1308
  678TMC3    H110082   1.361   1.461  14.552 -1.0549 -1.7826 -0.4307
  678TMC3    H210083   1.435   1.030  14.551  0.4050 -0.1427 -0.9535
  678TMC3    C710084   1.260   1.215  14.490  0.1003 -0.3308 -0.4383
  678TMC3    C810085   1.647   1.035  14.677  0.3134 -0.6027  0.1556
  678TMC3    O110086   1.253   1.120  14.414  0.2960 -0.1763 -0.0564
  678TMC3    O210087   1.613   0.927  14.638  0.5777  0.3219  0.1636
  679TMC3    C110088   2.282   0.420   7.463 -0.3521 -0.4643  0.1961
  679TMC3    C210089   2.267   0.556   7.473  0.5054  0.3305 -0.4567
  679TMC3    C310090   2.252   0.613   7.601 -0.2048 -0.1843 -0.4311
  679TMC3    C410091   2.280   0.347   7.574 -0.1987 -0.3041  0.4460
  679TMC3    C510092   2.272   0.400   7.694 -0.0029  0.2146 -0.7031
  679TMC3    C610093   2.268   0.538   7.715 -0.0709 -0.0702  0.7136
  679TMC3     C10094   2.268   0.367   7.323 -0.2509  0.1397  0.0150
  679TMC3     O10095   2.191   0.270   7.314  0.3586 -0.0879 -0.1392
  679TMC3     H10096   2.263   0.616   7.383 -0.1635  0.1070 -0.5759
  679TMC3    H110097   2.279   0.239   7.567 -0.4889 -0.2011 -1.2942
  679TMC3    H210098   2.263   0.580   7.814 -0.3989  1.8974 -0.1344
  679TMC3    C710099   2.188   0.333   7.800  0.4059  0.7279 -0.0903
  679TMC3    C810100   2.149   0.711   7.613  0.6622 -0.1253 -0.8479
  679TMC3    O110101   2.109   0.409   7.857 -0.6102  0.0139 -1.1635
  679TMC3    O210102   2.143   0.800   7.529  0.6153 -0.6551  0.0624
  680TMC3    C110103   0.372   2.508  10.617 -0.9160 -0.0990 -0.1132
  680TMC3    C210104   0.473   2.423  10.657  0.5301  0.3142 -0.2092
  680TMC3    C310105   0.532   2.442  10.777  0.2300 -0.2775  0.2707
  680TMC3    C410106   0.321   2.604  10.699  0.1067  0.0878 -0.3341
  680TMC3    C510107   0.375   2.620  10.818 -0.1530  0.6057 -0.4699
  680TMC3    C610108   0.477   2.535  10.863  0.5478 -0.2077 -0.2639
  680TMC3     C10109   0.349   2.512  10.476 -0.1024 -0.5866 -0.3945
  680TMC3     O10110   0.408   2.429  10.407 -0.3489  0.2288 -0.9180
  680TMC3     H10111   0.498   2.337  10.595  1.7644 -0.5623  1.4957
  680TMC3    H110112   0.234   2.664  10.675 -0.0884  2.0550  5.3287
  680TMC3    H210113   0.530   2.555  10.955  1.6078  0.4940 -1.0288
  680TMC3    C710114   0.331   2.738  10.891 -0.2415  0.8759  0.3044
  680TMC3    C810115   0.644   2.359  10.820  0.6281  0.2930 -0.1743
  680TMC3    O110116   0.265   2.820  10.830  0.3524  0.1079 -0.2078
  680TMC3    O210117   0.662   2.256  10.754 -0.5755  0.7542  0.2569
  681TMC3    C110118   2.481   0.563  14.497 -0.4513 -0.2382 -0.0143
  681TMC3    C210119   2.377   0.474  14.476 -0.3806 -0.2457 -0.1327
  681TMC3    C310120   2.252   0.522  14.464  0.3623 -1.2561  0.4500
  681TMC3    C410121   2.462   0.700  14.501  0.3329 -0.1026  0.6509
  681TMC3    C510122   2.332   0.740  14.477 -0.2302 -0.0258  0.6164
  681TMC3    C610123   2.226   0.660  14.470 -0.4274 -0.1930 -0.2200
  681TMC3     C10124   2.602   0.536  14.426 -1.0659  0.2128  0.1956
  681TMC3     O10125   2.590   0.472  14.324  0.7710 -0.1122 -0.2968
  681TMC3     H10126   2.398   0.369  14.455 -1.0151 -0.6286  1.1486
  681TMC3    H110127   2.547   0.768  14.503 -0.6035  1.0234  2.0478
  681TMC3    H210128   2.124   0.695  14.463  0.2805  2.1261  0.9931
  681TMC3    C710129   2.302   0.882  14.458 -0.7091 -0.2710 -0.7063
  681TMC3    C810130   2.155   0.420  14.443  0.5956 -0.9275 -0.5246
  681TMC3    O110131   2.200   0.917  14.400 -0.3822  0.3194 -0.5507
  681TMC3    O210132   2.193   0.307  14.426  0.2463 -0.3478  0.5578
  682TMC3    C110133   1.725   0.334  13.293  0.0841  0.1969  0.5264
  682TMC3    C210134   1.819   0.241  13.338  0.5288  0.3521  0.0772
  682TMC3    C310135   1.947   0.278  13.306 -0.3141  0.4923  0.8398
  682TMC3    C410136   1.752   0.445  13.208 -0.6395 -0.2018 -0.2282
  682TMC3    C510137   1.884   0.463  13.178 -0.3594 -0.3679  0.5312
  682TMC3    C610138   1.983   0.377  13.220 -0.4370  0.0421 -0.0428
  682TMC3     C10139   1.590   0.292  13.286  0.2192 -0.5472 -0.2198
  682TMC3     O10140   1.575   0.170  13.299  0.3727 -0.0430 -0.1059
  682TMC3     H10141   1.794   0.173  13.418  0.9243  1.2295  0.9503
  682TMC3    H110142   1.672   0.499  13.160 -0.9077 -1.5514 -1.3046
  682TMC3    H210143   2.083   0.389  13.181 -0.1107  0.1820  0.8291
  682TMC3    C710144   1.900   0.563  13.081  0.4568 -1.0097  0.4242
  682TMC3    C810145   2.044   0.189  13.364  0.4235 -0.3652 -0.1423
  682TMC3    O110146   1.802   0.630  13.047 -0.5216 -0.3704  0.5239
  682TMC3    O210147   2.003   0.075  13.396 -0.1820  0.0468  0.6385
  683TMC3    C110148   3.574   2.333   8.837  0.0080 -0.1575 -0.0322
  683TMC3    C210149   3.533   2.223   8.901  0.7941 -0.3584 -0.4281
  683TMC3    C310150   3.591   2.179   9.013 -0.5386  0.4045 -0.2237
  683TMC3    C410151   3.683   2.408   8.877  0.4610  0.2592  0.1389
  683TMC3    C510152   3.737   2.357   8.992  0.3121 -0.1083 -0.1873
  683TMC3    C610153   3.695   2.245   9.062  0.1935 -1.1478 -0.0342
  683TMC3     C10154   3.546   2.343   8.694  0.4020 -0.2921  0.9126
  683TMC3     O10155   3.450   2.282   8.648  0.4509  0.0174 -0.9293
  683TMC3     H10156   3.453   2.165   8.856  0.9096 -0.6381 -0.2740
  683TMC3    H110157   3.708   2.507   8.840 -1.5425  1.0069  0.7586
  683TMC3    H210158   3.754   2.204   9.144  0.6596 -1.1805 -0.3834
  683TMC3    C710159   3.873   2.411   9.008 -0.5680  0.0988 -0.1135
  683TMC3    C810160   3.540   2.064   9.090  0.3283 -0.7595 -0.6247
  683TMC3    O110161   3.920   2.460   8.902 -0.3995  0.3317  0.2681
  683TMC3    O210162   3.620   1.990   9.147  0.1429 -0.5160 -0.2321
  684TMC3    C110163   3.020   1.872   7.636 -0.6009 -0.4619 -0.1879
  684TMC3    C210164   3.152   1.860   7.584 -0.0391  0.4985  0.4890
  684TMC3    C310165   3.192   1.958   7.500  0.6228  0.3357  0.9982
  684TMC3    C410166   2.925   1.965   7.590 -0.9444  0.6794  0.2050
  684TMC3    C510167   2.968   2.045   7.486  0.1587 -0.0273  0.3480
  684TMC3    C610168   3.099   2.036   7.447 -0.2597 -0.1112 -0.5111
  684TMC3     C10169   2.981   1.763   7.729 -0.5383  0.2228 -0.0043
  684TMC3     O10170   2.888   1.775   7.807 -0.3110 -0.5967  0.3691
  684TMC3     H10171   3.226   1.796   7.632  2.4998  2.4649 -0.8254
  684TMC3    H110172   2.820   1.978   7.616 -0.6540 -0.6094  1.9867
  684TMC3    H210173   3.134   2.116   7.384 -0.4820 -0.3415 -0.9250
  684TMC3    C710174   2.892   2.165   7.447 -0.7547  0.6177 -0.1469
  684TMC3    C810175   3.328   1.967   7.450  0.2272  0.3008 -0.0811
  684TMC3    O110176   2.818   2.209   7.535 -0.4916  0.3957  0.1411
  684TMC3    O210177   3.348   2.035   7.355 -0.4166 -0.0791 -0.3614
  685TMC3    C110178   3.484   1.050  14.094  0.1232 -0.5164  0.0752
  685TMC3    C210179   3.573   0.951  14.132 -0.0714  0.5032 -0.2826
  685TMC3    C310180   3.660   0.982  14.239  0.7096 -0.3802  0.0656
  685TMC3    C410181   3.490   1.181  14.133  0.2430  0.1217 -0.1575
  685TMC3    C510182   3.574   1.212  14.233  0.2362  0.6381  0.0612
  685TMC3    C610183   3.660   1.114  14.288 -0.7249 -0.2739  0.6051
  685TMC3     C10184   3.387   1.030  13.989 -0.3149 -0.4218 -0.0051
  685TMC3     O10185   3.351   1.124  13.921  0.5450 -0.1317  0.6037
  685TMC3     H10186   3.579   0.854  14.083  0.2564 -1.1738  3.0919
  685TMC3    H110187   3.394   1.231  14.131 -0.5621 -1.4060 -0.1349
  685TMC3    H210188   3.721   1.145  14.372 -0.9425 -0.2951  0.7711
  685TMC3    C710189   3.560   1.334  14.306 -0.2953 -0.3762  0.1569
  685TMC3    C810190   3.786   0.912  14.255  0.1039 -0.9613 -0.5825
  685TMC3    O110191   3.606   1.328  14.425 -0.1050 -0.0124 -0.1269
  685TMC3    O210192   3.876   0.982  14.301 -0.7356 -0.5179  0.1711
  686TMC3    C110193   1.231   3.565   8.678  0.3296  0.7475  0.6355
  686TMC3    C210194   1.142   3.467   8.703 -0.1255 -0.0454  0.1188
  686TMC3    C310195   1.170   3.384   8.813 -0.0290 -0.5342 -0.6139
  686TMC3    C410196   1.345   3.588   8.750 -0.9543  0.4041  0.7833
  686TMC3    C510197   1.365   3.506   8.857  0.0551  0.9691  0.1354
  686TMC3    C610198   1.280   3.402   8.884 -0.0555  0.0889 -0.1357
  686TMC3     C10199   1.203   3.649   8.560 -0.1107 -0.0171  0.6196
  686TMC3     O10200   1.298   3.716   8.511 -0.0551 -0.6402  0.1737
  686TMC3     H10201   1.047   3.458   8.652 -0.6734  2.5316  0.7101
  686TMC3    H110202   1.396   3.681   8.726  0.8239 -0.7471  0.1483
  686TMC3    H210203   1.293   3.341   8.973 -0.8688 -1.2940 -0.9524
  686TMC3    C710204   1.468   3.552   8.951  0.4925  0.5477  0.0586
  686TMC3    C810205   1.079   3.273   8.851  0.3609 -0.8152 -0.3206
  686TMC3    O110206   1.486   3.668   8.955  0.1503 -0.4146 -0.2360
  686TMC3    O210207   1.120   3.184   8.925 -0.2179 -0.2956 -0.1117
  687TMC3    C110208   0.113   0.279  12.962 -0.0879 -0.2895  0.7395
  687TMC3    C210209   0.037   0.323  12.859  0.9578  0.9302 -0.0233
  687TMC3    C310210   0.034   0.264  12.737  0.5516  0.4362 -0.5666
  687TMC3    C410211   0.153   0.148  12.958  0.0390 -0.0747 -0.0062
  687TMC3    C510212   0.118   0.071  12.844 -0.6420  0.4324  0.4471
  687TMC3    C610213   0.073   0.132  12.731 -0.8288  0.3141 -0.1917
  687TMC3     C10214   0.220   0.373  13.008  0.2724  0.7011  0.2340
  687TMC3     O10215   0.183   0.483  13.049  0.5030  0.5613  0.4742
  687TMC3     H10216   0.001   0.425  12.865 -1.7869 -0.0872  0.8891
  687TMC3    H110217   0.205   0.106  13.043  0.5321  3.1006  1.2460
  687TMC3    H210218   0.067   0.067  12.644  1.0110  0.0211 -0.1054
  687TMC3    C710219   0.179   4.723  12.830  1.3609  0.0999  0.2010
  687TMC3    C810220   0.043   0.344  12.623  0.9182  0.2351  0.3945
  687TMC3    O110221   0.226   4.696  12.723  0.0329  0.0657 -0.2986
  687TMC3    O210222   0.073   0.461  12.644  0.1685  0.2978 -0.2535
  688TMC3    C110223   1.057   0.326  12.899 -0.1369 -0.7382 -0.5290
  688TMC3    C210224   1.033   0.204  12.847  0.8182  0.1028  0.1574
  688TMC3    C310225   1.130   0.145  12.776  0.6033  0.1484  0.6245
  688TMC3    C410226   1.189   0.376  12.886 -0.3217 -0.5831 -0.6615
  688TMC3    C510227   1.288   0.311  12.809 -0.1173  0.2948  0.1819
  688TMC3    C610228   1.250   0.201  12.745  0.4480  0.4482  0.6651
  688TMC3     C10229   0.945   0.422  12.913  0.2541  0.0261  0.2625
  688TMC3     O10230   0.988   0.535  12.941 -0.1725  0.1575  0.1500
  688TMC3     H10231   0.939   0.150  12.855  1.5269 -0.6006  3.6200
  688TMC3    H110232   1.217   0.466  12.939  2.9660 -0.6344 -2.3470
  688TMC3    H210233   1.323   0.136  12.698  1.4039  0.5600  1.9977
  688TMC3    C710234   1.407   0.271  12.875  0.6148 -0.0559 -0.0955
  688TMC3    C810235   1.128   4.771  12.794 -0.1317 -0.0889 -0.6548
  688TMC3    O110236   1.398   0.168  12.948 -0.0634  0.3151 -0.5838
  688TMC3    O210237   1.037   4.709  12.737 -0.1150 -0.5339 -0.4115
  689TMC3    C110238   0.431   1.929  10.378 -0.2436 -0.2615 -0.0065
  689TMC3    C210239   0.405   1.946  10.515  0.1652 -0.8106  0.3565
  689TMC3    C310240   0.507   1.987  10.594  0.4404 -0.2153  0.0592
  689TMC3    C410241   0.554   1.954  10.327 -1.0520  0.5245  0.0920
  689TMC3    C510242   0.650   2.006  10.409 -0.3573  0.0950  0.1061
  689TMC3    C610243   0.625   2.030  10.545 -0.0801 -0.2272  0.2065
  689TMC3     C10244   0.343   1.851  10.290 -0.8317 -0.4514 -0.0897
  689TMC3     O10245   0.391   1.745  10.259  0.0604  0.7558  1.0833
  689TMC3     H10246   0.318   1.902  10.562  0.4019 -0.9163  0.6908
  689TMC3    H110247   0.576   1.919  10.226 -0.1955  1.9925 -0.2261
  689TMC3    H210248   0.705   2.064  10.610 -0.9034 -1.2247  1.7240
  689TMC3    C710249   0.790   2.024  10.371  0.5056  0.7578 -0.0170
  689TMC3    C810250   0.502   1.931  10.728 -0.3442  0.1725  0.0215
  689TMC3    O110251   0.874   2.017  10.456  0.4194 -0.0384 -0.5237
  689TMC3    O210252   0.425   1.837  10.748  0.1278 -0.3106  0.4748
  690TMC3    C110253   0.707   2.723  10.594  0.1333 -0.9843 -0.1103
  690TMC3    C210254   0.649   2.817  10.672  0.7138 -0.6666  0.4601
  690TMC3    C310255   0.542   2.887  10.620  0.0287 -0.1398  0.0188
  690TMC3    C410256   0.675   2.698  10.457  0.1479  0.1930  0.0060
  690TMC3    C510257   0.575   2.773  10.407  0.6205 -0.1257 -0.3510
  690TMC3    C610258   0.508   2.865  10.487  1.0021 -0.0749  1.0472
  690TMC3     C10259   0.833   2.667  10.651 -0.3482  0.1183 -0.0433
  690TMC3     O10260   0.885   2.724  10.745  0.6862 -0.5982  0.0561
  690TMC3     H10261   0.696   2.844  10.766  0.9239 -0.6950  0.3648
  690TMC3    H110262   0.729   2.619  10.407 -1.6738 -1.9932  1.4677
  690TMC3    H210263   0.426   2.922  10.444  0.8154 -0.2173  1.2170
  690TMC3    C710264   0.555   2.768  10.268 -0.4233  0.1269  0.4536
  690TMC3    C810265   0.529   3.019  10.684  0.6541 -0.5029 -0.1725
  690TMC3    O110266   0.515   2.869  10.217 -0.5542  0.0528  0.5073
  690TMC3    O210267   0.578   3.044  10.789  0.1853  0.1590  0.0602
  691TMC3    C110268   2.353   3.925   7.732  0.4931  0.5507 -0.2680
  691TMC3    C210269   2.331   4.056   7.696 -0.3826 -0.8327  0.0010
  691TMC3    C310270   2.351   4.086   7.564 -0.0448  0.6787 -0.1192
  691TMC3    C410271   2.388   3.825   7.647  0.2686 -0.5162 -0.3098
  691TMC3    C510272   2.418   3.864   7.521  0.1186  1.6076 -0.1563
  691TMC3    C610273   2.395   3.989   7.483  0.0828  0.6132 -0.0543
  691TMC3     C10274   2.439   3.937   7.851 -0.3258 -0.1842  0.2554
  691TMC3     O10275   2.398   3.965   7.967 -0.7658 -0.1603  0.0052
  691TMC3     H10276   2.285   4.124   7.767  0.3290 -1.3550  0.9747
  691TMC3    H110277   2.442   3.740   7.687  0.7426 -0.4245 -0.7603
  691TMC3    H210278   2.432   4.018   7.385  0.1921  0.2738 -0.1131
  691TMC3    C710279   2.547   3.820   7.493 -1.1692 -0.1208 -0.6593
  691TMC3    C810280   2.407   4.221   7.541 -0.2949  0.2883 -0.2426
  691TMC3    O110281   2.634   3.898   7.539  0.0077  0.4608  0.3189
  691TMC3    O210282   2.497   4.238   7.460  0.2415  0.0303  0.1030
  692TMC3    C110283   0.440   3.275  13.429 -1.1995  0.1518 -0.2411
  692TMC3    C210284   0.388   3.384  13.493 -0.0974  0.0115 -0.0768
  692TMC3    C310285   0.253   3.404  13.511  0.1101  0.1748 -0.2669
  692TMC3    C410286   0.363   3.178  13.380  0.2677  0.5605 -0.0652
  692TMC3    C510287   0.230   3.200  13.387  0.6884  0.2991  0.0524
  692TMC3    C610288   0.174   3.312  13.444 -0.2412  0.1261  0.3011
  692TMC3     C10289   0.550   3.297  13.341 -0.2670 -0.0457 -0.1527
  692TMC3     O10290   0.530   3.259  13.227 -0.2550 -0.1737 -0.7463
  692TMC3     H10291   0.453   3.466  13.520 -0.2881  1.0130 -2.6457
  692TMC3    H110292   0.404   3.094  13.325 -1.1167 -1.1762  1.5084
  692TMC3    H210293   0.070   3.339  13.435 -0.3088 -0.3354 -0.3413
  692TMC3    C710294   0.152   3.107  13.314  0.6594 -0.4378 -0.6002
  692TMC3    C810295   0.207   3.537  13.495  0.3569  0.8025  0.0129
  692TMC3    O110296   0.199   3.065  13.207 -0.3414 -0.1868 -0.2354
  692TMC3    O210297   0.136   3.556  13.396  0.1559  0.3508 -0.0980
  693TMC3    C110298   1.752   2.998   6.138 -0.6736 -0.0740  0.4737
  693TMC3    C210299   1.750   2.931   6.254  0.8075  0.1888  0.1864
  693TMC3    C310300   1.788   2.798   6.247 -0.0143  0.4844  0.7417
  693TMC3    C410301   1.795   2.947   6.022  0.4092  0.2875  0.7308
  693TMC3    C510302   1.837   2.812   6.019  0.0136 -0.0554  0.7091
  693TMC3    C610303   1.835   2.738   6.131  0.0086  0.0017  0.0134
  693TMC3     C10304   1.673   3.118   6.119 -0.1644  0.2207 -0.2962
  693TMC3     O10305   1.640   3.152   6.010 -0.6066  0.0986  0.1481
  693TMC3     H10306   1.707   2.960   6.350 -1.6655 -0.7972 -0.6090
  693TMC3    H110307   1.812   3.013   5.938  0.6615 -0.4460  0.2108
  693TMC3    H210308   1.877   2.638   6.133 -0.6158 -0.2639 -0.1059
  693TMC3    C710309   1.826   2.739   5.891 -0.9492 -0.5138 -0.6009
  693TMC3    C810310   1.817   2.733   6.372  0.3859  0.1127  0.0780
  693TMC3    O110311   1.805   2.623   5.904 -0.6911  0.1137  0.3176
  693TMC3    O210312   1.766   2.784   6.470 -0.2994  0.1598  0.1434
  694TMC3    C110313   1.485   1.468   9.040 -0.4565  0.4646 -0.2223
  694TMC3    C210314   1.509   1.482   8.904 -0.4295  0.1636 -0.1722
  694TMC3    C310315   1.641   1.489   8.853  0.8582  0.1955  0.4504
  694TMC3    C410316   1.588   1.445   9.118  0.1378 -0.8196 -0.7831
  694TMC3    C510317   1.712   1.469   9.066  0.2750 -0.0011  0.3195
  694TMC3    C610318   1.751   1.485   8.934  0.0981  0.0439 -0.2099
  694TMC3     C10319   1.398   1.569   9.089  0.6078  0.2559 -0.2835
  694TMC3     O10320   1.340   1.556   9.195  0.3388 -0.3545  0.5047
  694TMC3     H10321   1.427   1.483   8.833 -0.8941  0.7119  0.3815
  694TMC3    H110322   1.568   1.431   9.223 -0.7060  0.7660 -0.7298
  694TMC3    H210323   1.849   1.498   8.888 -1.9661  2.7116 -3.9116
  694TMC3    C710324   1.812   1.447   9.166 -0.7955 -0.2298  0.1977
  694TMC3    C810325   1.664   1.453   8.714 -0.4095 -0.1643  0.4307
  694TMC3    O110326   1.785   1.387   9.269  0.1226  0.0376 -0.1427
  694TMC3    O210327   1.774   1.417   8.688  0.3187  0.0613 -0.0728
  695TMC3    C110328   2.077   2.888   7.477 -0.1105  0.0641  0.3844
  695TMC3    C210329   2.219   2.882   7.476 -0.4435 -0.1112 -1.1003
  695TMC3    C310330   2.283   2.989   7.531 -0.6549  0.0399  0.0168
  695TMC3    C410331   1.997   2.987   7.532 -0.1872  0.0494  0.0893
  695TMC3    C510332   2.073   3.089   7.585 -0.8459  0.3715  0.4137
  695TMC3    C610333   2.209   3.090   7.598 -0.2321 -0.2383  0.9363
  695TMC3     C10334   2.023   2.750   7.473 -0.1569  0.0788  0.1966
  695TMC3     O10335   2.090   2.663   7.426 -0.5736 -0.3705  0.4231
  695TMC3     H10336   2.279   2.795   7.454  2.1450  1.3271  0.2675
  695TMC3    H110337   1.890   2.990   7.516 -0.4310  0.2990  1.7508
  695TMC3    H210338   2.257   3.183   7.627  1.2578 -0.9874  0.8999
  695TMC3    C710339   2.004   3.202   7.649 -0.1889  0.6631 -1.1057
  695TMC3    C810340   2.426   3.021   7.533  0.1911  0.2020  0.9798
  695TMC3    O110341   2.066   3.247   7.745 -0.3220  0.1120 -0.2017
  695TMC3    O210342   2.462   3.125   7.586 -0.4324  0.4155  0.2853
  696TMC3    C110343   1.367   3.097  13.498 -0.0103 -0.4030 -0.3318
  696TMC3    C210344   1.315   3.115  13.373 -0.5986  0.0316 -0.0764
  696TMC3    C310345   1.403   3.133  13.268  0.0309  0.0122  0.0337
  696TMC3    C410346   1.504   3.087  13.520  0.1998 -0.5034 -0.2647
  696TMC3    C510347   1.586   3.102  13.410  0.5740  1.0135  0.2161
  696TMC3    C610348   1.537   3.137  13.288  0.5313 -0.3727  0.3136
  696TMC3     C10349   1.287   3.047  13.605  0.3479  0.0202 -0.2799
  696TMC3     O10350   1.165   3.072  13.582  0.0959 -0.6636  0.6966
  696TMC3     H10351   1.207   3.125  13.364 -0.5935  0.0851 -0.0770
  696TMC3    H110352   1.544   3.115  13.617  0.2294 -3.2866  0.5376
  696TMC3    H210353   1.602   3.167  13.206 -1.0751 -1.2899 -1.2625
  696TMC3    C710354   1.725   3.089  13.424  0.3870  1.0266  0.8107
  696TMC3    C810355   1.363   3.108  13.129 -0.0892  0.0123 -0.1206
  696TMC3    O110356   1.795   3.111  13.327  0.2223 -0.1304 -0.0940
  696TMC3    O210357   1.446   3.132  13.044  0.4470  0.3075 -0.3949
  697TMC3    C110358   1.203   1.615  12.243  0.2352  0.4541  0.0062
  697TMC3    C210359   1.275   1.664  12.139 -0.5512  0.3092 -0.0853
  697TMC3    C310360   1.219   1.740  12.039  0.4387  0.1398  0.6669
  697TMC3    C410361   1.067   1.650  12.258  0.5190  1.0328 -0.0321
  697TMC3    C510362   1.011   1.713  12.149  0.0315 -0.1388  0.6631
  697TMC3    C610363   1.080   1.759  12.042 -0.1341  0.3389 -0.2265
  697TMC3     C10364   1.280   1.564  12.354  0.0120  0.7511  0.0483
  697TMC3     O10365   1.395   1.604  12.370 -0.4620 -0.1409  0.3402
  697TMC3     H10366   1.382   1.647  12.137 -0.4771  0.4461  2.1464
  697TMC3    H110367   1.017   1.628  12.352  1.1283 -0.7028 -0.0976
  697TMC3    H210368   1.034   1.839  11.984 -1.6014  0.9197  1.7453
  697TMC3    C710369   0.869   1.744  12.153  0.1071 -0.0821 -0.5828
  697TMC3    C810370   1.287   1.770  11.911  0.2604 -0.4249 -0.1530
  697TMC3    O110371   0.828   1.772  12.267 -0.8900 -0.4602 -0.0954
  697TMC3    O210372   1.234   1.849  11.835  0.5697  0.2165  0.6461
  698TMC3    C110373   0.561   1.151  15.010  0.1783 -0.0487 -0.3361
  698TMC3    C210374   0.534   1.187  14.880 -0.0459 -0.2602  0.1226
  698TMC3    C310375   0.425   1.131  14.818  0.3098  0.2662 -0.3731
  698TMC3    C410376   0.492   1.050  15.066 -0.2539 -0.3792  0.1330
  698TMC3    C510377   0.380   1.002  15.005  0.1003 -0.6631  0.5144
  698TMC3    C610378   0.339   1.038  14.881 -0.4021 -0.5073  0.6283
  698TMC3     C10379   0.705   1.146  15.031  0.3908 -0.5797 -0.1858
  698TMC3     O10380   0.740   1.138  15.150 -0.4010 -0.2795  1.0897
  698TMC3     H10381   0.586   1.264  14.825  1.7090 -0.8614  0.9615
  698TMC3    H110382   0.512   1.001  15.161  1.1057  2.0613  1.0930
  698TMC3    H210383   0.254   0.993  14.831  0.6754  0.6859 -2.2331
  698TMC3    C710384   0.287   0.925  15.083 -0.5195  0.4244  0.9351
  698TMC3    C810385   0.420   1.138  14.672  0.1685 -0.2948  0.2349
  698TMC3    O110386   0.167   0.935  15.071  0.1922  0.4011  0.6982
  698TMC3    O210387   0.466   1.242  14.630  0.0896 -0.2816  0.1818
  699TMC3    C110388   1.711   3.795   7.237 -0.2362  0.2446 -0.5314
  699TMC3    C210389   1.730   3.691   7.325  0.2496 -0.4070  0.2140
  699TMC3    C310390   1.811   3.593   7.288 -1.1306 -0.7004  0.3862
  699TMC3    C410391   1.770   3.808   7.114 -0.3655 -0.1377  0.7763
  699TMC3    C510392   1.852   3.709   7.087 -0.2464  0.2216  0.6909
  699TMC3    C610393   1.885   3.609   7.178  0.2903  0.4928 -0.4832
  699TMC3     C10394   1.638   3.912   7.274 -0.4719 -0.3321 -0.4577
  699TMC3     O10395   1.658   4.013   7.209 -0.4245  0.8998 -0.4698
  699TMC3     H10396   1.682   3.688   7.422  1.4717 -0.4203  0.8255
  699TMC3    H110397   1.749   3.887   7.043 -2.5621 -3.0896 -1.8257
  699TMC3    H210398   1.937   3.522   7.141  0.5683 -0.4652  2.1636
  699TMC3    C710399   1.920   3.702   6.958 -0.2344 -1.0604  0.3940
  699TMC3    C810400   1.763   3.458   7.313 -0.0996 -0.1926  0.1551
  699TMC3    O110401   2.029   3.648   6.960  0.1760 -0.0835 -0.0743
  699TMC3    O210402   1.640   3.447   7.320 -0.0702  0.0265  0.1258
  700TMC3    C110403   4.413   1.593  13.854 -0.7729 -0.2512 -0.0799
  700TMC3    C210404   4.451   1.601  13.721 -0.0600 -0.1251 -0.1720
  700TMC3    C310405   4.495   1.491  13.649  0.0718 -0.0084 -0.3040
  700TMC3    C410406   4.421   1.473  13.920 -0.4302  0.2354  0.3924
  700TMC3    C510407   4.471   1.369  13.844 -0.2221 -0.3371  0.2452
  700TMC3    C610408   4.490   1.371  13.710  0.0300  0.3173  0.2419
  700TMC3     C10409   4.329   1.686  13.919  0.1258 -0.6839  0.0812
  700TMC3     O10410   4.301   1.662  14.034 -0.4936  0.2033  0.0811
  700TMC3     H10411   4.458   1.700  13.676 -1.2633 -0.1108 -0.3407
  700TMC3    H110412   4.401   1.472  14.027  0.7095  0.9726  0.6188
  700TMC3    H210413   4.549   1.293  13.664 -1.0947 -0.3616 -0.0400
  700TMC3    C710414   4.426   1.242  13.905 -0.5239  0.1088 -0.0503
  700TMC3    C810415   4.564   1.507  13.522  0.7583 -0.0330  0.2368
  700TMC3    O110416   4.412   1.243  14.029 -0.1917 -0.2504  0.1891
  700TMC3    O210417   4.593   1.622  13.491  0.1673 -0.0134 -0.7634
  701TMC3    C110418   0.933   1.543   6.989  0.1235  0.4711  0.3613
  701TMC3    C210419   1.021   1.618   7.072 -0.0227  0.3350  0.7009
  701TMC3    C310420   1.042   1.748   7.045 -0.6374  0.4321 -0.1886
  701TMC3    C410421   0.865   1.608   6.889  0.0003 -0.1766 -0.1933
  701TMC3    C510422   0.886   1.739   6.866  0.1438  0.3779  0.4773
  701TMC3    C610423   0.970   1.816   6.952 -0.5451 -0.2919  0.8677
  701TMC3     C10424   0.908   1.406   7.025 -0.0993  0.4084  0.0255
  701TMC3     O10425   0.950   1.374   7.132 -0.7355 -0.4205  0.0545
  701TMC3     H10426   1.081   1.566   7.147  2.1194  1.7374 -0.0341
  701TMC3    H110427   0.798   1.546   6.831 -0.6286  0.9013 -0.6266
  701TMC3    H210428   0.992   1.921   6.937  2.1032 -0.8673  0.6482
  701TMC3    C710429   0.841   1.807   6.741 -0.3114 -0.5601 -0.7041
  701TMC3    C810430   1.130   1.828   7.127 -0.5844 -0.1536 -0.7778
  701TMC3    O110431   0.884   1.922   6.727  0.0188 -0.4297 -0.2102
  701TMC3    O210432   1.100   1.943   7.145 -0.1621  0.3286  0.0066
  702TMC3    C110433   0.163   3.676  10.073 -0.4152  0.1470 -0.2218
  702TMC3    C210434   0.152   3.563  10.153  0.2335  0.2348 -0.5351
  702TMC3    C310435   0.125   3.581  10.284 -0.6435  0.1805 -0.2690
  702TMC3    C410436   0.164   3.803  10.123  0.2740  0.4812 -0.3206
  702TMC3    C510437   0.153   3.812  10.262 -0.2939  0.7906 -0.7361
  702TMC3    C610438   0.119   3.706  10.344 -0.6946  0.5706 -0.1911
  702TMC3     C10439   0.209   3.659   9.935  0.1025 -0.3546 -0.4164
  702TMC3     O10440   0.176   3.751   9.868 -0.4604  0.4763  0.3583
  702TMC3     H10441   0.135   3.472  10.097  1.9524 -0.7155  0.4960
  702TMC3    H110442   0.201   3.892  10.074  2.2132 -0.9375 -1.4131
  702TMC3    H210443   0.101   3.721  10.450  1.8311 -0.6821  0.4342
  702TMC3    C710444   0.128   3.947  10.311  0.3273 -0.2677  0.3237
  702TMC3    C810445   0.198   3.486  10.356 -0.3399  0.0886 -0.0784
  702TMC3    O110446   0.108   4.033  10.230 -0.1445 -0.5529  0.0202
  702TMC3    O210447   0.191   3.371  10.306 -0.1112 -0.0528 -0.4526
  703TMC3    C110448   4.385   2.391   7.845  0.4372 -0.2060 -0.0182
  703TMC3    C210449   4.348   2.369   7.975  0.0566 -0.1677  0.2846
  703TMC3    C310450   4.249   2.272   8.003  0.0819 -1.1326  0.8855
  703TMC3    C410451   4.335   2.304   7.745 -0.2394 -0.3362  0.0730
  703TMC3    C510452   4.242   2.205   7.782  0.1728  0.4049 -0.0270
  703TMC3    C610453   4.194   2.196   7.911 -0.2905  0.4413 -0.6314
  703TMC3     C10454   4.369   2.527   7.802  1.4987 -0.4826  0.6740
  703TMC3     O10455   4.398   2.614   7.878  0.1117  0.0057  0.5131
  703TMC3     H10456   4.385   2.421   8.061 -0.4574  0.0803  0.3550
  703TMC3    H110457   4.372   2.316   7.645 -1.6159  1.6055 -0.1962
  703TMC3    H210458   4.125   2.113   7.923  0.5494 -0.2199 -0.3947
  703TMC3    C710459   4.129   2.198   7.686  0.1368  0.1542  0.8562
  703TMC3    C810460   4.206   2.268   8.141 -0.0231  0.3888 -0.3033
  703TMC3    O110461   4.013   2.221   7.723 -0.6124 -0.4825  0.3240
  703TMC3    O210462   4.274   2.328   8.222 -0.1922 -0.6552 -0.0485
  704TMC3    C110463   3.192   0.270   6.705 -0.1171  0.9260 -0.1348
  704TMC3    C210464   3.286   0.216   6.787 -0.8698 -0.3776  0.0361
  704TMC3    C310465   3.319   0.081   6.770  0.7034 -0.7775  0.0139
  704TMC3    C410466   3.126   0.200   6.604  0.3230 -0.0183  0.6557
  704TMC3    C510467   3.159   0.064   6.598 -0.6517  0.6704  0.2428
  704TMC3    C610468   3.259   0.009   6.670 -0.0554  0.2060 -0.1471
  704TMC3     C10469   3.160   0.403   6.712  0.0728  0.1036 -0.3202
  704TMC3     O10470   3.106   0.448   6.610  0.3727  0.4218  0.8283
  704TMC3     H10471   3.341   0.283   6.853 -0.2608  0.3028 -1.1651
  704TMC3    H110472   3.042   0.238   6.548 -0.2148  0.7145  1.9732
  704TMC3    H210473   3.294   4.683   6.660 -0.7637 -0.0074 -0.3824
  704TMC3    C710474   3.100   4.768   6.486 -0.0513 -0.1266 -1.1560
  704TMC3    C810475   3.449   0.040   6.812 -0.4174  0.5480 -0.2927
  704TMC3    O110476   3.151   4.660   6.458  0.6814  0.0625 -0.2132
  704TMC3    O210477   3.533   0.015   6.723 -0.0167 -0.3910  0.2862
  705TMC3    C110478   1.514   2.481  14.754 -0.6661  0.0671  0.1568
  705TMC3    C210479   1.405   2.455  14.840 -0.2115  0.2113  0.3411
  705TMC3    C310480   1.394   2.330  14.899 -0.3396  0.4746 -1.3080
  705TMC3    C410481   1.608   2.379  14.741 -0.7474 -0.0905  0.1597
  705TMC3    C510482   1.587   2.252  14.801  0.1391  0.6312 -0.1041
  705TMC3    C610483   1.485   2.228  14.884 -0.9321 -0.1279 -0.2986
  705TMC3     C10484   1.469   2.538  14.629 -0.3998 -0.5859  0.2299
  705TMC3     O10485   1.543   2.563  14.535  0.4248  0.1676 -0.3164
  705TMC3     H10486   1.340   2.536  14.871 -1.8044 -0.9308  0.0058
  705TMC3    H110487   1.689   2.399  14.672  0.6187  0.6433  2.0012
  705TMC3    H210488   1.469   2.135  14.937  0.7935 -0.0912  0.3059
  705TMC3    C710489   1.696   2.158  14.799 -0.4455  0.3464 -0.2356
  705TMC3    C810490   1.259   2.294  14.918  0.3457  0.6430 -0.4347
  705TMC3    O110491   1.805   2.205  14.823 -0.2739 -0.2785  0.2373
  705TMC3    O210492   1.168   2.350  14.848 -0.0105 -0.9243 -0.2710
  706TMC3    C110493   3.349   3.814   9.894  0.2668  0.9444 -0.3669
  706TMC3    C210494   3.415   3.747   9.798 -0.3659  0.1938  0.5912
  706TMC3    C310495   3.533   3.804   9.753  0.6289 -0.2922 -0.0789
  706TMC3    C410496   3.389   3.921   9.955 -0.5525 -0.2578  0.0800
  706TMC3    C510497   3.518   3.967   9.931 -0.2968  0.2913 -0.7655
  706TMC3    C610498   3.589   3.903   9.830 -0.2914 -0.2384 -0.4565
  706TMC3     C10499   3.283   3.721   9.985 -0.0469  0.5779 -0.9046
  706TMC3     O10500   3.159   3.739   9.985  0.0392 -0.0050  0.6740
  706TMC3     H10501   3.360   3.667   9.750  1.5223 -0.1195 -1.0629
  706TMC3    H110502   3.336   3.969  10.036 -1.0033  0.7632 -0.8245
  706TMC3    H210503   3.689   3.941   9.809  0.1806 -1.5627 -0.6307
  706TMC3    C710504   3.534   4.106   9.904  0.0325 -0.1775 -0.1805
  706TMC3    C810505   3.528   3.840   9.613 -0.1495 -0.5853 -0.5644
  706TMC3    O110506   3.434   4.169   9.872 -0.2504 -0.3835 -0.2281
  706TMC3    O210507   3.470   3.756   9.540  0.4609 -0.6381 -0.6401
  707TMC3    C110508   4.373   0.782   8.537 -0.2092 -0.0525  0.1796
  707TMC3    C210509   4.446   0.826   8.427  0.1472 -0.8280 -0.6756
  707TMC3    C310510   4.546   0.920   8.451  0.4464  0.9771 -0.3281
  707TMC3    C410511   4.387   0.850   8.658  0.1150 -0.1912  0.4512
  707TMC3    C510512   4.478   0.948   8.669 -0.2880 -0.1969  0.0086
  707TMC3    C610513   4.563   0.988   8.569 -0.0689  0.1597  0.0124
  707TMC3     C10514   4.294   0.671   8.520  0.4331  0.3568 -0.2328
  707TMC3     O10515   4.275   0.657   8.400  0.2254  0.0848 -0.2488
  707TMC3     H10516   4.442   0.768   8.336 -0.0618 -0.7027 -0.7460
  707TMC3    H110517   4.325   0.823   8.742  0.0784 -1.8119 -0.0928
  707TMC3    H210518   4.647   1.053   8.590 -0.4482 -0.1043  2.2552
  707TMC3    C710519   4.497   1.018   8.795 -1.0350  0.2927  0.9184
  707TMC3    C810520   4.607   0.968   8.329  0.1343 -0.5663  0.8334
  707TMC3    O110521   4.491   0.955   8.900  0.1660 -0.4444 -0.6727
  707TMC3    O210522   4.654   1.081   8.335  0.0147  0.0346 -0.6814
  708TMC3    C110523   4.102   3.988  14.757  0.0471 -0.0951 -0.3217
  708TMC3    C210524   3.978   3.962  14.715 -0.2151  0.0316  0.3922
  708TMC3    C310525   3.891   4.070  14.689 -0.3954  0.4515  0.1414
  708TMC3    C410526   4.143   4.117  14.791  0.1432  0.2041 -0.0071
  708TMC3    C510527   4.057   4.222  14.768  0.6667 -0.7525  0.1156
  708TMC3    C610528   3.934   4.203  14.715 -0.4221  0.9273  0.6538
  708TMC3     C10529   4.210   3.894  14.732  0.0585 -0.5658 -0.1465
  708TMC3     O10530   4.209   3.785  14.783 -0.6597 -0.0961 -0.8975
  708TMC3     H10531   3.952   3.862  14.683  2.1926 -0.1937 -0.8337
  708TMC3    H110532   4.244   4.140  14.823 -0.9567  1.9324  2.1957
  708TMC3    H210533   3.875   4.286  14.679 -2.5193 -0.8761 -0.0096
  708TMC3    C710534   4.082   4.348  14.825  0.2776  0.8844  0.5088
  708TMC3    C810535   3.765   4.036  14.636  1.0073  0.0312  0.4264
  708TMC3    O110536   3.979   4.396  14.873  0.3728 -0.0395 -0.1446
  708TMC3    O210537   3.743   3.926  14.586  0.2904  0.1568  0.2277
  709TMC3    C110538   4.312   3.873   8.309 -0.9405  0.6441  0.0725
  709TMC3    C210539   4.425   3.790   8.299  0.5832  0.3967 -0.5664
  709TMC3    C310540   4.445   3.726   8.176  0.3583  0.4850 -0.3258
  709TMC3    C410541   4.230   3.890   8.198  0.5575  0.8458  0.5087
  709TMC3    C510542   4.245   3.809   8.089 -0.0888 -0.1178 -0.3580
  709TMC3    C610543   4.361   3.736   8.070 -0.2270  0.4946  0.6518
  709TMC3     C10544   4.245   3.867   8.437 -0.8495  0.2593  0.3215
  709TMC3     O10545   4.279   3.785   8.517 -0.6449 -0.2268 -0.1895
  709TMC3     H10546   4.499   3.771   8.376 -0.1494  3.0446  0.7776
  709TMC3    H110547   4.133   3.938   8.204  0.4583  1.1325 -3.1507
  709TMC3    H210548   4.382   3.684   7.977 -0.1032  0.2165  0.8359
  709TMC3    C710549   4.129   3.785   8.004  1.0086 -0.2634 -0.1383
  709TMC3    C810550   4.553   3.637   8.172  0.4059  0.6985  0.5387
  709TMC3    O110551   4.028   3.849   8.021  0.0802  0.5282 -0.0248
  709TMC3    O210552   4.664   3.674   8.207  0.0630  0.7966  0.3946
  710TMC3    C110553   0.012   2.420  12.283 -0.2933 -0.3000  0.2026
  710TMC3    C210554   4.715   2.384  12.388 -0.4009  0.2121  0.3537
  710TMC3    C310555   4.606   2.456  12.426  0.2139 -0.1539 -0.6964
  710TMC3    C410556   4.743   2.521  12.201 -0.2450  0.0513 -0.0766
  710TMC3    C510557   4.630   2.591  12.235  0.2676  0.7535 -0.5390
  710TMC3    C610558   4.556   2.556  12.348 -0.2903  0.7195  0.2681
  710TMC3     C10559   0.123   2.337  12.247 -0.3599 -0.2318  0.0142
  710TMC3     O10560   0.162   2.355  12.132  0.2804  0.7252  0.3523
  710TMC3     H10561   4.731   2.289  12.437 -0.3388  0.8480  1.5710
  710TMC3    H110562   0.021   2.554  12.113 -2.2436  0.3968 -1.1894
  710TMC3    H210563   4.466   2.613  12.367 -1.3189 -1.3156  1.5124
  710TMC3    C710564   4.590   2.703  12.156 -0.2458  0.6063 -0.5881
  710TMC3    C810565   4.561   2.438  12.558 -0.4096  0.6104 -0.0331
  710TMC3    O110566   4.550   2.796  12.222 -0.0789  0.1015  0.5855
  710TMC3    O210567   4.601   2.333  12.609 -0.2424 -0.2988 -0.0465
  711TMC3    C110568   4.506   4.500   6.331  0.3564  0.3791 -0.0103
  711TMC3    C210569   4.372   4.499   6.332  0.2373  0.4931  0.7633
  711TMC3    C310570   4.296   4.545   6.445  0.1096 -0.0690  0.0138
  711TMC3    C410571   4.576   4.526   6.450  0.0299  0.1501  0.3592
  711TMC3    C510572   4.503   4.562   6.561 -0.3346  0.0157  0.8228
  711TMC3    C610573   4.362   4.575   6.558  0.1873 -0.0548 -0.2552
  711TMC3     C10574   4.594   4.496   6.209 -0.1269 -0.0685 -0.9213
  711TMC3     O10575   4.715   4.496   6.230  0.1974  0.1739 -0.0033
  711TMC3     H10576   4.324   4.470   6.239 -0.1803  2.1948  0.4389
  711TMC3    H110577   4.684   4.524   6.455 -0.0970 -2.2690  2.1357
  711TMC3    H210578   4.304   4.597   6.646  0.4774  1.0661 -0.3440
  711TMC3    C710579   4.571   4.562   6.692 -0.0405 -0.1316 -0.2943
  711TMC3    C810580   4.154   4.561   6.452 -0.0165 -0.3027  0.1967
  711TMC3    O110581   4.692   4.576   6.694 -0.6603  0.5580 -0.6260
  711TMC3    O210582   4.102   4.617   6.550 -0.2827 -0.0698 -0.0418
  712TMC3    C110583   2.772   4.729   7.285 -0.0981 -0.2115  0.1754
  712TMC3    C210584   2.798   4.688   7.158 -0.0797  0.1575 -0.2457
  712TMC3    C310585   2.914   4.736   7.106  0.2953  0.5807  0.4972
  712TMC3    C410586   2.847   0.042   7.358 -0.9148  0.1363  0.1004
  712TMC3    C510587   2.965   0.081   7.300  0.2863  0.1533  0.3457
  712TMC3    C610588   3.003   0.048   7.170  0.1983  0.1807 -0.0610
  712TMC3     C10589   2.670   4.645   7.357 -0.2120 -0.0198 -0.1395
  712TMC3     O10590   2.672   4.528   7.321 -0.1819 -0.0492  0.0728
  712TMC3     H10591   2.727   4.625   7.106 -0.6430 -1.0710  2.0102
  712TMC3    H110592   2.815   0.062   7.460 -0.4886 -1.7872  0.6092
  712TMC3    H210593   3.094   0.076   7.119 -1.1798  2.4378 -1.3065
  712TMC3    C710594   3.052   0.167   7.376 -0.2572  0.8203  0.1527
  712TMC3    C810595   2.930   4.722   6.963 -0.2680 -0.4099  0.1977
  712TMC3    O110596   3.118   0.251   7.323  0.0035 -0.3183 -0.3436
  712TMC3    O210597   3.044   4.724   6.922  0.5594 -0.2902  0.3461
  713TMC3    C110598   0.918   0.665  11.540 -0.7172  0.0117  0.1324
  713TMC3    C210599   0.816   0.744  11.503  0.2295  0.5477 -0.4073
  713TMC3    C310600   0.804   0.865  11.566 -0.3607 -0.1877 -0.9752
  713TMC3    C410601   0.995   0.690  11.654  0.2267  0.1987  0.0013
  713TMC3    C510602   0.979   0.813  11.715 -0.0843  0.3898  0.3774
  713TMC3    C610603   0.886   0.900  11.667  0.1139 -0.0311 -0.2275
  713TMC3     C10604   0.993   0.585  11.439  0.6144 -0.2489  0.3156
  713TMC3     O10605   0.946   0.544  11.335 -0.2950  0.0642  0.1059
  713TMC3     H10606   0.778   0.727  11.402  2.0163  1.5435 -1.2472
  713TMC3    H110607   1.073   0.622  11.687  0.0376  0.5936  1.2636
  713TMC3    H210608   0.888   1.004  11.700 -3.1316 -0.1735  0.3949
  713TMC3    C710609   1.062   0.845  11.832 -0.8385 -0.3140  0.4687
  713TMC3    C810610   0.712   0.965  11.519  0.0956  0.2327  0.5455
  713TMC3    O110611   1.151   0.763  11.860 -0.0078  0.8001 -0.1169
  713TMC3    O210612   0.716   1.082  11.563 -0.4136 -0.4075  0.1778
  714TMC3    C110613   2.230   2.479   9.215 -0.6853 -0.3815  0.4148
  714TMC3    C210614   2.096   2.472   9.184  0.0659 -0.5819  0.0171
  714TMC3    C310615   2.009   2.527   9.268 -0.3925 -0.0107  0.6521
  714TMC3    C410616   2.269   2.521   9.340 -0.0246  0.5170 -0.0957
  714TMC3    C510617   2.171   2.572   9.427 -0.2520  0.5573 -0.1908
  714TMC3    C610618   2.039   2.575   9.390  0.3818  0.0485  0.0439
  714TMC3     C10619   2.334   2.514   9.110  0.0546  1.0282  0.3981
  714TMC3     O10620   2.453   2.508   9.143  0.4133 -0.2518  0.0106
  714TMC3     H10621   2.054   2.426   9.096 -0.4584 -0.3336  0.1405
  714TMC3    H110622   2.376   2.518   9.352  0.1176  1.0274 -1.2373
  714TMC3    H210623   1.958   2.608   9.455  0.6548 -0.8001  0.8136
  714TMC3    C710624   2.205   2.636   9.555 -0.4617 -1.5650 -0.5276
  714TMC3    C810625   1.868   2.502   9.254 -0.0784  0.9924 -0.5163
  714TMC3    O110626   2.114   2.632   9.637  0.1672  0.0925  0.1566
  714TMC3    O210627   1.808   2.606   9.283  0.0348 -0.0062  0.6729
  715TMC3    C110628   1.288   2.694  12.202  0.2402 -1.1440  0.1826
  715TMC3    C210629   1.249   2.633  12.322 -0.0639 -0.6265  0.0824
  715TMC3    C310630   1.316   2.511  12.341  1.1741  0.0625  0.4442
  715TMC3    C410631   1.362   2.638  12.102 -0.5365  0.1605 -0.6192
  715TMC3    C510632   1.405   2.512  12.117 -0.0060  0.4171 -0.2136
  715TMC3    C610633   1.398   2.447  12.242  0.7008  0.1332 -0.4375
  715TMC3     C10634   1.267   2.832  12.183  0.1462 -0.6757 -0.1943
  715TMC3     O10635   1.184   2.878  12.261 -0.4987 -0.5162 -0.7350
  715TMC3     H10636   1.193   2.678  12.403 -0.6541  0.2681 -0.8209
  715TMC3    H110637   1.367   2.685  12.005 -1.4166  2.7711  0.5841
  715TMC3    H210638   1.462   2.362  12.265  0.6810 -0.0825 -1.1777
  715TMC3    C710639   1.500   2.468  12.016 -0.0941  0.5539  0.3243
  715TMC3    C810640   1.368   2.485  12.476  0.1182 -0.1341 -0.5575
  715TMC3    O110641   1.468   2.482  11.897  0.1558 -0.5699  0.0329
  715TMC3    O210642   1.396   2.372  12.511  0.4001 -0.0567 -0.5846
  716TMC3    C110643   3.190   1.786  11.469  0.6715  0.0933 -0.3443
  716TMC3    C210644   3.074   1.729  11.523 -0.2513  0.1604 -0.5073
  716TMC3    C310645   2.982   1.815  11.574  0.2185 -0.1657  0.0580
  716TMC3    C410646   3.194   1.918  11.444  0.1463  0.4012  0.2383
  716TMC3    C510647   3.094   2.000  11.479  0.0025 -0.4644  0.3515
  716TMC3    C610648   2.986   1.951  11.546  0.7000  0.8530  0.4294
  716TMC3     C10649   3.319   1.727  11.497  0.0013  0.3402  0.4412
  716TMC3     O10650   3.420   1.777  11.452  0.5528 -0.1286 -0.7419
  716TMC3     H10651   3.066   1.621  11.531 -1.0764  0.2956  0.5670
  716TMC3    H110652   3.277   1.947  11.381  0.4602 -0.9493  0.0287
  716TMC3    H210653   2.909   2.017  11.585 -0.1025 -1.2070  2.3179
  716TMC3    C710654   3.055   2.108  11.388 -0.2835 -0.1829  0.3858
  716TMC3    C810655   2.945   1.773  11.710 -0.4553  0.3255 -0.5153
  716TMC3    O110656   2.942   2.149  11.397 -0.7291 -0.3444 -0.2879
  716TMC3    O210657   2.970   1.659  11.733  0.3650 -0.3228 -0.0035
  717TMC3    C110658   2.350   2.476   9.960  0.0341  0.2594  0.1197
  717TMC3    C210659   2.227   2.464  10.013 -0.1540 -0.0905  0.2844
  717TMC3    C310660   2.176   2.342  10.027 -0.7971  0.1679  0.7665
  717TMC3    C410661   2.419   2.369   9.908  1.4209 -0.3090  0.0724
  717TMC3    C510662   2.360   2.250   9.935  0.8317 -0.0089  0.1449
  717TMC3    C610663   2.238   2.231   9.977  0.5655 -0.0136 -0.3301
  717TMC3     C10664   2.396   2.611   9.928 -0.6603  0.7572  1.0061
  717TMC3     O10665   2.310   2.703   9.935  0.1088 -0.2783 -0.4319
  717TMC3     H10666   2.177   2.555  10.043 -2.1343 -0.6270 -1.4184
  717TMC3    H110667   2.508   2.382   9.848  2.0708 -1.3037  0.8100
  717TMC3    H210668   2.190   2.134   9.990  0.8860 -0.0197  0.8699
  717TMC3    C710669   2.439   2.134   9.911 -0.7847  0.1646  1.1533
  717TMC3    C810670   2.061   2.308  10.101 -1.4330 -0.0658 -0.4829
  717TMC3    O110671   2.562   2.149   9.916 -0.5109 -0.2924 -0.0623
  717TMC3    O210672   1.987   2.238  10.031  0.5759 -0.0421 -0.5366
  718TMC3    C110673   2.091   3.327   6.127  0.1515  0.5469  0.8125
  718TMC3    C210674   2.190   3.413   6.169  0.5189  0.2440 -0.2384
  718TMC3    C310675   2.170   3.551   6.165 -0.4851  0.3256 -0.3099
  718TMC3    C410676   1.959   3.366   6.115 -0.2738  0.0802  0.3070
  718TMC3    C510677   1.934   3.500   6.120 -0.5343  0.0906 -0.1269
  718TMC3    C610678   2.038   3.586   6.146 -0.1322  0.3884 -0.5230
  718TMC3     C10679   2.101   3.180   6.132  0.2531 -0.3981 -0.4948
  718TMC3     O10680   2.026   3.116   6.062  0.1073  0.3546 -0.0479
  718TMC3     H10681   2.290   3.371   6.163  0.1551 -0.8570  1.2696
  718TMC3    H110682   1.877   3.294   6.109  1.6969 -2.3007  1.7048
  718TMC3    H210683   2.024   3.693   6.155  0.8322  0.4346  0.4701
  718TMC3    C710684   1.797   3.539   6.135  1.2465  0.5016  0.3282
  718TMC3    C810685   2.273   3.643   6.187  0.0150  0.1533  0.0965
  718TMC3    O110686   1.715   3.458   6.087  0.4388  0.6146  0.2528
  718TMC3    O210687   2.246   3.760   6.158  0.0169  0.1342 -0.7539
  719TMC3    C110688   3.136   3.290  12.634  0.0180  0.7500  0.3699
  719TMC3    C210689   3.269   3.268  12.601 -0.2871 -0.1839  0.2589
  719TMC3    C310690   3.351   3.382  12.615 -0.4542  0.0945  0.1303
  719TMC3    C410691   3.088   3.416  12.660  0.6959  0.7778 -0.3711
  719TMC3    C510692   3.169   3.519  12.652 -0.1040 -0.3792 -0.5680
  719TMC3    C610693   3.303   3.507  12.637  0.7212 -0.2563 -0.9460
  719TMC3     C10694   3.060   3.188  12.696 -0.8463  0.3123 -0.2104
  719TMC3     O10695   2.939   3.202  12.694 -0.6140 -0.4169 -0.7922
  719TMC3     H10696   3.295   3.175  12.553 -0.7947 -0.9087  1.3949
  719TMC3    H110697   2.982   3.429  12.676  0.4915 -1.1715 -0.0932
  719TMC3    H210698   3.376   3.585  12.654  2.2472 -1.3349 -2.5765
  719TMC3    C710699   3.111   3.640  12.716 -0.3190 -0.2278 -0.2387
  719TMC3    C810700   3.494   3.372  12.569  0.0280 -0.2333  0.1865
  719TMC3    O110701   3.022   3.623  12.803  0.5041  0.2828 -0.2983
  719TMC3    O210702   3.550   3.478  12.544  0.1660  1.0244  0.1915
  720TMC3    C110703   1.418   2.756   8.479  0.2422  0.2834 -0.0315
  720TMC3    C210704   1.342   2.781   8.366 -0.1412  0.1376 -0.1622
  720TMC3    C310705   1.391   2.884   8.286 -0.1293  0.1106 -0.2785
  720TMC3    C410706   1.523   2.827   8.523 -0.1628  0.8503  0.1492
  720TMC3    C510707   1.569   2.926   8.439  0.3890 -0.2819  0.7682
  720TMC3    C610708   1.501   2.955   8.325 -0.3333 -0.9274 -0.2137
  720TMC3     C10709   1.350   2.673   8.578 -0.2366 -0.1803  0.2914
  720TMC3     O10710   1.280   2.584   8.532  0.3528  0.1442 -0.2481
  720TMC3     H10711   1.264   2.711   8.341  0.5054  0.3028 -2.6943
  720TMC3    H110712   1.579   2.808   8.614 -0.3619 -0.9637 -0.1087
  720TMC3    H210713   1.524   3.044   8.266  0.6018 -2.0374 -1.5220
  720TMC3    C710714   1.673   3.012   8.497  0.0147  0.2404 -0.1844
  720TMC3    C810715   1.301   2.961   8.206  0.0918  0.3371 -0.2567
  720TMC3    O110716   1.684   3.004   8.617  0.4236  0.1938  0.2345
  720TMC3    O210717   1.331   3.073   8.158 -0.5207 -0.4068 -0.4325
  721TMC3    C110718   1.772   0.859  12.476 -0.0174  0.3283 -0.0270
  721TMC3    C210719   1.642   0.894  12.465 -0.0401 -0.0876  0.2712
  721TMC3    C310720   1.596   0.916  12.338 -0.8996 -0.3408 -0.3211
  721TMC3    C410721   1.861   0.849  12.372 -0.2408  0.2001  0.3603
  721TMC3    C510722   1.809   0.873  12.245  0.9788 -0.0666  0.4449
  721TMC3    C610723   1.678   0.905  12.223  0.1741 -1.0169  0.5631
  721TMC3     C10724   1.814   0.814  12.610 -0.8269 -0.6342 -0.2243
  721TMC3     O10725   1.728   0.756  12.674  0.6516  0.0724  0.3143
  721TMC3     H10726   1.573   0.888  12.549 -1.9975 -3.2737 -1.5805
  721TMC3    H110727   1.963   0.813  12.386 -0.3206 -0.8051 -1.5965
  721TMC3    H210728   1.631   0.926  12.127 -1.1306  0.8869  1.6311
  721TMC3    C710729   1.893   0.899  12.135 -0.3900  0.3043 -0.0481
  721TMC3    C810730   1.466   0.971  12.326 -0.7503 -0.3378 -0.1757
  721TMC3    O110731   1.851   0.903  12.022 -0.0873  0.0841 -0.5963
  721TMC3    O210732   1.433   1.033  12.425 -0.7127 -0.3174  0.2063
  722TMC3    C110733   1.922   1.791  12.587 -0.7620 -0.0654  0.6273
  722TMC3    C210734   1.806   1.751  12.642 -0.4725  0.8949 -0.0374
  722TMC3    C310735   1.718   1.849  12.680 -0.0157 -0.0146  0.4070
  722TMC3    C410736   1.958   1.927  12.570 -0.1496  0.4458 -0.1996
  722TMC3    C510737   1.864   2.019  12.613  1.3323 -0.2144  1.0360
  722TMC3    C610738   1.745   1.981  12.671  0.6383 -0.6138  0.6447
  722TMC3     C10739   2.003   1.693  12.531  0.3962 -0.0418 -0.2017
  722TMC3     O10740   2.128   1.719  12.516  0.3007 -0.6601  0.1260
  722TMC3     H10741   1.786   1.645  12.657 -1.8035  1.0798 -0.4986
  722TMC3    H110742   2.044   1.962  12.515  0.3982 -0.4435  0.0920
  722TMC3    H210743   1.686   2.048  12.732  0.2368 -0.2830 -0.1060
  722TMC3    C710744   1.893   2.153  12.582  0.5151 -0.2175 -0.0306
  722TMC3    C810745   1.585   1.803  12.733  0.1902  0.4607 -0.3629
  722TMC3    O110746   1.982   2.172  12.500  0.3141 -0.5688  0.1762
  722TMC3    O210747   1.579   1.690  12.780 -0.7621 -0.4626  0.0116
  723TMC3    C110748   0.682   4.047  13.327 -0.5649 -0.1121 -0.1427
  723TMC3    C210749   0.615   3.997  13.219  0.1881  0.0425 -0.2207
  723TMC3    C310750   0.538   3.892  13.238 -0.0741 -0.3348  0.3734
  723TMC3    C410751   0.681   3.995  13.447  0.3855 -0.7528 -0.0285
  723TMC3    C510752   0.595   3.890  13.461 -0.2864  0.2818  0.6520
  723TMC3    C610753   0.530   3.829  13.359  0.0418 -0.5032 -0.7061
  723TMC3     C10754   0.727   4.186  13.314 -0.1062  0.8759 -0.5661
  723TMC3     O10755   0.732   4.250  13.418  0.5830 -0.0323 -0.1600
  723TMC3     H10756   0.618   4.042  13.120 -2.6963 -0.4875 -0.5641
  723TMC3    H110757   0.738   4.035  13.529  0.1213 -2.0663  0.7868
  723TMC3    H210758   0.445   3.769  13.389  0.4393 -0.6434  0.1487
  723TMC3    C710759   0.575   3.836  13.602  0.2172  0.1968  0.1122
  723TMC3    C810760   0.451   3.837  13.131 -0.0442 -0.1452  0.1002
  723TMC3    O110761   0.540   3.721  13.619  0.4645 -0.0895  0.3726
  723TMC3    O210762   0.422   3.914  13.039  0.2408 -0.1325 -0.7233
  724TMC3    C110763   3.026   0.338   9.259  0.7329  1.0356 -0.3298
  724TMC3    C210764   2.913   0.316   9.191  0.1925  0.1833 -0.3275
  724TMC3    C310765   2.808   0.394   9.221 -0.1782 -0.5980 -0.2141
  724TMC3    C410766   3.039   0.425   9.365 -0.0422 -0.6496  0.5142
  724TMC3    C510767   2.922   0.486   9.402  0.4307 -0.3131  0.0609
  724TMC3    C610768   2.807   0.479   9.327 -0.3526 -0.0380  0.2746
  724TMC3     C10769   3.154   0.264   9.227  0.2361 -0.0460 -0.1902
  724TMC3     O10770   3.222   0.224   9.317 -0.0817 -0.0434 -0.3328
  724TMC3     H10771   2.899   0.228   9.129 -1.0897 -0.2138  0.5091
  724TMC3    H110772   3.133   0.432   9.418  0.5439  0.3855 -0.6604
  724TMC3    H210773   2.723   0.541   9.355 -0.6676 -0.6910  0.7786
  724TMC3    C710774   2.942   0.611   9.463  0.1291  0.5838  0.4483
  724TMC3    C810775   2.702   0.398   9.125 -0.3068  0.4462  0.0034
  724TMC3    O110776   3.022   0.609   9.555  0.2772 -0.5126 -0.1802
  724TMC3    O210777   2.592   0.435   9.168  0.2637 -0.5575  0.3739
  725TMC3    C110778   3.036   3.427   8.023 -0.6165 -0.0874  0.8088
  725TMC3    C210779   2.943   3.524   7.997 -0.1341  0.1375 -0.7014
  725TMC3    C310780   2.872   3.572   8.099 -0.0355 -0.0732  0.3254
  725TMC3    C410781   3.070   3.413   8.154  0.2906  0.1957  0.0870
  725TMC3    C510782   3.002   3.473   8.257  0.1998 -0.4692  0.8340
  725TMC3    C610783   2.898   3.556   8.229 -0.0630 -0.3310 -0.6018
  725TMC3     C10784   2.992   3.306   7.962 -0.3699  0.1789  0.2240
  725TMC3     O10785   2.879   3.311   7.916 -0.3080 -0.0490 -0.2085
  725TMC3     H10786   2.916   3.552   7.896  0.9939  1.0403 -0.7523
  725TMC3    H110787   3.147   3.344   8.188 -0.4514 -1.7152 -2.0460
  725TMC3    H210788   2.830   3.594   8.304  0.2764  1.3025 -1.1118
  725TMC3    C710789   3.022   3.426   8.397 -0.4465  0.1400 -0.5153
  725TMC3    C810790   2.727   3.591   8.076  0.3000  0.7554 -0.6726
  725TMC3    O110791   3.137   3.416   8.437  0.2775  0.7230 -0.5180
  725TMC3    O210792   2.669   3.661   8.158  0.0617  0.5100 -0.1473
  726TMC3    C110793   0.533   3.322   6.134 -0.3412  0.4899  0.6423
  726TMC3    C210794   0.444   3.426   6.123  0.2629 -0.3608 -0.1323
  726TMC3    C310795   0.394   3.460   6.241  0.1283 -0.0285 -0.5893
  726TMC3    C410796   0.597   3.275   6.243  0.1692 -0.3570  0.3463
  726TMC3    C510797   0.548   3.328   6.362 -0.3467 -0.4095  0.5193
  726TMC3    C610798   0.442   3.419   6.361 -0.3292 -0.6223 -0.0749
  726TMC3     C10799   0.568   3.253   6.006  0.0929  0.2276 -0.3141
  726TMC3     O10800   0.572   3.307   5.894 -0.0191 -1.2093 -0.7640
  726TMC3     H10801   0.404   3.453   6.026  0.5713 -1.4297 -0.5579
  726TMC3    H110802   0.680   3.205   6.242  0.6213  0.1841  0.4957
  726TMC3    H210803   0.385   3.440   6.451  1.4509 -1.9693  1.3594
  726TMC3    C710804   0.571   3.250   6.478 -0.2395  0.0542  0.0947
  726TMC3    C810805   0.281   3.551   6.255 -0.1029  0.3426  0.2013
  726TMC3    O110806   0.593   3.303   6.587  0.0098 -0.0438 -0.0048
  726TMC3    O210807   0.260   3.608   6.361  0.1672  0.6047 -0.1176
  727TMC3    C110808   4.431   0.909   7.427  0.5834  0.6272 -0.9354
  727TMC3    C210809   4.443   0.796   7.353 -0.2721  0.4466 -0.3359
  727TMC3    C310810   4.472   0.681   7.426  0.3514  0.5179  0.1390
  727TMC3    C410811   4.445   0.912   7.562 -0.5059 -0.5400 -0.3079
  727TMC3    C510812   4.471   0.795   7.623 -0.9302 -0.3564 -0.8825
  727TMC3    C610813   4.492   0.677   7.557  0.4193  0.0721 -0.0715
  727TMC3     C10814   4.483   1.019   7.349  0.0948 -0.9594 -0.1193
  727TMC3     O10815   4.559   0.995   7.256  0.2735 -0.4548 -0.1544
  727TMC3     H10816   4.416   0.792   7.248 -0.4023 -4.3091 -0.1323
  727TMC3    H110817   4.426   1.003   7.618 -3.3495 -1.0701 -0.3812
  727TMC3    H210818   4.510   0.583   7.606  0.2750 -0.2523 -0.6444
  727TMC3    C710819   4.386   0.766   7.735 -0.6639  0.5171  0.4605
  727TMC3    C810820   4.380   0.576   7.387  0.3110 -0.5070 -0.2194
  727TMC3    O110821   4.376   0.648   7.761  0.2589 -0.1742  0.4349
  727TMC3    O210822   4.365   0.559   7.267  0.2401  0.3249  0.4727
  728TMC3    C110823   3.091   3.365   6.680 -0.3279  0.1064 -0.1062
  728TMC3    C210824   2.977   3.386   6.608  0.3019 -0.4334 -0.6354
  728TMC3    C310825   2.985   3.464   6.494  0.0451  0.3240  0.5155
  728TMC3    C410826   3.203   3.429   6.641  0.6242 -0.0993  0.4818
  728TMC3    C510827   3.201   3.520   6.545  0.0395  0.3344  0.0155
  728TMC3    C610828   3.099   3.538   6.461 -0.0558 -0.2301 -0.2976
  728TMC3     C10829   3.078   3.311   6.810  0.4513 -0.1247  0.3255
  728TMC3     O10830   2.963   3.315   6.849  0.2675  0.4203 -0.0198
  728TMC3     H10831   2.883   3.339   6.634 -1.5492  2.6052 -1.8688
  728TMC3    H110832   3.294   3.421   6.699 -0.1847 -2.7692  1.3738
  728TMC3    H210833   3.112   3.597   6.371 -2.4538  0.4802 -0.1618
  728TMC3    C710834   3.334   3.530   6.481  0.1204  0.1325  0.5084
  728TMC3    C810835   2.856   3.485   6.433 -0.2036  0.6788  0.0320
  728TMC3    O110836   3.432   3.554   6.553 -0.2108  0.2802  0.7709
  728TMC3    O210837   2.767   3.406   6.436 -0.4052  0.0046  0.0837
  729TMC3    C110838   2.176   0.885   7.927 -0.4346 -0.3018 -0.3970
  729TMC3    C210839   2.311   0.855   7.946  0.3619 -0.3394  0.0037
  729TMC3    C310840   2.338   0.741   8.025  0.0739 -0.9157 -0.9270
  729TMC3    C410841   2.081   0.809   7.984  0.0549  0.3146  0.2286
  729TMC3    C510842   2.112   0.706   8.064  0.3657  0.0245  0.7417
  729TMC3    C610843   2.239   0.672   8.086  0.6036 -0.4405 -0.2553
  729TMC3     C10844   2.129   1.006   7.861 -0.0146 -0.2324 -0.0019
  729TMC3     O10845   2.209   1.049   7.776 -0.3490  0.5720  0.1574
  729TMC3     H10846   2.388   0.920   7.906 -0.1151  0.8726  1.0415
  729TMC3    H110847   1.979   0.814   7.948 -0.1856  0.2405  0.8959
  729TMC3    H210848   2.274   0.588   8.146  0.2671 -1.3174 -1.2893
  729TMC3    C710849   2.006   0.629   8.122 -0.3597  0.0865 -0.2289
  729TMC3    C810850   2.468   0.688   8.036  1.0031 -0.5810  0.1477
  729TMC3    O110851   1.904   0.689   8.149 -0.5123  0.8693 -0.0736
  729TMC3    O210852   2.486   0.635   8.144 -0.3074  0.4335  0.3023
  730TMC3    C110853   4.762   1.419   6.894 -0.1533  0.0804 -0.4360
  730TMC3    C210854   0.078   1.520   6.906  0.2879  0.0941  0.1693
  730TMC3    C310855   0.122   1.568   6.780  0.2749 -0.1848  0.4771
  730TMC3    C410856   4.725   1.361   6.786 -0.4811  0.9360 -0.0938
  730TMC3    C510857   0.002   1.408   6.662  0.1457 -0.0453 -0.1465
  730TMC3    C610858   0.093   1.516   6.662  0.2823 -0.1278 -1.0010
  730TMC3     C10859   4.721   1.359   7.019  0.5945 -0.4499  0.3969
  730TMC3     O10860   4.722   1.238   7.017  0.6685  0.6318  0.1978
  730TMC3     H10861   0.108   1.561   7.002  1.3500 -1.6779  0.6018
  730TMC3    H110862   4.660   1.274   6.793  0.6660 -0.0664 -1.8375
  730TMC3    H210863   0.130   1.562   6.571  1.0994  1.7278  0.2646
  730TMC3    C710864   4.746   1.330   6.541 -0.2970 -0.3174  0.1404
  730TMC3    C810865   0.221   1.674   6.774 -0.3964 -0.2028 -0.1885
  730TMC3    O110866   4.757   1.379   6.430 -0.8540  0.5639  0.0339
  730TMC3    O210867   0.230   1.746   6.675  0.1831  0.7036  0.2224
  731TMC3    C110868   3.752   3.660  10.776 -0.0430 -1.0097 -0.5670
  731TMC3    C210869   3.628   3.662  10.826  0.0735 -0.4826 -0.4709
  731TMC3    C310870   3.580   3.748  10.916 -0.3703  0.6772 -0.1252
  731TMC3    C410871   3.832   3.756  10.816  0.3003  0.4527  0.2524
  731TMC3    C510872   3.792   3.843  10.912 -0.2561  0.0685  0.0013
  731TMC3    C610873   3.667   3.844  10.959 -0.4184 -0.4789  0.0208
  731TMC3     C10874   3.821   3.529  10.772  0.4068  0.1367 -0.6551
  731TMC3     O10875   3.934   3.530  10.724 -0.0393 -0.1772  0.2920
  731TMC3     H10876   3.559   3.586  10.793 -1.4410  0.1863  1.1393
  731TMC3    H110877   3.935   3.760  10.782  0.0839  0.1681 -0.4328
  731TMC3    H210878   3.646   3.907  11.045 -0.7417  1.5929 -1.5652
  731TMC3    C710879   3.886   3.925  10.988  0.0515 -0.4199  0.4577
  731TMC3    C810880   3.507   3.669  11.013  0.7785 -0.4532  0.0809
  731TMC3    O110881   3.858   4.041  11.006  0.0003  0.5709 -0.1187
  731TMC3    O210882   3.528   3.544  11.006  0.6002  0.0079 -0.2862
  732TMC3    C110883   4.144   3.875  13.839 -0.3893  0.6025  0.0679
  732TMC3    C210884   4.180   3.791  13.732  0.1627 -0.4272  0.2776
  732TMC3    C310885   4.147   3.660  13.748 -0.4232 -0.4161  0.5421
  732TMC3    C410886   4.062   3.825  13.944  0.2746  0.0267 -0.0127
  732TMC3    C510887   4.028   3.692  13.945  0.0923  0.8029  0.6857
  732TMC3    C610888   4.054   3.607  13.843  0.1284 -0.7550  0.3684
  732TMC3     C10889   4.126   4.012  13.798 -0.2002 -1.1614  0.1607
  732TMC3     O10890   4.203   4.055  13.707  0.1613  0.3666  0.2622
  732TMC3     H10891   4.256   3.820  13.661 -1.1722  2.1170 -0.1051
  732TMC3    H110892   4.049   3.884  14.034 -0.9058  0.2134 -0.2965
  732TMC3    H210893   4.029   3.501  13.840  1.8212 -1.1651  0.5590
  732TMC3    C710894   3.954   3.650  14.061 -0.6432 -0.2377  0.1765
  732TMC3    C810895   4.183   3.570  13.641 -0.4104  0.3364 -0.4488
  732TMC3    O110896   3.977   3.697  14.172 -0.1940 -0.6339  0.5721
  732TMC3    O210897   4.267   3.488  13.674  0.2420 -0.0608 -0.3025
  733TMC3    C110898   2.284   0.501  14.055  0.2863 -0.2923 -0.1021
  733TMC3    C210899   2.370   0.411  14.117  0.3713 -0.3489  0.3788
  733TMC3    C310900   2.321   0.281  14.137 -0.2218 -0.3170  1.1132
  733TMC3    C410901   2.156   0.462  14.029 -0.3879  0.0840  0.4232
  733TMC3    C510902   2.112   0.338  14.061  0.0384  0.1959 -0.6388
  733TMC3    C610903   2.195   0.246  14.121  0.1368  0.6441 -0.2052
  733TMC3     C10904   2.307   0.643  14.051  0.0198  1.0217  0.4373
  733TMC3     O10905   2.204   0.700  14.020  0.5347  0.5878  0.2824
  733TMC3     H10906   2.476   0.430  14.130  0.0364  3.5162 -2.2435
  733TMC3    H110907   2.105   0.529  13.961 -0.6441 -0.3953  0.1387
  733TMC3    H210908   2.155   0.148  14.145  2.5349 -0.4503 -0.7375
  733TMC3    C710909   1.973   0.311  14.064 -0.7240  0.2335 -0.1396
  733TMC3    C810910   2.411   0.165  14.157 -0.4187  0.0183 -0.6734
  733TMC3    O110911   1.944   0.192  14.047 -0.0728  0.3778 -0.1305
  733TMC3    O210912   2.362   0.054  14.154 -0.0819 -0.3126  0.2439
  734TMC3    C110913   0.672   3.757  12.789 -0.7103 -0.4027 -0.3714
  734TMC3    C210914   0.605   3.643  12.746  0.5551 -0.0027 -0.2955
  734TMC3    C310915   0.488   3.662  12.675 -0.3701 -0.4474 -0.0015
  734TMC3    C410916   0.628   3.885  12.766  0.2228  0.0640  0.0524
  734TMC3    C510917   0.520   3.900  12.683 -0.4569 -0.0412  0.3960
  734TMC3    C610918   0.452   3.790  12.639 -0.2549  0.0194  0.2667
  734TMC3     C10919   0.745   3.747  12.916 -0.6787  0.1726 -0.0220
  734TMC3     O10920   0.786   3.856  12.962 -0.5387 -0.2465 -0.5301
  734TMC3     H10921   0.640   3.545  12.777  0.4733  0.5475  1.5393
  734TMC3    H110922   0.662   3.974  12.817  0.6289 -0.5908  0.9084
  734TMC3    H210923   0.361   3.819  12.589 -0.3708 -1.5947 -0.4419
  734TMC3    C710924   0.447   4.021  12.670 -0.2524  0.7080  0.3708
  734TMC3    C810925   0.394   3.553  12.661 -0.8119 -0.8824 -0.1765
  734TMC3    O110926   0.428   4.060  12.553 -0.5130  0.6455  0.1148
  734TMC3    O210927   0.415   3.454  12.730  0.0474  0.5221 -0.1880
  735TMC3    C110928   4.047   1.739  15.078 -0.4666 -0.5888 -0.4221
  735TMC3    C210929   4.115   1.722  15.195  0.6141  0.4039  0.3756
  735TMC3    C310930   4.201   1.615  15.199  0.0483  0.0104 -0.2931
  735TMC3    C410931   4.065   1.656  14.965 -0.4241  0.0569  0.3653
  735TMC3    C510932   4.151   1.549  14.975 -0.2185 -0.1455  0.2750
  735TMC3    C610933   4.212   1.523  15.092 -0.3410  0.3694 -0.3927
  735TMC3     C10934   3.966   1.852  15.052 -0.4295 -0.1169 -0.8718
  735TMC3     O10935   3.861   1.844  14.994  0.0968  0.0546  0.2494
  735TMC3     H10936   4.113   1.783  15.284 -0.6303 -0.9597  1.2826
  735TMC3    H110937   4.006   1.675  14.876 -0.1459 -0.0615  0.1570
  735TMC3    H210938   4.268   1.430  15.099  0.4130  0.9456  1.2070
  735TMC3    C710939   4.195   1.476  14.849  0.3948  0.0225 -0.0032
  735TMC3    C810940   4.274   1.582  15.324 -0.4115 -0.4536  0.2019
  735TMC3    O110941   4.234   1.360  14.851  0.0458 -0.3308  0.6481
  735TMC3    O210942   4.296   1.465  15.344 -0.7602 -1.1381 -0.2844
  736TMC3    C110943   2.088   0.803   9.789  0.1447 -0.6637 -0.0286
  736TMC3    C210944   2.023   0.718   9.860  0.2598 -0.5105 -0.8055
  736TMC3    C310945   1.950   0.618   9.795 -0.3118  0.4903 -0.0557
  736TMC3    C410946   2.091   0.802   9.654  0.6253  0.3359 -0.9809
  736TMC3    C510947   2.022   0.694   9.596 -0.0394  0.2269  0.6016
  736TMC3    C610948   1.944   0.609   9.662 -0.5055 -0.2836  1.2425
  736TMC3     C10949   2.178   0.907   9.856 -0.4579  0.4902  0.1090
  736TMC3     O10950   2.184   0.905   9.978 -0.6593  0.1118 -0.2463
  736TMC3     H10951   2.028   0.726   9.968  0.4909  0.7407 -0.9101
  736TMC3    H110952   2.166   0.845   9.590  0.1902  1.1535 -0.9390
  736TMC3    H210953   1.926   0.508   9.625 -1.4109 -0.3362  1.8239
  736TMC3    C710954   2.001   0.707   9.453 -0.7879 -0.1974  0.4122
  736TMC3    C810955   1.955   0.491   9.872 -0.1101 -0.1448 -0.1994
  736TMC3    O110956   2.093   0.747   9.385 -0.3206  0.0075 -0.1099
  736TMC3    O210957   2.014   0.393   9.825 -0.6887  0.2273 -0.0996
  737TMC3    C110958   2.309   1.615  10.275  0.0178 -0.1386 -0.2265
  737TMC3    C210959   2.290   1.742  10.253  0.4240  0.2982 -0.3416
  737TMC3    C310960   2.169   1.792  10.215 -0.5546  0.3032 -0.2145
  737TMC3    C410961   2.215   1.520  10.240 -1.1512 -0.0185  0.6953
  737TMC3    C510962   2.094   1.568  10.198  0.0873  0.0499 -0.5356
  737TMC3    C610963   2.069   1.700  10.178 -0.2337 -0.3763 -0.2608
  737TMC3     C10964   2.375   1.598  10.404  0.0378  0.7346 -1.0777
  737TMC3     O10965   2.456   1.684  10.436 -0.4224 -0.6461 -0.1960
  737TMC3     H10966   2.356   1.816  10.295  0.4010 -0.2587  0.6604
  737TMC3    H110967   2.242   1.415  10.236 -0.1431  0.3142 -1.4284
  737TMC3    H210968   1.979   1.740  10.132  0.9037  2.6001  0.0448
  737TMC3    C710969   1.986   1.473  10.175  0.5587  0.0969  0.7612
  737TMC3    C810970   2.118   1.926  10.247 -0.5384  0.3682  0.5870
  737TMC3    O110971   1.881   1.522  10.136 -0.3931 -0.5574  0.4714
  737TMC3    O210972   2.194   2.024  10.242 -0.2505  0.0508 -0.3275
  738TMC3    C110973   0.740   3.345   5.569  0.7099  0.1089 -0.1104
  738TMC3    C210974   0.717   3.426   5.669  0.4150  0.5052 -0.9639
  738TMC3    C310975   0.803   3.432   5.777  0.5128  0.0066  1.0080
  738TMC3    C410976   0.857   3.275   5.566 -0.4679  0.0695  0.0672
  738TMC3    C510977   0.934   3.273   5.678 -0.0172 -0.2083  0.6289
  738TMC3    C610978   0.909   3.352   5.784  0.2584  0.4662  0.0153
  738TMC3     C10979   0.622   3.271   5.530  0.5719  0.2619  0.4433
  738TMC3     O10980   0.625   3.201   5.429 -0.5433 -0.0119  0.6922
  738TMC3     H10981   0.634   3.496   5.665  1.0822  1.1948 -3.2135
  738TMC3    H110982   0.869   3.196   5.492 -0.2609  0.9066 -0.7954
  738TMC3    H210983   0.987   3.376   5.856 -0.3537  0.3010  0.7315
  738TMC3    C710984   1.035   3.172   5.688  0.3339 -0.5096  0.5248
  738TMC3    C810985   0.790   3.522   5.889  0.5740 -0.6465  0.3554
  738TMC3    O110986   1.059   3.110   5.581 -0.1261 -0.1460  0.0588
  738TMC3    O210987   0.856   3.494   5.989 -0.7679 -0.1074 -0.6174
  739TMC3    C110988   4.467   3.731  12.700 -0.0846  0.1040  0.0433
  739TMC3    C210989   4.590   3.672  12.710  0.1738 -0.5089  0.1734
  739TMC3    C310990   4.698   3.744  12.670  0.8509  0.0940  0.0173
  739TMC3    C410991   4.450   3.859  12.643 -0.3139 -0.0118 -0.2206
  739TMC3    C510992   4.560   3.932  12.602 -0.0125  0.1396 -0.0808
  739TMC3    C610993   4.684   3.872  12.615  0.1412  0.3024 -0.0545
  739TMC3     C10994   4.359   3.646  12.715  1.4969 -0.6347 -0.5706
  739TMC3     O10995   4.378   3.571  12.808 -0.1893  0.1876 -0.2269
  739TMC3     H10996   4.601   3.587  12.777 -2.2037  0.3734  1.6872
  739TMC3    H110997   4.352   3.904  12.637 -0.3226 -0.1829 -1.3220
  739TMC3    H210998   4.766   3.928  12.571  1.9073 -1.5932  0.8538
  739TMC3    C710999   4.546   4.045  12.515 -0.8322 -0.4020 -0.0079
  739TMC3    C811000   0.052   3.710  12.731 -0.0821 -0.4169  0.0954
  739TMC3    O111001   4.614   4.037  12.413 -0.4144 -0.7100  0.2265
  739TMC3    O211002   0.147   3.785  12.707  0.2017 -0.3455  0.2454
  740TMC3    C111003   3.833   0.102  10.585  0.3432 -0.1524 -0.5620
  740TMC3    C211004   3.895   0.112  10.464 -0.5101 -0.0959  0.3241
  740TMC3    C311005   3.847   0.019  10.369  0.0986 -0.3518 -0.1165
  740TMC3    C411006   3.725   0.026  10.614  0.0295 -0.1669 -0.3782
  740TMC3    C511007   3.693   4.706  10.522 -0.0140  0.4733 -0.6738
  740TMC3    C611008   3.747   4.707  10.394  0.2217 -0.7941  0.2545
  740TMC3     C11009   3.867   0.205  10.682  0.2334  0.9343  0.1201
  740TMC3     O11010   3.849   0.176  10.802  0.2372 -0.3647  0.5219
  740TMC3     H11011   3.975   0.183  10.448 -0.4846 -0.4782 -1.2280
  740TMC3    H111012   3.702   0.024  10.720 -0.7872 -0.5730 -0.5590
  740TMC3    H211013   3.713   4.630  10.327 -2.2251 -0.2540  0.8850
  740TMC3    C711014   3.672   4.571  10.574 -0.6181  0.1499  0.3212
  740TMC3    C811015   3.953   4.737  10.284 -0.3475 -0.8678  0.1003
  740TMC3    O111016   3.602   4.546  10.672 -0.2726  0.1144 -0.0196
  740TMC3    O211017   3.945   4.617  10.272 -0.3558  0.1553  0.3297
  741TMC3    C111018   1.344   2.148  11.895 -0.1600 -0.1109 -0.4233
  741TMC3    C211019   1.452   2.079  11.939  0.2483 -0.8316  0.6743
  741TMC3    C311020   1.552   2.064  11.849 -0.2533  0.3270  0.4792
  741TMC3    C411021   1.348   2.217  11.778 -0.1602  1.0173  0.3104
  741TMC3    C511022   1.450   2.186  11.688  0.0567  0.6646 -0.2574
  741TMC3    C611023   1.554   2.107  11.722  0.1375  0.2311  0.1944
  741TMC3     C11024   1.222   2.149  11.973 -0.5030 -0.3864  0.1021
  741TMC3     O11025   1.224   2.064  12.066 -0.1277  0.1787 -0.9123
  741TMC3     H11026   1.462   2.035  12.038 -0.0651 -0.3157  0.9381
  741TMC3    H111027   1.263   2.268  11.736 -0.3291  1.0287  0.6725
  741TMC3    H211028   1.646   2.104  11.665  1.3551  0.0789  2.1654
  741TMC3    C711029   1.475   2.265  11.572  0.6982  0.7002 -0.3139
  741TMC3    C811030   1.677   2.019  11.896 -0.2007 -0.0954 -0.1456
  741TMC3    O111031   1.546   2.211  11.492  0.3759 -0.5368  0.2810
  741TMC3    O211032   1.718   2.074  11.997 -0.0393 -0.2852  0.2439
  742TMC3    C111033   1.752   0.357   6.872  0.1158  0.1984  0.3687
  742TMC3    C211034   1.770   0.324   6.741  0.0229 -0.0133 -0.0670
  742TMC3    C311035   1.673   0.265   6.666  0.3498 -0.5058 -0.1077
  742TMC3    C411036   1.630   0.332   6.932 -0.6193 -0.0860  0.1168
  742TMC3    C511037   1.542   0.255   6.860 -0.2414  0.9060  0.5053
  742TMC3    C611038   1.558   0.223   6.726 -0.5288 -0.2835  0.1986
  742TMC3     C11039   1.871   0.372   6.961  0.1429 -0.1331  0.0569
  742TMC3     O11040   1.857   0.347   7.078  0.0978  0.5610  0.3708
  742TMC3     H11041   1.871   0.322   6.702 -0.0706 -0.5567 -0.2761
  742TMC3    H111042   1.631   0.364   7.035  0.9684 -2.1230  0.7450
  742TMC3    H211043   1.476   0.176   6.672 -1.3129  1.1251  0.1679
  742TMC3    C711044   1.429   0.199   6.932 -0.1391 -0.3266 -0.1501
  742TMC3    C811045   1.706   0.205   6.541 -0.1689  0.1996  0.0125
  742TMC3    O111046   1.340   0.159   6.860 -0.5959 -0.9851 -0.0850
  742TMC3    O211047   1.647   0.099   6.511  0.2552  0.0820 -0.3637
  743TMC3    C111048   3.140   4.172   8.512  0.5347  0.0632  0.5512
  743TMC3    C211049   3.225   4.231   8.597  0.3495  0.6264 -0.3621
  743TMC3    C311050   3.223   4.369   8.603 -0.8010  0.1113  0.2423
  743TMC3    C411051   3.042   4.232   8.446  0.0774  0.0149  0.0458
  743TMC3    C511052   3.049   4.375   8.449  0.1857  0.3259  0.5652
  743TMC3    C611053   3.130   4.437   8.535  0.5360  0.3755 -0.5056
  743TMC3     C11054   3.174   4.046   8.451  0.1827 -0.1833  0.8499
  743TMC3     O11055   3.125   4.031   8.342 -0.3816 -0.0211  0.5822
  743TMC3     H11056   3.312   4.179   8.636  0.0285  0.9582  0.8020
  743TMC3    H111057   2.983   4.176   8.374  0.0283  1.3302 -0.9476
  743TMC3    H211058   3.138   4.545   8.543 -2.3677  0.2587  3.8603
  743TMC3    C711059   3.044   4.452   8.327  0.4705  0.1875 -0.4209
  743TMC3    C811060   3.241   4.418   8.739  0.3829 -0.1134 -0.2852
  743TMC3    O111061   3.083   4.570   8.312  0.2758 -0.0452 -0.3604
  743TMC3    O211062   3.284   4.530   8.754 -0.0191 -0.4016  0.1971
  744TMC3    C111063   2.920   1.027  14.680  0.3369  0.3700  0.5235
  744TMC3    C211064   2.883   1.010  14.547 -0.0551  0.2719 -0.1828
  744TMC3    C311065   2.846   1.124  14.474 -0.0459  0.0696 -0.2658
  744TMC3    C411066   2.894   1.148  14.742  1.0479 -0.4065  0.0542
  744TMC3    C511067   2.849   1.257  14.671  0.1968  0.8895 -1.0756
  744TMC3    C611068   2.837   1.243  14.532  0.5743  0.3245  0.3012
  744TMC3     C11069   2.880   0.920  14.762 -0.3298  0.3971 -0.0247
  744TMC3     O11070   2.779   0.858  14.738 -0.2372 -0.1964  0.6612
  744TMC3     H11071   2.883   0.910  14.507  0.6074  0.6714 -1.1884
  744TMC3    H111072   2.907   1.146  14.850  1.9652  1.8529 -0.0180
  744TMC3    H211073   2.818   1.331  14.473 -0.5594  0.3980  0.7626
  744TMC3    C711074   2.721   1.287  14.730 -0.4704  1.6798  0.0294
  744TMC3    C811075   2.771   1.123  14.354  0.0291 -0.2487 -0.8308
  744TMC3    O111076   2.687   1.215  14.823 -0.3238  0.5079  0.1456
  744TMC3    O211077   2.757   1.231  14.293  0.5045 -0.8947 -0.1376
  745TMC3    C111078   1.268   0.010   9.627  0.4163 -0.2087 -0.6028
  745TMC3    C211079   1.175   4.685   9.617 -0.4141  0.2931 -0.5206
  745TMC3    C311080   1.044   4.722   9.613 -0.1020  0.4353  0.3766
  745TMC3    C411081   1.235   0.142   9.630  0.1120 -0.0547 -0.0774
  745TMC3    C511082   1.102   0.175   9.606  1.3520 -0.5323  0.2284
  745TMC3    C611083   1.003   0.079   9.591  0.2331 -0.5069  0.4117
  745TMC3     C11084   1.398   4.764   9.571 -0.0930  0.3494  0.8680
  745TMC3     O11085   1.487   0.062   9.609  0.1018  0.0383 -0.3386
  745TMC3     H11086   1.200   4.580   9.611  0.8589  0.5208  1.0396
  745TMC3    H111087   1.313   0.217   9.633 -0.5960  0.6846 -0.2444
  745TMC3    H211088   0.902   0.118   9.597  1.5655  2.5813  2.6031
  745TMC3    C711089   1.065   0.314   9.575  0.1274  0.2662 -0.2744
  745TMC3    C811090   0.939   4.634   9.654  0.6957 -0.1941 -0.7302
  745TMC3    O111091   0.968   0.333   9.503 -0.0262  0.1748  0.0520
  745TMC3    O211092   0.830   4.686   9.640  0.1699 -0.2031  0.4819
  746TMC3    C111093   2.652   1.230  10.269  0.0065  0.1117  0.1556
  746TMC3    C211094   2.653   1.098  10.285 -0.2091 -0.2574  0.3220
  746TMC3    C311095   2.675   1.056  10.415 -0.6075  0.2409 -0.0676
  746TMC3    C411096   2.662   1.321  10.367  0.6121 -0.7341 -0.1514
  746TMC3    C511097   2.680   1.277  10.490  0.1371 -0.0330  0.3769
  746TMC3    C611098   2.693   1.143  10.514  0.2630  0.1205  0.0653
  746TMC3     C11099   2.619   1.274  10.134  0.0087 -1.0870  0.7365
  746TMC3     O11100   2.643   1.388  10.112 -0.5790 -0.3950  0.5035
  746TMC3     H11101   2.669   1.027  10.205  1.6970  0.2935  0.2127
  746TMC3    H111102   2.659   1.428  10.349  0.5087 -0.9202 -1.2128
  746TMC3    H211103   2.709   1.112  10.617 -3.5314  1.7882  1.1538
  746TMC3    C711104   2.742   1.370  10.573 -0.0325 -0.0171  0.5100
  746TMC3    C811105   2.703   0.913  10.452 -0.0726  0.0246  0.5772
  746TMC3    O111106   2.796   1.468  10.520 -0.2865  0.2862 -0.2434
  746TMC3    O211107   2.735   0.887  10.567  0.2446  0.7632 -0.4907
  747TMC3    C111108   4.328   2.830   8.191  0.3398  0.7466  0.5640
  747TMC3    C211109   4.311   2.923   8.291  0.3505 -0.2724  0.6200
  747TMC3    C311110   4.198   2.913   8.367 -0.3613  0.4098 -0.1195
  747TMC3    C411111   4.245   2.719   8.174 -0.1223  0.4378 -0.6733
  747TMC3    C511112   4.138   2.712   8.257 -0.1374  0.3239  0.5528
  747TMC3    C611113   4.115   2.807   8.351  0.7470  0.0410  0.3456
  747TMC3     C11114   4.458   2.827   8.126  0.5444 -0.5073 -0.0896
  747TMC3     O11115   4.505   2.936   8.086 -0.0891  0.2035 -0.0397
  747TMC3     H11116   4.386   2.998   8.316 -0.5892 -0.1032  2.9264
  747TMC3    H111117   4.256   2.633   8.109  0.5462 -0.4851  0.6544
  747TMC3    H211118   4.025   2.809   8.411  0.1089  0.4879 -0.6300
  747TMC3    C711119   4.034   2.622   8.220  0.1155  0.1069 -0.0705
  747TMC3    C811120   4.172   3.003   8.482  0.3818  0.3110 -0.0358
  747TMC3    O111121   4.018   2.583   8.107  0.3700  0.4195  0.4647
  747TMC3    O211122   4.063   3.018   8.535  0.2414 -0.6220 -0.2992
  748TMC3    C111123   0.466   2.613  14.528  0.4469  0.0343  0.6020
  748TMC3    C211124   0.604   2.618  14.511 -0.3617 -0.1812 -0.7650
  748TMC3    C311125   0.684   2.643  14.620 -0.3162  0.6798  0.3451
  748TMC3    C411126   0.407   2.610  14.650  0.5272  0.5388  0.1049
  748TMC3    C511127   0.492   2.636  14.754 -0.6215 -0.1780  0.1121
  748TMC3    C611128   0.625   2.662  14.744 -0.7591 -0.0109 -0.3303
  748TMC3     C11129   0.378   2.625  14.416 -0.2309 -0.2459 -0.0551
  748TMC3     O11130   0.254   2.623  14.438  0.1817 -0.5893  0.6140
  748TMC3     H11131   0.647   2.605  14.412  1.4545 -0.4434  0.0589
  748TMC3    H111132   0.304   2.580  14.670  1.1021  0.3916  2.8129
  748TMC3    H211133   0.683   2.685  14.833  1.2402 -0.4761 -1.5124
  748TMC3    C711134   0.447   2.621  14.888 -0.2151 -0.4064 -0.0384
  748TMC3    C811135   0.832   2.639  14.618  0.3831  0.3274 -0.4053
  748TMC3    O111136   0.531   2.583  14.970 -0.6371 -0.2097  0.0291
  748TMC3    O211137   0.887   2.641  14.727 -1.1387  0.0420  0.2408
  749TMC3    C111138   4.770   1.963  13.372 -0.0776  0.0892  0.7464
  749TMC3    C211139   0.055   1.962  13.247 -0.3649  0.5660  0.4351
  749TMC3    C311140   0.151   1.873  13.234 -0.1570 -0.0216 -0.2286
  749TMC3    C411141   0.024   1.879  13.475 -0.1007  0.9421  0.4174
  749TMC3    C511142   0.131   1.795  13.457 -0.4536  0.0915  0.4939
  749TMC3    C611143   0.198   1.787  13.339  0.3751 -0.2748 -0.0080
  749TMC3     C11144   4.696   2.082  13.410 -0.0121  0.2301 -0.1151
  749TMC3     O11145   4.593   2.061  13.479 -0.0227  0.5902  0.0012
  749TMC3     H11146   0.038   2.036  13.170  0.9644  0.8593  0.4260
  749TMC3    H111147   4.755   1.891  13.573 -2.8712  0.7381 -0.8450
  749TMC3    H211148   0.269   1.707  13.325  0.0772 -0.4521 -0.5142
  749TMC3    C711149   0.149   1.685  13.549 -0.1815  0.3353  0.1471
  749TMC3    C811150   0.187   1.824  13.097 -0.2253 -0.3551  0.6966
  749TMC3    O111151   0.208   1.588  13.510 -0.2323 -0.1161 -0.3723
  749TMC3    O211152   0.260   1.724  13.095  0.1016  0.3624 -0.2962
  750TMC3    C111153   3.598   4.106  11.336 -0.6635  0.3130  0.3223
  750TMC3    C211154   3.649   3.981  11.342 -0.0255 -0.0990  0.7562
  750TMC3    C311155   3.786   3.964  11.369 -0.2945 -0.4798 -0.0791
  750TMC3    C411156   3.666   4.220  11.368  0.6600  0.1550  0.1752
  750TMC3    C511157   3.803   4.200  11.383  0.5322  0.2124 -0.4417
  750TMC3    C611158   3.862   4.078  11.389  0.0577  0.0742 -0.3265
  750TMC3     C11159   3.482   4.116  11.253 -0.7007  0.4739  0.3066
  750TMC3     O11160   3.477   4.037  11.159 -0.5580  0.1940  0.1477
  750TMC3     H11161   3.579   3.901  11.320 -0.8312  0.1241  2.4930
  750TMC3    H111162   3.628   4.320  11.352  1.3075  0.4008  0.2052
  750TMC3    H211163   3.968   4.079  11.411 -0.0418  0.6120  0.1375
  750TMC3    C711164   3.885   4.306  11.439  0.1614  0.2013  0.6407
  750TMC3    C811165   3.846   3.836  11.419  0.2766  0.3153  0.6958
  750TMC3    O111166   3.952   4.277  11.538  0.3716 -0.2703  0.0072
  750TMC3    O211167   3.797   3.746  11.349 -0.0528 -0.3261 -0.4288
  751TMC3    C111168   4.522   4.036  13.396  0.4715 -0.2874  0.2066
  751TMC3    C211169   4.429   4.119  13.353 -0.4360  0.0789  0.0458
  751TMC3    C311170   4.413   4.124  13.218  0.1802  0.2247 -0.2159
  751TMC3    C411171   4.609   3.973  13.311 -0.1311 -0.1282  0.1113
  751TMC3    C511172   4.594   3.998  13.178 -0.2634 -0.1609  0.4668
  751TMC3    C611173   4.492   4.065  13.125 -0.2011 -0.1559  0.1321
  751TMC3     C11174   4.547   4.012  13.538 -0.8860 -0.3710 -0.6054
  751TMC3     O11175   4.576   4.109  13.610  0.3287 -0.0202  0.0042
  751TMC3     H11176   4.360   4.159  13.426  1.2035  1.2392  0.9622
  751TMC3    H111177   4.689   3.907  13.344 -0.0742  0.1752  0.5845
  751TMC3    H211178   4.477   4.075  13.018 -1.7846  0.1244  0.3723
  751TMC3    C711179   4.719   3.991  13.099 -0.1790 -0.1528 -0.1685
  751TMC3    C811180   4.309   4.217  13.176  0.4675 -0.1970  0.3917
  751TMC3    O111181   0.035   3.922  13.139  0.3324 -0.1491 -0.0973
  751TMC3    O211182   4.304   4.228  13.056 -0.6999  0.5665  0.2224
  752TMC3    C111183   1.337   4.274   8.887 -0.3326  0.3801  0.5992
  752TMC3    C211184   1.374   4.311   8.759 -0.5866 -0.5354 -0.0568
  752TMC3    C311185   1.515   4.304   8.727 -0.2684 -1.0749 -0.1770
  752TMC3    C411186   1.428   4.219   8.977  0.3127  0.2544 -0.6299
  752TMC3    C511187   1.565   4.234   8.952  0.2878  0.7669 -1.0963
  752TMC3    C611188   1.611   4.272   8.826 -0.1339  0.2669  0.8379
  752TMC3     C11189   1.246   4.370   8.949 -0.3148  0.0807  0.0759
  752TMC3     O11190   1.274   4.395   9.065 -0.2310 -0.3726  0.6263
  752TMC3     H11191   1.311   4.371   8.694  0.0771  1.0371  0.7520
  752TMC3    H111192   1.384   4.187   9.070  0.0700 -0.2346 -0.9115
  752TMC3    H211193   1.718   4.267   8.809 -0.8967 -0.0883 -4.1391
  752TMC3    C711194   1.639   4.305   9.054  0.1682 -0.6887 -0.3799
  752TMC3    C811195   1.549   4.362   8.600  0.2163 -0.8067  0.9114
  752TMC3    O111196   1.754   4.335   9.030 -0.6194  0.3690 -0.0012
  752TMC3    O211197   1.454   4.377   8.527 -0.1087  0.0226  0.2966
  753TMC3    C111198   4.413   2.664   6.725 -0.0626  0.0499  0.6106
  753TMC3    C211199   4.409   2.760   6.621  0.0137  0.0105 -0.1728
  753TMC3    C311200   4.522   2.779   6.548 -0.2940  0.5098  0.2967
  753TMC3    C411201   4.524   2.589   6.748  0.4164 -0.8790  0.3532
  753TMC3    C511202   4.637   2.618   6.681 -0.2056  0.0837 -0.1332
  753TMC3    C611203   4.642   2.722   6.585  0.1260  0.5504  0.7682
  753TMC3     C11204   4.352   2.700   6.851  0.5630  0.1258 -0.0094
  753TMC3     O11205   4.395   2.641   6.950 -0.4242  0.3551 -0.1739
  753TMC3     H11206   4.328   2.831   6.606 -0.7273 -0.5655  1.0952
  753TMC3    H111207   4.532   2.513   6.825 -1.1184 -2.5500 -1.1234
  753TMC3    H211208   4.736   2.737   6.533 -1.7308  0.0515 -2.7623
  753TMC3    C711209   4.761   2.580   6.743  0.6073  0.7054 -0.1605
  753TMC3    C811210   4.486   2.762   6.408  1.0275  0.0394 -0.8119
  753TMC3    O111211   0.005   2.461   6.772 -0.3229 -0.1391 -0.4464
  753TMC3    O211212   4.549   2.823   6.323  0.0799 -0.5348  0.1594
  754TMC3    C111213   1.497   3.055  11.747 -0.5991  0.3050 -1.1154
  754TMC3    C211214   1.442   3.171  11.693  0.4135 -0.5468 -0.5162
  754TMC3    C311215   1.302   3.182  11.682 -0.2985 -0.3851  0.0476
  754TMC3    C411216   1.418   2.945  11.772  0.4728 -0.3751  0.0340
  754TMC3    C511217   1.283   2.966  11.759 -0.6765  0.1318 -0.7370
  754TMC3    C611218   1.224   3.074  11.701 -0.2787  0.2327  0.2178
  754TMC3     C11219   1.636   3.051  11.792 -0.0193 -0.2555 -0.0028
  754TMC3     O11220   1.673   2.941  11.823  0.0464 -0.3946 -0.1177
  754TMC3     H11221   1.508   3.254  11.670 -2.7050  1.8914 -0.6630
  754TMC3    H111222   1.450   2.853  11.819  0.8724 -0.4087 -0.3037
  754TMC3    H211223   1.120   3.076  11.670 -0.7343 -0.8358  1.6609
  754TMC3    C711224   1.198   2.865  11.818  0.3354 -0.7832  0.0354
  754TMC3    C811225   1.269   3.246  11.556 -0.4417 -0.1214  0.4580
  754TMC3    O111226   1.247   2.757  11.826 -0.1989  0.3757 -0.0432
  754TMC3    O211227   1.362   3.285  11.486  0.1760  0.0121  0.1684
  755TMC3    C111228   0.976   1.354   8.869  0.5346 -0.2544  0.3421
  755TMC3    C211229   0.842   1.332   8.839  0.5138 -0.5511 -0.4321
  755TMC3    C311230   0.818   1.296   8.706  0.0993 -0.6214  0.8058
  755TMC3    C411231   1.072   1.373   8.774  0.1760 -0.8353  0.1641
  755TMC3    C511232   1.034   1.350   8.643  0.2209  0.1862  0.5140
  755TMC3    C611233   0.912   1.318   8.608 -0.1607  0.2423 -0.2431
  755TMC3     C11234   1.016   1.354   9.004 -0.4751  0.2881  0.1803
  755TMC3     O11235   1.130   1.311   9.016 -0.2877  0.5300  0.3277
  755TMC3     H11236   0.778   1.294   8.918 -2.2465  0.7396 -2.0450
  755TMC3    H111237   1.171   1.402   8.807  0.0310 -1.7856  1.4626
  755TMC3    H211238   0.898   1.283   8.507  0.2985  0.4933 -0.3928
  755TMC3    C711239   1.138   1.333   8.548  0.6945 -0.3487  0.1766
  755TMC3    C811240   0.682   1.255   8.680 -0.9719 -0.2532 -0.2563
  755TMC3    O111241   1.103   1.328   8.427 -0.1260 -0.1677  0.7116
  755TMC3    O211242   0.627   1.196   8.772  0.0969  0.1450  0.5815
  756TMC3    C111243   2.940   1.345  13.002  0.2188 -0.1992  0.5761
  756TMC3    C211244   2.943   1.312  12.869  0.3527  0.0568 -0.3498
  756TMC3    C311245   3.056   1.267  12.808 -0.0189 -0.6376 -0.4903
  756TMC3    C411246   3.063   1.336  13.067  0.0845  0.6804 -1.2969
  756TMC3    C511247   3.180   1.299  12.997 -0.3624 -0.0460  0.2018
  756TMC3    C611248   3.182   1.251  12.870 -0.7428 -0.2172 -0.4171
  756TMC3     C11249   2.817   1.309  13.076 -0.4405 -0.2667 -0.2282
  756TMC3     O11250   2.711   1.301  13.011 -0.2584  0.0482  0.4188
  756TMC3     H11251   2.852   1.318  12.810  1.5111  0.9191 -2.0518
  756TMC3    H111252   3.066   1.359  13.173  1.0083 -0.3955 -1.0896
  756TMC3    H211253   3.266   1.213  12.812  0.6259 -0.0965  1.4876
  756TMC3    C711254   3.296   1.257  13.063 -0.2946  0.5900  0.0930
  756TMC3    C811255   3.019   1.175  12.697 -0.6930  0.3325  0.2975
  756TMC3    O111256   3.349   1.158  13.014  0.0171 -0.0643 -0.3916
  756TMC3    O211257   2.910   1.189  12.642 -0.6367  0.0545 -0.1215
  757TMC3    C111258   1.962   1.313  11.421  0.7804  0.3468  0.4597
  757TMC3    C211259   2.027   1.431  11.437 -0.3759  0.4679  0.5655
  757TMC3    C311260   2.136   1.433  11.520  1.2624 -0.3265  0.0377
  757TMC3    C411261   1.997   1.204  11.485 -0.3478  0.1579  0.4646
  757TMC3    C511262   2.108   1.205  11.568 -0.2893  0.0316  0.0432
  757TMC3    C611263   2.177   1.318  11.584 -0.3657 -0.4208 -0.1005
  757TMC3     C11264   1.825   1.316  11.380 -0.5300 -1.0969 -0.3333
  757TMC3     O11265   1.746   1.265  11.455 -0.4039  0.3488  0.2015
  757TMC3     H11266   2.003   1.517  11.376  0.5248 -0.2021 -0.7572
  757TMC3    H111267   1.947   1.113  11.454 -0.7464  0.5367 -0.0117
  757TMC3    H211268   2.264   1.319  11.648 -0.1784  0.1947 -0.3639
  757TMC3    C711269   2.108   1.103  11.678  0.5511 -0.0158 -0.4022
  757TMC3    C811270   2.142   1.546  11.603  0.0889 -0.2924 -1.2438
  757TMC3    O111271   2.027   1.011  11.679  0.5157 -0.0991  0.4604
  757TMC3    O211272   2.254   1.556  11.653 -0.6547  0.3814 -0.2228
  758TMC3    C111273   4.172   2.318  12.940 -0.5328 -0.0252 -0.4016
  758TMC3    C211274   4.181   2.285  12.804 -0.4741 -0.6331 -0.2909
  758TMC3    C311275   4.089   2.351  12.726  0.3148  0.1712 -0.4336
  758TMC3    C411276   4.082   2.407  12.994 -0.1174 -0.0006  0.2637
  758TMC3    C511277   3.995   2.459  12.908 -0.1784  0.3883 -0.1530
  758TMC3    C611278   3.993   2.436  12.773  0.0061 -0.1095 -0.9049
  758TMC3     C11279   4.223   2.225  13.042  0.2525  0.1634 -0.2065
  758TMC3     O11280   4.173   2.220  13.154 -0.0357  0.7492 -0.0789
  758TMC3     H11281   4.262   2.223  12.766 -1.9871 -0.9946 -2.9356
  758TMC3    H111282   4.070   2.425  13.100 -1.8057  1.1967 -0.1387
  758TMC3    H211283   3.920   2.489  12.712 -1.9784 -2.6066 -0.7006
  758TMC3    C711284   3.882   2.542  12.943  0.1691 -0.1027 -0.1346
  758TMC3    C811285   4.081   2.308  12.588  0.6030 -0.0331 -0.3743
  758TMC3    O111286   3.838   2.611  12.852  0.2876  1.0049  0.0260
  758TMC3    O211287   4.146   2.209  12.569 -0.0694  0.8156  0.2944
  759TMC3    C111288   0.117   0.912  13.035 -0.6045  0.4298 -0.3632
  759TMC3    C211289   4.773   0.854  13.008 -0.4591 -0.1160  0.1826
  759TMC3    C311290   4.774   0.745  12.925 -0.1244 -0.7002 -0.9296
  759TMC3    C411291   0.233   0.866  12.985 -0.3751 -0.7196 -0.3624
  759TMC3    C511292   0.234   0.766  12.890 -0.1096  0.2435  1.0451
  759TMC3    C611293   0.116   0.708  12.854 -0.7766  1.1579 -0.8017
  759TMC3     C11294   0.115   1.055  13.055  0.0522  0.2211  0.2337
  759TMC3     O11295   0.196   1.124  12.994 -0.1600  0.0871  0.0096
  759TMC3     H11296   4.678   0.900  13.035  1.7514  2.2982  3.7677
  759TMC3    H111297   0.323   0.917  13.016 -0.1084 -1.6225  0.3576
  759TMC3    H211298   0.114   0.610  12.807 -2.0048  1.0712 -0.5652
  759TMC3    C711299   0.354   0.732  12.813 -0.3562  0.0870 -0.0164
  759TMC3    C811300   4.646   0.687  12.892  0.0898 -0.2464  0.9597
  759TMC3    O111301   0.435   0.822  12.821  0.5466  0.1909 -0.0397
  759TMC3    O211302   4.549   0.704  12.963 -0.1756 -0.1984 -0.2001
  760TMC3    C111303   4.757   2.692   7.142  0.4375 -0.0106 -0.1584
  760TMC3    C211304   4.680   2.767   7.056 -0.0580  0.2315 -0.9443
  760TMC3    C311305   4.681   2.902   7.063 -0.2226  0.1416  0.0518
  760TMC3    C411306   0.054   2.746   7.243  0.5432 -0.2632 -1.1054
  760TMC3    C511307   0.045   2.883   7.258  0.5457 -0.1886 -0.5759
  760TMC3    C611308   4.768   2.957   7.159 -0.7577 -0.6948 -0.4348
  760TMC3     C11309   4.739   2.548   7.160 -0.5833  0.6273  0.1708
  760TMC3     O11310   0.043   2.488   7.238  0.1462  0.2094 -0.3002
  760TMC3     H11311   4.626   2.721   6.974  2.3494 -0.2751 -2.2750
  760TMC3    H111312   0.114   2.692   7.316 -1.0045  2.3853  2.0897
  760TMC3    H211313   4.750   3.062   7.178  0.3459 -0.8388  1.3753
  760TMC3    C711314   0.130   2.941   7.364  0.2805  0.2309 -0.1677
  760TMC3    C811315   4.680   2.967   6.935 -0.1267 -0.2722 -0.2940
  760TMC3    O111316   0.238   2.885   7.377  0.4796  0.1450  0.6314
  760TMC3    O211317   4.617   2.921   6.844  0.8396 -0.0778 -0.4210
  761TMC3    C111318   2.953   2.772  14.876  1.3376  0.7360 -0.5665
  761TMC3    C211319   2.986   2.684  14.974 -0.2965  0.6388  0.0810
  761TMC3    C311320   3.019   2.553  14.938  0.1454  0.4386  0.9427
  761TMC3    C411321   2.978   2.741  14.748  0.1587  0.3414 -0.0745
  761TMC3    C511322   3.020   2.615  14.719 -0.1817 -0.2567  0.2150
  761TMC3    C611323   3.045   2.519  14.812 -0.3460 -1.1867  0.5248
  761TMC3     C11324   2.868   2.883  14.904 -0.1293  0.2051  0.0720
  761TMC3     O11325   2.852   2.963  14.817 -0.1354  0.0301 -0.4317
  761TMC3     H11326   2.984   2.710  15.080 -1.1339  1.9850 -0.2671
  761TMC3    H111327   2.957   2.812  14.669 -0.6482  0.6915  0.4496
  761TMC3    H211328   3.081   2.420  14.785  0.3319 -1.4268  2.2687
  761TMC3    C711329   3.059   2.572  14.586 -0.4553 -0.1701  0.0394
  761TMC3    C811330   3.034   2.458  15.046  0.3819 -0.6959  0.1608
  761TMC3    O111331   3.131   2.471  14.576 -0.2209 -0.1645 -0.6133
  761TMC3    O211332   3.051   2.492  15.162 -0.1813  0.2237 -0.2533
  762TMC3    C111333   4.028   1.174   9.818 -0.3883  0.3456  0.1369
  762TMC3    C211334   3.913   1.222   9.878 -0.3657  0.3664  0.3437
  762TMC3    C311335   3.863   1.343   9.834 -0.5184  0.2978 -0.2003
  762TMC3    C411336   4.082   1.234   9.704 -0.0534 -0.0310 -0.6835
  762TMC3    C511337   4.020   1.353   9.656  0.3371 -0.3041  0.1795
  762TMC3    C611338   3.910   1.409   9.720  0.3019  0.3432  0.0150
  762TMC3     C11339   4.069   1.044   9.837  0.3567 -0.0975  0.3663
  762TMC3     O11340   4.141   0.992   9.755 -0.0394 -0.3109 -0.5177
  762TMC3     H11341   3.842   1.157   9.927  0.3437  1.1173  2.3712
  762TMC3    H111342   4.170   1.191   9.657  0.4528 -1.0003  1.1719
  762TMC3    H211343   3.846   1.486   9.679  1.9030  2.8174  2.2371
  762TMC3    C711344   4.084   1.438   9.559 -0.4322  0.2359  0.1105
  762TMC3    C811345   3.745   1.396   9.904  0.3222  0.5706 -0.2645
  762TMC3    O111346   4.010   1.516   9.501  0.4162 -0.3949 -0.1368
  762TMC3    O211347   3.674   1.483   9.857 -0.0450  0.0841  0.0272
  763TMC3    C111348   1.097   3.869  14.794  0.2641  0.3158  0.3248
  763TMC3    C211349   1.031   3.759  14.737 -0.9641 -0.9012 -0.2903
  763TMC3    C311350   1.007   3.763  14.600  0.4875  0.2974 -0.7652
  763TMC3    C411351   1.168   3.957  14.710 -0.7461  0.2640 -0.0381
  763TMC3    C511352   1.153   3.942  14.575 -0.1470 -0.2410  0.2191
  763TMC3    C611353   1.068   3.854  14.516 -0.5475 -0.2809  0.0865
  763TMC3     C11354   1.014   3.939  14.892 -0.3049 -0.4964  0.1024
  763TMC3     O11355   1.031   4.059  14.896  0.3499  0.5647 -0.0401
  763TMC3     H11356   0.972   3.692  14.798  2.2751 -2.3229  1.2951
  763TMC3    H111357   1.207   4.041  14.767 -0.1373  2.0535 -3.1393
  763TMC3    H211358   1.057   3.851  14.408 -1.4343 -1.5393  0.2171
  763TMC3    C711359   1.202   4.045  14.483  0.0786  0.0457 -0.2102
  763TMC3    C811360   0.872   3.735  14.567 -0.2791  0.6880 -0.4944
  763TMC3    O111361   1.160   4.041  14.370 -1.0011 -0.7270 -0.1782
  763TMC3    O211362   0.813   3.845  14.554  0.1651  0.2477  0.1220
  764TMC3    C111363   2.550   1.875   7.775 -0.7895 -0.2511  0.0044
  764TMC3    C211364   2.601   1.752   7.778  0.4227  0.6534 -1.0147
  764TMC3    C311365   2.628   1.683   7.659  0.0588  0.6124  0.4653
  764TMC3    C411366   2.535   1.938   7.658 -0.3249  0.3831  0.2735
  764TMC3    C511367   2.570   1.880   7.538  0.0635  0.1754 -0.2146
  764TMC3    C611368   2.618   1.752   7.537 -0.4511  0.2288  0.2401
  764TMC3     C11369   2.539   1.942   7.905  0.0777  0.5067 -0.0507
  764TMC3     O11370   2.598   1.894   7.996 -0.8242 -0.2014  0.1833
  764TMC3     H11371   2.616   1.710   7.877 -0.7622  0.8579 -0.7521
  764TMC3    H111372   2.502   2.041   7.653  2.0091  1.2289  1.9138
  764TMC3    H211373   2.642   1.690   7.451  0.3946 -1.6784  1.8643
  764TMC3    C711374   2.556   1.955   7.419  0.3185  0.3492  0.6821
  764TMC3    C811375   2.690   1.559   7.665  0.2456 -0.0210  0.1234
  764TMC3    O111376   2.482   2.055   7.426  0.1649  0.3980 -0.4041
  764TMC3    O211377   2.754   1.536   7.562 -0.3520  0.1069 -0.3621
  765TMC3    C111378   0.510   1.226  12.617 -0.1523 -0.0357 -0.0469
  765TMC3    C211379   0.447   1.348  12.623 -0.1402  0.0132 -0.5453
  765TMC3    C311380   0.316   1.346  12.661  0.0250 -0.4325 -0.0615
  765TMC3    C411381   0.441   1.114  12.651  0.2713 -0.4820  0.3045
  765TMC3    C511382   0.309   1.121  12.692 -0.3922 -0.2409 -1.1588
  765TMC3    C611383   0.250   1.236  12.705 -0.1866 -1.2107 -0.0407
  765TMC3     C11384   0.603   1.208  12.510 -0.5890 -0.3312  0.0606
  765TMC3     O11385   0.609   1.302  12.433  0.0715 -0.9154 -0.6249
  765TMC3     H11386   0.500   1.439  12.595  1.2072 -0.1511  1.4828
  765TMC3    H111387   0.476   1.012  12.635  1.6327  0.1544 -0.8943
  765TMC3    H211388   0.142   1.241  12.699 -0.1994 -1.3836  0.0311
  765TMC3    C711389   0.226   1.025  12.615  0.4050  0.3358 -0.3490
  765TMC3    C811390   0.254   1.463  12.722  0.2448 -0.4428 -0.9613
  765TMC3    O111391   0.289   0.975  12.525  0.4565  0.2819 -0.2164
  765TMC3    O211392   0.193   1.444  12.827 -0.2098  0.4630 -0.5126
  766TMC3    C111393   3.342   2.185  13.810 -0.1717  0.5900 -0.2311
  766TMC3    C211394   3.312   2.284  13.899 -0.0823 -0.1391  0.4670
  766TMC3    C311395   3.317   2.249  14.033 -0.4217 -0.6411 -0.1079
  766TMC3    C411396   3.370   2.051  13.846  0.0391  0.5765  0.0457
  766TMC3    C511397   3.388   2.038  13.986 -0.0022  0.3589  0.4975
  766TMC3    C611398   3.357   2.131  14.080 -0.1350  0.4802 -0.5008
  766TMC3     C11399   3.338   2.229  13.669  0.3350  0.5029 -0.1932
  766TMC3     O11400   3.288   2.334  13.634 -0.3357  0.2214 -0.0709
  766TMC3     H11401   3.271   2.380  13.870 -1.3535 -0.7924  0.0676
  766TMC3    H111402   3.377   1.970  13.774  0.7669 -0.7825  1.6551
  766TMC3    H211403   3.329   2.099  14.180  1.0921  0.3438 -0.1961
  766TMC3    C711404   3.420   1.904  14.033 -0.2212 -0.9511 -0.2216
  766TMC3    C811405   3.275   2.345  14.131  0.3948  0.3613  0.6147
  766TMC3    O111406   3.375   1.809  13.970 -0.3702  0.0290 -0.4228
  766TMC3    O211407   3.301   2.321  14.250  0.2587  0.2524  0.0344
  767TMC3    C111408   1.788   1.047   8.904 -0.1173  0.0708  0.7632
  767TMC3    C211409   1.906   1.011   8.841  0.0251  0.0112  0.2465
  767TMC3    C311410   2.022   1.002   8.919  0.2651 -0.2600 -1.1552
  767TMC3    C411411   1.783   1.063   9.040 -0.1708  0.2888 -0.3467
  767TMC3    C511412   1.898   1.045   9.110 -0.6813 -1.0157 -0.1231
  767TMC3    C611413   2.016   1.014   9.053 -0.5987 -0.7136  0.1579
  767TMC3     C11414   1.673   1.087   8.827  0.6748  0.6329  0.0200
  767TMC3     O11415   1.576   1.134   8.886 -0.4804  0.0224 -0.5278
  767TMC3     H11416   1.919   0.996   8.734 -0.2298 -0.7413  0.3275
  767TMC3    H111417   1.688   1.098   9.080  0.6236  1.9529  0.1163
  767TMC3    H211418   2.103   0.993   9.114  0.0568  0.1744 -0.4666
  767TMC3    C711419   1.885   1.041   9.252 -0.6266  0.4637 -0.6958
  767TMC3    C811420   2.150   0.997   8.853 -0.0425 -0.1061 -0.0355
  767TMC3    O111421   1.993   1.054   9.313 -0.0404  0.1709  0.0187
  767TMC3    O211422   2.240   0.957   8.923  1.0085  0.4380  0.1468
  768TMC3    C111423   4.760   3.266   6.227  0.7327  0.3104  0.2405
  768TMC3    C211424   0.020   3.230   6.098  0.5486  0.1228 -0.2112
  768TMC3    C311425   4.704   3.243   5.996 -0.4656 -0.4101 -0.2064
  768TMC3    C411426   4.632   3.316   6.255  0.0581  0.4889  0.0465
  768TMC3    C511427   4.546   3.337   6.151  0.0721  0.1539  0.1905
  768TMC3    C611428   4.577   3.291   6.023  0.1622  0.1536  0.3758
  768TMC3     C11429   0.070   3.225   6.338 -0.1903 -0.3651 -0.3848
  768TMC3     O11430   0.189   3.200   6.315 -0.6758 -0.3304 -1.0553
  768TMC3     H11431   0.110   3.173   6.075 -1.3076 -1.7690 -2.6935
  768TMC3    H111432   4.589   3.327   6.354  2.1895 -0.1108  1.0518
  768TMC3    H211433   4.495   3.284   5.952 -0.6593 -0.0087  1.3372
  768TMC3    C711434   4.424   3.417   6.157 -0.1124  0.2030  0.5032
  768TMC3    C811435   4.736   3.220   5.854  0.1023  0.5478  0.3427
  768TMC3    O111436   4.347   3.432   6.059  0.9395  0.2342 -0.3911
  768TMC3    O211437   4.653   3.193   5.772 -0.1278  0.0255 -0.3199
  769TMC3    C111438   4.754   4.235  14.213  0.2033 -0.7149 -0.7089
  769TMC3    C211439   4.740   4.120  14.285  0.3882 -0.7148  0.3708
  769TMC3    C311440   0.033   4.007  14.242 -0.6616 -0.4789  1.3242
  769TMC3    C411441   0.046   4.232  14.096  0.5871 -0.1474  0.2597
  769TMC3    C511442   0.114   4.120  14.055  0.3706 -0.1394  0.1628
  769TMC3    C611443   0.102   4.001  14.127 -0.0360 -0.2970 -0.4092
  769TMC3     C11444   4.703   4.365  14.248 -0.5922  0.2244 -0.0596
  769TMC3     O11445   4.677   4.443  14.158  0.5540 -0.1074 -0.4545
  769TMC3     H11446   4.710   4.112  14.389 -1.9423  0.6377 -0.2045
  769TMC3    H111447   0.051   4.326  14.042 -2.9119 -1.6289 -2.5906
  769TMC3    H211448   0.154   3.909  14.103  1.0389  0.1232  0.3147
  769TMC3    C711449   0.118   4.109  13.912  0.3407  0.0497 -0.2463
  769TMC3    C811450   4.729   3.885  14.267 -0.1452 -0.1837  1.3253
  769TMC3    O111451   0.072   4.202  13.842 -0.1722 -0.4798  0.6754
  769TMC3    O211452   4.773   3.780  14.223 -0.5085 -0.0484 -0.6441
  770TMC3    C111453   0.583   2.287  15.631  0.4060  0.1800  0.5668
  770TMC3    C211454   0.684   2.197  15.657 -0.3792  0.6490 -0.3441
  770TMC3    C311455   0.699   2.094  15.565  0.2015  0.9020 -0.2273
  770TMC3    C411456   0.509   2.290  15.516  0.1221  0.3912 -0.2807
  770TMC3    C511457   0.547   2.207  15.422 -0.4755 -0.4847  0.3446
  770TMC3    C611458   0.641   2.107  15.435 -0.1262 -0.7456  1.0258
  770TMC3     C11459   0.564   2.409  15.712  0.3979  0.2112 -0.1763
  770TMC3     O11460   0.542   2.394  15.834  0.2492  0.1483  0.2448
  770TMC3     H11461   0.745   2.203  15.746 -1.2847 -0.4142  0.3584
  770TMC3    H111462   0.419   2.350  15.503 -1.3689 -2.0643 -1.3197
  770TMC3    H211463   0.645   2.018  15.373 -0.3398  0.1694 -0.2951
  770TMC3    C711464   0.463   2.192  15.308  0.4922 -0.2161  0.5514
  770TMC3    C811465   0.746   1.964  15.608  0.8122 -0.3354  0.2744
  770TMC3    O111466   0.342   2.207  15.306  0.3843  0.4248  0.1031
  770TMC3    O211467   0.765   1.891  15.510 -0.6120  0.2661 -0.2412
  771TMC3    C111468   2.016   1.012  13.047  0.0067 -0.4070  0.2848
  771TMC3    C211469   2.068   1.115  12.982  0.9074 -0.1422 -0.2732
  771TMC3    C311470   1.989   1.197  12.903  0.0986 -0.1501 -0.0776
  771TMC3    C411471   1.885   0.974  13.024 -0.0118  0.3316 -0.4325
  771TMC3    C511472   1.809   1.056  12.943 -0.0113 -0.3614  0.0076
  771TMC3    C611473   1.849   1.168  12.881  0.4130 -0.1700  0.2114
  771TMC3     C11474   2.068   0.972  13.174  0.2998 -0.4985 -0.3293
  771TMC3     O11475   2.176   1.017  13.210  0.0844 -0.5125  0.0910
  771TMC3     H11476   2.173   1.137  12.998  0.9080 -0.7452  0.5305
  771TMC3    H111477   1.849   0.876  13.053  2.2525  0.1197  1.7039
  771TMC3    H211478   1.787   1.230  12.818  2.3104 -0.0303 -1.5523
  771TMC3    C711479   1.669   1.050  12.954 -0.6233  0.7612  0.1207
  771TMC3    C811480   2.045   1.330  12.888 -0.5947 -0.2096  0.5895
  771TMC3    O111481   1.600   1.151  12.952 -0.1862  0.4978  0.1634
  771TMC3    O211482   2.166   1.343  12.905 -0.9554  0.6977  0.0221
  772TMC3    C111483   3.172   4.746   9.738  0.0605 -0.4441  0.7035
  772TMC3    C211484   3.140   4.760   9.608 -0.0577 -0.3417  0.5532
  772TMC3    C311485   3.004   4.768   9.596  0.4125 -0.4635 -0.2204
  772TMC3    C411486   3.092   4.714   9.843 -0.6105 -0.0160  0.3695
  772TMC3    C511487   2.960   4.703   9.820 -0.7943 -0.2144  0.5113
  772TMC3    C611488   2.915   4.722   9.691  0.0334  0.5814 -0.6032
  772TMC3     C11489   3.315   4.771   9.769 -0.4367 -0.1324  0.2795
  772TMC3     O11490   3.388   4.723   9.681 -0.3813  0.6371  0.1391
  772TMC3     H11491   3.206   0.030   9.535  0.1391 -2.6536 -0.7161
  772TMC3    H111492   3.134   4.708   9.943  3.2241  0.4870 -1.1826
  772TMC3    H211493   2.810   4.717   9.666 -0.3785 -1.8561  1.6197
  772TMC3    C711494   2.911   4.588   9.886  0.2227 -0.7965  0.1231
  772TMC3    C811495   2.954   0.027   9.469  0.2001  0.2207 -0.0438
  772TMC3    O111496   2.981   4.486   9.884  0.3222 -0.3561  0.1656
  772TMC3    O211497   3.010   4.752   9.372  0.2229 -0.2111  0.2644
  773TMC3    C111498   1.774   3.752   8.039  0.7047 -0.5053 -0.5195
  773TMC3    C211499   1.894   3.790   7.984 -0.2226  0.2639 -0.4007
  773TMC3    C311500   2.006   3.753   8.041  0.0410  0.1986  0.3799
  773TMC3    C411501   1.775   3.713   8.167  0.2858  0.1066 -0.3975
  773TMC3    C511502   1.895   3.704   8.232  0.4169 -0.6162  0.0612
  773TMC3    C611503   2.016   3.723   8.169  0.2091 -0.2227  0.0105
  773TMC3     C11504   1.688   3.668   7.964  0.0137  0.2246 -0.0048
  773TMC3     O11505   1.572   3.662   7.996  0.4723 -0.1652 -0.2109
  773TMC3     H11506   1.897   3.820   7.880 -0.1207  0.6157 -0.2975
  773TMC3    H111507   1.676   3.702   8.210  1.0922 -0.0285  1.4296
  773TMC3    H211508   2.104   3.679   8.214  0.6595  0.8281  0.1428
  773TMC3    C711509   1.881   3.658   8.371 -0.1225  0.1751 -0.1212
  773TMC3    C811510   2.101   3.691   7.946 -0.1627 -0.4602 -0.3804
  773TMC3    O111511   1.774   3.603   8.392  0.1513 -0.2014 -0.0454
  773TMC3    O211512   2.052   3.663   7.840  0.3743  0.1145 -0.3508
  774TMC3    C111513   4.066   3.292  14.905 -0.2141 -1.3345 -0.6744
  774TMC3    C211514   4.150   3.378  14.975 -0.1565  0.6337 -0.1977
  774TMC3    C311515   4.079   3.476  15.040  0.4987 -0.1363  0.8594
  774TMC3    C411516   3.934   3.296  14.908  0.1909 -0.1862  0.0432
  774TMC3    C511517   3.872   3.391  14.976  0.4960  0.0742  0.0735
  774TMC3    C611518   3.945   3.488  15.048 -0.0119 -0.4878 -0.2697
  774TMC3     C11519   4.133   3.172  14.867 -0.0279  0.4021 -0.1639
  774TMC3     O11520   4.244   3.155  14.917  0.3654  0.2059  0.3525
  774TMC3     H11521   4.258   3.378  14.976 -0.1914 -0.3760  2.0381
  774TMC3    H111522   3.877   3.215  14.865 -1.6490  0.3702  1.4078
  774TMC3    H211523   3.912   3.589  15.071 -0.6741 -0.6423 -0.5466
  774TMC3    C711524   3.729   3.384  14.984  0.8858 -0.3163  0.2775
  774TMC3    C811525   4.145   3.568  15.122  0.2088  0.3616 -0.3822
  774TMC3    O111526   3.674   3.299  14.911  0.3457 -0.0576  0.7837
  774TMC3    O211527   4.081   3.603  15.220  0.4319 -0.0938  0.2994
  775TMC3    C111528   3.886   4.641  12.789  0.0489 -0.0818 -0.1678
  775TMC3    C211529   3.765   4.639  12.721 -0.2416 -0.0901  0.3256
  775TMC3    C311530   3.768   4.670  12.587  0.1741 -0.9303  0.9272
  775TMC3    C411531   4.008   4.654  12.727  0.4919 -0.1066 -0.9623
  775TMC3    C511532   4.009   4.680  12.592 -0.2417  0.0077 -0.8434
  775TMC3    C611533   3.886   4.689  12.520  0.3813 -0.2328 -0.1919
  775TMC3     C11534   3.867   4.630  12.934 -0.4280 -0.0634 -0.0479
  775TMC3     O11535   3.752   4.641  12.979  0.8460 -0.3374 -0.1077
  775TMC3     H11536   3.666   4.634  12.765  0.3134 -0.3620  1.5355
  775TMC3    H111537   4.097   4.672  12.786 -0.1032  0.2968 -0.1886
  775TMC3    H211538   3.878   4.706  12.413  2.1802  0.4912 -0.2107
  775TMC3    C711539   4.127   4.644  12.515 -0.1789  0.6116  0.8644
  775TMC3    C811540   3.675   4.582  12.513 -0.7549 -0.5038 -0.4814
  775TMC3    O111541   4.132   4.673  12.397  0.3395  0.8257 -0.6124
  775TMC3    O211542   3.654   4.617  12.397 -0.4532  0.7732  0.4663
  776TMC3    C111543   4.568   3.245  10.523 -0.2980 -0.3376 -0.7625
  776TMC3    C211544   4.497   3.305  10.428  0.5236 -0.4099 -0.4514
  776TMC3    C311545   4.476   3.442  10.437  0.3683 -0.3575  0.2488
  776TMC3    C411546   4.637   3.315  10.617  0.3552 -0.2573 -0.0940
  776TMC3    C511547   4.624   3.450  10.616  0.0641 -0.0904  0.0492
  776TMC3    C611548   4.538   3.514  10.534 -0.9534  0.5699  0.1098
  776TMC3     C11549   4.582   3.107  10.521  0.4427  0.0258 -1.0326
  776TMC3     O11550   4.511   3.052  10.438  0.5614 -0.7541 -0.1786
  776TMC3     H11551   4.444   3.244  10.356 -0.3538  1.5319 -1.4798
  776TMC3    H111552   4.738   3.279  10.637  1.1761  2.9222  1.4484
  776TMC3    H211553   4.510   3.618  10.541  1.0274  1.0013  1.6006
  776TMC3    C711554   4.717   3.534  10.686  0.1566  0.4035  0.1753
  776TMC3    C811555   4.449   3.508  10.306  0.0565 -0.3864 -0.7031
  776TMC3    O111556   4.711   3.650  10.649  0.3587 -0.2483 -0.0333
  776TMC3    O211557   4.408   3.434  10.218 -0.0921  0.4562 -0.1531
  777TMC3    C111558   3.092   0.845   7.570  0.1069 -0.4628  0.0442
  777TMC3    C211559   3.147   0.946   7.648 -0.5699  0.2213 -0.2103
  777TMC3    C311560   3.214   1.037   7.569 -0.3672  0.8015  0.0899
  777TMC3    C411561   3.114   0.827   7.433 -0.5567  0.2205 -0.1662
  777TMC3    C511562   3.192   0.923   7.365  0.6857 -0.1498 -0.0231
  777TMC3    C611563   3.243   1.025   7.433  0.5481  0.5665 -0.2215
  777TMC3     C11564   2.981   0.768   7.634 -0.6515 -0.4475  0.1724
  777TMC3     O11565   2.891   0.725   7.561  0.4212 -0.1042 -0.8354
  777TMC3     H11566   3.105   0.967   7.746  1.1077 -2.1446  0.9949
  777TMC3    H111567   3.050   0.755   7.383  1.3069 -0.9215 -0.8941
  777TMC3    H211568   3.291   1.103   7.376  2.3985 -0.8216 -0.5787
  777TMC3    C711569   3.219   0.921   7.223  0.1845  0.3207 -0.1852
  777TMC3    C811570   3.219   1.176   7.615  0.1353 -0.4502 -0.1727
  777TMC3    O111571   3.243   1.028   7.173 -0.8202  0.1901  0.1704
  777TMC3    O211572   3.256   1.266   7.539 -0.1006 -0.2245  0.1160
  778TMC3    C111573   0.525   2.171   7.356  0.4197  0.2375  0.2692
  778TMC3    C211574   0.542   2.289   7.289  0.2572 -0.1515 -0.2707
  778TMC3    C311575   0.429   2.339   7.230  0.5202 -0.1989 -0.0695
  778TMC3    C411576   0.407   2.121   7.392  0.7995 -0.5492 -0.7041
  778TMC3    C511577   0.297   2.185   7.345 -0.2934 -0.6260  0.0415
  778TMC3    C611578   0.306   2.282   7.253 -0.1971 -0.4749  0.8602
  778TMC3     C11579   0.632   2.112   7.435 -0.2098  0.7998  0.1580
  778TMC3     O11580   0.637   1.991   7.463 -0.1725 -0.4340  0.2204
  778TMC3     H11581   0.635   2.316   7.239  2.1047 -3.4608  1.3797
  778TMC3    H111582   0.411   2.061   7.482  0.6399  1.8315  0.8637
  778TMC3    H211583   0.222   2.328   7.201 -0.8243 -1.1880  1.2500
  778TMC3    C711584   0.187   2.181   7.435  0.4127 -0.1219  0.6186
  778TMC3    C811585   0.437   2.473   7.178 -0.1055 -0.1231 -0.1903
  778TMC3    O111586   0.157   2.078   7.495 -0.2350 -0.3101 -0.4668
  778TMC3    O211587   0.511   2.553   7.235 -0.0408 -0.3287 -0.1386
  779TMC3    C111588   4.234   4.696  11.839  0.0604 -0.1672 -0.8343
  779TMC3    C211589   4.121   4.772  11.857  0.6618  0.1574  0.2309
  779TMC3    C311590   4.056   4.755  11.973  0.4248 -0.4005 -0.5836
  779TMC3    C411591   4.283   4.624  11.939 -0.5859  0.1564  0.1879
  779TMC3    C511592   4.221   4.612  12.061 -0.1199 -0.2473 -0.3581
  779TMC3    C611593   4.097   4.671  12.075 -0.8044  0.3760  0.2441
  779TMC3     C11594   4.213   4.614  11.721 -0.4784 -0.3315  0.1525
  779TMC3     O11595   4.223   4.494  11.736 -0.1124 -0.2687  0.2342
  779TMC3     H11596   4.125   0.092  11.807 -1.4632  1.1739  2.0038
  779TMC3    H111597   4.374   4.572  11.911 -2.8400 -2.8235 -1.5579
  779TMC3    H211598   4.040   4.682  12.167  1.3829  0.6740  1.5788
  779TMC3    C711599   4.213   4.472  12.092 -0.0010  0.0347  0.1230
  779TMC3    C811600   3.916   0.008  11.954 -0.0622  0.4680  0.2638
  779TMC3    O111601   4.237   4.393  12.004  0.4714  0.0467 -0.4016
  779TMC3    O211602   3.839   4.743  12.040  0.4184 -0.0553 -0.5860
  780TMC3    C111603   1.103   3.866  10.312 -0.3288  0.5241  0.4896
  780TMC3    C211604   1.099   3.754  10.234 -0.1550 -0.7099  0.2309
  780TMC3    C311605   1.089   3.763  10.094 -1.1359 -0.7983  0.1559
  780TMC3    C411606   1.062   3.990  10.260 -0.4682  0.3594  0.3862
  780TMC3    C511607   1.030   3.991  10.121  0.1329 -0.4854  0.6189
  780TMC3    C611608   1.046   3.876  10.044 -0.4883 -0.2447 -0.7571
  780TMC3     C11609   1.158   3.863  10.443 -0.0823 -0.0675 -0.2145
  780TMC3     O11610   1.135   3.766  10.515 -0.1196 -0.2364 -0.4899
  780TMC3     H11611   1.114   3.656  10.278 -0.0810 -0.8260 -0.0499
  780TMC3    H111612   1.057   4.078  10.324  2.6494 -1.3518  2.9755
  780TMC3    H211613   1.008   3.866   9.943  0.3620  1.6508 -1.2634
  780TMC3    C711614   1.004   4.118  10.063 -0.4379  0.1502  0.3721
  780TMC3    C811615   1.074   3.645  10.016 -0.0684 -0.1625 -0.0325
  780TMC3    O111616   1.062   4.215  10.114 -0.5716  0.1696  0.1741
  780TMC3    O211617   0.991   3.640   9.924  0.5891 -0.0538 -0.2174
  781TMC3    C111618   4.239   2.603  15.237  0.1163  0.0118  1.2610
  781TMC3    C211619   4.286   2.704  15.155  0.0816 -0.5369 -0.3267
  781TMC3    C311620   4.418   2.728  15.167 -0.1476  0.0701  0.2818
  781TMC3    C411621   4.307   2.546  15.335  0.4682 -0.0743  0.1949
  781TMC3    C511622   4.436   2.588  15.352  0.0193  0.6095 -0.0789
  781TMC3    C611623   4.493   2.672  15.266 -0.0880  0.0969  0.1615
  781TMC3     C11624   4.116   2.545  15.188 -0.3056 -0.2250 -0.6244
  781TMC3     O11625   4.040   2.620  15.130  0.6595  0.1732  0.2113
  781TMC3     H11626   4.225   2.739  15.072 -1.2636 -4.0341 -0.8491
  781TMC3    H111627   4.257   2.473  15.396  0.7660 -0.9811 -0.6486
  781TMC3    H211628   4.597   2.698  15.276 -0.6896  1.9225  1.8371
  781TMC3    C711629   4.521   2.515  15.447 -0.4444 -0.3050  0.2196
  781TMC3    C811630   4.475   2.782  15.047  0.4861  0.2040 -0.1094
  781TMC3    O111631   4.485   2.421  15.509  0.2063 -0.2415 -0.8527
  781TMC3    O211632   4.401   2.859  14.983 -0.2325 -0.0709  0.1366
  782TMC3    C111633   2.784   0.953   8.803  0.2885  0.6956  0.3432
  782TMC3    C211634   2.796   1.049   8.898 -0.4741  0.2950 -0.9517
  782TMC3    C311635   2.873   1.030   9.007 -0.3648 -0.4345 -0.2298
  782TMC3    C411636   2.862   0.843   8.806  0.0969 -0.0170  0.2788
  782TMC3    C511637   2.960   0.834   8.905  0.0203  0.0368  0.3343
  782TMC3    C611638   2.967   0.929   9.004 -0.1255  0.8563 -0.3967
  782TMC3     C11639   2.658   0.962   8.735  0.0978  0.4799  0.7321
  782TMC3     O11640   2.599   0.858   8.718 -0.0959  0.1593 -0.4246
  782TMC3     H11641   2.718   1.125   8.903  1.5896  2.5408 -2.9847
  782TMC3    H111642   2.833   0.761   8.740 -1.8779  0.7998  0.1410
  782TMC3    H211643   3.048   0.923   9.076 -0.5516  1.5863  0.1429
  782TMC3    C711644   3.002   0.699   8.957 -0.3927  0.2825  0.3560
  782TMC3    C811645   2.913   1.161   9.061  0.3094 -0.3063 -0.6174
  782TMC3    O111646   3.044   0.681   9.072  0.2715 -0.2477  0.3294
  782TMC3    O211647   2.903   1.260   8.993 -0.1549 -0.7911 -0.4175
  783TMC3    C111648   4.062   4.642   9.349 -0.7194 -0.3197 -0.2367
  783TMC3    C211649   3.964   4.580   9.277  0.5633  0.7833 -0.2808
  783TMC3    C311650   3.970   4.442   9.264 -0.0963  0.2847  0.0749
  783TMC3    C411651   4.151   4.561   9.419 -0.2975  0.4075 -0.3883
  783TMC3    C511652   4.151   4.424   9.401 -0.9497  1.3093  0.6284
  783TMC3    C611653   4.076   4.366   9.308  0.3615  0.9635  0.1197
  783TMC3     C11654   4.054   0.007   9.366  0.0428 -0.2055 -0.4840
  783TMC3     O11655   3.954   0.066   9.328  0.1962  1.2354  0.2791
  783TMC3     H11656   3.876   4.633   9.244  0.5856  0.4182 -0.9202
  783TMC3    H111657   4.219   4.615   9.484  1.4816 -0.0151 -1.9356
  783TMC3    H211658   4.080   4.261   9.285  0.2737  1.0356 -0.2248
  783TMC3    C711659   4.196   4.344   9.507 -0.1088 -0.3998  0.5455
  783TMC3    C811660   3.844   4.380   9.247  0.1088  0.4341 -0.3795
  783TMC3    O111661   4.257   4.405   9.591  0.4876 -0.5121  0.0737
  783TMC3    O211662   3.771   4.415   9.152 -0.0974 -0.6073  0.2886
  784TMC3    C111663   4.114   1.726  13.046 -0.0893  0.2587 -0.2214
  784TMC3    C211664   4.012   1.815  13.017  0.2317 -0.2932  0.2667
  784TMC3    C311665   3.958   1.886  13.126  0.4509 -0.6395 -0.0659
  784TMC3    C411666   4.154   1.690  13.175  0.0042 -0.3227 -0.0342
  784TMC3    C511667   4.088   1.754  13.281  0.2096 -0.2436  0.9004
  784TMC3    C611668   3.992   1.853  13.255 -0.0645  0.6454  0.5173
  784TMC3     C11669   4.170   1.638  12.940  0.7106  1.2366  0.3019
  784TMC3     O11670   4.240   1.547  12.976  0.3394 -0.3569  0.4379
  784TMC3     H11671   3.992   1.848  12.915  1.5710  0.2016  0.1744
  784TMC3    H111672   4.224   1.608  13.190 -1.0131 -1.1968 -0.1146
  784TMC3    H211673   3.967   1.922  13.336  1.5522  0.0233  1.5542
  784TMC3    C711674   4.074   1.690  13.402  0.5111  0.6312  0.2914
  784TMC3    C811675   3.903   2.022  13.096 -0.5585  0.2942  0.5975
  784TMC3    O111676   4.007   1.744  13.489  0.0614  0.4631 -0.2711
  784TMC3    O211677   3.906   2.067  12.982 -0.2621  0.3170  0.0975
  785TMC3    C111678   0.069   4.653  13.522  0.5621  0.8552  0.2831
  785TMC3    C211679   0.064   4.547  13.436  0.2580 -0.3437  0.1678
  785TMC3    C311680   0.025   4.422  13.474 -0.0850  0.1361  0.3927
  785TMC3    C411681   0.030   4.626  13.653  0.0895  1.2476 -0.1590
  785TMC3    C511682   4.762   4.498  13.686  0.0764 -0.5499  0.7993
  785TMC3    C611683   4.760   4.390  13.602  0.4358  0.2339  0.3661
  785TMC3     C11684   0.110   0.010  13.477 -0.4815 -0.0510  0.4756
  785TMC3     O11685   0.146   0.023  13.363 -0.4303 -0.3456 -0.3511
  785TMC3     H11686   0.084   4.569  13.332 -0.3493 -1.9758 -0.2960
  785TMC3    H111687   0.036   4.696  13.736  0.3065  2.2285 -0.9927
  785TMC3    H211688   4.721   4.291  13.621 -0.8649  0.4896 -0.9276
  785TMC3    C711689   4.650   4.499  13.774 -0.2265 -0.5258 -0.7491
  785TMC3    C811690   0.059   4.312  13.389  0.4307 -0.2765 -1.0000
  785TMC3    O111691   4.596   4.606  13.786 -0.0023 -0.1325  0.3368
  785TMC3    O211692   0.150   4.245  13.440  0.5632 -0.0962 -0.1218
  786TMC3    C111693   0.507   0.892   7.588  0.2631  0.4693  0.0471
  786TMC3    C211694   0.422   0.802   7.540 -0.1906  0.3653 -0.1905
  786TMC3    C311695   0.415   0.766   7.407  0.4214  0.2741  0.3514
  786TMC3    C411696   0.596   0.959   7.512 -0.2442 -0.2189  0.8603
  786TMC3    C511697   0.589   0.930   7.380 -0.1634 -0.1086 -0.2786
  786TMC3    C611698   0.500   0.833   7.324 -0.5511 -0.3581  0.4980
  786TMC3     C11699   0.500   0.913   7.725  0.1139 -0.1526  0.3209
  786TMC3     O11700   0.424   0.848   7.799  0.2621 -0.2982 -0.3042
  786TMC3     H11701   0.350   0.762   7.611 -1.6695 -0.5939 -2.2150
  786TMC3    H111702   0.639   1.054   7.543 -2.8798  1.4296 -0.6092
  786TMC3    H211703   0.506   0.803   7.220 -0.0271  2.1841 -0.2006
  786TMC3    C711704   0.657   1.013   7.286  0.6559  0.1022 -0.3189
  786TMC3    C811705   0.294   0.710   7.344  0.2247 -0.5143 -0.3361
  786TMC3    O111706   0.691   1.120   7.328  0.3349 -0.3211 -0.3065
  786TMC3    O211707   0.283   0.723   7.223 -0.9468 -0.8473 -0.1743
  787TMC3    C111708   0.145   2.398  13.806  0.3784  0.8421  0.0549
  787TMC3    C211709   0.242   2.369  13.894  0.5864 -0.3044  0.9357
  787TMC3    C311710   0.370   2.352  13.854 -0.3856 -0.0268  0.4430
  787TMC3    C411711   0.166   2.413  13.672 -0.1565 -0.2089 -1.0769
  787TMC3    C511712   0.290   2.376  13.628 -0.7717  0.3556  0.2663
  787TMC3    C611713   0.395   2.348  13.718 -0.1825  0.2491  0.2557
  787TMC3     C11714   0.017   2.444  13.851  0.4867  0.2338  0.0074
  787TMC3     O11715   4.736   2.521  13.773  0.7649 -0.0147 -0.2177
  787TMC3     H11716   0.234   2.390  14.000  0.1543  2.8815  0.2902
  787TMC3    H111717   0.080   2.426  13.606 -1.2396 -1.1394  0.1438
  787TMC3    H211718   0.494   2.324  13.681 -1.5501 -1.0966 -2.5103
  787TMC3    C711719   0.327   2.400  13.496  0.6120  0.3559  1.1749
  787TMC3    C811720   0.489   2.372  13.941  0.0780  0.1252 -0.6923
  787TMC3    O111721   0.418   2.338  13.449  0.7907  0.5545  0.8952
  787TMC3    O211722   0.593   2.402  13.882 -0.8904 -0.1105 -0.5427
  788TMC3    C111723   3.754   0.425  11.093  0.0954 -0.0672 -0.7001
  788TMC3    C211724   3.643   0.391  11.018 -0.2215  0.5512  0.7206
  788TMC3    C311725   3.573   0.275  11.057  0.6897  0.2164 -0.5811
  788TMC3    C411726   3.785   0.361  11.204  0.4219 -0.4059 -0.3453
  788TMC3    C511727   3.708   0.251  11.246  0.7682  0.3889 -0.3597
  788TMC3    C611728   3.598   0.208  11.176 -0.2084 -0.4136  0.1790
  788TMC3     C11729   3.777   0.572  11.099 -0.3863 -0.6726  0.4188
  788TMC3     O11730   3.747   0.619  11.208  0.5977  0.9495  0.3629
  788TMC3     H11731   3.622   0.464  10.941 -0.6353  0.7561  1.0250
  788TMC3    H111732   3.855   0.397  11.278 -0.0505  0.7819 -0.4838
  788TMC3    H211733   3.539   0.121  11.203 -1.7688  0.6642  0.2096
  788TMC3    C711734   3.741   0.183  11.369 -0.4814  0.4153 -0.1473
  788TMC3    C811735   3.532   0.184  10.956  0.2636  0.2081  0.2256
  788TMC3    O111736   3.858   0.203  11.409 -0.7082 -0.6376 -0.2301
  788TMC3    O211737   3.534   0.067  10.985 -0.6445 -0.7534  0.2414
  789TMC3    C111738   1.260   0.023  11.496 -0.1185 -0.1678 -0.7991
  789TMC3    C211739   1.254   4.776  11.361  0.0972 -0.1993 -0.1410
  789TMC3    C311740   1.290   4.649  11.315  0.2961  0.3073 -0.3550
  789TMC3    C411741   1.325   4.707  11.578 -0.4659 -0.1534  0.8629
  789TMC3    C511742   1.375   4.591  11.530 -0.0966 -0.1164  0.1075
  789TMC3    C611743   1.352   4.557  11.396  0.2869 -0.1511 -0.7661
  789TMC3     C11744   1.178   0.134  11.537  0.4605  0.2836 -0.0923
  789TMC3     O11745   1.080   0.163  11.466 -0.3268  0.5556 -0.2178
  789TMC3     H11746   1.233   0.083  11.295  3.7821  0.8410  0.0032
  789TMC3    H111747   1.329   4.729  11.684 -2.6428  1.8690  0.5161
  789TMC3    H211748   1.397   4.468  11.353  0.2227 -1.0712  1.0854
  789TMC3    C711749   1.490   4.529  11.590 -0.1883  0.2475 -0.1546
  789TMC3    C811750   1.286   4.612  11.170  0.1515  0.5130 -0.1028
  789TMC3    O111751   1.522   4.423  11.540 -0.5787  0.4227 -0.4925
  789TMC3    O211752   1.339   4.508  11.138  0.4395 -0.2054  0.2227
  790TMC3    C111753   2.281   0.442   5.959 -0.3278  0.7192 -0.2611
  790TMC3    C211754   2.374   0.413   5.862 -0.4055  0.0055  0.1812
  790TMC3    C311755   2.486   0.492   5.853  0.6027  0.4495 -0.2872
  790TMC3    C411756   2.296   0.563   6.035  0.1368  0.0688  0.0987
  790TMC3    C511757   2.405   0.646   6.015  0.6596 -1.0711  0.3277
  790TMC3    C611758   2.507   0.604   5.930 -0.3721  0.5642  0.2109
  790TMC3     C11759   2.171   0.352   5.979  0.1402  0.1737  0.3788
  790TMC3     O11760   2.122   0.308   5.872  0.0698 -0.1421  0.0947
  790TMC3     H11761   2.366   0.315   5.818  0.0927 -0.3251  0.8300
  790TMC3    H111762   2.215   0.591   6.101 -0.9886 -0.8116 -0.8900
  790TMC3    H211763   2.590   0.671   5.910 -0.4983 -0.1327 -2.6830
  790TMC3    C711764   2.393   0.790   6.036 -0.7442 -0.5792  0.3095
  790TMC3    C811765   2.586   0.455   5.755 -0.4066  0.8643 -0.3006
  790TMC3    O111766   2.499   0.847   6.036  0.1006  0.5743 -0.2333
  790TMC3    O211767   2.557   0.364   5.678  0.3451  0.4283  0.0620
  791TMC3    C111768   3.906   2.009   6.403  0.0036 -0.4268  0.3103
  791TMC3    C211769   3.919   2.128   6.332  0.1845  0.2539  0.3629
  791TMC3    C311770   4.029   2.143   6.247  0.6637 -0.1876  0.5462
  791TMC3    C411771   4.003   1.907   6.392  0.4594 -0.6450  0.0052
  791TMC3    C511772   4.100   1.920   6.306  0.0978  0.0739 -0.0399
  791TMC3    C611773   4.118   2.036   6.232  0.6827  0.0076  0.2647
  791TMC3     C11774   3.824   2.015   6.521  0.0201 -0.2744  0.0086
  791TMC3     O11775   3.845   1.936   6.610  0.0173  0.1645 -0.0278
  791TMC3     H11776   3.871   2.219   6.366 -3.4601 -1.6249  0.2974
  791TMC3    H111777   3.973   1.812   6.435  0.1968  0.0758  1.4306
  791TMC3    H211778   4.203   2.045   6.165  1.2185 -1.1811  0.7910
  791TMC3    C711779   4.226   1.856   6.349  0.0827  0.4041 -0.6066
  791TMC3    C811780   4.079   2.281   6.235  0.0069 -0.3384 -0.3531
  791TMC3    O111781   4.228   1.818   6.462  0.1078 -0.6304 -0.5031
  791TMC3    O211782   4.017   2.368   6.295 -0.4544 -0.0642  0.2495
  792TMC3    C111783   3.840   0.967  11.860  0.2747 -0.2809  1.0345
  792TMC3    C211784   3.872   1.090  11.822  0.4323  0.5009 -0.3944
  792TMC3    C311785   3.794   1.168  11.743  0.0689 -0.7379  0.1770
  792TMC3    C411786   3.723   0.904  11.834  0.1026  0.0739 -0.7589
  792TMC3    C511787   3.644   0.974  11.751 -0.6987  0.3865 -0.0266
  792TMC3    C611788   3.673   1.106  11.710 -0.0423  0.2146 -0.3051
  792TMC3     C11789   3.940   0.900  11.936 -0.2330  0.3160  0.1878
  792TMC3     O11790   4.053   0.948  11.927  0.9073 -0.2593 -0.0270
  792TMC3     H11791   3.972   1.125  11.843  1.0130 -0.9900 -0.6955
  792TMC3    H111792   3.713   0.800  11.862 -0.5718 -0.0258 -1.3891
  792TMC3    H211793   3.616   1.148  11.627 -0.6218 -1.4566 -0.7636
  792TMC3    C711794   3.562   0.883  11.667  0.3079  0.0511 -0.3852
  792TMC3    C811795   3.831   1.291  11.671  0.0320  0.5305 -0.5301
  792TMC3    O111796   3.605   0.771  11.653  0.7019  0.3632  0.1115
  792TMC3    O211797   3.778   1.320  11.563  0.2825  0.5060 -0.0362
  793TMC3    C111798   0.867   0.935  13.303 -0.8128 -0.1805 -0.5941
  793TMC3    C211799   0.916   0.807  13.305  0.2232  0.1499 -0.3108
  793TMC3    C311800   0.979   0.783  13.419  0.2466 -0.7460  0.1729
  793TMC3    C411801   0.845   1.017  13.414  0.6147  0.2322  0.1383
  793TMC3    C511802   0.912   0.982  13.527 -0.1599  0.4669  0.3752
  793TMC3    C611803   0.988   0.869  13.526 -0.3795 -0.5653 -0.2279
  793TMC3     C11804   0.897   1.001  13.176 -0.7569 -0.0605  0.1138
  793TMC3     O11805   0.990   0.958  13.108 -0.2358 -0.0460  0.0006
  793TMC3     H11806   0.929   0.754  13.211 -1.0370  1.0447 -0.9926
  793TMC3    H111807   0.792   1.110  13.405 -0.0251 -0.2384 -0.9359
  793TMC3    H211808   1.057   0.845  13.607 -0.5581  2.1013  0.6900
  793TMC3    C711809   0.921   1.074  13.631  0.0455  0.3376 -0.3579
  793TMC3    C811810   1.088   0.691  13.408 -0.2548 -0.5969  0.5708
  793TMC3    O111811   0.891   1.189  13.604  0.2154  0.6254 -0.0455
  793TMC3    O211812   1.194   0.742  13.444 -0.2053  0.2067 -0.3139
  794TMC3    C111813   1.514   0.335   7.886 -0.0831 -0.0393 -0.3673
  794TMC3    C211814   1.547   0.242   7.979 -0.4620 -0.1166  0.3319
  794TMC3    C311815   1.510   0.110   7.966  0.4684  0.7435  0.6740
  794TMC3    C411816   1.437   0.298   7.776 -0.0281 -0.1996 -0.1927
  794TMC3    C511817   1.385   0.172   7.770 -0.1171  0.0452  0.6648
  794TMC3    C611818   1.413   0.078   7.869  0.9891  0.2358 -0.3340
  794TMC3     C11819   1.626   0.416   7.854 -0.1914  0.1552  0.4365
  794TMC3     O11820   1.730   0.373   7.881 -0.2146  0.1054 -0.2730
  794TMC3     H11821   1.618   0.275   8.055  0.1550 -1.6068  0.4062
  794TMC3    H111822   1.424   0.356   7.685 -0.1193  0.3943  0.2002
  794TMC3    H211823   1.381   4.750   7.864  0.6714  0.2400  1.6230
  794TMC3    C711824   1.314   0.121   7.657  1.0886  0.6371  0.6399
  794TMC3    C811825   1.625   0.017   7.962 -1.0969 -0.2286 -0.5403
  794TMC3    O111826   1.238   0.031   7.679 -0.0409  0.0361 -0.1656
  794TMC3    O211827   1.605   4.670   7.965  0.0582  0.4307  0.4733
  795TMC3    C111828   1.838   1.053  10.978  0.0236 -0.3599  0.0448
  795TMC3    C211829   1.835   1.023  10.848 -0.2987 -0.1454 -0.2976
  795TMC3    C311830   1.949   0.985  10.781 -0.0569  0.6204 -0.9550
  795TMC3    C411831   1.956   1.060  11.045 -0.0886  0.3467 -0.5589
  795TMC3    C511832   2.073   1.055  10.972  0.3155 -0.0028 -0.2441
  795TMC3    C611833   2.074   1.004  10.846 -0.6375  0.2952 -0.5401
  795TMC3     C11834   1.711   1.095  11.036 -0.4191  0.3744 -0.4645
  795TMC3     O11835   1.719   1.102  11.161 -0.3597  0.0324 -0.2899
  795TMC3     H11836   1.742   1.011  10.793 -1.4484  0.6135  1.4942
  795TMC3    H111837   1.959   1.112  11.140 -2.6741  1.2865 -0.9977
  795TMC3    H211838   2.169   0.993  10.796 -0.4935 -1.1157  0.0498
  795TMC3    C711839   2.163   1.173  10.980 -0.4675  0.2376 -0.1998
  795TMC3    C811840   1.951   1.046  10.649  0.2449 -0.0970  0.0462
  795TMC3    O111841   2.181   1.233  11.085  0.2443 -0.6277 -0.3771
  795TMC3    O211842   2.063   1.094  10.629  0.0799 -0.1471  0.1121
  796TMC3    C111843   3.248   4.448  12.530  0.0021 -0.2405 -0.4761
  796TMC3    C211844   3.291   4.577  12.557 -0.0305  0.1707  0.3116
  796TMC3    C311845   3.265   4.686  12.475  0.0575  0.4260  0.1730
  796TMC3    C411846   3.157   4.440  12.429 -0.2378 -0.1789 -0.2032
  796TMC3    C511847   3.123   4.556  12.358 -0.6008  1.0494  0.9862
  796TMC3    C611848   3.181   4.683  12.372  0.2401  0.1649  0.6475
  796TMC3     C11849   3.217   4.357  12.645  0.4305 -0.3410  0.2348
  796TMC3     O11850   3.213   4.413  12.754  0.0757 -0.8464  0.2812
  796TMC3     H11851   3.366   4.578  12.635 -2.5095  2.3591  2.6514
  796TMC3    H111852   3.104   4.347  12.410 -0.0340  0.0609 -2.0137
  796TMC3    H211853   3.144   4.772  12.322 -0.1462 -1.8168 -2.5755
  796TMC3    C711854   2.997   4.561  12.285  0.2622 -0.4788  0.1204
  796TMC3    C811855   3.333   0.036  12.487 -0.9005  0.6705  0.3114
  796TMC3    O111856   2.901   4.511  12.340  0.1920  0.6063  0.3094
  796TMC3    O211857   3.340   0.093  12.378  0.2522 -0.4552 -0.0082
  797TMC3    C111858   0.717   0.282  11.086  0.9117  0.6151  0.5872
  797TMC3    C211859   0.615   0.330  11.156  0.3217  0.1863 -0.2844
  797TMC3    C311860   0.523   0.239  11.209  0.1020 -0.6752  0.0267
  797TMC3    C411861   0.738   0.144  11.078 -0.0173 -0.5140 -0.3462
  797TMC3    C511862   0.650   0.058  11.136  0.6589  0.3873 -0.0927
  797TMC3    C611863   0.542   0.104  11.204 -0.1181  0.5727  0.9025
  797TMC3     C11864   0.787   0.391  11.006  0.3700 -0.3155  0.3996
  797TMC3     O11865   0.730   0.496  10.984 -0.0320 -0.0579 -0.0420
  797TMC3     H11866   0.598   0.435  11.173 -1.5400 -0.1551  0.0562
  797TMC3    H111867   0.798   0.107  10.995  0.8033  0.6760 -0.2887
  797TMC3    H211868   0.457   0.043  11.233 -0.5790  0.1777 -1.2710
  797TMC3    C711869   0.684   4.695  11.136  0.1094  0.2722 -0.2221
  797TMC3    C811870   0.429   0.292  11.306  0.3520  0.2448 -0.5930
  797TMC3    O111871   0.783   4.668  11.071 -0.2071 -0.9257 -0.2755
  797TMC3    O211872   0.392   0.406  11.286  0.0808  0.0086  0.2610
  798TMC3    C111873   4.697   4.473   9.301 -0.6956  0.0367  0.1541
  798TMC3    C211874   4.744   4.567   9.383 -0.2019  0.5737 -0.4191
  798TMC3    C311875   0.099   4.547   9.430 -0.9475  0.2903 -0.3020
  798TMC3    C411876   4.771   4.364   9.270  0.2278  0.0729 -0.3471
  798TMC3    C511877   0.120   4.341   9.328  0.1376 -0.3948 -1.3279
  798TMC3    C611878   0.174   4.435   9.404  0.2399 -0.5529 -0.3219
  798TMC3     C11879   4.566   4.483   9.237 -0.5474 -0.1796 -0.2062
  798TMC3     O11880   4.514   4.377   9.213  0.7028 -0.1277 -0.5162
  798TMC3     H11881   4.679   4.638   9.431  1.0614  1.8307 -0.5720
  798TMC3    H111882   4.727   4.279   9.218  1.0587 -0.7798  0.3378
  798TMC3    H211883   0.277   4.428   9.438  0.0625  2.7963  0.8967
  798TMC3    C711884   0.212   4.258   9.257 -0.1121 -0.4818  0.0841
  798TMC3    C811885   0.137   4.644   9.538 -0.1284 -0.1637 -0.8843
  798TMC3    O111886   0.332   4.278   9.265 -0.3674  0.0111  0.4802
  798TMC3    O211887   0.072   4.745   9.568 -0.1254  0.0877  0.0082
  799TMC3    C111888   1.721   3.949   9.237 -0.4603 -0.1630  0.3842
  799TMC3    C211889   1.697   3.939   9.105 -0.5443  0.4296 -0.5937
  799TMC3    C311890   1.811   3.913   9.036  0.7779  0.7513 -0.1195
  799TMC3    C411891   1.840   3.941   9.296 -0.6891 -0.1145  0.7944
  799TMC3    C511892   1.957   3.920   9.217 -0.8966  0.0069  0.2143
  799TMC3    C611893   1.939   3.914   9.084 -0.4091  0.0951  0.0534
  799TMC3     C11894   1.618   4.029   9.309  0.7153 -0.6650  0.2622
  799TMC3     O11895   1.497   4.007   9.295 -0.0798 -0.0418 -0.3952
  799TMC3     H11896   1.596   3.932   9.067 -0.9828 -0.2458  0.6829
  799TMC3    H111897   1.838   3.936   9.404 -0.4798  2.5488  0.9295
  799TMC3    H211898   2.022   3.874   9.027 -0.3116 -1.5280  1.3350
  799TMC3    C711899   2.093   3.973   9.254  0.0813 -0.0329 -0.7189
  799TMC3    C811900   1.790   3.916   8.896 -0.5177  0.5183  0.3340
  799TMC3    O111901   2.184   3.969   9.174 -0.3717  0.6185  0.0717
  799TMC3    O211902   1.677   3.922   8.860  0.3169  0.1704  0.0479
  800TMC3    C111903   4.252   1.128  11.669 -0.2570 -0.1675 -0.3290
  800TMC3    C211904   4.197   1.192  11.563 -0.2821  0.1055 -0.3867
  800TMC3    C311905   4.118   1.125  11.474 -0.1167 -0.2848  0.0279
  800TMC3    C411906   4.234   0.991  11.684  0.2129  0.1823  0.4847
  800TMC3    C511907   4.176   0.922  11.577  0.0396  0.4242 -0.2348
  800TMC3    C611908   4.105   0.990  11.475 -0.5879  0.3366 -0.2702
  800TMC3     C11909   4.338   1.208  11.755 -0.0912 -0.7420  0.2959
  800TMC3     O11910   4.342   1.178  11.870  0.2158 -0.4857  0.2072
  800TMC3     H11911   4.191   1.300  11.560 -0.7226  0.0713 -0.7650
  800TMC3    H111912   4.286   0.930  11.757  1.4702  0.4158 -0.2330
  800TMC3    H211913   4.054   0.940  11.393 -0.7003  0.0392 -0.0212
  800TMC3    C711914   4.228   0.795  11.544  0.1529 -1.3382  0.3043
  800TMC3    C811915   4.077   1.191  11.349 -0.0590  0.0966  0.3956
  800TMC3    O111916   4.330   0.758  11.606 -0.6011  0.0504 -0.3520
  800TMC3    O211917   4.003   1.123  11.285 -0.2481  0.0657  0.1366
  801TMC3    C111918   4.018   2.592  13.609  0.3334 -0.3207 -0.6467
  801TMC3    C211919   4.077   2.617  13.488  0.3633 -0.2666  0.5568
  801TMC3    C311920   4.116   2.515  13.412 -0.6032 -1.0734 -0.4257
  801TMC3    C411921   4.024   2.467  13.668  0.0369  0.2391 -0.0786
  801TMC3    C511922   4.070   2.368  13.587  0.1177 -0.2088  0.1466
  801TMC3    C611923   4.114   2.388  13.461  0.1335  0.0933 -0.6792
  801TMC3     C11924   3.942   2.692  13.674  0.4561 -0.1826 -0.1638
  801TMC3     O11925   3.826   2.720  13.639 -0.5702 -0.0053  0.6260
  801TMC3     H11926   4.064   2.718  13.451  0.5624 -0.0964  0.9512
  801TMC3    H111927   3.975   2.455  13.764  1.3234  2.4475  0.8382
  801TMC3    H211928   4.137   2.303  13.398  0.1983  0.3558 -1.0155
  801TMC3    C711929   4.106   2.235  13.646  0.2669 -0.1166  0.1492
  801TMC3    C811930   4.246   2.548  13.356  0.0470  0.2424 -0.2296
  801TMC3    O111931   4.201   2.173  13.595 -0.2117 -0.1286  0.2864
  801TMC3    O211932   4.264   2.660  13.327 -0.3658 -0.1131  0.1948
  802TMC3    C111933   1.101   0.816  10.293 -0.2709  0.5812 -0.0291
  802TMC3    C211934   1.221   0.761  10.307 -0.3562  0.0132 -0.4226
  802TMC3    C311935   1.307   0.780  10.200  0.6793 -0.2984  0.3761
  802TMC3    C411936   1.056   0.869  10.168 -0.2202 -0.6827 -0.3556
  802TMC3    C511937   1.148   0.894  10.076 -0.1713 -0.1570 -0.4236
  802TMC3    C611938   1.274   0.855  10.091  0.0963  0.9358  0.2175
  802TMC3     C11939   1.032   0.877  10.407 -0.1862 -0.4704  1.1814
  802TMC3     O11940   1.111   0.902  10.499  0.0002 -0.0589  0.0215
  802TMC3     H11941   1.263   0.734  10.403 -2.2696 -1.1324  0.0950
  802TMC3    H111942   0.960   0.919  10.173 -0.8627 -1.8137 -1.3156
  802TMC3    H211943   1.346   0.875  10.012  0.8941 -0.3167  0.6382
  802TMC3    C711944   1.128   1.011   9.986 -0.6871 -0.2290 -0.0686
  802TMC3    C811945   1.443   0.762  10.230 -0.7934 -0.5655  0.3632
  802TMC3    O111946   1.229   1.051   9.933 -0.1383 -0.7369  0.6393
  802TMC3    O211947   1.461   0.674  10.312 -0.0720 -0.6168 -0.2272
  803TMC3    C111948   2.421   2.894  13.257  0.8722 -0.0230  0.5906
  803TMC3    C211949   2.505   2.801  13.209  0.2609 -0.4970 -0.9207
  803TMC3    C311950   2.557   2.826  13.083 -0.5206 -0.3582 -0.5526
  803TMC3    C411951   2.377   3.006  13.190  0.1705 -0.2846  0.2729
  803TMC3    C511952   2.425   3.022  13.064  0.1292 -0.0827  0.5146
  803TMC3    C611953   2.513   2.936  13.010 -0.6391  0.0976  0.4932
  803TMC3     C11954   2.351   2.863  13.380  0.1448 -0.6842 -0.3097
  803TMC3     O11955   2.406   2.784  13.453  0.4248  0.2611 -0.6063
  803TMC3     H11956   2.537   2.717  13.269  1.8383  0.8014  0.0321
  803TMC3    H111957   2.312   3.078  13.238 -1.4981 -2.2653  1.0394
  803TMC3    H211958   2.547   2.951  12.908  5.8304 -0.9588  2.5258
  803TMC3    C711959   2.425   3.145  12.995 -0.2297 -0.0876  0.5893
  803TMC3    C811960   2.692   2.799  13.077 -0.4566  0.4759  0.5829
  803TMC3    O111961   2.518   3.165  12.920 -0.3703 -0.3878  0.2130
  803TMC3    O211962   2.736   2.701  13.133  0.0518  0.4506  0.1343
  804TMC3    C111963   3.861   3.788   6.051  0.3984 -0.5171 -0.3379
  804TMC3    C211964   3.736   3.742   6.063 -0.2612 -0.8520  0.8524
  804TMC3    C311965   3.644   3.843   6.079  0.4993 -0.3167 -0.3600
  804TMC3    C411966   3.901   3.922   6.059  0.0785 -0.2036  0.3110
  804TMC3    C511967   3.798   4.014   6.069  0.8634 -0.1742 -0.4330
  804TMC3    C611968   3.669   3.977   6.079  0.4008  0.2073  0.2052
  804TMC3     C11969   3.953   3.697   6.115  0.0694 -0.9646 -0.0585
  804TMC3     O11970   3.982   3.587   6.064 -0.3694  0.1243  0.4836
  804TMC3     H11971   3.704   3.640   6.081 -1.3701 -0.3031  1.9366
  804TMC3    H111972   3.998   3.950   6.020 -0.7904  0.7366 -1.2037
  804TMC3    H211973   3.587   4.049   6.083  0.8184  0.5818  1.9394
  804TMC3    C711974   3.852   4.151   6.082  1.0325  0.0872  0.5288
  804TMC3    C811975   3.505   3.804   6.058 -0.4022  0.2902 -0.3113
  804TMC3    O111976   3.969   4.181   6.054 -0.3273  0.4338  0.1012
  804TMC3    O211977   3.421   3.879   6.107 -0.3648 -0.1521  0.2676
  805TMC3    C111978   2.873   0.374  11.274 -0.6295  0.2197  0.0854
  805TMC3    C211979   2.822   0.435  11.386 -0.0116 -0.1791 -0.4496
  805TMC3    C311980   2.878   0.385  11.505  0.6047 -0.1638 -0.6250
  805TMC3    C411981   2.958   0.268  11.270  0.0016 -0.0684 -0.0312
  805TMC3    C511982   3.008   0.231  11.391  0.0088 -0.1500 -0.2903
  805TMC3    C611983   2.964   0.279  11.512 -0.6388  0.5134 -0.2705
  805TMC3     C11984   2.863   0.446  11.151 -0.0943  0.9393  0.9784
  805TMC3     O11985   2.858   0.385  11.045  0.2242  0.1228  0.6204
  805TMC3     H11986   2.754   0.519  11.389  1.1556  0.6949  1.5796
  805TMC3    H111987   2.982   0.221  11.175  0.1300 -1.5024  0.7154
  805TMC3    H211988   2.996   0.232  11.604 -0.4456 -1.6535 -1.4565
  805TMC3    C711989   3.112   0.128  11.407  0.9341 -0.0187 -0.0060
  805TMC3    C811990   2.870   0.459  11.629 -0.2111  0.5977  0.1379
  805TMC3    O111991   3.177   0.116  11.509 -0.0884  0.4633 -0.7260
  805TMC3    O211992   2.965   0.444  11.706  0.8385  0.0966 -0.0898
  806TMC3    C111993   4.671   3.049  15.303  0.9156  0.0624  0.3874
  806TMC3    C211994   4.705   3.097  15.183  0.2175  0.1376  1.0756
  806TMC3    C311995   4.604   3.154  15.108 -0.1821  0.1523 -0.3575
  806TMC3    C411996   4.543   3.043  15.348 -0.1472  0.3277  0.5455
  806TMC3    C511997   4.442   3.082  15.258  0.2928 -0.3123  0.2234
  806TMC3    C611998   4.470   3.143  15.136 -0.0203  0.3123 -0.2091
  806TMC3     C11999   4.723   2.916  15.323 -0.2543  0.9186  0.6850
  806TMC3     O12000   4.709   2.858  15.428 -0.4989  0.1691  0.1782
  806TMC3     H12001   0.034   3.112  15.162  0.1787 -0.9806  0.0909
  806TMC3    H112002   4.510   3.002  15.443  0.9573  0.2408  0.8883
  806TMC3    H212003   4.393   3.204  15.091  0.1127  0.0098 -0.8494
  806TMC3    C712004   4.306   3.082  15.301 -1.2119  0.0195  0.3523
  806TMC3    C812005   4.645   3.227  14.990  0.3648  0.2774  0.4291
  806TMC3    O112006   4.277   3.112  15.411 -0.0883  0.7452 -0.0970
  806TMC3    O212007   4.765   3.255  14.981  0.7060  0.3584  0.7627
  807TMC3    C112008   2.885   0.632  15.439  0.1395  0.4186  0.6147
  807TMC3    C212009   2.940   0.571  15.552 -0.0988  0.2809 -0.0676
  807TMC3    C312010   2.862   0.475  15.609 -0.2675 -0.1137 -0.7262
  807TMC3    C412011   2.762   0.598  15.390 -0.1900 -0.2620 -0.6306
  807TMC3    C512012   2.688   0.499  15.447  0.2330  0.8021 -1.0387
  807TMC3    C612013   2.737   0.442  15.562 -0.2968 -0.4617 -0.0506
  807TMC3     C12014   2.972   0.720  15.371  0.3441 -0.0486 -0.5349
  807TMC3     O12015   3.093   0.709  15.399  0.0274  0.5891 -0.0979
  807TMC3     H12016   3.036   0.600  15.593  0.8218 -0.8631 -1.4087
  807TMC3    H112017   2.731   0.637  15.294 -1.8585  0.8603  0.3626
  807TMC3    H212018   2.681   0.368  15.617 -0.4314 -2.4579 -2.8479
  807TMC3    C712019   2.585   0.443  15.363  0.9342  0.8447 -0.2113
  807TMC3    C812020   2.929   0.384  15.702  0.1276 -0.3958  0.3766
  807TMC3    O112021   2.533   0.526  15.288  0.2276 -0.7159  0.2866
  807TMC3    O212022   2.852   0.315  15.768  0.3877  0.3471  0.2620
  808TMC3    C112023   2.073   4.592   9.733  0.5159  0.3549  0.2982
  808TMC3    C212024   1.948   4.642   9.715  0.7255 -0.1450  0.4250
  808TMC3    C312025   1.861   4.636   9.818 -0.4130 -0.6312 -0.1519
  808TMC3    C412026   2.129   4.554   9.854 -0.1747 -0.9540  0.1647
  808TMC3    C512027   2.040   4.552   9.955  0.2177 -0.1408  0.1010
  808TMC3    C612028   1.910   4.598   9.941 -0.3333 -0.0951 -0.5558
  808TMC3     C12029   2.107   4.506   9.619  0.3569  0.0069  1.1786
  808TMC3     O12030   2.018   4.495   9.539  0.3479 -0.6674  0.1890
  808TMC3     H12031   1.911   4.681   9.621 -1.6370  1.3483  1.9782
  808TMC3    H112032   2.234   4.538   9.877  0.1990  1.1783 -0.0868
  808TMC3    H212033   1.844   4.575  10.023 -0.9409 -0.7123 -1.2185
  808TMC3    C712034   2.068   4.514  10.090 -0.2772 -0.3903  0.0153
  808TMC3    C812035   1.740   4.571   9.776  0.2670 -0.8593 -0.2738
  808TMC3    O112036   2.020   4.588  10.176  0.0224  0.6955  0.3314
  808TMC3    O212037   1.645   4.580   9.853  0.6665  0.8307 -0.2219
  809TMC3    C112038   3.155   1.166  11.062  0.1325 -0.5899 -0.2276
  809TMC3    C212039   3.196   1.217  11.187  0.8044  0.6373 -0.2105
  809TMC3    C312040   3.195   1.354  11.194 -0.1874  0.1637 -0.6066
  809TMC3    C412041   3.137   1.246  10.947  0.2362 -0.0375  0.0746
  809TMC3    C512042   3.149   1.379  10.956 -0.1035 -0.2902 -0.2272
  809TMC3    C612043   3.172   1.437  11.082 -0.3348 -0.2893 -0.3891
  809TMC3     C12044   3.073   1.045  11.073 -0.3007 -0.1116  0.1350
  809TMC3     O12045   3.009   1.041  11.175 -0.1232 -0.1477  0.0579
  809TMC3     H12046   3.185   1.141  11.265 -1.7379  1.5373  0.2801
  809TMC3    H112047   3.103   1.206  10.853  0.6398  3.4325 -1.5616
  809TMC3    H212048   3.174   1.546  11.088 -0.1695 -0.2957 -0.3136
  809TMC3    C712049   3.226   1.444  10.848  0.1219 -0.2122 -0.2553
  809TMC3    C812050   3.110   1.385  11.306 -0.0697  0.9525 -0.6620
  809TMC3    O112051   3.199   1.422  10.730  1.1447  0.4886 -0.4377
  809TMC3    O212052   3.126   1.312  11.403  0.7063 -0.5001 -0.1775
  810TMC3    C112053   0.654   1.324  15.491  0.0778  0.2912 -1.0341
  810TMC3    C212054   0.598   1.374  15.377  0.5051  0.4182  0.2535
  810TMC3    C312055   0.480   1.314  15.333 -0.8239  0.5232 -0.4216
  810TMC3    C412056   0.596   1.213  15.560 -0.3630 -0.2478  0.0312
  810TMC3    C512057   0.487   1.156  15.504 -0.1626 -0.6447  0.1125
  810TMC3    C612058   0.427   1.208  15.393 -0.7490  0.0328 -0.0767
  810TMC3     C12059   0.725   1.418  15.574 -0.0575  0.5139  0.1116
  810TMC3     O12060   0.812   1.476  15.507 -0.1726  0.1502  0.2453
  810TMC3     H12061   0.655   1.439  15.311 -0.6796 -0.3782 -1.5564
  810TMC3    H112062   0.648   1.155  15.635 -1.2877  0.1183  0.9390
  810TMC3    H212063   0.343   1.157  15.347 -0.8071  1.6748 -1.8119
  810TMC3    C712064   0.429   1.046  15.570  0.6886 -0.1417 -0.3141
  810TMC3    C812065   0.405   1.380  15.226 -0.3501 -0.0577  0.4195
  810TMC3    O112066   0.503   0.964  15.627 -0.4005  0.7624 -0.3749
  810TMC3    O212067   0.332   1.309  15.160  0.1614  0.1637  0.4729
  811TMC3    C112068   4.099   0.139  13.402  0.5169 -0.8870 -0.6683
  811TMC3    C212069   4.211   0.085  13.346  0.2510  0.5860  0.0426
  811TMC3    C312070   4.238   4.731  13.370  0.0115 -0.4009  0.6160
  811TMC3    C412071   4.019   0.068  13.489 -0.2957 -0.1529  0.0862
  811TMC3    C512072   4.047   4.705  13.502 -0.8856 -0.4235 -1.0465
  811TMC3    C612073   4.154   4.648  13.438 -0.2261  0.1437  0.0447
  811TMC3     C12074   4.046   0.262  13.340  0.3219 -0.5798  0.3605
  811TMC3     O12075   3.927   0.259  13.320 -0.3902 -0.3763  0.2865
  811TMC3     H12076   4.285   0.141  13.290  2.6053 -0.4921  2.0549
  811TMC3    H112077   3.922   0.107  13.517  0.1165  1.3200 -0.5418
  811TMC3    H212078   4.159   4.541  13.423  2.9018  0.0443  2.0484
  811TMC3    C712079   3.973   4.623  13.598 -0.2142  0.1547  0.2399
  811TMC3    C812080   4.317   4.673  13.261  0.6470  0.3132  0.2836
  811TMC3    O112081   3.880   4.692  13.643 -0.2582 -0.0963 -0.1665
  811TMC3    O212082   4.307   4.731  13.153  0.3016  0.2552  0.3362
  812TMC3    C112083   4.760   3.553   7.398  0.0072 -0.4299 -0.5392
  812TMC3    C212084   0.088   3.485   7.340  0.0220  0.4542 -0.2333
  812TMC3    C312085   0.060   3.404   7.232  0.2434  0.3321  0.2622
  812TMC3    C412086   4.634   3.543   7.350  0.1252  0.1961  0.1539
  812TMC3    C512087   4.603   3.444   7.260  0.5360  0.2759  0.3023
  812TMC3    C612088   4.704   3.372   7.201  0.0236  0.3421 -0.8850
  812TMC3     C12089   0.009   3.653   7.501 -0.7797 -0.0947  0.7869
  812TMC3     O12090   4.704   3.741   7.525  0.1305 -0.0403 -0.1389
  812TMC3     H12091   0.187   3.484   7.385 -0.3842 -1.3900  0.6159
  812TMC3    H112092   4.564   3.602   7.409 -0.7691 -0.5710 -0.1418
  812TMC3    H212093   4.690   3.304   7.118 -0.2499  1.3970 -1.6976
  812TMC3    C712094   4.491   3.467   7.177  0.0434 -0.4748  0.2115
  812TMC3    C812095   0.166   3.319   7.183  0.6361  0.5122  0.9911
  812TMC3    O112096   4.476   3.375   7.097  0.2519  0.5105  0.1761
  812TMC3    O212097   0.144   3.206   7.142 -0.6998 -0.1124 -0.8662
  813TMC3    C112098   4.491   2.820   7.586  0.6717  0.0406  0.7638
  813TMC3    C212099   4.384   2.832   7.500  0.7700  0.1963 -0.0561
  813TMC3    C312100   4.293   2.928   7.529  0.0031  0.4382  0.5557
  813TMC3    C412101   4.510   2.897   7.699 -0.7741  0.8265  0.6640
  813TMC3    C512102   4.416   2.991   7.723 -0.9462  0.6123 -0.5393
  813TMC3    C612103   4.303   2.999   7.642 -0.3930 -0.2104  0.2373
  813TMC3     C12104   4.583   2.702   7.553 -0.2592  0.7694  0.0511
  813TMC3     O12105   4.589   2.660   7.436 -0.1777 -0.6886 -0.3703
  813TMC3     H12106   4.384   2.769   7.412  0.1839  0.7406 -0.4426
  813TMC3    H112107   4.585   2.884   7.776  0.2126  0.4170 -0.3560
  813TMC3    H212108   4.232   3.079   7.658 -2.0647 -1.2901 -1.8293
  813TMC3    C712109   4.443   3.113   7.789  0.1798 -0.0510 -0.0802
  813TMC3    C812110   4.212   2.979   7.421  0.1027  0.1056 -0.4541
  813TMC3    O112111   4.349   3.194   7.796 -0.4593  0.0942  0.3262
  813TMC3    O212112   4.165   3.091   7.433  0.0764  0.4785 -0.1897
  814TMC3    C112113   3.655   4.716   9.480 -0.1655 -0.5977 -0.3086
  814TMC3    C212114   3.592   4.651   9.384 -0.4086  0.0655 -0.2429
  814TMC3    C312115   3.510   4.723   9.303 -0.1763 -0.9584  0.5464
  814TMC3    C412116   3.663   0.082   9.489  0.4454 -0.8169  0.3654
  814TMC3    C512117   3.596   0.151   9.394  0.4626  0.5717  0.5493
  814TMC3    C612118   3.512   0.082   9.307 -0.0441 -0.6953 -0.1615
  814TMC3     C12119   3.739   4.647   9.572  0.5593  0.4618 -0.4397
  814TMC3     O12120   3.838   4.706   9.621 -0.5649  0.4040  0.1473
  814TMC3     H12121   3.610   4.545   9.381 -2.9619 -0.3311 -1.3359
  814TMC3    H112122   3.732   0.119   9.564 -1.1434  2.8356  0.0298
  814TMC3    H212123   3.450   0.134   9.234  1.5998 -0.1664 -1.1864
  814TMC3    C712124   3.586   0.288   9.420  0.4213 -0.4535  0.6850
  814TMC3    C812125   3.414   4.652   9.214  0.6618  0.2098  0.4785
  814TMC3    O112126   3.690   0.336   9.463  0.2381  0.2998 -0.6227
  814TMC3    O212127   3.347   4.713   9.131 -0.2057 -0.0932 -0.1505
  815TMC3    C112128   2.822   0.981  13.809 -0.5048 -0.3423 -0.6303
  815TMC3    C212129   2.761   0.862  13.792 -0.8339  0.2075 -0.9733
  815TMC3    C312130   2.778   0.776  13.900  0.2341  0.2554  0.0010
  815TMC3    C412131   2.899   1.015  13.918  0.6051  0.0178  0.3259
  815TMC3    C512132   2.907   0.922  14.018 -0.4489  0.0485  0.2524
  815TMC3    C612133   2.847   0.800  14.019  0.5999  0.3275 -0.2741
  815TMC3     C12134   2.807   1.086  13.702 -0.0495  0.3383  0.2688
  815TMC3     O12135   2.906   1.159  13.677 -0.7142 -0.4271  0.2762
  815TMC3     H12136   2.710   0.821  13.705  2.3791 -5.1498 -0.3305
  815TMC3    H112137   2.953   1.105  13.894 -0.3974  0.3809 -0.5884
  815TMC3    H212138   2.830   0.736  14.104  2.1054  0.2353 -0.0460
  815TMC3    C712139   2.985   0.962  14.135 -0.6255 -0.5018 -0.2793
  815TMC3    C812140   2.704   0.646  13.906 -0.1330 -0.1909 -0.0894
  815TMC3    O112141   3.008   0.878  14.222  0.0075 -0.0532 -0.3410
  815TMC3    O212142   2.719   0.572  14.001 -0.0812 -0.0835  0.3587
  816TMC3    C112143   2.665   4.744  13.761  0.8512  0.3122  0.6263
  816TMC3    C212144   2.764   4.689  13.688  0.6229  0.2652  0.1775
  816TMC3    C312145   2.790   4.558  13.696 -0.2085 -0.2531  0.0240
  816TMC3    C412146   2.607   4.666  13.858 -0.2720  0.4611 -0.5151
  816TMC3    C512147   2.653   4.540  13.872 -0.8904 -0.0612 -0.2023
  816TMC3    C612148   2.743   4.478  13.796 -0.6671  0.4676 -0.1282
  816TMC3     C12149   2.658   0.109  13.789  0.3778  0.3845 -0.6050
  816TMC3     O12150   2.760   0.181  13.783  0.4912  0.0083  0.1987
  816TMC3     H12151   2.820   4.761  13.629  2.2852 -0.2330  1.1618
  816TMC3    H112152   2.521   4.696  13.917 -0.2488  1.0652 -0.7836
  816TMC3    H212153   2.774   4.374  13.799 -0.5610  0.4836 -0.5738
  816TMC3    C712154   2.595   4.461  13.984 -0.0282 -0.3973  0.1892
  816TMC3    C812155   2.910   4.517  13.639  0.6642  0.1789 -0.0330
  816TMC3    O112156   2.494   4.508  14.040 -0.1216  0.1634  0.4842
  816TMC3    O212157   2.981   4.450  13.712  0.0290  0.6630 -0.2097
  817TMC3    C112158   3.987   0.795  13.416 -0.4645 -0.4716  0.3569
  817TMC3    C212159   3.940   0.667  13.440 -0.0644  0.1104 -0.5328
  817TMC3    C312160   3.825   0.630  13.373  0.2330  0.6287  0.3864
  817TMC3    C412161   3.933   0.878  13.324 -0.0771 -0.0401  0.3809
  817TMC3    C512162   3.811   0.838  13.265  0.2385 -0.7470 -0.1025
  817TMC3    C612163   3.765   0.713  13.284  0.5579 -0.2340  0.1553
  817TMC3     C12164   4.094   0.844  13.506  0.1135  0.2909 -0.3777
  817TMC3     O12165   4.165   0.925  13.451  0.2938  0.0446  0.2947
  817TMC3     H12166   3.985   0.605  13.517 -1.2628  0.3821  0.3965
  817TMC3    H112167   3.964   0.982  13.325 -2.1499  0.5768  0.5807
  817TMC3    H212168   3.668   0.677  13.253  0.5165 -0.1514  0.1907
  817TMC3    C712169   3.711   0.945  13.241 -0.4675  0.5104  0.0549
  817TMC3    C812170   3.748   0.512  13.414  0.0064 -0.1422 -0.0325
  817TMC3    O112171   3.631   0.914  13.150  0.0044 -0.4888 -0.2039
  817TMC3    O212172   3.754   0.486  13.536  0.8977 -0.0029  0.3967
  818TMC3    C112173   3.804   1.780   8.861  0.3307  0.5245 -0.3766
  818TMC3    C212174   3.810   1.700   8.968  1.3286 -0.2704 -0.8027
  818TMC3    C312175   3.689   1.659   9.024 -0.6547  0.3828 -0.2900
  818TMC3    C412176   3.682   1.833   8.814 -0.0608  0.4500 -0.6702
  818TMC3    C512177   3.559   1.778   8.868  0.5337  0.3224 -0.5904
  818TMC3    C612178   3.566   1.693   8.978  0.0640 -0.2324 -0.6416
  818TMC3     C12179   3.934   1.811   8.801  0.3294 -0.4219  0.3585
  818TMC3     O12180   4.027   1.813   8.876 -0.4667  0.4799 -0.7263
  818TMC3     H12181   3.905   1.654   8.993  0.8194 -1.6018 -1.3068
  818TMC3    H112182   3.681   1.906   8.734  4.1756  0.4890 -0.6847
  818TMC3    H212183   3.477   1.646   9.018  0.4199 -0.6615 -0.3449
  818TMC3    C712184   3.431   1.826   8.798  0.2148 -0.6547  0.0329
  818TMC3    C812185   3.699   1.551   9.116 -1.0893 -0.5834  0.2706
  818TMC3    O112186   3.442   1.899   8.702  0.0433 -0.0508 -0.1488
  818TMC3    O212187   3.793   1.478   9.087  0.2415  0.2113 -0.0793
  819TMC3    C112188   2.873   4.215   9.329 -0.4858 -0.3125 -0.2872
  819TMC3    C212189   2.800   4.311   9.393  0.2092  0.1062  0.0734
  819TMC3    C312190   2.820   4.437   9.345  0.2509 -0.3880  0.0017
  819TMC3    C412191   2.940   4.238   9.217  0.2489  0.2705 -0.0152
  819TMC3    C512192   2.955   4.364   9.171 -0.3359 -1.0821  0.1620
  819TMC3    C612193   2.898   4.472   9.237 -0.5851  0.6614 -0.5494
  819TMC3     C12194   2.787   4.095   9.312  0.0090  0.7374  1.0527
  819TMC3     O12195   2.741   4.040   9.411 -0.5729 -0.1526 -0.0510
  819TMC3     H12196   2.724   4.283   9.464  1.7379 -1.2341  1.1605
  819TMC3    H112197   2.999   4.154   9.182 -1.3637 -0.5946 -0.6182
  819TMC3    H212198   2.891   4.568   9.185  3.9101  1.5166  0.4923
  819TMC3    C712199   2.920   4.368   9.028  0.8665 -0.5301 -0.0928
  819TMC3    C812200   2.712   4.521   9.371 -0.1044 -1.1994 -0.2408
  819TMC3    O112201   2.876   4.264   8.978 -0.3585 -0.4513  0.3880
  819TMC3    O212202   2.675   4.578   9.274 -0.3639 -0.1162 -0.0022
  820TMC3    C112203   0.154   2.268   9.594  0.3976  0.7727 -0.1693
  820TMC3    C212204   0.214   2.144   9.590  0.9208  0.5256 -0.0646
  820TMC3    C312205   0.288   2.099   9.699  0.3012 -0.9342  0.2991
  820TMC3    C412206   0.155   2.354   9.709 -0.6444 -0.3374  0.2519
  820TMC3    C512207   0.222   2.299   9.819  0.7270  0.4663 -0.1124
  820TMC3    C612208   0.285   2.179   9.817  0.3058 -1.2658 -0.0397
  820TMC3     C12209   0.050   2.285   9.495  0.3281 -0.5088 -1.0039
  820TMC3     O12210   4.762   2.186   9.468  0.1625  0.1927 -0.6182
  820TMC3     H12211   0.208   2.094   9.494 -0.2462  1.8681 -0.6893
  820TMC3    H112212   0.091   2.441   9.707 -1.1395 -0.7037  0.1468
  820TMC3    H212213   0.348   2.148   9.899  1.8774  0.0525 -0.7565
  820TMC3    C712214   0.231   2.373   9.946  0.0114 -0.2811 -0.2009
  820TMC3    C812215   0.400   1.994   9.671 -0.6415  0.0187  0.1886
  820TMC3    O112216   0.266   2.295  10.034  0.0048 -0.2683 -0.3289
  820TMC3    O212217   0.416   1.909   9.755  0.3676 -0.0429  0.3584
  821TMC3    C112218   1.902   3.809  11.042 -0.5032 -0.1838 -0.2669
  821TMC3    C212219   1.849   3.790  10.923 -1.0972  0.1464 -0.1509
  821TMC3    C312220   1.882   3.872  10.822 -0.0562  0.4177 -0.0118
  821TMC3    C412221   1.992   3.911  11.066  0.2269 -0.2916  0.7038
  821TMC3    C512222   2.014   3.999  10.960 -0.6794 -0.2464  0.5037
  821TMC3    C612223   1.954   3.984  10.843  0.5267  0.0521 -0.4343
  821TMC3     C12224   1.925   3.684  11.101 -0.1547 -0.2403  0.3751
  821TMC3     O12225   1.829   3.606  11.108 -0.0817  0.3058  0.0563
  821TMC3     H12226   1.782   3.707  10.904 -0.9289 -0.0016 -0.1039
  821TMC3    H112227   2.039   3.920  11.163  0.8321 -0.3465  0.4198
  821TMC3    H212228   1.978   4.046  10.757 -2.7788  0.7287 -0.8811
  821TMC3    C712229   2.157   3.978  10.943  0.3193 -0.3930  0.1381
  821TMC3    C812230   1.950   3.801  10.708 -0.2262 -0.1694  0.5913
  821TMC3    O112231   2.203   3.876  10.997 -0.2416  0.0077 -0.3688
  821TMC3    O212232   1.973   3.874  10.604  0.4343  0.3324 -0.2626
  822TMC3    C112233   3.752   2.711   7.262  0.2655 -0.3509  0.9253
  822TMC3    C212234   3.636   2.775   7.224 -0.0884 -0.2259  0.6576
  822TMC3    C312235   3.597   2.787   7.093  0.4518  0.3701  0.2172
  822TMC3    C412236   3.833   2.666   7.166  0.4837  0.1511 -0.7961
  822TMC3    C512237   3.789   2.672   7.035  0.1724 -0.7470 -0.1731
  822TMC3    C612238   3.673   2.733   6.992 -0.4332 -0.0839  0.4152
  822TMC3     C12239   3.795   2.722   7.397 -1.1056  0.1041  0.0018
  822TMC3     O12240   3.712   2.755   7.477 -0.4242  0.1756 -0.0205
  822TMC3     H12241   3.573   2.802   7.308  0.0239  0.5930  0.4752
  822TMC3    H112242   3.934   2.629   7.178  0.7746  1.1189 -0.2319
  822TMC3    H212243   3.656   2.740   6.885  4.5706 -2.3544 -0.5381
  822TMC3    C712244   3.895   2.661   6.936  0.4852 -0.1480  0.4275
  822TMC3    C812245   3.512   2.897   7.052 -0.0096  0.4402  1.1115
  822TMC3    O112246   3.975   2.564   6.937 -0.0818  0.2275 -0.7521
  822TMC3    O212247   3.532   2.931   6.935  0.3746  0.7179  0.0787
  823TMC3    C112248   2.554   2.624  10.937 -0.2821  0.5726 -0.0259
  823TMC3    C212249   2.493   2.704  11.030  0.4648 -0.1940 -0.1286
  823TMC3    C312250   2.562   2.750  11.138  0.3662  0.2462 -0.6087
  823TMC3    C412251   2.685   2.592  10.945 -0.4281  0.0904 -0.2752
  823TMC3    C512252   2.755   2.637  11.059 -0.5561  0.3774 -0.5959
  823TMC3    C612253   2.692   2.716  11.149 -0.2577  0.1570  0.8204
  823TMC3     C12254   2.472   2.538  10.856  0.1824 -0.2726 -0.3792
  823TMC3     O12255   2.531   2.465  10.777 -0.1366  0.6504 -0.2130
  823TMC3     H12256   2.387   2.728  11.026  0.4764 -0.3238 -1.2377
  823TMC3    H112257   2.726   2.513  10.883 -2.9300 -1.5635  0.1893
  823TMC3    H212258   2.745   2.747  11.239  1.2392 -0.1270  0.0342
  823TMC3    C712259   2.829   2.525  11.114 -0.2568  0.3642  0.0642
  823TMC3    C812260   2.490   2.766  11.257 -0.0327 -0.5330  0.2585
  823TMC3    O112261   2.795   2.495  11.229  0.5463  0.3306  0.1896
  823TMC3    O212262   2.378   2.821  11.250  0.3565  0.1715  0.3896
  824TMC3    C112263   1.097   3.746   7.215 -0.2794  0.2755  0.0720
  824TMC3    C212264   1.194   3.663   7.157  0.2013  0.5110  0.2070
  824TMC3    C312265   1.148   3.561   7.083 -0.1609  0.0056 -0.0376
  824TMC3    C412266   0.954   3.722   7.222  0.0383 -0.1614  0.4207
  824TMC3    C512267   0.919   3.615   7.145  0.1869 -0.3266  0.2045
  824TMC3    C612268   1.016   3.532   7.082  0.1594 -1.0743  0.1758
  824TMC3     C12269   1.136   3.889   7.224  0.2631  0.1735 -0.4023
  824TMC3     O12270   1.237   3.930   7.165 -0.4097  0.1514  0.0436
  824TMC3     H12271   1.298   3.695   7.151  0.3302  0.0676  0.0812
  824TMC3    H112272   0.877   3.786   7.263 -0.8004  0.1486 -1.6377
  824TMC3    H212273   0.981   3.451   7.018  1.7927  1.1718 -3.5748
  824TMC3    C712274   0.786   3.561   7.172  1.0425 -0.1051  0.4110
  824TMC3    C812275   1.228   3.474   6.996  0.3000  0.2515 -0.4764
  824TMC3    O112276   0.697   3.631   7.210  0.7197 -0.0258 -0.2009
  824TMC3    O212277   1.167   3.405   6.916 -0.1968  0.0363  0.4413
  825TMC3    C112278   3.119   2.407   6.555  0.2273  0.0272  0.0557
  825TMC3    C212279   3.054   2.434   6.434  0.3880 -0.0650  0.2698
  825TMC3    C312280   2.932   2.495   6.446 -0.6140  0.0172 -0.0371
  825TMC3    C412281   3.070   2.440   6.680 -0.1763  0.1545 -0.6477
  825TMC3    C512282   2.952   2.510   6.680  0.7085 -0.4136 -0.5302
  825TMC3    C612283   2.890   2.550   6.565 -0.3141  0.0425 -0.0207
  825TMC3     C12284   3.256   2.348   6.546 -0.1836 -0.1995 -0.4330
  825TMC3     O12285   3.322   2.364   6.441 -0.1932  0.3802 -0.5587
  825TMC3     H12286   3.092   2.404   6.337  0.1657  0.1079  0.1302
  825TMC3    H112287   3.123   2.433   6.773 -1.3107 -1.6221 -0.1512
  825TMC3    H212288   2.792   2.596   6.563 -0.4469 -0.3139 -1.5232
  825TMC3    C712289   2.891   2.532   6.800 -0.3456  0.7122  0.2416
  825TMC3    C812290   2.824   2.463   6.346  0.1872  0.2584 -0.0470
  825TMC3    O112291   2.790   2.605   6.808 -0.1695  1.1309  0.5977
  825TMC3    O212292   2.728   2.535   6.351  0.1691  0.0972  0.3819
  826TMC3    C112293   3.915   2.169   6.874 -0.1384 -0.4175 -0.4427
  826TMC3    C212294   4.046   2.140   6.879  0.4143 -0.3036  0.0274
  826TMC3    C312295   4.087   2.050   6.969 -1.0149  0.6300 -0.1847
  826TMC3    C412296   3.815   2.108   6.947 -0.4163 -0.7428  0.2566
  826TMC3    C512297   3.860   2.014   7.032 -0.5980 -0.3407 -0.3725
  826TMC3    C612298   3.997   1.991   7.050 -0.2315 -0.5027 -0.0780
  826TMC3     C12299   3.883   2.272   6.774 -0.0869 -0.3200 -0.7830
  826TMC3     O12300   3.967   2.295   6.688  0.4456 -0.1652 -0.0674
  826TMC3     H12301   4.116   2.199   6.820 -2.6537  1.5944 -1.6983
  826TMC3    H112302   3.708   2.124   6.937 -0.7848 -3.1407  0.1607
  826TMC3    H212303   4.031   1.913   7.118  2.9125  0.6558 -0.3202
  826TMC3    C712304   3.764   1.978   7.138  1.1038 -1.0407 -0.0734
  826TMC3    C812305   4.225   2.046   7.010  0.2435 -0.4587  0.3247
  826TMC3    O112306   3.644   1.964   7.104 -0.1759 -0.2262  0.3623
  826TMC3    O212307   4.265   1.941   7.055 -0.2966  0.1249  0.0900
  827TMC3    C112308   1.974   1.909   7.525 -0.4912 -0.6615 -1.2800
  827TMC3    C212309   1.915   1.797   7.578  0.3497 -0.1676 -0.4442
  827TMC3    C312310   1.781   1.809   7.614  0.0507  0.1345 -0.3114
  827TMC3    C412311   1.911   2.023   7.521  0.4030 -0.0451 -0.3519
  827TMC3    C512312   1.779   2.035   7.563  0.0999  0.5811 -0.3690
  827TMC3    C612313   1.706   1.922   7.606  0.4097  0.4826  0.6799
  827TMC3     C12314   2.063   1.890   7.409  0.2307  0.3572 -0.5014
  827TMC3     O12315   2.064   1.969   7.319  0.3748  0.4964 -0.3201
  827TMC3     H12316   1.964   1.701   7.572 -0.5732 -0.6194 -0.7870
  827TMC3    H112317   1.971   2.105   7.481  0.3009  0.2930  0.1821
  827TMC3    H212318   1.602   1.936   7.634 -0.2177 -1.8601 -0.4824
  827TMC3    C712319   1.713   2.161   7.573  0.0228 -0.1215 -0.7032
  827TMC3    C812320   1.709   1.687   7.603  0.5237  0.3250  0.5249
  827TMC3    O112321   1.598   2.162   7.609 -0.6338  0.4065 -0.6366
  827TMC3    O212322   1.746   1.611   7.513 -0.2702  0.2678 -0.1232
  828TMC3    C112323   3.194   2.719  12.531 -0.3600 -0.2723  0.6143
  828TMC3    C212324   3.064   2.759  12.555 -0.0696  0.7771 -0.0567
  828TMC3    C312325   2.973   2.684  12.624  0.2909 -0.0933  0.0254
  828TMC3    C412326   3.236   2.592  12.570 -0.1667  0.1644 -0.1075
  828TMC3    C512327   3.146   2.523  12.638 -0.4608 -0.0999  0.0192
  828TMC3    C612328   3.018   2.560  12.669  0.0171 -0.0105  0.2686
  828TMC3     C12329   3.278   2.806  12.452 -0.0675  0.3400  0.2885
  828TMC3     O12330   3.235   2.914  12.414  0.2795 -0.7536 -0.0309
  828TMC3     H12331   3.044   2.859  12.516  1.1373  1.0812  0.1085
  828TMC3    H112332   3.336   2.554  12.557 -0.5043 -0.4681 -0.8923
  828TMC3    H212333   2.947   2.490  12.712 -0.5630  0.2968 -0.1937
  828TMC3    C712334   3.173   2.384  12.659 -0.5161 -0.3461  0.2758
  828TMC3    C812335   2.837   2.717  12.630  0.7280 -0.9343 -0.2450
  828TMC3    O112336   3.126   2.324  12.758  0.3545 -0.2113 -0.1482
  828TMC3    O212337   2.760   2.652  12.700  0.4860 -0.0285  0.3070
  829TMC3    C112338   0.814   4.146  11.784  0.2381  0.3515  0.2826
  829TMC3    C212339   0.688   4.171  11.739  0.6164 -0.0398  0.2204
  829TMC3    C312340   0.604   4.066  11.724 -0.3962  0.3304 -0.3491
  829TMC3    C412341   0.859   4.020  11.824 -0.8030 -0.2288 -0.2543
  829TMC3    C512342   0.767   3.919  11.812 -0.6841 -0.8995 -1.0785
  829TMC3    C612343   0.647   3.936  11.739  0.4739  0.2170 -0.0698
  829TMC3     C12344   0.880   4.249  11.861  0.6184 -0.3972  0.6345
  829TMC3     O12345   0.980   4.217  11.919 -0.0229 -0.1400 -0.0027
  829TMC3     H12346   0.641   4.267  11.719  0.6308  0.0115  0.4327
  829TMC3    H112347   0.960   4.003  11.859  0.1027  2.4790 -1.5480
  829TMC3    H212348   0.572   3.857  11.743 -0.2225  0.8646 -0.3024
  829TMC3    C712349   0.769   3.815  11.916  0.3371  0.4435  0.1719
  829TMC3    C812350   0.469   4.092  11.688 -0.1804  0.9786 -0.2975
  829TMC3    O112351   0.660   3.761  11.925 -0.4685  0.4745  0.2824
  829TMC3    O212352   0.448   4.196  11.627  0.0834 -0.2144  0.0574
  830TMC3    C112353   0.994   0.327   7.014  0.4803  0.5776 -0.1907
  830TMC3    C212354   0.936   0.343   7.134 -0.0925  0.7233 -0.1920
  830TMC3    C312355   0.842   0.253   7.178  0.4707  0.2669 -1.0654
  830TMC3    C412356   0.978   0.209   6.942 -0.3580 -0.1881 -1.0151
  830TMC3    C512357   0.886   0.123   6.991 -0.3842  0.4220  0.0269
  830TMC3    C612358   0.808   0.143   7.102 -0.2246 -0.3359 -0.3323
  830TMC3     C12359   1.109   0.414   6.983 -0.7813 -0.4862  0.8504
  830TMC3     O12360   1.164   0.470   7.078 -0.1867  0.6834  0.5854
  830TMC3     H12361   0.962   0.432   7.190 -0.8930  2.4701 -2.5890
  830TMC3    H112362   1.035   0.185   6.853 -0.6699  0.5391 -1.4153
  830TMC3    H212363   0.720   0.085   7.127 -0.1185 -0.0920  0.5777
  830TMC3    C712364   0.875   4.775   6.922  0.2947  0.8943  0.2058
  830TMC3    C812365   0.775   0.289   7.300 -0.0161 -0.5573  0.4213
  830TMC3    O112366   0.926   4.766   6.812  0.2308  0.0782 -0.1811
  830TMC3    O212367   0.789   0.401   7.338  0.0344  0.4306 -0.5220
  831TMC3    C112368   2.641   2.304  10.421  0.6508  0.1560  0.4013
  831TMC3    C212369   2.763   2.308  10.346 -0.3112 -0.5791  0.0182
  831TMC3    C312370   2.877   2.245  10.394 -0.2861 -0.3437 -0.0263
  831TMC3    C412371   2.644   2.262  10.558  0.2805 -0.6475 -0.5406
  831TMC3    C512372   2.760   2.208  10.608 -0.8395  0.4836 -1.0696
  831TMC3    C612373   2.874   2.200  10.525  0.1302  0.1668 -0.2014
  831TMC3     C12374   2.517   2.358  10.355 -0.1011 -0.1195  0.4941
  831TMC3     O12375   2.510   2.328  10.238  0.4244 -0.0456  0.0341
  831TMC3     H12376   2.751   2.346  10.245  0.6125 -0.6364 -0.1138
  831TMC3    H112377   2.556   2.279  10.619  2.3757  0.5747  2.1250
  831TMC3    H212378   2.957   2.142  10.565 -0.8233 -1.0783  0.0013
  831TMC3    C712379   2.785   2.172  10.744 -0.6204  0.0716  0.3073
  831TMC3    C812380   3.000   2.294  10.335 -0.1563 -0.0868 -0.1528
  831TMC3    O112381   2.874   2.094  10.763 -0.7007  0.5187  0.2259
  831TMC3    O212382   3.004   2.314  10.214 -0.2080  0.2842  0.9468
  832TMC3    C112383   4.492   3.373  11.881 -0.9600  0.5852  0.1472
  832TMC3    C212384   4.515   3.372  12.012 -0.0257 -0.2203 -0.1757
  832TMC3    C312385   4.583   3.472  12.070  0.4317 -0.3197 -0.0089
  832TMC3    C412386   4.526   3.481  11.805 -0.6610  0.0078  0.5198
  832TMC3    C512387   4.598   3.581  11.866 -0.4647 -0.3712  0.6783
  832TMC3    C612388   4.631   3.581  12.004  0.2078 -0.1170 -0.0569
  832TMC3     C12389   4.489   3.244  11.810 -0.6943  0.3277  0.1728
  832TMC3     O12390   4.461   3.251  11.693 -0.0462 -0.5159 -0.6612
  832TMC3     H12391   4.489   3.288  12.076  2.1612 -0.2596  0.6658
  832TMC3    H112392   4.497   3.485  11.701  0.9260  0.5108  0.0930
  832TMC3    H212393   4.675   3.660  12.064 -1.8379 -0.2115  1.5279
  832TMC3    C712394   4.638   3.692  11.779  0.0112 -0.1785  0.0902
  832TMC3    C812395   4.604   3.452  12.210 -0.4769 -0.2198  0.0416
  832TMC3    O112396   4.563   3.728  11.691  0.2302 -0.5557  0.2418
  832TMC3    O212397   4.516   3.388  12.272  0.1803  0.4437  0.3865
  833TMC3    C112398   4.183   1.673  12.102 -0.3190 -0.8635 -1.0717
  833TMC3    C212399   4.089   1.777  12.111 -0.1868  0.3283 -0.2912
  833TMC3    C312400   4.119   1.901  12.057 -0.2124  0.2441 -0.7156
  833TMC3    C412401   4.295   1.696  12.030 -0.1064 -0.5715  0.1994
  833TMC3    C512402   4.313   1.818  11.977 -0.6464  0.5552 -0.2013
  833TMC3    C612403   4.235   1.927  11.990  0.1707  0.4208 -0.2633
  833TMC3     C12404   4.191   1.576  12.208  0.0852 -0.1379  0.8626
  833TMC3     O12405   4.221   1.460  12.181  0.4606  0.3107 -0.1161
  833TMC3     H12406   4.000   1.770  12.171  0.1822 -0.5082  0.1554
  833TMC3    H112407   4.362   1.612  12.016 -0.4971 -0.9405  0.5564
  833TMC3    H212408   4.281   2.023  11.974  1.7250 -0.5445 -1.5319
  833TMC3    C712409   4.443   1.855  11.928  0.8779  0.7964 -0.5474
  833TMC3    C812410   4.094   2.003  12.155  0.7177 -0.0451 -1.0013
  833TMC3    O112411   4.449   1.946  11.841 -0.3999 -0.1640  0.3119
  833TMC3    O212412   4.066   1.961  12.265 -0.4303  0.1594  0.4688
  834TMC3    C112413   1.464   3.772  13.791  0.1107  0.0861 -0.0645
  834TMC3    C212414   1.525   3.871  13.725  0.5137 -0.1094 -0.6673
  834TMC3    C312415   1.659   3.894  13.760  0.0659 -0.0356 -0.6443
  834TMC3    C412416   1.526   3.688  13.880 -0.7361 -0.2858  0.5687
  834TMC3    C512417   1.649   3.721  13.917 -0.0957 -0.4301  0.7230
  834TMC3    C612418   1.719   3.825  13.864 -0.2502 -0.2858 -0.2087
  834TMC3     C12419   1.321   3.790  13.810  0.7266 -0.8622  0.3580
  834TMC3     O12420   1.270   3.711  13.889  0.1959 -0.7384 -0.4931
  834TMC3     H12421   1.491   3.918  13.633  1.2065  1.1942 -0.2623
  834TMC3    H112422   1.467   3.603  13.913 -1.8665  0.4126  0.3372
  834TMC3    H212423   1.816   3.853  13.904 -1.1085  0.4642  1.3274
  834TMC3    C712424   1.689   3.671  14.044 -0.0250 -0.0663 -0.6161
  834TMC3    C812425   1.733   3.998  13.698  0.6850 -0.4514 -0.2102
  834TMC3    O112426   1.776   3.740  14.098  0.1369  0.3954 -0.1098
  834TMC3    O212427   1.662   4.081  13.645  0.1562 -0.1598  0.0546
  835TMC3    C112428   3.193   3.753  14.339 -0.5941  0.1857  0.2562
  835TMC3    C212429   3.092   3.828  14.300 -0.7057  1.1855  0.4149
  835TMC3    C312430   2.975   3.755  14.281  1.0415 -0.2485 -0.3193
  835TMC3    C412431   3.203   3.619  14.346  0.6004  0.2512  0.2276
  835TMC3    C512432   3.094   3.547  14.322  0.0045  0.9132 -0.6098
  835TMC3    C612433   2.982   3.617  14.284  0.1565  0.1726  0.8694
  835TMC3     C12434   3.299   3.830  14.403 -0.2492  0.4357 -0.9019
  835TMC3     O12435   3.405   3.776  14.429 -0.2645  0.1676 -0.5791
  835TMC3     H12436   3.101   3.934  14.279  0.8639  0.8752 -0.4967
  835TMC3    H112437   3.304   3.579  14.338  0.6771  0.7310 -1.0690
  835TMC3    H212438   2.890   3.559  14.281 -0.0061  0.5552 -1.2421
  835TMC3    C712439   3.109   3.406  14.268  0.6732 -0.2273  0.2527
  835TMC3    C812440   2.840   3.820  14.270 -0.1666  0.0670 -0.2345
  835TMC3    O112441   3.020   3.372  14.193  0.1080 -0.1578  0.4802
  835TMC3    O212442   2.743   3.752  14.287  0.7542  0.2144 -0.0512
  836TMC3    C112443   0.873   0.738   7.953  0.7968 -0.4428 -0.3834
  836TMC3    C212444   0.804   0.718   8.075 -0.4428 -0.1039 -0.3400
  836TMC3    C312445   0.683   0.663   8.069 -0.3148  0.8706  0.3303
  836TMC3    C412446   0.816   0.712   7.829 -0.3001  0.2714 -0.7095
  836TMC3    C512447   0.692   0.652   7.840 -0.3784  0.1360  0.6637
  836TMC3    C612448   0.627   0.619   7.953  0.1308  0.5197  0.5008
  836TMC3     C12449   0.997   0.812   7.965 -0.3107  0.1351 -0.0558
  836TMC3     O12450   1.046   0.818   8.079 -0.0346  0.8042 -0.0671
  836TMC3     H12451   0.840   0.751   8.172 -0.2935  0.3600 -0.5547
  836TMC3    H112452   0.860   0.709   7.730  1.4775 -1.1727  0.1293
  836TMC3    H212453   0.531   0.569   7.954  0.0794  0.6897  4.0624
  836TMC3    C712454   0.669   0.561   7.731  0.0933  0.1231  0.6658
  836TMC3    C812455   0.632   0.625   8.194  0.8419 -0.7874  0.1908
  836TMC3    O112456   0.670   0.609   7.620 -0.4231 -0.2332  0.2702
  836TMC3    O212457   0.719   0.579   8.274  0.4363  0.0320  0.0989
  837TMC3    C112458   0.852   1.584   8.176 -0.6712 -0.2395  0.0034
  837TMC3    C212459   0.940   1.511   8.101  0.6402  0.1665 -0.1443
  837TMC3    C312460   0.975   1.563   7.981 -0.3576  0.7005 -0.5697
  837TMC3    C412461   0.825   1.716   8.139  0.7575 -0.0791  0.4160
  837TMC3    C512462   0.886   1.765   8.023  0.2781  0.5371  0.7234
  837TMC3    C612463   0.959   1.688   7.937  0.1221  0.7350 -0.2195
  837TMC3     C12464   0.864   1.563   8.323 -0.8157  0.0779  0.3144
  837TMC3     O12465   0.837   1.454   8.374 -0.4266  0.5617  0.1762
  837TMC3     H12466   0.951   1.405   8.126  2.0396  0.3041 -0.1706
  837TMC3    H112467   0.762   1.782   8.198 -1.7253 -1.4924 -0.6873
  837TMC3    H212468   0.975   1.718   7.834 -0.8358  0.1066 -0.5509
  837TMC3    C712469   0.863   1.903   7.991 -0.2416  0.1651 -0.1497
  837TMC3    C812470   1.062   1.487   7.895 -0.0254 -0.3772 -0.5633
  837TMC3    O112471   0.829   1.979   8.082 -0.3637 -1.0678 -0.2011
  837TMC3    O212472   1.056   1.365   7.896  0.0722 -0.3610  0.0550
  838TMC3    C112473   4.386   1.307  15.978  0.0655 -0.1496  0.4731
  838TMC3    C212474   4.492   1.218  15.964 -0.1477 -0.2592  1.0842
  838TMC3    C312475   4.464   1.090  15.933 -0.6151  0.1998  0.1015
  838TMC3    C412476   4.258   1.271  15.947  0.6932  0.3377  0.9810
  838TMC3    C512477   4.233   1.144  15.911 -0.8587 -0.3390  0.0440
  838TMC3    C612478   4.336   1.050  15.900 -0.4696 -0.3761  0.3952
  838TMC3     C12479   4.419   1.437  15.938  0.3553  0.6548  0.0985
  838TMC3     O12480   4.511   1.491  16.001 -0.4854  0.1540 -0.0065
  838TMC3     H12481   4.589   1.246  16.003  0.7100  0.0639 -1.3169
  838TMC3    H112482   4.181   1.345  15.966  0.5293 -0.2344  2.6138
  838TMC3    H212483   4.322   0.949  15.865  0.0100  0.0492 -1.0409
  838TMC3    C712484   4.089   1.107  15.887  0.1455 -0.4223 -0.1306
  838TMC3    C812485   4.571   0.998  15.908  0.4574  0.2669 -0.0770
  838TMC3    O112486   4.007   1.186  15.927  0.0886 -0.1926  0.5461
  838TMC3    O212487   4.546   0.879  15.900  0.0679 -0.0576  0.4209
  839TMC3    C112488   4.095   1.375   8.508  0.6403 -0.0884 -0.3418
  839TMC3    C212489   4.150   1.313   8.400  0.7882  0.3516  0.6269
  839TMC3    C312490   4.211   1.197   8.424  0.5462 -0.7202 -0.0443
  839TMC3    C412491   4.114   1.334   8.636  0.0141 -0.1407 -1.0080
  839TMC3    C512492   4.177   1.220   8.656  0.1374  0.1443  0.3136
  839TMC3    C612493   4.223   1.149   8.554  0.6331  0.4753  0.3884
  839TMC3     C12494   3.968   1.447   8.481  0.3163 -0.0481  0.3688
  839TMC3     O12495   3.946   1.485   8.368  0.2886  0.0614 -0.0313
  839TMC3     H12496   4.131   1.331   8.295 -2.5747 -0.9848  1.0166
  839TMC3    H112497   4.079   1.394   8.719  0.3690 -1.3954  0.0447
  839TMC3    H212498   4.247   1.044   8.567  0.5724  0.5727  1.2798
  839TMC3    C712499   4.116   1.150   8.766 -0.4630 -0.3731  0.2285
  839TMC3    C812500   4.157   1.089   8.343 -0.3188 -0.2928  0.5297
  839TMC3    O112501   4.143   1.185   8.882 -0.6205 -0.3931 -0.1468
  839TMC3    O212502   4.077   1.022   8.407  0.2165  0.0105 -0.0426
  840TMC3    C112503   1.467   0.798  11.586 -1.0530  0.5420 -0.0627
  840TMC3    C212504   1.452   0.794  11.726 -0.1937 -0.4115  0.5800
  840TMC3    C312505   1.533   0.704  11.801 -0.4743 -0.3755 -0.0481
  840TMC3    C412506   1.544   0.697  11.523 -0.3389  0.9494  0.0144
  840TMC3    C512507   1.597   0.598  11.601  0.3511 -0.4383  1.0841
  840TMC3    C612508   1.611   0.607  11.739  0.1751  0.2214  0.4456
  840TMC3     C12509   1.360   0.855  11.520 -0.1716 -0.1834  0.7064
  840TMC3     O12510   1.296   0.950  11.569 -1.0859  0.4783  0.1402
  840TMC3     H12511   1.394   0.873  11.772  0.3234  0.3151 -0.0313
  840TMC3    H112512   1.566   0.691  11.417  2.7827  1.7447  0.6095
  840TMC3    H212513   1.653   0.519  11.788  0.4270 -1.0225 -1.9902
  840TMC3    C712514   1.653   0.477  11.547  0.2047  0.1312  0.2294
  840TMC3    C812515   1.518   0.693  11.940 -0.3072  0.1486  0.4650
  840TMC3    O112516   1.770   0.463  11.571 -0.2409 -0.3870 -0.1283
  840TMC3    O212517   1.448   0.775  11.993  0.1764 -0.0226 -0.2596
  841TMC3    C112518   0.918   2.281  12.915 -0.1189 -0.0531 -0.0336
  841TMC3    C212519   0.787   2.292  12.961  0.0605  0.3050  0.2875
  841TMC3    C312520   0.717   2.413  12.948 -0.1950 -0.2743  0.8123
  841TMC3    C412521   0.974   2.388  12.853 -0.3196  0.6630  0.0128
  841TMC3    C512522   0.894   2.497  12.824  0.6500  0.5305 -0.3063
  841TMC3    C612523   0.770   2.514  12.871  0.4546 -0.3376  0.0551
  841TMC3     C12524   0.997   2.166  12.949  0.4287  0.4430 -0.1624
  841TMC3     O12525   0.981   2.129  13.063 -0.4343  0.0446 -0.0370
  841TMC3     H12526   0.759   2.214  13.030 -1.7395  0.2435 -0.5165
  841TMC3    H112527   1.081   2.387  12.834 -0.6071  0.0971 -1.5900
  841TMC3    H212528   0.702   2.598  12.859 -1.2282 -1.4088  2.0345
  841TMC3    C712529   0.962   2.618  12.782 -0.2328  0.1863 -0.7755
  841TMC3    C812530   0.595   2.399  13.022 -0.7278 -0.1079 -0.0274
  841TMC3    O112531   0.974   2.652  12.664  0.6823 -0.0318 -0.1044
  841TMC3    O212532   0.565   2.298  13.079 -0.4863  0.4605 -0.5436
  842TMC3    C112533   0.178   0.541  14.199 -0.0159  0.6814 -0.2392
  842TMC3    C212534   0.068   0.543  14.120  0.4322  0.1105  0.1766
  842TMC3    C312535   0.071   0.617  14.000  0.5399  0.0743  0.1837
  842TMC3    C412536   0.296   0.600  14.166 -0.5923 -0.3030  0.5591
  842TMC3    C512537   0.296   0.681  14.053  0.6411 -0.3741 -0.1471
  842TMC3    C612538   0.186   0.690  13.974 -0.4420 -0.6926 -0.4757
  842TMC3     C12539   0.149   0.569  14.338 -0.0379 -0.3441 -0.3493
  842TMC3     O12540   0.087   0.485  14.401 -0.0822  0.4800 -0.7222
  842TMC3     H12541   4.754   0.493  14.153 -0.5587  1.4762 -0.4338
  842TMC3    H112542   0.384   0.579  14.226 -0.3838  0.0090  0.3629
  842TMC3    H212543   0.201   0.750  13.885 -0.7836  1.4168  0.9033
  842TMC3    C712544   0.427   0.662  13.980 -0.1734  0.2502  0.6547
  842TMC3    C812545   0.060   0.517  13.897  0.6285  0.5033 -0.6231
  842TMC3    O112546   0.498   0.577  14.032 -0.4422  0.6251  0.0145
  842TMC3    O212547   4.769   0.418  13.921 -0.2542  0.2259 -0.1163
  843TMC3    C112548   2.435   4.241  13.250  0.4182 -0.5231  0.2977
  843TMC3    C212549   2.448   4.377  13.277  0.0083  0.1854 -0.1890
  843TMC3    C312550   2.550   4.415  13.361  0.0449 -0.3089  0.2632
  843TMC3    C412551   2.500   4.150  13.325  0.4260 -0.1997 -0.0711
  843TMC3    C512552   2.601   4.187  13.408 -0.2171 -0.3651  0.0856
  843TMC3    C612553   2.633   4.322  13.414 -0.7097  0.3115 -0.0452
  843TMC3     C12554   2.332   4.189  13.163 -0.1548  0.2385  0.6038
  843TMC3     O12555   2.296   4.076  13.186  0.0074  0.0016 -0.0299
  843TMC3     H12556   2.391   4.452  13.223  0.0497 -1.1830 -2.1093
  843TMC3    H112557   2.474   4.046  13.307 -1.2095 -0.0499  1.5036
  843TMC3    H212558   2.719   4.360  13.468 -1.8986 -0.9987  2.7673
  843TMC3    C712559   2.700   4.089  13.445 -0.0317  0.6666 -0.7462
  843TMC3    C812560   2.562   4.555  13.371 -0.9075 -0.6458  0.1874
  843TMC3    O112561   2.807   4.140  13.478 -0.1290 -0.2933 -0.1746
  843TMC3    O212562   2.675   4.597  13.391  0.0489  0.5088 -0.2493
  844TMC3    C112563   0.775   2.469   6.105 -0.2025 -0.2231 -0.0342
  844TMC3    C212564   0.752   2.332   6.102  0.0815 -0.3860  0.5413
  844TMC3    C312565   0.739   2.279   6.231  0.0853 -0.1520  0.3903
  844TMC3    C412566   0.792   2.538   6.220  0.1131 -0.0559  0.0961
  844TMC3    C512567   0.788   2.474   6.341 -0.0108  0.0144 -0.6334
  844TMC3    C612568   0.767   2.342   6.348 -0.2022 -0.0131  0.7352
  844TMC3     C12569   0.754   2.552   5.987 -0.6928 -0.3955  0.0112
  844TMC3     O12570   0.790   2.518   5.876  0.2377 -0.3543 -0.3120
  844TMC3     H12571   0.731   2.276   6.012 -0.9017  1.6294 -0.4879
  844TMC3    H112572   0.826   2.640   6.214  1.9746 -0.6790 -0.1600
  844TMC3    H212573   0.755   2.299   6.447 -2.4384 -1.6693 -0.2326
  844TMC3    C712574   0.777   2.556   6.455  0.2169  0.2725  0.5515
  844TMC3    C812575   0.668   2.152   6.239  0.4886  0.2206  0.3108
  844TMC3    O112576   0.797   2.510   6.566  0.0067  0.4449  0.1239
  844TMC3    O212577   0.575   2.134   6.161  0.4823  0.0079 -0.0748
  845TMC3    C112578   4.110   4.245  15.649  0.1576  0.3246 -0.3201
  845TMC3    C212579   4.208   4.329  15.683 -0.1970  0.3278 -0.4008
  845TMC3    C312580   4.337   4.306  15.639 -0.4969 -0.1954 -0.5219
  845TMC3    C412581   4.136   4.132  15.576  0.4934  0.2450 -0.4321
  845TMC3    C512582   4.262   4.100  15.534 -0.3278 -0.1965 -0.0902
  845TMC3    C612583   4.360   4.194  15.561  0.0836 -0.9662 -0.0777
  845TMC3     C12584   3.966   4.279  15.668  0.3836  0.1938  0.2773
  845TMC3     O12585   3.879   4.222  15.604 -0.2333 -0.2714 -0.3812
  845TMC3     H12586   4.182   4.426  15.725 -0.6666  0.1642 -0.3151
  845TMC3    H112587   4.055   4.063  15.553 -0.8684  1.7701 -0.2343
  845TMC3    H212588   4.456   4.169  15.517  0.8730 -0.2250  1.2154
  845TMC3    C712589   4.262   3.985  15.444  0.2298  0.8673 -0.1636
  845TMC3    C812590   4.419   4.430  15.635  0.4421 -0.0514  0.6145
  845TMC3    O112591   4.175   3.901  15.448 -0.0894  0.1743  0.7890
  845TMC3    O212592   4.375   4.533  15.690  0.0499 -0.3270 -0.0053
  846TMC3    C112593   4.129   3.505  12.208  0.8171 -0.1667 -0.7096
  846TMC3    C212594   4.049   3.531  12.100  0.3280  0.2561 -0.2688
  846TMC3    C312595   4.048   3.654  12.040  0.3660  0.3035  0.4456
  846TMC3    C412596   4.200   3.605  12.264 -0.5311 -0.0509  0.4118
  846TMC3    C512597   4.191   3.735  12.208  0.4066 -0.0572 -0.0782
  846TMC3    C612598   4.124   3.756  12.086 -0.1158 -0.3715 -0.5981
  846TMC3     C12599   4.090   3.396  12.299  0.1133  0.1062 -1.1471
  846TMC3     O12600   4.180   3.335  12.350  0.0937 -0.1132 -0.3428
  846TMC3     H12601   3.990   3.447  12.066 -0.5493  0.1571  1.5084
  846TMC3    H112602   4.247   3.593  12.361  2.9905  1.2124 -1.1481
  846TMC3    H212603   4.124   3.856  12.044  0.9154 -0.4389 -0.7543
  846TMC3    C712604   4.204   3.850  12.295  0.5662 -0.1123  0.3301
  846TMC3    C812605   3.943   3.686  11.941 -0.4068  0.1285 -0.0202
  846TMC3    O112606   4.203   3.822  12.419  0.0650  0.2110 -0.6046
  846TMC3    O212607   3.875   3.590  11.905 -0.3595  0.2978 -0.4588
  847TMC3    C112608   4.601   1.313   7.700 -0.5025 -0.2083  0.0331
  847TMC3    C212609   4.493   1.359   7.768 -0.3841 -0.1455  0.1808
  847TMC3    C312610   4.476   1.497   7.771 -0.6144 -0.4754  0.1042
  847TMC3    C412611   4.693   1.391   7.643  0.2597 -0.6337  0.4133
  847TMC3    C512612   4.682   1.524   7.672  0.0108  0.6344 -0.1096
  847TMC3    C612613   4.569   1.582   7.723 -0.2401  0.1668  0.2700
  847TMC3     C12614   4.637   1.174   7.726  0.4240 -0.4354 -0.5288
  847TMC3     O12615   4.688   1.111   7.634 -0.7052  0.0322  0.0367
  847TMC3     H12616   4.424   1.293   7.820 -1.5028  0.1726 -0.9023
  847TMC3    H112617   0.009   1.353   7.601 -0.0191  0.1107 -0.8663
  847TMC3    H212618   4.548   1.687   7.738 -0.4010  0.1059  0.4756
  847TMC3    C712619   4.739   1.609   7.569 -0.2906 -0.2274 -0.2202
  847TMC3    C812620   4.402   1.544   7.886  0.2357 -0.6264 -0.5345
  847TMC3    O112621   4.672   1.707   7.534 -0.1652  0.0962  0.1060
  847TMC3    O212622   4.304   1.473   7.918 -0.3250 -0.6988 -0.0117
  848TMC3    C112623   3.314   4.265  10.669 -0.3038  0.2749  0.7878
  848TMC3    C212624   3.302   4.345  10.552 -0.5300  0.3670  0.8165
  848TMC3    C312625   3.216   4.447  10.551 -0.4298  0.5000  0.9608
  848TMC3    C412626   3.259   4.301  10.794 -0.3540 -0.1238  0.1009
  848TMC3    C512627   3.172   4.403  10.791 -0.1428 -0.6947  0.1985
  848TMC3    C612628   3.151   4.465  10.670 -0.3933 -0.0522  0.0415
  848TMC3     C12629   3.375   4.128  10.656 -0.2473 -0.4834 -1.1570
  848TMC3     O12630   3.452   4.116  10.562  0.4620 -0.5851 -0.2923
  848TMC3     H12631   3.356   4.324  10.461 -1.2653  1.9139  0.0233
  848TMC3    H112632   3.260   4.233  10.878  1.5643  0.6944  0.7494
  848TMC3    H212633   3.069   4.536  10.661 -0.9213 -0.4546  1.6267
  848TMC3    C712634   3.158   4.490  10.902  0.4240  0.2299  0.3994
  848TMC3    C812635   3.277   4.572  10.503  0.4577 -0.2760 -0.2032
  848TMC3    O112636   3.061   4.564  10.900  0.2328  0.2028 -0.2069
  848TMC3    O212637   3.337   4.570  10.395  1.0610  0.4319 -0.4467
  849TMC3    C112638   1.865   2.630  13.069  0.5276  0.2053 -0.1560
  849TMC3    C212639   1.785   2.652  13.184  0.6166 -0.5967  0.2520
  849TMC3    C312640   1.703   2.764  13.178  0.3984  0.5738  0.1080
  849TMC3    C412641   1.870   2.726  12.971 -0.0189  0.2036 -0.3116
  849TMC3    C512642   1.783   2.837  12.980 -0.2956  0.8374  0.5672
  849TMC3    C612643   1.694   2.852  13.084  0.9803  0.7664 -0.7333
  849TMC3     C12644   1.944   2.510  13.063 -0.1021 -0.5771  0.5584
  849TMC3     O12645   1.925   2.433  13.153 -0.2488 -0.6784 -0.0193
  849TMC3     H12646   1.781   2.591  13.274 -0.4432  0.3549  0.8473
  849TMC3    H112647   1.934   2.717  12.884  0.6508 -0.8484  0.2946
  849TMC3    H212648   1.624   2.934  13.085 -0.9022 -0.8506 -0.1629
  849TMC3    C712649   1.796   2.946  12.876  0.1572  0.1098 -0.1697
  849TMC3    C812650   1.593   2.773  13.276 -0.2863 -0.4134 -0.2340
  849TMC3    O112651   1.902   2.928  12.814  0.4816 -0.4941  0.9277
  849TMC3    O212652   1.486   2.814  13.229 -0.2894  0.6522 -0.1763
  850TMC3    C112653   0.006   3.914  11.353 -0.7427  0.1830 -0.5968
  850TMC3    C212654   0.135   3.957  11.373 -1.4784 -0.1122 -0.6198
  850TMC3    C312655   0.171   4.084  11.330 -0.2088  0.2386 -0.1858
  850TMC3    C412656   4.692   3.998  11.285  0.0988  0.1955  0.4623
  850TMC3    C512657   4.736   4.126  11.253  0.4769  0.4775 -0.1635
  850TMC3    C612658   0.090   4.170  11.260  0.3455 -0.1765  0.0690
  850TMC3     C12659   4.744   3.776  11.381 -0.3903 -0.4031  0.4029
  850TMC3     O12660   0.043   3.706  11.448 -0.5524 -0.0996 -0.4283
  850TMC3     H12661   0.201   3.892  11.428 -0.2446  1.2616 -0.4972
  850TMC3    H112662   4.588   3.967  11.287  0.1268 -0.1503 -2.6366
  850TMC3    H212663   0.122   4.270  11.233  0.7322 -0.4546 -0.5109
  850TMC3    C712664   4.660   4.205  11.155  0.1180  0.4173 -0.1083
  850TMC3    C812665   0.313   4.095  11.294  0.0291  0.5957 -0.5713
  850TMC3    O112666   4.696   4.316  11.116  0.5356 -0.4164 -0.5003
  850TMC3    O212667   0.373   3.992  11.290 -0.0339 -0.1453  0.3836
  851TMC3    C112668   4.650   1.384  12.696  0.5754  0.4223  0.2793
  851TMC3    C212669   4.594   1.283  12.763  1.0017  0.3098 -0.2555
  851TMC3    C312670   4.537   1.306  12.886 -0.5240 -0.2105 -1.2998
  851TMC3    C412671   4.644   1.511  12.740  0.2638  0.2162  0.2531
  851TMC3    C512672   4.588   1.530  12.858  0.4500  0.4498  0.2181
  851TMC3    C612673   4.539   1.436  12.940 -0.3035 -0.1829  0.5586
  851TMC3     C12674   4.715   1.353  12.570 -0.6227 -0.2361  0.5589
  851TMC3     O12675   4.706   1.232  12.540  0.5080 -0.1550 -0.7487
  851TMC3     H12676   4.585   1.179  12.733 -1.7849  0.0771  1.3973
  851TMC3    H112677   4.706   1.589  12.699  0.3872  0.1564  0.3240
  851TMC3    H212678   4.495   1.463  13.035 -0.6469 -2.5012  1.0562
  851TMC3    C712679   4.561   1.673  12.882 -0.8569 -0.3182 -0.3000
  851TMC3    C812680   4.443   1.200  12.928 -0.5739 -0.0613 -0.7381
  851TMC3    O112681   4.569   1.746  12.785  0.2873 -0.2468 -0.1492
  851TMC3    O212682   4.465   1.083  12.899 -0.6437  0.0937  0.9336
  852TMC3    C112683   1.989   4.475  13.203  0.2608  0.2405  0.0462
  852TMC3    C212684   2.030   4.589  13.152  0.5179 -0.1706 -0.5523
  852TMC3    C312685   1.962   4.630  13.039 -0.3063 -0.2610 -0.5330
  852TMC3    C412686   1.903   4.395  13.138 -0.4842  0.4005 -0.5474
  852TMC3    C512687   1.831   4.441  13.032 -0.1308  1.2495  0.1888
  852TMC3    C612688   1.864   4.560  12.974 -0.2756  0.1992  0.0160
  852TMC3     C12689   2.055   4.424  13.319 -1.0311  0.0032  0.9038
  852TMC3     O12690   2.167   4.470  13.342  0.1181 -0.4730  0.0138
  852TMC3     H12691   2.090   4.662  13.205 -2.2111  1.3752  0.4130
  852TMC3    H112692   1.882   4.299  13.185 -0.4511  0.5538 -0.2254
  852TMC3    H212693   1.831   4.577  12.872  0.9277  2.4663 -0.0044
  852TMC3    C712694   1.702   4.380  13.002 -0.1606 -0.2302 -0.6779
  852TMC3    C812695   1.992   4.761  12.986 -0.0752 -0.1606 -0.0285
  852TMC3    O112696   1.694   4.259  13.011  0.3106 -0.0126  0.0015
  852TMC3    O212697   2.105   0.029  12.984  0.4589 -0.3655 -0.0886
  853TMC3    C112698   4.542   4.302   7.514  0.4738  0.2240  0.2491
  853TMC3    C212699   4.530   4.356   7.640  0.1496 -0.3071 -0.0975
  853TMC3    C312700   4.648   4.401   7.692 -0.4003  0.1525 -1.0922
  853TMC3    C412701   4.651   4.301   7.442 -0.5270  0.2427  0.2366
  853TMC3    C512702   4.767   4.346   7.509 -0.1186  0.8009  0.5258
  853TMC3    C612703   4.771   4.395   7.632 -0.1192 -0.6755 -0.3565
  853TMC3     C12704   4.429   4.221   7.467  0.5655 -0.3665 -0.4273
  853TMC3     O12705   4.461   4.121   7.403  0.1084  0.0700 -0.0545
  853TMC3     H12706   4.443   4.341   7.702 -0.1567  0.8352 -0.2383
  853TMC3    H112707   4.658   4.243   7.351  0.8369 -1.1328  1.2331
  853TMC3    H212708   0.083   4.431   7.684 -1.0766  0.4531  0.4736
  853TMC3    C712709   0.111   4.371   7.435 -0.2461 -0.0207 -0.3270
  853TMC3    C812710   4.657   4.428   7.828  0.0149  0.3924 -0.4693
  853TMC3    O112711   0.215   4.391   7.502 -0.1765  0.8480 -0.1033
  853TMC3    O212712   4.762   4.423   7.889 -0.3323 -0.2858  0.5893
  854TMC3    C112713   0.686   3.143  12.327 -0.0599 -0.1316  0.4537
  854TMC3    C212714   0.749   3.139  12.452  0.1840  0.5435  0.0928
  854TMC3    C312715   0.728   3.235  12.551 -0.0187 -0.8269  0.0189
  854TMC3    C412716   0.616   3.256  12.297  0.5527  0.5828 -0.1368
  854TMC3    C512717   0.609   3.359  12.385  0.4963 -0.0524  0.4120
  854TMC3    C612718   0.660   3.346  12.510 -0.4147  0.9611 -0.5697
  854TMC3     C12719   0.761   3.091  12.218  0.2626  0.2743  0.1075
  854TMC3     O12720   0.765   3.154  12.112 -0.1693 -0.1542 -0.0280
  854TMC3     H12721   0.808   3.053  12.481 -0.9470  0.1466  1.2422
  854TMC3    H112722   0.581   3.269  12.195  1.6770 -1.0958 -0.7336
  854TMC3    H212723   0.652   3.418  12.590 -1.5243 -0.0717  0.2466
  854TMC3    C712724   0.630   3.488  12.323 -0.9763 -0.0868 -0.0257
  854TMC3    C812725   0.843   3.267  12.629 -0.0171 -0.4615  0.5101
  854TMC3    O112726   0.566   3.514  12.221 -0.5729 -0.1132  0.0308
  854TMC3    O212727   0.936   3.308  12.563  0.2557  0.8257  0.7269
  855TMC3    C112728   1.717   1.643  14.406 -0.7275 -0.7960 -0.3536
  855TMC3    C212729   1.838   1.655  14.477  0.6603  0.3784 -0.6051
  855TMC3    C312730   1.909   1.537  14.488 -0.0103  0.3845  0.2464
  855TMC3    C412731   1.666   1.526  14.360  0.3229  0.1829 -0.1020
  855TMC3    C512732   1.735   1.411  14.399 -0.5953 -0.2065 -0.7612
  855TMC3    C612733   1.855   1.415  14.464  0.2213  0.2542  0.0172
  855TMC3     C12734   1.630   1.757  14.384 -0.2206 -0.2098  0.2408
  855TMC3     O12735   1.525   1.745  14.319 -0.4945  0.2142  0.5414
  855TMC3     H12736   1.876   1.745  14.525 -2.1531  0.9716  0.5495
  855TMC3    H112737   1.568   1.518  14.314  0.2196 -1.7202  0.4399
  855TMC3    H212738   1.914   1.327  14.485  1.8080  1.3670  0.2620
  855TMC3    C712739   1.709   1.281  14.339 -0.1010 -0.2076  0.2360
  855TMC3    C812740   2.046   1.535  14.544  0.7344  0.1344 -0.0608
  855TMC3    O112741   1.758   1.181  14.396  0.3835  0.0228 -0.3795
  855TMC3    O212742   2.086   1.436  14.607  0.2283 -0.3939 -0.0633
  856TMC3    C112743   0.152   0.797   8.515  0.1229  0.1303  0.3866
  856TMC3    C212744   0.246   0.796   8.615 -0.0578 -0.4213  0.5813
  856TMC3    C312745   0.365   0.852   8.601  0.1143 -0.6499  0.4909
  856TMC3    C412746   0.194   0.852   8.398 -0.1123 -0.0484  0.1554
  856TMC3    C512747   0.317   0.903   8.381 -0.1573 -0.7710  0.2883
  856TMC3    C612748   0.409   0.908   8.485  0.3024  0.3375 -0.3528
  856TMC3     C12749   0.024   0.723   8.534 -0.2083  0.8917  0.3340
  856TMC3     O12750   4.747   0.677   8.430 -0.7970 -0.1504 -0.3321
  856TMC3     H12751   0.232   0.736   8.704 -2.0345 -1.3824 -0.3833
  856TMC3    H112752   0.130   0.855   8.311  1.5124  3.5003 -0.9215
  856TMC3    H212753   0.514   0.927   8.466  0.2490  2.3053  1.3112
  856TMC3    C712754   0.352   0.960   8.246  0.4454 -0.3134 -0.6187
  856TMC3    C812755   0.457   0.846   8.716  0.2187  0.6387 -0.9111
  856TMC3    O112756   0.282   0.924   8.151  0.5184 -0.1456  0.4638
  856TMC3    O212757   0.577   0.850   8.693  0.7716 -0.1924  0.1184
  857TMC3    C112758   2.660   0.132   5.936 -0.0478 -0.5695 -0.3114
  857TMC3    C212759   2.797   0.122   5.972  0.2587  0.4717  0.3206
  857TMC3    C312760   2.877   0.078   5.873 -0.1290  0.2321  0.6552
  857TMC3    C412761   2.610   0.098   5.815  0.0233  0.2112 -0.1287
  857TMC3    C512762   2.700   0.049   5.722 -0.8948 -0.1975  0.4462
  857TMC3    C612763   2.834   0.051   5.748  0.3329 -0.6361  0.1054
  857TMC3     C12764   2.566   0.133   6.053  0.1707 -0.1003  0.3305
  857TMC3     O12765   2.609   0.204   6.144 -0.2768  0.1561  0.0269
  857TMC3     H12766   2.831   0.109   6.074 -0.0975  1.7997  0.6154
  857TMC3    H112767   2.505   0.118   5.794  0.7724  0.7811 -3.2721
  857TMC3    H212768   2.908   0.025   5.673 -1.0128 -1.2928 -0.9858
  857TMC3    C712769   2.662   0.039   5.588  0.1123  0.4029  0.1550
  857TMC3    C812770   3.018   0.056   5.900  0.2437  0.2479 -0.1365
  857TMC3    O112771   2.750   0.046   5.502 -0.1245  0.0915 -0.1873
  857TMC3    O212772   3.074   4.761   5.821 -0.1348  0.3043 -0.3725
  858TMC3    C112773   0.749   0.970   9.133 -0.2507 -0.4345  0.5394
  858TMC3    C212774   0.835   0.923   9.229  0.1890  0.5145  0.1283
  858TMC3    C312775   0.973   0.929   9.206 -0.2939  0.3802 -0.0349
  858TMC3    C412776   0.794   1.009   9.014 -0.0688  0.4728  0.3819
  858TMC3    C512777   0.930   1.009   8.995  0.7397 -0.4888 -0.9249
  858TMC3    C612778   1.024   0.977   9.093 -0.4806  0.4856 -0.0270
  858TMC3     C12779   0.612   0.995   9.161  0.2395  0.0715 -0.2372
  858TMC3     O12780   0.564   0.961   9.265 -0.0106  0.0873 -0.2535
  858TMC3     H12781   0.801   0.880   9.322  2.4523 -0.9962  0.2470
  858TMC3    H112782   0.734   1.025   8.925 -0.6165 -0.2126  0.6253
  858TMC3    H212783   1.130   0.983   9.072 -0.3326 -2.2904 -0.0997
  858TMC3    C712784   0.997   1.002   8.860 -0.0646 -0.1959 -0.2737
  858TMC3    C812785   1.066   0.900   9.308  0.0734  0.5966 -0.4289
  858TMC3    O112786   1.116   1.026   8.848 -0.2882 -0.6534  0.4709
  858TMC3    O212787   1.176   0.963   9.306 -0.5677  1.0240  0.2536
  859TMC3    C112788   4.773   4.201   6.509  0.4060 -0.0906  0.7357
  859TMC3    C212789   0.083   4.193   6.616  0.9305 -0.5886 -0.0494
  859TMC3    C312790   0.205   4.246   6.603  0.0570 -0.1494  0.5301
  859TMC3    C412791   0.042   4.242   6.391 -0.5420 -0.5571 -0.1299
  859TMC3    C512792   0.172   4.285   6.384 -0.5304 -0.2813  1.1444
  859TMC3    C612793   0.254   4.294   6.491 -0.5214 -0.1256 -0.4823
  859TMC3     C12794   4.641   4.161   6.535  0.3963 -0.2291 -0.3854
  859TMC3     O12795   4.612   4.166   6.654 -0.0849 -0.9536 -0.7129
  859TMC3     H12796   0.050   4.169   6.716  0.5020  1.5392  0.3330
  859TMC3    H112797   4.752   4.260   6.306  0.2116  1.2968 -0.3188
  859TMC3    H212798   0.354   4.336   6.486 -1.9468  3.1187 -1.7363
  859TMC3    C712799   0.234   4.330   6.261 -0.9848 -0.3256 -0.0975
  859TMC3    C812800   0.274   4.289   6.725  0.6940 -0.0309 -0.1473
  859TMC3    O112801   0.327   4.410   6.272  0.0876 -0.5098 -0.3837
  859TMC3    O212802   0.391   4.321   6.713 -0.0671 -1.1883  0.0048
  860TMC3    C112803   3.110   2.630  11.919  0.2383  0.1039 -0.7951
  860TMC3    C212804   3.126   2.635  12.057  0.0884 -0.4395  0.1583
  860TMC3    C312805   3.024   2.676  12.146  0.1558  0.1887 -0.3214
  860TMC3    C412806   2.987   2.669  11.874  0.4543  0.3318  0.0919
  860TMC3    C512807   2.898   2.732  11.960  0.6362  0.4477  0.1100
  860TMC3    C612808   2.918   2.743  12.092  0.4448  0.5514 -0.1291
  860TMC3     C12809   3.156   2.496  11.869  0.2899  0.1393 -0.1280
  860TMC3     O12810   3.189   2.420  11.958  0.4609 -0.0719 -0.3487
  860TMC3     H12811   3.212   2.589  12.103 -0.5977 -1.2305  0.6552
  860TMC3    H112812   2.967   2.642  11.771  1.8743  2.1673 -0.6580
  860TMC3    H212813   2.842   2.781  12.159  0.4246  0.6215 -0.1923
  860TMC3    C712814   2.761   2.771  11.921  0.0948  0.3739 -0.9451
  860TMC3    C812815   2.983   2.577  12.244 -0.0723  0.2938 -0.2503
  860TMC3    O112816   2.699   2.846  11.988 -0.2094  0.5246 -0.1411
  860TMC3    O212817   2.908   2.616  12.332  0.1887  0.2381 -0.1298
  861TMC3    C112818   2.786   3.756  13.126 -0.4317  0.0209  1.6138
  861TMC3    C212819   2.881   3.660  13.113 -0.2725  0.3076  0.0433
  861TMC3    C312820   2.845   3.534  13.137  0.4376  0.2012 -0.3128
  861TMC3    C412821   2.659   3.726  13.158  0.4310  0.3985  0.2810
  861TMC3    C512822   2.624   3.596  13.180 -0.0071  0.0632  0.0989
  861TMC3    C612823   2.720   3.500  13.171 -0.0059 -0.1308 -0.0277
  861TMC3     C12824   2.819   3.894  13.112  0.3405 -0.8507  0.3693
  861TMC3     O12825   2.936   3.929  13.133  0.2938  0.2728  0.4129
  861TMC3     H12826   2.972   3.692  13.065 -0.0751 -1.1114 -0.5341
  861TMC3    H112827   2.583   3.804  13.157  0.1417  0.1019 -1.0967
  861TMC3    H212828   2.691   3.396  13.179 -1.0431  0.3513  2.6440
  861TMC3    C712829   2.486   3.568  13.213 -0.0888 -0.0449 -0.8231
  861TMC3    C812830   2.940   3.429  13.125  0.6579  0.4132 -0.0515
  861TMC3    O112831   2.409   3.659  13.196  0.1336 -0.4994  0.0557
  861TMC3    O212832   2.906   3.325  13.178  0.3533 -0.3806  0.3544
  862TMC3    C112833   1.460   2.184  10.274  0.1557 -0.5777 -0.2224
  862TMC3    C212834   1.535   2.075  10.255  0.3988 -0.7576  0.1354
  862TMC3    C312835   1.654   2.088  10.187 -0.4396 -0.1386 -0.3384
  862TMC3    C412836   1.479   2.305  10.205 -0.1098 -0.4635  0.5029
  862TMC3    C512837   1.591   2.316  10.138  0.1743  0.2471  0.5394
  862TMC3    C612838   1.681   2.212  10.137  0.8079  0.1048  0.3558
  862TMC3     C12839   1.323   2.139  10.276 -0.1530  0.2760  0.0670
  862TMC3     O12840   1.271   2.085  10.373 -0.6173 -0.6906  0.2306
  862TMC3     H12841   1.509   1.978  10.297  1.9028 -2.1071 -2.0843
  862TMC3    H112842   1.403   2.382  10.214  0.3427 -0.1428  1.5490
  862TMC3    H212843   1.777   2.232  10.091  0.9259 -0.6868  0.2523
  862TMC3    C712844   1.630   2.459  10.135  0.2773 -0.7554  0.3427
  862TMC3    C812845   1.697   1.961  10.115  0.0017  0.5114  0.1073
  862TMC3    O112846   1.599   2.524  10.236 -0.3716 -0.2441 -0.1150
  862TMC3    O212847   1.623   1.863  10.136  0.6635  0.3298 -0.3944
  863TMC3    C112848   2.531   3.653  10.023  0.2471  0.8507  1.0354
  863TMC3    C212849   2.489   3.570  10.124 -0.3482  0.5519  0.1079
  863TMC3    C312850   2.462   3.629  10.243 -0.0356 -0.4599 -0.5343
  863TMC3    C412851   2.525   3.781  10.032 -0.4890 -0.3884  0.0658
  863TMC3    C512852   2.487   3.845  10.145 -0.6114  0.7255 -0.3710
  863TMC3    C612853   2.457   3.771  10.254 -0.5187  0.4475 -0.2800
  863TMC3     C12854   2.610   3.591   9.920  0.0189 -0.3515  0.3638
  863TMC3     O12855   2.695   3.660   9.864 -0.2592  0.3559  0.0313
  863TMC3     H12856   2.479   3.462  10.119 -1.3546  0.5672  1.9557
  863TMC3    H112857   2.549   3.841   9.945  1.8025  0.9250  1.5911
  863TMC3    H212858   2.431   3.815  10.350  0.7307  2.5958 -0.9039
  863TMC3    C712859   2.444   3.982  10.141 -0.4120  0.1761  0.5681
  863TMC3    C812860   2.421   3.540  10.345  0.6145 -0.1350  0.2316
  863TMC3    O112861   2.487   4.047  10.047  0.2184  0.0295  0.1960
  863TMC3    O212862   2.461   3.422  10.345 -0.1424  0.0518 -0.2148
  864TMC3    C112863   2.046   3.955   7.197  0.7228  0.8243 -0.0149
  864TMC3    C212864   1.970   3.996   7.306  0.4293  0.1368 -0.2846
  864TMC3    C312865   2.000   3.930   7.425  0.5893  0.1439  0.4303
  864TMC3    C412866   2.137   3.857   7.194  0.0039  0.4392  0.7008
  864TMC3    C512867   2.143   3.784   7.307  0.2091  0.3120  0.2903
  864TMC3    C612868   2.076   3.816   7.424  0.0148 -0.1188 -0.2723
  864TMC3     C12869   2.031   4.030   7.075  0.1654 -0.2995 -0.0229
  864TMC3     O12870   2.121   4.017   6.990 -0.4081 -0.7506 -0.0721
  864TMC3     H12871   1.898   4.077   7.308  1.4083  1.0191 -1.0228
  864TMC3    H112872   2.177   3.829   7.097 -0.4641  0.7754  0.4108
  864TMC3    H212873   2.088   3.754   7.512  0.0646  0.2917  0.0098
  864TMC3    C712874   2.217   3.666   7.309 -0.3131 -0.3909  0.9560
  864TMC3    C812875   1.912   3.959   7.533  0.2794 -0.5285  0.4166
  864TMC3    O112876   2.261   3.627   7.417 -0.2391  0.1672 -0.1881
  864TMC3    O212877   1.894   3.860   7.604  0.1415  0.2798 -0.6593
  865TMC3    C112878   1.576   3.652  12.801  0.4811 -0.1023 -0.3495
  865TMC3    C212879   1.702   3.595  12.821  0.1900  0.1209 -0.2060
  865TMC3    C312880   1.708   3.491  12.909 -0.3896  0.2531  0.1981
  865TMC3    C412881   1.469   3.609  12.865  0.7314 -0.4896 -0.5286
  865TMC3    C512882   1.480   3.510  12.957  0.1020 -0.6330  0.3583
  865TMC3    C612883   1.601   3.442  12.982 -0.2238  0.0325 -0.4323
  865TMC3     C12884   1.572   3.739  12.678  0.6300  0.0538  0.6814
  865TMC3     O12885   1.657   3.714  12.595  0.0011  0.5643  0.2238
  865TMC3     H12886   1.783   3.625  12.755 -1.8199  0.8733 -2.3289
  865TMC3    H112887   1.380   3.671  12.862  0.0429 -1.4783 -0.3668
  865TMC3    H212888   1.596   3.351  13.040 -1.4798  0.6581  0.4611
  865TMC3    C712889   1.357   3.453  13.011  0.3157  0.0913  0.1555
  865TMC3    C812890   1.841   3.443  12.952  0.1303 -0.4663 -0.4251
  865TMC3    O112891   1.364   3.421  13.128 -0.4417  0.8185 -0.0871
  865TMC3    O212892   1.841   3.345  13.022  0.3475  0.4499 -0.2011
  866TMC3    C112893   1.360   0.612  14.398 -0.2428  0.4207  0.5115
  866TMC3    C212894   1.321   0.659  14.521 -0.7892  0.0763  0.8401
  866TMC3    C312895   1.235   0.767  14.524  0.3450 -0.2956  0.1996
  866TMC3    C412896   1.320   0.664  14.280 -0.3630  0.0670  0.0452
  866TMC3    C512897   1.245   0.778  14.285  0.1185  0.1462 -0.3578
  866TMC3    C612898   1.198   0.825  14.407 -0.1103 -0.6016 -0.6538
  866TMC3     C12899   1.442   0.490  14.399  0.5854  0.2534 -0.2520
  866TMC3     O12900   1.389   0.387  14.363  0.6219  0.0937 -0.3630
  866TMC3     H12901   1.352   0.602  14.608 -0.6233 -1.6978 -0.3782
  866TMC3    H112902   1.346   0.614  14.187  0.4626  2.1576 -0.8415
  866TMC3    H212903   1.127   0.907  14.403  2.1949  1.3911 -1.6423
  866TMC3    C712904   1.199   0.843  14.160  0.3383  0.1426  0.6984
  866TMC3    C812905   1.214   0.837  14.650  0.6688 -0.0707  0.5751
  866TMC3    O112906   1.185   0.767  14.064 -0.0635  0.2087 -0.0769
  866TMC3    O212907   1.280   0.789  14.740 -0.2902  0.0089  0.2688
  867TMC3    C112908   0.624   1.198  11.042  0.9661  0.0239  0.5443
  867TMC3    C212909   0.700   1.107  11.111 -0.5076  0.0937  0.0354
  867TMC3    C312910   0.792   1.155  11.199 -0.8608 -0.1244  0.1639
  867TMC3    C412911   0.632   1.335  11.068 -0.6677  0.4994  0.7485
  867TMC3    C512912   0.698   1.376  11.181 -0.3568  0.0489  0.5871
  867TMC3    C612913   0.784   1.287  11.242 -0.5536 -0.3792 -0.6448
  867TMC3     C12914   0.517   1.145  10.959 -0.1834  0.3049 -0.0983
  867TMC3     O12915   0.422   1.218  10.935  0.2040  0.6612  0.4783
  867TMC3     H12916   0.678   1.001  11.101  0.8218 -0.1035 -0.8929
  867TMC3    H112917   0.542   1.386  11.037 -0.0342  0.3741 -1.3094
  867TMC3    H212918   0.856   1.331  11.310 -0.4241 -2.2878  0.4406
  867TMC3    C712919   0.723   1.514  11.194 -0.2655  0.0422  0.0867
  867TMC3    C812920   0.908   1.079  11.235 -0.2934 -0.6308 -0.0530
  867TMC3    O112921   0.789   1.549  11.290 -0.2112  0.3129 -0.3783
  867TMC3    O212922   0.974   1.127  11.327  0.5405 -0.6003 -0.1744
  868TMC3    C112923   3.641   3.670  12.884  0.2773  0.4957  0.8081
  868TMC3    C212924   3.628   3.795  12.827 -0.0915  0.2223  0.4195
  868TMC3    C312925   3.737   3.873  12.821 -0.2117  0.1328  0.4710
  868TMC3    C412926   3.749   3.628  12.958  0.3726 -0.7884 -0.4128
  868TMC3    C512927   3.852   3.723  12.967 -0.1954  1.0641  0.0972
  868TMC3    C612928   3.846   3.840  12.909 -0.3926  0.0014  0.1114
  868TMC3     C12929   3.518   3.601  12.908 -0.7648  0.2958  0.7370
  868TMC3     O12930   3.415   3.665  12.888 -0.5604 -0.1204 -0.4682
  868TMC3     H12931   3.536   3.811  12.773  0.3045 -0.0013 -0.3265
  868TMC3    H112932   3.755   3.535  13.012  2.7383 -0.8531 -0.8141
  868TMC3    H212933   3.937   3.899  12.903 -0.0847 -0.4995 -0.1792
  868TMC3    C712934   3.950   3.702  13.065 -0.0717  0.5321 -0.6933
  868TMC3    C812935   3.746   3.996  12.745  0.5465 -0.3020 -0.4081
  868TMC3    O112936   3.990   3.801  13.130  0.0575 -0.2802  0.0560
  868TMC3    O212937   3.847   4.063  12.758  0.4973 -0.3893 -0.2625
  869TMC3    C112938   2.074   0.032  11.691  0.6433  0.1579 -0.2057
  869TMC3    C212939   1.949   0.088  11.707 -0.2568 -0.2494  0.3226
  869TMC3    C312940   1.869   0.081  11.599  0.0340  0.0437  0.2144
  869TMC3    C412941   2.123   4.760  11.573  0.6267 -0.2600 -0.2170
  869TMC3    C512942   2.036   4.760  11.470 -0.8111  0.0728 -0.0147
  869TMC3    C612943   1.907   0.032  11.476 -0.1932 -0.1689  0.3955
  869TMC3     C12944   2.148   4.766  11.804  0.1313  0.5392  0.5813
  869TMC3     O12945   2.220   4.671  11.793 -0.5180 -0.4648 -0.0805
  869TMC3     H12946   1.909   0.102  11.806  0.0201  1.1837  0.2357
  869TMC3    H112947   2.226   4.727  11.582  1.4552  2.0039 -1.6017
  869TMC3    H212948   1.849   0.036  11.385  2.1444 -0.6978 -1.1243
  869TMC3    C712949   2.074   4.682  11.349  0.8759  0.1575  0.7473
  869TMC3    C812950   1.728   0.122  11.595  0.2117  0.6209  0.2442
  869TMC3    O112951   1.995   4.688  11.251 -0.2463 -0.4784  0.2840
  869TMC3    O212952   1.661   0.103  11.495 -0.3714  0.4404  0.5979
  870TMC3    C112953   1.400   2.042  13.211  0.4969 -0.1743 -0.0313
  870TMC3    C212954   1.502   1.956  13.216 -1.1148  0.6162  0.4729
  870TMC3    C312955   1.612   1.976  13.137 -0.0053 -0.2135 -0.3616
  870TMC3    C412956   1.403   2.156  13.133 -0.9700  0.4715 -0.6726
  870TMC3    C512957   1.523   2.183  13.074 -0.2410  0.1608 -0.1066
  870TMC3    C612958   1.620   2.089  13.061  0.2078  0.6881 -0.9074
  870TMC3     C12959   1.282   2.012  13.288  0.4713 -0.4886 -0.2503
  870TMC3     O12960   1.198   2.105  13.302 -0.6581 -0.8742 -0.1223
  870TMC3     H12961   1.502   1.857  13.258  0.9129  1.2221  1.9071
  870TMC3    H112962   1.323   2.229  13.135 -1.4648 -0.1196  1.1896
  870TMC3    H212963   1.708   2.111  13.003  2.2867 -2.2970  1.1150
  870TMC3    C712964   1.508   2.281  12.961 -1.1298  0.1576  0.0583
  870TMC3    C812965   1.679   1.855  13.087 -0.4645  0.0444  0.0818
  870TMC3    O112966   1.559   2.246  12.853 -0.1824  0.0613 -0.0647
  870TMC3    O212967   1.619   1.755  13.121 -0.3981  0.5727  0.4240
  871TMC3    C112968   0.782   3.761  14.183 -0.5229 -0.4765 -0.2985
  871TMC3    C212969   0.716   3.640  14.190  0.3859 -0.1285  0.2071
  871TMC3    C312970   0.607   3.628  14.273 -0.5342  0.2633  0.1102
  871TMC3    C412971   0.743   3.868  14.251  0.3367  0.1605  0.0952
  871TMC3    C512972   0.625   3.863  14.316  0.3936  0.2280  0.4086
  871TMC3    C612973   0.557   3.747  14.333 -0.2644  0.0198 -0.1934
  871TMC3     C12974   0.881   3.772  14.078  0.6460  0.1343  0.1099
  871TMC3     O12975   0.945   3.677  14.038 -0.2690 -0.0976 -0.4649
  871TMC3     H12976   0.748   3.551  14.136  1.8169  0.1714  0.5510
  871TMC3    H112977   0.802   3.959  14.250  2.1925 -1.0428 -0.2383
  871TMC3    H212978   0.466   3.736  14.390 -0.8401  0.9771 -0.9309
  871TMC3    C712979   0.574   3.992  14.360  0.5134  0.3656  0.0778
  871TMC3    C812980   0.515   3.516  14.264  0.0290 -0.0753  0.3267
  871TMC3    O112981   0.629   4.086  14.309  0.4094  0.1392  0.1842
  871TMC3    O212982   0.396   3.545  14.282  0.1663  0.0409 -0.4001
  872TMC3    C112983   3.388   1.809  12.129  0.5048  0.1136 -0.4387
  872TMC3    C212984   3.441   1.824  12.007  0.0199 -0.4588 -0.2242
  872TMC3    C312985   3.360   1.844  11.900 -0.4770 -0.1594  0.2892
  872TMC3    C412986   3.254   1.817  12.150 -0.3697  0.2265  1.0529
  872TMC3    C512987   3.172   1.846  12.043 -0.1053  0.4635  0.1813
  872TMC3    C612988   3.228   1.841  11.917  0.5973 -0.2766  0.6832
  872TMC3     C12989   3.459   1.856  12.243 -0.1994  0.2871  0.1629
  872TMC3     O12990   3.509   1.776  12.320  0.5857  0.1847  0.6979
  872TMC3     H12991   3.547   1.846  11.996 -0.2906  0.6615 -0.9913
  872TMC3    H112992   3.218   1.824  12.252 -0.3661  2.1941  0.9172
  872TMC3    H212993   3.163   1.858  11.832  2.2574  0.0508 -0.5293
  872TMC3    C712994   3.095   1.964  12.060 -0.0539 -0.3795 -0.1023
  872TMC3    C812995   3.418   1.941  11.806  0.2755  0.0070 -0.3648
  872TMC3    O112996   3.102   2.049  11.969  0.0257  0.3845 -0.1734
  872TMC3    O212997   3.528   1.916  11.755  0.0255  0.4579 -0.2734
  873TMC3    C112998   2.574   1.038  11.583 -0.1634 -0.5403 -0.4397
  873TMC3    C212999   2.705   0.992  11.572 -0.0351  0.4176 -0.1722
  873TMC3    C313000   2.731   0.901  11.479  0.4078 -0.6069 -0.4045
  873TMC3    C413001   2.473   0.990  11.513 -0.6539 -0.0662 -1.1960
  873TMC3    C513002   2.502   0.882  11.430  0.3328 -0.1302 -0.3709
  873TMC3    C613003   2.630   0.845  11.407 -0.5189  0.1733 -0.0987
  873TMC3     C13004   2.581   1.179  11.588  0.2335 -0.3214  0.1141
  873TMC3     O13005   2.489   1.238  11.647  0.1657 -0.8023 -0.1471
  873TMC3     H13006   2.780   1.030  11.640 -0.8281 -0.7302  1.3311
  873TMC3    H113007   2.382   1.049  11.517  0.4142  1.6110 -2.2836
  873TMC3    H213008   2.658   0.772  11.331 -0.3819  0.8392 -0.6819
  873TMC3    C713009   2.401   0.819  11.348  0.6525  0.6041 -0.1810
  873TMC3    C813010   2.859   0.840  11.455  0.1035 -0.3408  0.0149
  873TMC3    O113011   2.434   0.755  11.248 -0.0481  0.3789  0.6098
  873TMC3    O213012   2.854   0.735  11.390  0.0176  0.2556  0.9569
  874TMC3    C113013   4.174   0.121   6.816 -0.2318  0.5820 -0.6174
  874TMC3    C213014   4.309   0.123   6.839 -0.0022 -0.5574  0.4684
  874TMC3    C313015   4.399   0.118   6.742 -0.1268 -0.1764  0.7258
  874TMC3    C413016   4.123   0.145   6.689 -0.1313 -0.4784 -0.2418
  874TMC3    C513017   4.217   0.154   6.585 -0.4055 -0.4198  0.5713
  874TMC3    C613018   4.353   0.140   6.611 -0.4142 -0.0410 -0.0796
  874TMC3     C13019   4.089   0.113   6.937  0.4083 -0.1057 -0.0624
  874TMC3     O13020   4.140   0.121   7.050  0.0256  0.5471 -0.4460
  874TMC3     H13021   4.341   0.109   6.941  0.6236  0.2206  0.3805
  874TMC3    H113022   4.017   0.159   6.670  0.1672  2.1305 -0.0290
  874TMC3    H213023   4.425   0.138   6.530 -0.9837  0.4794 -0.5971
  874TMC3    C713024   4.159   0.141   6.459 -0.3836  1.2182 -0.6727
  874TMC3    C813025   4.533   0.163   6.776 -0.0191  0.5399  0.1941
  874TMC3    O113026   4.038   0.138   6.448 -0.0105 -0.2613 -0.5746
  874TMC3    O213027   4.545   0.180   6.897 -0.2887  0.1630 -0.1122
  875TMC3    C113028   4.634   1.923   8.611  0.4690  0.1499 -0.3319
  875TMC3    C213029   4.752   1.984   8.575 -0.1077  0.8691  0.4467
  875TMC3    C313030   0.094   1.959   8.647 -0.4730  0.5287  0.3393
  875TMC3    C413031   4.630   1.844   8.722 -0.2588  0.1332  0.2420
  875TMC3    C513032   4.742   1.821   8.793  0.5940  0.4537 -0.8489
  875TMC3    C613033   0.087   1.882   8.763 -0.1245 -0.8173  0.3702
  875TMC3     C13034   4.514   1.926   8.525  0.0309 -0.3922  0.4042
  875TMC3     O13035   4.528   1.993   8.429  0.0328  0.2931 -0.1232
  875TMC3     H13036   4.749   2.041   8.483 -0.0130  1.5873  0.8923
  875TMC3    H113037   4.542   1.781   8.735  1.0348 -1.6635  0.2457
  875TMC3    H213038   0.178   1.862   8.818  0.1931 -1.2805 -0.3333
  875TMC3    C713039   4.731   1.715   8.890 -0.4313  0.1538 -0.2669
  875TMC3    C813040   0.221   1.994   8.587 -0.3011 -0.1500  0.6926
  875TMC3    O113041   0.002   1.740   8.999 -0.4288 -0.0051  0.0917
  875TMC3    O213042   0.316   1.916   8.616  0.0741 -0.6345  0.7116
  876TMC3    C113043   3.296   0.231  14.016  0.0525 -0.0120 -0.9477
  876TMC3    C213044   3.180   0.277  13.966  0.3584 -0.0808 -0.0974
  876TMC3    C313045   3.137   0.266  13.830 -0.1067  0.2629 -0.1739
  876TMC3    C413046   3.389   0.176  13.927 -0.3737  0.9890  0.1752
  876TMC3    C513047   3.348   0.157  13.796 -0.7516  0.1991  0.1601
  876TMC3    C613048   3.227   0.201  13.750 -0.1447  0.3121 -0.0175
  876TMC3     C13049   3.343   0.315  14.123  0.3781  0.3128  0.2150
  876TMC3     O13050   3.281   0.421  14.127  0.3497 -0.1345  0.0208
  876TMC3     H13051   3.107   0.329  14.029  0.4194  1.5356 -1.3718
  876TMC3    H113052   3.483   0.134  13.959 -0.1842  0.7847 -0.6346
  876TMC3    H213053   3.205   0.196  13.644 -1.5504  2.6715  0.1518
  876TMC3    C713054   3.453   0.154  13.692  0.0977 -1.1602  0.9739
  876TMC3    C813055   3.102   0.395  13.774 -0.6942 -0.0907  0.6083
  876TMC3    O113056   3.563   0.199  13.732  0.4361 -0.1138 -0.0599
  876TMC3    O213057   3.054   0.393  13.661 -0.0284 -0.4811  0.0737
  877TMC3    C113058   0.109   4.724   7.347  0.4648 -0.0748  0.7634
  877TMC3    C213059   0.115   0.018   7.462  0.0403 -0.4938 -0.2514
  877TMC3    C313060   0.216   0.113   7.466 -0.4585  0.1012  0.2317
  877TMC3    C413061   0.203   4.727   7.244 -0.6777  0.4078  0.4573
  877TMC3    C513062   0.301   0.050   7.259  0.0651 -0.8544 -0.2059
  877TMC3    C613063   0.308   0.129   7.364  0.4662  0.1843  0.0727
  877TMC3     C13064   4.752   4.664   7.321 -0.7050 -0.4584  0.3631
  877TMC3     O13065   4.675   4.642   7.417 -0.0546 -0.8086 -0.0780
  877TMC3     H13066   0.044   4.766   7.539 -1.0523 -2.5259 -1.9895
  877TMC3    H113067   0.196   4.653   7.165  1.9066  0.1778  0.4188
  877TMC3    H213068   0.390   0.198   7.384 -0.5222  1.0739  1.0396
  877TMC3    C713069   0.416   0.071   7.165  0.7178 -0.0323  0.2421
  877TMC3    C813070   0.249   0.170   7.595  0.2340 -0.0936  0.4195
  877TMC3    O113071   0.489   0.169   7.185 -0.2907  0.1146  0.4632
  877TMC3    O213072   0.348   0.241   7.589  0.0310  0.6748 -0.1932
  878TMC3    C113073   2.688   4.775  11.325  0.1562  0.8065  0.6772
  878TMC3    C213074   2.673   0.038  11.455 -0.8234 -0.0409  0.3665
  878TMC3    C313075   2.751   4.757  11.551  0.5482 -0.2821  0.1012
  878TMC3    C413076   2.780   4.674  11.286  0.0192  0.4031 -0.3110
  878TMC3    C513077   2.856   4.625  11.391 -0.4355 -0.3431  0.0609
  878TMC3    C613078   2.849   4.661  11.524 -0.4104  0.1980 -0.0096
  878TMC3     C13079   2.613   0.077  11.220 -0.2766 -0.2891 -0.4052
  878TMC3     O13080   2.560   0.185  11.253  0.1655  0.0907 -0.2687
  878TMC3     H13081   2.595   0.108  11.482  0.3776  1.0004  1.1450
  878TMC3    H113082   2.803   4.651  11.183 -0.2621 -0.3981 -0.1978
  878TMC3    H213083   2.903   4.622  11.609  1.9587 -2.5474 -2.8142
  878TMC3    C713084   2.954   4.513  11.377  0.3695  0.1307 -0.1798
  878TMC3    C813085   2.699   0.002  11.682 -0.5725 -0.1178 -0.5828
  878TMC3    O113086   3.014   4.479  11.479  0.2060  0.2538  0.1774
  878TMC3    O213087   2.582   0.036  11.704 -0.0067 -0.3782 -0.4321
  879TMC3    C113088   2.310   2.240  12.391  0.2511  0.1929 -0.1592
  879TMC3    C213089   2.408   2.146  12.387  0.5816  0.1301 -0.2059
  879TMC3    C313090   2.433   2.091  12.265  0.1058 -0.2362  0.2493
  879TMC3    C413091   2.250   2.290  12.279 -0.2168  0.8831  0.3258
  879TMC3    C513092   2.276   2.230  12.163  0.3070 -0.4909 -0.3260
  879TMC3    C613093   2.369   2.125  12.150  1.2949 -0.0081 -0.2648
  879TMC3     C13094   2.265   2.303  12.516 -0.4752  0.2370  0.1267
  879TMC3     O13095   2.222   2.417  12.514  0.0961  0.0610 -0.0091
  879TMC3     H13096   2.458   2.106  12.474  1.4094  0.5222 -0.5014
  879TMC3    H113097   2.170   2.363  12.283 -0.4959  0.7176 -2.2694
  879TMC3    H213098   2.373   2.069  12.057 -0.1707 -1.8544  0.7901
  879TMC3    C713099   2.193   2.255  12.046 -0.2296  0.2291  0.2043
  879TMC3    C813100   2.533   1.992  12.264  0.4982  0.0395 -0.0424
  879TMC3    O113101   2.231   2.195  11.950  0.1016 -0.2658 -0.2537
  879TMC3    O213102   2.547   1.932  12.366 -0.4652 -0.4691  0.2400
  880TMC3    C113103   0.861   2.987   8.538  0.3151 -0.0556 -0.4259
  880TMC3    C213104   0.987   3.034   8.546  0.5446  0.6965 -0.7495
  880TMC3    C313105   1.083   2.969   8.618  0.3356  0.9177 -0.4887
  880TMC3    C413106   0.836   2.865   8.592 -0.3339  0.3606 -0.0056
  880TMC3    C513107   0.925   2.808   8.677  0.4763  0.0600 -0.2515
  880TMC3    C613108   1.053   2.857   8.687  0.6629 -0.0686 -0.1072
  880TMC3     C13109   0.754   3.073   8.491  0.4363  0.2858 -0.0773
  880TMC3     O13110   0.792   3.174   8.437 -0.1678  0.0057 -0.2010
  880TMC3     H13111   1.012   3.132   8.506  1.0187  0.8611 -0.0526
  880TMC3    H113112   0.739   2.819   8.582  0.8529 -1.4462 -2.9556
  880TMC3    H213113   1.126   2.800   8.743  0.8146  0.4323  0.2099
  880TMC3    C713114   0.889   2.691   8.761  0.4031  0.1388  0.5778
  880TMC3    C813115   1.213   3.022   8.633 -0.3208  0.2987 -0.1976
  880TMC3    O113116   0.797   2.614   8.724  0.2583  0.3018 -0.2259
  880TMC3    O213117   1.293   2.970   8.714  0.4421  0.4387  0.0494
  881TMC3    C113118   3.812   0.669   9.503 -0.9716 -0.3144 -0.1317
  881TMC3    C213119   3.776   0.638   9.371  0.4306 -0.5884 -0.6905
  881TMC3    C313120   3.748   0.739   9.286  0.0280 -0.2787  0.1763
  881TMC3    C413121   3.796   0.798   9.541 -0.0272 -0.1271 -0.0496
  881TMC3    C513122   3.787   0.896   9.446 -0.0517 -0.3206 -0.4837
  881TMC3    C613123   3.740   0.867   9.317 -0.1865  0.5396  0.3183
  881TMC3     C13124   3.938   0.609   9.553  0.6099  0.2222  0.1416
  881TMC3     O13125   4.030   0.686   9.574 -0.1004 -0.8047  0.3852
  881TMC3     H13126   3.814   0.546   9.328  1.9804  0.5259 -1.6777
  881TMC3    H113127   3.836   0.827   9.638 -0.2280  1.6285 -0.4893
  881TMC3    H213128   3.725   0.945   9.244 -1.3007 -3.1213 -3.3698
  881TMC3    C713129   3.758   1.032   9.496 -0.1714 -0.1829  0.0632
  881TMC3    C813130   3.786   0.711   9.148 -0.1779  0.1801  0.0902
  881TMC3    O113131   3.744   1.039   9.616  0.2357  0.0014  0.2602
  881TMC3    O213132   3.760   0.603   9.096  0.3604  0.3888  0.4305
  882TMC3    C113133   3.058   2.755   7.073 -0.9540  0.3420  0.2436
  882TMC3    C213134   2.995   2.835   6.983 -0.1352  0.6646 -0.5410
  882TMC3    C313135   3.043   2.842   6.855 -0.6303 -0.7945  0.0073
  882TMC3    C413136   3.180   2.692   7.044  0.0805 -0.8444 -0.1557
  882TMC3    C513137   3.233   2.715   6.913 -0.2160  0.0275 -0.5629
  882TMC3    C613138   3.163   2.782   6.816  0.2151 -0.5419  0.2921
  882TMC3     C13139   3.021   2.771   7.219  0.0691  0.8483  0.2816
  882TMC3     O13140   3.103   2.748   7.305  0.3501  0.0311 -0.0324
  882TMC3     H13141   2.904   2.885   7.016 -0.8026  0.0812 -1.4912
  882TMC3    H113142   3.228   2.627   7.117  1.1610 -0.2306 -0.3167
  882TMC3    H213143   3.198   2.798   6.715 -1.7637 -0.7326 -0.4376
  882TMC3    C713144   3.344   2.630   6.876 -0.0961  0.7254  0.4560
  882TMC3    C813145   2.965   2.916   6.763  0.5105 -0.3204  0.0820
  882TMC3    O113146   3.362   2.536   6.954  0.4946 -0.2295 -0.1363
  882TMC3    O213147   3.012   3.007   6.699 -0.4182 -0.2194 -0.0035
  883TMC3    C113148   0.574   1.879  13.037 -0.4620 -0.7105  0.3185
  883TMC3    C213149   0.530   1.979  12.952 -0.2227  0.0220  0.4532
  883TMC3    C313150   0.538   1.951  12.815  0.5046  0.7489 -0.3708
  883TMC3    C413151   0.605   1.750  13.000  0.7178 -0.3127  0.1541
  883TMC3    C513152   0.588   1.720  12.866 -0.9834 -0.0785  0.3614
  883TMC3    C613153   0.562   1.822  12.777 -0.3891 -0.0123  0.0058
  883TMC3     C13154   0.578   1.894  13.178 -0.3868 -0.3651 -0.4291
  883TMC3     O13155   0.584   1.792  13.248 -0.1637  0.4584 -0.2804
  883TMC3     H13156   0.515   2.079  12.992  0.7891  0.2328  0.3110
  883TMC3    H113157   0.657   1.686  13.070 -1.8995 -1.2515  1.2353
  883TMC3    H213158   0.535   1.799  12.675  0.7650  2.0519 -0.7650
  883TMC3    C713159   0.633   1.586  12.817 -0.3903  0.1330 -0.3307
  883TMC3    C813160   0.492   2.044  12.718 -0.2963  0.1936  0.0623
  883TMC3    O113161   0.666   1.579  12.699  0.4987 -0.5484 -0.7590
  883TMC3    O213162   0.428   2.144  12.757  0.0067  0.1663  0.0709
  884TMC3    C113163   2.385   2.748  12.298  0.3944  0.4137 -0.0500
  884TMC3    C213164   2.283   2.718  12.381 -0.0267  0.6183  0.2649
  884TMC3    C313165   2.165   2.788  12.371  0.6933  0.6328  0.1888
  884TMC3    C413166   2.372   2.836  12.191  0.0091 -0.4491 -0.1633
  884TMC3    C513167   2.248   2.897  12.174  0.5653 -0.0259 -1.0483
  884TMC3    C613168   2.146   2.877  12.268  0.0045 -0.2795 -0.2804
  884TMC3     C13169   2.473   2.634  12.274  0.4555  0.4771  0.0947
  884TMC3     O13170   2.512   2.565  12.365 -0.2611  0.9256  0.3637
  884TMC3     H13171   2.308   2.639  12.450 -0.9933  2.9671  3.3184
  884TMC3    H113172   2.454   2.846  12.122 -0.6522  0.7121 -0.7773
  884TMC3    H213173   2.056   2.936  12.269  0.6716  0.7582 -1.4174
  884TMC3    C713174   2.228   2.997  12.073 -0.2783  0.3879 -0.0129
  884TMC3    C813175   2.053   2.764  12.462  0.2275 -0.1736 -0.7498
  884TMC3    O113176   2.328   3.034  12.015  0.5068  0.3891  0.2782
  884TMC3    O213177   1.978   2.861  12.469 -0.2893  0.2911  0.7661
  885TMC3    C113178   1.131   1.501  11.452 -0.1967  0.1153 -0.1632
  885TMC3    C213179   1.196   1.451  11.562 -0.0927  0.1189  0.5583
  885TMC3    C313180   1.146   1.483  11.691 -0.9604  0.4828 -0.9128
  885TMC3    C413181   1.026   1.599  11.468  0.1733  0.0183 -0.3764
  885TMC3    C513182   0.997   1.636  11.601  0.0183 -0.2061 -0.1165
  885TMC3    C613183   1.053   1.582  11.713  0.7732  0.0950 -0.3194
  885TMC3     C13184   1.205   1.505  11.328 -0.3799 -0.6199 -0.4174
  885TMC3     O13185   1.148   1.568  11.238 -0.2988 -0.0751  0.2788
  885TMC3     H13186   1.245   1.354  11.560  1.0113  0.6853 -0.5778
  885TMC3    H113187   1.021   1.670  11.387  1.0578  2.2516  1.5189
  885TMC3    H213188   1.023   1.617  11.811  0.6311  1.3050 -0.7903
  885TMC3    C713189   0.918   1.762  11.619  0.8287 -0.2842 -0.5325
  885TMC3    C813190   1.203   1.408  11.809 -0.6287  0.2128 -0.3909
  885TMC3    O113191   0.929   1.824  11.725  0.1069  0.2917  0.1386
  885TMC3    O213192   1.161   1.430  11.921  0.1023 -0.4567 -0.2342
  886TMC3    C113193   2.291   2.413  11.338 -0.3574  0.0960 -0.8398
  886TMC3    C213194   2.334   2.418  11.464  0.2018 -0.1863  0.1340
  886TMC3    C313195   2.250   2.462  11.559  0.8465  0.2570 -0.1781
  886TMC3    C413196   2.162   2.448  11.302  0.0827 -0.1177 -0.1071
  886TMC3    C513197   2.078   2.500  11.397  0.2580  0.4925  0.1033
  886TMC3    C613198   2.118   2.501  11.530 -0.5205  0.4313 -0.4760
  886TMC3     C13199   2.383   2.361  11.232 -0.0843 -0.0743  0.2011
  886TMC3     O13200   2.346   2.380  11.117 -1.0190 -0.1303 -0.1905
  886TMC3     H13201   2.438   2.403  11.492 -0.5433  1.0296  3.4874
  886TMC3    H113202   2.131   2.436  11.199 -0.3673  0.9315 -0.0966
  886TMC3    H213203   2.054   2.546  11.605 -0.2806 -1.7447  1.0331
  886TMC3    C713204   1.934   2.479  11.378  0.0983 -0.0421  0.0746
  886TMC3    C813205   2.295   2.475  11.694 -0.5778  0.1464 -0.0323
  886TMC3    O113206   1.898   2.366  11.350 -0.1317 -0.0399  0.2141
  886TMC3    O213207   2.227   2.547  11.766  0.1653 -0.0071  0.6247
  887TMC3    C113208   0.343   1.599   8.599 -0.1980 -0.2834  0.1844
  887TMC3    C213209   0.418   1.664   8.500  0.0394  0.0082  0.0971
  887TMC3    C313210   0.363   1.680   8.376 -0.6283 -0.3159 -0.0334
  887TMC3    C413211   0.207   1.584   8.589  0.3302 -0.6084 -0.1370
  887TMC3    C513212   0.151   1.610   8.469 -0.0443 -0.3524 -0.0175
  887TMC3    C613213   0.230   1.639   8.360  1.0322 -0.3214  0.3086
  887TMC3     C13214   0.392   1.590   8.730  0.2076 -0.5065 -0.2060
  887TMC3     O13215   0.397   1.487   8.787 -0.2503 -0.0364 -0.4626
  887TMC3     H13216   0.526   1.664   8.511  0.1079 -1.0316 -0.5444
  887TMC3    H113217   0.152   1.541   8.672  2.5020 -1.0633  1.0548
  887TMC3    H213218   0.188   1.626   8.261 -0.8046  0.2955  1.0041
  887TMC3    C713219   0.006   1.614   8.464 -0.0918 -0.0471  0.6719
  887TMC3    C813220   0.446   1.673   8.259 -0.5628 -0.0396  0.1148
  887TMC3    O113221   4.718   1.562   8.555  0.6132 -0.1243 -0.0676
  887TMC3    O213222   0.548   1.610   8.268 -0.6240  0.2962 -0.4171
  888TMC3    C113223   0.668   0.273  13.411  0.8523  0.0112  0.6449
  888TMC3    C213224   0.564   0.204  13.467  0.3356  0.4122  0.3432
  888TMC3    C313225   0.526   0.088  13.403 -0.2435  0.5815 -0.1904
  888TMC3    C413226   0.720   0.237  13.291 -0.2533  0.8103 -0.3671
  888TMC3    C513227   0.665   0.128  13.224 -0.1852 -0.5125 -0.0062
  888TMC3    C613228   0.561   0.054  13.273 -0.6857 -0.4919 -0.5674
  888TMC3     C13229   0.697   0.413  13.446  0.5450 -0.6761 -0.6221
  888TMC3     O13230   0.769   0.482  13.372 -0.0961  0.1023  0.5805
  888TMC3     H13231   0.517   0.228  13.562  1.5130  1.0940  0.7549
  888TMC3    H113232   0.796   0.298  13.245  1.1834  0.9602  2.1825
  888TMC3    H213233   0.531   4.742  13.217 -0.9027  0.4297 -1.8846
  888TMC3    C713234   0.771   0.054  13.159 -0.2173 -0.1559 -0.0757
  888TMC3    C813235   0.492   4.741  13.474  0.7176 -0.2112  0.7201
  888TMC3    O113236   0.863   0.107  13.099  0.0163 -0.3149  0.3101
  888TMC3    O213237   0.518   4.635  13.413  0.2307  0.3164 -0.0240
  889TMC3    C113238   3.495   3.562  14.647  0.1401  0.2803  0.4563
  889TMC3    C213239   3.613   3.620  14.702 -0.0895 -0.1493 -0.1747
  889TMC3    C313240   3.592   3.714  14.801  0.3237  0.4230 -0.1534
  889TMC3    C413241   3.369   3.600  14.675 -0.1402  0.2591  0.4714
  889TMC3    C513242   3.358   3.716  14.754  0.5849 -0.4402 -0.1034
  889TMC3    C613243   3.467   3.767  14.816  0.5390 -0.6885  0.2658
  889TMC3     C13244   3.511   3.479  14.526 -0.0919 -0.2544 -0.0843
  889TMC3     O13245   3.409   3.416  14.495  0.1752  0.8288  0.2111
  889TMC3     H13246   3.704   3.562  14.693 -1.0798 -2.2231  3.2384
  889TMC3    H113247   3.288   3.549  14.624  0.9967 -0.2848 -0.7987
  889TMC3    H213248   3.447   3.845  14.889 -3.4492  0.3523 -1.9310
  889TMC3    C713249   3.234   3.789  14.750 -0.1735  0.7933  0.2450
  889TMC3    C813250   3.712   3.762  14.866  0.0380 -0.4192 -0.1715
  889TMC3    O113251   3.237   3.896  14.805 -0.1236  0.0639  0.7960
  889TMC3    O213252   3.810   3.690  14.851  0.0519 -1.3542 -0.0934
  890TMC3    C113253   2.087   4.502   6.499  0.4511  0.8728  0.5283
  890TMC3    C213254   2.197   4.540   6.575 -0.0843  0.5619 -0.2338
  890TMC3    C313255   2.318   4.544   6.515  0.3648 -0.6516  0.7056
  890TMC3    C413256   2.095   4.449   6.376 -0.1152  0.8672  0.1523
  890TMC3    C513257   2.222   4.418   6.329  0.3222 -0.1700  0.5003
  890TMC3    C613258   2.324   4.484   6.393 -0.4519 -0.2543 -0.6833
  890TMC3     C13259   1.970   4.473   6.582  0.1096 -0.1820  0.0340
  890TMC3     O13260   1.861   4.504   6.533 -0.5441 -0.3178 -0.0555
  890TMC3     H13261   2.190   4.572   6.678  0.0052  1.1716 -0.4144
  890TMC3    H113262   2.007   4.433   6.315  0.1187  0.0562  0.0231
  890TMC3    H213263   2.418   4.464   6.342  1.2199  2.0219  1.4997
  890TMC3    C713264   2.253   4.276   6.331 -0.3974  0.2783  0.4322
  890TMC3    C813265   2.430   4.592   6.581  0.4846  0.6308  0.3434
  890TMC3    O113266   2.372   4.246   6.352  0.8742  0.2165 -0.2706
  890TMC3    O213267   2.412   4.674   6.666 -0.5437 -0.1115  0.1383
  891TMC3    C113268   4.266   4.411  11.279 -0.6514 -0.2059 -0.3515
  891TMC3    C213269   4.299   4.485  11.169 -0.6578 -1.0907 -0.3348
  891TMC3    C313270   4.420   4.545  11.166  0.0783  0.0053  0.2769
  891TMC3    C413271   4.345   4.410  11.388 -0.6251  0.3475 -0.1621
  891TMC3    C513272   4.462   4.480  11.382 -0.0660 -0.2573  0.2196
  891TMC3    C613273   4.502   4.546  11.271  0.0293 -0.1560  0.6962
  891TMC3     C13274   4.184   4.296  11.250 -0.0590 -0.7785 -0.3956
  891TMC3     O13275   4.097   4.299  11.167  0.1668 -0.1759  0.3482
  891TMC3     H13276   4.241   4.487  11.077  0.5635  1.3135 -1.0621
  891TMC3    H113277   4.317   4.335  11.462  1.9688 -0.1684  0.3071
  891TMC3    H213278   4.595   4.599  11.262  0.1983 -0.9686 -2.2608
  891TMC3    C713279   4.564   4.452  11.475 -0.5660 -0.4287 -0.4370
  891TMC3    C813280   4.479   4.605  11.042  0.1883 -0.3998  1.3138
  891TMC3    O113281   4.677   4.479  11.445 -0.2029  0.1234  0.3164
  891TMC3    O213282   4.396   4.623  10.956 -0.4854  0.1353 -0.2810
  892TMC3    C113283   2.871   3.350  11.038 -0.5316  0.5982  0.6146
  892TMC3    C213284   2.741   3.365  11.029  0.1267  0.6455 -0.0368
  892TMC3    C313285   2.699   3.491  10.998 -0.5261  0.1654  0.5856
  892TMC3    C413286   2.967   3.440  11.001 -0.4828 -0.5332 -0.3182
  892TMC3    C513287   2.921   3.567  10.983 -0.9275 -0.3213  0.3787
  892TMC3    C613288   2.789   3.596  10.978 -0.2782 -0.0551 -0.4425
  892TMC3     C13289   2.910   3.247  11.126  0.8707 -0.2550 -0.2754
  892TMC3     O13290   3.002   3.172  11.098 -0.0918  0.2246  0.2791
  892TMC3     H13291   2.676   3.280  11.044  0.9223  0.3894  1.8835
  892TMC3    H113292   3.070   3.433  11.036 -0.6714 -2.0431 -0.0599
  892TMC3    H213293   2.752   3.696  10.955 -1.6796 -0.6811 -0.9204
  892TMC3    C713294   3.001   3.667  10.920 -0.3326  0.4334  0.0899
  892TMC3    C813295   2.559   3.528  11.015 -0.7057  0.0012 -0.7043
  892TMC3    O113296   2.960   3.779  10.948 -0.1602 -0.2319  0.6547
  892TMC3    O213297   2.524   3.642  10.978 -0.2268  0.0372 -0.1897
  893TMC3    C113298   0.856   1.671  10.499 -0.1705 -0.2454 -0.0107
  893TMC3    C213299   0.954   1.579  10.544 -0.0357 -0.4473 -0.6290
  893TMC3    C313300   0.928   1.496  10.646  0.0471 -1.4591  0.1984
  893TMC3    C413301   0.740   1.690  10.565  0.4889 -0.5797 -0.3198
  893TMC3    C513302   0.723   1.623  10.675  0.4471  0.0940 -0.2232
  893TMC3    C613303   0.815   1.531  10.722 -0.1599 -0.9894  0.1059
  893TMC3     C13304   0.822   1.660  10.358  0.2445  0.1742 -0.2117
  893TMC3     O13305   0.702   1.635  10.341  0.0743 -0.2877 -0.1897
  893TMC3     H13306   1.033   1.548  10.475 -1.1651 -1.5738 -1.4169
  893TMC3    H113307   0.657   1.748  10.524  0.7783 -0.5460 -0.8509
  893TMC3    H213308   0.789   1.473  10.810  0.1127 -0.2662  0.6614
  893TMC3    C713309   0.590   1.560  10.677 -0.0169  0.0236 -0.8753
  893TMC3    C813310   0.926   1.355  10.598  0.4011 -0.3171 -0.1341
  893TMC3    O113311   0.544   1.530  10.784  0.4838  0.4103 -0.1348
  893TMC3    O213312   1.004   1.314  10.511  0.1117  0.0886  0.1711
  894TMC3    C113313   0.685   1.858  14.780 -0.1031  0.1856 -0.0683
  894TMC3    C213314   0.667   1.730  14.746  0.0350 -0.2343  0.2899
  894TMC3    C313315   0.590   1.692  14.642 -0.3059 -0.3003 -0.5869
  894TMC3    C413316   0.632   1.961  14.704 -0.1056 -0.3201  0.1611
  894TMC3    C513317   0.548   1.922  14.599  0.3926  0.1076 -0.3099
  894TMC3    C613318   0.531   1.790  14.566 -0.4801  0.3846  1.1754
  894TMC3     C13319   0.754   1.879  14.909 -0.6793  0.3610  0.5951
  894TMC3     O13320   0.749   1.787  14.987  0.3232  0.0540 -0.1874
  894TMC3     H13321   0.715   1.653  14.806  2.1090  0.4427 -0.4792
  894TMC3    H113322   0.638   2.068  14.721 -0.3356 -0.3095  0.1834
  894TMC3    H213323   0.477   1.759  14.477  1.1697 -2.5520  1.1978
  894TMC3    C713324   0.527   2.027  14.494  0.5049 -0.0298 -0.0156
  894TMC3    C813325   0.624   1.563  14.564 -0.8467  0.1852  0.0800
  894TMC3    O113326   0.441   1.999  14.409 -0.5872  0.4320 -0.2376
  894TMC3    O213327   0.551   1.526  14.476  0.0611 -0.4945 -0.9659
  895TMC3    C113328   0.649   1.312  13.776 -0.2728  0.3866  0.1007
  895TMC3    C213329   0.634   1.193  13.845 -0.4636  0.1317 -0.5595
  895TMC3    C313330   0.663   1.199  13.980 -0.2835  0.2236  0.2045
  895TMC3    C413331   0.728   1.412  13.825  0.3224  0.3068 -0.2717
  895TMC3    C513332   0.766   1.409  13.958  0.3687  0.3480 -0.7349
  895TMC3    C613333   0.731   1.302  14.033  0.7600  0.3659  0.2078
  895TMC3     C13334   0.587   1.327  13.649 -0.3912 -0.3132 -0.5397
  895TMC3     O13335   0.553   1.224  13.594 -0.3061 -0.3527 -0.0720
  895TMC3     H13336   0.586   1.106  13.802 -1.5350  1.0797 -1.3084
  895TMC3    H113337   0.751   1.493  13.756 -0.5257 -0.8599 -1.9163
  895TMC3    H213338   0.755   1.297  14.139 -0.2105 -0.8067  0.3783
  895TMC3    C713339   0.749   1.538  14.023  0.4615 -0.3134 -0.2787
  895TMC3    C813340   0.638   1.082  14.053  0.2791 -1.2267 -0.1721
  895TMC3    O113341   0.682   1.546  14.123  0.4793  0.1220  0.4269
  895TMC3    O213342   0.639   0.979  13.991 -0.2641  0.1315  0.2697
  896TMC3    C113343   3.761   0.090   8.095 -0.5065  0.7383 -0.3158
  896TMC3    C213344   3.822   0.168   8.190 -0.5649  0.2250 -0.5751
  896TMC3    C313345   3.911   0.256   8.148  0.2369  1.1506 -0.3942
  896TMC3    C413346   3.769   0.120   7.959  0.0433 -0.4916 -0.0576
  896TMC3    C513347   3.848   0.229   7.923  0.2816 -0.2194  0.1273
  896TMC3    C613348   3.924   0.294   8.015 -0.2558  0.8776  0.1141
  896TMC3     C13349   3.652   0.005   8.142  0.0844 -0.6691  1.0266
  896TMC3     O13350   3.608   0.032   8.255 -0.4969  0.1111  0.3372
  896TMC3     H13351   3.820   0.139   8.295  1.0669  0.9071 -0.3465
  896TMC3    H113352   3.714   0.057   7.891 -1.2128 -0.4845  0.9655
  896TMC3    H213353   3.989   0.376   7.987 -1.4599  0.7784 -3.0090
  896TMC3    C713354   3.887   0.215   7.783  0.2281 -0.2523  0.2252
  896TMC3    C813355   3.992   0.336   8.248 -0.0629 -0.0704  0.3454
  896TMC3    O113356   3.825   0.139   7.713 -0.1551 -0.2437 -0.3220
  896TMC3    O213357   4.018   0.452   8.218 -0.1647  0.8464 -0.1343
  897TMC3    C113358   0.399   4.579  15.317 -0.5016 -0.1957  0.3046
  897TMC3    C213359   0.406   4.640  15.199 -0.1117 -0.1310  0.0829
  897TMC3    C313360   0.464   4.574  15.093 -0.2589 -0.1089 -0.4590
  897TMC3    C413361   0.462   4.461  15.339 -0.1297 -0.1266  0.1359
  897TMC3    C513362   0.542   4.407  15.243  0.4382 -0.5396  0.4419
  897TMC3    C613363   0.547   4.461  15.115  0.2588 -0.1005 -0.3628
  897TMC3     C13364   0.310   4.645  15.412 -0.0312  0.2809  0.5520
  897TMC3     O13365   0.306   4.767  15.412 -0.2062 -0.4872  0.4050
  897TMC3     H13366   0.350   4.731  15.182 -1.3971 -1.0219 -0.5142
  897TMC3    H113367   0.453   4.413  15.435  3.2086 -1.7257 -0.3623
  897TMC3    H213368   0.572   4.391  15.036 -3.7736 -0.2584 -1.4754
  897TMC3    C713369   0.560   4.261  15.256  0.1102  1.1556 -0.4938
  897TMC3    C813370   0.460   4.630  14.964 -0.5146 -0.2827  1.0329
  897TMC3    O113371   0.489   4.209  15.342 -0.1724  0.1083 -0.1270
  897TMC3    O213372   0.352   4.678  14.943 -0.1365  0.0218  0.4494
  898TMC3    C113373   0.872   3.007   9.680 -0.7851  1.2097  0.2446
  898TMC3    C213374   0.879   2.896   9.597  0.0797  0.0144  0.8003
  898TMC3    C313375   0.762   2.830   9.570  0.1979 -0.1696  0.3130
  898TMC3    C413376   0.753   3.064   9.713  0.0280 -0.4483 -0.1166
  898TMC3    C513377   0.641   2.997   9.671  0.7175  0.2555  0.0823
  898TMC3    C613378   0.640   2.881   9.604  0.3710  0.1494  0.3416
  898TMC3     C13379   0.997   3.060   9.732  0.9189  0.1423  0.4074
  898TMC3     O13380   1.092   2.981   9.721 -0.5302  0.0486 -0.1825
  898TMC3     H13381   0.973   2.854   9.562  0.1642 -0.3084  1.4115
  898TMC3    H113382   0.749   3.105   9.813  0.8021 -0.9030  0.0998
  898TMC3    H213383   0.550   2.831   9.569  1.0674 -0.8278 -0.0632
  898TMC3    C713384   0.526   3.081   9.642 -0.6935  0.0381 -1.0325
  898TMC3    C813385   0.753   2.727   9.460 -0.4355 -0.1408 -0.1716
  898TMC3    O113386   0.440   3.031   9.564  0.1755 -0.3200 -0.3833
  898TMC3    O213387   0.655   2.657   9.452 -0.2749  0.3929  0.3062
  899TMC3    C113388   2.864   0.289   8.157  0.4890 -0.3542  0.3665
  899TMC3    C213389   2.765   0.226   8.079  0.9231 -0.2438  0.1969
  899TMC3    C313390   2.670   0.145   8.140 -0.2407 -0.4671 -0.5449
  899TMC3    C413391   2.864   0.277   8.289  0.1652 -0.0464 -0.4965
  899TMC3    C513392   2.762   0.209   8.348 -0.1233  0.3043  0.2742
  899TMC3    C613393   2.671   0.133   8.276 -0.4171  0.6270  0.0043
  899TMC3     C13394   2.987   0.306   8.089 -0.3645 -0.3085 -0.0584
  899TMC3     O13395   3.072   0.382   8.138  0.0986 -0.1375 -0.2765
  899TMC3     H13396   2.757   0.244   7.972 -1.5915  0.0181  0.4226
  899TMC3    H113397   2.943   0.332   8.339 -2.3890  2.4019  0.7972
  899TMC3    H213398   2.591   0.077   8.324 -0.5087  0.6322 -0.1439
  899TMC3    C713399   2.749   0.224   8.493  0.5030 -0.1716 -0.2898
  899TMC3    C813400   2.624   0.032   8.059 -0.4293 -0.1625  0.7467
  899TMC3    O113401   2.843   0.279   8.544 -0.2140  0.3173  0.1467
  899TMC3    O213402   2.623   0.049   7.937  0.4949  0.2369 -0.3762
  900TMC3    C113403   0.753   4.290  12.719  0.3148 -0.9559 -0.1363
  900TMC3    C213404   0.780   4.415  12.661 -0.1376  0.7710  0.0273
  900TMC3    C313405   0.888   4.433  12.585 -0.6904 -0.1432  0.7530
  900TMC3    C413406   0.841   4.181  12.700  0.6131  0.1425  0.8771
  900TMC3    C513407   0.952   4.206  12.625  0.2321 -0.3553 -0.4760
  900TMC3    C613408   0.971   4.323  12.560 -0.0199  0.3573 -0.3867
  900TMC3     C13409   0.658   4.278  12.828 -0.3799 -0.2132  0.0622
  900TMC3     O13410   0.677   4.186  12.906 -0.3584 -0.0270  0.2646
  900TMC3     H13411   0.729   4.504  12.696  0.0619  1.0266 -0.3319
  900TMC3    H113412   0.826   4.083  12.743  2.1184 -0.8384 -0.7983
  900TMC3    H213413   1.068   4.354  12.525  0.5501 -0.7665  0.2061
  900TMC3    C713414   1.051   4.103  12.616 -0.1598  0.1143  0.0903
  900TMC3    C813415   0.861   4.516  12.463 -0.4186  0.3738  0.2477
  900TMC3    O113416   1.035   4.006  12.688 -0.5149 -0.4782 -0.0756
  900TMC3    O213417   0.793   4.608  12.490 -0.5642 -0.1689  1.0958
  901TMC3    C113418   2.270   4.257  12.383 -0.3081 -0.1261 -0.0333
  901TMC3    C213419   2.303   4.375  12.319 -0.4645 -0.0969  0.8331
  901TMC3    C313420   2.395   4.447  12.391 -0.6567  0.1184  0.3200
  901TMC3    C413421   2.316   4.214  12.504  0.9616  0.3696  0.8109
  901TMC3    C513422   2.400   4.289  12.579  0.2854 -0.0199  0.8949
  901TMC3    C613423   2.441   4.414  12.523 -0.0463 -0.2783  0.2446
  901TMC3     C13424   2.181   4.167  12.312 -0.3835 -0.0411  0.5251
  901TMC3     O13425   2.141   4.065  12.368 -0.6164  0.0462  0.6444
  901TMC3     H13426   2.282   4.395  12.215  1.5518  0.8412  0.6229
  901TMC3    H113427   2.289   4.115  12.538 -0.9572  0.8354  0.6160
  901TMC3    H213428   2.488   4.493  12.581  1.3809 -0.6294 -0.4126
  901TMC3    C713429   2.448   4.240  12.700  0.0236  0.1946 -0.4262
  901TMC3    C813430   2.399   4.588  12.365  0.1206 -0.1832  1.1163
  901TMC3    O113431   2.406   4.128  12.731 -0.1870 -0.7342 -0.5340
  901TMC3    O213432   2.423   4.666  12.458  0.2835 -0.8582 -0.4085
  902TMC3    C113433   0.945   2.726  13.635  0.6714 -0.3586  0.3089
  902TMC3    C213434   0.856   2.761  13.737  0.5648  0.1593  0.1675
  902TMC3    C313435   0.726   2.715  13.718  0.2245  0.2232 -0.2627
  902TMC3    C413436   0.903   2.651  13.525  0.3363 -0.0726  0.3596
  902TMC3    C513437   0.776   2.608  13.513 -0.2082  0.2942 -0.2296
  902TMC3    C613438   0.692   2.642  13.612  0.4905  0.7064 -0.4733
  902TMC3     C13439   1.083   2.696  13.677 -0.3966  0.8782 -0.2401
  902TMC3     O13440   1.096   2.636  13.783  0.3713  0.2347  0.7508
  902TMC3     H13441   0.879   2.824  13.822 -0.3279 -0.8109  1.1287
  902TMC3    H113442   0.970   2.626  13.443 -2.1501 -2.5416 -0.8894
  902TMC3    H213443   0.598   2.588  13.602  1.7504 -1.4879 -0.6469
  902TMC3    C713444   0.744   2.485  13.438  0.5670 -0.2373  0.2685
  902TMC3    C813445   0.651   2.711  13.845  0.1336  1.2389 -0.6689
  902TMC3    O113446   0.748   2.486  13.319  0.4926 -0.3934 -0.3145
  902TMC3    O213447   0.719   2.720  13.947 -0.7339  0.2510 -0.0153
  903TMC3    C113448   4.204   0.242  12.281 -0.5868  0.1558  0.3785
  903TMC3    C213449   4.149   0.301  12.167  0.2297  0.3893 -0.3588
  903TMC3    C313450   4.020   0.350  12.181 -0.0649  0.3893 -0.2131
  903TMC3    C413451   4.138   0.227  12.395 -0.8189  0.1679  0.5835
  903TMC3    C513452   4.014   0.286  12.408 -0.3850 -0.5953  0.5167
  903TMC3    C613453   3.948   0.347  12.300  0.8828 -0.4726 -0.1800
  903TMC3     C13454   4.333   0.162  12.272  0.3419 -0.1088  0.2745
  903TMC3     O13455   4.377   0.104  12.371  0.3683  0.2649 -0.3254
  903TMC3     H13456   4.197   0.308  12.070  1.3491  2.5612  0.3744
  903TMC3    H113457   4.167   0.159  12.474 -0.5668 -1.9207 -1.2995
  903TMC3    H213458   3.861   0.409  12.321  1.5499 -0.1960  1.7716
  903TMC3    C713459   3.942   0.268  12.528 -0.1568  0.0923 -0.6364
  903TMC3    C813460   3.952   0.377  12.050  0.1267  0.5876 -0.2676
  903TMC3    O113461   4.010   0.287  12.626  0.5905 -0.0002 -0.7006
  903TMC3    O213462   3.988   0.326  11.944 -0.2216 -0.2527  0.6377
  904TMC3    C113463   0.298   1.012  12.118 -0.2723  0.0174 -0.5645
  904TMC3    C213464   0.396   1.049  12.019  0.1574 -0.4778 -0.1106
  904TMC3    C313465   0.456   0.953  11.938  0.6919  0.3332 -0.8348
  904TMC3    C413466   0.288   0.885  12.148  0.2263  0.2016  0.6650
  904TMC3    C513467   0.351   0.786  12.078 -0.5270  0.3888  0.4172
  904TMC3    C613468   0.435   0.822  11.974  0.4672 -0.0538 -0.2165
  904TMC3     C13469   0.212   1.106  12.177 -0.1070  0.5035  0.3473
  904TMC3     O13470   0.103   1.065  12.216 -0.5404  0.1293 -0.1503
  904TMC3     H13471   0.397   1.152  11.984  1.1698 -0.4923 -0.1184
  904TMC3    H113472   0.214   0.868  12.225 -1.2023 -0.5650 -0.8914
  904TMC3    H213473   0.467   0.742  11.908 -0.1202 -2.2764  2.1904
  904TMC3    C713474   0.286   0.653  12.079 -0.8989 -0.2610 -0.1622
  904TMC3    C813475   0.597   0.982  11.922 -0.0958 -0.5308  0.1844
  904TMC3    O113476   0.294   0.596  11.974 -0.3759 -0.0501 -0.7848
  904TMC3    O213477   0.655   0.887  11.867 -0.0468  0.2873  0.4881
  905TMC3    C113478   4.148   3.408   6.604 -0.6453  1.0475  0.3201
  905TMC3    C213479   4.198   3.292   6.547 -1.0576 -0.1149 -0.4026
  905TMC3    C313480   4.162   3.249   6.425  0.3676  0.5092  0.0382
  905TMC3    C413481   4.049   3.477   6.542  0.2746  0.2229  0.3555
  905TMC3    C513482   4.009   3.429   6.415 -0.8178 -0.5003  0.9909
  905TMC3    C613483   4.067   3.320   6.361  0.2350  0.2686  0.2462
  905TMC3     C13484   4.171   3.424   6.749 -0.3615 -0.4348  0.7507
  905TMC3     O13485   4.219   3.332   6.809  0.1691  0.3568 -0.0792
  905TMC3     H13486   4.271   3.230   6.598 -0.6340  1.0605  0.4068
  905TMC3    H113487   3.996   3.555   6.596  0.0675 -0.2105  0.7715
  905TMC3    H213488   4.030   3.282   6.266 -0.0903 -0.4995  0.6826
  905TMC3    C713489   3.861   3.461   6.399  0.8901  0.6630 -0.4513
  905TMC3    C813490   4.135   3.107   6.415 -0.2178 -0.2560 -0.2599
  905TMC3    O113491   3.800   3.515   6.491 -0.0262  0.1144 -0.1778
  905TMC3    O213492   4.124   3.054   6.306  0.0421 -0.0873  0.1085
  906TMC3    C113493   0.383   1.347   9.822 -0.9922 -0.1214  0.6784
  906TMC3    C213494   0.290   1.418   9.747  0.2225 -0.6058 -0.1847
  906TMC3    C313495   0.159   1.418   9.794  0.3910 -0.0190  0.8964
  906TMC3    C413496   0.343   1.288   9.943 -0.1036  0.0390 -0.1569
  906TMC3    C513497   0.213   1.290   9.984  0.3931 -0.1849  0.7481
  906TMC3    C613498   0.118   1.358   9.910 -0.1615 -0.0566  0.1716
  906TMC3     C13499   0.521   1.381   9.801 -0.2519 -0.4610 -0.1207
  906TMC3     O13500   0.553   1.484   9.739  0.3397  0.0389  0.2293
  906TMC3     H13501   0.318   1.490   9.672 -1.0826 -1.4580 -1.4763
  906TMC3    H113502   0.425   1.253  10.005 -0.3997  2.5641  1.6502
  906TMC3    H213503   0.015   1.363   9.944  0.1367  0.3372  1.0263
  906TMC3    C713504   0.186   1.262  10.130 -0.6524  1.1844 -0.4432
  906TMC3    C813505   0.114   1.552   9.795  0.5562 -0.3142 -0.3255
  906TMC3    O113506   0.075   1.229  10.175  0.3907 -0.2355 -0.2054
  906TMC3    O213507   0.099   1.607   9.689  0.7985 -0.0111 -0.4149
  907TMC3    C113508   0.089   3.310  11.667 -0.7100  0.0816  0.5547
  907TMC3    C213509   0.151   3.422  11.723 -0.7048  0.6207 -0.4707
  907TMC3    C313510   0.221   3.506  11.642 -0.4074 -0.2816 -0.8675
  907TMC3    C413511   0.079   3.291  11.536  0.2810 -0.1883  0.9332
  907TMC3    C513512   0.162   3.371  11.453  0.3779  0.1205  0.3889
  907TMC3    C613513   0.235   3.471  11.509  0.2896  0.8936 -0.6556
  907TMC3     C13514   0.073   3.202  11.760  1.0604  0.3771  0.7961
  907TMC3     O13515   0.076   3.230  11.879  0.2817  0.7445  0.6942
  907TMC3     H13516   0.148   3.442  11.829 -2.4744 -1.8523 -0.0574
  907TMC3    H113517   0.021   3.210  11.494  1.2453 -1.0249  1.2137
  907TMC3    H213518   0.299   3.536  11.451  0.8359  0.9953  0.0604
  907TMC3    C713519   0.123   3.376  11.316 -0.2713  0.0054 -0.5061
  907TMC3    C813520   0.347   3.554  11.701 -0.3113  0.1721  0.3749
  907TMC3    O113521   0.050   3.288  11.273 -0.7897 -0.7559  0.4270
  907TMC3    O213522   0.343   3.564  11.825  0.0656 -0.0766 -0.3162
  908TMC3    C113523   0.304   1.405   9.370  0.3216  0.1887 -0.6274
  908TMC3    C213524   0.359   1.283   9.405 -0.0584 -0.4087 -0.6180
  908TMC3    C313525   0.269   1.192   9.464  0.1872  0.0789 -0.4729
  908TMC3    C413526   0.176   1.436   9.390 -0.2049  0.3588  0.2151
  908TMC3    C513527   0.088   1.345   9.442  1.1176 -0.3944  0.5572
  908TMC3    C613528   0.134   1.226   9.485  0.7131 -0.9153 -0.6801
  908TMC3     C13529   0.379   1.480   9.270  0.1527  0.0759 -0.1658
  908TMC3     O13530   0.450   1.417   9.185 -0.4694 -0.2122 -0.2015
  908TMC3     H13531   0.463   1.262   9.385 -0.1974 -0.4991 -1.2388
  908TMC3    H113532   0.137   1.527   9.345 -0.5621 -0.7304 -1.6601
  908TMC3    H213533   0.074   1.152   9.537  0.3585  1.5631  2.4637
  908TMC3    C713534   4.728   1.375   9.471 -0.5491  0.4253  0.5992
  908TMC3    C813535   0.325   1.106   9.575 -0.5502  0.1459  0.2502
  908TMC3    O113536   4.686   1.338   9.577  0.4804  0.2834  0.4643
  908TMC3    O213537   0.253   1.078   9.670 -0.0326  0.1109  0.2243
  909TMC3    C113538   3.917   3.137  12.938 -0.0045  0.5474  1.1239
  909TMC3    C213539   3.990   3.046  12.866 -0.0501  0.4015  0.5781
  909TMC3    C313540   4.031   2.933  12.931  0.5544 -0.3788 -0.0239
  909TMC3    C413541   3.890   3.123  13.075  0.2586 -0.2469  0.2823
  909TMC3    C513542   3.918   3.000  13.129  0.2625  0.3704  0.2371
  909TMC3    C613543   3.998   2.912  13.059 -0.1416 -0.1765  0.5733
  909TMC3     C13544   3.880   3.264  12.875 -0.2980  0.1493 -0.8247
  909TMC3     O13545   3.787   3.319  12.932  0.3137 -0.6181 -0.2885
  909TMC3     H13546   4.015   3.066  12.762 -0.3082  0.3158  0.4998
  909TMC3    H113547   3.833   3.200  13.126  0.1823  0.0591 -0.2672
  909TMC3    H213548   4.017   2.816  13.106  1.2020 -0.6209 -0.8813
  909TMC3    C713549   3.954   2.999  13.272 -0.1742 -1.1124  0.0808
  909TMC3    C813550   4.121   2.845  12.856 -0.9719 -0.2802  0.5545
  909TMC3    O113551   4.062   2.949  13.303  0.1930  0.5508 -0.1763
  909TMC3    O213552   4.113   2.845  12.733 -0.6482  0.0288  0.4556
  910TMC3    C113553   3.536   2.580  11.875  0.8421  0.8224 -0.0062
  910TMC3    C213554   3.597   2.557  11.752  0.4711  0.1491  0.7083
  910TMC3    C313555   3.622   2.665  11.670  0.2940 -0.2215  0.1245
  910TMC3    C413556   3.486   2.701  11.920  0.6122  0.2002  0.5233
  910TMC3    C513557   3.510   2.801  11.833  0.2599  0.0556 -1.0936
  910TMC3    C613558   3.579   2.786  11.711 -0.1623 -0.6994  0.5751
  910TMC3     C13559   3.531   2.468  11.958  0.0703  0.3893 -0.5715
  910TMC3     O13560   3.459   2.477  12.056  0.1032  0.3675 -0.6431
  910TMC3     H13561   3.596   2.460  11.704  0.2598  0.8515 -0.7008
  910TMC3    H113562   3.442   2.714  12.018  0.9018  3.0894  0.2494
  910TMC3    H213563   3.615   2.866  11.648 -2.2275  0.8327  1.3610
  910TMC3    C713564   3.429   2.923  11.836  0.6881 -0.0646 -0.4888
  910TMC3    C813565   3.637   2.649  11.530 -0.6168 -0.8308  0.6754
  910TMC3    O113566   3.443   3.000  11.743  0.3973 -0.2100 -0.2468
  910TMC3    O213567   3.581   2.737  11.461 -0.1334  0.0372 -0.4350
  911TMC3    C113568   3.810   4.362   6.874 -0.5604  0.5252  0.3990
  911TMC3    C213569   3.843   4.481   6.940  0.6127 -0.4318  0.4994
  911TMC3    C313570   3.978   4.521   6.944  0.3684  0.0794 -0.4218
  911TMC3    C413571   3.903   4.309   6.783  1.0254 -0.0746 -0.3373
  911TMC3    C513572   4.028   4.372   6.771  0.3800 -0.4148 -0.1004
  911TMC3    C613573   4.067   4.467   6.857 -0.2463  0.1719 -0.0173
  911TMC3     C13574   3.735   4.272   6.961  0.4139 -0.0439 -0.7084
  911TMC3     O13575   3.658   4.321   7.043 -0.4285 -0.6334 -0.3936
  911TMC3     H13576   3.765   4.523   7.003  2.9785  0.6011  2.7328
  911TMC3    H113577   3.889   4.209   6.744 -0.5373  0.1787 -0.4316
  911TMC3    H213578   4.154   4.529   6.841  0.4170 -0.5996  0.5679
  911TMC3    C713579   4.145   4.317   6.697  0.2983  0.6893  0.0336
  911TMC3    C813580   4.033   4.531   7.073 -0.4609 -0.4952 -0.5331
  911TMC3    O113581   4.254   4.340   6.750  0.3732  0.5186 -0.5698
  911TMC3    O213582   4.147   4.570   7.081  0.4404 -0.0789  0.0764
  912TMC3    C113583   1.701   2.462   8.845  0.0530 -0.2099 -0.1424
  912TMC3    C213584   1.831   2.429   8.867  0.1686  0.9016  0.5066
  912TMC3    C313585   1.874   2.300   8.872  0.3913  0.3508  0.5647
  912TMC3    C413586   1.602   2.361   8.837 -0.3349 -0.5327  0.0438
  912TMC3    C513587   1.648   2.234   8.835 -0.2692  0.2697 -0.3192
  912TMC3    C613588   1.779   2.200   8.848 -1.0180  0.1150  0.0878
  912TMC3     C13589   1.694   2.565   8.739  0.3303 -0.3725 -0.1711
  912TMC3     O13590   1.711   2.674   8.793 -0.1664  0.8193 -0.3262
  912TMC3     H13591   1.906   2.508   8.863 -0.4714  1.5145  0.6724
  912TMC3    H113592   1.501   2.389   8.810 -0.8993 -0.2830  2.4557
  912TMC3    H213593   1.811   2.097   8.853  0.6295  0.6425  0.6506
  912TMC3    C713594   1.554   2.121   8.826 -0.5718 -0.5739  0.6859
  912TMC3    C813595   2.008   2.269   8.835 -0.4583 -0.2429 -0.6495
  912TMC3    O113596   1.587   2.030   8.752  0.3568 -0.2672  0.2971
  912TMC3    O213597   2.097   2.342   8.872  0.6097 -0.1918 -0.1927
  913TMC3    C113598   1.058   0.660  12.620  0.4773  0.5907 -0.3244
  913TMC3    C213599   1.178   0.596  12.622  0.3038 -0.1789  0.6101
  913TMC3    C313600   1.285   0.678  12.624 -0.2466 -0.0545  0.6534
  913TMC3    C413601   1.044   0.796  12.634  1.2643  0.1457 -0.5575
  913TMC3    C513602   1.152   0.875  12.649 -0.9326  0.2007 -0.5224
  913TMC3    C613603   1.270   0.815  12.629  0.7588  0.0404  0.4665
  913TMC3     C13604   0.946   0.584  12.568  0.2300  0.1378  0.2642
  913TMC3     O13605   0.966   0.504  12.482  0.4919 -0.4323 -0.0511
  913TMC3     H13606   1.190   0.490  12.605 -0.9326 -0.1535 -0.4491
  913TMC3    H113607   0.946   0.844  12.632  0.0748 -2.3362 -2.0142
  913TMC3    H213608   1.362   0.872  12.626  2.0694 -2.0560  1.6823
  913TMC3    C713609   1.144   1.019  12.645 -0.6190 -0.0447  0.0279
  913TMC3    C813610   1.403   0.616  12.568  0.6640 -0.0262 -0.0799
  913TMC3    O113611   1.051   1.066  12.581 -0.3853 -0.0668 -0.0791
  913TMC3    O213612   1.478   0.558  12.646  0.0716 -0.3388  0.2460
  914TMC3    C113613   3.822   4.167  14.256 -0.1201  0.0581 -0.5780
  914TMC3    C213614   3.733   4.079  14.203  0.8505 -0.5592  0.1346
  914TMC3    C313615   3.603   4.118  14.183  0.2220 -0.3592  0.1775
  914TMC3    C413616   3.793   4.297  14.279  0.1323 -0.2576  0.3375
  914TMC3    C513617   3.662   4.338  14.249 -0.5491 -0.0548 -0.2311
  914TMC3    C613618   3.566   4.252  14.200 -0.2861 -0.0732 -0.2287
  914TMC3     C13619   3.942   4.111  14.321  0.1581 -0.7555 -0.5078
  914TMC3     O13620   3.939   3.991  14.355 -0.5173  0.1056  0.0131
  914TMC3     H13621   3.764   3.977  14.184  2.3071 -0.0955  0.0675
  914TMC3    H113622   3.860   4.364  14.332  0.2131  0.9932 -1.3622
  914TMC3    H213623   3.469   4.295  14.177 -0.1291  2.3663  3.5937
  914TMC3    C713624   3.620   4.457  14.319 -0.4707  0.2334  0.1447
  914TMC3    C813625   3.500   4.034  14.138  0.0607 -0.0006  0.0726
  914TMC3    O113626   3.708   4.536  14.349  0.0855  0.2752 -0.3627
  914TMC3    O213627   3.399   4.090  14.100 -0.7204 -0.1390  0.1593
  915TMC3    C113628   4.292   4.060  10.427 -0.6235 -0.2983  0.8309
  915TMC3    C213629   4.274   3.999  10.312 -0.0313  0.4062 -1.0501
  915TMC3    C313630   4.314   4.074  10.194  0.8755 -0.3828  0.0066
  915TMC3    C413631   4.357   4.178  10.443 -0.4928 -0.3141 -0.1159
  915TMC3    C513632   4.396   4.247  10.326  0.6034  0.0557  0.3089
  915TMC3    C613633   4.373   4.195  10.201  0.0174  0.8304 -0.5427
  915TMC3     C13634   4.177   4.048  10.513 -0.0880  0.1936  0.4671
  915TMC3     O13635   4.142   3.943  10.559 -0.1643  0.0284 -0.2116
  915TMC3     H13636   4.220   3.905  10.305  1.0303 -0.3719  1.3617
  915TMC3    H113637   4.355   4.230  10.538  3.2262 -0.0137 -0.2033
  915TMC3    H213638   4.396   4.252  10.112 -1.7220  0.4316 -1.2375
  915TMC3    C713639   4.348   4.383  10.335  0.6185 -0.2788  0.6695
  915TMC3    C813640   4.218   4.043  10.088 -0.1424 -0.7561 -0.8583
  915TMC3    O113641   4.248   4.394  10.407  0.3402 -0.0882  0.0486
  915TMC3    O213642   4.130   3.965  10.123  0.0348 -0.1493  0.4771
  916TMC3    C113643   4.768   0.178  14.295  0.1055  0.3408  0.0019
  916TMC3    C213644   0.017   0.140  14.165 -0.7116 -0.3223  0.2418
  916TMC3    C313645   0.112   0.042  14.152  0.2292 -0.0649  0.0119
  916TMC3    C413646   0.053   0.118  14.404 -0.3656  0.2973  0.2357
  916TMC3    C513647   0.152   0.031  14.384 -0.0246 -0.0583  0.3285
  916TMC3    C613648   0.182   4.763  14.260  0.1865 -1.1657  0.0533
  916TMC3     C13649   4.652   0.265  14.317  0.2932 -0.4313  0.6276
  916TMC3     O13650   4.574   0.299  14.222 -0.2726  0.3102 -0.3768
  916TMC3     H13651   4.738   0.188  14.085 -0.0793  1.3805  0.8390
  916TMC3    H113652   0.022   0.140  14.505  1.7252  1.3942  0.6377
  916TMC3    H213653   0.255   4.685  14.240  0.0386 -1.0049 -1.0882
  916TMC3    C713654   0.243   0.005  14.497  0.3089 -0.1896 -0.7611
  916TMC3    C813655   0.134   0.005  14.015 -0.0721 -0.4768 -0.3923
  916TMC3    O113656   0.213   0.057  14.604  0.4022 -0.2201  0.2420
  916TMC3    O213657   0.103   0.082  13.923  0.6218  0.2547 -0.2801
  917TMC3    C113658   0.135   1.634  11.401 -0.5280 -0.1996 -0.2374
  917TMC3    C213659   0.191   1.748  11.463 -0.5473 -0.8436 -0.2390
  917TMC3    C313660   0.322   1.742  11.507  0.1254 -0.3274  0.2702
  917TMC3    C413661   0.212   1.542  11.348 -0.1917 -0.7848  0.0657
  917TMC3    C513662   0.350   1.544  11.377  0.7060  0.0682 -0.0670
  917TMC3    C613663   0.406   1.646  11.454 -0.0212  0.3491 -0.1170
  917TMC3     C13664   0.008   1.582  11.459 -0.4828  0.1434 -0.7436
  917TMC3     O13665   4.707   1.522  11.386 -0.6301  0.4231  0.1538
  917TMC3     H13666   0.121   1.816  11.511 -1.3107 -0.4417 -1.9030
  917TMC3    H113667   0.170   1.444  11.334 -0.4698 -0.5248 -0.9477
  917TMC3    H213668   0.502   1.632  11.503 -0.5042 -0.1035  0.7064
  917TMC3    C713669   0.416   1.413  11.379 -0.5059  0.6637 -0.8590
  917TMC3    C813670   0.334   1.748  11.655  0.9965 -0.4027 -0.4827
  917TMC3    O113671   0.512   1.408  11.456 -0.3097  0.2114 -0.2625
  917TMC3    O213672   0.234   1.722  11.718  0.2205 -0.0483  0.2991
  918TMC3    C113673   1.962   2.973   9.536  0.0505 -0.2042  0.1867
  918TMC3    C213674   2.087   2.975   9.594  0.1964  0.3161 -0.2150
  918TMC3    C313675   2.194   3.033   9.526 -0.3784  0.2675 -0.3595
  918TMC3    C413676   1.943   3.026   9.414  0.2159  0.1314  0.0453
  918TMC3    C513677   2.046   3.101   9.361 -0.3169 -0.9230  0.3610
  918TMC3    C613678   2.175   3.099   9.406 -0.1178 -0.2532 -0.2216
  918TMC3     C13679   1.861   2.891   9.592 -0.0627 -0.0027 -0.6229
  918TMC3     O13680   1.775   2.845   9.522 -0.2289 -0.2789 -0.0358
  918TMC3     H13681   2.114   2.901   9.669 -0.1370 -0.1104 -0.5124
  918TMC3    H113682   1.844   3.028   9.369 -0.0015 -0.4130  0.5051
  918TMC3    H213683   2.252   3.157   9.356  0.2687  0.3882  1.0860
  918TMC3    C713684   2.011   3.224   9.289 -0.2965  0.0233  0.1517
  918TMC3    C813685   2.299   3.077   9.620 -0.3736 -0.1397  0.9470
  918TMC3    O113686   2.101   3.308   9.268  0.1213  0.2245  0.3641
  918TMC3    O213687   2.285   3.057   9.739  0.3543 -0.3095  0.1274
  919TMC3    C113688   3.634   0.008  15.425 -0.4495 -0.0815  0.0852
  919TMC3    C213689   3.674   0.141  15.419  0.1230 -0.4203 -0.0020
  919TMC3    C313690   3.803   0.170  15.442 -0.3468 -0.5736  0.1266
  919TMC3    C413691   3.716   4.682  15.455  0.4980  0.2528 -0.0981
  919TMC3    C513692   3.840   4.724  15.490 -0.3291 -0.1891 -1.1156
  919TMC3    C613693   3.886   0.075  15.491 -0.3241 -0.5444  0.0835
  919TMC3     C13694   3.502   4.761  15.473  0.1113  0.2138 -0.5455
  919TMC3     O13695   3.462   4.642  15.473  0.1106 -0.2159  0.0033
  919TMC3     H13696   3.608   0.211  15.370 -2.9575 -2.8960  0.5724
  919TMC3    H113697   3.672   4.584  15.462  1.6012 -0.2054  0.5428
  919TMC3    H213698   3.992   0.096  15.502 -0.2010 -1.2183  0.1541
  919TMC3    C713699   3.938   4.615  15.479  0.4952  0.0487  0.0980
  919TMC3    C813700   3.859   0.252  15.329 -0.8482 -0.3088  0.0502
  919TMC3    O113701   4.047   4.632  15.532  0.0171 -0.2330 -0.0261
  919TMC3    O213702   3.782   0.287  15.241  0.6285  0.4420  0.0934
  920TMC3    C113703   3.845   4.525   5.894  0.4001  0.4056 -0.2535
  920TMC3    C213704   3.736   4.586   5.957  0.1226  0.7346 -0.4279
  920TMC3    C313705   3.621   4.523   5.947 -0.7427  0.5500  0.3819
  920TMC3    C413706   3.829   4.421   5.810  0.1639  0.8592  0.2066
  920TMC3    C513707   3.705   4.359   5.801  0.4899  0.1039 -0.0518
  920TMC3    C613708   3.606   4.411   5.870 -0.6480 -0.0970 -0.9795
  920TMC3     C13709   3.976   4.584   5.909  0.1746  0.3346  0.2112
  920TMC3     O13710   4.067   4.549   5.830  0.0105  0.4661 -0.3393
  920TMC3     H13711   3.752   4.664   6.030  0.3804 -1.5821  1.9774
  920TMC3    H113712   3.915   4.376   5.762  0.4262  0.8269  0.7100
  920TMC3    H213713   3.511   4.359   5.864 -0.0410 -1.1545 -1.4727
  920TMC3    C713714   3.700   4.212   5.770 -0.1196 -0.3869 -0.0673
  920TMC3    C813715   3.491   4.591   5.976 -0.1365 -0.7010  0.3359
  920TMC3    O113716   3.798   4.157   5.725 -0.2348 -0.9207  0.2168
  920TMC3    O213717   3.394   4.529   5.935  0.0929 -0.7644  0.0739
  921TMC3    C113718   3.860   3.293   8.917  0.3459 -0.1765 -0.1479
  921TMC3    C213719   3.848   3.408   8.853  0.5206 -0.2249  0.2800
  921TMC3    C313720   3.845   3.413   8.716  0.2627 -0.0867 -0.6672
  921TMC3    C413721   3.856   3.176   8.844  0.0760  0.7614 -0.6028
  921TMC3    C513722   3.837   3.176   8.705  0.4601 -0.6029  0.1048
  921TMC3    C613723   3.842   3.302   8.647  0.2557  0.1791 -0.1143
  921TMC3     C13724   3.785   3.292   9.036 -0.5375  0.1042  0.3430
  921TMC3     O13725   3.784   3.387   9.113 -0.1256 -0.4293 -0.0475
  921TMC3     H13726   3.822   3.496   8.911  0.1430  0.2334 -0.5879
  921TMC3    H113727   3.851   3.081   8.896 -1.3079  0.5472 -1.1418
  921TMC3    H213728   3.853   3.315   8.540 -2.4164 -1.9291 -0.6319
  921TMC3    C713729   3.708   3.118   8.680 -0.6436  0.2676  0.0052
  921TMC3    C813730   3.903   3.527   8.654  0.5321 -0.6346  0.5349
  921TMC3    O113731   3.651   3.085   8.784  0.5014  0.2111 -0.0897
  921TMC3    O213732   3.992   3.503   8.571  0.6261  0.1857 -0.3107
  922TMC3    C113733   2.123   4.704  10.541 -0.4875 -0.2720 -0.3815
  922TMC3    C213734   2.197   4.712  10.427  0.0547 -0.1401  0.8499
  922TMC3    C313735   2.324   4.658  10.425 -0.0049 -0.0728  0.5600
  922TMC3    C413736   2.172   4.650  10.655  0.4291 -0.2450  0.0850
  922TMC3    C513737   2.301   4.596  10.649  0.9156  0.2373 -0.9211
  922TMC3    C613738   2.380   4.595  10.533 -0.0837 -0.4717 -0.4058
  922TMC3     C13739   1.981   4.734  10.541 -0.1570 -0.2456 -0.2804
  922TMC3     O13740   1.931   4.729  10.652 -0.4395 -0.0935 -0.1564
  922TMC3     H13741   2.167   4.773  10.342 -0.1565 -2.3318 -0.6320
  922TMC3    H113742   2.114   4.648  10.746 -0.1607 -2.0309 -0.3296
  922TMC3    H213743   2.487   4.577  10.527 -0.4621 -2.8907  0.1497
  922TMC3    C713744   2.368   4.560  10.771  0.4598  0.7730  0.1834
  922TMC3    C813745   2.398   4.651  10.306  0.1204  0.7528 -1.1760
  922TMC3    O113746   2.468   4.496  10.748 -0.9862  0.2450  0.0806
  922TMC3    O213747   2.374   4.734  10.223 -0.3792 -0.5924 -0.3910
  923TMC3    C113748   0.226   3.299   8.819 -0.2641 -0.3620  0.3707
  923TMC3    C213749   0.099   3.267   8.857 -0.3446 -0.4694 -0.2416
  923TMC3    C313750   0.012   3.368   8.879  0.8118 -0.2491  0.1278
  923TMC3    C413751   0.262   3.430   8.811 -0.2600 -0.5179  0.4308
  923TMC3    C513752   0.172   3.525   8.843  0.0051  0.3389  0.0711
  923TMC3    C613753   0.046   3.499   8.870 -0.2423  0.5336  0.1088
  923TMC3     C13754   0.335   3.210   8.839 -0.0045 -0.1116 -0.2745
  923TMC3     O13755   0.306   3.104   8.892 -0.2523  0.0958  0.7115
  923TMC3     H13756   0.078   3.165   8.887  0.7783 -0.2050  1.4481
  923TMC3    H113757   0.360   3.468   8.785  0.5542 -2.6652  0.4137
  923TMC3    H213758   4.749   3.575   8.897  0.8286  0.5094  3.1295
  923TMC3    C713759   0.221   3.667   8.818  0.4629  0.1850  0.1400
  923TMC3    C813760   4.651   3.335   8.907  0.1556  0.5824  0.0192
  923TMC3    O113761   0.321   3.691   8.750  0.5192 -0.0883  0.6642
  923TMC3    O213762   4.587   3.427   8.957  0.0733 -0.2444 -0.3663
  924TMC3    C113763   1.119   2.249   6.013 -0.1151 -0.3579  1.0870
  924TMC3    C213764   1.109   2.386   5.987 -0.5366  0.3856  0.7557
  924TMC3    C313765   1.177   2.452   6.082  0.2719 -0.6134  0.1885
  924TMC3    C413766   1.208   2.192   6.097  0.2052  0.1169  0.9071
  924TMC3    C513767   1.284   2.272   6.178  0.3409  0.6192 -0.2969
  924TMC3    C613768   1.270   2.406   6.171  0.3258  0.3479 -0.4298
  924TMC3     C13769   1.022   2.163   5.943 -0.7284  0.0075  0.1790
  924TMC3     O13770   0.944   2.222   5.867 -0.6269  0.3971 -0.2129
  924TMC3     H13771   1.026   2.437   5.940  0.7962  0.0261 -1.9811
  924TMC3    H113772   1.213   2.084   6.106 -0.6250  0.0186  0.2007
  924TMC3    H213773   1.324   2.482   6.227  0.5895  0.8344 -1.3391
  924TMC3    C713774   1.417   2.216   6.197  0.1845 -0.6238  0.2452
  924TMC3    C813775   1.123   2.586   6.121 -0.2404 -0.7293 -0.0941
  924TMC3    O113776   1.421   2.098   6.235  0.3543  0.1281  0.7659
  924TMC3    O213777   1.065   2.641   6.030  0.0456 -0.1251  0.4694
  925TMC3    C113778   2.312   0.492   9.336 -0.1850 -0.2368 -0.5370
  925TMC3    C213779   2.259   0.518   9.209 -0.1086  0.6855  0.4937
  925TMC3    C313780   2.239   0.409   9.130 -0.2012  0.3744 -0.4589
  925TMC3    C413781   2.321   0.368   9.388 -0.7205  1.1017  0.2297
  925TMC3    C513782   2.303   0.263   9.298 -0.3623  0.0600 -0.0440
  925TMC3    C613783   2.265   0.280   9.167  0.4324  0.2604  0.1376
  925TMC3     C13784   2.345   0.605   9.422 -0.3757 -0.1115 -0.0182
  925TMC3     O13785   2.388   0.709   9.374 -0.3357 -0.4489  0.3551
  925TMC3     H13786   2.250   0.619   9.171 -0.1597  1.0582  1.5123
  925TMC3    H113787   2.368   0.350   9.484 -0.9551  0.5446  0.2382
  925TMC3    H213788   2.243   0.188   9.114  0.0043  0.2193  0.3825
  925TMC3    C713789   2.345   0.136   9.331  0.8956 -0.2603  0.3148
  925TMC3    C813790   2.172   0.416   9.001 -0.0953 -0.0337 -0.6236
  925TMC3    O113791   2.402   0.070   9.244  0.4849 -0.3354  0.4433
  925TMC3    O213792   2.121   0.316   8.958 -0.0096  0.8956 -1.1189
  926TMC3    C113793   0.603   2.324   6.857  0.0113  0.2921 -0.2245
  926TMC3    C213794   0.662   2.425   6.926 -0.0971  0.2269 -0.2812
  926TMC3    C313795   0.654   2.551   6.888 -0.0228  0.0574  0.3889
  926TMC3    C413796   0.529   2.348   6.740 -0.0370  0.4657 -0.1882
  926TMC3    C513797   0.513   2.482   6.711  0.4302  0.1906 -0.1284
  926TMC3    C613798   0.571   2.584   6.783  0.0926  0.2161 -0.1307
  926TMC3     C13799   0.619   2.191   6.920 -0.0482 -0.5010 -0.1985
  926TMC3     O13800   0.717   2.177   6.990 -0.4018  0.4482 -0.3113
  926TMC3     H13801   0.700   2.402   7.025  1.4825 -1.9767 -1.4061
  926TMC3    H113802   0.492   2.268   6.676 -1.5405  1.6479 -0.7763
  926TMC3    H213803   0.563   2.692   6.770  0.3648  0.2716  0.1556
  926TMC3    C713804   0.445   2.509   6.593 -0.4281 -0.1059  0.5413
  926TMC3    C813805   0.712   2.652   6.969  1.0671  0.2739 -0.5616
  926TMC3    O113806   0.439   2.419   6.510  0.2939  0.4914 -0.1040
  926TMC3    O213807   0.671   2.765   6.959  0.1871 -0.1911 -0.4975
  927TMC3    C113808   4.729   0.019  11.544 -0.4974 -0.0201 -0.0183
  927TMC3    C213809   0.048   4.754  11.455 -0.4796  0.3138  0.5824
  927TMC3    C313810   0.042   0.034  11.338 -0.3300  0.0760  0.3299
  927TMC3    C413811   4.629   0.105  11.507 -0.1518 -0.1705  0.8806
  927TMC3    C513812   4.633   0.172  11.394  0.4120  0.1385 -0.1270
  927TMC3    C613813   4.723   0.126  11.302 -0.1211  0.0693  0.2383
  927TMC3     C13814   4.745   4.753  11.686  0.2096  0.0978  0.1331
  927TMC3     O13815   0.056   4.671  11.718  0.1976  0.1982 -0.4569
  927TMC3     H13816   0.127   4.685  11.484 -0.5286 -0.5644 -1.3793
  927TMC3    H113817   4.546   0.127  11.573  0.6574  0.9920  1.5269
  927TMC3    H213818   4.707   0.163  11.201 -0.5250 -2.7040 -0.7075
  927TMC3    C713819   4.503   0.215  11.332 -0.0581  0.7235  0.1200
  927TMC3    C813820   0.128   4.743  11.244 -0.0058  0.1185 -0.1566
  927TMC3    O113821   4.468   0.163  11.229  0.5809 -0.6838 -0.3463
  927TMC3    O213822   0.176   4.630  11.274 -0.2072  0.7793  0.5190
  928TMC3    C113823   1.213   1.096  13.409  0.6003 -0.1983  0.9322
  928TMC3    C213824   1.284   1.036  13.509 -0.0713  0.0514 -0.3528
  928TMC3    C313825   1.299   1.111  13.624  0.1320 -0.4588 -0.6703
  928TMC3    C413826   1.159   1.220  13.415 -0.0181  0.0312 -0.1833
  928TMC3    C513827   1.181   1.288  13.529 -0.2594  0.0711  0.9065
  928TMC3    C613828   1.249   1.244  13.638 -0.2967 -0.4097  0.2844
  928TMC3     C13829   1.262   1.060  13.272 -0.0531 -0.0690 -0.0841
  928TMC3     O13830   1.291   1.157  13.201  0.5030  0.2990  0.1594
  928TMC3     H13831   1.338   0.944  13.492 -1.3278 -0.5850 -0.8664
  928TMC3    H113832   1.114   1.259  13.325 -1.7627 -2.0476 -0.2193
  928TMC3    H213833   1.261   1.298  13.731  0.0003 -0.6143  0.3659
  928TMC3    C713834   1.184   1.426  13.513 -0.3722 -0.2603 -0.1706
  928TMC3    C813835   1.365   1.044  13.734 -0.7153 -0.7927  0.7640
  928TMC3    O113836   1.269   1.488  13.578  0.2036 -0.2603 -0.3853
  928TMC3    O213837   1.379   0.923  13.728 -0.2262  0.5781  0.6758
  929TMC3    C113838   2.300   4.303   8.416  0.9381 -0.1283 -0.8193
  929TMC3    C213839   2.408   4.356   8.482  0.5639 -0.0021 -0.5273
  929TMC3    C313840   2.438   4.480   8.452 -0.5914 -0.0642 -0.5035
  929TMC3    C413841   2.235   4.370   8.316  0.2297  0.3552 -0.2777
  929TMC3    C513842   2.270   4.500   8.290 -0.3845 -0.2132  0.3867
  929TMC3    C613843   2.371   4.556   8.360 -0.4218 -0.3970 -0.5752
  929TMC3     C13844   2.226   4.218   8.497  0.4642  0.7501 -0.2193
  929TMC3     O13845   2.283   4.174   8.594 -0.1469  0.5280  0.5659
  929TMC3     H13846   2.470   4.296   8.547 -1.0937 -1.0490  0.0948
  929TMC3    H113847   2.148   4.333   8.263  0.2109  1.7831 -1.2295
  929TMC3    H213848   2.379   4.664   8.363  0.8979 -0.5053 -0.1612
  929TMC3    C713849   2.154   4.585   8.270  0.1368 -0.1247  0.1654
  929TMC3    C813850   2.560   4.542   8.490  0.2957 -0.6430  1.4995
  929TMC3    O113851   2.119   4.608   8.157 -0.1038  0.0041  0.0449
  929TMC3    O213852   2.592   4.639   8.421  0.4459 -0.0539 -0.2207
  930TMC3    C113853   2.856   2.866   8.884  0.2986 -0.3015 -0.5883
  930TMC3    C213854   2.909   2.870   8.760  0.1848  0.2577  1.0622
  930TMC3    C313855   3.039   2.902   8.752 -0.2190  0.7985 -0.3942
  930TMC3    C413856   2.922   2.911   8.997  0.0218 -0.4769  0.3248
  930TMC3    C513857   3.050   2.959   8.982  0.2406 -0.0829  0.0896
  930TMC3    C613858   3.118   2.941   8.863  0.2898  0.8250 -0.0659
  930TMC3     C13859   2.720   2.820   8.904 -0.2812 -0.6626 -0.6615
  930TMC3     O13860   2.671   2.838   9.014  0.2993  0.2856 -0.1985
  930TMC3     H13861   2.861   2.836   8.669  1.1273  2.4551 -0.2522
  930TMC3    H113862   2.877   2.919   9.095  1.4371 -0.5024  0.9772
  930TMC3    H213863   3.224   2.919   8.864  0.1214 -0.0914 -2.6236
  930TMC3    C713864   3.130   2.991   9.098  0.1074 -0.6077 -0.0723
  930TMC3    C813865   3.088   2.942   8.621  0.6493 -0.0561  0.1005
  930TMC3    O113866   3.095   2.953   9.211 -0.2816  0.1422 -0.5322
  930TMC3    O213867   3.017   2.919   8.524 -0.2275  0.3800 -0.0112
  931TMC3    C113868   0.072   0.498   9.320  0.7241 -0.0148 -0.2532
  931TMC3    C213869   4.716   0.528   9.294 -0.1057 -0.2087 -0.3110
  931TMC3    C313870   4.626   0.431   9.277  0.5725 -0.3323  0.7471
  931TMC3    C413871   0.111   0.366   9.330 -0.2332 -0.1447  0.7468
  931TMC3    C513872   0.016   0.265   9.321  0.6977  0.0578  0.0807
  931TMC3    C613873   4.657   0.301   9.303  0.2963 -0.5984  1.1237
  931TMC3     C13874   0.152   0.576   9.225 -0.4929  0.3644  0.3565
  931TMC3     O13875   0.095   0.635   9.134 -0.3421  0.2272  0.2413
  931TMC3     H13876   4.688   0.631   9.276 -0.7988 -0.4004 -0.3402
  931TMC3    H113877   0.217   0.350   9.349  0.1430 -0.9679 -2.1055
  931TMC3    H213878   4.584   0.222   9.293  0.2814 -0.3251 -0.9597
  931TMC3    C713879   0.049   0.138   9.260 -0.3515 -0.2198  0.7638
  931TMC3    C813880   4.547   0.438   9.153  0.1871  0.4055  0.1055
  931TMC3    O113881   4.731   0.068   9.219  0.0042 -0.2596 -0.0141
  931TMC3    O213882   4.450   0.363   9.140  0.2956  0.1578  0.4078
  932TMC3    C113883   0.033   4.463   8.759  0.2149 -0.3567  0.3109
  932TMC3    C213884   4.726   4.540   8.685  0.2739 -0.0390  0.0553
  932TMC3    C313885   4.748   4.548   8.552  0.8750 -0.1916 -0.2098
  932TMC3    C413886   0.149   4.429   8.700  0.3176 -0.3692  0.3432
  932TMC3    C513887   0.171   4.448   8.569 -0.2972  0.1496 -0.3828
  932TMC3    C613888   0.090   4.512   8.488  0.4738 -0.7421 -0.4089
  932TMC3     C13889   0.041   4.517   8.894  1.0693  0.2016 -0.7901
  932TMC3     O13890   4.722   4.581   8.938  0.8016 -0.3239 -1.0765
  932TMC3     H13891   4.625   4.557   8.723  1.1493  1.2584  1.8101
  932TMC3    H113892   0.198   4.344   8.748 -0.3300 -0.9513 -0.0308
  932TMC3    H213893   0.097   4.513   8.379 -0.0277  0.2727 -0.4394
  932TMC3    C713894   0.275   4.364   8.508  0.0421 -0.1696 -0.9992
  932TMC3    C813895   4.639   4.597   8.472 -0.2396  0.4810  0.4455
  932TMC3    O113896   0.306   4.266   8.574  0.1607 -0.3774  0.1312
  932TMC3    O213897   4.543   4.644   8.532 -0.1798  0.1795  0.7849
  933TMC3    C113898   1.039   3.744  11.342 -0.0177  0.6346  0.5310
  933TMC3    C213899   1.046   3.762  11.207  0.0796 -0.9799  0.3451
  933TMC3    C313900   1.161   3.799  11.145  0.0944 -0.7861  0.1834
  933TMC3    C413901   1.147   3.790  11.417 -0.3921  0.4638  0.2035
  933TMC3    C513902   1.259   3.837  11.349 -0.6324 -0.3422 -0.3315
  933TMC3    C613903   1.269   3.849  11.213  0.7018  0.1024  0.9734
  933TMC3     C13904   0.910   3.699  11.398  0.0226  0.3885  0.3112
  933TMC3     O13905   0.805   3.709  11.331 -0.0794  0.4764 -0.5473
  933TMC3     H13906   0.958   3.730  11.152  1.5579 -0.5577 -2.2573
  933TMC3    H113907   1.149   3.790  11.525  0.4678  2.1819  0.1890
  933TMC3    H213908   1.363   3.862  11.162 -0.0488 -1.7468 -0.8781
  933TMC3    C713909   1.378   3.866  11.419 -0.6644  0.0197 -0.0695
  933TMC3    C813910   1.161   3.816  11.005 -1.0396  0.0241 -0.6304
  933TMC3    O113911   1.464   3.913  11.355 -0.0373 -0.8717 -0.2344
  933TMC3    O213912   1.132   3.727  10.928  0.4190 -0.5108 -0.1254
  934TMC3    C113913   1.590   0.381  10.736  0.0539  0.0956 -0.6108
  934TMC3    C213914   1.621   0.357  10.867 -0.2964 -0.5568  1.4582
  934TMC3    C313915   1.745   0.311  10.900 -0.3673  0.0724  0.1370
  934TMC3    C413916   1.687   0.374  10.640  0.1572 -0.2982 -1.3159
  934TMC3    C513917   1.810   0.321  10.675 -0.0075  0.2743  0.3198
  934TMC3    C613918   1.844   0.294  10.804 -0.0695 -0.0755  0.3036
  934TMC3     C13919   1.467   0.448  10.708 -0.2197  0.1588 -0.5975
  934TMC3     O13920   1.467   0.537  10.624  0.6350 -0.4501 -0.1130
  934TMC3     H13921   1.549   0.366  10.947 -0.1596 -0.5035  1.5769
  934TMC3    H113922   1.662   0.407  10.540 -0.0977 -0.0032 -1.1572
  934TMC3    H213923   1.947   0.267  10.824  0.0591 -0.5365 -0.9672
  934TMC3    C713924   1.911   0.304  10.576 -0.1036 -0.0400 -0.2247
  934TMC3    C813925   1.789   0.304  11.043  0.5582 -0.0827 -0.3491
  934TMC3    O113926   2.018   0.259  10.617  0.7063 -0.2846 -0.1974
  934TMC3    O213927   1.713   0.344  11.127 -0.2067 -0.0198  0.1671
  935TMC3    C113928   1.030   4.697  10.047  0.6384 -0.1031 -0.3901
  935TMC3    C213929   0.909   4.627  10.041 -0.2678 -0.0635  0.4454
  935TMC3    C313930   0.905   4.521  10.128  0.4946  0.9473  1.1770
  935TMC3    C413931   1.131   4.673  10.137  0.7718 -0.8069  0.3242
  935TMC3    C513932   1.120   4.566  10.223 -0.1994  0.5941  0.2204
  935TMC3    C613933   1.009   4.484  10.212  0.7144 -0.1161 -0.7398
  935TMC3     C13934   1.029   0.059   9.997 -0.1748  0.0933 -1.0939
  935TMC3     O13935   1.129   0.131  10.011  0.4661 -0.2964  0.3483
  935TMC3     H13936   0.818   4.657   9.990  0.4812  0.7032 -0.4393
  935TMC3    H113937   1.221   4.734  10.144 -0.0854  0.6739 -1.7950
  935TMC3    H213938   1.013   4.393  10.270  6.0119  0.5904 -0.0231
  935TMC3    C713939   1.227   4.514  10.303 -0.3009  0.2920  0.1413
  935TMC3    C813940   0.784   4.442  10.132 -0.3813  0.9486  0.2741
  935TMC3    O113941   1.206   4.449  10.403 -0.3003 -0.1156  0.6351
  935TMC3    O213942   0.691   4.492  10.074  0.4303 -0.4176  0.1220
  936TMC3    C113943   0.523   2.831  11.854 -0.9028  0.6835  0.5350
  936TMC3    C213944   0.491   2.863  11.727 -0.2400 -0.0018 -0.4742
  936TMC3    C313945   0.525   2.769  11.640  0.4525 -0.3133  0.2394
  936TMC3    C413946   0.580   2.714  11.892  0.4287  0.1667  0.2079
  936TMC3    C513947   0.603   2.620  11.798  0.5343  1.0508  0.2029
  936TMC3    C613948   0.585   2.651  11.668 -0.3469 -0.0756 -0.7472
  936TMC3     C13949   0.483   2.930  11.958 -0.0309  0.0430  0.0885
  936TMC3     O13950   0.470   3.047  11.917 -0.3382  0.1759 -0.5264
  936TMC3     H13951   0.438   2.956  11.710 -1.1086 -0.1145  1.6669
  936TMC3    H113952   0.620   2.711  11.993 -0.4560  2.9331  0.6388
  936TMC3    H213953   0.610   2.566  11.605 -1.5072  0.0460 -1.3802
  936TMC3    C713954   0.716   2.525  11.819 -0.1430 -0.2798  0.6474
  936TMC3    C813955   0.450   2.775  11.522  0.0927  0.5177  0.5482
  936TMC3    O113956   0.797   2.504  11.731 -0.2300  0.2598 -0.7925
  936TMC3    O213957   0.447   2.666  11.468  0.2834  0.2159 -0.5388
  937TMC3    C113958   2.798   4.395  14.805  0.3752 -0.9860  0.1255
  937TMC3    C213959   2.706   4.307  14.760 -0.5236 -0.7928  0.0407
  937TMC3    C313960   2.705   4.275  14.628 -0.2002  0.3125 -0.3422
  937TMC3    C413961   2.876   4.471  14.716 -1.0889 -0.0942  0.3410
  937TMC3    C513962   2.869   4.436  14.580  0.3752 -0.4558 -0.6645
  937TMC3    C613963   2.788   4.338  14.540  0.5054  0.3082 -0.4261
  937TMC3     C13964   2.829   4.407  14.948  0.4669  0.5250  0.4104
  937TMC3     O13965   2.936   4.458  14.977 -0.1814 -0.0368  0.2260
  937TMC3     H13966   2.649   4.243  14.826 -0.4281  0.4276  1.3065
  937TMC3    H113967   2.952   4.531  14.763  1.1098 -1.5230 -1.3793
  937TMC3    H213968   2.792   4.298  14.439 -0.5309  0.4095 -0.5089
  937TMC3    C713969   2.988   4.455  14.496  0.0125 -0.6085  0.2876
  937TMC3    C813970   2.679   4.132  14.622  0.3853 -0.3092 -0.0026
  937TMC3    O113971   3.009   4.363  14.419  0.5292 -0.0267 -0.6037
  937TMC3    O213972   2.572   4.086  14.644  0.2663 -0.3873  0.0860
  938TMC3    C113973   1.266   2.507   9.795 -0.0014 -0.5430  0.0290
  938TMC3    C213974   1.324   2.412   9.716  0.2186 -0.2432 -0.1492
  938TMC3    C313975   1.243   2.349   9.624 -0.2059 -0.0060 -0.4581
  938TMC3    C413976   1.128   2.504   9.810 -0.5612 -0.1746 -0.4381
  938TMC3    C513977   1.058   2.431   9.723 -0.0646  0.5768  0.1129
  938TMC3    C613978   1.111   2.366   9.625 -0.8282  0.7552 -0.3857
  938TMC3     C13979   1.341   2.612   9.869 -0.2085  0.6816 -0.0530
  938TMC3     O13980   1.269   2.664   9.954 -0.1845  0.2429  0.0601
  938TMC3     H13981   1.432   2.398   9.721  0.2993  1.1166  1.9799
  938TMC3    H113982   1.076   2.559   9.887  1.6221  2.6810 -1.0218
  938TMC3    H213983   1.046   2.328   9.547 -1.1999  0.4188  0.0914
  938TMC3    C713984   0.912   2.451   9.736  0.0096 -0.4356 -0.0856
  938TMC3    C813985   1.307   2.266   9.524 -0.2274 -0.0647 -1.0606
  938TMC3    O113986   0.846   2.448   9.633  0.0487 -0.7142 -0.4533
  938TMC3    O213987   1.245   2.165   9.488  0.0592  0.1045  0.2594
  939TMC3    C113988   3.389   4.155   7.707  0.7143  0.0374  0.1577
  939TMC3    C213989   3.464   4.105   7.604 -0.3676 -0.2970 -0.1824
  939TMC3    C313990   3.409   3.993   7.544 -0.4528 -0.5663  0.4490
  939TMC3    C413991   3.283   4.092   7.756 -0.1932 -0.1080  0.2146
  939TMC3    C513992   3.235   3.980   7.693 -0.1507 -0.0914  0.4985
  939TMC3    C613993   3.295   3.923   7.587  0.0521  0.5150  0.1826
  939TMC3     C13994   3.455   4.263   7.788  0.2863 -1.3409 -0.0058
  939TMC3     O13995   3.546   4.321   7.735 -0.1597  0.8179  0.2037
  939TMC3     H13996   3.552   4.157   7.566 -0.1695 -0.5955 -0.1292
  939TMC3    H113997   3.227   4.146   7.832  1.3130 -0.7307  1.7762
  939TMC3    H213998   3.262   3.831   7.539  0.8249  0.0172  0.6150
  939TMC3    C713999   3.101   3.935   7.723 -0.0565 -0.0834  0.7385
  939TMC3    C814000   3.487   3.908   7.448 -0.2084  0.6546 -0.0033
  939TMC3    O114001   3.044   3.865   7.643 -0.1267 -0.6024  0.4099
  939TMC3    O214002   3.459   3.789   7.439  0.6350 -0.4872 -0.0369
  940TMC3    C114003   0.862   4.564   7.644 -0.5566  0.5135 -0.9548
  940TMC3    C214004   0.795   4.474   7.724 -0.9303 -0.0325  0.2760
  940TMC3    C314005   0.784   4.509   7.854  0.1655 -0.0165 -0.4503
  940TMC3    C414006   0.898   4.688   7.687  0.4429 -0.1565  0.7200
  940TMC3    C514007   0.876   4.724   7.823  0.6772 -0.4680 -0.7601
  940TMC3    C614008   0.816   4.629   7.901  0.8567  0.2448  0.5714
  940TMC3     C14009   0.935   4.522   7.527 -0.0381  0.2241 -0.0830
  940TMC3     O14010   0.980   4.611   7.453 -0.6908 -0.7195  0.1060
  940TMC3     H14011   0.742   4.387   7.686  0.4492 -0.8312  0.1989
  940TMC3    H114012   0.978   4.736   7.632 -3.1284  2.0454 -2.5214
  940TMC3    H214013   0.810   4.643   8.008 -1.9720  3.4617  0.0059
  940TMC3    C714014   0.936   0.069   7.872  0.0281 -0.5509 -0.6026
  940TMC3    C814015   0.735   4.406   7.941  0.3856 -0.5711  0.8816
  940TMC3    O114016   0.944   0.091   7.994  0.3173  0.1135  0.1448
  940TMC3    O214017   0.754   4.288   7.908  0.2977 -0.0403  0.2844
  941TMC3    C114018   2.875   0.142  15.140 -0.5078  0.4040  0.1738
  941TMC3    C214019   2.853   0.029  15.216  0.3061 -0.0605  0.6148
  941TMC3    C314020   2.962   4.757  15.284  0.0650 -0.7983 -0.2777
  941TMC3    C414021   2.999   0.199  15.126 -0.3005 -0.4950 -0.2874
  941TMC3    C514022   3.108   0.139  15.185 -0.0964  0.0314  0.3619
  941TMC3    C614023   3.089   0.033  15.273 -0.1284  0.1418  0.0411
  941TMC3     C14024   2.776   0.172  15.041 -0.1136  0.5293  0.0709
  941TMC3     O14025   2.774   0.288  14.996  0.1155  0.3918 -0.1247
  941TMC3     H14026   2.752   4.769  15.232  0.4796 -0.5270  0.6735
  941TMC3    H114027   3.014   0.273  15.048 -0.8525 -1.3876 -1.2494
  941TMC3    H214028   3.171   4.770  15.332  1.1539 -1.0972 -2.5765
  941TMC3    C714029   3.246   0.170  15.144  0.3768  0.8053 -0.9123
  941TMC3    C814030   2.932   4.668  15.396  0.1020  0.3652 -0.3377
  941TMC3    O114031   3.333   0.125  15.209  0.2542  0.3291 -0.0255
  941TMC3    O214032   2.814   4.659  15.426 -0.6076  0.2951 -0.8963
  942TMC3    C114033   3.934   0.991   7.695 -0.6170 -0.5769 -0.1256
  942TMC3    C214034   3.923   0.901   7.800  0.5622 -0.2291 -0.6135
  942TMC3    C314035   3.956   0.768   7.780 -0.0518  0.8703  0.3741
  942TMC3    C414036   3.976   0.947   7.572  0.5894  0.7081 -0.4214
  942TMC3    C514037   4.012   0.816   7.555 -0.4092  0.2908 -0.2909
  942TMC3    C614038   4.015   0.725   7.657  0.1310 -0.3144  0.1698
  942TMC3     C14039   3.882   1.125   7.730 -0.5600 -0.4429 -0.1217
  942TMC3     O14040   3.836   1.142   7.839  0.4680  0.3749  0.3486
  942TMC3     H14041   3.881   0.936   7.894  1.7662 -2.2738  0.6788
  942TMC3    H114042   3.988   1.018   7.492  0.6779  0.9636 -0.1831
  942TMC3    H214043   4.032   0.619   7.640  1.2889 -0.2142  0.6965
  942TMC3    C714044   4.021   0.775   7.417  0.6945 -0.3299  0.4380
  942TMC3    C814045   3.888   0.665   7.851 -0.4607  0.0683  0.0392
  942TMC3    O114046   4.082   0.840   7.335 -0.2420  0.1205  0.3802
  942TMC3    O214047   3.910   0.554   7.810  0.2836  0.3630  0.5759
  943TMC3    C114048   1.784   0.374  13.680 -0.0783 -0.4112  0.4018
  943TMC3    C214049   1.842   0.253  13.700  1.1428  0.0056 -0.9728
  943TMC3    C314050   1.765   0.142  13.705 -0.0381 -0.3827  0.5620
  943TMC3    C414051   1.651   0.383  13.665 -0.0762  0.0926 -0.1311
  943TMC3    C514052   1.570   0.270  13.660  0.0117 -0.2330 -0.0031
  943TMC3    C614053   1.626   0.142  13.676  0.0974 -0.0393  0.0398
  943TMC3     C14054   1.875   0.483  13.676  0.1150 -0.0441 -0.0702
  943TMC3     O14055   1.972   0.464  13.745  0.4938 -0.2963 -0.1964
  943TMC3     H14056   1.949   0.255  13.718  0.5773  0.9748  2.1236
  943TMC3    H114057   1.610   0.483  13.651  2.0825  0.7025 -2.1286
  943TMC3    H214058   1.566   0.052  13.669 -0.2029  0.1788 -0.2018
  943TMC3    C714059   1.428   0.279  13.653  0.0166 -0.1962 -0.6142
  943TMC3    C814060   1.824   0.008  13.710  0.2774 -0.3291 -0.1712
  943TMC3    O114061   1.367   0.173  13.638 -0.1674  0.2912 -0.4264
  943TMC3    O214062   1.771   4.691  13.645  0.0185 -0.2580  0.7302
  944TMC3    C114063   4.617   2.337  10.127 -0.4435  0.4972 -0.0212
  944TMC3    C214064   4.642   2.418  10.231  0.0058  0.2735  0.4583
  944TMC3    C314065   4.670   2.370  10.353 -0.2540 -0.5477 -0.7295
  944TMC3    C414066   4.608   2.203  10.147 -0.8868 -0.2685  0.1590
  944TMC3    C514067   4.634   2.154  10.270  0.4529 -0.8734  0.5091
  944TMC3    C614068   4.666   2.238  10.374 -0.3494 -0.3319 -0.2669
  944TMC3     C14069   4.620   2.399   9.998  0.0533 -0.4522  0.3271
  944TMC3     O14070   4.640   2.517  10.005  0.0296  0.0153  0.3155
  944TMC3     H14071   4.629   2.525  10.221  0.9474  0.0925 -2.5534
  944TMC3    H114072   4.582   2.129  10.072  2.7956 -0.1468 -1.1965
  944TMC3    H214073   4.673   2.203  10.476 -0.0297 -0.1412 -0.2239
  944TMC3    C714074   4.631   2.003  10.292 -0.2262 -0.3678 -0.5478
  944TMC3    C814075   4.702   2.458  10.469 -0.0350  1.1048  0.9017
  944TMC3    O114076   4.541   1.946  10.235  0.3262 -0.2279  0.2508
  944TMC3    O214077   4.767   2.392  10.548 -0.4529  0.0748  0.2585
    1TMC1    C114078   3.859   1.812  10.462  0.1385 -0.0156  0.4440
    1TMC1    C214079   3.923   1.690  10.448 -0.6077  0.4053  0.2632
    1TMC1    C314080   3.891   1.610  10.342  0.3035 -0.6986 -0.6836
    1TMC1    C414081   3.754   1.846  10.375  0.3700  0.0105 -0.2974
    1TMC1    C514082   3.726   1.766  10.268  0.3536  0.7706  0.5386
    1TMC1    C614083   3.794   1.645  10.248  1.2508  0.3268 -0.3987
    1TMC1     C14084   3.884   1.895  10.578  0.4397  0.1522 -0.4554
    1TMC1     O14085   3.834   2.003  10.579 -0.0232  0.0591 -0.1703
    1TMC1     H14086   4.000   1.660  10.518 -0.9153 -1.4494 -0.2141
    1TMC1    H114087   3.707   1.943  10.389 -0.9434 -0.7024  0.2229
    1TMC1    H214088   3.770   1.571  10.173  0.1326  0.1000  0.1757
    1TMC1    C714089   3.619   1.800  10.177  0.0793  0.5368 -0.0157
    1TMC1    C814090   3.964   1.486  10.334  0.1796  0.5951  0.0445
    1TMC1    O114091   3.603   1.919  10.147 -0.0687  0.2327  0.6792
    1TMC1    O214092   3.958   1.401  10.428  0.3159 -0.1786 -0.1168
    1TMC1    O314093   3.525   1.704  10.195 -0.6268  0.0311 -0.6619
    1TMC1    H314094   3.561   1.629  10.247  1.3981  1.7542  0.4394
    1TMC1    O514095   3.967   1.454  10.203  0.2077 -0.0978  0.4660
    1TMC1    H514096   3.972   1.532  10.145  1.7285 -0.0248  0.6981
    2TMC2    C114097   4.234   2.486  10.832 -0.2111  0.2201 -0.0170
    2TMC2    C214098   4.267   2.592  10.911 -0.0219  0.0105  0.6307
    2TMC2    C314099   4.327   2.697  10.848  0.5346 -0.2419 -1.0239
    2TMC2    C414100   4.240   2.490  10.697 -0.0347  0.3020  0.1443
    2TMC2    C514101   4.291   2.606  10.639  0.2887  0.0008  0.1980
    2TMC2    C614102   4.342   2.713  10.715  0.6134  0.5744 -0.1601
    2TMC2     C14103   4.224   2.347  10.890  0.0614  0.8982 -0.7570
    2TMC2     O14104   4.275   2.331  11.000  0.3805  0.1682 -0.6897
    2TMC2     H14105   4.291   2.574  11.015 -0.1780 -2.0409  0.3257
    2TMC2    H114106   4.179   2.426  10.635  0.9484 -1.8849  1.4264
    2TMC2    H214107   4.405   2.795  10.681  2.0273 -1.2590 -1.9975
    2TMC2    C714108   4.260   2.619  10.496  0.9057  0.0017  0.2878
    2TMC2    C814109   4.408   2.778  10.937 -0.2777  0.1520 -0.6801
    2TMC2    O114110   4.208   2.519  10.446 -0.6073  0.7774 -0.2342
    2TMC2    O214111   4.431   2.741  11.051 -0.1572 -0.1045  0.0057
    2TMC2    O514112   4.442   2.894  10.886  0.1547  0.2537  0.1373
    2TMC2    H514113   4.389   2.920  10.808 -0.1449 -0.9753 -0.0684
    3TMC2    C114114   4.259   3.448   9.822 -0.1614  0.1759 -0.3150
    3TMC2    C214115   4.391   3.455   9.847 -0.4794 -0.2199  0.6356
    3TMC2    C314116   4.449   3.358   9.923  0.2056 -0.4906  1.0409
    3TMC2    C414117   4.189   3.342   9.878 -0.1299  0.8375 -0.1695
    3TMC2    C514118   4.256   3.245   9.954 -0.2482 -0.2149 -0.4574
    3TMC2    C614119   4.392   3.254   9.981  0.3632 -0.1525 -0.4431
    3TMC2     C14120   4.202   3.507   9.697 -0.2398  0.1472  0.3516
    3TMC2     O14121   4.277   3.569   9.627  0.1902 -0.2056  0.4241
    3TMC2     H14122   4.450   3.529   9.795  0.0346 -0.7704  0.4351
    3TMC2    H114123   4.081   3.331   9.881  0.1290 -1.7072 -0.5578
    3TMC2    H214124   4.446   3.180  10.040  0.0143  0.6636  0.9044
    3TMC2    C714125   4.191   3.121   9.978 -0.1554 -0.2141 -0.9177
    3TMC2    C814126   4.596   3.355   9.921  0.6200  0.3759 -0.0329
    3TMC2    O114127   4.110   3.080   9.898 -0.2912 -0.5780 -0.0930
    3TMC2    O214128   4.657   3.255   9.944  0.3188 -0.3384 -0.0275
    3TMC2    O514129   4.637   3.479   9.943  0.8906 -0.9359  0.0321
    3TMC2    H514130   4.560   3.539   9.934  2.2482  0.9551  0.9682
    4MPD1     C14131   2.793   4.241  10.833 -0.4327 -0.3476  0.2646
    4MPD1    C114132   2.804   4.331  10.725  0.4893  0.5164  0.5746
    4MPD1    C214133   2.862   4.285  10.603 -0.0877  0.1601 -0.2460
    4MPD1    C314134   2.897   4.147  10.588  0.1796 -0.9196  0.1149
    4MPD1    C414135   2.888   4.061  10.699  0.2923 -0.1262  0.4584
    4MPD1    C514136   2.834   4.110  10.818 -0.5136 -0.1770  0.5627
    4MPD1     H14137   2.858   4.357  10.522  3.7027 -2.0852 -2.4565
    4MPD1    H114138   2.904   3.954  10.693  0.8297  0.0588 -1.2360
    4MPD1    H214139   2.731   4.264  10.919  0.9194  1.8177  0.6637
    4MPD1    H314140   2.817   4.042  10.900 -3.5592 -0.2131 -0.0995
    4MPD1     N14141   2.937   4.090  10.463 -0.3817 -0.2029  0.7669
    4MPD1    H514142   2.937   3.989  10.454 -1.7114 -0.0779 -0.7407
    4MPD1    N114143   2.750   4.464  10.738 -0.0169  0.0976 -0.1441
    4MPD1    H614144   2.653   4.467  10.708 -0.1889 -0.0905  0.3895
    4MPD1    H714145   2.779   4.532  10.668 -0.3057  0.2259 -0.1398
    5MPD2     C14146   3.176   3.902   9.405  0.5369  0.3702 -1.0070
    5MPD2    C114147   3.151   3.787   9.493  0.7357  0.2013 -0.6912
    5MPD2    C214148   3.121   3.810   9.622  0.1756 -0.3493  0.6070
    5MPD2    C314149   3.094   3.940   9.659 -0.3592  0.0686 -0.3490
    5MPD2    C414150   3.119   4.048   9.584  0.2504 -0.1699 -0.0295
    5MPD2    C514151   3.165   4.027   9.459 -0.5138 -0.2649  0.2693
    5MPD2     H14152   3.112   3.725   9.689  2.1333 -1.6730 -0.7992
    5MPD2    H114153   3.069   4.143   9.600  0.2681 -0.3821  1.2280
    5MPD2    H214154   3.209   3.885   9.303  0.1047  0.6628 -1.1966
    5MPD2    H314155   3.172   4.115   9.396  1.0586 -2.3155 -2.4392
    5MPD2     N14156   3.056   3.945   9.795 -0.7171 -0.2325 -0.5014
    5MPD2    H514157   3.062   3.860   9.849 -0.0914 -0.9815 -1.7623
    5MPD2    N114158   3.194   3.661   9.446 -1.1190 -0.8439  0.5894
    5MPD2    H714159   3.256   3.651   9.366 -2.4854 -3.5435 -0.1205
    6MPD2     C14160   2.827   3.415  10.140  0.2575 -0.0947 -0.2808
    6MPD2    C114161   2.914   3.499  10.078  0.1491 -0.4278  0.2070
    6MPD2    C214162   2.997   3.450   9.980  0.6150  0.0256 -0.5949
    6MPD2    C314163   2.995   3.319   9.941 -0.5987 -0.4154 -0.0056
    6MPD2    C414164   2.899   3.232  10.006 -0.6017 -0.4201 -0.4718
    6MPD2    C514165   2.818   3.285  10.105 -0.4349  0.9615  0.5825
    6MPD2     H14166   3.058   3.526   9.933  3.3881 -2.4049 -0.9071
    6MPD2    H114167   2.887   3.132   9.967 -2.9033 -1.1488  2.0536
    6MPD2    H214168   2.767   3.467  10.215 -0.5693 -1.4965  0.0211
    6MPD2    H314169   2.735   3.227  10.145 -0.4713 -0.5769 -1.6850
    6MPD2     N14170   3.072   3.272   9.831  0.0349 -0.6028  0.5078
    6MPD2    H514171   3.054   3.181   9.790  2.8126 -0.7882 -0.2835
    6MPD2    N114172   2.912   3.641  10.085 -0.3527  0.5777 -0.1244
    6MPD2    H714173   2.982   3.683  10.025 -1.3342  0.3665 -1.4139
    7MPD2     C14174   3.794   3.647   9.431 -0.2941  0.5269 -0.0615
    7MPD2    C114175   3.759   3.546   9.514  0.3030 -0.0080 -0.2736
    7MPD2    C214176   3.856   3.502   9.605 -0.0520  0.1253  0.4368
    7MPD2    C314177   3.984   3.548   9.589  0.3070 -0.3009 -0.3030
    7MPD2    C414178   4.017   3.655   9.504 -0.3237 -0.0791 -0.3122
    7MPD2    C514179   3.919   3.700   9.424 -0.4245 -0.5504  1.1343
    7MPD2     H14180   3.828   3.422   9.673  2.1374  0.0316  1.2201
    7MPD2    H114181   4.112   3.706   9.493  0.4177 -1.1578  1.1866
    7MPD2    H214182   3.727   3.693   9.360 -1.1214  1.5712  1.3991
    7MPD2    H314183   3.927   3.779   9.351  1.1614 -0.9197  0.9131
    7MPD2     N14184   4.063   3.494   9.689 -0.5094 -0.7053 -0.2963
    7MPD2    H514185   4.012   3.439   9.757 -2.3700  1.4670  0.0732
    7MPD2    N114186   3.620   3.514   9.524 -0.0142  0.1554 -0.5491
    7MPD2    H714187   3.560   3.576   9.470 -1.3665  0.6573  1.5259
    8MPD2     C14188   4.140   2.690  10.240 -0.6917 -0.1136 -0.2550
    8MPD2    C114189   4.218   2.777  10.317 -0.7153  0.0349  0.0243
    8MPD2    C214190   4.256   2.901  10.263  0.4134 -0.7838 -0.0016
    8MPD2    C314191   4.210   2.929  10.134  0.5790  0.4982  1.1647
    8MPD2    C414192   4.135   2.839  10.061 -0.4390 -0.3780  0.0780
    8MPD2    C514193   4.100   2.724  10.119 -0.6362  0.3165 -0.4819
    8MPD2     H14194   4.309   2.963  10.335 -0.4438  0.3660 -0.3604
    8MPD2    H114195   4.095   2.865   9.964  0.2195  3.1120  0.7534
    8MPD2    H214196   4.099   2.594  10.271 -1.4951 -0.2527 -1.7349
    8MPD2    H314197   4.032   2.668  10.056 -0.8743 -1.4210  1.3182
    8MPD2     N14198   4.234   3.060  10.090 -0.5641 -0.0111  0.4047
    8MPD2    H514199   4.295   3.103  10.158  1.1182  1.3857 -1.9879
    8MPD2    N114200   4.267   2.753  10.449 -0.9251 -0.1383 -0.1783
    8MPD2    H714201   4.313   2.828  10.501  0.7367 -0.1110 -1.6646
    9MPD2     C14202   4.237   2.055  10.906  0.3191  0.1376  0.4184
    9MPD2    C114203   4.155   2.118  10.824  0.0664 -0.8225  0.5457
    9MPD2    C214204   4.078   2.046  10.739  0.0428  0.1121 -0.0547
    9MPD2    C314205   4.062   1.909  10.743 -0.2813 -0.1991  0.3673
    9MPD2    C414206   4.144   1.853  10.838  0.4886 -0.1452  0.2771
    9MPD2    C514207   4.241   1.925  10.911 -0.7729 -0.1967 -0.4898
    9MPD2     H14208   4.019   2.106  10.671  0.0191 -1.5899 -1.5500
    9MPD2    H114209   4.136   1.748  10.865 -1.6974  0.1810  0.9319
    9MPD2    H214210   4.310   2.108  10.966 -0.6963  1.2178  0.7014
    9MPD2    H314211   4.315   1.875  10.972  0.8989  0.0641 -2.3345
    9MPD2     N14212   3.971   1.840  10.664  0.2222 -0.0976 -0.5432
    9MPD2    H514213   3.985   1.739  10.661 -1.1443 -0.2648 -1.2032
    9MPD2    N114214   4.163   2.257  10.801 -0.6506 -0.5179 -0.2930
    9MPD2    H714215   4.112   2.298  10.723 -3.2056 -1.5378  0.8577
   10TMC3    C114216   3.240   3.289   9.676  0.9806 -0.3704  0.2348
   10TMC3    C214217   3.372   3.314   9.682 -0.1160 -0.3304 -0.0281
   10TMC3    C314218   3.429   3.394   9.582 -0.2553  0.3765 -1.0324
   10TMC3    C414219   3.163   3.340   9.573 -0.2138  0.0915  0.4788
   10TMC3    C514220   3.220   3.430   9.489  0.1412 -0.2342  0.7552
   10TMC3    C614221   3.356   3.454   9.483 -0.2077  0.0413 -0.0982
   10TMC3     C14222   3.183   3.330   9.798 -0.7084  0.7295 -0.1802
   10TMC3     O14223   3.245   3.421   9.852 -0.0704 -0.0636 -0.2466
   10TMC3     H14224   3.429   3.282   9.769  1.5535  0.0722 -0.9792
   10TMC3    H114225   3.056   3.325   9.582 -0.2342 -1.0743 -1.6984
   10TMC3    H214226   3.411   3.499   9.401 -0.9503 -0.3449 -0.8096
   10TMC3    C714227   3.132   3.549   9.499  0.3121 -0.1232  0.5663
   10TMC3    C814228   3.569   3.416   9.600 -0.4682 -0.2100 -0.5018
   10TMC3    O114229   3.026   3.542   9.556  0.1168 -0.5474 -0.0522
   10TMC3    O214230   3.624   3.348   9.688  0.6794 -0.2132  0.1910
   11TMC3    C114231   2.955   4.062  10.227  0.1499  0.0663 -0.0099
   11TMC3    C214232   2.999   4.096  10.103 -0.0173 -0.1596  0.2421
   11TMC3    C314233   2.970   4.018   9.996  0.2254 -0.1315  0.3011
   11TMC3    C414234   2.893   3.944  10.251 -0.0899  0.7134 -0.1172
   11TMC3    C514235   2.879   3.860  10.144  0.8616 -0.3757 -0.1996
   11TMC3    C614236   2.913   3.896  10.013 -0.2661  0.0087 -0.9078
   11TMC3     C14237   2.976   4.156  10.340  0.4637 -0.3391 -0.1929
   11TMC3     O14238   2.991   4.273  10.313  0.5882  0.3935  0.3658
   11TMC3     H14239   3.058   4.184  10.083  0.5405 -1.0935 -2.2364
   11TMC3    H114240   2.865   3.918  10.352 -2.5416 -0.4938 -1.1301
   11TMC3    H214241   2.890   3.824   9.936 -1.7724 -1.5155  0.9467
   11TMC3    C714242   2.832   3.721  10.167  0.0903 -0.7188 -0.0960
   11TMC3    C814243   3.023   4.059   9.865  0.2651 -0.8327  0.1862
   11TMC3    O114244   2.772   3.681  10.259 -0.3073  0.0238  0.2411
   11TMC3    O214245   3.045   4.174   9.840 -0.0243  0.2559 -0.1593
    1MPD1     C14246   0.716   2.981  13.412  0.0728 -0.9214 -0.7297
    1MPD1    C114247   0.818   3.064  13.362  0.1625  0.1504 -0.4460
    1MPD1    C214248   0.887   3.142  13.457  0.1874  0.9383  0.9269
    1MPD1    C314249   0.832   3.158  13.583  0.1608  0.2789 -0.0423
    1MPD1    C414250   0.722   3.082  13.618  0.6052 -0.6016  0.0371
    1MPD1    C514251   0.666   2.994  13.534  0.2543 -1.1017  0.4520
    1MPD1     H14252   0.972   3.202  13.427  0.1462  0.5280 -0.0032
    1MPD1    H114253   0.684   3.095  13.718  0.0349  0.8669 -0.3605
    1MPD1    H214254   0.678   2.900  13.351 -1.9072 -0.3462 -0.2523
    1MPD1    H314255   0.583   2.933  13.566  0.0730 -0.3082  1.5149
    1MPD1     N14256   0.895   3.247  13.673 -0.9203 -0.4607  0.0898
    1MPD1    H514257   0.973   3.297  13.631 -1.0025  1.5766  2.3191
    1MPD1    N114258   0.859   3.036  13.231 -0.3568 -0.2911 -0.4764
    1MPD1    H614259   0.888   3.111  13.169  0.1894  0.5485  0.8032
    1MPD1    H714260   0.785   2.987  13.180 -1.4582  1.5208 -0.6357
    2MPD1     C14261   1.706   3.470  13.519  0.0811  0.5467  0.7517
    2MPD1    C114262   1.587   3.470  13.450  0.3817 -0.3655  0.1702
    2MPD1    C214263   1.470   3.443  13.531 -0.5131  0.2357 -0.2818
    2MPD1    C314264   1.477   3.403  13.667 -0.1382  0.2957  0.4122
    2MPD1    C414265   1.603   3.399  13.718 -0.0171 -0.0224  0.2887
    2MPD1    C514266   1.716   3.433  13.646  0.2515 -0.7591  0.4549
    2MPD1     H14267   1.373   3.447  13.482 -0.6122  1.6787  0.0173
    2MPD1    H114268   1.623   3.376  13.822 -1.1356 -0.7727  0.3455
    2MPD1    H214269   1.797   3.502  13.470 -0.8742  1.3479 -0.5045
    2MPD1    H314270   1.812   3.431  13.696  0.2123  1.7756  0.5937
    2MPD1     N14271   1.356   3.383  13.745  0.0330  0.0052  0.1454
    2MPD1    H514272   1.272   3.395  13.689 -0.1215 -0.2066  0.3286
    2MPD1    N114273   1.573   3.507  13.318  0.5376  0.0236 -0.2293
    2MPD1    H614274   1.497   3.454  13.275  0.4105 -1.2436  1.5570
    2MPD1    H714275   1.662   3.518  13.270  0.0035  0.2049 -1.1668
    3MPD1     C14276   1.113   3.432  14.734 -0.6713 -0.6535  0.2640
    3MPD1    C114277   1.020   3.355  14.671 -0.1193  0.2876  0.0620
    3MPD1    C214278   1.017   3.361  14.536 -0.1278 -0.1660  0.2254
    3MPD1    C314279   1.105   3.433  14.456  0.0919  0.0380 -0.5791
    3MPD1    C414280   1.203   3.499  14.528  0.0682 -0.3774  0.1569
    3MPD1    C514281   1.208   3.502  14.663  0.2235  0.4255  0.5802
    3MPD1     H14282   0.939   3.299  14.492  0.8245 -2.9586  2.4447
    3MPD1    H114283   1.291   3.537  14.477 -0.0175  0.5848  0.7224
    3MPD1    H214284   1.110   3.448  14.841  0.8122  0.6502  0.1060
    3MPD1    H314285   1.286   3.557  14.713  1.0799 -0.1848 -0.0864
    3MPD1     N14286   1.091   3.455  14.315  0.0858 -0.1902  0.7260
    3MPD1    H514287   1.166   3.512  14.278  0.0491 -1.0326 -0.6563
    3MPD1    N114288   0.913   3.287  14.738  0.5083  0.0854  0.6041
    3MPD1    H614289   0.873   3.214  14.679 -1.2991  0.6826  1.0859
    3MPD1    H714290   0.946   3.249  14.827  0.9958  1.4570  1.0070
    4TMC3    C114291   1.204   3.355  13.925  0.2869 -0.4239  0.2838
    4TMC3    C214292   1.109   3.327  13.830 -0.1032 -0.2115  0.4434
    4TMC3    C314293   0.977   3.338  13.872  0.7294  0.1085  0.3928
    4TMC3    C414294   1.177   3.383  14.058  0.2383  0.4136 -0.5310
    4TMC3    C514295   1.044   3.383  14.094  0.4133  0.1532  0.2282
    4TMC3    C614296   0.943   3.368  14.003  0.4513 -0.5869  0.7238
    4TMC3     C14297   1.351   3.372  13.877  0.4238 -0.1521  0.4685
    4TMC3     O14298   1.443   3.377  13.958 -0.5471  0.0082 -0.7075
    4TMC3     H14299   1.132   3.302  13.727 -1.4978  0.3459 -0.0046
    4TMC3    H114300   1.249   3.372  14.138  0.4310  2.5405 -0.4134
    4TMC3    H214301   0.841   3.377  14.037  0.1117  0.6088 -0.5885
    4TMC3    C714302   0.998   3.400  14.233 -0.3305  1.2764 -0.7133
    4TMC3    C814303   0.877   3.254  13.804 -0.3867  0.2089 -0.4815
    4TMC3    O114304   0.892   3.350  14.262 -0.1740 -0.0867  0.0542
    4TMC3    O214305   0.794   3.191  13.868  0.3009 -0.8495  0.0060
    1TMC1    C114306   3.006   3.678   7.241  0.5051  0.2760  0.1811
    1TMC1    C214307   3.063   3.797   7.199  0.1101  0.1835  0.1169
    1TMC1    C314308   3.202   3.807   7.200 -0.1168  0.3030  0.0960
    1TMC1    C414309   3.081   3.567   7.276 -1.1669  0.2070 -0.1626
    1TMC1    C514310   3.217   3.572   7.258  1.0613 -0.1423 -0.2912
    1TMC1    C614311   3.277   3.688   7.216  0.0158 -0.3565  0.0328
    1TMC1     C14312   2.874   3.649   7.183  0.4142  0.2828 -0.3104
    1TMC1     O14313   2.871   3.531   7.148  0.0068  0.2660  0.1111
    1TMC1     H14314   3.005   3.879   7.157 -2.1798 -2.0327 -1.0864
    1TMC1    H114315   3.041   3.469   7.299 -0.4174 -0.5738 -2.2213
    1TMC1    H214316   3.385   3.694   7.217  0.0743 -1.6491  1.2652
    1TMC1    C714317   3.284   3.448   7.216  0.0121 -0.2469 -0.1260
    1TMC1    C814318   3.275   3.930   7.154  0.4872 -0.0488  0.0277
    1TMC1    O114319   3.383   3.452   7.144 -0.1679  0.6446 -0.4146
    1TMC1    O214320   3.234   4.043   7.185  0.0070  0.1829  0.9767
    1TMC1    O314321   3.274   3.368   7.326  0.4119 -0.6591 -0.5081
    1TMC1    H314322   3.205   3.402   7.388  0.8538  1.2614 -1.0872
    1TMC1    O514323   3.309   3.904   7.028  0.3524  0.1556  0.3046
    1TMC1    H514324   3.338   3.813   7.004  0.7769  0.9599 -2.1930
    2MPD1     C14325   2.426   3.810   7.011 -0.2851 -0.2912 -0.0132
    2MPD1    C114326   2.499   3.922   7.049 -1.1503  0.4862  0.7631
    2MPD1    C214327   2.622   3.900   7.108  0.3179  0.1752 -0.1440
    2MPD1    C314328   2.670   3.770   7.115  0.1423  0.1895  0.3609
    2MPD1    C414329   2.593   3.662   7.080 -0.4343  0.4398 -1.0297
    2MPD1    C514330   2.471   3.682   7.029  0.3779  0.3943  0.4140
    2MPD1     H14331   2.679   3.979   7.156  1.7631  0.6888 -2.7433
    2MPD1    H114332   2.636   3.565   7.100 -0.5001  0.6798  0.2539
    2MPD1    H214333   2.327   3.827   6.968 -0.5110 -0.3241  0.4948
    2MPD1    H314334   2.403   3.604   7.000 -1.2243  1.8629  0.2035
    2MPD1     N14335   2.792   3.758   7.186  0.4716  0.2580  0.4171
    2MPD1    H514336   2.836   3.842   7.222  1.3869  1.0382 -2.5323
    2MPD1    N114337   2.440   4.054   7.052 -0.2853 -0.3403  0.0404
    2MPD1    H614338   2.513   4.125   7.040  0.4225 -1.1401 -0.4305
    2MPD1    H714339   2.356   4.066   6.997 -0.1952 -2.1802 -0.4923
    1TMC1    C114340   1.548   4.014  14.192 -0.5758  0.2221 -0.0276
    1TMC1    C214341   1.616   4.001  14.314 -0.6006  0.1428  0.0206
    1TMC1    C314342   1.587   3.892  14.392  0.2759  0.2993 -0.1144
    1TMC1    C414343   1.442   3.938  14.159  0.6860  0.3792 -0.1661
    1TMC1    C514344   1.412   3.836  14.244  0.8410 -0.5868 -0.3630
    1TMC1    C614345   1.484   3.812  14.357  0.3107 -0.0486 -1.1372
    1TMC1     C14346   1.598   4.125  14.105 -0.1886  0.0729  0.3065
    1TMC1     O14347   1.719   4.155  14.116 -0.7627  0.2431  0.0574
    1TMC1     H14348   1.689   4.076  14.342 -0.6154 -0.1489  0.8479
    1TMC1    H114349   1.385   3.959  14.069 -0.5793  1.7907  0.9548
    1TMC1    H214350   1.454   3.722  14.409 -1.7932  2.5569  2.1216
    1TMC1    C714351   1.317   3.738  14.205  0.1401 -0.3183 -0.3484
    1TMC1    C814352   1.646   3.876  14.524  0.1648 -0.3995 -0.3242
    1TMC1    O114353   1.327   3.624  14.250 -0.1628 -0.9375 -0.1457
    1TMC1    O214354   1.579   3.822  14.612 -0.2403  0.1635  0.4038
    1TMC1    O314355   1.211   3.815  14.216 -0.6077 -0.3137  0.2847
    1TMC1    H314356   1.228   3.912  14.218  0.9229 -0.5500 -2.2095
    1TMC1    O514357   1.759   3.947  14.544  0.3451  0.3371  0.2127
    1TMC1    H514358   1.800   3.971  14.458 -0.7578  0.6547 -0.2180
    2MPD1     C14359   1.539   4.479  13.740 -0.3552 -0.0558  0.5366
    2MPD1    C114360   1.414   4.423  13.755 -0.0105  1.1675 -0.2992
    2MPD1    C214361   1.402   4.324  13.854  0.5651 -0.6059 -0.1166
    2MPD1    C314362   1.506   4.275  13.931  0.1589 -0.3142 -0.1208
    2MPD1    C414363   1.630   4.339  13.913 -0.2642 -0.3286 -0.7168
    2MPD1    C514364   1.643   4.437  13.817  0.5856  0.2648  0.3858
    2MPD1     H14365   1.314   4.267  13.881  0.0084  0.2521 -0.1191
    2MPD1    H114366   1.721   4.306  13.961 -0.2936  1.0410  0.2856
    2MPD1    H214367   1.554   4.562  13.671 -0.4046  0.8179  1.5783
    2MPD1    H314368   1.743   4.476  13.802  0.5522 -0.0857 -0.7386
    2MPD1     N14369   1.489   4.175  14.032  0.1410 -0.5040  0.9770
    2MPD1    H514370   1.398   4.135  14.053 -0.6608  1.2769  0.9350
    2MPD1    N114371   1.313   4.438  13.662 -0.7595 -0.2361  0.4087
    2MPD1    H614372   1.312   4.529  13.618 -2.0868 -0.2476  0.4207
    2MPD1    H714373   1.222   4.425  13.706 -0.0227 -2.5945  1.2702
    1MPD1     C14374   3.986   3.129   9.578 -0.1715 -0.5036 -0.0690
    1MPD1    C114375   4.119   3.166   9.556 -0.5519 -0.4376 -0.0620
    1MPD1    C214376   4.156   3.243   9.446 -0.4373  0.7311 -0.3703
    1MPD1    C314377   4.053   3.290   9.359 -0.1262 -0.1829 -0.2522
    1MPD1    C414378   3.926   3.267   9.391 -0.2366  0.3385  0.1272
    1MPD1    C514379   3.893   3.187   9.501  0.5569 -0.0456 -0.5677
    1MPD1     H14380   4.262   3.261   9.436 -0.4924  1.5204  0.5609
    1MPD1    H114381   3.844   3.302   9.330  1.9781  2.1532 -1.8213
    1MPD1    H214382   3.951   3.079   9.667 -0.6985 -0.9314 -0.5141
    1MPD1    H314383   3.789   3.178   9.528  0.5270  1.5462 -0.1363
    1MPD1     N14384   4.072   3.387   9.255  0.1258  0.2902 -0.2535
    1MPD1    H514385   3.988   3.421   9.210 -0.2718 -2.8655 -1.9139
    1MPD1    N114386   4.213   3.100   9.627 -0.4107 -0.2584 -0.3625
    1MPD1    H614387   4.302   3.150   9.622  0.5498 -1.5972  2.8744
    1MPD1    H714388   4.179   3.077   9.721 -2.7537  0.1807 -1.1133
    2MPD1     C14389   3.476   4.074   8.227 -0.2790 -0.0115  0.0257
    2MPD1    C114390   3.420   4.026   8.114  0.1260  0.3508  0.4447
    2MPD1    C214391   3.513   3.972   8.022 -0.0186 -0.1398  0.1038
    2MPD1    C314392   3.650   3.975   8.047 -0.2395 -0.4058  0.1771
    2MPD1    C414393   3.694   4.010   8.168 -0.1047  0.0848 -0.0525
    2MPD1    C514394   3.606   4.066   8.254 -0.2339  0.2254  0.3029
    2MPD1     H14395   3.469   3.934   7.930 -0.6633  0.4641  0.1614
    2MPD1    H114396   3.794   4.000   8.208  0.0676  1.3621 -0.1489
    2MPD1    H214397   3.416   4.118   8.306 -1.2924  1.4158 -1.5408
    2MPD1    H314398   3.637   4.092   8.355  0.9140  2.2503 -0.5848
    2MPD1     N14399   3.745   3.939   7.946 -0.1024 -0.0359  0.2530
    2MPD1    H514400   3.843   3.949   7.970  0.3449 -0.9583 -1.1418
    2MPD1    N114401   3.284   4.038   8.086  0.5715  1.3046 -0.1193
    2MPD1    H614402   3.265   3.940   8.064  0.3487  1.1157  0.8847
    2MPD1    H714403   3.239   4.062   8.175  0.5815 -0.6419  0.4251
    3MPD1     C14404   3.854   3.337   7.147 -0.8960  0.3283  0.4068
    3MPD1    C114405   3.742   3.375   7.221  0.0856  0.1773 -0.4279
    3MPD1    C214406   3.760   3.488   7.300 -0.5938 -0.3003 -0.1074
    3MPD1    C314407   3.875   3.565   7.312 -0.5799  0.4320 -0.0654
    3MPD1    C414408   3.984   3.522   7.226 -0.0378  0.0735  0.2938
    3MPD1    C514409   3.968   3.407   7.150  0.1444 -0.2584 -0.7252
    3MPD1     H14410   3.675   3.509   7.364  1.4217 -0.0778  2.4834
    3MPD1    H114411   4.083   3.565   7.237 -0.6006  1.0948  1.3962
    3MPD1    H214412   3.851   3.243   7.092  2.7221  0.8187 -0.6152
    3MPD1    H314413   4.051   3.374   7.088  1.1074 -1.5450  1.2267
    3MPD1     N14414   3.873   3.661   7.411  0.5349  0.6856 -0.0043
    3MPD1    H514415   3.789   3.673   7.467  0.8848 -2.3114  1.1827
    3MPD1    N114416   3.625   3.300   7.221  0.4754  0.3666  0.5485
    3MPD1    H614417   3.616   3.251   7.132 -0.3003 -1.1268  1.4595
    3MPD1    H714418   3.543   3.359   7.228  1.6495  1.9114  1.3169
    4MPD2     C14419   3.966   4.117   8.972  0.3934 -0.0106 -0.3567
    4MPD2    C114420   4.076   4.041   8.938  0.0985  0.8548 -0.0887
    4MPD2    C214421   4.164   4.089   8.847  0.1504  0.1074  0.1207
    4MPD2    C314422   4.150   4.212   8.787 -0.6476 -0.0640 -0.3649
    4MPD2    C414423   4.036   4.287   8.813 -0.4221  0.1838  0.0627
    4MPD2    C514424   3.948   4.239   8.915  0.8842 -0.4460  0.4841
    4MPD2     H14425   4.249   4.022   8.834  0.0005 -0.2560  1.0193
    4MPD2    H114426   4.026   4.389   8.776 -1.0802 -0.0372 -0.3685
    4MPD2    H214427   3.887   4.088   9.041  3.4100 -3.9877  1.4273
    4MPD2    H314428   3.857   4.295   8.931  0.7107 -0.1171 -1.6427
    4MPD2     N14429   4.263   4.254   8.716  0.1586 -0.5004 -0.0719
    4MPD2    H514430   4.340   4.190   8.700 -1.0897 -1.6893 -1.2962
    4MPD2    N114431   4.093   3.909   8.960 -0.5358 -0.4347 -0.0750
    4MPD2    H714432   4.170   3.864   8.911  0.5721  1.3675  0.0404
    5MPD2     C14433   4.744   3.761   8.513 -0.3322 -0.3314 -0.0804
    5MPD2    C114434   4.650   3.846   8.569 -0.2841  0.1728  0.4861
    5MPD2    C214435   4.550   3.795   8.649 -0.0306  0.5120 -0.2402
    5MPD2    C314436   4.536   3.661   8.676 -0.4815  0.1085 -0.3452
    5MPD2    C414437   4.620   3.579   8.608  0.4783  0.5415  0.0333
    5MPD2    C514438   4.724   3.627   8.529 -0.5815  0.1536 -0.4559
    5MPD2     H14439   4.475   3.858   8.695  1.8807  1.0312  2.1562
    5MPD2    H114440   4.614   3.471   8.621  0.4087  0.4081 -1.1474
    5MPD2    H214441   0.058   3.799   8.467 -0.8548 -1.7414 -2.2638
    5MPD2    H314442   0.024   3.563   8.486  0.5792 -0.1180  1.9857
    5MPD2     N14443   4.456   3.610   8.773  0.0029  0.1178 -0.4130
    5MPD2    H514444   4.460   3.508   8.770  1.9866  0.1384  1.0765
    5MPD2    N114445   4.671   3.983   8.564 -0.4011 -0.2368 -0.1625
    5MPD2    H714446   4.755   4.010   8.514  0.3752 -1.9384  0.2175
    6MPD2     C14447   4.661   4.134   7.925  0.1954 -0.7008 -0.5976
    6MPD2    C114448   4.547   4.149   7.995 -0.8243  0.8846  0.2363
    6MPD2    C214449   4.421   4.105   7.936  0.2145  0.2163  0.3701
    6MPD2    C314450   4.416   4.038   7.811  0.1262  0.1728  0.0246
    6MPD2    C414451   4.536   4.029   7.752 -0.1449  1.0189  0.1733
    6MPD2    C514452   4.654   4.068   7.807 -0.8196  1.1054 -0.5540
    6MPD2     H14453   4.328   4.119   7.990 -0.0039 -1.3215  0.3902
    6MPD2    H114454   4.546   3.992   7.650  0.8634 -0.4806  0.8099
    6MPD2    H214455   4.756   4.178   7.952  0.7987 -0.9956 -2.2426
    6MPD2    H314456   4.740   4.066   7.742  0.4114 -2.4448  1.2025
    6MPD2     N14457   4.302   3.993   7.744  0.3203  0.3583 -0.3957
    6MPD2    H514458   4.312   3.939   7.658 -0.9490 -1.0073  0.3116
    6MPD2    N114459   4.554   4.200   8.130 -0.0912 -0.1309  0.7017
    6MPD2    H714460   4.647   4.221   8.164  0.6929 -0.4957 -1.2005
    7TMC3    C114461   4.035   3.684   8.996 -0.0096  0.2053  0.2463
    7TMC3    C214462   4.132   3.686   8.896 -0.8768  0.2294  0.5642
    7TMC3    C314463   4.247   3.600   8.889 -0.6406 -0.4425  0.1252
    7TMC3    C414464   4.065   3.605   9.105  0.0618 -0.2641 -0.1395
    7TMC3    C514465   4.181   3.531   9.107 -0.8501  0.1689  0.2527
    7TMC3    C614466   4.275   3.530   9.003 -0.7505  0.2119 -0.0007
    7TMC3     C14467   4.005   3.823   9.028  0.4105  0.1222  0.3789
    7TMC3     O14468   3.929   3.857   9.118  0.2178  0.3294 -0.2984
    7TMC3     H14469   4.093   3.718   8.800  0.6360  0.4101  0.0164
    7TMC3    H114470   4.016   3.632   9.199  1.7153 -0.7744  0.8637
    7TMC3    H214471   4.368   3.478   9.020 -0.7626 -0.1857 -1.1637
    7TMC3    C714472   4.192   3.429   9.201 -0.6022  0.1174  0.7453
    7TMC3    C814473   4.358   3.678   8.838 -0.0222  0.2747  0.2270
    7TMC3    O114474   4.309   3.399   9.232  0.1717  0.3828  0.2894
    7TMC3    O214475   4.330   3.793   8.846  0.3058 -0.0698 -0.0836
    8TMC3    C114476   3.828   3.920   7.726  0.1288 -0.3099  0.2475
    8TMC3    C214477   3.841   3.838   7.619  0.6413  0.6446  0.5949
    8TMC3    C314478   3.961   3.839   7.556 -0.5631 -0.1396  0.2222
    8TMC3    C414479   3.939   3.996   7.762  0.2978  0.0548 -0.5748
    8TMC3    C514480   4.061   3.969   7.709 -0.5683 -0.3851  0.2518
    8TMC3    C614481   4.082   3.888   7.609 -0.5337 -0.8468  0.4060
    8TMC3     C14482   3.715   3.913   7.813 -0.5689 -0.5253  0.9255
    8TMC3     O14483   3.616   3.867   7.762 -0.2744  0.3480 -0.6301
    8TMC3     H14484   3.763   3.767   7.591  0.1040  1.6035 -0.3359
    8TMC3    H114485   3.932   4.077   7.834  0.2095 -0.5961  0.1489
    8TMC3    H214486   4.175   3.883   7.554 -1.1784 -1.6670 -0.6106
    8TMC3    C714487   4.175   4.032   7.779 -0.0529 -0.5619  0.0312
    8TMC3    C814488   3.982   3.745   7.442  0.4535 -0.0364  0.1064
    8TMC3    O114489   4.146   4.109   7.867 -0.1257 -0.7654  0.2370
    8TMC3    O214490   4.096   3.731   7.398  0.0015 -0.6571 -0.3996
    9TMC3    C114491   4.586   4.209   8.557  0.5157 -0.5460 -0.1769
    9TMC3    C214492   4.580   4.200   8.419 -0.1772  1.1008 -0.3702
    9TMC3    C314493   4.470   4.251   8.352  0.4319 -0.7739  0.2224
    9TMC3    C414494   4.488   4.280   8.622  0.3401 -0.1639 -0.1965
    9TMC3    C514495   4.387   4.343   8.553 -0.3282 -0.1391  0.1880
    9TMC3    C614496   4.378   4.327   8.416 -0.2973 -0.5455  0.0081
    9TMC3     C14497   4.590   4.077   8.618 -0.0536  0.5285  0.1327
    9TMC3     O14498   4.513   4.073   8.713  0.4530 -0.7383 -0.4231
    9TMC3     H14499   4.651   4.142   8.362  0.8722  0.4512  1.6005
    9TMC3    H114500   4.507   4.322   8.720  1.5689 -1.1487 -0.0011
    9TMC3    H214501   4.290   4.372   8.372 -0.6542 -2.2408 -1.0111
    9TMC3    C714502   4.264   4.352   8.621 -0.0790  0.9619  0.0396
    9TMC3    C814503   4.445   4.227   8.210  0.0803  0.9750 -0.1538
    9TMC3    O114504   4.178   4.428   8.581 -0.0916  0.7509  0.3284
    9TMC3    O214505   4.329   4.245   8.175  0.3174  0.4267 -0.5316
    1TMC2    C114506   4.394   2.931  12.523  0.6977 -0.1680  0.8491
    1TMC2    C214507   4.343   3.007  12.618 -0.3959 -0.5848 -0.2472
    1TMC2    C314508   4.418   3.033  12.732  0.2316  0.0288 -0.3476
    1TMC2    C414509   4.515   2.864  12.541  0.4224 -0.9607  0.3590
    1TMC2    C514510   4.583   2.878  12.665 -0.1925 -0.8510 -0.3856
    1TMC2    C614511   4.531   2.963  12.762  0.3800 -0.5292 -0.4539
    1TMC2     C14512   4.319   2.901  12.405 -0.0075  0.5266  0.2331
    1TMC2     O14513   4.282   2.785  12.401  0.4414 -0.0967  0.2499
    1TMC2     H14514   4.256   3.069  12.598 -0.3418 -0.9310 -1.5557
    1TMC2    H114515   4.536   2.797  12.459  1.1494 -1.3501  0.8620
    1TMC2    H214516   4.579   2.961  12.859  0.2195  1.7706 -0.3276
    1TMC2    C714517   4.710   2.797  12.685  0.6533 -0.1113  0.2223
    1TMC2    C814518   4.363   3.140  12.817  0.3801 -0.5782 -0.3219
    1TMC2    O114519   4.760   2.777  12.795  0.2667  0.5799  0.5404
    1TMC2    O214520   4.246   3.175  12.809  0.0250  0.4962 -0.5442
    1TMC2    O514521   4.444   3.154  12.920 -0.1622 -0.0976  0.6920
    1TMC2    H514522   4.537   3.128  12.904  0.3373  1.4809  1.0273
    2MPD1     C14523   4.135   3.001  11.936  0.1915 -0.3326  0.2341
    2MPD1    C114524   4.200   3.115  11.989  0.2066 -0.7431  0.5111
    2MPD1    C214525   4.248   3.115  12.122  0.0798 -0.5310  0.4962
    2MPD1    C314526   4.247   3.005  12.197 -0.0530 -0.2790  0.5338
    2MPD1    C414527   4.185   2.892  12.138 -0.0809 -0.1542 -0.6391
    2MPD1    C514528   4.127   2.894  12.015 -0.1997 -0.3683 -0.3939
    2MPD1     H14529   4.290   3.202  12.172 -1.6868  0.2958  0.5561
    2MPD1    H114530   4.162   2.802  12.193 -3.8725  0.0885 -1.8204
    2MPD1    H214531   4.083   3.004  11.841 -2.2831  0.2304  1.5818
    2MPD1    H314532   4.074   2.806  11.983  0.2555 -0.8588  0.1870
    2MPD1     N14533   4.296   3.009  12.326  0.1304 -0.6119 -0.1206
    2MPD1    H514534   4.344   3.091  12.362  0.6730 -1.0354  0.1346
    2MPD1    N114535   4.184   3.237  11.919 -0.7305 -1.0020  0.4283
    2MPD1    H614536   4.178   3.218  11.819 -0.2197  0.6459  0.0776
    2MPD1    H714537   4.261   3.300  11.944 -0.1913 -0.9301 -1.3772
    3MPD1     C14538   0.326   2.518  12.507 -0.1153 -0.1507  0.0421
    3MPD1    C114539   0.258   2.504  12.631 -0.8617  0.3184  0.0668
    3MPD1    C214540   0.143   2.586  12.650 -0.0616  0.5926  0.5125
    3MPD1    C314541   0.100   2.675  12.554  0.0827 -0.8543  0.8934
    3MPD1    C414542   0.164   2.679  12.434  1.2310 -0.2228 -0.2454
    3MPD1    C514543   0.276   2.604  12.413 -0.0223 -0.0777 -0.0840
    3MPD1     H14544   0.080   2.569  12.737  0.7204  1.0231  1.1668
    3MPD1    H114545   0.120   2.739  12.355 -0.8125 -1.8512 -0.3324
    3MPD1    H214546   0.415   2.463  12.480 -0.0677  0.8441 -1.8149
    3MPD1    H314547   0.326   2.614  12.317 -0.3340  0.8420 -0.1463
    3MPD1     N14548   4.763   2.757  12.565  0.2430 -0.3158 -0.0914
    3MPD1    H514549   4.728   2.810  12.487 -1.8712 -1.4819  0.0869
    3MPD1    N114550   0.313   2.426  12.734  0.2896 -0.1761  0.1786
    3MPD1    H614551   0.365   2.343  12.708 -0.1866 -1.3426  3.0416
    3MPD1    H714552   0.251   2.408  12.812  0.4136  2.6259  0.9427
    1TMC1    C114553   2.909   2.260   9.486  0.2606  1.4924  0.0506
    1TMC1    C214554   2.936   2.177   9.591  0.4695 -0.1131  0.7951
    1TMC1    C314555   2.836   2.115   9.658 -0.4744  0.0961 -0.1088
    1TMC1    C414556   2.781   2.292   9.455 -0.0582 -0.3436 -0.3331
    1TMC1    C514557   2.683   2.228   9.521 -0.5458  0.1043 -0.6866
    1TMC1    C614558   2.708   2.142   9.619  0.9780 -0.1676  0.1324
    1TMC1     C14559   3.020   2.315   9.405  0.0876 -0.6361  0.5489
    1TMC1     O14560   2.999   2.412   9.332 -0.2502  0.0625  0.5620
    1TMC1     H14561   3.034   2.165   9.637  1.3298 -1.2845 -1.3106
    1TMC1    H114562   2.770   2.361   9.372 -2.0325 -0.8113 -0.4703
    1TMC1    H214563   2.624   2.104   9.676  1.9480 -1.1230  0.9212
    1TMC1    C714564   2.557   2.298   9.541 -0.0424  0.0170  1.0564
    1TMC1    C814565   2.876   2.024   9.759 -0.4554  0.7240  0.3244
    1TMC1    O114566   2.450   2.241   9.557 -0.4455 -0.0404  0.2639
    1TMC1    O214567   2.982   1.967   9.750 -0.0266  0.5684  0.2378
    1TMC1    O314568   2.590   2.424   9.578  0.5842  0.1383  0.0179
    1TMC1    H314569   2.685   2.448   9.576  0.1458  1.9058  0.9842
    1TMC1    O514570   2.758   1.977   9.810  0.3307 -0.4836 -0.2427
    1TMC1    H514571   2.696   2.048   9.840  0.0819 -1.3860  1.3747
    2TMC1    C114572   3.829   2.120   9.497 -0.3155  0.7199 -1.0134
    2TMC1    C214573   3.958   2.154   9.532  0.4189  0.5804 -0.4624
    2TMC1    C314574   4.031   2.077   9.610  0.1454 -0.2292  0.0228
    2TMC1    C414575   3.776   2.011   9.557  0.3493 -0.1195  0.1600
    2TMC1    C514576   3.855   1.932   9.635 -0.1606 -0.3928 -0.4637
    2TMC1    C614577   3.982   1.962   9.668 -0.3566 -0.6029  0.0002
    2TMC1     C14578   3.748   2.230   9.442 -0.7027 -0.1527 -0.3497
    2TMC1     O14579   3.811   2.298   9.358  0.4278 -0.6732 -1.0129
    2TMC1     H14580   3.992   2.252   9.501  1.2519  0.9005  1.4675
    2TMC1    H114581   3.672   1.984   9.547  0.1059  1.2536 -0.9576
    2TMC1    H214582   4.041   1.907   9.741 -1.3411 -0.8310  0.6283
    2TMC1    C714583   3.793   1.811   9.696 -0.7202 -0.1647  0.0106
    2TMC1    C814584   4.160   2.118   9.644 -1.2607  0.1050  0.2220
    2TMC1    O114585   3.854   1.753   9.787 -0.2646 -0.1350 -0.6607
    2TMC1    O214586   4.188   2.106   9.763 -0.4077  0.0401  0.3498
    2TMC1    O314587   3.689   1.766   9.619  0.4151  0.2855 -0.4337
    2TMC1    H314588   3.686   1.817   9.535  1.5777 -0.6454 -1.0349
    2TMC1    O514589   4.238   2.087   9.542  0.0504 -0.0375  0.6359
    2TMC1    H514590   4.194   2.068   9.457  0.5781 -0.1019  0.3755
    3MPD2     C14591   3.284   2.366   9.275 -0.0234  0.5175 -0.0250
    3MPD2    C114592   3.264   2.284   9.381  0.5633  0.5380  0.4470
    3MPD2    C214593   3.375   2.245   9.446 -0.8594  0.4403  0.8346
    3MPD2    C314594   3.504   2.286   9.408  0.8289  0.2974  0.0675
    3MPD2    C414595   3.522   2.375   9.308  0.0485  0.3945 -0.1541
    3MPD2    C514596   3.413   2.405   9.236  0.1894 -0.0215 -0.0191
    3MPD2     H14597   3.370   2.173   9.527 -0.0681 -1.6057 -0.9364
    3MPD2    H114598   3.619   2.409   9.273  0.4729  0.0036  0.6383
    3MPD2    H214599   3.205   2.392   9.205 -1.8620  1.1995  2.3089
    3MPD2    H314600   3.426   2.475   9.155 -0.9997 -1.3834 -1.3721
    3MPD2     N14601   3.615   2.228   9.473 -0.1660 -0.4823 -0.5568
    3MPD2    H514602   3.591   2.169   9.552 -2.3836  0.9942 -0.1374
    3MPD2    N114603   3.137   2.245   9.426  0.2702  0.2876 -0.7744
    3MPD2    H714604   3.146   2.163   9.485 -1.2342 -1.0745 -2.4153
    1TMC1    C114605   1.454   2.876  10.600 -0.2231 -0.3077 -0.7378
    1TMC1    C214606   1.567   2.800  10.624  0.3196 -0.0731 -0.4621
    1TMC1    C314607   1.571   2.684  10.560  0.3875 -0.0789  0.2904
    1TMC1    C414608   1.353   2.829  10.521 -0.0119  0.5092 -0.1681
    1TMC1    C514609   1.360   2.702  10.471 -0.7759 -1.3364 -0.0510
    1TMC1    C614610   1.469   2.629  10.492 -0.1483  0.3119 -0.0738
    1TMC1     C14611   1.449   2.986  10.687 -0.1421 -0.4239  0.0513
    1TMC1     O14612   1.518   2.973  10.784 -0.1257 -0.5322 -0.0366
    1TMC1     H14613   1.650   2.837  10.683 -0.2389 -0.2628  0.4532
    1TMC1    H114614   1.274   2.894  10.482 -0.6178 -1.0080 -1.4669
    1TMC1    H214615   1.455   2.523  10.480 -0.9142  0.6095 -1.8485
    1TMC1    C714616   1.256   2.655  10.390  0.4860  0.2980 -0.0540
    1TMC1    C814617   1.693   2.613  10.574 -0.1749 -0.4084 -0.0988
    1TMC1    O114618   1.272   2.573  10.301 -0.3199 -0.0705 -0.5419
    1TMC1    O214619   1.776   2.624  10.666  0.0771  0.0980  0.2120
    1TMC1    O314620   1.142   2.707  10.443  0.1692 -0.2898  0.9517
    1TMC1    H314621   1.158   2.729  10.537  1.5397 -0.8977  0.8595
    1TMC1    O514622   1.715   2.554  10.458  0.4523 -0.5501 -0.3969
    1TMC1    H514623   1.646   2.563  10.389  0.2154  1.4550  0.1006
    2TMC2    C114624   2.403   3.584  11.567  0.5289  0.2212 -0.0016
    2TMC2    C214625   2.497   3.549  11.467 -0.0526  0.3966 -0.6567
    2TMC2    C314626   2.561   3.654  11.407  0.3049  0.4719  0.1707
    2TMC2    C414627   2.370   3.718  11.590 -0.2479  0.4842 -0.0262
    2TMC2    C514628   2.419   3.813  11.508  0.4734 -0.0170  0.2504
    2TMC2    C614629   2.526   3.788  11.418 -0.2445 -0.5280  0.2718
    2TMC2     C14630   2.272   3.506  11.554 -0.1062  0.0505 -0.1013
    2TMC2     O14631   2.169   3.570  11.561 -0.6401 -0.0823 -0.1856
    2TMC2     H14632   2.502   3.446  11.433  0.9668 -0.5230  2.2461
    2TMC2    H114633   2.294   3.731  11.667 -0.9494  1.1597 -0.8268
    2TMC2    H214634   2.556   3.863  11.346 -0.7867  0.6479  1.2648
    2TMC2    C714635   2.313   3.900  11.459  0.1305  0.7735  0.5453
    2TMC2    C814636   2.684   3.617  11.337  0.0377  0.2258 -0.9157
    2TMC2    O114637   2.342   4.003  11.398 -0.1639 -0.0137  0.3083
    2TMC2    O214638   2.719   3.503  11.331 -0.0499  0.1278 -0.4588
    2TMC2    O514639   2.764   3.724  11.344  0.5520 -0.3152  0.2143
    2TMC2    H514640   2.715   3.809  11.347 -0.8686 -1.0577 -1.4016
    3MPD2     C14641   1.295   3.314  10.644  0.1320 -0.1486  0.5062
    3MPD2    C114642   1.366   3.215  10.704 -0.8548 -0.2814 -0.1310
    3MPD2    C214643   1.439   3.248  10.816 -0.2479  0.1290 -0.3258
    3MPD2    C314644   1.431   3.379  10.861  0.6537 -0.3546  0.1027
    3MPD2    C414645   1.360   3.480  10.799  0.4461  0.0811 -0.2299
    3MPD2    C514646   1.291   3.441  10.688 -0.1774 -0.3167  0.0192
    3MPD2     H14647   1.494   3.175  10.874  1.4292  0.1571 -1.8844
    3MPD2    H114648   1.356   3.583  10.833  1.4762 -0.1354  0.5611
    3MPD2    H214649   1.235   3.294  10.556  1.0881 -0.1714 -0.1418
    3MPD2    H314650   1.231   3.513  10.635  0.7153  0.4484  0.0589
    3MPD2     N14651   1.499   3.402  10.980 -0.6601  0.2176  0.6340
    3MPD2    H514652   1.571   3.335  11.007 -1.2288 -0.7534 -0.2598
    3MPD2    N114653   1.375   3.094  10.640  0.6931  0.3465 -0.0738
    3MPD2    H714654   1.343   3.099  10.544 -0.1299 -0.8180  0.1434
    4MPD2     C14655   1.810   3.999  11.385  0.4698 -0.2723 -0.6647
    4MPD2    C114656   1.833   3.863  11.413  0.2344 -0.3392  0.7900
    4MPD2    C214657   1.960   3.818  11.450  0.0901  0.2698  0.3539
    4MPD2    C314658   2.068   3.904  11.446  0.2781 -0.9517  0.1665
    4MPD2    C414659   2.058   4.034  11.414 -0.3312  0.6364  0.8625
    4MPD2    C514660   1.925   4.082  11.379 -1.7259  0.1367  0.0798
    4MPD2     H14661   1.984   3.713  11.462  0.2080  0.2095 -0.4076
    4MPD2    H114662   2.138   4.106  11.425 -0.7159  0.8841  1.9518
    4MPD2    H214663   1.713   4.028  11.346  1.0925  2.3163 -0.3082
    4MPD2    H314664   1.912   4.188  11.365 -0.5512 -0.1175 -2.9734
    4MPD2     N14665   2.192   3.852  11.492  0.8876 -0.3229  0.2992
    4MPD2    H514666   2.189   3.763  11.541  0.4221 -0.9330 -0.8393
    4MPD2    N114667   1.721   3.776  11.408 -0.0764 -0.1924  0.4451
    4MPD2    H714668   1.635   3.813  11.366 -0.4723 -1.2278  0.3435
    5MPD2     C14669   2.218   3.141  11.493 -0.2471  0.0675  0.5005
    5MPD2    C114670   2.192   3.278  11.496  0.5617  0.1982 -0.4870
    5MPD2    C214671   2.067   3.319  11.463  0.1267  0.3460 -0.1332
    5MPD2    C314672   1.964   3.230  11.444 -0.1352  0.5419 -0.0275
    5MPD2    C414673   1.988   3.093  11.450 -0.4743 -0.7569 -0.8322
    5MPD2    C514674   2.117   3.051  11.474  0.0886 -0.0742  0.1870
    5MPD2     H14675   2.050   3.425  11.449 -0.1235 -0.0452 -2.9048
    5MPD2    H114676   1.913   3.017  11.428  0.7830 -2.2434 -0.0411
    5MPD2    H214677   2.320   3.116  11.519 -0.0290 -1.4816 -1.8708
    5MPD2    H314678   2.131   2.944  11.480 -1.2859 -0.1164  2.8850
    5MPD2     N14679   1.835   3.288  11.423 -0.3356  0.0962 -0.1246
    5MPD2    H514680   1.828   3.385  11.451 -0.3043 -0.0987  0.5781
    5MPD2    N114681   2.297   3.370  11.540  0.0611 -0.2361  0.1183
    5MPD2    H714682   2.393   3.338  11.544  0.8269  1.7791 -1.8248
    6TMC3    C114683   1.603   3.568  11.406  0.6342  0.1374  0.1363
    6TMC3    C214684   1.629   3.440  11.448 -0.7986 -0.7151 -0.6422
    6TMC3    C314685   1.622   3.339  11.357  0.3074  0.2664 -0.6725
    6TMC3    C414686   1.560   3.599  11.279  0.0407  0.9361 -0.1194
    6TMC3    C514687   1.540   3.485  11.198  0.6523  0.2111 -0.0917
    6TMC3    C614688   1.576   3.361  11.231  0.4024 -0.1422  0.2032
    6TMC3     C14689   1.722   3.645  11.451  0.3477  0.0524 -0.1112
    6TMC3     O14690   1.808   3.575  11.504  0.4310 -0.6043  0.6444
    6TMC3     H14691   1.653   3.415  11.551  3.0091 -1.1243 -1.6007
    6TMC3    H114692   1.531   3.695  11.239  1.2330  0.3645 -2.3845
    6TMC3    H214693   1.577   3.279  11.161 -1.1954  2.5411 -2.9829
    6TMC3    C714694   1.478   3.504  11.069 -0.3284  0.4777  0.6327
    6TMC3    C814695   1.726   3.231  11.372 -0.3401 -1.1662 -0.3658
    6TMC3    O114696   1.417   3.612  11.056  0.1792  0.4605  0.0932
    6TMC3    O214697   1.712   3.134  11.299  0.5228  0.3591  0.2394
  958TMC0    C114698   1.186   1.774   6.580 -0.1340  0.3764 -0.5446
  958TMC0    C214699   1.228   1.831   6.705 -0.7238 -0.2538 -0.2599
  958TMC0    C314700   1.221   1.967   6.713  0.1860 -0.0259  0.4509
  958TMC0    C414701   1.146   1.858   6.484  0.6435 -0.2559  0.4201
  958TMC0    C514702   1.123   1.987   6.505  0.3768 -0.1751 -0.4711
  958TMC0    C614703   1.161   2.049   6.618 -0.1737  0.1130  1.0216
  958TMC0     C14704   1.166   1.628   6.570 -0.0483  0.0126 -0.0625
  958TMC0     O14705   1.147   1.559   6.668 -0.2272 -0.6245 -0.2995
  958TMC0     H14706   1.255   1.766   6.787 -0.4405  1.6208  1.1322
  958TMC0    H114707   1.111   1.823   6.387 -1.3164 -0.4068  1.1806
  958TMC0    H214708   1.151   2.156   6.629 -0.5926  0.0338  1.4187
  958TMC0    C714709   1.087   2.070   6.390  0.0708  0.0723 -0.6111
  958TMC0    C814710   1.241   2.033   6.840 -0.0003 -0.1424 -0.7865
  958TMC0    O114711   1.066   2.021   6.280 -0.1582  0.2764  0.0969
  958TMC0    O214712   1.171   2.119   6.883 -0.4794  0.3460 -0.2921
  958TMC0    O314713   1.019   2.175   6.435 -0.2278 -0.5482  0.5293
  958TMC0    H314714   1.019   2.191   6.532 -0.3067 -0.2371  0.4801
  958TMC0    O414715   1.109   1.604   6.449 -0.2398  0.0867 -0.0343
  958TMC0    H414716   1.137   1.654   6.369 -0.4980  1.1135  0.5197
  958TMC0    O514717   1.367   2.005   6.875  0.2627 -0.0610 -0.4060
  958TMC0    H514718   1.408   1.935   6.820  1.4227  0.5112 -0.2605
  959TMC0    C114719   3.184   2.191   9.903 -0.2718 -0.3651  0.4274
  959TMC0    C214720   3.141   2.106   9.995  0.0835 -0.1803 -0.5583
  959TMC0    C314721   3.216   1.998  10.037  0.7180 -0.1929  0.1791
  959TMC0    C414722   3.309   2.185   9.846  0.3326  0.0245 -0.3806
  959TMC0    C514723   3.382   2.074   9.881 -0.1143  0.1786  0.1640
  959TMC0    C614724   3.340   1.981   9.973 -0.6248 -0.3847 -0.2457
  959TMC0     C14725   3.116   2.314   9.879  0.4298 -0.3635  0.8466
  959TMC0     O14726   3.125   2.371   9.769 -0.4028  0.4464 -0.3063
  959TMC0     H14727   3.042   2.111  10.039  0.5711 -1.6107  0.7227
  959TMC0    H114728   3.335   2.250   9.763  1.5177  0.5425  0.3889
  959TMC0    H214729   3.413   1.902   9.983  1.2620  1.2792 -0.7229
  959TMC0    C714730   3.507   2.050   9.814  0.5187  0.4429 -0.7010
  959TMC0    C814731   3.180   1.940  10.164  0.3774  0.1658  1.0167
  959TMC0    O114732   3.531   2.097   9.707  0.0522  0.2649  0.2369
  959TMC0    O214733   3.110   1.994  10.251 -0.2909  0.6265  0.4062
  959TMC0    O314734   3.594   2.027   9.914  0.9847 -0.5229 -0.0183
  959TMC0    H314735   3.554   2.019  10.003  0.7943 -1.1913 -0.1663
  959TMC0    O414736   3.010   2.328   9.961  0.2146  0.5591 -0.4217
  959TMC0    H414737   3.024   2.284  10.047  0.0010 -0.3874 -0.8665
  959TMC0    O514738   3.233   1.813  10.170  0.3053  0.7245 -0.5090
  959TMC0    H514739   3.261   1.771  10.086  0.3000 -0.7034  0.1988
  960TMC0    C114740   1.334   2.198   8.204  0.2034  0.0510  0.4639
  960TMC0    C214741   1.277   2.135   8.100  0.2124 -0.1506  0.3397
  960TMC0    C314742   1.313   2.004   8.097 -0.3527  0.3039  0.3062
  960TMC0    C414743   1.404   2.136   8.303  0.0077  0.2811 -0.5670
  960TMC0    C514744   1.418   2.009   8.297  0.3587  0.1902 -0.3548
  960TMC0    C614745   1.386   1.938   8.190 -1.0010  0.1149  0.0444
  960TMC0     C14746   1.344   2.343   8.189  0.7953 -0.1758  0.6323
  960TMC0     O14747   1.308   2.402   8.085  0.3410 -0.3852  0.0023
  960TMC0     H14748   1.206   2.169   8.025 -0.2772 -1.4167  0.2408
  960TMC0    H114749   1.447   2.204   8.376  0.9184  0.5057 -1.3129
  960TMC0    H214750   1.422   1.836   8.180 -2.9745 -0.3242 -2.7602
  960TMC0    C714751   1.510   1.949   8.386  0.5207 -0.0591 -0.5577
  960TMC0    C814752   1.285   1.932   7.977 -0.6464 -0.2563  0.2578
  960TMC0    O114753   1.628   1.985   8.392  0.1665 -0.0488 -0.1408
  960TMC0    O214754   1.250   1.813   7.986 -0.5682 -0.2123  0.0782
  960TMC0    O314755   1.446   1.859   8.467  0.2463 -0.1574 -0.3723
  960TMC0    H314756   1.349   1.852   8.452  0.4055 -2.9708 -0.0119
  960TMC0    O414757   1.345   2.414   8.306  0.3293 -0.0430 -0.3243
  960TMC0    H414758   1.341   2.358   8.387 -1.7911 -0.0422 -0.4158
  960TMC0    O514759   1.276   2.017   7.871 -0.7531  0.2710 -0.1595
  960TMC0    H514760   1.329   2.095   7.900 -1.2737  0.5750 -0.0409
  961SOL     OW14761   2.024   3.884   1.616 -0.0396  0.0234  0.2562
  961SOL    HW114762   1.998   3.850   1.702 -3.0566  0.0106 -0.6434
  961SOL    HW214763   1.970   3.962   1.604  3.1210  2.1754  0.0333
  962SOL     OW14764   2.290   1.121   0.321 -0.1943  0.3084  0.9732
  962SOL    HW114765   2.342   1.098   0.244 -0.3304  2.6307  0.1940
  962SOL    HW214766   2.201   1.092   0.300 -0.7340  3.2841 -0.7623
  963SOL     OW14767   0.865   2.586  16.653  0.2693  0.5385  0.4521
  963SOL    HW114768   0.772   2.601  16.637  0.1871 -2.0062 -1.4546
  963SOL    HW214769   0.903   2.674  16.654 -2.1265  1.5734  1.0786
  964SOL     OW14770   4.612   0.922   3.341 -0.1773 -0.1063 -0.2695
  964SOL    HW114771   4.612   0.833   3.308 -1.3275 -0.3067  0.2764
  964SOL    HW214772   4.521   0.940   3.363  0.0909  1.1013 -0.1012
  965SOL     OW14773   3.506   3.524   0.211  0.4651 -0.5343 -0.2068
  965SOL    HW114774   3.559   3.552   0.286  1.2541  0.3268 -1.0960
  965SOL    HW214775   3.534   3.434   0.195  0.0425 -0.8414  0.7631
  966SOL     OW14776   4.228   3.897  13.208 -0.1257 -0.7389 -0.1911
  966SOL    HW114777   4.155   3.836  13.215 -0.0424 -0.7849  0.3086
  966SOL    HW214778   4.254   3.914  13.299  0.4755 -0.7208 -0.3628
  967SOL     OW14779   1.818   3.051   4.595  0.0066  0.1226 -0.2526
  967SOL    HW114780   1.783   3.131   4.556  1.0732  0.3626 -0.7262
  967SOL    HW214781   1.801   2.983   4.529 -1.3649 -0.1403  0.3704
  968SOL     OW14782   0.591   4.065  19.961  0.0347  0.3775 -0.3610
  968SOL    HW114783   0.579   4.085  19.869  1.7338  0.1992 -0.6204
  968SOL    HW214784   0.682   4.037  19.968 -0.3861 -0.6271  1.1843
  969SOL     OW14785   0.364   2.479  17.705 -0.3456  0.0830  0.3106
  969SOL    HW114786   0.445   2.512  17.744 -0.6484  1.3330 -0.1308
  969SOL    HW214787   0.329   2.418  17.770 -0.0581  1.0010  1.3150
  970SOL     OW14788   4.505   3.661  18.535 -0.0065  0.4263  0.1009
  970SOL    HW114789   4.555   3.719  18.593 -0.5388 -0.5181  1.5127
  970SOL    HW214790   4.516   3.574  18.574 -1.9076  0.0740 -0.1663
  971SOL     OW14791   2.616   3.651   9.501 -0.0091  0.4935  0.5933
  971SOL    HW114792   2.528   3.655   9.541 -0.0036 -1.2072  0.7770
  971SOL    HW214793   2.669   3.710   9.554 -0.5892  0.0479  1.6833
  972SOL     OW14794   1.083   2.896  13.367 -0.5165  0.2289  0.7089
  972SOL    HW114795   1.008   2.913  13.309 -1.4662 -1.0840  1.5383
  972SOL    HW214796   1.060   2.940  13.449  0.7495  1.9399  0.1480
  973SOL     OW14797   3.346   1.465  20.762 -0.5264  0.2590 -0.2166
  973SOL    HW114798   3.393   1.548  20.770 -0.3883  0.0612  1.0634
  973SOL    HW214799   3.341   1.432  20.852 -0.8152 -0.9836 -0.6934
  974SOL     OW14800   3.875   3.103  19.172 -0.4947 -0.6248  0.5794
  974SOL    HW114801   3.964   3.067  19.166 -0.3728 -0.4029  1.1332
  974SOL    HW214802   3.854   3.129  19.082  0.0890 -0.4609  0.4901
  975SOL     OW14803   3.957   3.614   4.302  0.1651  0.4418 -0.2573
  975SOL    HW114804   4.042   3.573   4.316 -0.1064 -0.0787 -0.1424
  975SOL    HW214805   3.907   3.594   4.382 -0.8116 -1.1054 -1.2694
  976SOL     OW14806   2.072   0.892   0.467 -0.1044  0.0622  0.3945
  976SOL    HW114807   2.073   0.827   0.397 -1.2782 -0.0570  0.4961
  976SOL    HW214808   2.045   0.974   0.424  1.6034  0.5344  0.2183
  977SOL     OW14809   1.965   1.344  19.207 -0.7410  0.0382 -0.2323
  977SOL    HW114810   1.952   1.331  19.301 -1.9044  0.7602 -0.2957
  977SOL    HW214811   1.887   1.306  19.166  0.0249 -0.7848 -0.9458
  978SOL     OW14812   1.538   4.370   5.692  0.1070 -0.0776 -0.2880
  978SOL    HW114813   1.503   4.446   5.647 -0.7520 -0.6681 -0.6101
  978SOL    HW214814   1.551   4.399   5.783  0.3983  0.6390 -0.5618
  979SOL     OW14815   3.938   4.387  10.166  0.0656  0.1732  0.6895
  979SOL    HW114816   3.924   4.471  10.211 -1.6521  0.9567 -1.2813
  979SOL    HW214817   4.020   4.399  10.118 -0.9465  1.2377 -0.7768
  980SOL     OW14818   1.155   4.655   3.651 -0.7635  0.2403  0.4519
  980SOL    HW114819   1.071   4.667   3.695 -0.7432  0.2862  0.4776
  980SOL    HW214820   1.135   4.668   3.558 -0.8615 -0.1334  0.4168
  981SOL     OW14821   0.040   1.063   6.057 -0.4205 -0.1055  0.4091
  981SOL    HW114822   0.089   0.997   6.008  0.9317  2.0318 -1.0601
  981SOL    HW214823   0.073   1.055   6.147  1.1754 -0.0295 -0.1725
  982SOL     OW14824   4.542   2.130  12.772  0.2365  0.3349 -0.7912
  982SOL    HW114825   4.574   2.210  12.729  0.5989 -0.2140 -1.5354
  982SOL    HW214826   4.483   2.090  12.708  1.1316 -0.7198 -0.9589
  983SOL     OW14827   3.575   3.975  18.790 -0.6521  0.1209  0.3837
  983SOL    HW114828   3.494   4.025  18.784 -0.4710  0.2316 -1.0475
  983SOL    HW214829   3.553   3.902  18.849 -2.1335 -0.5181 -0.9610
  984SOL     OW14830   0.109   2.297  10.791  0.3007 -0.0985  0.0249
  984SOL    HW114831   0.070   2.324  10.708 -0.7788  1.0372  0.8979
  984SOL    HW214832   0.052   2.226  10.823 -0.9194  1.4110  1.1931
  985SOL     OW14833   1.769   1.379   5.071 -0.4811 -0.4475 -0.3669
  985SOL    HW114834   1.829   1.305   5.079 -0.0274 -0.1292 -0.7355
  985SOL    HW214835   1.706   1.352   5.005 -0.7645 -0.8015  0.0529
  986SOL     OW14836   0.500   1.305   3.686  0.4895 -0.2622  0.0367
  986SOL    HW114837   0.430   1.246   3.660 -0.1275  0.2757  0.4706
  986SOL    HW214838   0.556   1.252   3.743 -0.2924 -0.3036  0.7656
  987SOL     OW14839   1.433   1.454   2.752  0.2734 -0.0152 -0.0791
  987SOL    HW114840   1.381   1.410   2.819  0.3602 -1.5479 -1.0364
  987SOL    HW214841   1.444   1.389   2.683  1.0222  1.2524 -1.1513
  988SOL     OW14842   2.819   4.407   3.274  0.0677 -0.1895  0.3413
  988SOL    HW114843   2.821   4.399   3.179  1.1831 -0.2861  0.3778
  988SOL    HW214844   2.868   4.487   3.293 -0.4857  0.0436  0.8112
  989SOL     OW14845   4.572   4.264  18.904 -0.1528 -0.2795 -0.4507
  989SOL    HW114846   4.482   4.244  18.931 -0.2710 -0.0405 -0.6655
  989SOL    HW214847   4.619   4.276  18.986 -0.3755 -0.1528 -0.3412
  990SOL     OW14848   1.100   1.267   2.032  0.1981  0.1266  0.0468
  990SOL    HW114849   1.056   1.250   2.115 -0.2421  1.0210  0.0019
  990SOL    HW214850   1.107   1.363   2.028  3.2571 -0.0664  0.6425
  991SOL     OW14851   4.202   3.838   2.588 -0.4404 -0.2098 -0.3251
  991SOL    HW114852   4.165   3.925   2.573 -1.0161 -0.4043 -0.0336
  991SOL    HW214853   4.208   3.830   2.683  0.1889 -0.2456 -0.3706
  992SOL     OW14854   1.623   3.524  16.429 -0.4645  0.6354  0.0633
  992SOL    HW114855   1.671   3.443  16.448 -0.9979 -0.0099 -1.3604
  992SOL    HW214856   1.550   3.523  16.491 -0.9154 -0.3645 -0.4758
  993SOL     OW14857   0.018   1.622   2.965 -0.3152  0.2330 -0.4014
  993SOL    HW114858   0.064   1.630   3.048  0.7560 -1.9813 -0.7903
  993SOL    HW214859   4.701   1.632   2.988  0.0850  0.9916  0.8671
  994SOL     OW14860   0.591   0.412  21.081 -0.0806 -0.8421  0.2289
  994SOL    HW114861   0.681   0.430  21.053 -0.1696 -0.5059  0.1624
  994SOL    HW214862   0.539   0.481  21.040 -0.0428  0.3558  2.2111
  995SOL     OW14863   2.269   4.310  16.152  0.1519  0.6248  0.7731
  995SOL    HW114864   2.253   4.400  16.125 -1.2640  0.5498  1.3826
  995SOL    HW214865   2.309   4.317  16.239  1.9970  0.7450 -0.0756
  996SOL     OW14866   2.473   3.013   1.760 -0.6579 -0.7378  0.0998
  996SOL    HW114867   2.516   2.933   1.790 -0.1245  0.5967  2.9379
  996SOL    HW214868   2.536   3.054   1.701  0.6896 -0.3607  1.8010
  997SOL     OW14869   3.769   1.912  15.749 -0.3227  0.0602  1.0745
  997SOL    HW114870   3.693   1.888  15.695 -0.0590  0.8606  0.3447
  997SOL    HW214871   3.777   1.840  15.812  0.9587 -2.1196 -1.6059
  998SOL     OW14872   0.413   3.469   3.098 -0.1498  0.5797  0.9591
  998SOL    HW114873   0.392   3.562   3.106 -1.3841  0.2877  1.1992
  998SOL    HW214874   0.484   3.454   3.161  0.9316  1.6402 -0.0274
  999SOL     OW14875   3.354   4.532   1.285  0.0272 -0.0469  0.1242
  999SOL    HW114876   3.262   4.558   1.286  0.9444  3.2968 -0.9205
  999SOL    HW214877   3.362   4.473   1.210 -1.1804 -0.0283 -0.0148
 1000SOL     OW14878   3.647   3.236   3.690  0.1873 -0.2988 -0.1990
 1000SOL    HW114879   3.674   3.144   3.693 -0.9227 -0.6217 -0.0312
 1000SOL    HW214880   3.584   3.240   3.618  0.1136  0.2919 -0.0967
 1001SOL     OW14881   1.226   4.480   9.882  0.0661  0.6465 -0.8742
 1001SOL    HW114882   1.267   4.400   9.916  0.0436  0.9034 -0.2399
 1001SOL    HW214883   1.292   4.548   9.896 -0.3341  0.9413 -0.4235
 1002SOL     OW14884   2.748   3.418  16.093  0.6452  0.2016 -0.5660
 1002SOL    HW114885   2.826   3.464  16.060  1.0349  0.6211  0.9240
 1002SOL    HW214886   2.724   3.466  16.173 -0.1597 -0.9306 -0.1238
 1003SOL     OW14887   1.355   0.650   7.600  0.8518 -0.0597 -0.5669
 1003SOL    HW114888   1.328   0.666   7.690 -0.6978 -0.3472 -0.9841
 1003SOL    HW214889   1.334   0.731   7.553  1.4356  0.0027 -0.7249
 1004SOL     OW14890   1.621   0.061  20.074  0.3157  0.1656 -0.5562
 1004SOL    HW114891   1.713   0.062  20.048 -0.0203  0.4479 -1.7513
 1004SOL    HW214892   1.616   0.123  20.147  0.6430  1.8850 -1.9940
 1005SOL     OW14893   1.070   2.705   2.571  0.5672  0.1829  0.2465
 1005SOL    HW114894   1.009   2.775   2.549  0.7751  0.3215  0.1030
 1005SOL    HW214895   1.150   2.728   2.523  0.9024  0.2828  0.8493
 1006SOL     OW14896   1.011   0.381   2.941 -0.0200 -0.9701 -0.3695
 1006SOL    HW114897   1.106   0.392   2.942  0.0606 -1.6734 -0.3799
 1006SOL    HW214898   0.997   0.291   2.969 -0.8035 -0.0330  2.2632
 1007SOL     OW14899   0.066   3.343  13.783 -0.4032 -0.1900 -0.2651
 1007SOL    HW114900   0.132   3.276  13.801  0.9188  1.1305 -0.2099
 1007SOL    HW214901   0.033   3.368  13.869 -0.3783 -0.2366 -0.2419
 1008SOL     OW14902   0.842   0.980  20.870 -0.5146  0.2260 -0.1397
 1008SOL    HW114903   0.812   1.063  20.905  1.4962  1.1099 -0.4785
 1008SOL    HW214904   0.817   0.915  20.935 -2.7813  0.9886 -0.2368
 1009SOL     OW14905   0.519   2.703   3.264  0.7075  0.5094  0.3606
 1009SOL    HW114906   0.458   2.641   3.223 -0.1907  0.2372  2.1433
 1009SOL    HW214907   0.604   2.657   3.264  0.4184 -0.0209  0.0446
 1010SOL     OW14908   0.140   3.912  12.158  0.0056  0.4850 -0.2562
 1010SOL    HW114909   0.163   3.915  12.251 -2.4975 -2.8041  0.4736
 1010SOL    HW214910   0.083   3.988  12.144 -1.0063  0.0134  1.2915
 1011SOL     OW14911   3.942   0.924   5.512  0.8516 -0.0013  0.1565
 1011SOL    HW114912   3.929   0.962   5.425 -2.1699  0.4355  0.8019
 1011SOL    HW214913   4.037   0.928   5.525  1.2834  0.3702 -2.9159
 1012SOL     OW14914   3.405   2.717  14.758 -0.2995  0.0906  0.1121
 1012SOL    HW114915   3.392   2.708  14.852 -1.1054 -1.4911 -0.1547
 1012SOL    HW214916   3.469   2.649  14.736  1.1752  1.5725 -0.1882
 1013SOL     OW14917   1.141   2.455  17.677 -0.2063  0.0966 -0.4021
 1013SOL    HW114918   1.198   2.384  17.647  1.0731  0.0275  2.1952
 1013SOL    HW214919   1.134   2.513  17.602  2.4048 -0.4711 -1.0949
 1014SOL     OW14920   3.189   0.702  17.258 -0.1205 -0.0725 -0.4900
 1014SOL    HW114921   3.140   0.662  17.330  1.2020 -2.9099 -1.1816
 1014SOL    HW214922   3.188   0.637  17.188  2.8319  0.6749 -1.2553
 1015SOL     OW14923   1.904   1.514  14.052  0.3700 -0.2210  0.2666
 1015SOL    HW114924   1.946   1.589  14.095  0.9248 -1.2238  1.4585
 1015SOL    HW214925   1.932   1.521  13.960  1.8819  0.0150  0.7402
 1016SOL     OW14926   2.673   4.737  20.698 -0.6603  0.4754 -0.0980
 1016SOL    HW114927   2.744   4.675  20.679  0.7355  1.8764  0.6474
 1016SOL    HW214928   2.655   0.002  20.613 -2.6013 -2.0321 -0.9131
 1017SOL     OW14929   2.087   0.341  19.743 -0.4417 -0.3581 -0.4366
 1017SOL    HW114930   2.015   0.304  19.692 -0.6482 -1.2672  0.5151
 1017SOL    HW214931   2.166   0.319  19.693 -0.9454  2.1076 -2.3569
 1018SOL     OW14932   0.259   2.113   3.993  0.0513  0.0417 -0.5354
 1018SOL    HW114933   0.175   2.153   4.017  0.4767  1.5743 -1.6071
 1018SOL    HW214934   0.325   2.170   4.033  0.5339 -2.1788  1.8290
 1019SOL     OW14935   3.695   3.727   2.331  0.6959 -0.3710 -0.3364
 1019SOL    HW114936   3.641   3.662   2.377 -1.3059 -0.0937 -2.2649
 1019SOL    HW214937   3.777   3.681   2.311 -0.9382 -2.4889 -2.1757
 1020SOL     OW14938   0.819   3.406  17.944  0.0549 -0.3577 -0.1896
 1020SOL    HW114939   0.896   3.396  18.000  0.0570 -0.3160 -0.1853
 1020SOL    HW214940   0.854   3.434  17.860 -0.0818  1.1737  0.2498
 1021SOL     OW14941   1.761   0.225   8.695 -0.2290  0.0687 -0.7317
 1021SOL    HW114942   1.846   0.194   8.725 -0.2630 -1.4505 -2.2295
 1021SOL    HW214943   1.718   0.148   8.659 -2.7190  0.5913  1.0962
 1022SOL     OW14944   1.786   3.413   1.956  0.0639  0.3888  0.1393
 1022SOL    HW114945   1.723   3.383   2.021  0.2312  0.6524  0.4254
 1022SOL    HW214946   1.735   3.421   1.876 -0.3636  1.0249  0.4739
 1023SOL     OW14947   2.106   1.844   8.782 -0.1994 -0.3026 -0.3722
 1023SOL    HW114948   2.135   1.935   8.772 -0.4872 -0.1516  0.1655
 1023SOL    HW214949   2.182   1.798   8.817 -0.6779  0.1333  1.2296
 1024SOL     OW14950   4.688   1.371  16.948 -0.0445 -0.0886  0.6356
 1024SOL    HW114951   4.689   1.373  16.852  1.9847  0.1028  0.6561
 1024SOL    HW214952   4.666   1.281  16.970 -0.9887 -0.0159 -0.0309
 1025SOL     OW14953   0.155   2.386   2.641  0.6174 -0.0676  0.3580
 1025SOL    HW114954   0.157   2.342   2.726  0.9837  0.2687  0.5251
 1025SOL    HW214955   0.118   2.322   2.581 -0.3656 -0.0280  0.9304
 1026SOL     OW14956   0.319   3.713  17.474  0.2652  0.5505 -0.1038
 1026SOL    HW114957   0.272   3.655  17.533 -1.1544  0.5496 -1.2260
 1026SOL    HW214958   0.318   3.798  17.517 -0.7877  0.5540 -0.1452
 1027SOL     OW14959   4.413   3.831  20.792 -0.1417  0.0287 -0.0459
 1027SOL    HW114960   4.465   3.835  20.711  0.6232  0.8717  0.4745
 1027SOL    HW214961   4.335   3.882  20.772 -1.4493 -2.4944 -1.3243
 1028SOL     OW14962   1.305   0.060   0.328  0.1686  0.1611  0.5855
 1028SOL    HW114963   1.220   0.082   0.288 -0.0852  1.4208  1.7888
 1028SOL    HW214964   1.370   0.087   0.263 -0.2820  1.2611  0.5826
 1029SOL     OW14965   2.436   3.851  12.660  0.2019 -0.0557  0.1216
 1029SOL    HW114966   2.344   3.861  12.685 -0.2839 -1.0959 -1.3032
 1029SOL    HW214967   2.462   3.938  12.629 -1.0351 -0.4391 -1.9959
 1030SOL     OW14968   4.061   0.283  11.580 -0.1085  0.3426  0.5538
 1030SOL    HW114969   4.031   0.373  11.591  1.1103  0.7876  0.1662
 1030SOL    HW214970   3.992   0.242  11.528 -0.3781  1.2116  0.2203
 1031SOL     OW14971   1.867   2.106   1.535  0.1536  0.0051  0.1373
 1031SOL    HW114972   1.907   2.067   1.457  0.4717 -2.4457  1.5273
 1031SOL    HW214973   1.942   2.134   1.589 -0.0501 -1.0355  0.9512
 1032SOL     OW14974   3.483   1.633   4.685 -0.5802  0.4421 -0.1703
 1032SOL    HW114975   3.432   1.680   4.751 -0.3919 -0.2368  0.4559
 1032SOL    HW214976   3.562   1.687   4.672 -1.5473  1.6021 -1.2926
 1033SOL     OW14977   2.471   1.465  11.272 -0.7113  0.1825 -0.3866
 1033SOL    HW114978   2.512   1.463  11.358  0.2586 -1.0063 -0.8942
 1033SOL    HW214979   2.496   1.550  11.235 -0.5392  0.3851  0.2041
 1034SOL     OW14980   4.293   2.278   3.270  0.4033  0.3383 -0.4748
 1034SOL    HW114981   4.298   2.210   3.338  0.9561  0.4393 -0.4181
 1034SOL    HW214982   4.215   2.255   3.220 -0.7165  0.9663  0.9686
 1035SOL     OW14983   4.762   3.067   4.972 -0.3006  0.1629 -0.2587
 1035SOL    HW114984   0.020   3.111   4.893 -2.0764  0.3166 -0.9308
 1035SOL    HW214985   0.064   3.046   5.023  0.8191  0.5382 -1.8252
 1036SOL     OW14986   4.723   1.827  16.990 -0.1353  0.0423  0.3890
 1036SOL    HW114987   4.641   1.859  16.951  0.0412  0.8287  0.6730
 1036SOL    HW214988   4.694   1.758  17.050 -0.5627  0.0714  0.2217
 1037SOL     OW14989   2.610   3.124  20.014  0.0669  0.3539  0.0339
 1037SOL    HW114990   2.542   3.186  19.989 -0.0960 -0.1981 -0.9122
 1037SOL    HW214991   2.693   3.169  19.995 -0.0450  0.8392  0.7238
 1038SOL     OW14992   2.942   0.313   2.819 -0.3138 -0.3931 -0.4751
 1038SOL    HW114993   3.032   0.283   2.822 -0.6066 -1.3432 -1.2815
 1038SOL    HW214994   2.941   0.381   2.752 -0.2107 -0.4423 -0.5265
 1039SOL     OW14995   0.292   1.746   9.522  0.4130  0.5765 -0.1912
 1039SOL    HW114996   0.226   1.705   9.578  0.0229 -0.0776 -1.1414
 1039SOL    HW214997   0.359   1.778   9.584  0.7682 -1.5551  0.5285
 1040SOL     OW14998   3.195   4.095  19.558 -0.6056  0.2727 -0.5704
 1040SOL    HW114999   3.181   4.160  19.490  1.2830  0.6827 -0.5602
 1040SOL    HW215000   3.140   4.125  19.631 -0.9787  0.9818 -1.1450
 1041SOL     OW15001   2.423   3.529   5.807 -0.3679 -0.1772 -0.8095
 1041SOL    HW115002   2.430   3.569   5.720 -2.4520 -0.7111 -1.2245
 1041SOL    HW215003   2.465   3.591   5.865 -0.6312  1.0729 -1.9405
 1042SOL     OW15004   3.042   0.520   4.590 -0.0228  0.3283  0.1916
 1042SOL    HW115005   3.098   0.534   4.667  0.4557 -1.8388  0.2532
 1042SOL    HW215006   3.102   0.488   4.523 -0.8000  0.2314 -0.4559
 1043SOL     OW15007   2.421   3.660  19.340  0.1881  0.4897 -0.3364
 1043SOL    HW115008   2.432   3.586  19.400 -0.0100  0.2224 -0.6258
 1043SOL    HW215009   2.422   3.737  19.396 -2.5579  0.0649  0.2618
 1044SOL     OW15010   3.908   1.958   1.439  0.3515 -0.2990 -0.3608
 1044SOL    HW115011   3.996   1.930   1.465 -0.8360 -2.9764  0.7179
 1044SOL    HW215012   3.916   1.978   1.346  2.6094  1.4422  0.2088
 1045SOL     OW15013   0.201   4.166   4.275  0.1334  0.4396  0.3891
 1045SOL    HW115014   0.144   4.209   4.210 -1.8602 -0.6931  1.3683
 1045SOL    HW215015   0.260   4.235   4.304  0.5294  1.1606 -2.0691
 1046SOL     OW15016   0.052   1.288  14.752 -0.3055  0.5179 -0.4973
 1046SOL    HW115017   0.078   1.327  14.836 -0.1097 -0.0905 -0.2744
 1046SOL    HW215018   4.734   1.305  14.745 -0.2895  0.7087 -0.2281
 1047SOL     OW15019   3.328   2.091  20.478 -0.6639  0.7633  0.4823
 1047SOL    HW115020   3.368   2.008  20.453 -0.8598  0.5485  0.8744
 1047SOL    HW215021   3.252   2.065  20.531 -2.2869  1.1229 -1.6886
 1048SOL     OW15022   3.980   0.262   5.783  0.1663 -0.1038  0.1051
 1048SOL    HW115023   3.965   0.333   5.721 -0.8613 -1.3741 -1.0952
 1048SOL    HW215024   4.026   0.304   5.856 -1.6777  2.0836  0.0342
 1049SOL     OW15025   2.414   4.448  18.797  0.5670  0.0672 -0.4703
 1049SOL    HW115026   2.364   4.470  18.719 -3.5763  2.3030  2.8075
 1049SOL    HW215027   2.476   4.520  18.808  0.1649  0.4738 -0.8865
 1050SOL     OW15028   1.024   0.319  19.081 -0.3199 -0.0146 -0.1556
 1050SOL    HW115029   1.011   0.328  18.986  0.6501  0.4829 -0.2318
 1050SOL    HW215030   1.108   0.361  19.098 -1.5475  1.8448  1.2572
 1051SOL     OW15031   4.393   2.619   8.721  0.6154 -0.8402  0.1017
 1051SOL    HW115032   4.398   2.591   8.812 -2.2000 -1.2013  0.1419
 1051SOL    HW215033   4.324   2.565   8.682 -0.3298  1.4659 -1.4676
 1052SOL     OW15034   2.547   4.177   2.458  0.2720 -0.0540  0.0202
 1052SOL    HW115035   2.561   4.082   2.468 -2.6459 -0.5049  0.0660
 1052SOL    HW215036   2.571   4.195   2.367  0.2377 -0.9542 -0.1701
 1053SOL     OW15037   2.258   2.129   7.241 -0.1702 -0.0630  0.1262
 1053SOL    HW115038   2.339   2.078   7.251  0.6005  0.6465 -2.4181
 1053SOL    HW215039   2.189   2.071   7.272  0.8040 -2.3148 -1.9552
 1054SOL     OW15040   2.280   4.282  20.100  0.1284  0.2264  0.1467
 1054SOL    HW115041   2.259   4.316  20.187 -0.2057 -0.0300  0.1689
 1054SOL    HW215042   2.195   4.273  20.056 -0.1315 -4.2581  1.5360
 1055SOL     OW15043   1.140   1.294   7.325 -0.0005  0.2672 -0.1663
 1055SOL    HW115044   1.179   1.377   7.351  3.8173 -0.5562 -3.1214
 1055SOL    HW215045   1.091   1.315   7.245  0.9290 -0.3028 -0.8875
 1056SOL     OW15046   1.710   0.260  15.133  0.4004 -0.0827  0.1235
 1056SOL    HW115047   1.710   0.171  15.099  1.0889 -0.5907  1.4520
 1056SOL    HW215048   1.762   0.255  15.214  1.0593  1.6560 -0.1910
 1057SOL     OW15049   3.650   0.629  16.746 -0.2805  0.0435 -0.4535
 1057SOL    HW115050   3.667   0.569  16.673  0.3537  0.1563 -0.4001
 1057SOL    HW215051   3.556   0.645  16.743 -0.0798  0.9071 -1.9171
 1058SOL     OW15052   2.863   3.245  19.922  0.6502  0.0391 -0.4531
 1058SOL    HW115053   2.876   3.297  20.001  0.8172 -2.2260  1.0186
 1058SOL    HW215054   2.912   3.164  19.938  0.3668 -0.5895 -2.7147
 1059SOL     OW15055   1.195   1.140  15.775  0.7642 -0.5830  0.0922
 1059SOL    HW115056   1.190   1.205  15.704 -0.8239 -1.1659 -0.3377
 1059SOL    HW215057   1.261   1.078  15.745  0.3954 -0.5984 -0.6922
 1060SOL     OW15058   2.263   2.096   7.596  0.1138  0.1384 -0.6083
 1060SOL    HW115059   2.325   2.069   7.529 -0.5131  0.4270 -1.3067
 1060SOL    HW215060   2.231   2.014   7.634  2.4743  0.0454  1.1817
 1061SOL     OW15061   2.162   1.798  12.230  0.2020 -0.0503  0.3277
 1061SOL    HW115062   2.121   1.884  12.240 -0.4563 -0.3782  0.4694
 1061SOL    HW215063   2.135   1.749  12.307  0.1466 -0.5587 -0.0106
 1062SOL     OW15064   0.767   2.872  18.287  0.5947  0.0042 -0.3229
 1062SOL    HW115065   0.853   2.845  18.319  0.5045  0.2323  0.1136
 1062SOL    HW215066   0.778   2.964  18.262  0.1523  0.4021  0.9350
 1063SOL     OW15067   3.708   1.147   4.420  0.0005  0.5062 -0.5233
 1063SOL    HW115068   3.639   1.108   4.474  2.4904 -1.7643  1.0058
 1063SOL    HW215069   3.709   1.239   4.446 -0.8324  0.0444  1.1789
 1064SOL     OW15070   2.461   4.773   3.662  1.1147 -0.0991 -0.1847
 1064SOL    HW115071   2.460   4.771   3.758 -1.5020  0.1026 -0.2154
 1064SOL    HW215072   2.490   4.685   3.637 -1.3452 -1.1711  0.7282
 1065SOL     OW15073   1.285   0.736  15.013  0.1461 -0.1303  0.0345
 1065SOL    HW115074   1.198   0.699  15.022 -0.4491  1.0346 -0.9205
 1065SOL    HW215075   1.295   0.750  14.918  1.0585  0.4739  0.2231
 1066SOL     OW15076   3.177   4.286  12.104  0.2314 -0.2508 -1.3315
 1066SOL    HW115077   3.104   4.243  12.059  0.4345 -0.2535 -1.6552
 1066SOL    HW215078   3.231   4.323  12.034 -0.3679  1.2137 -1.0291
 1067SOL     OW15079   1.199   2.266   2.204  0.0527 -0.1496  0.0828
 1067SOL    HW115080   1.110   2.269   2.239  0.2103  0.2475  0.4529
 1067SOL    HW215081   1.210   2.176   2.174  0.3289 -0.8127  2.1742
 1068SOL     OW15082   1.594   0.088  18.184  0.0287  0.0684 -0.3356
 1068SOL    HW115083   1.684   0.104  18.213 -0.1098 -1.1374  0.7640
 1068SOL    HW215084   1.603   0.033  18.107  0.2078 -0.4292  0.0440
 1069SOL     OW15085   4.380   0.105   4.551  0.2365  0.1541 -0.0421
 1069SOL    HW115086   4.367   0.034   4.613 -0.3456  0.3613  0.0682
 1069SOL    HW215087   4.321   0.085   4.479  1.5512 -0.5600 -0.9317
 1070SOL     OW15088   0.282   0.518  16.620  0.0070  0.1770  0.4412
 1070SOL    HW115089   0.272   0.458  16.694  0.3416  1.3635  1.4487
 1070SOL    HW215090   0.227   0.593  16.642 -0.8865 -0.0266 -1.0970
 1071SOL     OW15091   3.245   4.330   5.050  0.7783  0.0236 -0.0780
 1071SOL    HW115092   3.249   4.422   5.076  0.0113  0.3151 -1.0049
 1071SOL    HW215093   3.179   4.292   5.109  1.3531 -0.0128  0.5445
 1072SOL     OW15094   0.605   1.078  21.195 -0.3355  0.3417  0.1618
 1072SOL    HW115095   0.595   0.991  21.156  3.0638  0.0939 -0.1830
 1072SOL    HW215096   0.621   1.136  21.121  1.4430  0.6069  0.7369
 1073SOL     OW15097   0.317   1.922  16.134 -0.0244 -0.2228 -0.0917
 1073SOL    HW115098   0.240   1.878  16.171  0.2679 -1.0969 -0.5161
 1073SOL    HW215099   0.387   1.902  16.195  0.0830 -0.2312 -0.2190
 1074SOL     OW15100   1.744   1.942   4.839 -0.6354 -0.4080 -0.3206
 1074SOL    HW115101   1.802   1.909   4.771 -0.5972 -0.7964 -0.0976
 1074SOL    HW215102   1.784   2.025   4.866 -1.1538  0.1919 -1.4137
 1075SOL     OW15103   3.515   3.937  18.155 -0.2515 -0.2471 -0.0547
 1075SOL    HW115104   3.479   3.850  18.174 -0.6184 -0.0378  0.1914
 1075SOL    HW215105   3.492   3.952  18.063 -1.0607  0.0218  0.1933
 1076SOL     OW15106   3.550   2.058   2.013 -0.0278 -0.1644 -0.5257
 1076SOL    HW115107   3.609   2.092   1.946  0.1711  1.2960  0.3920
 1076SOL    HW215108   3.462   2.069   1.975  0.1547 -0.4169 -1.0264
 1077SOL     OW15109   4.229   2.761   3.561  0.1922  0.2640  0.2032
 1077SOL    HW115110   4.264   2.753   3.650 -0.5971 -2.5973  0.2730
 1077SOL    HW215111   4.284   2.703   3.509 -2.3405 -1.6949 -0.3019
 1078SOL     OW15112   3.303   3.470   4.091  0.4177  0.1255  0.0883
 1078SOL    HW115113   3.216   3.485   4.127 -0.9302 -0.8191 -2.7797
 1078SOL    HW215114   3.361   3.472   4.167 -1.8618  2.7473  1.7610
 1079SOL     OW15115   2.154   3.708  13.510  0.8608  0.5722 -0.1399
 1079SOL    HW115116   2.103   3.770  13.458 -0.5971  0.4248  1.0989
 1079SOL    HW215117   2.169   3.633  13.453  0.3122  0.9299 -0.7423
 1080SOL     OW15118   2.143   1.816  17.738 -0.6023 -0.5229 -0.7580
 1080SOL    HW115119   2.066   1.823  17.794 -1.0217 -0.9934 -1.2777
 1080SOL    HW215120   2.194   1.895  17.757 -1.3780 -0.0469 -0.6617
 1081SOL     OW15121   0.484   4.495  20.299 -0.4690 -0.1887 -0.2046
 1081SOL    HW115122   0.515   4.404  20.294 -1.4911 -0.4961 -1.0258
 1081SOL    HW215123   0.564   4.547  20.308  0.1457 -1.1396 -0.1514
 1082SOL     OW15124   0.356   4.002  20.145  0.2646  0.9477  0.2129
 1082SOL    HW115125   0.407   4.028  20.068  1.4554  0.7183  0.9271
 1082SOL    HW215126   0.373   3.909  20.154 -1.9621  0.4352 -0.8022
 1083SOL     OW15127   3.627   4.129   2.753 -0.8476 -0.7368 -0.0258
 1083SOL    HW115128   3.718   4.101   2.760 -0.8236 -0.7786 -0.4774
 1083SOL    HW215129   3.580   4.076   2.816 -0.1967  0.8766  1.8239
 1084SOL     OW15130   0.376   3.203  19.957  0.1382  0.1821 -0.3490
 1084SOL    HW115131   0.322   3.166  20.027  0.4734 -1.2125 -0.8394
 1084SOL    HW215132   0.388   3.132  19.894  0.7790  1.1044 -1.2827
 1085SOL     OW15133   4.645   1.544  11.124  0.2513 -0.1636 -0.0511
 1085SOL    HW115134   4.681   1.517  11.209 -0.2032  2.0885  0.8625
 1085SOL    HW215135   4.551   1.551  11.139  0.0146 -1.1113 -1.1095
 1086SOL     OW15136   3.454   1.924   3.949 -0.0286  0.0299  0.2760
 1086SOL    HW115137   3.427   1.988   4.015  1.2659  0.4009  0.4397
 1086SOL    HW215138   3.545   1.946   3.929  0.0458 -1.0040 -0.5455
 1087SOL     OW15139   4.261   4.694   4.060  0.1577 -0.0124  0.0174
 1087SOL    HW115140   4.178   4.741   4.055 -0.5042 -1.2097 -0.3047
 1087SOL    HW215141   4.324   4.752   4.017 -0.3973  1.1422  0.7648
 1088SOL     OW15142   1.596   4.738  19.453  0.2520 -0.1116 -0.0586
 1088SOL    HW115143   1.684   4.701  19.447  0.2162 -0.1051 -0.6033
 1088SOL    HW215144   1.573   4.732  19.546  0.8943  0.0446  0.1058
 1089SOL     OW15145   0.426   2.897   0.653  0.0068  0.1093 -0.1567
 1089SOL    HW115146   0.471   2.921   0.734  1.7865  2.3533 -1.8465
 1089SOL    HW215147   0.358   2.964   0.642 -0.7152 -0.6123 -0.1533
 1090SOL     OW15148   0.500   4.009  21.116  0.0214 -0.3807  0.0733
 1090SOL    HW115149   0.490   3.951  21.191  1.2653 -2.3437 -1.2505
 1090SOL    HW215150   0.461   3.960  21.043  0.0525  0.9182 -0.8150
 1091SOL     OW15151   1.485   1.742  20.874  0.3638  0.3088  0.0834
 1091SOL    HW115152   1.468   1.674  20.808  1.7340  0.3962 -0.3589
 1091SOL    HW215153   1.398   1.764  20.908 -0.2693 -0.3149 -1.1177
 1092SOL     OW15154   4.253   2.666  11.735 -0.0428  0.1122 -0.3765
 1092SOL    HW115155   4.253   2.751  11.692 -0.5991  0.1144 -0.3721
 1092SOL    HW215156   4.301   2.679  11.816 -0.2941  0.4647 -0.2878
 1093SOL     OW15157   3.206   1.648   4.228  0.2485 -0.0046  0.0139
 1093SOL    HW115158   3.116   1.618   4.237  0.9237 -1.4730  1.8051
 1093SOL    HW215159   3.206   1.699   4.147 -2.3992  0.8259  0.5505
 1094SOL     OW15160   3.373   2.266   8.121 -0.3116 -0.5657 -0.3866
 1094SOL    HW115161   3.440   2.309   8.068  0.9276 -1.1664  0.6843
 1094SOL    HW215162   3.290   2.300   8.088  0.5511  0.5368 -1.4028
 1095SOL     OW15163   0.016   0.692  17.726  0.2987  0.3300  0.4273
 1095SOL    HW115164   0.084   0.759  17.723  0.7861 -0.0935  2.1670
 1095SOL    HW215165   0.064   0.609  17.729 -0.2988 -0.0773 -1.2001
 1096SOL     OW15166   2.173   4.163   2.408  0.1069  0.5294  0.0832
 1096SOL    HW115167   2.192   4.177   2.501  1.5650  0.3670 -0.1994
 1096SOL    HW215168   2.251   4.120   2.374 -0.6774  0.0638 -1.0891
 1097SOL     OW15169   3.501   4.264  13.660  0.2849 -0.0800  0.3184
 1097SOL    HW115170   3.413   4.231  13.647 -0.2173  1.6776 -0.7181
 1097SOL    HW215171   3.539   4.267  13.573  0.6362  1.2407  0.5171
 1098SOL     OW15172   0.596   3.015  21.187 -0.4773 -0.6968 -0.4577
 1098SOL    HW115173   0.567   2.925   0.007 -0.5803 -0.6446 -0.3561
 1098SOL    HW215174   0.525   3.070   0.025  0.9445 -0.5236  2.1418
 1099SOL     OW15175   2.973   4.171  11.925 -0.1841  0.3858  0.0017
 1099SOL    HW115176   2.899   4.229  11.944 -1.9035 -1.6214 -0.5172
 1099SOL    HW215177   2.993   4.188  11.833  0.6133  1.6103  0.3950
 1100SOL     OW15178   4.435   1.419   4.171  0.1337 -0.5046 -0.8911
 1100SOL    HW115179   4.393   1.336   4.192 -0.3620 -0.1975 -0.6531
 1100SOL    HW215180   4.375   1.461   4.110 -0.2546  0.2437 -0.0044
 1101SOL     OW15181   2.130   1.349   0.084 -0.0793 -0.0122 -0.4305
 1101SOL    HW115182   2.060   1.376   0.025  0.3124 -0.6620 -1.1909
 1101SOL    HW215183   2.141   1.255   0.068  1.7977  0.3419 -1.1958
 1102SOL     OW15184   2.620   0.465   6.281  0.1888  0.5563  0.4966
 1102SOL    HW115185   2.592   0.387   6.233  0.8104  0.0481  0.9503
 1102SOL    HW215186   2.688   0.433   6.341  1.1075  1.6231  0.0196
 1103SOL     OW15187   2.051   0.827  17.841 -0.1741 -0.5736 -0.4519
 1103SOL    HW115188   1.974   0.860  17.887  0.4721  1.6713 -1.0040
 1103SOL    HW215189   2.089   0.762  17.900 -0.9365  0.2929  0.9700
 1104SOL     OW15190   1.468   2.914   4.883  0.6787 -0.0261 -0.2145
 1104SOL    HW115191   1.490   2.969   4.957 -0.4977  0.6953 -0.4002
 1104SOL    HW215192   1.428   2.835   4.921 -2.0256  1.3381 -0.1892
 1105SOL     OW15193   4.249   0.061  17.424  0.0950  0.3977 -0.7605
 1105SOL    HW115194   4.177   0.123  17.435  0.2570  0.1016  1.8582
 1105SOL    HW215195   4.272   0.067  17.331 -0.6117  3.4373 -0.7120
 1106SOL     OW15196   4.337   2.829  17.641 -0.1344  0.9089 -0.0574
 1106SOL    HW115197   4.336   2.764  17.711 -1.0613  2.4158  1.3126
 1106SOL    HW215198   4.293   2.906  17.677  2.7822  3.0559 -0.9665
 1107SOL     OW15199   1.508   0.369  19.887  0.3514 -0.1927 -0.4793
 1107SOL    HW115200   1.464   0.454  19.887 -0.7808 -0.7803 -2.0211
 1107SOL    HW215201   1.509   0.342  19.979 -2.8329 -0.3526 -0.4773
 1108SOL     OW15202   4.400   0.889   9.902 -0.0844  0.4941  0.0280
 1108SOL    HW115203   4.322   0.855   9.947 -0.0790  1.1352  0.5191
 1108SOL    HW215204   4.392   0.856   9.813 -0.7957  0.3539  0.1415
 1109SOL     OW15205   3.150   3.696  18.880 -0.0167  0.2213  0.6343
 1109SOL    HW115206   3.077   3.637  18.859  0.0670  0.0500  0.8291
 1109SOL    HW215207   3.109   3.773  18.919  0.2321 -1.4073  4.0252
 1110SOL     OW15208   3.654   2.692  18.434 -0.1473  0.3766 -0.3031
 1110SOL    HW115209   3.737   2.736  18.452 -1.2649  2.0070  0.8986
 1110SOL    HW215210   3.603   2.757  18.385 -1.3615 -0.0174  0.4582
 1111SOL     OW15211   0.488   3.925   9.951 -0.0283 -0.6462  0.1869
 1111SOL    HW115212   0.471   3.889   9.864  0.8981 -0.0938 -0.2254
 1111SOL    HW215213   0.507   4.017   9.936  3.7424 -1.3425  0.5862
 1112SOL     OW15214   1.657   0.708  18.458 -0.3360 -0.2148  0.0674
 1112SOL    HW115215   1.584   0.677  18.405 -0.8700 -0.6958  1.0735
 1112SOL    HW215216   1.716   0.633  18.465 -0.0796 -0.0369 -0.1624
 1113SOL     OW15217   2.736   1.898  14.850  0.4546  0.2511 -0.3261
 1113SOL    HW115218   2.805   1.907  14.784  2.6931 -1.1670  1.8622
 1113SOL    HW215219   2.700   1.987  14.859  1.5030  0.8343 -1.9588
 1114SOL     OW15220   0.673   3.967  11.404 -0.8797  0.2746 -0.2041
 1114SOL    HW115221   0.591   3.968  11.354 -2.6644 -1.8828  2.6614
 1114SOL    HW215222   0.706   3.878  11.393 -1.9426 -0.5936  3.5299
 1115SOL     OW15223   2.251   0.890  18.835  0.4835 -0.1013  0.3810
 1115SOL    HW115224   2.343   0.885  18.861  0.4236  1.4492  0.8715
 1115SOL    HW215225   2.216   0.965  18.884 -0.8672 -0.2746 -0.3196
 1116SOL     OW15226   4.675   4.162   6.915  0.2973 -0.8423  0.0645
 1116SOL    HW115227   4.637   4.146   6.828  1.4818 -0.2188 -0.5699
 1116SOL    HW215228   4.604   4.205   6.964 -1.0046 -2.9743  0.0215
 1117SOL     OW15229   4.759   2.842   5.569  0.2443  0.1259  0.6532
 1117SOL    HW115230   0.048   2.860   5.636  0.2075  0.4454  0.5999
 1117SOL    HW215231   0.001   2.752   5.542 -0.8433 -0.6006  2.3324
 1118SOL     OW15232   3.746   0.867  19.362 -0.6934 -0.0948  0.4413
 1118SOL    HW115233   3.736   0.781  19.401  0.0968  0.1494  1.1878
 1118SOL    HW215234   3.766   0.850  19.270  0.1803 -0.7235  0.7451
 1119SOL     OW15235   0.855   2.348   4.864  0.6070 -0.0974  0.2694
 1119SOL    HW115236   0.927   2.310   4.816 -2.1682 -2.8386 -1.7096
 1119SOL    HW215237   0.842   2.289   4.939  1.6650  1.4183  1.6412
 1120SOL     OW15238   2.066   4.641   1.668  0.1036 -0.3623  0.1664
 1120SOL    HW115239   2.012   4.648   1.747  0.8825  0.2483  0.6488
 1120SOL    HW215240   2.004   4.650   1.596 -0.4359  0.4325  0.7235
 1121SOL     OW15241   3.066   0.677  18.565  0.7455  0.3326  0.2297
 1121SOL    HW115242   3.082   0.621  18.641 -0.2946  0.2535  0.3909
 1121SOL    HW215243   3.099   0.763  18.590  0.5272  0.2721  0.7233
 1122SOL     OW15244   1.851   1.172  12.505  0.4241 -0.4680 -0.0471
 1122SOL    HW115245   1.757   1.189  12.512  0.6581  0.4474  0.8657
 1122SOL    HW215246   1.882   1.236  12.441  0.2325 -1.4667 -1.1228
 1123SOL     OW15247   1.720   4.132  20.017  0.0278  0.0142  0.4363
 1123SOL    HW115248   1.650   4.192  20.044 -1.6303 -1.7228 -0.0241
 1123SOL    HW215249   1.756   4.172  19.938  0.4961  1.6569  1.4839
 1124SOL     OW15250   0.023   2.453  16.760 -0.0294  0.3664  1.0135
 1124SOL    HW115251   4.766   2.364  16.776  1.1735 -0.5057 -1.3346
 1124SOL    HW215252   0.115   2.450  16.787  0.7954  0.1005 -1.8461
 1125SOL     OW15253   0.505   0.046  12.605 -0.1291 -0.0829  0.2521
 1125SOL    HW115254   0.574   0.057  12.670 -0.7434 -1.4064  1.1419
 1125SOL    HW215255   0.429   0.017  12.656 -0.2996 -2.1767 -1.2127
 1126SOL     OW15256   0.282   3.501   0.046  0.1006  0.4501 -0.1072
 1126SOL    HW115257   0.272   3.414   0.010 -0.6640  0.2511  0.5827
 1126SOL    HW215258   0.195   3.541   0.038  0.2185  0.8191  0.4219
 1127SOL     OW15259   1.904   1.696  15.706  0.2278 -0.1756  0.2168
 1127SOL    HW115260   1.904   1.750  15.628 -0.9887 -1.3601 -0.6080
 1127SOL    HW215261   1.996   1.693  15.734  0.8430 -0.7475 -1.8432
 1128SOL     OW15262   4.618   0.996   6.997 -0.1682 -0.2126  0.0876
 1128SOL    HW115263   4.582   0.975   7.083 -1.7294 -0.6215 -0.6570
 1128SOL    HW215264   4.658   1.082   7.007 -0.1924 -0.3406  1.2605
 1129SOL     OW15265   1.830   4.252  16.249  0.0916  0.1767 -0.2727
 1129SOL    HW115266   1.819   4.310  16.324 -0.0835  0.7303 -0.7210
 1129SOL    HW215267   1.897   4.189  16.275  1.5974  1.7245 -0.4873
 1130SOL     OW15268   4.511   4.025  20.594  0.3731 -0.2886  0.4769
 1130SOL    HW115269   4.545   4.074  20.519 -1.8034  0.5918  0.0383
 1130SOL    HW215270   4.508   3.934  20.565  1.0948 -0.1840  0.0762
 1131SOL     OW15271   4.053   4.265   3.127 -0.6538 -0.0818  0.0212
 1131SOL    HW115272   4.138   4.224   3.141 -0.4339  0.4371  0.1992
 1131SOL    HW215273   4.069   4.329   3.057 -0.9664 -0.2160 -0.1697
 1132SOL     OW15274   0.596   2.512  19.717 -0.4401  0.1637 -0.0276
 1132SOL    HW115275   0.553   2.548  19.794  0.3534 -0.2060  0.5984
 1132SOL    HW215276   0.639   2.432  19.750  0.4416  0.3661 -0.7084
 1133SOL     OW15277   3.657   2.848   0.805 -0.0798 -0.0159 -0.0316
 1133SOL    HW115278   3.696   2.929   0.773  1.1699  0.1071  1.7944
 1133SOL    HW215279   3.610   2.873   0.884 -1.4053 -0.6970 -0.6068
 1134SOL     OW15280   3.884   2.813  19.567 -0.1481 -0.1350 -0.2029
 1134SOL    HW115281   3.799   2.779  19.541 -0.5840  1.1381 -0.4426
 1134SOL    HW215282   3.905   2.766  19.648 -0.5446 -1.2741 -0.7556
 1135SOL     OW15283   0.445   4.187   3.634 -0.5149 -0.2540 -0.3299
 1135SOL    HW115284   0.395   4.148   3.705  1.0943 -0.6830  0.5683
 1135SOL    HW215285   0.382   4.196   3.563 -1.9266 -0.5961  0.8614
 1136SOL     OW15286   3.855   4.045   3.666 -0.4877  0.5355  0.3901
 1136SOL    HW115287   3.774   4.009   3.702 -1.0499  1.9903  0.5945
 1136SOL    HW215288   3.830   4.080   3.580 -0.1038  1.0528  0.4870
 1137SOL     OW15289   0.469   3.692   5.636  0.1660  0.2886  0.7198
 1137SOL    HW115290   0.401   3.655   5.579  0.6630  0.2562  0.1511
 1137SOL    HW215291   0.453   3.786   5.636  0.7034  0.3726 -0.1552
 1138SOL     OW15292   1.748   1.440  15.333  0.3590  0.5203  0.4702
 1138SOL    HW115293   1.836   1.463  15.363  1.5402 -1.0525 -1.8870
 1138SOL    HW215294   1.719   1.516  15.282  0.1523  1.2387  1.6521
 1139SOL     OW15295   2.873   4.648   0.556 -0.6945 -0.0113  0.0717
 1139SOL    HW115296   2.910   4.632   0.469 -0.7568 -0.3380  0.1034
 1139SOL    HW215297   2.814   4.722   0.544  2.2588  2.4395  0.6479
 1140SOL     OW15298   1.591   0.923  20.071  0.2922 -0.1933 -0.1417
 1140SOL    HW115299   1.587   0.969  20.155  0.8147  0.8609 -0.6902
 1140SOL    HW215300   1.675   0.949  20.033 -0.4654  0.2745 -1.5252
 1141SOL     OW15301   3.763   4.746  18.889  0.3190 -0.0871  0.2370
 1141SOL    HW115302   3.739   4.678  18.951 -0.7049  0.6295  0.6450
 1141SOL    HW215303   3.853   4.769  18.911  0.5182 -1.0151  0.3676
 1142SOL     OW15304   0.544   0.522  19.069 -0.2949  0.3594 -0.3147
 1142SOL    HW115305   0.624   0.480  19.101 -0.8291 -0.2197  0.2497
 1142SOL    HW215306   0.568   0.554  18.982  0.1650 -1.0003 -0.6997
 1143SOL     OW15307   1.237   3.138  18.882 -0.2036 -0.7659 -0.2716
 1143SOL    HW115308   1.320   3.123  18.836  0.8686  1.8846  0.7849
 1143SOL    HW215309   1.245   3.089  18.963  0.4615 -0.2457 -0.0227
 1144SOL     OW15310   0.316   2.049   3.544  0.0838  0.2098 -0.6753
 1144SOL    HW115311   0.275   1.963   3.558 -0.9249  0.4329 -2.2347
 1144SOL    HW215312   0.272   2.107   3.606  0.9120 -0.4478  0.5288
 1145SOL     OW15313   4.346   1.547   8.783  0.2279 -0.0379 -0.4718
 1145SOL    HW115314   4.405   1.473   8.798 -0.7173 -0.4306  1.3350
 1145SOL    HW215315   4.313   1.569   8.870 -0.3921  1.7578 -1.1662
 1146SOL     OW15316   2.759   3.558  12.122  0.4984 -0.3248 -0.6358
 1146SOL    HW115317   2.704   3.560  12.043  0.6830 -2.3702 -0.8280
 1146SOL    HW215318   2.845   3.532  12.090  0.8569  0.0186  0.0641
 1147SOL     OW15319   3.571   2.392   5.758 -0.1822 -0.4169  0.1507
 1147SOL    HW115320   3.535   2.313   5.719 -0.4812 -0.3362  0.2633
 1147SOL    HW215321   3.635   2.361   5.822 -1.3180 -0.5932  1.1919
 1148SOL     OW15322   2.019   1.199   2.785  0.5667 -0.1232 -0.4325
 1148SOL    HW115323   2.056   1.136   2.848 -0.6649 -0.5093 -0.0896
 1148SOL    HW215324   2.087   1.265   2.775  1.0721 -0.4516  0.7495
 1149SOL     OW15325   3.005   0.237   4.871  0.5967  0.0036  0.3661
 1149SOL    HW115326   2.945   0.181   4.920  1.4063  0.5098  1.9448
 1149SOL    HW215327   2.958   0.320   4.863  1.4641  0.7087  2.4427
 1150SOL     OW15328   2.632   3.713  16.487  0.1026  0.3999  0.1759
 1150SOL    HW115329   2.649   3.657  16.563 -0.3362  1.7638  1.2800
 1150SOL    HW215330   2.699   3.689  16.423  0.1815 -1.0812  0.8107
 1151SOL     OW15331   1.982   2.491   5.223  0.2306 -0.1559 -0.0659
 1151SOL    HW115332   1.991   2.552   5.296  0.5535  2.7120 -2.5145
 1151SOL    HW215333   2.055   2.430   5.234  0.3255  0.3090  1.9642
 1152SOL     OW15334   2.939   1.858  14.171  0.3659 -0.0236  0.3202
 1152SOL    HW115335   2.947   1.948  14.142  0.2122  0.1970  0.9464
 1152SOL    HW215336   2.954   1.805  14.093 -0.7145  0.5715 -0.2977
 1153SOL     OW15337   2.777   2.418  19.894  0.0989 -0.2274 -0.5589
 1153SOL    HW115338   2.700   2.458  19.856  1.0185  1.6102 -0.4710
 1153SOL    HW215339   2.748   2.383  19.978 -0.0988  2.4020  0.4591
 1154SOL     OW15340   4.064   1.865  17.532 -0.1659  0.1853  0.1112
 1154SOL    HW115341   4.058   1.961  17.536 -1.9826  0.2051 -2.4249
 1154SOL    HW215342   4.080   1.847  17.440  0.0956 -1.9672  0.5975
 1155SOL     OW15343   4.299   4.759   5.167  1.0338 -0.1587  0.0071
 1155SOL    HW115344   4.212   4.724   5.184  1.1640 -0.9031 -0.9194
 1155SOL    HW215345   4.283   0.072   5.134  0.6220 -0.4991 -0.6904
 1156SOL     OW15346   4.588   1.110   0.792  0.1007  0.4322  0.2415
 1156SOL    HW115347   4.675   1.076   0.812  0.5582  0.3616 -1.8209
 1156SOL    HW215348   4.587   1.197   0.830  0.8007  0.1309  0.9578
 1157SOL     OW15349   2.249   0.084   5.748 -0.1749 -0.6313  0.0295
 1157SOL    HW115350   2.211   0.008   5.790  0.5473 -0.1905  1.4922
 1157SOL    HW215351   2.201   0.158   5.784  0.0264 -0.2978 -0.3822
 1158SOL     OW15352   2.200   2.448  14.722 -0.2941  0.4347 -0.1603
 1158SOL    HW115353   2.213   2.406  14.807  1.2721  0.3343 -0.4438
 1158SOL    HW215354   2.170   2.537  14.744 -0.1359  0.3299  0.4935
 1159SOL     OW15355   1.298   2.376   2.986 -0.1791 -0.2417  0.1267
 1159SOL    HW115356   1.319   2.468   3.004  0.5212 -0.0502 -1.6234
 1159SOL    HW215357   1.238   2.379   2.911  0.6422 -1.2586 -0.5744
 1160SOL     OW15358   3.955   3.276   0.484  0.3654  1.1777 -0.2393
 1160SOL    HW115359   4.033   3.280   0.539  1.8297  2.1466 -2.3697
 1160SOL    HW215360   3.944   3.183   0.465  0.6455  0.9770  0.5807
 1161SOL     OW15361   3.661   1.417  20.621 -0.1276  0.8296 -0.2478
 1161SOL    HW115362   3.568   1.407  20.637 -0.3773  2.3810 -0.6956
 1161SOL    HW215363   3.698   1.443  20.706  0.3037 -2.4922  0.5691
 1162SOL     OW15364   4.445   1.457   0.367 -0.1275  0.2061 -0.0622
 1162SOL    HW115365   4.353   1.463   0.392 -0.1820  0.4079 -0.3123
 1162SOL    HW215366   4.465   1.540   0.325  0.5120  0.6407  1.1039
 1163SOL     OW15367   2.359   3.498   3.957 -1.1904  0.6324 -0.8162
 1163SOL    HW115368   2.383   3.438   3.885 -1.4351 -1.7965  1.1402
 1163SOL    HW215369   2.421   3.570   3.948 -1.1456  0.2982 -3.4320
 1164SOL     OW15370   1.321   0.608   7.243 -0.1216 -0.3900  0.2374
 1164SOL    HW115371   1.386   0.606   7.173 -1.1060  0.0375 -0.6834
 1164SOL    HW215372   1.256   0.543   7.217 -1.4003  1.0301 -0.1261
 1165SOL     OW15373   3.476   3.795   1.161  0.1662 -0.6731 -0.1628
 1165SOL    HW115374   3.387   3.764   1.172 -0.5114  1.2286 -0.2515
 1165SOL    HW215375   3.471   3.859   1.090  1.1536  1.2108  1.4486
 1166SOL     OW15376   1.686   4.753  20.438  0.2892  0.3469  0.1377
 1166SOL    HW115377   1.721   0.058  20.476  3.0600  0.3936 -2.4967
 1166SOL    HW215378   1.749   4.686  20.464  0.6760 -0.1069 -1.9865
 1167SOL     OW15379   4.529   0.265  17.478 -0.1396 -0.1444 -0.1224
 1167SOL    HW115380   4.590   0.316  17.425 -0.7508  1.0961  0.3508
 1167SOL    HW215381   4.442   0.295  17.450 -0.5157 -1.7560 -0.6549
 1168SOL     OW15382   0.644   3.687   8.678  0.2898  0.4399  0.1748
 1168SOL    HW115383   0.614   3.776   8.662 -1.0365 -0.3151 -1.5874
 1168SOL    HW215384   0.618   3.668   8.768 -1.2285  1.1035 -0.1241
 1169SOL     OW15385   2.914   2.261   9.073 -0.3853 -0.1487 -0.3963
 1169SOL    HW115386   2.870   2.335   9.030 -1.5769 -0.5972  0.0505
 1169SOL    HW215387   2.910   2.282   9.166  0.1570 -0.2984 -0.3414
 1170SOL     OW15388   1.630   3.947   0.543 -0.3187 -0.2244  0.5340
 1170SOL    HW115389   1.599   3.908   0.624 -0.4203 -0.5265  0.3489
 1170SOL    HW215390   1.723   3.965   0.559 -0.1575 -1.0016  0.4383
 1171SOL     OW15391   2.937   4.123   6.862  0.1703 -0.3282 -0.1894
 1171SOL    HW115392   3.022   4.120   6.818  0.5620  0.8259  0.4968
 1171SOL    HW215393   2.914   4.031   6.877  2.4086 -0.5613  1.7969
 1172SOL     OW15394   0.406   0.104  18.253  0.3946 -0.2570 -0.3333
 1172SOL    HW115395   0.482   0.053  18.223  0.4139  0.6735 -1.8424
 1172SOL    HW215396   0.423   0.193  18.221  0.3220  0.6867  2.2402
 1173SOL     OW15397   4.239   4.553   1.849 -0.0762  0.0103 -0.0517
 1173SOL    HW115398   4.211   4.623   1.909 -0.4899 -0.0016 -0.2247
 1173SOL    HW215399   4.327   4.530   1.877 -0.6549 -0.6931  1.1917
 1174SOL     OW15400   1.830   1.475  17.816 -0.3725 -0.1244  0.2839
 1174SOL    HW115401   1.750   1.452  17.770 -1.4939  0.2617  2.0728
 1174SOL    HW215402   1.807   1.550  17.870  1.3777  0.4647  0.2349
 1175SOL     OW15403   1.993   2.685   2.359  0.2019  0.0937 -0.1119
 1175SOL    HW115404   1.947   2.744   2.299  0.9604 -0.7838 -1.5381
 1175SOL    HW215405   2.067   2.737   2.392  0.0732  0.4042 -0.3161
 1176SOL     OW15406   2.097   3.340   4.574  0.0970 -0.1062  0.7186
 1176SOL    HW115407   2.179   3.386   4.554 -0.1613  1.6092  3.6135
 1176SOL    HW215408   2.065   3.311   4.489  1.8921  2.3106 -0.7938
 1177SOL     OW15409   2.619   1.283   1.123  0.3442 -0.3094 -0.0847
 1177SOL    HW115410   2.667   1.317   1.048 -0.9423 -0.9311 -1.1955
 1177SOL    HW215411   2.680   1.290   1.196  1.2192  1.3105 -0.9734
 1178SOL     OW15412   2.858   3.727   4.702  0.5519  0.1078  0.1690
 1178SOL    HW115413   2.778   3.675   4.693  0.2858  0.4955  0.2705
 1178SOL    HW215414   2.889   3.740   4.612 -0.0202  0.7572  0.0617
 1179SOL     OW15415   4.673   0.852   4.289  0.0739 -0.6884 -0.3531
 1179SOL    HW115416   4.717   0.767   4.283  2.7567  0.6226  0.6464
 1179SOL    HW215417   4.580   0.833   4.273  0.8576 -3.6229 -1.3217
 1180SOL     OW15418   4.558   0.840  19.675 -0.1363  0.3115  0.0403
 1180SOL    HW115419   4.557   0.828  19.580  2.5543  0.7699 -0.0236
 1180SOL    HW215420   4.573   0.752  19.710  0.8037  0.4551 -0.0025
 1181SOL     OW15421   1.914   0.663  20.282  0.1083  0.6160  0.2611
 1181SOL    HW115422   1.952   0.739  20.237  2.0350 -0.4537  0.0694
 1181SOL    HW215423   1.888   0.696  20.368  2.2866  1.1425  0.7151
 1182SOL     OW15424   3.437   1.599  11.205  0.4909  0.2306  0.4771
 1182SOL    HW115425   3.499   1.672  11.204 -2.5684  2.8267  1.2074
 1182SOL    HW215426   3.437   1.570  11.296  0.4609  0.3823  0.5259
 1183SOL     OW15427   3.746   4.434   0.541 -0.6239  0.0747  0.2205
 1183SOL    HW115428   3.711   4.355   0.500  2.2098 -0.4998 -1.1324
 1183SOL    HW215429   3.772   4.406   0.629  1.7671 -0.8590 -0.7810
 1184SOL     OW15430   1.062   3.752   3.088 -0.0561 -0.4411  0.2923
 1184SOL    HW115431   0.976   3.737   3.047 -0.4546 -1.3519  1.4552
 1184SOL    HW215432   1.054   3.839   3.128 -1.1078 -1.3586  2.0888
 1185SOL     OW15433   4.727   3.117   1.131 -1.0930  0.3171  0.3174
 1185SOL    HW115434   4.765   3.031   1.115  0.7818  1.0831  0.6145
 1185SOL    HW215435   4.635   3.107   1.110 -0.7837 -1.6452 -0.0978
 1186SOL     OW15436   3.390   0.054   3.439 -0.3969  0.0988  0.3230
 1186SOL    HW115437   3.394   0.125   3.504 -1.2908  0.0703  0.4192
 1186SOL    HW215438   3.378   0.099   3.355 -0.8901  0.0738  0.3756
 1187SOL     OW15439   3.693   3.793  16.228  0.1178  0.4018 -0.0971
 1187SOL    HW115440   3.743   3.713  16.239 -0.4104  0.0788 -0.0238
 1187SOL    HW215441   3.606   3.763  16.199 -0.1484  0.9309  0.1474
 1188SOL     OW15442   0.375   3.281  11.860 -0.8069  0.1783  0.4258
 1188SOL    HW115443   0.290   3.292  11.903 -0.0180  0.3881  1.9504
 1188SOL    HW215444   0.404   3.194  11.886 -0.7591 -0.0744 -0.4687
 1189SOL     OW15445   0.366   1.672  16.989 -0.1117  0.4686  0.5604
 1189SOL    HW115446   0.297   1.637  17.045  0.1952 -1.1668 -0.0859
 1189SOL    HW215447   0.426   1.717  17.048 -0.6315  0.1209  1.3422
 1190SOL     OW15448   3.150   1.020   1.752 -0.0188  0.1687  0.2625
 1190SOL    HW115449   3.126   0.939   1.709 -0.0617  0.5900 -0.5005
 1190SOL    HW215450   3.207   1.065   1.690  0.0429  0.7014  0.7014
 1191SOL     OW15451   2.351   3.686   3.576 -0.0741  0.1655 -0.2170
 1191SOL    HW115452   2.302   3.609   3.604 -0.1791  0.1831 -0.3504
 1191SOL    HW215453   2.441   3.670   3.605 -0.0290 -0.1518 -0.5323
 1192SOL     OW15454   3.224   2.020  14.984 -0.0883  0.3864  0.3133
 1192SOL    HW115455   3.228   2.087  15.051 -0.1279  0.4312  0.2709
 1192SOL    HW215456   3.181   2.062  14.909 -1.5423 -0.1508  0.8390
 1193SOL     OW15457   2.197   2.098  14.688  0.4907  0.8393  0.3017
 1193SOL    HW115458   2.245   2.059  14.761  0.2486  2.5784  1.3805
 1193SOL    HW215459   2.134   2.158  14.729 -1.9646 -0.7329 -1.1653
 1194SOL     OW15460   0.206   1.451   5.619  0.2177  0.0284 -0.1955
 1194SOL    HW115461   0.120   1.420   5.646  0.1760  0.4756  0.1945
 1194SOL    HW215462   0.253   1.373   5.590 -0.0783 -0.3141  0.2569
 1195SOL     OW15463   2.696   1.143  18.718 -0.3725 -0.2686 -0.2321
 1195SOL    HW115464   2.755   1.179  18.784 -0.2187 -0.1821 -0.4157
 1195SOL    HW215465   2.699   1.207  18.646 -0.7686 -0.2127 -0.1976
 1196SOL     OW15466   1.439   3.143  16.446  0.1546  0.1041 -0.4933
 1196SOL    HW115467   1.520   3.186  16.419  0.5900  0.6844  1.7964
 1196SOL    HW215468   1.431   3.161  16.539 -2.5134 -0.1096 -0.6732
 1197SOL     OW15469   2.087   3.711   9.412 -0.0218 -0.2255  0.0035
 1197SOL    HW115470   2.138   3.631   9.426 -0.8165 -0.7150  0.0583
 1197SOL    HW215471   2.095   3.759   9.494  1.3525  0.2497 -0.4070
 1198SOL     OW15472   2.858   1.026  16.360  0.3290  0.7085 -0.4875
 1198SOL    HW115473   2.936   1.055  16.312  1.8831  0.3104  1.7889
 1198SOL    HW215474   2.883   0.941  16.397 -2.1942 -0.7883 -2.1919
 1199SOL     OW15475   0.943   3.205   4.430 -0.1270 -0.1229 -0.5094
 1199SOL    HW115476   0.952   3.175   4.340  0.4780  0.2559 -0.5727
 1199SOL    HW215477   0.860   3.254   4.431 -1.0011 -1.6035 -0.4550
 1200SOL     OW15478   2.800   4.026   4.727 -0.4632 -0.2360 -0.4312
 1200SOL    HW115479   2.825   4.040   4.818 -1.3291 -0.2075 -0.1962
 1200SOL    HW215480   2.799   3.931   4.716 -0.4383 -0.2409 -0.3874
 1201SOL     OW15481   2.249   0.646   4.390  0.1094 -0.0414  0.3468
 1201SOL    HW115482   2.262   0.661   4.484 -0.2764  2.6879 -0.0563
 1201SOL    HW215483   2.332   0.609   4.360  0.5475 -0.0665  1.5684
 1202SOL     OW15484   1.941   2.178   0.633  0.0050  0.1507  0.2521
 1202SOL    HW115485   1.983   2.092   0.632 -0.9357 -0.3363  2.0079
 1202SOL    HW215486   1.847   2.158   0.643 -0.6345  1.2195 -3.5898
 1203SOL     OW15487   1.956   2.040  13.263  0.2268 -0.1013  0.1871
 1203SOL    HW115488   1.932   2.109  13.325  0.8545 -1.1108  1.5584
 1203SOL    HW215489   2.014   1.982  13.313  2.7147  0.4316 -2.0691
 1204SOL     OW15490   4.033   4.125  19.732 -0.1376  0.3174 -0.1658
 1204SOL    HW115491   4.031   4.137  19.827  0.1957  0.8802 -0.2301
 1204SOL    HW215492   4.033   4.031  19.719 -1.6141  0.2428  0.3737
 1205SOL     OW15493   1.015   2.030   9.578  0.0247 -0.5160  0.1616
 1205SOL    HW115494   1.025   1.935   9.567 -0.7203 -0.4884 -0.7402
 1205SOL    HW215495   1.102   2.065   9.556  0.8677 -1.1505  2.4585
 1206SOL     OW15496   0.585   3.774  20.272 -0.0999  0.3695 -0.0491
 1206SOL    HW115497   0.560   3.836  20.341 -2.2500  0.0675 -0.5369
 1206SOL    HW215498   0.587   3.689  20.317  0.3125  0.4405  0.0610
 1207SOL     OW15499   1.318   1.203   5.905  0.1632  0.0672  0.0894
 1207SOL    HW115500   1.356   1.279   5.950  1.7983 -0.0964 -0.9902
 1207SOL    HW215501   1.226   1.226   5.892  0.7812  2.1168 -0.7420
 1208SOL     OW15502   3.505   0.549  17.494 -0.4661  0.1085 -0.1134
 1208SOL    HW115503   3.566   0.622  17.498 -0.2522 -0.1619  1.3885
 1208SOL    HW215504   3.476   0.536  17.584 -1.8001 -0.5606 -0.6362
 1209SOL     OW15505   0.167   0.503  14.920 -0.5406  0.3316  0.1368
 1209SOL    HW115506   0.183   0.478  15.011  0.4045  0.3158 -0.0369
 1209SOL    HW215507   0.073   0.486  14.907  0.0126 -2.8496  0.1181
 1210SOL     OW15508   3.092   3.234   3.350 -0.8127 -0.4585 -0.0982
 1210SOL    HW115509   3.144   3.288   3.409 -1.0964  1.3329 -1.4791
 1210SOL    HW215510   3.102   3.145   3.383 -0.0377  0.3987  1.9609
 1211SOL     OW15511   0.896   3.970  18.102  0.4077 -0.0174 -0.2743
 1211SOL    HW115512   0.911   4.011  18.017 -0.1028  1.1816  0.2171
 1211SOL    HW215513   0.981   3.976  18.146  0.3501  0.4713 -0.2252
 1212SOL     OW15514   2.668   2.404   0.298 -0.1153 -0.1124  1.1551
 1212SOL    HW115515   2.650   2.311   0.288  0.3468 -0.1842  0.9735
 1212SOL    HW215516   2.629   2.445   0.220  1.8530 -0.4483 -0.0041
 1213SOL     OW15517   0.955   1.161   4.366  0.2894 -0.3968  0.2330
 1213SOL    HW115518   1.040   1.126   4.391  1.2324  1.2549 -0.6332
 1213SOL    HW215519   0.923   1.205   4.445  0.3358 -0.8226  0.4896
 1214SOL     OW15520   2.266   2.719  20.962 -0.6863 -0.5073  0.1005
 1214SOL    HW115521   2.236   2.796  21.011 -0.4502 -0.7439  0.6166
 1214SOL    HW215522   2.189   2.690  20.913 -1.3089 -1.1474  1.4645
 1215SOL     OW15523   4.440   4.619  20.305 -0.1680  0.0174 -0.0786
 1215SOL    HW115524   4.430   4.699  20.355 -1.7647  0.2802 -0.8300
 1215SOL    HW215525   4.413   4.642  20.216  0.7696 -0.9573 -0.6204
 1216SOL     OW15526   0.733   3.240  17.237 -0.5816  0.5338  0.3375
 1216SOL    HW115527   0.800   3.302  17.266  1.1409 -1.1957 -0.0246
 1216SOL    HW215528   0.740   3.167  17.298 -1.8191  0.1449  0.0062
 1217SOL     OW15529   4.040   1.487   0.039  0.6529  0.1626 -0.3393
 1217SOL    HW115530   4.045   1.560  21.174  0.2866 -1.0405 -1.8057
 1217SOL    HW215531   4.108   1.426   0.009 -1.1562 -1.5312 -1.0096
 1218SOL     OW15532   2.606   0.668  10.689 -0.0608 -0.6318  0.1132
 1218SOL    HW115533   2.576   0.698  10.775 -0.7568 -0.6889 -0.1070
 1218SOL    HW215534   2.633   0.748  10.644 -0.7107 -0.4778 -0.0063
 1219SOL     OW15535   0.993   1.160  16.924 -0.3590 -0.4769 -0.2882
 1219SOL    HW115536   0.928   1.113  16.977 -1.0117  0.7308 -0.0218
 1219SOL    HW215537   1.055   1.196  16.987 -0.9629  0.7019 -0.3718
 1220SOL     OW15538   0.720   4.444  13.773 -0.6946  0.1767  0.1935
 1220SOL    HW115539   0.704   4.530  13.735 -0.4468 -0.4442 -1.3015
 1220SOL    HW215540   0.698   4.382  13.703 -1.2946 -0.9908  1.3995
 1221SOL     OW15541   1.677   4.556  19.777  0.0156 -0.6507  0.3453
 1221SOL    HW115542   1.691   4.645  19.744  2.5076 -1.3187 -0.3497
 1221SOL    HW215543   1.639   4.509  19.703  0.8802 -0.7972 -0.0033
 1222SOL     OW15544   0.860   0.779   5.659  0.1111 -0.5658  0.0684
 1222SOL    HW115545   0.841   0.847   5.594  0.8114 -1.7230 -1.3409
 1222SOL    HW215546   0.914   0.715   5.612  1.7092 -0.7492  2.1489
 1223SOL     OW15547   0.346   0.121   5.042  0.5632  0.3198  0.6980
 1223SOL    HW115548   0.256   0.094   5.057  0.3420 -1.2092 -3.3672
 1223SOL    HW215549   0.340   0.202   4.992  1.4421 -0.9372 -1.4764
 1224SOL     OW15550   4.400   0.807   6.973 -0.3730  0.4571  0.5059
 1224SOL    HW115551   4.337   0.818   6.901  1.1255  0.4279 -0.8206
 1224SOL    HW215552   4.461   0.879   6.962  0.7527 -0.4512  0.8375
 1225SOL     OW15553   3.743   2.859   3.256  0.1372 -0.1877 -0.2137
 1225SOL    HW115554   3.719   2.822   3.341 -0.4811  1.6766  0.4434
 1225SOL    HW215555   3.832   2.828   3.240  0.3712 -0.2827  1.2678
 1226SOL     OW15556   3.438   3.108  20.204 -0.8305  0.2911  0.5844
 1226SOL    HW115557   3.447   3.028  20.256 -0.8082  1.5181  2.4809
 1226SOL    HW215558   3.511   3.163  20.233  0.7610 -0.0923 -2.6818
 1227SOL     OW15559   3.203   1.874  19.539 -0.1645 -0.3240 -0.1289
 1227SOL    HW115560   3.138   1.882  19.609 -1.6242  1.5434 -1.6936
 1227SOL    HW215561   3.288   1.881  19.584 -1.1356  2.6429  1.2424
 1228SOL     OW15562   3.783   2.297  17.278 -0.0981 -0.7920  0.2576
 1228SOL    HW115563   3.743   2.384  17.282 -1.3450 -1.3244 -0.4645
 1228SOL    HW215564   3.875   2.313  17.260 -0.5751  0.3491 -1.1837
 1229SOL     OW15565   3.065   0.347   1.550 -0.5163  0.2224 -0.0101
 1229SOL    HW115566   3.123   0.321   1.478  0.1592 -1.4634  1.1490
 1229SOL    HW215567   2.983   0.370   1.507  0.4224  0.7823 -1.4851
 1230SOL     OW15568   1.394   0.972  19.115  0.2451 -0.2392  0.2458
 1230SOL    HW115569   1.383   1.054  19.066  2.7032  0.1574  0.3744
 1230SOL    HW215570   1.338   0.983  19.192 -0.1901  0.9105 -0.2271
 1231SOL     OW15571   0.393   4.338   4.407  0.8532  0.0906  0.1699
 1231SOL    HW115572   0.347   4.291   4.476 -1.3890  1.0230 -0.7088
 1231SOL    HW215573   0.439   4.408   4.453 -1.7292  1.5379  0.5491
 1232SOL     OW15574   2.509   3.684   0.449  0.0311 -0.4519  0.1723
 1232SOL    HW115575   2.449   3.734   0.394  0.5894 -0.6347 -0.6004
 1232SOL    HW215576   2.490   3.713   0.538  0.7204  1.5355 -0.3337
 1233SOL     OW15577   0.203   3.004   5.138  0.2510  0.7182  0.2032
 1233SOL    HW115578   0.215   3.071   5.205  0.6468  0.8629 -0.0093
 1233SOL    HW215579   0.285   3.005   5.089 -0.5383  1.5397 -1.1144
 1234SOL     OW15580   2.894   1.640  13.167 -0.5570  0.0512  0.1680
 1234SOL    HW115581   2.934   1.580  13.229 -0.3999  0.8217  0.8179
 1234SOL    HW215582   2.959   1.651  13.098  0.4906  1.5639  1.3871
 1235SOL     OW15583   2.655   4.314   1.474 -0.3508 -0.4273  0.1745
 1235SOL    HW115584   2.605   4.310   1.393  0.5854  0.9214 -0.4617
 1235SOL    HW215585   2.743   4.284   1.450 -0.5254 -1.6808  1.0547
 1236SOL     OW15586   3.708   1.750   0.002 -0.2104 -0.1142 -0.2288
 1236SOL    HW115587   3.779   1.723  21.141 -1.1522 -0.8655 -1.0580
 1236SOL    HW215588   3.631   1.754  21.140 -0.6510  1.5300  0.4827
 1237SOL     OW15589   4.569   2.657  21.154 -0.0787  0.7720  0.2205
 1237SOL    HW115590   4.554   2.589   0.022  0.0098  0.2222 -0.3389
 1237SOL    HW215591   4.655   2.693  21.177  0.0047  0.4970  0.3354
 1238SOL     OW15592   2.934   0.226  19.763 -0.1451  0.5217 -0.1182
 1238SOL    HW115593   2.994   0.204  19.835  1.1382 -1.7374 -1.8579
 1238SOL    HW215594   2.877   0.150  19.756 -1.3132  1.4409 -0.4117
 1239SOL     OW15595   2.907   3.318  12.323  0.2013 -0.4726  0.4273
 1239SOL    HW115596   2.857   3.303  12.403  1.3104 -1.2098  0.9951
 1239SOL    HW215597   2.851   3.286  12.252 -0.2653 -0.9805  1.0331
 1240SOL     OW15598   4.772   3.630   4.378  0.0042  0.0259 -0.2179
 1240SOL    HW115599   0.064   3.596   4.319 -1.4017 -0.7282 -1.4133
 1240SOL    HW215600   4.689   3.606   4.335 -0.9969  2.5083  0.3384
 1241SOL     OW15601   2.844   0.546   2.220  0.0233  0.0659 -0.3174
 1241SOL    HW115602   2.771   0.579   2.168 -0.5740 -0.6422  0.0853
 1241SOL    HW215603   2.905   0.510   2.156 -0.4640 -0.3108 -0.5689
 1242SOL     OW15604   3.891   4.529   1.728 -0.2035  0.3927 -0.0201
 1242SOL    HW115605   3.900   4.469   1.801 -0.8166  0.1741 -0.1223
 1242SOL    HW215606   3.967   4.511   1.672 -0.0186  0.1952  0.2990
 1243SOL     OW15607   2.457   2.452   1.256 -0.0547 -0.5089 -0.2665
 1243SOL    HW115608   2.386   2.469   1.194 -0.2443  1.2458  0.4431
 1243SOL    HW215609   2.536   2.480   1.209  0.0970 -1.7443 -0.7602
 1244SOL     OW15610   0.877   2.248   4.462  0.1657 -0.2812  0.4261
 1244SOL    HW115611   0.964   2.270   4.495  0.4288  0.0422 -0.4736
 1244SOL    HW215612   0.875   2.152   4.464  0.2122 -0.2583  1.3097
 1245SOL     OW15613   2.977   2.763   5.181 -0.1363  0.0648  0.2216
 1245SOL    HW115614   3.047   2.712   5.221 -0.5811 -0.4198  0.3765
 1245SOL    HW215615   3.016   2.799   5.101  0.8486  1.2835  1.2389
 1246SOL     OW15616   1.909   1.241   0.497 -0.6711 -0.1594 -0.4237
 1246SOL    HW115617   1.957   1.296   0.435 -0.8595 -0.6273 -0.9848
 1246SOL    HW215618   1.861   1.303   0.552  2.4875  0.4036  1.7126
 1247SOL     OW15619   4.593   1.831  18.885  0.2696  0.2300  0.2904
 1247SOL    HW115620   4.512   1.868  18.851  0.6294  1.2690  0.5669
 1247SOL    HW215621   4.579   1.736  18.883 -1.1531  0.4325  0.8465
 1248SOL     OW15622   4.422   0.993   2.253  1.0317  0.4183 -0.0558
 1248SOL    HW115623   4.382   1.073   2.218 -0.0145 -0.1397 -0.1528
 1248SOL    HW215624   4.431   1.010   2.346  0.7475  0.6220 -0.0651
 1249SOL     OW15625   2.671   1.561   3.262  0.0833 -0.5632  0.0656
 1249SOL    HW115626   2.650   1.514   3.343 -1.7183 -0.9126 -0.6070
 1249SOL    HW215627   2.618   1.641   3.267 -0.0963 -0.6313 -0.8092
 1250SOL     OW15628   0.854   1.728  19.415 -0.2250 -1.2023 -0.4154
 1250SOL    HW115629   0.930   1.717  19.357 -0.6615  0.8947 -1.4147
 1250SOL    HW215630   0.864   1.817  19.450 -1.8578 -1.1724 -0.0322
 1251SOL     OW15631   1.282   1.241   7.056 -0.5555 -0.1426 -0.0538
 1251SOL    HW115632   1.271   1.146   7.066 -3.5347  0.1904 -0.0838
 1251SOL    HW215633   1.340   1.266   7.127  0.4693 -2.0495 -0.2197
 1252SOL     OW15634   0.985   2.435  18.974  0.2146 -0.0640  0.5348
 1252SOL    HW115635   0.991   2.519  19.020  1.5404  0.6911 -0.9991
 1252SOL    HW215636   0.913   2.447  18.911 -0.5072 -0.5431  1.2644
 1253SOL     OW15637   3.198   1.585   2.955  0.4908 -0.4509 -0.1101
 1253SOL    HW115638   3.166   1.669   2.988 -0.8072 -0.5160 -1.2138
 1253SOL    HW215639   3.246   1.547   3.028 -0.1455  0.5980  0.8477
 1254SOL     OW15640   1.796   0.535  19.483 -0.4897 -0.5458  0.2043
 1254SOL    HW115641   1.868   0.574  19.533 -0.4189  0.0929 -0.3977
 1254SOL    HW215642   1.754   0.475  19.544  0.5139 -0.8644  0.5867
 1255SOL     OW15643   0.335   0.084   2.821  0.5475  0.4054 -0.1126
 1255SOL    HW115644   0.250   0.108   2.784 -0.4202 -1.6751  0.7330
 1255SOL    HW215645   0.368   0.015   2.762  0.2721 -0.9353  1.3198
 1256SOL     OW15646   1.682   1.616   4.537 -0.5438  0.5409 -0.7205
 1256SOL    HW115647   1.612   1.607   4.602  0.6889  1.5147  0.7338
 1256SOL    HW215648   1.687   1.710   4.521  0.1451  0.4237 -1.1377
 1257SOL     OW15649   2.121   0.652  20.636  0.1027 -0.0098  0.2162
 1257SOL    HW115650   2.078   0.608  20.709  0.7810 -0.5946  0.2544
 1257SOL    HW215651   2.097   0.745  20.648  0.4606 -0.0590  1.3438
 1258SOL     OW15652   4.470   1.892  16.904 -0.4040 -0.2728  0.1753
 1258SOL    HW115653   4.444   1.872  16.814 -1.9131 -0.6630  0.6936
 1258SOL    HW215654   4.444   1.983  16.917  1.6554  0.3976 -0.4524
 1259SOL     OW15655   0.498   0.659   3.275  1.1060 -0.3119 -0.3030
 1259SOL    HW115656   0.574   0.694   3.230  0.2900  0.3345 -1.1689
 1259SOL    HW215657   0.426   0.718   3.251 -0.5279 -3.3168 -2.7441
 1260SOL     OW15658   2.206   3.201  17.289 -0.0953 -0.4015  0.0221
 1260SOL    HW115659   2.224   3.109  17.268 -0.8118 -0.4270 -0.5187
 1260SOL    HW215660   2.162   3.199  17.374  0.1694 -0.5389  0.1530
 1261SOL     OW15661   1.346   3.947  19.908 -0.5240 -0.0402 -0.1522
 1261SOL    HW115662   1.372   4.015  19.970  0.3023 -1.3057  0.8779
 1261SOL    HW215663   1.413   3.948  19.840 -0.4059  0.0393 -0.0332
 1262SOL     OW15664   0.780   4.630   0.858 -0.9936  0.0650  0.1858
 1262SOL    HW115665   0.710   4.573   0.824 -1.8567  1.8102 -0.9785
 1262SOL    HW215666   0.763   4.715   0.818  1.3639  0.6940  0.5227
 1263SOL     OW15667   1.098   1.872  18.052  0.2042 -0.2612  0.1224
 1263SOL    HW115668   1.028   1.857  17.989 -0.9347  1.5108  0.9632
 1263SOL    HW215669   1.171   1.819  18.020 -1.0774 -1.0604 -1.4826
 1264SOL     OW15670   3.756   0.596  16.983 -0.1515  0.5790 -0.0704
 1264SOL    HW115671   3.723   0.597  16.893  0.1568  0.8807 -0.1791
 1264SOL    HW215672   3.851   0.598  16.973 -0.1368  1.4125  0.2851
 1265SOL     OW15673   1.775   2.955  10.467 -0.3643  0.3287  0.5916
 1265SOL    HW115674   1.864   2.927  10.489 -0.7569 -0.4039  1.2253
 1265SOL    HW215675   1.751   2.901  10.392  0.1213  1.2603 -0.2399
 1266SOL     OW15676   4.466   3.358  13.549  0.2106  0.4400  0.0890
 1266SOL    HW115677   4.391   3.416  13.564  0.0420 -0.0096  1.0167
 1266SOL    HW215678   4.487   3.368  13.456  0.0469  1.8358  0.2018
 1267SOL     OW15679   3.511   1.313   3.463  0.2401 -0.1530 -0.3781
 1267SOL    HW115680   3.518   1.408   3.459  2.5863 -0.2653  0.9267
 1267SOL    HW215681   3.572   1.281   3.396 -0.5766 -0.7163 -0.8465
 1268SOL     OW15682   2.168   1.358  14.867  0.1895  0.1603 -0.1324
 1268SOL    HW115683   2.246   1.410  14.884 -0.5938  0.5524  2.2814
 1268SOL    HW215684   2.154   1.366  14.773  2.1279  1.4253 -0.3075
 1269SOL     OW15685   3.387   0.573  21.024  0.6679  0.1418  0.6104
 1269SOL    HW115686   3.395   0.499  21.084 -0.1955  0.1063  0.6862
 1269SOL    HW215687   3.292   0.589  21.019  0.6017 -1.0802 -2.2179
 1270SOL     OW15688   1.871   1.782   2.063 -0.0932 -0.4077 -0.2097
 1270SOL    HW115689   1.863   1.838   2.140 -0.8479 -0.4204 -0.2857
 1270SOL    HW215690   1.900   1.698   2.098 -1.4614 -0.7241  0.1745
 1271SOL     OW15691   0.290   2.513   1.671  0.0652 -0.5501  0.0907
 1271SOL    HW115692   0.375   2.518   1.715 -0.6042 -1.9575  1.5312
 1271SOL    HW215693   0.261   2.423   1.684 -1.1419 -0.3717 -1.3500
 1272SOL     OW15694   4.648   1.529   3.349  0.3593 -0.3465 -0.1302
 1272SOL    HW115695   4.698   1.497   3.424  0.8695  0.1051 -0.2798
 1272SOL    HW215696   4.633   1.451   3.296 -1.1614 -0.8950  1.1198
 1273SOL     OW15697   4.617   2.180   3.810 -0.2605  0.4333 -0.2881
 1273SOL    HW115698   4.652   2.142   3.890  0.8031  2.7871  0.3496
 1273SOL    HW215699   4.677   2.252   3.789 -0.1215 -0.6094 -3.5619
 1274SOL     OW15700   3.389   0.017   5.048  0.5031  0.3800  0.6394
 1274SOL    HW115701   3.314   0.023   5.107 -0.8056  2.4670 -1.2494
 1274SOL    HW215702   3.358   4.737   4.977  1.6037 -0.9165  1.1756
 1275SOL     OW15703   0.858   2.354  14.747 -0.5201  0.1533  0.3504
 1275SOL    HW115704   0.867   2.445  14.717  0.1996 -0.3013 -0.7752
 1275SOL    HW215705   0.904   2.353  14.831 -0.9716  0.9601  0.6145
 1276SOL     OW15706   2.386   1.712   5.071 -0.7319 -0.1495 -0.0950
 1276SOL    HW115707   2.383   1.734   4.978  1.6524  1.3405  0.1671
 1276SOL    HW215708   2.308   1.752   5.108 -1.1154  0.1716 -1.2627
 1277SOL     OW15709   4.655   2.972  18.084  0.5382  0.3216  0.3316
 1277SOL    HW115710   4.651   2.883  18.119  0.3437  0.2563  0.1464
 1277SOL    HW215711   4.566   2.989  18.053  0.5103  0.6804  0.6150
 1278SOL     OW15712   1.969   3.802  12.728 -0.4348  0.4776  0.2757
 1278SOL    HW115713   1.941   3.867  12.663 -1.9028 -0.6116 -0.1804
 1278SOL    HW215714   2.059   3.826  12.748 -0.0741  1.0298 -1.9413
 1279SOL     OW15715   1.738   3.062  18.706  0.0515 -0.2876  0.7751
 1279SOL    HW115716   1.708   3.036  18.794 -0.7807 -0.8786  0.3306
 1279SOL    HW215717   1.825   3.023  18.698 -1.3341 -3.2734 -0.0081
 1280SOL     OW15718   1.754   0.124  16.097  0.0239  0.0512  0.6437
 1280SOL    HW115719   1.709   0.062  16.155 -0.4524 -2.4100 -2.3725
 1280SOL    HW215720   1.843   0.088  16.090  0.2364  0.6637  0.2614
 1281SOL     OW15721   1.707   2.356  13.722  0.1522  0.2287 -0.2381
 1281SOL    HW115722   1.705   2.352  13.817 -1.5641  1.2706 -0.2358
 1281SOL    HW215723   1.795   2.390  13.702 -0.5639  2.8848  1.0685
 1282SOL     OW15724   1.205   3.781   6.015  0.3449 -0.4959  0.1959
 1282SOL    HW115725   1.217   3.716   5.945  1.0321  0.2868 -0.4143
 1282SOL    HW215726   1.149   3.737   6.079 -0.7587 -1.0223 -1.1137
 1283SOL     OW15727   2.846   4.741  14.634  0.6534  0.0605 -0.7377
 1283SOL    HW115728   2.755   4.745  14.605  1.3189  0.7715 -2.7412
 1283SOL    HW215729   2.870   0.056  14.650  0.6853 -0.2213  0.8213
 1284SOL     OW15730   4.109   1.437   1.509 -0.3680 -0.1197 -0.3529
 1284SOL    HW115731   4.168   1.366   1.482  0.4886  0.6968 -0.6180
 1284SOL    HW215732   4.038   1.435   1.445  0.4197  0.2239 -1.2385
 1285SOL     OW15733   4.421   2.015   5.263  0.1496  0.1799 -0.1819
 1285SOL    HW115734   4.362   2.032   5.190  1.5425 -1.1789 -1.6261
 1285SOL    HW215735   4.390   1.932   5.299 -0.9249  1.1606  1.1619
 1286SOL     OW15736   0.406   3.771   4.309 -0.2577  0.4178 -0.3274
 1286SOL    HW115737   0.335   3.791   4.249 -0.9842  0.3891  0.5268
 1286SOL    HW215738   0.458   3.705   4.263 -1.0127  0.1316 -0.7759
 1287SOL     OW15739   4.738   4.310  16.507 -0.2698 -0.2064  0.1006
 1287SOL    HW115740   0.020   4.378  16.473  0.4638 -1.1993 -0.6506
 1287SOL    HW215741   4.769   4.295  16.597 -0.8226  0.8800  0.4723
 1288SOL     OW15742   0.879   3.510  17.710 -0.4555  0.3212  0.0356
 1288SOL    HW115743   0.942   3.475  17.646  0.6678  1.6158  0.4367
 1288SOL    HW215744   0.799   3.525  17.659 -0.4724 -1.4188 -0.4511
 1289SOL     OW15745   1.999   1.078   0.246  0.7684 -0.0650 -0.5126
 1289SOL    HW115746   2.042   1.077   0.160 -0.3412 -0.6827 -1.0568
 1289SOL    HW215747   1.917   1.124   0.232  0.0200 -1.2437 -0.0607
 1290SOL     OW15748   3.647   1.918  18.269 -0.8752 -0.0390  0.4342
 1290SOL    HW115749   3.726   1.965  18.298  1.2804 -3.2027 -0.3801
 1290SOL    HW215750   3.604   1.891  18.350 -1.1944  1.8316  0.8821
 1291SOL     OW15751   1.994   2.679   3.985  0.2943  0.8797 -0.1668
 1291SOL    HW115752   2.064   2.723   3.937  0.8504  0.7657  0.5444
 1291SOL    HW215753   1.938   2.642   3.916  0.6366  1.4232 -0.7393
 1292SOL     OW15754   0.444   1.836  18.918 -0.2013 -0.0059  0.1607
 1292SOL    HW115755   0.396   1.849  19.000  0.4184 -1.8412  0.8223
 1292SOL    HW215756   0.534   1.820  18.946 -0.1498 -1.4591 -0.8338
 1293SOL     OW15757   0.190   2.119   4.840  0.2877  0.5588 -0.5995
 1293SOL    HW115758   0.210   2.026   4.829 -1.4237  0.0959  0.1996
 1293SOL    HW215759   0.271   2.158   4.872  0.1428 -1.1464  1.8011
 1294SOL     OW15760   0.366   1.067  18.600  0.0526  0.1292 -0.5415
 1294SOL    HW115761   0.422   1.132  18.560  1.4159 -0.5571  0.2629
 1294SOL    HW215762   0.388   0.985  18.556 -1.7787  0.2336 -1.6715
 1295SOL     OW15763   2.083   1.587  17.223 -0.0979 -0.2403  0.3126
 1295SOL    HW115764   2.141   1.558  17.294 -1.1274  0.0221  1.2454
 1295SOL    HW215765   2.102   1.680  17.214  1.1571 -0.6050 -0.7910
 1296SOL     OW15766   3.007   0.353  18.366 -0.4202 -0.0327  0.0842
 1296SOL    HW115767   3.061   0.299  18.307 -0.4984 -0.7961  0.7057
 1296SOL    HW215768   3.063   0.370  18.441  0.2366  2.3171 -0.9466
 1297SOL     OW15769   3.186   1.887  21.061 -0.0925 -0.1268  0.2386
 1297SOL    HW115770   3.222   1.960  21.010 -0.1172  0.1612  0.6298
 1297SOL    HW215771   3.185   1.920  21.151 -1.2088 -0.1919  0.2433
 1298SOL     OW15772   0.651   1.986  19.660  0.2429  0.0083  0.4373
 1298SOL    HW115773   0.695   2.036  19.592  0.8122 -2.7261 -1.1970
 1298SOL    HW215774   0.574   1.949  19.617  0.6262 -1.7646  1.2512
 1299SOL     OW15775   4.571   1.311  20.452 -0.5437  0.4563  0.3389
 1299SOL    HW115776   4.555   1.241  20.387 -2.5829 -1.0921  2.5136
 1299SOL    HW215777   4.507   1.378  20.431 -2.2868 -0.7592  1.7974
 1300SOL     OW15778   0.702   3.933   5.517 -0.1318  0.3827 -0.1800
 1300SOL    HW115779   0.788   3.959   5.553  0.0485 -0.2434 -0.1587
 1300SOL    HW215780   0.723   3.874   5.445 -0.4933  1.9252 -1.5470
 1301SOL     OW15781   4.753   0.123  17.195 -0.1440  0.2396 -0.5627
 1301SOL    HW115782   0.060   0.099  17.153 -0.3955 -3.2534  0.8701
 1301SOL    HW215783   0.002   0.183  17.265  1.2238 -0.9229 -0.0376
 1302SOL     OW15784   4.418   2.009  11.233  0.9332 -0.1761 -0.2564
 1302SOL    HW115785   4.368   1.945  11.283 -0.0847  0.5065 -0.4055
 1302SOL    HW215786   4.486   1.958  11.189 -0.4736 -1.2820 -1.1427
 1303SOL     OW15787   1.983   0.255   3.692 -0.2124  0.2511 -0.0182
 1303SOL    HW115788   2.069   0.218   3.669 -0.1486  1.0719 -1.0914
 1303SOL    HW215789   1.921   0.210   3.635 -0.4324  0.0345  0.3919
 1304SOL     OW15790   0.203   0.914   4.809 -0.2627 -0.3981 -0.1083
 1304SOL    HW115791   0.295   0.898   4.831 -0.6805 -0.4994  1.5589
 1304SOL    HW215792   0.155   0.850   4.862 -1.4284  0.9987  0.5145
 1305SOL     OW15793   0.482   2.858  18.936  0.1196  0.1441  0.0849
 1305SOL    HW115794   0.498   2.764  18.947  0.1720  0.2645  1.0196
 1305SOL    HW215795   0.509   2.897  19.019 -0.2728  0.9429 -0.1642
 1306SOL     OW15796   1.456   0.103  19.822  0.7049 -0.5863 -0.1493
 1306SOL    HW115797   1.546   0.081  19.849  0.8728  0.3889  0.1203
 1306SOL    HW215798   1.456   0.199  19.819  0.1656 -0.6416 -1.8635
 1307SOL     OW15799   2.986   4.376  16.534  0.3284  0.2387 -0.0032
 1307SOL    HW115800   2.908   4.432  16.538  0.5179  0.4223  1.0807
 1307SOL    HW215801   3.018   4.386  16.444  0.9346  2.6593  0.4705
 1308SOL     OW15802   1.365   1.440   3.762  0.3706 -1.0555  0.8254
 1308SOL    HW115803   1.453   1.424   3.729  0.0476  0.4700 -0.7692
 1308SOL    HW215804   1.310   1.379   3.715  0.2820 -0.6287  0.3756
 1309SOL     OW15805   0.801   0.574   2.611 -0.6594 -0.2070 -0.5193
 1309SOL    HW115806   0.771   0.624   2.687 -0.0894 -2.7517  1.3608
 1309SOL    HW215807   0.871   0.518   2.645 -0.6183 -1.5603 -2.8659
 1310SOL     OW15808   4.210   0.821   9.213  0.2680  0.0813  0.2632
 1310SOL    HW115809   4.152   0.852   9.283  0.4463 -0.7709  0.7780
 1310SOL    HW215810   4.195   0.727   9.209  0.3730  0.1089 -0.7456
 1311SOL     OW15811   4.154   1.945   5.613  0.3005  0.1524  0.0322
 1311SOL    HW115812   4.231   1.889   5.603  1.6877  2.2712 -1.0403
 1311SOL    HW215813   4.082   1.894   5.577  1.1972 -1.8173  1.0137
 1312SOL     OW15814   4.432   3.286  19.698 -0.0620 -0.1838 -0.3852
 1312SOL    HW115815   4.463   3.311  19.785 -1.5225  0.8648 -0.1543
 1312SOL    HW215816   4.431   3.367  19.648  1.2637 -0.8780 -1.5359
 1313SOL     OW15817   1.897   2.008  20.301  0.1085  0.0332  0.0590
 1313SOL    HW115818   1.885   1.942  20.234  2.2715 -0.0862 -0.2174
 1313SOL    HW215819   1.924   2.087  20.254 -0.6393  0.5992  0.5642
 1314SOL     OW15820   2.314   1.315   3.008  0.1503  0.5603  0.3725
 1314SOL    HW115821   2.285   1.285   2.923 -0.7159  0.9139  0.5442
 1314SOL    HW215822   2.406   1.340   2.995  0.6741 -1.5546  0.0962
 1315SOL     OW15823   4.759   3.839  18.006 -0.1488 -0.5359  0.1976
 1315SOL    HW115824   4.722   3.897  17.940 -1.3238 -1.8999 -0.3472
 1315SOL    HW215825   4.684   3.810  18.058  0.6643 -0.1306  1.5952
 1316SOL     OW15826   4.593   3.128   0.613  0.2166  0.3452 -0.3651
 1316SOL    HW115827   4.648   3.169   0.680 -1.2258  0.2077  0.8995
 1316SOL    HW215828   4.517   3.186   0.605 -0.7615 -0.8992 -0.1576
 1317SOL     OW15829   2.848   0.486   6.586 -0.1648 -0.3953 -0.4483
 1317SOL    HW115830   2.942   0.472   6.594  0.1465  1.1377 -1.4541
 1317SOL    HW215831   2.810   0.438   6.660  1.3506 -1.5795 -0.4442
 1318SOL     OW15832   1.247   2.878   0.913  0.0512  0.0215  0.1573
 1318SOL    HW115833   1.275   2.945   0.851  0.2455  0.6269  0.8951
 1318SOL    HW215834   1.305   2.804   0.895  0.5612  0.4375  0.0785
 1319SOL     OW15835   3.338   4.428   6.241  0.6125 -0.3141 -0.0292
 1319SOL    HW115836   3.330   4.523   6.231  0.0768 -0.0750  2.5534
 1319SOL    HW215837   3.249   4.395   6.238  0.7200 -0.6241  0.1224
 1320SOL     OW15838   0.274   0.950   0.782 -0.2164 -0.0965  0.0378
 1320SOL    HW115839   0.202   0.943   0.845  0.1013 -0.1690  0.3925
 1320SOL    HW215840   0.350   0.975   0.835 -0.1016  0.5189 -0.4156
 1321SOL     OW15841   3.277   0.908  13.070 -0.2443 -0.0448 -0.0891
 1321SOL    HW115842   3.311   0.992  13.043  0.0033  0.3026  1.2859
 1321SOL    HW215843   3.202   0.891  13.012 -0.9658  1.6238  0.3643
 1322SOL     OW15844   1.921   2.890   2.872 -0.0696 -0.5865  0.2749
 1322SOL    HW115845   1.980   2.846   2.933  0.5559 -0.0908  0.0202
 1322SOL    HW215846   1.970   2.966   2.841 -0.5323 -0.6187 -0.5451
 1323SOL     OW15847   4.457   2.216  17.774 -0.1817  0.2446  0.2489
 1323SOL    HW115848   4.552   2.221  17.787 -0.2655  0.5706  0.7056
 1323SOL    HW215849   4.431   2.305  17.751 -0.6865  0.5668  2.1074
 1324SOL     OW15850   2.368   4.768  16.075  0.3734 -0.4968  0.3891
 1324SOL    HW115851   2.405   0.021  16.157 -0.3864 -1.2303  0.9974
 1324SOL    HW215852   2.346   0.072  16.028 -2.5619 -0.1233  2.4382
 1325SOL     OW15853   4.051   4.669   5.122 -0.2210 -0.0387  0.3908
 1325SOL    HW115854   4.053   4.574   5.140 -1.4594 -0.2364 -0.5031
 1325SOL    HW215855   3.997   4.705   5.192  2.3615  0.3426  2.2082
 1326SOL     OW15856   1.005   1.770   3.675  0.4088 -0.3289  0.1917
 1326SOL    HW115857   1.086   1.719   3.669 -1.5889 -3.3981 -0.9083
 1326SOL    HW215858   0.984   1.794   3.585 -1.0051 -1.2952  0.2544
 1327SOL     OW15859   4.026   0.189  20.249  0.5266 -0.2795 -0.9534
 1327SOL    HW115860   4.076   0.240  20.313  0.0858  0.3880 -1.1444
 1327SOL    HW215861   4.049   0.098  20.268 -1.4902 -0.2220  1.7345
 1328SOL     OW15862   4.366   0.055   3.741 -0.4335  0.2130  0.0623
 1328SOL    HW115863   4.417   0.102   3.807 -0.8884  0.4658  0.2404
 1328SOL    HW215864   4.278   0.051   3.779 -0.5200 -0.2968 -0.2024
 1329SOL     OW15865   3.238   0.297   2.842  0.4405  0.2375  0.3130
 1329SOL    HW115866   3.257   0.328   2.754  1.5530  1.7902  1.0911
 1329SOL    HW215867   3.252   0.374   2.898 -0.3845 -0.7059  1.8100
 1330SOL     OW15868   3.573   2.417  16.155 -0.4009  0.0232  0.2118
 1330SOL    HW115869   3.504   2.370  16.201 -1.8117  0.0138 -1.9147
 1330SOL    HW215870   3.643   2.352  16.144 -1.0924 -0.6823  0.0377
 1331SOL     OW15871   1.734   0.211  18.812 -0.0173 -0.1334  0.4465
 1331SOL    HW115872   1.726   0.152  18.887  0.2283 -0.6996  0.0254
 1331SOL    HW215873   1.712   0.297  18.847 -1.3647 -0.6302  0.8430
 1332SOL     OW15874   1.732   4.518  18.759 -0.3065 -0.1852 -0.2287
 1332SOL    HW115875   1.703   4.439  18.714 -1.7938 -0.2662  0.8677
 1332SOL    HW215876   1.813   4.493  18.803 -0.7208 -1.0726  0.0225
 1333SOL     OW15877   2.369   1.257   2.011  0.2704  0.2732  0.2706
 1333SOL    HW115878   2.323   1.315   2.072 -0.2664 -0.5574  0.6615
 1333SOL    HW215879   2.330   1.171   2.027  1.0673 -0.1881 -0.3091
 1334SOL     OW15880   4.221   2.259  18.589 -0.2775  0.4248  0.6626
 1334SOL    HW115881   4.237   2.227  18.500  2.2309  1.3388  0.7857
 1334SOL    HW215882   4.305   2.250  18.633 -0.8726  2.3929  2.2055
 1335SOL     OW15883   1.848   2.701  14.730 -0.2034  0.1159  0.1636
 1335SOL    HW115884   1.789   2.704  14.806  0.9896 -0.0309  1.1070
 1335SOL    HW215885   1.823   2.777  14.678 -1.2411  0.0492  0.5548
 1336SOL     OW15886   2.268   1.973  15.675  0.3474 -0.0547  0.0664
 1336SOL    HW115887   2.296   2.061  15.701 -0.4453 -0.2613  1.6117
 1336SOL    HW215888   2.173   1.978  15.671  0.4274 -0.1977 -2.1857
 1337SOL     OW15889   2.121   3.197   5.612 -0.2945  0.2097  0.1211
 1337SOL    HW115890   2.106   3.273   5.668  1.3761  0.3954  0.3199
 1337SOL    HW215891   2.098   3.228   5.524 -3.2061 -0.1819  0.7579
 1338SOL     OW15892   2.743   0.890   6.441  0.3281 -0.6930 -0.1252
 1338SOL    HW115893   2.673   0.940   6.398  0.2837  0.1747  0.9790
 1338SOL    HW215894   2.799   0.860   6.368  0.8359  1.6715 -0.6879
 1339SOL     OW15895   4.230   0.821   6.471 -0.0174 -0.5901 -0.2452
 1339SOL    HW115896   4.283   0.742   6.462  0.1224 -0.5469  0.1811
 1339SOL    HW215897   4.294   0.892   6.480 -0.1417 -0.5303  0.1942
 1340SOL     OW15898   2.876   3.603  20.867  0.4612  0.0881  0.0682
 1340SOL    HW115899   2.930   3.627  20.792  0.4728  0.2102  0.1155
 1340SOL    HW215900   2.914   3.521  20.899  0.6539  0.2041  0.1367
 1341SOL     OW15901   2.827   3.239   3.412 -0.7601  0.0580 -0.0036
 1341SOL    HW115902   2.912   3.277   3.389 -0.8253  0.0836 -0.2033
 1341SOL    HW215903   2.831   3.149   3.380 -0.4096 -0.2623  0.9362
 1342SOL     OW15904   0.149   1.117  17.482 -0.1088  0.6701  0.2992
 1342SOL    HW115905   0.084   1.178  17.447 -0.8853 -0.0738  0.4262
 1342SOL    HW215906   0.139   1.123  17.577  0.5255  1.1145  0.3345
 1343SOL     OW15907   4.647   2.733   5.257  0.4963 -0.0124  0.5269
 1343SOL    HW115908   4.697   2.676   5.315 -0.4689  0.1164  1.4827
 1343SOL    HW215909   4.581   2.773   5.314  1.4468  2.3698 -0.0654
 1344SOL     OW15910   1.962   1.117  16.126  0.2515 -0.3823 -0.2894
 1344SOL    HW115911   1.898   1.165  16.178  1.8472 -0.0947  1.3808
 1344SOL    HW215912   1.954   1.026  16.157 -0.4450 -0.6218 -1.1651
 1345SOL     OW15913   3.468   1.992  17.836  0.5766  0.7728  0.2316
 1345SOL    HW115914   3.398   2.048  17.803 -0.4525 -0.6251  0.0544
 1345SOL    HW215915   3.545   2.048  17.836 -0.3771  2.0811 -0.3286
 1346SOL     OW15916   1.807   4.687   0.240  0.6383 -0.2666 -0.1363
 1346SOL    HW115917   1.731   4.668   0.185  0.7813  1.0761 -0.8189
 1346SOL    HW215918   1.801   4.626   0.313 -0.4838 -0.9140 -0.7760
 1347SOL     OW15919   4.129   1.622  17.628  0.3929  0.2894  0.0586
 1347SOL    HW115920   4.077   1.699  17.605 -1.0855 -0.5627  0.4963
 1347SOL    HW215921   4.219   1.647  17.612 -0.2489  1.4764 -1.5874
 1348SOL     OW15922   2.435   0.709  16.595  0.7354 -0.3494  0.6900
 1348SOL    HW115923   2.498   0.764  16.642  1.3674  0.7954 -1.5310
 1348SOL    HW215924   2.416   0.756  16.515 -1.7178 -1.4860  0.5887
 1349SOL     OW15925   0.824   0.582  20.970  0.2215  0.1448  0.5286
 1349SOL    HW115926   0.834   0.614  20.880  1.9743  1.3511  1.1573
 1349SOL    HW215927   0.876   0.502  20.973 -0.8325 -0.5549  0.1191
 1350SOL     OW15928   0.465   0.199  21.193 -0.3360  0.0712 -0.0609
 1350SOL    HW115929   0.373   0.225  21.196 -0.4416 -0.4974  1.6779
 1350SOL    HW215930   0.509   0.273  21.153 -1.3630  0.8944  0.3240
 1351SOL     OW15931   4.748   3.736   1.482  0.1312  0.4330 -0.3691
 1351SOL    HW115932   0.032   3.741   1.407 -0.0945  1.2758 -0.4899
 1351SOL    HW215933   0.027   3.706   1.555  0.3747 -0.2889 -0.8424
 1352SOL     OW15934   0.560   3.360   4.113  0.2215 -0.2389  0.2928
 1352SOL    HW115935   0.528   3.445   4.084 -0.4503 -0.8594 -0.7629
 1352SOL    HW215936   0.583   3.314   4.033  0.4600 -1.1081  0.8613
 1353SOL     OW15937   3.530   0.488  13.807  0.3905  0.3855  0.0257
 1353SOL    HW115938   3.526   0.398  13.774  2.6142 -0.3423  1.7347
 1353SOL    HW215939   3.518   0.542  13.729 -0.7204 -1.3871 -1.0478
 1354SOL     OW15940   1.776   0.593  17.605 -0.3682  0.6704  0.5614
 1354SOL    HW115941   1.688   0.563  17.580  0.3262 -1.2544  0.4184
 1354SOL    HW215942   1.777   0.587  17.700  0.5067 -1.8074  0.3943
 1355SOL     OW15943   1.116   3.967   9.195  0.0551  0.4065 -0.0264
 1355SOL    HW115944   1.165   3.914   9.132  2.2124  1.2715  0.8947
 1355SOL    HW215945   1.027   3.932   9.193  0.7156 -1.1696 -1.7436
 1356SOL     OW15946   1.742   1.954  19.461 -0.3085  0.3396 -0.7357
 1356SOL    HW115947   1.706   2.040  19.443  1.1626  0.2792 -3.9099
 1356SOL    HW215948   1.833   1.959  19.431  0.6232 -1.3769  1.7501
 1357SOL     OW15949   4.756   4.687   3.264  0.2736 -0.3141 -0.0695
 1357SOL    HW115950   4.664   4.712   3.274  0.2980 -0.6078  0.9010
 1357SOL    HW215951   0.009   4.734   3.186 -0.7131 -0.2564 -0.4027
 1358SOL     OW15952   3.406   2.104  20.824  0.3052 -0.0159 -0.7359
 1358SOL    HW115953   3.343   2.173  20.803  0.1224 -0.6564 -2.2949
 1358SOL    HW215954   3.431   2.121  20.915 -1.4708  0.7485 -0.3932
 1359SOL     OW15955   0.089   0.023  20.857  0.0940 -0.0125  0.3218
 1359SOL    HW115956   0.082   0.115  20.880 -0.0501  0.1001 -0.1764
 1359SOL    HW215957   0.104   0.023  20.762 -3.0636 -0.6228 -0.1612
 1360SOL     OW15958   4.357   2.401   4.101  0.3422  0.0660  0.6395
 1360SOL    HW115959   4.446   2.372   4.120  0.6115  0.2048 -0.4204
 1360SOL    HW215960   4.301   2.339   4.147  0.9665 -0.4627  0.6831
 1361SOL     OW15961   4.517   3.748  16.064 -0.3642  0.3206  0.3066
 1361SOL    HW115962   4.466   3.684  16.015 -0.7963  1.4007 -0.6306
 1361SOL    HW215963   4.543   3.813  15.999 -0.4790  1.4532  1.4033
 1362SOL     OW15964   0.029   0.985   2.415  0.1480 -0.0198 -0.0605
 1362SOL    HW115965   0.103   0.936   2.451 -0.8542 -1.1926  0.3653
 1362SOL    HW215966   4.764   0.926   2.352  0.3613  1.1073 -1.2658
 1363SOL     OW15967   3.289   2.059   1.894 -0.4103  0.0137  0.0852
 1363SOL    HW115968   3.308   2.090   1.805  0.5887  0.6761  0.5143
 1363SOL    HW215969   3.253   1.972   1.882 -1.1604  0.4758 -1.0322
 1364SOL     OW15970   1.025   4.214  19.453  0.2971  0.0842  0.4210
 1364SOL    HW115971   1.062   4.209  19.541  1.2272 -1.5345 -0.0630
 1364SOL    HW215972   0.984   4.301  19.449 -0.4422 -0.1568  2.7167
 1365SOL     OW15973   3.028   2.925  16.310  0.4347  0.0665  0.4333
 1365SOL    HW115974   3.114   2.915  16.351 -0.3234 -1.8976  1.5777
 1365SOL    HW215975   2.966   2.889  16.375 -1.2113  1.2927 -0.4634
 1366SOL     OW15976   3.483   0.809   3.304  0.9763  0.5873 -0.5308
 1366SOL    HW115977   3.498   0.721   3.338 -0.1630  0.7570  0.4192
 1366SOL    HW215978   3.447   0.796   3.217  0.5500  0.1076 -0.2823
 1367SOL     OW15979   3.386   1.603  16.353 -0.4353  0.1770 -0.1831
 1367SOL    HW115980   3.299   1.612  16.391 -0.3645  1.2864 -0.2909
 1367SOL    HW215981   3.443   1.582  16.427 -0.7523 -0.3000 -0.0753
 1368SOL     OW15982   1.315   1.385   9.416 -0.4669 -0.6994 -0.2100
 1368SOL    HW115983   1.350   1.453   9.358 -1.0153 -0.7749 -0.6305
 1368SOL    HW215984   1.321   1.305   9.365  1.4214 -1.1871  0.7862
 1369SOL     OW15985   2.856   1.192   6.679 -0.3105  0.6344  0.0493
 1369SOL    HW115986   2.797   1.158   6.612 -1.2398  1.1202  0.6152
 1369SOL    HW215987   2.944   1.170   6.648 -0.7207  1.3846 -1.6077
 1370SOL     OW15988   4.452   3.265   3.780  0.7782  0.1982  0.3877
 1370SOL    HW115989   4.488   3.255   3.692 -0.2607  1.2152 -0.1537
 1370SOL    HW215990   4.382   3.329   3.770 -0.6635 -1.1869  1.5919
 1371SOL     OW15991   1.437   1.164  17.428  0.1328 -0.5403  0.4885
 1371SOL    HW115992   1.384   1.244  17.426 -0.2615 -0.7327  3.1553
 1371SOL    HW215993   1.486   1.166  17.346  1.8965  3.6366  1.6496
 1372SOL     OW15994   0.821   2.268  15.212 -0.3305  0.6735 -0.2868
 1372SOL    HW115995   0.857   2.324  15.143  1.5496  0.0856  0.2042
 1372SOL    HW215996   0.890   2.266  15.279 -1.7250  0.4144  1.1351
 1373SOL     OW15997   2.427   0.902  10.198 -0.2109  0.2779 -0.5390
 1373SOL    HW115998   2.402   0.810  10.192  0.5578  0.1185 -1.2928
 1373SOL    HW215999   2.344   0.949  10.198 -0.6878 -0.5316  2.1312
 1374SOL     OW16000   3.947   2.654  16.693 -0.1694  0.3471 -0.1305
 1374SOL    HW116001   3.963   2.560  16.704 -2.0614  0.0802  0.3083
 1374SOL    HW216002   4.032   2.695  16.708  0.9177 -1.4089 -1.5534
 1375SOL     OW16003   1.714   1.392   1.028 -0.0714 -0.3796  0.1510
 1375SOL    HW116004   1.727   1.377   0.934 -0.0664 -0.9123  0.2350
 1375SOL    HW216005   1.656   1.321   1.056 -2.7836  1.7273 -0.1162
 1376SOL     OW16006   3.440   1.179  16.836  0.4329 -0.1443  0.2451
 1376SOL    HW116007   3.497   1.185  16.759  0.9476 -0.8547  0.5724
 1376SOL    HW216008   3.484   1.234  16.902  0.1253  0.2568  0.1167
 1377SOL     OW16009   0.781   1.012  16.581  0.0111 -0.2236  0.2060
 1377SOL    HW116010   0.862   1.062  16.574  0.0420 -0.2806  0.1591
 1377SOL    HW216011   0.776   0.986  16.672 -0.1247  0.0686  0.2835
 1378SOL     OW16012   4.380   2.827   3.828 -0.4267  0.0979  0.0363
 1378SOL    HW116013   4.329   2.905   3.807  0.8780  0.5433 -1.4880
 1378SOL    HW216014   4.470   2.859   3.837 -0.0775 -1.0301  0.5771
 1379SOL     OW16015   4.597   2.084   2.081 -0.7121  0.7450  0.0524
 1379SOL    HW116016   4.562   2.049   1.999 -0.4466  2.3729 -0.7498
 1379SOL    HW216017   4.521   2.121   2.126 -0.8958 -0.3411  0.6533
 1380SOL     OW16018   3.653   4.097  10.327 -0.8172  0.2278  0.0959
 1380SOL    HW116019   3.564   4.105  10.293 -1.2427  1.0497  1.3952
 1380SOL    HW216020   3.663   4.171  10.386  0.1072 -0.8630  1.3176
 1381SOL     OW16021   2.331   2.226   3.975  0.1709 -0.2014 -0.3481
 1381SOL    HW116022   2.296   2.256   3.891  0.2242 -0.5950 -0.5060
 1381SOL    HW216023   2.330   2.131   3.969 -0.0624 -0.2326  0.1929
 1382SOL     OW16024   4.037   0.485   1.519  0.4682  1.1442  0.0932
 1382SOL    HW116025   4.073   0.518   1.601 -1.2248  2.6049  0.2578
 1382SOL    HW216026   3.960   0.435   1.545 -0.0563  1.5874 -0.6100
 1383SOL     OW16027   3.761   0.451   4.057  0.1017 -0.4602 -0.4220
 1383SOL    HW116028   3.680   0.473   4.010  0.0466  1.8755  0.7494
 1383SOL    HW216029   3.806   0.535   4.066  0.8203 -1.1603  2.3925
 1384SOL     OW16030   0.442   2.598   5.764 -0.3906 -0.1893  0.5071
 1384SOL    HW116031   0.405   2.644   5.840  0.7884 -0.2959  1.1455
 1384SOL    HW216032   0.530   2.572   5.792  0.4456  0.7220 -1.2694
 1385SOL     OW16033   2.858   0.862   1.779 -0.4662  0.7967  0.1184
 1385SOL    HW116034   2.793   0.910   1.728 -1.8574 -0.5007  0.6793
 1385SOL    HW216035   2.916   0.823   1.713 -0.7603  1.2405 -0.4009
 1386SOL     OW16036   1.830   0.215  16.460 -0.1912 -0.9149  0.3529
 1386SOL    HW116037   1.770   0.173  16.521 -1.4032 -0.8299 -0.7754
 1386SOL    HW216038   1.791   0.301  16.443  2.3086  0.6916  2.7010
 1387SOL     OW16039   4.414   3.938  11.749 -0.4687 -0.0033  0.1393
 1387SOL    HW116040   4.426   3.925  11.843 -2.7772 -0.1504  0.4136
 1387SOL    HW216041   4.463   3.868  11.708 -0.0993 -0.3970  1.2684
 1388SOL     OW16042   4.753   3.085   8.625 -0.3367 -0.3755 -0.1744
 1388SOL    HW116043   4.694   3.015   8.597 -1.5999  0.5995  0.0379
 1388SOL    HW216044   4.751   3.149   8.554 -0.5740  0.2890  0.4240
 1389SOL     OW16045   3.648   1.976  11.390  0.3203  0.3230  0.0681
 1389SOL    HW116046   3.687   2.055  11.427  1.7413 -0.1032 -0.5196
 1389SOL    HW216047   3.673   1.907  11.452  2.8717 -0.4263 -1.8250
 1390SOL     OW16048   4.110   4.049   5.467 -0.0293 -0.4284  0.2198
 1390SOL    HW116049   4.170   3.975   5.457 -1.2285 -1.2945 -0.4957
 1390SOL    HW216050   4.132   4.086   5.552  0.8853 -1.3248  0.3753
 1391SOL     OW16051   0.951   3.218  11.800 -0.3839  0.6269  0.3499
 1391SOL    HW116052   0.957   3.267  11.882 -1.2972 -1.6297  1.7623
 1391SOL    HW216053   0.858   3.203  11.787 -0.0687 -1.2016  0.1894
 1392SOL     OW16054   0.110   0.923  18.047 -0.4236  0.0021  0.6173
 1392SOL    HW116055   0.191   0.907  17.997 -0.2139  0.5266  0.7870
 1392SOL    HW216056   0.140   0.938  18.137 -0.5272  2.3719  0.2713
 1393SOL     OW16057   2.228   3.015  16.996 -0.2879  0.3325  0.3101
 1393SOL    HW116058   2.189   2.940  16.952 -1.5572  0.4767  1.1834
 1393SOL    HW216059   2.314   2.985  17.023 -1.4642 -1.3334  2.1831
 1394SOL     OW16060   2.253   0.976   9.411  0.0051  0.1326 -0.1798
 1394SOL    HW116061   2.290   0.897   9.371 -2.5350  0.1326 -2.5509
 1394SOL    HW216062   2.174   0.994   9.360  0.0621  3.6653  0.9519
 1395SOL     OW16063   0.748   4.451  15.531  0.0412  0.0303  0.9062
 1395SOL    HW116064   0.840   4.471  15.514 -0.0399  0.2065  0.6819
 1395SOL    HW216065   0.709   4.534  15.559 -0.1463  0.0489  0.5954
 1396SOL     OW16066   0.499   3.064  16.408  0.1579 -0.2134  0.2925
 1396SOL    HW116067   0.489   3.159  16.404  0.8759 -0.1116  0.9591
 1396SOL    HW216068   0.586   3.047  16.372 -0.0881 -0.6467 -0.1101
 1397SOL     OW16069   0.555   4.728   8.014  0.3407  0.4405  0.1895
 1397SOL    HW116070   0.564   0.045   8.034  0.0509  0.6889 -0.8387
 1397SOL    HW216071   0.461   4.711   8.021  0.5215 -0.0288  1.4999
 1398SOL     OW16072   4.499   4.447   2.509  1.0501  0.1625 -0.1708
 1398SOL    HW116073   4.588   4.422   2.484  1.0355  1.6789 -1.6594
 1398SOL    HW216074   4.495   4.541   2.497 -0.9963  0.0006 -0.7860
 1399SOL     OW16075   3.637   2.795   4.940 -0.1371 -0.3151 -0.3825
 1399SOL    HW116076   3.581   2.873   4.941  0.5403  0.1627  0.0181
 1399SOL    HW216077   3.576   2.722   4.956 -1.1663 -0.1304 -3.5492
 1400SOL     OW16078   0.612   3.963   3.489 -0.4714 -0.3168 -0.1341
 1400SOL    HW116079   0.697   3.985   3.451 -0.5787  0.6298  0.1844
 1400SOL    HW216080   0.567   4.047   3.499 -0.8580 -0.6602  1.0919
 1401SOL     OW16081   3.948   3.303   3.762 -0.2800 -0.1107 -0.4620
 1401SOL    HW116082   3.916   3.232   3.817  1.9537 -0.5327  0.2921
 1401SOL    HW216083   3.908   3.287   3.676 -1.8202 -0.8148  0.3847
 1402SOL     OW16084   2.849   3.594  12.499 -0.1426 -0.0205 -0.7241
 1402SOL    HW116085   2.900   3.565  12.423 -1.3329 -0.8729 -1.1988
 1402SOL    HW216086   2.805   3.514  12.530 -0.0948  0.4411  0.5089
 1403SOL     OW16087   2.025   1.755  18.091 -0.1538  0.4011  0.4971
 1403SOL    HW116088   1.941   1.729  18.053 -0.0725 -1.8489  1.8776
 1403SOL    HW216089   2.082   1.767  18.015 -0.2045 -3.3586 -0.1103
 1404SOL     OW16090   0.576   3.650   3.537  0.5119  0.8161  0.9276
 1404SOL    HW116091   0.500   3.602   3.505  0.7321 -0.0159  1.6696
 1404SOL    HW216092   0.561   3.740   3.508 -0.0662  0.3718 -0.1496
 1405SOL     OW16093   1.320   1.323  16.398  0.4556  0.2009  0.3251
 1405SOL    HW116094   1.324   1.266  16.322  1.5160  1.7015 -0.7556
 1405SOL    HW216095   1.314   1.411  16.361  2.6238  1.0378  1.9568
 1406SOL     OW16096   1.070   0.338   0.439 -0.0601  0.6738 -0.3045
 1406SOL    HW116097   1.159   0.365   0.417  0.3396 -0.3544  0.0333
 1406SOL    HW216098   1.046   0.279   0.368  0.2308 -0.5379  0.6124
 1407SOL     OW16099   4.322   3.482   1.977 -0.5023 -0.1272  0.1316
 1407SOL    HW116100   4.391   3.483   1.911 -0.3243 -1.8457  0.2834
 1407SOL    HW216101   4.363   3.519   2.056 -0.9707  2.7188 -0.9886
 1408SOL     OW16102   3.807   1.782   0.261 -0.3672 -0.8055  0.2208
 1408SOL    HW116103   3.764   1.811   0.180  0.6004  1.7082  0.6355
 1408SOL    HW216104   3.900   1.785   0.241 -0.1729 -1.2990  1.0658
 1409SOL     OW16105   2.147   4.381   5.556 -0.1497  0.3247 -0.3578
 1409SOL    HW116106   2.139   4.288   5.533  1.0975  0.2049 -0.3156
 1409SOL    HW216107   2.169   4.424   5.473 -0.0335  0.4943 -0.2369
 1410SOL     OW16108   3.347   0.436  11.205 -0.8539 -0.2790  0.7816
 1410SOL    HW116109   3.332   0.350  11.167 -1.3495 -0.0886  0.5556
 1410SOL    HW216110   3.380   0.418  11.293  0.4194 -0.7204  0.2232
 1411SOL     OW16111   3.124   4.630   2.953 -0.4588 -0.4401 -0.1475
 1411SOL    HW116112   3.200   4.572   2.945 -0.3697 -0.6235  2.0063
 1411SOL    HW216113   3.162   4.718   2.958 -0.3760 -0.5592  1.2789
 1412SOL     OW16114   3.593   1.327  15.864 -0.1213  0.5192 -0.1960
 1412SOL    HW116115   3.504   1.305  15.891  0.0046  0.1937 -0.0428
 1412SOL    HW216116   3.642   1.333  15.946  0.3231 -0.7369 -0.3724
 1413SOL     OW16117   3.864   2.428   1.289  0.1266 -0.6989  0.1828
 1413SOL    HW116118   3.856   2.335   1.267 -2.1497 -0.5619  0.4397
 1413SOL    HW216119   3.904   2.467   1.211 -2.2834 -1.2640 -1.3237
 1414SOL     OW16120   1.756   2.607  19.033  0.0349  0.2555 -0.3338
 1414SOL    HW116121   1.711   2.561  19.105 -1.4897  1.0180 -0.7864
 1414SOL    HW216122   1.801   2.679  19.076 -1.5333  1.1822 -0.2421
 1415SOL     OW16123   0.467   2.836   4.870 -0.7144  0.2493  0.0472
 1415SOL    HW116124   0.430   2.756   4.907  1.5691 -0.5844  0.5093
 1415SOL    HW216125   0.511   2.808   4.790  0.0535  1.0301  0.1876
 1416SOL     OW16126   2.309   0.586  12.121  0.4750  0.1584 -0.5323
 1416SOL    HW116127   2.250   0.648  12.164 -0.6517 -0.8813 -0.5792
 1416SOL    HW216128   2.385   0.583  12.179 -0.9892 -1.1422  1.3552
 1417SOL     OW16129   3.642   4.365  12.907 -0.5898  0.1306 -0.5044
 1417SOL    HW116130   3.607   4.444  12.948  0.3355  0.3727 -0.1888
 1417SOL    HW216131   3.728   4.354  12.946 -0.5534 -0.8072 -0.8538
 1418SOL     OW16132   3.744   1.061  11.350  0.1021 -0.3473 -0.1333
 1418SOL    HW116133   3.707   1.137  11.395  0.1487 -1.4714  1.7771
 1418SOL    HW216134   3.825   1.094  11.310 -0.4093  0.8608 -0.1753
 1419SOL     OW16135   0.857   1.857  19.801  0.3931  0.1917 -0.4050
 1419SOL    HW116136   0.798   1.783  19.817 -0.0225  0.7616  0.7028
 1419SOL    HW216137   0.802   1.924  19.761  0.7985 -0.1394 -1.5276
 1420SOL     OW16138   2.435   2.778  17.988  0.1213  0.4010 -0.2982
 1420SOL    HW116139   2.418   2.711  18.055 -1.4507  1.4114  0.3196
 1420SOL    HW216140   2.504   2.741  17.934 -0.7605 -1.7501  0.0378
 1421SOL     OW16141   1.009   3.054  10.573  0.5835  1.1332  0.6255
 1421SOL    HW116142   0.925   3.078  10.613 -0.5996 -0.6660 -0.8020
 1421SOL    HW216143   1.042   3.136  10.536 -0.6010  1.8199  1.0837
 1422SOL     OW16144   3.364   2.695   2.156  0.3315 -1.0719 -0.0119
 1422SOL    HW116145   3.280   2.697   2.110  0.2427  1.9957  0.2691
 1422SOL    HW216146   3.350   2.635   2.229 -1.7541 -0.2890  0.2363
 1423SOL     OW16147   4.126   2.840   4.375  0.0937 -0.4296  0.2611
 1423SOL    HW116148   4.170   2.840   4.460  0.5051  1.6144  0.0597
 1423SOL    HW216149   4.142   2.753   4.340  3.3334  0.0236  0.5634
 1424SOL     OW16150   2.434   4.217   2.905 -0.4807 -0.7801  0.0679
 1424SOL    HW116151   2.526   4.191   2.916 -0.5669 -0.4399  1.6091
 1424SOL    HW216152   2.438   4.296   2.852  0.1173 -0.7658  0.1275
 1425SOL     OW16153   3.756   3.379  16.755  0.5437 -0.3657  0.0352
 1425SOL    HW116154   3.674   3.379  16.707  1.0140 -0.1806 -0.7736
 1425SOL    HW216155   3.768   3.470  16.784 -0.3004 -0.7081  1.4713
 1426SOL     OW16156   3.103   1.715   7.289 -0.1678  0.1013 -0.3497
 1426SOL    HW116157   3.198   1.714   7.286 -0.1076  0.7755  1.2490
 1426SOL    HW216158   3.077   1.796   7.245  0.0007 -0.2115 -1.0101
 1427SOL     OW16159   1.455   0.773   4.904 -0.2134 -0.2893 -0.3957
 1427SOL    HW116160   1.480   0.806   4.990 -0.4290 -1.0130 -0.0540
 1427SOL    HW216161   1.360   0.783   4.900 -0.2303 -0.4663 -0.4617
 1428SOL     OW16162   4.601   2.568  17.426 -0.3548 -0.9214  0.2879
 1428SOL    HW116163   4.583   2.565  17.520 -0.6673  0.8147  0.2809
 1428SOL    HW216164   4.677   2.625  17.417 -0.7306 -0.5351 -0.5604
 1429SOL     OW16165   3.513   0.567   3.434 -0.0169 -0.3942  0.2217
 1429SOL    HW116166   3.554   0.500   3.380 -0.9097 -1.4731  0.8513
 1429SOL    HW216167   3.562   0.565   3.516  0.6008  0.4261 -0.1332
 1430SOL     OW16168   0.644   1.752  20.130  0.2594  0.3064 -0.4597
 1430SOL    HW116169   0.629   1.707  20.046  0.7612  1.8914 -1.3902
 1430SOL    HW216170   0.606   1.839  20.118 -0.1368  0.3498  1.1370
 1431SOL     OW16171   2.072   3.293  20.330 -0.0403  0.5606 -0.5384
 1431SOL    HW116172   2.023   3.230  20.276 -0.6263  1.2557 -0.8218
 1431SOL    HW216173   2.067   3.375  20.281  0.0906  1.0081  0.2006
 1432SOL     OW16174   2.700   4.396  16.481 -0.1199 -0.3954 -0.6442
 1432SOL    HW116175   2.666   4.401  16.571 -2.0262 -1.2653 -1.3179
 1432SOL    HW216176   2.698   4.486  16.449  1.2006  0.0125  0.4336
 1433SOL     OW16177   2.824   0.901  17.950 -0.0074  0.1684 -0.0193
 1433SOL    HW116178   2.803   0.992  17.970  0.1053  0.3900 -0.9185
 1433SOL    HW216179   2.900   0.881  18.005 -0.1640  0.5503  0.3329
 1434SOL     OW16180   3.717   4.772   5.609 -0.1263 -0.0663  0.5974
 1434SOL    HW116181   3.744   0.029   5.695  1.7295 -1.2285  0.4669
 1434SOL    HW216182   3.706   0.075   5.556  1.7593  0.4974  1.0283
 1435SOL     OW16183   4.010   4.304  18.290 -0.3450  0.2901  0.3094
 1435SOL    HW116184   4.045   4.243  18.355  0.4051 -0.0609 -0.4188
 1435SOL    HW216185   4.065   4.291  18.213  0.0165  2.1467  0.2658
 1436SOL     OW16186   2.380   0.308   8.062  0.5231 -0.3390  0.0512
 1436SOL    HW116187   2.445   0.318   7.993  0.0430 -0.3332 -0.3975
 1436SOL    HW216188   2.418   0.354   8.137  1.1236 -0.4995 -0.1512
 1437SOL     OW16189   2.289   0.731   4.649  0.3926  0.4808  0.2041
 1437SOL    HW116190   2.228   0.708   4.719  0.4450 -1.4101 -0.3957
 1437SOL    HW216191   2.358   0.779   4.694  0.0466 -0.0716  1.3429
 1438SOL     OW16192   2.693   0.788  19.413 -0.3785  0.4753 -0.2286
 1438SOL    HW116193   2.754   0.808  19.483  1.0357 -3.2400 -0.4409
 1438SOL    HW216194   2.657   0.702  19.435 -1.5457  0.2667 -2.9057
 1439SOL     OW16195   3.759   0.492  19.859 -0.0518  0.1380 -0.1117
 1439SOL    HW116196   3.811   0.431  19.912 -2.5583 -1.5532  0.4419
 1439SOL    HW216197   3.711   0.545  19.924  1.0372  1.7314 -0.6112
 1440SOL     OW16198   4.052   1.538  20.908 -0.1439 -0.0057 -0.0932
 1440SOL    HW116199   4.133   1.586  20.891 -0.1069 -0.2861 -0.6719
 1440SOL    HW216200   4.019   1.514  20.822 -0.3284 -0.7579  0.1882
 1441SOL     OW16201   2.535   3.101  19.354  0.1635  0.0437 -0.0814
 1441SOL    HW116202   2.523   3.109  19.449 -0.0652 -1.1103 -0.0119
 1441SOL    HW216203   2.464   3.154  19.317  2.1727  3.0769  0.4099
 1442SOL     OW16204   0.944   4.194   8.261 -0.8224  0.3639 -0.2113
 1442SOL    HW116205   1.020   4.156   8.307 -1.0137  0.0601 -0.1425
 1442SOL    HW216206   0.955   4.166   8.170 -0.3703  1.0818 -0.3756
 1443SOL     OW16207   4.539   4.073  16.525  0.0497  0.0294  0.2049
 1443SOL    HW116208   4.618   4.021  16.507  0.3824  0.7041 -0.3026
 1443SOL    HW216209   4.534   4.076  16.621 -0.0774 -1.1011  0.2328
 1444SOL     OW16210   1.275   3.984   4.368 -0.4043  0.6972 -0.4236
 1444SOL    HW116211   1.263   3.977   4.463 -0.5763 -1.1840 -0.5786
 1444SOL    HW216212   1.281   3.893   4.338  0.1898  1.3052 -2.1462
 1445SOL     OW16213   3.102   0.840   4.458  0.2215 -0.0855  0.3993
 1445SOL    HW116214   3.180   0.820   4.511 -0.8382  0.3664  2.1263
 1445SOL    HW216215   3.122   0.924   4.417  0.7542 -0.0798  0.6670
 1446SOL     OW16216   0.350   2.091  15.737 -0.3190  0.6098 -0.6302
 1446SOL    HW116217   0.356   2.004  15.776  3.0923  1.0813 -0.1842
 1446SOL    HW216218   0.356   2.151  15.811 -0.0275  1.3229 -1.2364
 1447SOL     OW16219   0.832   0.339   3.548 -0.6190 -0.3824  0.0713
 1447SOL    HW116220   0.766   0.390   3.502 -1.0227  0.3974  1.5096
 1447SOL    HW216221   0.784   0.264   3.583 -0.3141 -0.9717 -0.7834
 1448SOL     OW16222   1.343   1.111  10.541 -0.1421  0.4447 -0.2273
 1448SOL    HW116223   1.260   1.064  10.530 -0.1301  0.2639  0.4429
 1448SOL    HW216224   1.371   1.132  10.452 -1.8237  2.0962 -0.3579
 1449SOL     OW16225   4.362   0.492   1.530  0.6607 -0.4121 -0.2317
 1449SOL    HW116226   4.276   0.530   1.509  0.5903 -1.3764 -1.7169
 1449SOL    HW216227   4.388   0.535   1.611 -0.7406  0.6857 -0.3585
 1450SOL     OW16228   4.240   2.855   4.643  0.2511  0.2584 -0.5460
 1450SOL    HW116229   4.211   2.937   4.684 -2.2059 -0.9197  0.0183
 1450SOL    HW216230   4.312   2.825   4.699  0.6876  1.6542 -0.3481
 1451SOL     OW16231   2.551   4.467   5.671  0.7180  0.4551 -0.3122
 1451SOL    HW116232   2.590   4.429   5.592  0.6306  0.4372 -0.3460
 1451SOL    HW216233   2.571   4.403   5.740  1.3109  0.7554 -0.2033
 1452SOL     OW16234   3.773   2.620  21.134  0.6127  0.2959 -0.2486
 1452SOL    HW116235   3.707   2.686  21.156  0.1949 -0.7359  1.5445
 1452SOL    HW216236   3.780   2.625  21.038 -1.3560  1.0805 -0.3580
 1453SOL     OW16237   0.947   2.716  10.248  0.3648  0.3362  0.0792
 1453SOL    HW116238   1.020   2.719  10.310  0.2509  1.0355  0.1796
 1453SOL    HW216239   0.878   2.767  10.290 -0.0658 -0.0479 -0.1662
 1454SOL     OW16240   4.062   0.497   5.978  0.0248 -0.2655  0.5275
 1454SOL    HW116241   3.979   0.530   6.014 -1.0905 -2.0720 -0.3928
 1454SOL    HW216242   4.127   0.523   6.043 -1.3615  0.5074  1.6372
 1455SOL     OW16243   0.086   0.698  18.788 -0.1558 -0.2577 -0.2353
 1455SOL    HW116244   0.022   0.669  18.853 -0.8836  0.4615 -0.6278
 1455SOL    HW216245   0.125   0.617  18.754 -1.1063 -0.7100 -0.2416
 1456SOL     OW16246   2.258   0.185   1.129  0.4460  0.2975  0.0965
 1456SOL    HW116247   2.287   0.276   1.124 -0.6931  0.5722 -1.4495
 1456SOL    HW216248   2.174   0.189   1.176  1.1207 -0.1148  1.3440
 1457SOL     OW16249   0.540   2.528   1.795  0.4264 -0.2375  0.3264
 1457SOL    HW116250   0.578   2.615   1.785  0.7116 -0.5509 -1.2335
 1457SOL    HW216251   0.613   2.473   1.824 -0.2038  0.4750  3.2809
 1458SOL     OW16252   0.551   1.781   1.821  0.1337 -0.5099  0.1509
 1458SOL    HW116253   0.628   1.725   1.815  2.3149  2.6268 -1.6851
 1458SOL    HW216254   0.526   1.797   1.729 -1.1767  0.5450  0.6838
 1459SOL     OW16255   2.404   0.517  16.810  0.1420  0.1868 -0.3772
 1459SOL    HW116256   2.453   0.503  16.891 -0.2217 -1.0752 -0.3693
 1459SOL    HW216257   2.416   0.609  16.789  0.5248  0.4235  0.9318
 1460SOL     OW16258   4.625   0.799  17.009  0.1275 -0.1433 -0.4476
 1460SOL    HW116259   4.540   0.775  17.047 -0.0198  0.6787 -0.2629
 1460SOL    HW216260   4.669   0.848  17.079  0.2621  0.5022 -0.9866
 1461SOL     OW16261   1.737   1.872  16.125 -0.2037  0.2231 -0.4998
 1461SOL    HW116262   1.790   1.804  16.086 -0.2362  0.4149 -0.8755
 1461SOL    HW216263   1.776   1.954  16.095  0.7894  0.3920  1.2065
 1462SOL     OW16264   2.893   0.623   6.343  0.3568  0.0313 -0.1468
 1462SOL    HW116265   2.866   0.578   6.423  0.7019 -1.7995 -1.0727
 1462SOL    HW216266   2.977   0.663   6.365 -0.0493  0.4027  0.7352
 1463SOL     OW16267   4.078   3.457   3.257  0.1876 -0.6386 -0.2625
 1463SOL    HW116268   4.048   3.379   3.302  0.6487  0.2141  1.5065
 1463SOL    HW216269   4.011   3.523   3.275  1.6992  0.4545  1.3474
 1464SOL     OW16270   1.287   1.035   0.772 -0.1371 -0.0458 -0.4354
 1464SOL    HW116271   1.329   1.019   0.687 -0.0735  0.6498 -0.5392
 1464SOL    HW216272   1.247   1.122   0.762 -0.5735 -0.1943  0.0698
 1465SOL     OW16273   0.599   2.863   1.908 -0.0742 -0.2688 -0.0035
 1465SOL    HW116274   0.576   2.813   1.986  0.6260  2.0437  1.7199
 1465SOL    HW216275   0.689   2.892   1.924 -1.0110  2.8610 -0.2353
 1466SOL     OW16276   4.341   1.483   3.898 -0.1365 -0.2938 -0.0520
 1466SOL    HW116277   4.407   1.548   3.872 -0.9777  1.0617  1.1520
 1466SOL    HW216278   4.350   1.412   3.835  2.1402  0.1277 -0.1844
 1467SOL     OW16279   0.517   1.279   5.319  0.3012  0.0044  0.3170
 1467SOL    HW116280   0.596   1.230   5.296 -0.5317 -1.2056  0.0677
 1467SOL    HW216281   0.532   1.366   5.281  2.6213  0.5358  2.4397
 1468SOL     OW16282   2.160   0.630   0.378  0.5209 -0.1309  0.0034
 1468SOL    HW116283   2.156   0.581   0.460  1.9578  0.1712  0.2554
 1468SOL    HW216284   2.249   0.617   0.347  1.3344  3.5697  0.8371
 1469SOL     OW16285   1.332   3.882  19.077 -0.1429  0.3965 -0.0452
 1469SOL    HW116286   1.337   3.954  19.140 -1.1643  0.4519 -0.0270
 1469SOL    HW216287   1.363   3.806  19.126 -0.3020  0.5683  0.3294
 1470SOL     OW16288   2.364   1.697   3.970 -0.3827  0.2498 -0.7525
 1470SOL    HW116289   2.335   1.643   3.897 -0.3836  1.2420 -1.4933
 1470SOL    HW216290   2.341   1.786   3.944  0.4529  0.6985  0.0506
 1471SOL     OW16291   3.437   4.079  20.370  0.0774 -0.0146 -0.1244
 1471SOL    HW116292   3.468   3.988  20.372  1.0871  0.3432  0.7984
 1471SOL    HW216293   3.503   4.125  20.318  0.3061  0.4708  0.6055
 1472SOL     OW16294   4.721   4.000  18.903 -0.7024 -0.3502  0.2790
 1472SOL    HW116295   4.706   4.093  18.921 -0.4784 -0.2529 -0.0332
 1472SOL    HW216296   4.642   3.956  18.935 -0.1594 -0.2176  1.7737
 1473SOL     OW16297   1.885   4.583   5.865 -0.9485 -0.0257 -0.3560
 1473SOL    HW116298   1.799   4.545   5.848 -0.3311 -0.7022 -1.9799
 1473SOL    HW216299   1.895   4.577   5.960 -2.1867 -1.0255 -0.2791
 1474SOL     OW16300   0.034   0.387  16.371 -0.1904  0.5493 -0.3031
 1474SOL    HW116301   0.020   0.376  16.277  1.9790 -1.8591 -0.3613
 1474SOL    HW216302   0.074   0.473  16.380 -5.0343  2.8628 -1.1392
 1475SOL     OW16303   2.454   0.141   7.735  0.4838 -0.2044  0.0992
 1475SOL    HW116304   2.518   0.098   7.793  1.9844  0.9315 -0.7154
 1475SOL    HW216305   2.503   0.158   7.655 -0.1842  2.8909  0.3591
 1476SOL     OW16306   1.466   1.755   2.404 -0.0209  0.6255  0.2622
 1476SOL    HW116307   1.451   1.727   2.495 -0.0572  1.1531  0.4173
 1476SOL    HW216308   1.504   1.842   2.412 -1.5916  1.3631 -0.2675
 1477SOL     OW16309   1.105   4.344  15.187 -0.1006  0.1587  0.1157
 1477SOL    HW116310   1.171   4.279  15.213  2.1223  1.3313 -2.5400
 1477SOL    HW216311   1.076   4.314  15.101 -0.1504  1.8621 -0.4550
 1478SOL     OW16312   1.080   2.620  19.581  0.5890 -0.3537  0.3281
 1478SOL    HW116313   1.069   2.713  19.563 -2.3943 -0.8990 -0.6052
 1478SOL    HW216314   1.123   2.616  19.667  1.4131  1.8815  0.0028
 1479SOL     OW16315   1.346   2.931   9.226 -0.1765 -0.1304 -0.3692
 1479SOL    HW116316   1.426   2.881   9.244 -0.8896 -1.1468 -0.0142
 1479SOL    HW216317   1.372   3.022   9.237  0.9756 -0.4511 -0.3951
 1480SOL     OW16318   1.717   3.024   8.132 -0.1424 -0.1750  0.7386
 1480SOL    HW116319   1.784   3.025   8.064 -1.6032 -0.9344 -0.7154
 1480SOL    HW216320   1.655   3.092   8.105 -2.0632 -2.2372 -0.0504
 1481SOL     OW16321   2.013   0.689   5.975 -0.0945  0.1986 -0.4928
 1481SOL    HW116322   1.925   0.712   6.004 -0.3437 -0.8057 -0.4454
 1481SOL    HW216323   2.001   0.661   5.884  0.2421  0.4847 -0.6252
 1482SOL     OW16324   3.802   2.589  19.256 -0.1195  0.1500  0.0861
 1482SOL    HW116325   3.722   2.563  19.302 -1.9980  3.5410 -1.2636
 1482SOL    HW216326   3.788   2.560  19.166  0.8847 -0.7865  0.2329
 1483SOL     OW16327   3.157   2.965  13.340  0.3962 -0.4997  0.3032
 1483SOL    HW116328   3.092   2.897  13.358  1.7169 -1.2490  2.1706
 1483SOL    HW216329   3.106   3.046  13.343 -0.6078 -1.1460  1.0908
 1484SOL     OW16330   4.206   2.418   6.861 -0.0147  0.0913  0.1058
 1484SOL    HW116331   4.132   2.469   6.895  0.7014  1.9975 -1.1733
 1484SOL    HW216332   4.185   2.405   6.768  1.2740  0.6516 -0.2548
 1485SOL     OW16333   1.479   2.064   1.461  0.0139  0.1822  0.4441
 1485SOL    HW116334   1.519   1.989   1.506  1.3647  1.2274  0.9812
 1485SOL    HW216335   1.428   2.108   1.528  0.8410  0.8984  0.6016
 1486SOL     OW16336   3.387   0.700  16.150  0.4244 -0.2492  0.2131
 1486SOL    HW116337   3.381   0.756  16.227 -0.1214 -0.1742  0.1156
 1486SOL    HW216338   3.336   0.622  16.172  2.0985 -1.1780  0.7639
 1487SOL     OW16339   2.809   4.708   7.775 -0.7107 -0.4650  0.3254
 1487SOL    HW116340   2.836   4.728   7.864 -0.2296 -0.9069  0.2818
 1487SOL    HW216341   2.715   4.694   7.781 -1.1952  2.6700  0.1911
 1488SOL     OW16342   0.852   1.629   1.149  0.4525 -0.5978 -0.0597
 1488SOL    HW116343   0.852   1.717   1.111  1.0584  0.3813  2.1982
 1488SOL    HW216344   0.760   1.612   1.171  0.4402 -0.2222  0.1847
 1489SOL     OW16345   2.069   3.007   5.791 -0.4507 -0.3487  0.3355
 1489SOL    HW116346   2.065   3.076   5.857  0.5450 -0.5068  0.5691
 1489SOL    HW216347   2.098   3.052   5.712 -1.2540 -0.2308  0.1108
 1490SOL     OW16348   0.639   3.676   3.208  0.5044  0.4508 -0.0661
 1490SOL    HW116349   0.656   3.586   3.235  2.4055  0.1295 -2.2737
 1490SOL    HW216350   0.594   3.716   3.282 -0.2984 -2.3079  0.9358
 1491SOL     OW16351   2.634   1.335  11.855 -0.3758  0.0812 -0.0077
 1491SOL    HW116352   2.611   1.424  11.881  0.7879  0.5508 -0.5816
 1491SOL    HW216353   2.560   1.304  11.803 -1.0744  0.4669  0.7607
 1492SOL     OW16354   4.453   1.479   3.039  0.1218 -0.3910  0.1970
 1492SOL    HW116355   4.464   1.572   3.021  0.0462 -0.1585  1.3492
 1492SOL    HW216356   4.358   1.468   3.051  0.1790 -0.5195  0.5487
 1493SOL     OW16357   2.608   2.553  19.637 -0.3492  0.7510 -0.1098
 1493SOL    HW116358   2.649   2.530  19.554  1.7941 -0.9854  1.4581
 1493SOL    HW216359   2.678   2.593  19.689 -1.6078  1.5250  1.0151
 1494SOL     OW16360   3.259   1.450  16.085 -0.6185 -0.5097  0.1994
 1494SOL    HW116361   3.273   1.528  16.137  1.7733 -0.1915 -0.9207
 1494SOL    HW216362   3.299   1.379  16.136 -2.7291 -0.9862  1.1858
 1495SOL     OW16363   3.878   1.018  13.870 -0.3656  0.4729 -0.0508
 1495SOL    HW116364   3.962   0.977  13.894  0.4066  1.7219 -0.6335
 1495SOL    HW216365   3.820   0.944  13.854  0.4965 -0.4060  0.8149
 1496SOL     OW16366   3.731   4.240  18.169  0.3606 -0.0529  0.2108
 1496SOL    HW116367   3.786   4.313  18.197 -0.8275  1.4505 -1.4791
 1496SOL    HW216368   3.641   4.273  18.175 -0.2719 -1.9536  1.2677
 1497SOL     OW16369   1.600   2.766   9.326  0.0961  0.4378 -0.3560
 1497SOL    HW116370   1.661   2.823   9.372 -1.1056  0.3899  1.2666
 1497SOL    HW216371   1.655   2.694   9.294  0.9231  0.4874  0.9473
 1498SOL     OW16372   3.847   3.372   5.526  0.7211 -1.0407 -0.1457
 1498SOL    HW116373   3.929   3.323   5.529  0.8738 -0.8484 -1.0255
 1498SOL    HW216374   3.874   3.463   5.513  0.3386 -1.1141 -1.5122
 1499SOL     OW16375   0.427   4.444   3.199 -0.1254  0.1929  0.4026
 1499SOL    HW116376   0.378   4.479   3.124  2.6207  1.6516 -0.6884
 1499SOL    HW216377   0.412   4.508   3.269 -0.7262  0.0274  0.4338
 1500SOL     OW16378   2.674   1.660  16.400 -0.1369  0.2085 -0.1037
 1500SOL    HW116379   2.668   1.719  16.476  1.4235  1.8669 -1.2397
 1500SOL    HW216380   2.739   1.703  16.343  0.8949 -2.5552 -0.9893
 1501SOL     OW16381   3.637   1.239  18.609 -0.1288  0.1426 -0.5120
 1501SOL    HW116382   3.573   1.294  18.564 -1.0029 -1.3413 -1.0967
 1501SOL    HW216383   3.707   1.225  18.546 -0.4921 -0.4326 -0.7887
 1502SOL     OW16384   2.770   1.950   3.145 -0.4501 -0.5335  0.5222
 1502SOL    HW116385   2.710   1.983   3.079  1.0271  0.0207 -0.5579
 1502SOL    HW216386   2.775   1.856   3.127 -0.1137 -0.3972 -0.1091
 1503SOL     OW16387   2.070   4.276   7.389  0.4905 -0.0269 -0.0037
 1503SOL    HW116388   2.017   4.325   7.325  0.7957  1.8775  1.1825
 1503SOL    HW216389   2.151   4.256   7.343  0.5719  1.0509 -0.3310
 1504SOL     OW16390   0.384   0.780  13.268  0.3699  0.2517 -0.3183
 1504SOL    HW116391   0.470   0.739  13.278  0.4607  0.1792 -1.3931
 1504SOL    HW216392   0.401   0.860  13.218 -0.1359  0.4246 -0.2130
 1505SOL     OW16393   4.515   3.347   0.406  0.2238 -0.5616 -0.1463
 1505SOL    HW116394   4.582   3.413   0.424 -1.5475  1.2445 -0.0825
 1505SOL    HW216395   4.551   3.265   0.440  2.4508  0.3796 -0.2515
 1506SOL     OW16396   4.369   0.108   8.814 -0.0743 -0.7198  0.1202
 1506SOL    HW116397   4.449   0.104   8.868 -0.1550 -2.7819  0.0784
 1506SOL    HW216398   4.303   0.145   8.872  0.1681 -1.7544  1.0582
 1507SOL     OW16399   2.563   3.322   4.592 -0.3432 -0.0032  0.0073
 1507SOL    HW116400   2.610   3.328   4.676  0.9943  1.8388 -0.8617
 1507SOL    HW216401   2.487   3.268   4.611 -0.0127  0.3626  2.4254
 1508SOL     OW16402   1.747   3.390   3.960 -0.0205  0.2055 -0.0173
 1508SOL    HW116403   1.842   3.376   3.959 -0.3152 -1.7751 -1.1472
 1508SOL    HW216404   1.720   3.362   4.047  0.1264 -1.3817 -0.4754
 1509SOL     OW16405   3.957   2.675  16.404  0.2261 -0.1194 -0.0968
 1509SOL    HW116406   3.930   2.696  16.493  0.0015 -1.1504  0.0820
 1509SOL    HW216407   3.981   2.582  16.407 -1.9666 -0.7450 -1.6210
 1510SOL     OW16408   2.936   3.166   0.123 -0.2030 -0.6968  0.2501
 1510SOL    HW116409   2.951   3.255   0.156 -1.2344 -0.7874  0.9761
 1510SOL    HW216410   2.957   3.109   0.197  0.6407 -1.0650 -0.2746
 1511SOL     OW16411   0.652   0.375   5.649 -0.2578 -0.1090  0.8348
 1511SOL    HW116412   0.629   0.423   5.729 -0.6239 -1.5323  1.5819
 1511SOL    HW216413   0.571   0.376   5.598 -1.0349 -2.2648  2.0259
 1512SOL     OW16414   1.506   3.234  14.700  0.0978 -0.4235 -0.2882
 1512SOL    HW116415   1.562   3.227  14.777 -1.2142 -0.1345  0.6935
 1512SOL    HW216416   1.481   3.326  14.696 -2.0502 -0.9735  0.5120
 1513SOL     OW16417   2.502   3.943  18.736  0.1475 -0.6556 -0.0562
 1513SOL    HW116418   2.593   3.940  18.707 -0.0261  0.3331 -0.6875
 1513SOL    HW216419   2.475   3.851  18.737  1.3763 -1.0175  0.8563
 1514SOL     OW16420   2.625   2.994   1.295  0.3241 -0.6652  0.2507
 1514SOL    HW116421   2.572   2.929   1.250  0.2770 -0.4137 -0.0606
 1514SOL    HW216422   2.707   2.996   1.245 -0.2848  0.6728 -0.7088
 1515SOL     OW16423   0.903   2.095  14.620 -0.2478  0.8527 -0.2679
 1515SOL    HW116424   0.941   2.174  14.660  1.5469 -0.6910  1.0524
 1515SOL    HW216425   0.938   2.095  14.531  0.3791  1.0932 -0.0198
 1516SOL     OW16426   2.417   3.357  19.040 -0.2637  0.1955  0.0598
 1516SOL    HW116427   2.381   3.299  19.108 -2.2937  0.5608 -0.7245
 1516SOL    HW216428   2.471   3.299  18.986 -1.3698 -0.7280 -0.0456
 1517SOL     OW16429   4.171   1.430   9.002  0.2845  0.0219 -0.4066
 1517SOL    HW116430   4.157   1.408   9.094  0.2498 -1.2808 -0.7270
 1517SOL    HW216431   4.133   1.357   8.954  1.3117  0.1682 -1.4347
 1518SOL     OW16432   3.904   0.799  20.074 -0.0906  0.0498 -0.2593
 1518SOL    HW116433   3.932   0.734  20.139 -1.2278 -0.2673 -0.0869
 1518SOL    HW216434   3.925   0.883  20.113 -0.3392 -0.1563  0.3170
 1519SOL     OW16435   1.605   2.522   0.906 -0.0449  0.1081 -0.4395
 1519SOL    HW116436   1.700   2.525   0.914 -0.0801  0.5001 -0.1755
 1519SOL    HW216437   1.589   2.487   0.818  0.3533 -3.1267  0.7617
 1520SOL     OW16438   1.903   3.423   2.489  0.5501  0.3607 -0.0644
 1520SOL    HW116439   1.836   3.482   2.525 -0.6634 -0.6233 -0.6990
 1520SOL    HW216440   1.876   3.336   2.518  2.2068  0.0975  0.6568
 1521SOL     OW16441   0.872   2.833  15.071  0.4598  0.3653 -0.4959
 1521SOL    HW116442   0.957   2.811  15.108  0.5910 -1.1195 -1.7002
 1521SOL    HW216443   0.816   2.758  15.094 -0.8414  1.9011  1.3815
 1522SOL     OW16444   2.252   3.189   3.762  0.1224 -0.1203 -0.2878
 1522SOL    HW116445   2.213   3.155   3.843 -1.5038 -1.4672 -1.6454
 1522SOL    HW216446   2.270   3.112   3.710  1.5902  0.7289 -1.0243
 1523SOL     OW16447   4.114   0.658  19.540 -0.3122 -0.1780  0.5461
 1523SOL    HW116448   4.077   0.677  19.627  0.3012  3.1031  0.0692
 1523SOL    HW216449   4.154   0.572  19.550 -3.8141 -1.5895  2.4321
 1524SOL     OW16450   1.297   4.665   5.002 -0.2664  0.3883  0.3956
 1524SOL    HW116451   1.270   4.663   5.094  0.5354  0.3228  0.6386
 1524SOL    HW216452   1.393   4.665   5.006 -0.2295  1.3073 -0.4216
 1525SOL     OW16453   3.802   4.760   1.866  0.3708  0.1854  0.5949
 1525SOL    HW116454   3.828   4.715   1.786  0.2711  0.9348  0.1426
 1525SOL    HW216455   3.780   4.689   1.927  0.5689 -0.3844  0.0050
 1526SOL     OW16456   0.071   4.544  19.947  0.1218  0.1600  1.0759
 1526SOL    HW116457   0.095   4.569  19.857 -0.0985 -0.9273  0.7165
 1526SOL    HW216458   0.156   4.530  19.990  0.2447  1.6083  1.2960
 1527SOL     OW16459   4.751   2.431  11.921  0.8691  1.0956 -0.0268
 1527SOL    HW116460   4.724   2.428  11.829  1.0079  0.8532 -0.0595
 1527SOL    HW216461   0.062   2.391  11.922  1.0037  1.3930  0.1601
 1528SOL     OW16462   3.900   3.539   4.565  0.3048  0.6493 -0.4412
 1528SOL    HW116463   3.975   3.484   4.586  0.0880  0.4749 -0.1246
 1528SOL    HW216464   3.870   3.574   4.649 -2.5525 -2.6691 -0.0636
 1529SOL     OW16465   4.498   1.961   4.188  0.3993  0.6622  0.0608
 1529SOL    HW116466   4.546   1.979   4.269 -1.3459 -1.5963  1.5871
 1529SOL    HW216467   4.484   1.866   4.188 -1.7533  0.9749 -1.6834
 1530SOL     OW16468   3.499   4.379   5.432 -0.4139 -0.3379 -0.2933
 1530SOL    HW116469   3.494   4.444   5.502  3.5342  0.5230 -0.7872
 1530SOL    HW216470   3.503   4.430   5.351  0.7865 -1.2159 -0.7905
 1531SOL     OW16471   1.280   4.479  13.251  0.1942  0.0797 -0.0625
 1531SOL    HW116472   1.364   4.463  13.207  0.3941  0.4262  0.1985
 1531SOL    HW216473   1.291   4.564  13.293 -0.1899 -0.0111  0.2132
 1532SOL     OW16474   4.634   3.126   4.575 -0.4026  0.2556 -0.3696
 1532SOL    HW116475   4.666   3.191   4.637  0.3107 -0.6377  0.1820
 1532SOL    HW216476   4.703   3.060   4.570 -1.1551 -0.4949 -0.8926
 1533SOL     OW16477   1.438   2.621   9.508  0.3464 -1.0043 -0.3841
 1533SOL    HW116478   1.493   2.684   9.460  0.2097  0.1663  0.9774
 1533SOL    HW216479   1.361   2.672   9.534  0.2921 -1.7077  0.8360
 1534SOL     OW16480   3.277   4.056  18.792 -0.3024  0.0403 -0.0653
 1534SOL    HW116481   3.240   3.991  18.732  0.6034 -0.5849  0.0556
 1534SOL    HW216482   3.279   4.137  18.741 -3.1930  0.4171  0.3927
 1535SOL     OW16483   1.605   3.659   4.878  0.0212 -0.0897  0.2221
 1535SOL    HW116484   1.585   3.578   4.926  0.6338  0.6510  1.7428
 1535SOL    HW216485   1.681   3.695   4.924 -0.1101  1.2226 -0.6158
 1536SOL     OW16486   2.736   0.987  12.698 -0.3546  0.0903 -0.2677
 1536SOL    HW116487   2.814   1.038  12.676  0.3532 -0.9187 -0.1276
 1536SOL    HW216488   2.672   1.052  12.725  0.4652  0.9306 -0.3250
 1537SOL     OW16489   2.472   0.058   2.638 -0.0371  0.0865 -0.7515
 1537SOL    HW116490   2.497   4.769   2.704 -0.6946 -0.4913 -1.0720
 1537SOL    HW216491   2.528   0.134   2.656  0.1880 -0.2870  0.1066
 1538SOL     OW16492   0.485   1.892   4.161 -0.1351  0.3372 -0.5032
 1538SOL    HW116493   0.576   1.905   4.133  0.3201 -2.9972 -0.5827
 1538SOL    HW216494   0.491   1.877   4.255 -0.6323  0.3150 -0.4736
 1539SOL     OW16495   2.681   0.807   2.167 -0.1714  0.0639  0.1475
 1539SOL    HW116496   2.645   0.852   2.244 -0.6203 -1.3437  0.7628
 1539SOL    HW216497   2.764   0.851   2.150 -0.0887  0.3967  1.4227
 1540SOL     OW16498   0.697   1.026  18.079 -0.1579 -0.2413  0.5274
 1540SOL    HW116499   0.643   1.103  18.062 -0.7855 -0.4725  1.4717
 1540SOL    HW216500   0.711   0.987  17.993  1.6209  1.9056 -0.1682
 1541SOL     OW16501   2.573   1.589  11.856  0.3561 -0.0291 -0.0297
 1541SOL    HW116502   2.590   1.634  11.939  0.3220 -0.2027  0.0730
 1541SOL    HW216503   2.529   1.654  11.801  2.1902  0.7055 -0.6278
 1542SOL     OW16504   1.346   4.412   1.257 -0.2952 -0.0570 -0.1295
 1542SOL    HW116505   1.416   4.478   1.260 -0.2831 -0.0549 -0.4404
 1542SOL    HW216506   1.351   4.368   1.342 -0.2708  0.3101  0.0579
 1543SOL     OW16507   0.349   1.615   2.229  0.2735  0.2230 -0.1037
 1543SOL    HW116508   0.341   1.622   2.324  0.0266  2.0862 -0.2572
 1543SOL    HW216509   0.259   1.627   2.197  0.7672  2.2944 -0.7269
 1544SOL     OW16510   3.720   4.644   1.126  0.2155 -0.4260 -0.2567
 1544SOL    HW116511   3.685   4.562   1.093 -1.1700  0.0257  0.1192
 1544SOL    HW216512   3.699   4.709   1.058  1.4424 -0.3969 -0.6267
 1545SOL     OW16513   2.664   4.538  16.029 -0.4510 -0.1501  0.0390
 1545SOL    HW116514   2.577   4.520  15.991 -0.5928 -0.2767  0.4274
 1545SOL    HW216515   2.696   4.453  16.056  0.3767 -0.2808 -1.3553
 1546SOL     OW16516   3.270   0.994   0.033 -0.1500 -0.1170 -0.2635
 1546SOL    HW116517   3.354   0.949   0.026 -0.7507 -1.3141  0.2255
 1546SOL    HW216518   3.271   1.033   0.121 -0.9182 -1.7423  0.4552
 1547SOL     OW16519   1.348   2.820  16.840 -0.2962 -0.0324 -0.3734
 1547SOL    HW116520   1.364   2.773  16.922  0.1583  1.7254  0.5709
 1547SOL    HW216521   1.341   2.752  16.773  2.0735 -1.3404  0.7068
 1548SOL     OW16522   2.535   0.656   4.010  0.7430 -0.1913  0.3166
 1548SOL    HW116523   2.549   0.751   4.006  1.3606 -0.4047 -2.5630
 1548SOL    HW216524   2.440   0.646   4.003  0.6008  0.2556  1.5455
 1549SOL     OW16525   1.488   3.638   3.067  0.4620 -0.0576  0.2602
 1549SOL    HW116526   1.402   3.598   3.076  0.5456 -0.3631 -0.2796
 1549SOL    HW216527   1.525   3.635   3.155  0.9234 -2.2339 -0.0076
 1550SOL     OW16528   3.670   4.115   2.343  0.2054 -0.0738  0.0877
 1550SOL    HW116529   3.608   4.174   2.385 -0.7057 -0.4422 -0.7228
 1550SOL    HW216530   3.686   4.046   2.407 -0.9356 -0.4662 -0.0419
 1551SOL     OW16531   1.315   4.472   3.172  0.2551  0.2072  0.3385
 1551SOL    HW116532   1.344   4.553   3.214  0.9231  0.4714 -0.6084
 1551SOL    HW216533   1.281   4.501   3.087  1.1510 -0.5825 -0.2889
 1552SOL     OW16534   0.163   3.919  16.901 -0.7774 -0.2951 -0.4553
 1552SOL    HW116535   0.095   3.948  16.962 -0.1673  1.3462 -0.5493
 1552SOL    HW216536   0.227   3.990  16.902  1.3957 -2.3074  0.3760
 1553SOL     OW16537   3.329   3.064  10.448 -0.1677 -0.1082 -0.5289
 1553SOL    HW116538   3.399   3.084  10.386  0.2770 -0.9063 -0.2895
 1553SOL    HW216539   3.249   3.067  10.396 -0.1178  2.4690 -0.4458
 1554SOL     OW16540   1.647   3.900   3.271  0.9177  0.5378 -0.3649
 1554SOL    HW116541   1.710   3.950   3.219 -0.0314  2.8232  0.7136
 1554SOL    HW216542   1.597   3.966   3.319  0.8162 -1.5130  2.3516
 1555SOL     OW16543   1.625   1.860   6.378  0.0393 -0.4158  0.4596
 1555SOL    HW116544   1.549   1.911   6.406 -0.9425 -1.0841 -1.0342
 1555SOL    HW216545   1.629   1.787   6.439  0.1680  0.2507  1.2537
 1556SOL     OW16546   1.996   0.954  19.682  0.1265 -0.2948  0.5822
 1556SOL    HW116547   1.949   0.923  19.604 -0.5282  1.4220  0.2851
 1556SOL    HW216548   1.928   0.959  19.750  0.2772  0.2320  0.6955
 1557SOL     OW16549   1.576   3.786   2.134  0.0298  0.3267 -0.4645
 1557SOL    HW116550   1.514   3.832   2.191  1.0556  0.7053  0.3439
 1557SOL    HW216551   1.604   3.710   2.186  0.7874  0.5511 -0.5375
 1558SOL     OW16552   4.032   3.261  14.274  0.8817 -0.2767 -0.8061
 1558SOL    HW116553   3.950   3.250  14.323 -0.1516  0.0772 -2.4774
 1558SOL    HW216554   4.086   3.317  14.330 -0.7386  1.0430 -0.5964
 1559SOL     OW16555   1.010   4.556  15.500  0.0934  0.2530  0.0370
 1559SOL    HW116556   1.098   4.519  15.509 -0.4573 -1.2156 -0.5133
 1559SOL    HW216557   1.002   4.619  15.572  1.2780 -0.2591  0.6081
 1560SOL     OW16558   1.135   2.929   9.016 -0.4054  0.2972 -0.1119
 1560SOL    HW116559   1.154   3.017   8.982 -0.8252  0.4691  0.0950
 1560SOL    HW216560   1.210   2.907   9.071 -0.2888  0.5167 -0.1846
 1561SOL     OW16561   3.084   0.126  18.708  0.5151 -0.5900  0.2050
 1561SOL    HW116562   3.108   0.039  18.676  1.6121  0.6206 -2.2614
 1561SOL    HW216563   3.098   0.122  18.803  2.0518 -2.6191 -0.1175
 1562SOL     OW16564   3.363   1.126   5.787  0.2377 -0.3927 -0.4393
 1562SOL    HW116565   3.423   1.093   5.854  0.2437  2.7182  1.0730
 1562SOL    HW216566   3.281   1.142   5.835 -0.7171 -1.2651 -1.7973
 1563SOL     OW16567   2.656   1.124  19.771  0.7634  0.2161  0.5050
 1563SOL    HW116568   2.709   1.126  19.850  1.3993 -0.9607  0.1183
 1563SOL    HW216569   2.619   1.035  19.769 -2.2626  1.4551  1.4670
 1564SOL     OW16570   2.766   3.132   6.370 -0.3435  0.5488 -0.4290
 1564SOL    HW116571   2.828   3.103   6.438 -1.8231 -2.4887 -0.3515
 1564SOL    HW216572   2.751   3.224   6.390  1.4162  0.4034  1.7037
 1565SOL     OW16573   3.273   1.534  17.613  0.1651  0.1557  1.3213
 1565SOL    HW116574   3.348   1.585  17.645  0.1092  0.4848  0.9341
 1565SOL    HW216575   3.226   1.508  17.692  0.2062  0.6929  1.5239
 1566SOL     OW16576   0.880   2.282   9.394  0.2287 -0.1069 -0.8901
 1566SOL    HW116577   0.835   2.307   9.475  1.2737 -1.1233  0.0039
 1566SOL    HW216578   0.815   2.232   9.345  0.2094 -1.0957  0.1480
 1567SOL     OW16579   3.221   3.569   5.483  0.3632 -0.1356  0.2853
 1567SOL    HW116580   3.144   3.515   5.501 -0.9493  1.7961  0.5084
 1567SOL    HW216581   3.210   3.598   5.393  0.3430  0.9460  0.6357
 1568SOL     OW16582   1.589   4.357   0.428  0.5922  0.1947  0.4820
 1568SOL    HW116583   1.521   4.289   0.423  1.9780 -1.1399 -0.2991
 1568SOL    HW216584   1.542   4.439   0.409 -0.9641 -0.6167  0.7896
 1569SOL     OW16585   3.699   4.705   0.501  0.2116  0.4692 -0.2577
 1569SOL    HW116586   3.788   4.741   0.493  0.6111 -0.7270 -1.2952
 1569SOL    HW216587   3.713   4.615   0.530 -0.6746  0.2496 -0.5310
 1570SOL     OW16588   2.805   0.980   4.215 -0.5482  0.1499  0.0129
 1570SOL    HW116589   2.788   1.025   4.298 -1.9615  0.1334 -0.2662
 1570SOL    HW216590   2.746   0.905   4.217 -0.7857  0.3073 -1.1291
 1571SOL     OW16591   3.060   1.089   0.402  0.5605  0.6644  0.2545
 1571SOL    HW116592   2.974   1.046   0.404  0.3742  1.1160  1.8905
 1571SOL    HW216593   3.073   1.121   0.491  2.3258  0.8096 -0.0535
 1572SOL     OW16594   0.650   2.720   3.820 -0.4454 -0.4133 -0.1098
 1572SOL    HW116595   0.599   2.761   3.890  0.2529  1.0485 -0.4662
 1572SOL    HW216596   0.712   2.663   3.866 -0.1170  0.4020  0.4492
 1573SOL     OW16597   2.040   0.630  16.106  0.4033  0.2827 -0.4902
 1573SOL    HW116598   1.958   0.580  16.111 -0.2899  1.5382  0.8090
 1573SOL    HW216599   2.103   0.578  16.156  0.0084  0.0773 -0.2061
 1574SOL     OW16600   3.440   2.883  10.605 -0.9576 -0.4384 -0.0184
 1574SOL    HW116601   3.383   2.921  10.539 -1.2512 -0.6750  0.0948
 1574SOL    HW216602   3.400   2.909  10.689 -0.7931 -0.4448  0.0624
 1575SOL     OW16603   2.956   0.248  12.013 -0.2080  0.0249 -0.4296
 1575SOL    HW116604   2.921   0.296  11.938  0.0908  1.6604  0.4667
 1575SOL    HW216605   2.920   0.160  12.004 -2.4428  0.9901 -0.9350
 1576SOL     OW16606   1.944   2.767  10.822  0.2642 -0.3407  0.4413
 1576SOL    HW116607   1.929   2.719  10.903 -0.5564 -0.1883  0.3797
 1576SOL    HW216608   1.909   2.711  10.753 -2.2248  1.0936  0.5387
 1577SOL     OW16609   2.275   3.845  20.137 -0.2397  0.3085 -0.2306
 1577SOL    HW116610   2.199   3.898  20.111 -1.2151 -0.8479  0.2331
 1577SOL    HW216611   2.261   3.761  20.093 -0.1811 -0.5202  1.3351
 1578SOL     OW16612   1.614   2.662  18.415 -0.7479  0.0770  0.1058
 1578SOL    HW116613   1.653   2.688  18.332 -0.9912 -1.1522 -0.3815
 1578SOL    HW216614   1.625   2.739  18.471  0.7252  0.3800 -0.6043
 1579SOL     OW16615   0.181   0.192   4.492 -0.5489 -0.5442 -0.1129
 1579SOL    HW116616   0.259   0.153   4.454 -0.5396 -1.3839  0.7629
 1579SOL    HW216617   0.214   0.253   4.558 -0.5714  0.7549 -1.2878
 1580SOL     OW16618   1.476   4.609  20.603  0.1924  0.0293 -0.0646
 1580SOL    HW116619   1.436   4.678  20.656 -0.6647 -0.5595  0.0697
 1580SOL    HW216620   1.570   4.626  20.607  0.1184  0.0488  1.5556
 1581SOL     OW16621   2.013   2.952  10.233 -0.0906 -0.0329 -0.0659
 1581SOL    HW116622   2.078   3.014  10.263 -0.0320 -1.4117  2.7286
 1581SOL    HW216623   1.937   3.005  10.208  1.5957  1.4500 -1.9581
 1582SOL     OW16624   0.949   1.227   1.801 -0.7688 -0.4999  0.0112
 1582SOL    HW116625   0.988   1.234   1.888  0.4570 -0.8736 -0.5161
 1582SOL    HW216626   1.003   1.283   1.746  0.2003 -2.5817 -1.1322
 1583SOL     OW16627   3.992   2.367   5.881  0.4538  0.0181 -0.7724
 1583SOL    HW116628   3.955   2.452   5.857  0.8242 -0.2837 -2.4054
 1583SOL    HW216629   4.082   2.370   5.848  0.9955 -0.3520  0.6775
 1584SOL     OW16630   1.099   3.353   3.062  0.6733 -0.0428 -0.5672
 1584SOL    HW116631   1.132   3.399   3.139 -0.4498 -0.8511  0.3987
 1584SOL    HW216632   1.011   3.388   3.049 -0.0429 -1.6936 -0.0460
 1585SOL     OW16633   4.293   3.769  10.668 -0.2168  0.1164  1.0804
 1585SOL    HW116634   4.234   3.820  10.613  1.2013  1.5949  0.9356
 1585SOL    HW216635   4.377   3.816  10.664  1.1838 -2.3943  0.6517
 1586SOL     OW16636   0.627   4.403  18.584  0.0967  0.5136  0.3181
 1586SOL    HW116637   0.606   4.356  18.504 -3.3150  0.1655  1.4176
 1586SOL    HW216638   0.580   4.486  18.577 -1.3266 -0.0833  2.5505
 1587SOL     OW16639   0.184   3.909   6.048  0.5167  0.1469 -0.3365
 1587SOL    HW116640   0.169   3.895   5.954  2.2633 -0.2390 -0.5664
 1587SOL    HW216641   0.279   3.898   6.058  0.3190  0.2053  1.4718
 1588SOL     OW16642   0.465   1.261   4.296 -0.6384  0.5987  0.0661
 1588SOL    HW116643   0.389   1.294   4.345 -1.3964 -0.7150 -0.2393
 1588SOL    HW216644   0.429   1.239   4.210  0.3682  1.3169 -0.5320
 1589SOL     OW16645   3.100   1.927  16.202 -0.7497  0.0223 -0.3127
 1589SOL    HW116646   3.013   1.889  16.211 -1.0349  0.3689 -1.5366
 1589SOL    HW216647   3.123   1.958  16.289 -0.7817 -2.4164  0.5754
 1590SOL     OW16648   2.983   1.263   1.713  0.3354  0.5468  0.1643
 1590SOL    HW116649   3.031   1.182   1.732  0.5197  0.3134 -1.2880
 1590SOL    HW216650   2.969   1.303   1.798 -0.8377 -1.6590  1.0339
 1591SOL     OW16651   1.222   0.847  20.088 -0.9047 -0.0824  0.2156
 1591SOL    HW116652   1.167   0.877  20.016 -0.7624 -0.2598  0.0305
 1591SOL    HW216653   1.179   0.879  20.167  0.2074  2.1584 -0.0718
 1592SOL     OW16654   1.348   1.445  14.217  0.2702  0.3522  0.1000
 1592SOL    HW116655   1.404   1.492  14.155 -0.3721 -0.6880 -1.2475
 1592SOL    HW216656   1.353   1.354  14.191 -0.6815  0.0253  1.0429
 1593SOL     OW16657   2.640   3.450  21.023  0.4372  0.0167 -0.0107
 1593SOL    HW116658   2.726   3.420  20.995  0.5559 -0.0976  0.4678
 1593SOL    HW216659   2.603   3.494  20.946  0.8939  0.0044 -0.2367
 1594SOL     OW16660   0.305   1.683   1.214 -0.0962 -0.7205  0.3832
 1594SOL    HW116661   0.289   1.613   1.151 -0.3719 -1.2914  1.0909
 1594SOL    HW216662   0.295   1.764   1.163 -2.7248 -1.1359  0.2533
 1595SOL     OW16663   4.151   1.129   3.612 -0.0872  0.0758 -0.0035
 1595SOL    HW116664   4.072   1.075   3.606  0.0959 -0.1155 -0.6286
 1595SOL    HW216665   4.128   1.209   3.565 -0.2565  0.4265  0.6723
 1596SOL     OW16666   1.298   0.030   5.454  0.1573  0.0762  0.1554
 1596SOL    HW116667   1.254   0.008   5.372 -0.3860  1.2515  0.1354
 1596SOL    HW216668   1.227   0.051   5.515  0.6636  1.4907  0.2576
 1597SOL     OW16669   4.627   1.121  17.026 -0.0582  0.2958  0.3450
 1597SOL    HW116670   4.541   1.084  17.004  0.5904 -0.1740 -1.3426
 1597SOL    HW216671   4.663   1.058  17.089 -0.6315  0.0920  0.4757
 1598SOL     OW16672   2.534   4.123  11.007  0.2275 -0.3152 -0.0034
 1598SOL    HW116673   2.537   4.150  10.915 -0.1520 -2.6557 -0.6982
 1598SOL    HW216674   2.611   4.165  11.046 -0.4658  1.9410 -1.0383
 1599SOL     OW16675   1.883   3.559  19.184 -0.1354 -0.0893  1.0728
 1599SOL    HW116676   1.977   3.576  19.193 -0.2092 -0.0787  1.8236
 1599SOL    HW216677   1.869   3.555  19.090  0.3531  1.4266  0.9288
 1600SOL     OW16678   4.423   1.330   1.906 -0.3036  0.6792 -0.5455
 1600SOL    HW116679   4.421   1.314   1.812 -2.2915 -0.3075 -0.3435
 1600SOL    HW216680   4.516   1.329   1.929  0.0058 -2.5335 -1.8967
 1601SOL     OW16681   0.786   0.270   5.192 -0.1736 -0.3867 -0.0612
 1601SOL    HW116682   0.791   0.341   5.257 -1.6871 -1.0912  0.8115
 1601SOL    HW216683   0.718   0.299   5.131 -0.9116 -1.1754  0.3923
 1602SOL     OW16684   2.253   2.340   1.685  0.1103 -0.0356  0.5584
 1602SOL    HW116685   2.264   2.378   1.598 -1.5181 -0.2811  0.2497
 1602SOL    HW216686   2.265   2.413   1.745 -0.9373  0.5529  0.0475
 1603SOL     OW16687   3.287   1.451   1.197 -0.4121  0.9996  0.3542
 1603SOL    HW116688   3.229   1.421   1.126 -1.6382  0.5159  1.5604
 1603SOL    HW216689   3.229   1.500   1.255  0.5219  1.0621  1.2239
 1604SOL     OW16690   4.420   1.734  10.156  0.2102 -0.0656  0.1343
 1604SOL    HW116691   4.341   1.752  10.104 -0.0758  0.7096  0.8372
 1604SOL    HW216692   4.443   1.819  10.194  1.6389 -0.2171 -0.4268
 1605SOL     OW16693   0.459   2.766  18.115 -0.3747  0.0818 -0.0740
 1605SOL    HW116694   0.488   2.690  18.166  1.0701  0.9512  0.4035
 1605SOL    HW216695   0.503   2.841  18.157 -0.3012  0.9541 -1.7235
 1606SOL     OW16696   1.301   3.144   0.792  0.2700 -0.7872 -0.2359
 1606SOL    HW116697   1.365   3.193   0.843 -0.3130 -1.1595  0.8426
 1606SOL    HW216698   1.238   3.210   0.762  0.2342 -0.6781  0.0862
 1607SOL     OW16699   0.705   3.373   4.374 -0.2716 -0.2753  0.0308
 1607SOL    HW116700   0.657   3.351   4.294 -0.8884  0.4930  0.1910
 1607SOL    HW216701   0.656   3.446   4.412  0.6658  0.0901  0.5253
 1608SOL     OW16702   3.460   4.090   3.581 -0.0162 -0.0270  0.1764
 1608SOL    HW116703   3.435   4.182   3.569  0.5828 -0.0745 -1.4997
 1608SOL    HW216704   3.542   4.094   3.630 -0.6287  0.2999  1.1705
 1609SOL     OW16705   2.871   2.588  15.858 -0.2700  0.2023 -0.7345
 1609SOL    HW116706   2.926   2.661  15.826  0.1787  0.3667  0.4196
 1609SOL    HW216707   2.877   2.522  15.789  0.1442  0.8500 -1.3217
 1610SOL     OW16708   1.447   4.383  15.191  0.4956 -0.1041  0.3653
 1610SOL    HW116709   1.370   4.370  15.136  0.3148 -0.9412  0.8097
 1610SOL    HW216710   1.517   4.336  15.144  0.8375  1.0544 -0.2780
 1611SOL     OW16711   4.553   2.934   4.240  0.3702 -0.0732 -0.6776
 1611SOL    HW116712   4.460   2.949   4.221  0.2084 -0.8859 -0.5132
 1611SOL    HW216713   4.593   3.021   4.233 -0.1694  0.0567 -2.0272
 1612SOL     OW16714   2.747   3.800   3.944 -0.3291  0.1940 -0.2342
 1612SOL    HW116715   2.768   3.708   3.964  0.0614  0.7282  1.7418
 1612SOL    HW216716   2.782   3.813   3.856  1.9767 -0.7741  0.5462
 1613SOL     OW16717   2.317   4.726  17.518  0.3197 -0.3799 -0.8304
 1613SOL    HW116718   2.318   0.046  17.514 -0.0890 -0.4126 -1.5915
 1613SOL    HW216719   2.410   4.702  17.514  0.5627  0.0916  1.8100
 1614SOL     OW16720   0.293   3.625   5.447 -0.1151  0.0088 -0.7288
 1614SOL    HW116721   0.316   3.641   5.355 -0.0371  0.5993 -0.6060
 1614SOL    HW216722   0.197   3.625   5.448 -0.1212 -1.7563 -1.1181
 1615SOL     OW16723   0.771   0.933   4.499  0.4299 -0.3085 -0.4313
 1615SOL    HW116724   0.863   0.909   4.503 -0.2737 -3.0892 -0.4089
 1615SOL    HW216725   0.754   0.946   4.405  0.8433  0.1622 -0.4390
 1616SOL     OW16726   4.218   3.906  18.356  0.1723  0.5248 -0.0016
 1616SOL    HW116727   4.156   3.891  18.284 -2.1878  2.0225  1.6956
 1616SOL    HW216728   4.231   3.819  18.395  2.4836 -0.5042 -3.0693
 1617SOL     OW16729   3.800   0.260   6.546  0.0020 -0.7098  0.2886
 1617SOL    HW116730   3.865   0.225   6.485  1.1813 -0.0203  1.1310
 1617SOL    HW216731   3.846   0.331   6.592 -0.5803 -1.8582  2.6441
 1618SOL     OW16732   3.850   1.001   6.145  1.2188  0.3043 -0.1384
 1618SOL    HW116733   3.921   0.950   6.184  0.3692 -2.5845 -2.3253
 1618SOL    HW216734   3.880   1.019   6.056  0.4076  1.4520 -0.1755
 1619SOL     OW16735   2.225   3.896  12.812  0.1804 -0.5405 -0.1657
 1619SOL    HW116736   2.244   3.989  12.802  0.2076 -0.6102 -0.7616
 1619SOL    HW216737   2.235   3.879  12.906 -0.1382  0.1231 -0.0168
 1620SOL     OW16738   3.161   2.456   1.673 -0.5273  0.1988 -0.1607
 1620SOL    HW116739   3.084   2.463   1.729  0.1659 -0.1013  0.8132
 1620SOL    HW216740   3.145   2.378   1.621 -0.6066 -0.1919  0.4526
 1621SOL     OW16741   3.475   0.647   5.700 -0.2512 -0.2497 -0.4221
 1621SOL    HW116742   3.496   0.609   5.614 -1.8758 -1.1910 -0.3920
 1621SOL    HW216743   3.490   0.741   5.688  4.0884 -0.9560 -0.3793
 1622SOL     OW16744   4.181   1.916  15.846  0.3573 -0.7306 -0.7592
 1622SOL    HW116745   4.168   1.886  15.756  1.5892 -0.8650 -0.8879
 1622SOL    HW216746   4.166   2.011  15.842  0.4781 -0.7285 -1.1081
 1623SOL     OW16747   2.855   3.380   4.144  0.3510  0.0116 -0.3617
 1623SOL    HW116748   2.930   3.432   4.176 -0.9742  2.3918 -1.1041
 1623SOL    HW216749   2.813   3.348   4.223 -0.4697  2.4239  0.1936
 1624SOL     OW16750   0.420   1.912   4.825  0.7529 -0.3856 -0.2125
 1624SOL    HW116751   0.507   1.925   4.789  0.8399 -0.2634  0.0373
 1624SOL    HW216752   0.381   1.842   4.772  0.3470  0.7883 -1.4617
 1625SOL     OW16753   2.080   1.931   0.616 -0.5375 -0.1116 -0.6132
 1625SOL    HW116754   2.164   1.909   0.656  0.3109  1.8548 -1.3200
 1625SOL    HW216755   2.058   1.854   0.563 -0.3778 -1.6178  1.5019
 1626SOL     OW16756   2.936   4.242   3.837  0.7765  0.2168 -0.2122
 1626SOL    HW116757   2.893   4.292   3.906 -0.5235 -0.4950 -0.5096
 1626SOL    HW216758   2.942   4.153   3.871 -1.3499 -0.4837 -1.6982
 1627SOL     OW16759   4.487   3.137  17.745  0.4251 -0.0672  0.3478
 1627SOL    HW116760   4.522   3.164  17.660 -0.6063 -1.3067 -0.4804
 1627SOL    HW216761   4.529   3.053  17.762 -2.3748 -1.7121 -0.8008
 1628SOL     OW16762   2.365   1.748   2.766 -0.1381 -0.2123 -0.1085
 1628SOL    HW116763   2.412   1.761   2.683 -0.5455 -1.5088 -0.5517
 1628SOL    HW216764   2.277   1.780   2.749  0.1763  0.8371  0.2595
 1629SOL     OW16765   0.727   3.720   1.442 -0.0670 -0.5406 -0.0205
 1629SOL    HW116766   0.749   3.654   1.508  0.6632  1.1008  1.3658
 1629SOL    HW216767   0.635   3.741   1.459 -0.1846 -0.9077 -0.2055
 1630SOL     OW16768   4.256   1.007  17.244  0.1441 -0.1073  0.0657
 1630SOL    HW116769   4.288   1.062  17.316  0.9012  0.1808 -0.4893
 1630SOL    HW216770   4.161   1.016  17.247  0.1850  0.0173  0.9506
 1631SOL     OW16771   3.494   3.548  13.744 -0.7477  0.5089 -0.4349
 1631SOL    HW116772   3.453   3.596  13.816 -1.4076  1.0857 -1.1978
 1631SOL    HW216773   3.437   3.472  13.730 -0.3369  0.1239  0.0021
 1632SOL     OW16774   3.993   2.406  16.452 -0.0631  0.3239 -0.0292
 1632SOL    HW116775   3.977   2.402  16.546  0.4299  1.2812  0.0955
 1632SOL    HW216776   3.932   2.343  16.414 -0.2664 -0.0503  0.9326
 1633SOL     OW16777   0.664   4.761  20.287  0.3515  0.1695  0.4390
 1633SOL    HW116778   0.755   4.768  20.313  0.9091 -2.2117 -0.8073
 1633SOL    HW216779   0.666   4.763  20.191 -0.7343 -1.5799  0.3684
 1634SOL     OW16780   2.448   0.856  13.210 -0.7436  0.6890  0.3080
 1634SOL    HW116781   2.511   0.895  13.150 -0.2011 -1.1699 -0.3585
 1634SOL    HW216782   2.378   0.920  13.217  0.5027  2.1000 -0.1512
 1635SOL     OW16783   1.108   4.168   3.794  0.0756 -0.3824  0.0430
 1635SOL    HW116784   1.116   4.205   3.882 -0.2595 -0.2518  0.0180
 1635SOL    HW216785   1.178   4.103   3.789 -0.8554 -1.4662  0.9430
 1636SOL     OW16786   3.521   0.521   1.606 -0.0897 -0.4762  0.6809
 1636SOL    HW116787   3.502   0.462   1.534 -1.3143  0.2061  0.4456
 1636SOL    HW216788   3.506   0.468   1.685 -0.6017 -0.6542  0.4630
 1637SOL     OW16789   4.467   1.647   0.623 -0.1573  0.0525  0.3051
 1637SOL    HW116790   4.493   1.738   0.610  0.9295 -0.1924  0.6789
 1637SOL    HW216791   4.490   1.604   0.541 -2.2524  0.4748 -0.4775
 1638SOL     OW16792   4.384   1.827  16.661  0.5998  0.2291 -0.1749
 1638SOL    HW116793   4.410   1.852  16.572  0.0326  0.6250 -0.2304
 1638SOL    HW216794   4.364   1.734  16.655 -2.0319  0.8321 -1.0690
 1639SOL     OW16795   2.806   0.192  19.369  0.4116  0.1690 -0.2623
 1639SOL    HW116796   2.749   0.120  19.397  0.1916  0.7650  0.8364
 1639SOL    HW216797   2.863   0.153  19.302 -1.5715 -0.3266 -1.6745
 1640SOL     OW16798   4.643   1.507   6.061  0.4600 -0.3051  0.1364
 1640SOL    HW116799   4.654   1.416   6.032  0.4385 -0.4210  0.4937
 1640SOL    HW216800   4.589   1.501   6.139  0.4208  0.0213  0.1351
 1641SOL     OW16801   3.556   3.736   5.103  0.4239  0.1587 -0.2978
 1641SOL    HW116802   3.610   3.798   5.152 -0.6367  0.1533  0.8657
 1641SOL    HW216803   3.466   3.760   5.124 -0.0403  0.0425 -2.0858
 1642SOL     OW16804   2.906   1.640  17.579 -0.2515  0.1710 -0.1395
 1642SOL    HW116805   2.844   1.568  17.577 -0.1104  0.0707 -0.7554
 1642SOL    HW216806   2.852   1.719  17.572 -0.2015  0.0395 -1.9539
 1643SOL     OW16807   4.508   1.413  16.425  0.0351  0.5471  0.0522
 1643SOL    HW116808   4.474   1.339  16.376 -1.3701 -0.5285  2.6396
 1643SOL    HW216809   4.492   1.489  16.369  1.0709 -1.0554 -2.3989
 1644SOL     OW16810   1.366   0.321  17.459 -0.0781  0.5522 -0.4511
 1644SOL    HW116811   1.340   0.407  17.491 -1.8730  0.1374 -0.7724
 1644SOL    HW216812   1.392   0.335  17.368  0.7094  0.9537 -0.1605
 1645SOL     OW16813   3.956   0.655  20.679 -0.3446  0.2431  0.3722
 1645SOL    HW116814   3.993   0.742  20.666 -2.8424  1.2206 -0.1655
 1645SOL    HW216815   3.949   0.646  20.774  1.5333 -0.0443  0.4809
 1646SOL     OW16816   2.113   3.883  15.449 -0.0630  0.5088 -0.5451
 1646SOL    HW116817   2.022   3.877  15.478  0.4069  0.7363  0.9788
 1646SOL    HW216818   2.112   3.851  15.359 -1.4576 -0.5849 -0.1397
 1647SOL     OW16819   1.437   3.974   6.594  0.1141 -0.0425 -0.0066
 1647SOL    HW116820   1.474   3.952   6.508 -1.4110 -2.0140 -0.1487
 1647SOL    HW216821   1.409   4.066   6.584 -0.4613 -0.3920 -1.7657
 1648SOL     OW16822   4.129   3.461  16.838  0.1220  0.0995 -0.6770
 1648SOL    HW116823   4.083   3.452  16.755 -0.3355 -1.7134 -0.2312
 1648SOL    HW216824   4.169   3.548  16.834 -3.1659  1.5767 -1.1435
 1649SOL     OW16825   4.498   1.405  18.391 -0.0053  0.3264 -0.7369
 1649SOL    HW116826   4.415   1.450  18.402  0.6739  1.7934 -1.6706
 1649SOL    HW216827   4.478   1.313  18.410 -1.4852  0.9377  0.6441
 1650SOL     OW16828   1.969   3.619  11.775 -0.4416 -0.3241  0.4739
 1650SOL    HW116829   1.906   3.628  11.703 -0.0323  2.3820  0.4554
 1650SOL    HW216830   2.054   3.619  11.731 -0.2473  0.1602  0.8570
 1651SOL     OW16831   2.208   4.734   0.140  0.0357  0.1411 -0.2696
 1651SOL    HW116832   2.272   4.734   0.211 -2.3633  2.3548  1.8455
 1651SOL    HW216833   2.257   4.768   0.065  2.2873 -1.3073  0.5262
 1652SOL     OW16834   4.572   3.097   7.398  0.0453  0.6320  0.0174
 1652SOL    HW116835   4.542   3.176   7.442 -1.0841  0.4667 -0.4588
 1652SOL    HW216836   4.540   3.106   7.308  0.1688 -0.2246 -0.1127
 1653SOL     OW16837   3.509   2.848   1.842 -0.4677  0.0400  0.1596
 1653SOL    HW116838   3.451   2.890   1.905 -0.4210 -0.2786  0.4117
 1653SOL    HW216839   3.470   2.762   1.826 -1.3453  0.7473 -1.4414
 1654SOL     OW16840   0.733   3.691  10.230  0.1976 -0.0220  0.0218
 1654SOL    HW116841   0.771   3.754  10.169 -0.0084  1.4800  1.4756
 1654SOL    HW216842   0.707   3.742  10.306 -1.9597 -1.5219  0.2963
 1655SOL     OW16843   3.599   3.130  13.232  0.5448 -0.2205 -0.6888
 1655SOL    HW116844   3.576   3.085  13.150  0.4935 -0.4539 -0.5466
 1655SOL    HW216845   3.543   3.089  13.298 -0.5864  1.0918 -0.8243
 1656SOL     OW16846   4.038   3.847  19.156  0.6388  0.7813 -0.1104
 1656SOL    HW116847   4.051   3.875  19.246  0.4758  2.0223 -0.4710
 1656SOL    HW216848   3.943   3.853  19.142  0.6313  0.2843 -0.2512
 1657SOL     OW16849   0.771   4.478   6.440  0.0541 -0.0220  0.7271
 1657SOL    HW116850   0.850   4.452   6.393  0.3720  2.2043  0.0647
 1657SOL    HW216851   0.701   4.426   6.400  0.9048 -0.7717  0.2074
 1658SOL     OW16852   3.117   3.200   2.405 -0.1908 -0.1777 -0.1543
 1658SOL    HW116853   3.163   3.116   2.410 -0.9630 -0.5728  0.2898
 1658SOL    HW216854   3.057   3.190   2.331 -0.4674 -0.1063  0.0610
 1659SOL     OW16855   2.943   1.341  18.065 -0.8322 -0.1994 -0.2626
 1659SOL    HW116856   2.916   1.417  18.014  0.4066 -0.1363 -0.8037
 1659SOL    HW216857   3.016   1.372  18.118  1.0427 -1.5687 -2.0274
 1660SOL     OW16858   2.681   0.945  10.971 -0.3360  0.5567  0.6237
 1660SOL    HW116859   2.621   0.884  10.930 -0.2393  0.9647 -0.1295
 1660SOL    HW216860   2.767   0.921  10.937 -0.5925  2.6018 -1.4646
 1661SOL     OW16861   0.383   1.844  18.376  0.6183 -0.3658 -0.6170
 1661SOL    HW116862   0.353   1.769  18.427  0.4096  0.8580  1.0548
 1661SOL    HW216863   0.460   1.876  18.423  0.5378  0.6380 -1.1663
 1662SOL     OW16864   4.303   2.134   0.794  0.1040  0.1339 -0.3250
 1662SOL    HW116865   4.247   2.146   0.871  1.7931  0.3023  0.8581
 1662SOL    HW216866   4.355   2.056   0.813  1.5215  0.9929 -0.7063
 1663SOL     OW16867   1.984   0.782   2.522  0.2554  0.1566  0.3059
 1663SOL    HW116868   1.895   0.776   2.555  0.6323  2.4171  1.7918
 1663SOL    HW216869   1.997   0.876   2.506  1.8052 -0.3566 -1.4247
 1664SOL     OW16870   0.153   3.530   4.661  0.2009 -0.3702  0.0977
 1664SOL    HW116871   0.088   3.542   4.730  0.3764  2.2404 -0.2007
 1664SOL    HW216872   0.167   3.617   4.625  2.1624 -1.2868 -1.3981
 1665SOL     OW16873   1.980   3.886   2.693 -0.0638 -0.8415  0.4705
 1665SOL    HW116874   1.972   3.794   2.718  0.5212 -0.9173  0.3771
 1665SOL    HW216875   1.891   3.914   2.673  0.0567 -2.0053 -1.6716
 1666SOL     OW16876   1.391   1.042   6.115  0.0521  0.4342  0.0570
 1666SOL    HW116877   1.481   1.048   6.083 -0.7569 -1.7543 -2.5894
 1666SOL    HW216878   1.338   1.075   6.043 -1.4608 -0.7147  0.6417
 1667SOL     OW16879   2.237   1.267   8.998 -0.1945 -0.0887  0.9684
 1667SOL    HW116880   2.211   1.309   8.916  2.2386  0.5620  0.5138
 1667SOL    HW216881   2.194   1.318   9.066 -1.5571 -0.1181  0.1157
 1668SOL     OW16882   1.784   3.054  16.651  0.1348  0.2528 -0.4391
 1668SOL    HW116883   1.840   3.027  16.723 -1.7621 -0.6747  0.6782
 1668SOL    HW216884   1.696   3.022  16.675 -0.8885  1.8152 -2.1121
 1669SOL     OW16885   2.121   4.718  18.355 -0.1188  0.8250  0.5046
 1669SOL    HW116886   2.172   0.023  18.355 -0.1843  0.8661  0.2399
 1669SOL    HW216887   2.091   4.708  18.265  0.5044  0.1151  0.3776
 1670SOL     OW16888   2.747   0.963   4.642 -0.8074 -0.2213 -0.0979
 1670SOL    HW116889   2.806   0.964   4.718  0.4815  1.8812 -1.1075
 1670SOL    HW216890   2.762   0.878   4.601 -0.5571 -0.8458  1.2770
 1671SOL     OW16891   2.359   1.544  16.809  0.0608  0.6546 -0.1312
 1671SOL    HW116892   2.373   1.486  16.883  2.2680 -0.1525 -1.1657
 1671SOL    HW216893   2.315   1.620  16.846  1.1420  0.2463  2.0151
 1672SOL     OW16894   3.236   1.554  13.276 -0.0161 -0.3574 -0.7383
 1672SOL    HW116895   3.235   1.553  13.372 -0.8671 -0.4876 -0.7408
 1672SOL    HW216896   3.229   1.647  13.253  0.1144 -0.3310 -0.6695
 1673SOL     OW16897   2.100   2.303   7.542  0.3588 -0.0135 -0.1306
 1673SOL    HW116898   2.176   2.246   7.541  0.6225  0.3372  0.3035
 1673SOL    HW216899   2.096   2.338   7.453 -0.8024 -2.0389 -0.8954
 1674SOL     OW16900   2.675   4.232   7.276 -0.2236  0.3872  0.0290
 1674SOL    HW116901   2.612   4.253   7.345  1.0295  1.0065  0.9644
 1674SOL    HW216902   2.676   4.310   7.220 -2.1032 -0.5573 -1.3390
 1675SOL     OW16903   0.759   3.195  17.555  0.9599 -0.3972 -0.1572
 1675SOL    HW116904   0.789   3.175  17.643  0.9483 -0.1196 -0.0891
 1675SOL    HW216905   0.831   3.247  17.517 -0.0605  1.4956  0.4961
 1676SOL     OW16906   4.415   2.945  19.747 -0.1621 -0.2594 -0.4159
 1676SOL    HW116907   4.322   2.968  19.740  0.3386  1.7674 -0.4732
 1676SOL    HW216908   4.415   2.851  19.766 -2.1993 -0.5214 -1.6136
 1677SOL     OW16909   3.467   4.748   2.337  0.2368 -0.0464  0.6838
 1677SOL    HW116910   3.546   4.701   2.314  0.1287 -0.3257  0.8796
 1677SOL    HW216911   3.402   4.679   2.355 -0.1800  0.1852  0.0692
 1678SOL     OW16912   3.493   3.265   5.703 -0.0327 -0.3853 -0.2739
 1678SOL    HW116913   3.579   3.289   5.737  0.9582 -1.7736 -1.7769
 1678SOL    HW216914   3.474   3.333   5.638  0.4477 -0.7461 -0.7896
 1679SOL     OW16915   2.275   4.641   3.378 -0.2394  0.3078  0.7121
 1679SOL    HW116916   2.312   4.724   3.407 -1.0672  0.8436  0.2031
 1679SOL    HW216917   2.351   4.587   3.357  0.1870  2.0459 -2.1202
 1680SOL     OW16918   0.863   3.557  16.811 -0.1152  0.6263 -0.8526
 1680SOL    HW116919   0.809   3.479  16.802  0.2402  0.5930 -2.7254
 1680SOL    HW216920   0.811   3.627  16.771  0.0867  1.0997 -0.2844
 1681SOL     OW16921   4.255   0.741  20.993 -0.4448 -0.5996 -0.2866
 1681SOL    HW116922   4.173   0.693  21.006  0.2079 -1.0360  2.1313
 1681SOL    HW216923   4.321   0.687  21.036  0.8784  0.5241 -0.9242
 1682SOL     OW16924   1.432   0.864  18.268  0.3984  0.3322 -0.3877
 1682SOL    HW116925   1.441   0.860  18.173  0.2071  0.5967 -0.4176
 1682SOL    HW216926   1.446   0.774  18.298 -3.0154 -0.3616 -0.9486
 1683SOL     OW16927   2.192   0.552  18.422 -0.4422 -0.1573 -0.2660
 1683SOL    HW116928   2.266   0.541  18.362 -2.0665  0.1591 -2.3419
 1683SOL    HW216929   2.206   0.637  18.463 -0.3370  0.4537 -1.5784
 1684SOL     OW16930   1.779   3.505  20.322 -0.3810  0.3837 -0.1736
 1684SOL    HW116931   1.801   3.417  20.293  0.8134  1.2574 -1.9127
 1684SOL    HW216932   1.699   3.527  20.274  0.4457  1.0303 -1.2517
 1685SOL     OW16933   2.515   0.997   1.124 -0.9419  0.0801  0.5834
 1685SOL    HW116934   2.438   1.050   1.102  0.2763  1.7651  0.3679
 1685SOL    HW216935   2.584   1.062   1.142  0.4583 -1.4341  0.6187
 1686SOL     OW16936   4.355   1.056  20.535  0.2806 -0.8618 -0.2086
 1686SOL    HW116937   4.342   1.019  20.448 -0.0714  0.0807 -0.5489
 1686SOL    HW216938   4.443   1.028  20.560 -0.0450 -2.0787 -0.3948
 1687SOL     OW16939   0.448   2.709  21.174  0.2309  0.0228 -0.3110
 1687SOL    HW116940   0.409   2.706   0.065  0.4673  2.0550 -0.1422
 1687SOL    HW216941   0.406   2.784  21.131  4.2539  2.4539  0.0045
 1688SOL     OW16942   3.382   0.782   0.990  0.1718 -0.7274 -0.1097
 1688SOL    HW116943   3.404   0.872   0.964 -3.1125 -0.7477 -2.9916
 1688SOL    HW216944   3.316   0.792   1.058  0.1638 -0.9494 -0.0844
 1689SOL     OW16945   0.743   3.876  10.008 -0.2780 -0.5803  0.1757
 1689SOL    HW116946   0.747   3.821   9.930 -0.1060 -1.5561  0.8763
 1689SOL    HW216947   0.652   3.905  10.012  0.0443  0.6600 -1.2079
 1690SOL     OW16948   2.951   4.537  10.349 -0.0043 -0.3046  0.0072
 1690SOL    HW116949   3.033   4.536  10.299 -0.3239 -0.5795 -0.5168
 1690SOL    HW216950   2.920   4.447  10.345 -0.8079  0.0026 -0.5821
 1691SOL     OW16951   0.160   2.617   1.085 -0.1349 -0.4522 -0.0802
 1691SOL    HW116952   0.227   2.622   1.018 -1.6229  1.0590 -1.4694
 1691SOL    HW216953   0.207   2.592   1.165  1.7547 -1.3689 -1.4840
 1692SOL     OW16954   3.359   1.367   6.808  0.3037  0.4668 -0.1141
 1692SOL    HW116955   3.314   1.417   6.740  1.6012  1.9220  0.0804
 1692SOL    HW216956   3.316   1.394   6.889 -1.8178 -1.9193 -0.4559
 1693SOL     OW16957   1.947   1.337  18.078  0.5068  0.0977 -0.1241
 1693SOL    HW116958   1.946   1.410  18.139 -0.0506 -1.2339  1.4563
 1693SOL    HW216959   1.882   1.360  18.012 -1.5988 -0.2434  1.8436
 1694SOL     OW16960   0.606   2.082   5.632 -0.6330  0.1960 -0.4170
 1694SOL    HW116961   0.642   2.028   5.561 -0.7805 -0.9338  0.3715
 1694SOL    HW216962   0.673   2.148   5.648  0.2651 -0.7482 -0.2655
 1695SOL     OW16963   1.136   3.658  15.442 -0.1633 -0.2012  0.2765
 1695SOL    HW116964   1.210   3.603  15.469 -0.6887 -0.9273  0.2341
 1695SOL    HW216965   1.075   3.655  15.516 -0.1541  0.4061  0.3148
 1696SOL     OW16966   0.008   3.047   2.425 -0.2741  0.5153 -0.0305
 1696SOL    HW116967   0.064   2.969   2.426  0.2613  0.8871 -1.5740
 1696SOL    HW216968   4.757   3.057   2.516 -1.2511 -2.1398 -0.0051
 1697SOL     OW16969   3.628   3.694  19.880 -0.1249 -0.0904  0.0254
 1697SOL    HW116970   3.565   3.648  19.825 -1.4560 -0.3471  1.7627
 1697SOL    HW216971   3.712   3.650  19.863 -0.8551 -1.2602 -0.5042
 1698SOL     OW16972   3.992   4.738  18.142 -0.1004  0.0255  0.7092
 1698SOL    HW116973   4.038   0.020  18.201  0.3046  1.9315 -1.4982
 1698SOL    HW216974   4.061   4.687  18.099 -0.3431 -0.6999  1.1709
 1699SOL     OW16975   4.442   0.786  18.964 -0.3996 -0.4948  0.2389
 1699SOL    HW116976   4.385   0.712  18.985  0.7124 -0.6791  2.6136
 1699SOL    HW216977   4.385   0.862  18.973 -0.5649 -0.7660  1.5531
 1700SOL     OW16978   1.231   4.039  13.226  0.3143  0.0039  0.0827
 1700SOL    HW116979   1.246   4.106  13.160 -1.2674 -0.8411 -1.1381
 1700SOL    HW216980   1.190   4.085  13.299  0.1974  0.5709 -0.3460
 1701SOL     OW16981   0.210   1.582  20.948 -0.9414 -0.0951  0.2398
 1701SOL    HW116982   0.291   1.540  20.978 -0.1324 -0.0725 -1.8666
 1701SOL    HW216983   0.204   1.662  20.999 -0.4391 -0.8528  1.5080
 1702SOL     OW16984   2.866   3.798   9.285  0.4690 -0.1373 -0.0862
 1702SOL    HW116985   2.772   3.815   9.285  0.1167 -1.9917 -0.0692
 1702SOL    HW216986   2.893   3.809   9.376  0.2926  0.5058 -0.1123
 1703SOL     OW16987   2.345   3.853  20.699 -0.2505  0.5967 -0.0583
 1703SOL    HW116988   2.317   3.818  20.614 -2.4959  1.2020  0.4398
 1703SOL    HW216989   2.366   3.775  20.751 -3.8127  0.0777  0.5590
 1704SOL     OW16990   1.451   0.716  19.280 -0.2745 -0.7869 -0.1854
 1704SOL    HW116991   1.394   0.781  19.240  0.0486 -0.9709 -0.9397
 1704SOL    HW216992   1.477   0.754  19.364  0.1776  0.1868 -0.7709
 1705SOL     OW16993   3.757   2.427   2.178  0.1635  0.2053 -0.2017
 1705SOL    HW116994   3.839   2.440   2.131  0.0574  2.9857  0.4205
 1705SOL    HW216995   3.689   2.452   2.115 -0.1953 -1.7276 -0.5858
 1706SOL     OW16996   1.612   3.055  19.023  0.4172  0.6232 -0.3840
 1706SOL    HW116997   1.591   3.109  19.099 -0.9893 -0.4224 -0.0294
 1706SOL    HW216998   1.617   2.966  19.057 -1.3603  0.0099 -1.7255
 1707SOL     OW16999   0.497   2.607   6.233 -0.5699  0.5829  0.2029
 1707SOL    HW117000   0.445   2.528   6.215 -0.4840  0.7982 -0.9892
 1707SOL    HW217001   0.438   2.663   6.284 -1.3928  0.7033 -0.8831
 1708SOL     OW17002   1.955   1.232   8.640  0.6757  0.1381  0.0045
 1708SOL    HW117003   1.895   1.305   8.657  1.0749  0.3376  0.5327
 1708SOL    HW217004   1.955   1.223   8.544 -0.2767  0.0738  0.0086
 1709SOL     OW17005   0.764   1.599  18.670 -0.1602 -0.2949  0.6929
 1709SOL    HW117006   0.677   1.589  18.709 -0.2339 -1.0743  0.3347
 1709SOL    HW217007   0.822   1.549  18.729  0.0432  0.2449  0.9460
 1710SOL     OW17008   4.154   3.608  17.661 -0.3414 -0.1275 -0.2285
 1710SOL    HW117009   4.128   3.691  17.702 -1.1483 -0.6489  0.3191
 1710SOL    HW217010   4.076   3.581  17.611  0.9490  0.9641 -2.8245
 1711SOL     OW17011   4.341   0.143  17.751 -0.2027 -0.7797  0.2974
 1711SOL    HW117012   4.342   0.123  17.657  2.8092 -1.3424  0.4413
 1711SOL    HW217013   4.283   0.078  17.789 -1.0090 -0.8967 -1.1235
 1712SOL     OW17014   1.340   4.220   6.357  0.5743  0.3012 -0.1458
 1712SOL    HW117015   1.365   4.294   6.413  0.9363 -0.1904  0.3452
 1712SOL    HW217016   1.246   4.209   6.373  1.0722 -1.1213  1.9041
 1713SOL     OW17017   2.291   2.102  17.101 -0.4692  0.3784  0.3488
 1713SOL    HW117018   2.272   2.065  17.188 -1.4194  1.3748  0.5592
 1713SOL    HW217019   2.232   2.177  17.093 -1.8257 -0.9542 -2.0154
 1714SOL     OW17020   0.663   3.407   3.251  0.1586 -0.1169 -0.0058
 1714SOL    HW117021   0.628   3.322   3.279  1.2203 -0.6229 -0.2004
 1714SOL    HW217022   0.743   3.418   3.302 -0.5958  1.3131  0.8579
 1715SOL     OW17023   2.230   3.492   9.750  0.0749 -0.4090 -0.0628
 1715SOL    HW117024   2.239   3.436   9.827 -1.2748 -3.1342 -1.8937
 1715SOL    HW217025   2.149   3.463   9.708 -0.1680  2.3127 -1.4839
 1716SOL     OW17026   3.225   4.656   7.442 -0.0663 -0.8675  0.4960
 1716SOL    HW117027   3.148   4.635   7.495 -0.6134  1.6133  0.6750
 1716SOL    HW217028   3.281   4.578   7.449 -1.3519 -1.6104  2.5251
 1717SOL     OW17029   0.796   1.914   1.126 -0.7092 -0.0435  0.3749
 1717SOL    HW117030   0.781   1.887   1.216  0.4414 -1.5881  0.0977
 1717SOL    HW217031   0.839   1.999   1.133  0.8132 -0.8924  1.2956
 1718SOL     OW17032   2.113   0.938  20.641 -0.0231  0.2327  0.0635
 1718SOL    HW117033   2.067   0.979  20.567  1.4735 -1.0288 -1.5783
 1718SOL    HW217034   2.171   1.007  20.674  0.3839  0.3412 -0.8739
 1719SOL     OW17035   4.017   0.530  14.641 -0.3253  0.2695  0.1799
 1719SOL    HW117036   4.016   0.626  14.645  0.8907  0.2784  0.2647
 1719SOL    HW217037   3.954   0.503  14.708  0.1354  0.9937  0.9119
 1720SOL     OW17038   0.262   4.739   0.020  0.1885  0.6736  0.1500
 1720SOL    HW117039   0.337   4.723  21.159 -0.0604  1.5973 -0.4370
 1720SOL    HW217040   0.300   4.764   0.104  0.5681 -1.5758  0.6543
 1721SOL     OW17041   2.184   2.145   1.423  0.0393 -0.8313 -0.2648
 1721SOL    HW117042   2.274   2.141   1.453 -0.0518 -0.0213  0.1018
 1721SOL    HW217043   2.171   2.235   1.395 -1.3528 -0.4148  1.7723
 1722SOL     OW17044   4.159   2.512   5.354  0.6245 -0.4193  0.1072
 1722SOL    HW117045   4.235   2.493   5.298 -0.8395 -0.3261 -1.8832
 1722SOL    HW217046   4.195   2.565   5.426  2.7162 -1.5801 -0.0898
 1723SOL     OW17047   3.574   2.627  13.749 -0.8617 -0.3146  0.2301
 1723SOL    HW117048   3.573   2.625  13.845  0.1620 -1.0208  0.2266
 1723SOL    HW217049   3.666   2.635  13.726 -1.0786 -0.5205 -0.7055
 1724SOL     OW17050   1.825   3.579   9.567 -1.0971  0.0450  0.2038
 1724SOL    HW117051   1.813   3.634   9.644 -2.0840 -0.5912  0.5051
 1724SOL    HW217052   1.905   3.611   9.526 -0.6706  0.4836  1.4078
 1725SOL     OW17053   3.322   1.545  19.544  0.2892 -0.2533  0.0467
 1725SOL    HW117054   3.302   1.470  19.600 -1.5707  0.3924  0.2433
 1725SOL    HW217055   3.342   1.616  19.604 -0.2665  0.0420 -0.1119
 1726SOL     OW17056   0.802   1.489   5.098  0.3965  0.6118 -0.2891
 1726SOL    HW117057   0.862   1.421   5.070 -1.1012 -0.4943 -0.7827
 1726SOL    HW217058   0.793   1.475   5.192 -0.7259 -0.4906 -0.5704
 1727SOL     OW17059   4.671   4.752  16.417  0.1002 -0.1816 -0.1145
 1727SOL    HW117060   4.589   4.702  16.421 -0.0064  0.0405  0.6139
 1727SOL    HW217061   4.653   0.047  16.355  0.8255 -2.0815 -2.4676
 1728SOL     OW17062   1.071   0.259   6.176 -0.2657 -0.3078 -0.2340
 1728SOL    HW117063   1.029   0.262   6.263 -1.1048  0.1411 -0.6565
 1728SOL    HW217064   1.026   0.326   6.126  1.2549  0.4438 -0.5659
 1729SOL     OW17065   3.428   1.792  17.561  0.5580  0.2579  0.3774
 1729SOL    HW117066   3.451   1.716  17.507 -0.8460 -0.7009  1.1304
 1729SOL    HW217067   3.512   1.826  17.591  1.3134  0.4620 -1.9762
 1730SOL     OW17068   2.250   0.877  19.712 -0.3452  0.2016 -0.1093
 1730SOL    HW117069   2.268   0.874  19.618 -0.8998 -0.1787 -0.2040
 1730SOL    HW217070   2.164   0.918  19.718 -0.2961  0.2476  0.2368
 1731SOL     OW17071   0.160   0.910  13.407  0.0565 -0.5209  0.3326
 1731SOL    HW117072   0.234   0.850  13.396  1.3347  0.5016  3.4656
 1731SOL    HW217073   0.200   0.996  13.418 -1.6778  0.3171  0.0510
 1732SOL     OW17074   1.816   3.945  15.566 -0.1940 -0.1801  0.1132
 1732SOL    HW117075   1.826   4.038  15.548  0.6360 -0.0276  1.3531
 1732SOL    HW217076   1.841   3.935  15.658  0.2852 -1.7112 -0.1718
 1733SOL     OW17077   0.883   2.672  13.176  0.7071  0.5649 -0.1275
 1733SOL    HW117078   0.816   2.616  13.214  0.6828  0.7317  0.0773
 1733SOL    HW217079   0.965   2.626  13.194  0.5349 -0.2973 -1.5624
 1734SOL     OW17080   0.127   0.141   1.951 -0.4749 -0.0722  0.2228
 1734SOL    HW117081   0.048   0.142   1.897  0.1311 -0.1404 -0.6830
 1734SOL    HW217082   0.100   0.105   2.035 -1.6712  1.0904  0.3177
 1735SOL     OW17083   1.090   0.214   3.500  0.0330  0.0035  0.7528
 1735SOL    HW117084   0.999   0.242   3.487  0.4476  0.0617 -2.0438
 1735SOL    HW217085   1.092   0.124   3.469  0.5703 -0.5222  2.3100
 1736SOL     OW17086   2.964   1.758  16.637 -0.5119  0.2161  0.4303
 1736SOL    HW117087   2.882   1.782  16.594 -0.5140 -0.5828 -0.0107
 1736SOL    HW217088   2.966   1.812  16.716 -0.6367  1.4922 -0.4344
 1737SOL     OW17089   3.624   2.518  18.633 -0.0844  0.2577 -0.3437
 1737SOL    HW117090   3.638   2.591  18.693 -0.9922 -0.7855  1.1358
 1737SOL    HW217091   3.625   2.558  18.546 -0.5129  2.0244  0.4685
 1738SOL     OW17092   1.242   0.166  19.573  0.4206 -0.3101 -0.7136
 1738SOL    HW117093   1.281   0.148  19.487 -0.8758  0.1156 -1.3980
 1738SOL    HW217094   1.244   0.261  19.580  1.1015 -0.3796 -0.0023
 1739SOL     OW17095   0.175   1.905   3.138  0.0587 -0.1000  0.3971
 1739SOL    HW117096   0.127   1.963   3.079  0.1096 -0.2091  0.2472
 1739SOL    HW217097   0.112   1.882   3.206 -0.1318 -0.3251  0.1446
 1740SOL     OW17098   1.111   3.730  13.049  0.0506  0.4609 -0.4382
 1740SOL    HW117099   1.173   3.756  13.117 -1.1071 -0.9419  1.1614
 1740SOL    HW217100   1.128   3.637  13.035 -0.4155  0.5070 -1.3063
 1741SOL     OW17101   1.350   2.035   5.682  0.0225 -0.0053  1.0593
 1741SOL    HW117102   1.426   2.040   5.740  0.8730 -0.4825 -0.0007
 1741SOL    HW217103   1.300   1.960   5.714  2.0491 -2.1185 -0.6854
 1742SOL     OW17104   2.109   2.745  18.856  0.9456 -0.6401  0.7175
 1742SOL    HW117105   2.093   2.660  18.815  0.8312 -0.6154  0.7093
 1742SOL    HW217106   2.179   2.730  18.919 -0.3683 -1.1322  2.0544
 1743SOL     OW17107   0.885   4.117  17.866  0.0009 -0.3760  0.0813
 1743SOL    HW117108   0.957   4.178  17.851  1.2605 -1.9891 -0.4711
 1743SOL    HW217109   0.872   4.075  17.781 -1.1177 -0.6059  0.3700
 1744SOL     OW17110   0.417   3.525  20.985 -0.1333 -0.2035  0.4573
 1744SOL    HW117111   0.358   3.596  21.010 -0.6999 -0.0541 -1.2981
 1744SOL    HW217112   0.502   3.567  20.974 -0.4887  0.2121 -0.6783
 1745SOL     OW17113   0.666   4.160  12.181  0.1303 -0.4343  0.7997
 1745SOL    HW117114   0.686   4.252  12.161 -0.5473 -0.7142 -1.1691
 1745SOL    HW217115   0.575   4.149  12.154  0.2714 -1.7401  0.8561
 1746SOL     OW17116   1.619   4.561  11.139 -0.4200 -0.2787  0.5070
 1746SOL    HW117117   1.526   4.540  11.128 -0.5806  0.7761 -0.2243
 1746SOL    HW217118   1.620   4.655  11.155  0.5038 -0.3324  0.7273
 1747SOL     OW17119   1.342   4.432  17.372 -0.2805  0.2442  0.0584
 1747SOL    HW117120   1.277   4.363  17.362  0.6574 -0.7888  1.0621
 1747SOL    HW217121   1.405   4.416  17.302  1.8317 -2.0321  2.4667
 1748SOL     OW17122   0.306   0.566   5.870  0.1118 -0.9835 -0.1500
 1748SOL    HW117123   0.399   0.553   5.891 -0.1716  0.3154  1.9568
 1748SOL    HW217124   0.305   0.590   5.778  1.8625 -1.2324 -0.2335
 1749SOL     OW17125   0.826   4.207  20.644 -0.1980 -0.2252 -0.2992
 1749SOL    HW117126   0.888   4.136  20.631  1.5928  1.8588 -3.0114
 1749SOL    HW217127   0.877   4.277  20.685 -1.3464  0.5355 -0.1585
 1750SOL     OW17128   1.149   0.862   5.810  0.2604 -0.1737 -0.1945
 1750SOL    HW117129   1.228   0.841   5.760  0.7960  1.5815 -0.1025
 1750SOL    HW217130   1.119   0.778   5.844  0.7131 -1.1609 -2.2694
 1751SOL     OW17131   0.114   3.888  19.097 -0.4235  0.6370  0.2255
 1751SOL    HW117132   0.159   3.941  19.162 -0.5325  0.8546  0.1255
 1751SOL    HW217133   0.062   3.951  19.046 -1.4569  0.2879  0.8424
 1752SOL     OW17134   3.504   0.712  18.025  0.4432  0.2403  0.3838
 1752SOL    HW117135   3.437   0.766  18.068  0.7159  0.2887  0.7513
 1752SOL    HW217136   3.585   0.736  18.070  0.8317  0.7796 -0.6166
 1753SOL     OW17137   0.953   0.673   2.150 -0.1624  0.1227 -0.4911
 1753SOL    HW117138   0.938   0.698   2.241  0.8781 -2.6122  0.4503
 1753SOL    HW217139   1.038   0.711   2.129 -0.5682  1.0600 -0.4150
 1754SOL     OW17140   1.352   3.696   3.864  0.2440 -0.0729  0.3474
 1754SOL    HW117141   1.315   3.611   3.886  2.8595 -1.0514  0.9168
 1754SOL    HW217142   1.443   3.678   3.841  0.1111  2.2292 -1.9326
 1755SOL     OW17143   3.510   2.011   4.949 -0.5287  0.0959  0.3960
 1755SOL    HW117144   3.495   1.969   5.034  1.0614  1.2438  1.2518
 1755SOL    HW217145   3.601   2.042   4.953 -0.8285  1.2000 -1.2571
 1756SOL     OW17146   1.819   1.780  16.515 -0.0522 -0.3180 -0.3138
 1756SOL    HW117147   1.876   1.721  16.466  0.0261 -0.8606  0.4428
 1756SOL    HW217148   1.873   1.812  16.587  0.0718  1.0826 -1.0337
 1757SOL     OW17149   2.402   0.244   9.863  0.4668  0.5238  0.3888
 1757SOL    HW117150   2.432   0.286   9.944  0.3191 -0.7130  1.0812
 1757SOL    HW217151   2.359   0.164   9.892 -0.6048  0.6643 -0.8424
 1758SOL     OW17152   4.731   2.966  17.702  0.3394 -0.1204  0.5697
 1758SOL    HW117153   0.018   2.922  17.759  0.4014 -1.9326 -0.9349
 1758SOL    HW217154   4.762   2.950  17.613 -0.1746  2.1126 -0.0189
 1759SOL     OW17155   0.679   1.727   2.684 -0.0124 -0.1740  0.1336
 1759SOL    HW117156   0.692   1.816   2.654  1.8517 -0.7699 -0.8162
 1759SOL    HW217157   0.613   1.690   2.625 -0.8590  0.5944  0.5967
 1760SOL     OW17158   1.476   2.368  19.561 -0.2756  0.1219  0.6234
 1760SOL    HW117159   1.443   2.453  19.531 -0.9186  0.6788  2.8906
 1760SOL    HW217160   1.511   2.386  19.648 -0.5803 -1.9755  1.1736
 1761SOL     OW17161   1.330   0.829   8.949  0.3503  0.5777  0.6219
 1761SOL    HW117162   1.258   0.876   8.906 -0.4798 -2.1083 -0.9813
 1761SOL    HW217163   1.404   0.840   8.890 -0.0063 -0.6268 -0.0551
 1762SOL     OW17164   1.528   2.417  19.816  0.0006  0.3168 -0.5991
 1762SOL    HW117165   1.443   2.392  19.851  0.4809  1.4853  1.4285
 1762SOL    HW217166   1.580   2.441  19.893  2.0967 -0.2199 -1.8366
 1763SOL     OW17167   4.030   1.608  17.017 -0.1249 -0.4547  0.1737
 1763SOL    HW117168   3.964   1.653  17.070  1.1534 -0.0324  1.3954
 1763SOL    HW217169   3.983   1.584  16.937 -1.7171  0.0199  0.9550
 1764SOL     OW17170   1.388   3.836   4.816 -0.4592  0.8726 -0.0914
 1764SOL    HW117171   1.466   3.786   4.840 -0.2625  1.4435  0.4418
 1764SOL    HW217172   1.326   3.819   4.888 -1.1821 -0.4009 -1.0222
 1765SOL     OW17173   2.979   0.781  16.481 -0.0027 -0.1966  0.1112
 1765SOL    HW117174   2.988   0.685  16.483  1.6322 -0.0264  0.7821
 1765SOL    HW217175   3.014   0.810  16.565  0.2710  1.0752 -0.4441
 1766SOL     OW17176   3.439   1.327  15.286  0.0609 -0.1659  0.1185
 1766SOL    HW117177   3.481   1.256  15.238  0.3881 -0.4985  0.9019
 1766SOL    HW217178   3.398   1.285  15.361 -1.2022  0.2352 -0.3444
 1767SOL     OW17179   2.639   0.436  18.121 -0.2257  0.2851 -0.1097
 1767SOL    HW117180   2.616   0.529  18.129 -0.9119  0.1152 -0.1576
 1767SOL    HW217181   2.694   0.432  18.043  0.8848  0.8625  0.6405
 1768SOL     OW17182   4.241   0.549   9.216  0.0695  0.4756 -0.1061
 1768SOL    HW117183   4.156   0.510   9.198 -0.7123  1.5578  1.2150
 1768SOL    HW217184   4.303   0.496   9.166 -1.3289 -0.5741 -0.7279
 1769SOL     OW17185   4.218   2.103  20.990 -0.3571 -0.1408 -0.0626
 1769SOL    HW117186   4.185   2.142  20.908  0.0302 -1.7042 -0.9739
 1769SOL    HW217187   4.243   2.014  20.965  0.9860 -0.1902  1.4913
 1770SOL     OW17188   2.306   3.829  21.005  0.5619 -0.6059 -0.6184
 1770SOL    HW117189   2.400   3.820  20.989  0.6016  1.1113 -1.3365
 1770SOL    HW217190   2.284   3.915  20.970 -1.2225 -0.8841 -0.1679
 1771SOL     OW17191   4.309   3.612   3.254  0.5871 -0.7369  0.1417
 1771SOL    HW117192   4.238   3.549   3.246  1.9091 -2.1792 -0.3729
 1771SOL    HW217193   4.304   3.644   3.344 -0.1881 -1.4368  0.3433
 1772SOL     OW17194   1.449   2.748  15.729  0.1444  0.4831  0.0011
 1772SOL    HW117195   1.375   2.708  15.774 -1.1557  1.8724 -0.9150
 1772SOL    HW217196   1.520   2.748  15.794 -0.3294 -1.8722  0.4979
 1773SOL     OW17197   3.037   3.957  18.135 -0.0114 -0.5270 -0.8387
 1773SOL    HW117198   3.029   4.040  18.182  1.5288 -0.6327 -0.3731
 1773SOL    HW217199   2.971   3.900  18.175  0.5160 -0.2557  0.4214
 1774SOL     OW17200   0.872   0.839   0.222  0.1084  0.6621  0.1164
 1774SOL    HW117201   0.892   0.746   0.217 -1.9919  0.2530 -0.8586
 1774SOL    HW217202   0.820   0.849   0.302 -1.3552  0.6840 -0.8370
 1775SOL     OW17203   1.751   0.923  15.861  0.2444 -0.0671  0.0021
 1775SOL    HW117204   1.842   0.898  15.876 -0.3650 -1.5626  1.1402
 1775SOL    HW217205   1.757   1.003  15.808  2.2131 -0.1562  0.0875
 1776SOL     OW17206   4.753   0.455   5.668 -0.0552  0.8141 -0.3186
 1776SOL    HW117207   4.773   0.361   5.667  0.9190  1.0302 -0.5769
 1776SOL    HW217208   4.771   0.483   5.757  0.3324  0.9083 -0.4273
 1777SOL     OW17209   2.705   0.404  20.903 -0.1068 -0.1043  0.1988
 1777SOL    HW117210   2.735   0.412  20.813 -0.0669 -0.0574  0.2168
 1777SOL    HW217211   2.665   0.316  20.907 -2.1048  0.7660 -0.4539
 1778SOL     OW17212   1.428   4.688   9.924 -0.0098  0.1602 -0.7027
 1778SOL    HW117213   1.498   4.653   9.869  1.1125  1.6625 -0.2299
 1778SOL    HW217214   1.461   4.772   9.955 -1.9236  0.7699 -0.2807
 1779SOL     OW17215   2.273   0.052  10.000 -0.0912  0.3883  0.2450
 1779SOL    HW117216   2.179   0.055  10.017 -0.3606 -2.2500 -0.8162
 1779SOL    HW217217   2.313   0.038  10.086 -0.7436 -0.0293  0.4799
 1780SOL     OW17218   1.679   4.510  18.259  0.2052 -0.2154  0.0780
 1780SOL    HW117219   1.605   4.451  18.278 -3.8016  4.1746 -1.7862
 1780SOL    HW217220   1.656   4.591  18.304  3.4678  1.4829 -1.3368
 1781SOL     OW17221   2.717   4.333  12.242  0.0987 -0.0579 -0.0738
 1781SOL    HW117222   2.762   4.394  12.300 -1.4936  0.5939  0.4991
 1781SOL    HW217223   2.733   4.247  12.280  2.6128 -0.0190 -1.0604
 1782SOL     OW17224   0.394   2.689  16.145  0.4053 -0.1928 -0.1909
 1782SOL    HW117225   0.413   2.783  16.136  0.3080 -0.0930  0.7257
 1782SOL    HW217226   0.367   2.678  16.236 -0.7474 -0.9128 -0.6226
 1783SOL     OW17227   3.562   0.791   6.147  0.0023 -0.3652  0.3003
 1783SOL    HW117228   3.537   0.882   6.133 -1.1097 -0.4987  1.4321
 1783SOL    HW217229   3.600   0.763   6.064  1.2454  1.4296  0.2661
 1784SOL     OW17230   4.030   4.015   6.866 -0.4632 -0.0434  0.5725
 1784SOL    HW117231   4.033   3.945   6.801 -1.1416  2.4043 -2.0562
 1784SOL    HW217232   4.120   4.024   6.897  0.0266 -0.4817 -0.7490
 1785SOL     OW17233   2.961   0.608  16.795  0.3326 -0.6982  0.0589
 1785SOL    HW117234   2.896   0.577  16.859  1.7110 -1.0381  1.2823
 1785SOL    HW217235   3.021   0.662  16.846 -0.3698  1.5997 -1.5373
 1786SOL     OW17236   4.541   4.755   0.179  0.4247 -0.2930  0.0407
 1786SOL    HW117237   4.633   4.749   0.151  0.7542 -0.6284  1.1973
 1786SOL    HW217238   4.524   0.073   0.185  0.9646 -0.2382  0.7216
 1787SOL     OW17239   2.497   4.033   5.071 -0.5427 -0.0385 -0.6422
 1787SOL    HW117240   2.503   4.059   4.980 -0.8223  0.2062 -0.5880
 1787SOL    HW217241   2.544   3.949   5.075  0.7864  0.6941 -0.7136
 1788SOL     OW17242   3.489   2.987  19.487  0.0957 -0.7103 -0.1080
 1788SOL    HW117243   3.516   2.905  19.529 -1.6422 -1.3972 -0.3192
 1788SOL    HW217244   3.571   3.033  19.469  1.0586 -2.2199  0.3960
 1789SOL     OW17245   1.227   1.700  16.471  0.1454  0.7253 -0.3518
 1789SOL    HW117246   1.245   1.628  16.410 -0.5200 -1.5935  2.2250
 1789SOL    HW217247   1.144   1.737  16.440 -0.6952 -1.0840 -0.2866
 1790SOL     OW17248   1.009   1.843  16.626 -1.2279  0.5358  0.8396
 1790SOL    HW117249   1.057   1.766  16.656  0.5545  0.4858 -2.0551
 1790SOL    HW217250   0.976   1.884  16.705  0.8461 -1.2615  2.6295
 1791SOL     OW17251   1.366   4.285  19.420  0.0203 -0.0299  0.2165
 1791SOL    HW117252   1.393   4.364  19.373 -4.1445 -0.5184 -2.9480
 1791SOL    HW217253   1.344   4.317  19.508  1.7491  1.7795  0.0012
 1792SOL     OW17254   0.496   2.645   4.670 -0.0298  0.0965 -0.0456
 1792SOL    HW117255   0.585   2.627   4.701 -0.3291  0.3226  0.9716
 1792SOL    HW217256   0.501   2.639   4.575  0.7471 -1.3650  0.0866
 1793SOL     OW17257   3.264   1.041   1.143 -0.6302 -0.0027 -0.3245
 1793SOL    HW117258   3.171   1.021   1.155 -0.3976 -1.8576 -1.5970
 1793SOL    HW217259   3.309   0.977   1.198 -0.0605  0.0116 -0.7736
 1794SOL     OW17260   4.295   1.883   7.682 -0.2698 -0.5863  0.4026
 1794SOL    HW117261   4.234   1.813   7.659  1.3519 -1.9542  0.2587
 1794SOL    HW217262   4.330   1.913   7.598 -1.6004  0.9883  0.3992
 1795SOL     OW17263   0.062   3.923   2.871 -0.2195  0.1676 -0.3935
 1795SOL    HW117264   0.038   3.830   2.865  0.0526  0.0310  0.5176
 1795SOL    HW217265   0.045   3.958   2.784 -0.7527 -0.6399 -0.6202
 1796SOL     OW17266   2.406   0.501   0.346 -0.5664  0.5306  0.4509
 1796SOL    HW117267   2.474   0.471   0.407 -0.7914  0.2383  0.5546
 1796SOL    HW217268   2.351   0.424   0.331  0.3502  0.2050 -1.2749
 1797SOL     OW17269   0.474   3.048   1.737 -0.0652  0.4215 -0.5374
 1797SOL    HW117270   0.482   3.044   1.642 -1.1201 -0.5246 -0.5869
 1797SOL    HW217271   0.541   2.988   1.770  0.1957  0.6321 -0.6808
 1798SOL     OW17272   4.523   0.508  16.312 -0.2715 -0.0196  0.1833
 1798SOL    HW117273   4.567   0.577  16.363 -1.6659  1.7209 -0.9502
 1798SOL    HW217274   4.530   0.538  16.222 -3.4488  0.0562 -0.0189
 1799SOL     OW17275   2.666   4.280   5.431 -0.7247 -0.4260  0.3119
 1799SOL    HW117276   2.629   4.332   5.360 -2.3540 -3.9177 -1.4315
 1799SOL    HW217277   2.737   4.334   5.467 -1.4940  2.3630 -2.3810
 1800SOL     OW17278   4.376   0.335  19.304 -0.4270  0.0060  0.2059
 1800SOL    HW117279   4.400   0.276  19.376 -0.2595 -0.4138 -0.1853
 1800SOL    HW217280   4.453   0.392  19.293  0.1809 -0.9641 -0.6695
 1801SOL     OW17281   1.330   0.697  16.344  0.4666  0.3144  0.3480
 1801SOL    HW117282   1.342   0.792  16.339  1.0925  0.2711  1.0671
 1801SOL    HW217283   1.410   0.660  16.307 -0.1806  0.0721 -0.8121
 1802SOL     OW17284   0.360   2.738   0.223  0.2945 -0.4718  1.0934
 1802SOL    HW117285   0.431   2.736   0.288 -0.2661 -1.4094  1.6727
 1802SOL    HW217286   0.292   2.682   0.260 -1.0177  0.9647  0.8513
 1803SOL     OW17287   0.521   1.810   3.264 -0.4325 -0.0599  0.3731
 1803SOL    HW117288   0.477   1.883   3.221  2.0177  1.6540  0.8099
 1803SOL    HW217289   0.497   1.820   3.357  0.4392  0.5531  0.5290
 1804SOL     OW17290   0.602   1.329  20.287  0.1766 -0.5245  0.2152
 1804SOL    HW117291   0.586   1.404  20.345  0.9809 -0.4712  0.3733
 1804SOL    HW217292   0.515   1.294  20.268 -0.1179 -0.2807  1.1145
 1805SOL     OW17293   2.231   1.362  15.826  0.0144  0.0879  0.2658
 1805SOL    HW117294   2.188   1.279  15.805 -1.1444  0.2017  2.1448
 1805SOL    HW217295   2.310   1.337  15.874 -0.3752  0.0713  0.8999
 1806SOL     OW17296   2.928   3.372   1.963  0.5994 -0.0158  0.0453
 1806SOL    HW117297   2.908   3.326   2.044 -1.1620  0.7703  0.0353
 1806SOL    HW217298   2.913   3.464   1.983  1.4829  0.3084 -0.7751
 1807SOL     OW17299   4.749   3.752   0.291 -0.1542 -0.6573  0.3332
 1807SOL    HW117300   4.761   3.799   0.374  1.0158  1.7371 -1.2101
 1807SOL    HW217301   0.056   3.762   0.245  0.6770 -5.6863  0.7161
 1808SOL     OW17302   4.609   2.219  16.203  0.5958  0.0367  0.4410
 1808SOL    HW117303   4.627   2.125  16.206 -0.7838 -0.2547 -0.5787
 1808SOL    HW217304   4.514   2.226  16.208  0.5629  1.2732 -1.8884
 1809SOL     OW17305   2.322   1.828   0.748  0.0857 -0.0117 -0.2998
 1809SOL    HW117306   2.408   1.814   0.709 -0.9077 -1.1207 -2.1321
 1809SOL    HW217307   2.319   1.769   0.823  1.3946  0.9413  0.4948
 1810SOL     OW17308   2.191   1.346   4.473  0.3733  0.2430 -0.6347
 1810SOL    HW117309   2.271   1.301   4.444 -1.0764 -2.8918  0.1706
 1810SOL    HW217310   2.128   1.331   4.403  0.0063  1.3687 -0.5445
 1811SOL     OW17311   4.204   2.602   4.262  0.2705 -0.1839 -0.7642
 1811SOL    HW117312   4.234   2.568   4.178 -1.1811  0.0368 -1.3841
 1811SOL    HW217313   4.262   2.563   4.326  0.8007 -1.0912 -1.7924
 1812SOL     OW17314   0.134   1.862   8.178  0.5686  0.4360  0.5075
 1812SOL    HW117315   0.108   1.852   8.086  0.3982  0.6476  0.5324
 1812SOL    HW217316   0.112   1.953   8.199  3.1173  1.1804 -0.0289
 1813SOL     OW17317   2.058   2.529  18.705  0.4218  0.4753 -0.0728
 1813SOL    HW117318   2.120   2.456  18.703 -0.7329 -0.4319 -2.7067
 1813SOL    HW217319   1.987   2.499  18.762  0.4923 -0.0309 -0.2517
 1814SOL     OW17320   3.948   4.515   2.273  0.5063  0.1014 -0.1561
 1814SOL    HW117321   4.043   4.515   2.260  0.8731 -2.1520  2.5347
 1814SOL    HW217322   3.926   4.423   2.292 -2.1504  0.6856 -0.3641
 1815SOL     OW17323   4.624   2.924  11.167  0.1382 -0.3831  0.4089
 1815SOL    HW117324   4.555   2.927  11.100 -1.6467  1.9096  2.3615
 1815SOL    HW217325   4.642   2.831  11.178 -1.4666 -0.9064 -1.3120
 1816SOL     OW17326   0.741   2.556  20.923  0.9609 -0.6051  0.1491
 1816SOL    HW117327   0.686   2.519  20.992 -1.2781 -1.5025 -2.1456
 1816SOL    HW217328   0.801   2.485  20.899 -1.1697 -1.6845 -1.9446
 1817SOL     OW17329   3.439   1.702  19.778  0.4354  0.6543 -0.0222
 1817SOL    HW117330   3.520   1.652  19.789  0.4911  0.7249 -0.1101
 1817SOL    HW217331   3.468   1.785  19.741 -0.0870 -0.7338 -3.5386
 1818SOL     OW17332   0.081   2.713   1.704  0.1062  0.2110  0.0932
 1818SOL    HW117333   0.127   2.796   1.717 -1.9335  1.3266  0.1646
 1818SOL    HW217334   0.149   2.646   1.713  1.7496  1.8757  0.0170
 1819SOL     OW17335   1.486   1.152   1.514 -0.2159  0.5392 -0.2427
 1819SOL    HW117336   1.439   1.207   1.578  0.1348 -1.3024  1.6095
 1819SOL    HW217337   1.421   1.133   1.447 -0.2286  3.5773 -1.1149
 1820SOL     OW17338   2.384   3.431   8.488  0.8288 -0.3045  0.9450
 1820SOL    HW117339   2.423   3.505   8.534 -0.3743  1.4283 -0.7934
 1820SOL    HW217340   2.418   3.354   8.532  3.9946  1.2542  1.2242
 1821SOL     OW17341   1.278   1.876   0.398 -0.6634 -0.5291  0.0466
 1821SOL    HW117342   1.317   1.963   0.409 -1.8625  0.1138 -0.7485
 1821SOL    HW217343   1.350   1.815   0.417  0.2403  0.6343  0.3859
 1822SOL     OW17344   1.883   3.817   2.371 -0.4031 -0.1944 -0.2912
 1822SOL    HW117345   1.804   3.765   2.357 -0.9061  0.0024  1.8782
 1822SOL    HW217346   1.858   3.883   2.436  1.3319  0.3036 -0.1314
 1823SOL     OW17347   3.984   1.256  19.632  0.1283  0.0255  0.1976
 1823SOL    HW117348   3.975   1.168  19.594  0.5103 -0.2449  0.7218
 1823SOL    HW217349   3.968   1.315  19.559  0.8841 -0.4922 -0.4005
 1824SOL     OW17350   3.944   3.798  10.389  0.2406  0.3274 -0.4601
 1824SOL    HW117351   4.004   3.850  10.443  0.5181  0.9198 -1.3332
 1824SOL    HW217352   3.957   3.832  10.300  0.5858 -1.3679 -1.0694
 1825SOL     OW17353   0.774   1.617  18.387  0.6368  0.7814 -0.4027
 1825SOL    HW117354   0.751   1.638  18.477  0.3376 -1.6995  0.0998
 1825SOL    HW217355   0.866   1.641  18.379  1.0311 -0.2509  0.9531
 1826SOL     OW17356   1.328   4.552   2.354  0.0444 -0.5882 -0.0705
 1826SOL    HW117357   1.378   4.525   2.277  1.6852 -2.2913  1.5933
 1826SOL    HW217358   1.247   4.590   2.319  0.7057 -1.5905 -2.6145
 1827SOL     OW17359   2.271   2.296  18.724  0.2665 -0.8098 -0.4835
 1827SOL    HW117360   2.349   2.332  18.681 -0.3662  0.1409 -0.8301
 1827SOL    HW217361   2.243   2.225  18.666 -0.2597  0.1094 -1.3589
 1828SOL     OW17362   0.675   1.767   1.379 -0.9258  0.1756  0.0940
 1828SOL    HW117363   0.599   1.790   1.432 -1.4938 -0.8955 -0.2515
 1828SOL    HW217364   0.728   1.711   1.437 -1.0246 -0.1204 -0.1019
 1829SOL     OW17365   1.405   1.303   0.048  0.3187  0.2489  0.2672
 1829SOL    HW117366   1.500   1.299   0.038  0.3582  0.5663  0.5127
 1829SOL    HW217367   1.391   1.371   0.114 -0.0761  0.1736  0.2593
 1830SOL     OW17368   0.785   1.854   3.822 -0.3797  0.0667 -0.0194
 1830SOL    HW117369   0.858   1.830   3.765 -0.4552  1.5212 -0.7292
 1830SOL    HW217370   0.708   1.822   3.775 -0.3496  0.1855 -0.1496
 1831SOL     OW17371   3.094   3.370  14.700  0.3534  0.4575  0.0092
 1831SOL    HW117372   3.112   3.286  14.743  0.1993  0.3369 -0.1605
 1831SOL    HW217373   3.028   3.349  14.634 -0.0351  0.7977  0.2855
 1832SOL     OW17374   0.946   3.668   3.554  0.1708  0.2116 -0.0813
 1832SOL    HW117375   0.887   3.697   3.623 -0.5140  0.2830 -0.6979
 1832SOL    HW217376   0.902   3.693   3.472  0.4699 -0.8396 -0.5678
 1833SOL     OW17377   3.004   0.477   2.592 -0.1963  0.5435 -0.6542
 1833SOL    HW117378   3.099   0.466   2.583 -0.1801  0.9412 -0.9732
 1833SOL    HW217379   2.986   0.562   2.552 -0.5989  0.7525 -0.0305
 1834SOL     OW17380   3.969   0.373   3.728  0.1960  0.0260 -0.0973
 1834SOL    HW117381   3.923   0.307   3.779  0.0647 -0.1529 -0.4469
 1834SOL    HW217382   4.061   0.349   3.735 -0.0788 -1.6796 -2.3539
 1835SOL     OW17383   1.988   3.749  18.817 -0.2685  0.6233 -0.3300
 1835SOL    HW117384   1.987   3.723  18.725  1.8358 -1.1824  0.1581
 1835SOL    HW217385   1.973   3.668  18.866 -0.8055  1.4796  0.9302
 1836SOL     OW17386   2.985   4.037  12.261 -0.0291 -0.0320 -0.0148
 1836SOL    HW117387   2.920   3.972  12.237 -0.3213  0.0047  0.6566
 1836SOL    HW217388   2.940   4.094  12.324  0.4240  0.4217 -0.0950
 1837SOL     OW17389   2.111   2.175   3.583  0.6887 -0.5723 -0.0317
 1837SOL    HW117390   2.173   2.164   3.511 -0.3225 -1.3052 -0.7997
 1837SOL    HW217391   2.048   2.103   3.571 -0.8121  0.6989  0.2255
 1838SOL     OW17392   3.779   2.763   3.529  0.3281  0.0569 -0.0287
 1838SOL    HW117393   3.825   2.680   3.518 -0.3602 -0.1966 -1.0180
 1838SOL    HW217394   3.834   2.814   3.588  0.9558 -0.9510  0.2437
 1839SOL     OW17395   2.689   2.115   2.459  0.2761 -0.1507 -0.1104
 1839SOL    HW117396   2.778   2.094   2.488  0.0786 -1.8698 -0.7253
 1839SOL    HW217397   2.649   2.156   2.535  2.1054  2.1014 -0.3513
 1840SOL     OW17398   2.254   3.315  19.698 -0.3669 -0.1335  0.8642
 1840SOL    HW117399   2.222   3.232  19.662  0.2341  0.3988 -0.8955
 1840SOL    HW217400   2.208   3.324  19.782  0.5746 -2.8778  1.6513
 1841SOL     OW17401   1.163   4.401  11.682  0.0249 -0.0752  0.0758
 1841SOL    HW117402   1.087   4.448  11.715  2.0453  3.2014  0.0629
 1841SOL    HW217403   1.163   4.318  11.729 -2.4885  0.7064  1.4212
 1842SOL     OW17404   1.267   1.155   1.352  0.3024  0.3665 -0.1011
 1842SOL    HW117405   1.291   1.174   1.262 -1.3420  0.8900 -0.4235
 1842SOL    HW217406   1.216   1.074   1.347 -0.1450  0.6211  0.3048
 1843SOL     OW17407   0.513   1.846   3.567  0.6762  0.6176 -0.9009
 1843SOL    HW117408   0.531   1.765   3.616  0.3960  0.7512 -0.5807
 1843SOL    HW217409   0.486   1.909   3.633 -0.3173  0.6161 -1.3024
 1844SOL     OW17410   3.412   2.556   0.458  0.4022  0.3481 -0.3087
 1844SOL    HW117411   3.345   2.617   0.489  1.4917  1.7123 -0.6509
 1844SOL    HW217412   3.495   2.597   0.482  1.1175 -1.4750  0.3512
 1845SOL     OW17413   1.118   3.808  17.922  0.1729 -0.0659  0.2905
 1845SOL    HW117414   1.031   3.816  17.883  0.2767  0.3882  0.1435
 1845SOL    HW217415   1.149   3.721  17.896 -0.3690 -0.3502  0.6174
 1846SOL     OW17416   4.196   4.364   7.940 -0.5930 -0.3926  0.6709
 1846SOL    HW117417   4.151   4.280   7.931 -0.2334 -0.2476 -2.5408
 1846SOL    HW217418   4.274   4.345   7.991 -1.5573 -1.6565  1.6674
 1847SOL     OW17419   4.550   0.633   4.106 -0.0976  0.6184 -0.2744
 1847SOL    HW117420   4.599   0.678   4.037 -0.6939 -0.4164 -1.3616
 1847SOL    HW217421   4.617   0.604   4.168  0.4114  1.8067 -0.2697
 1848SOL     OW17422   0.304   4.733   1.865  0.1526  0.6550  0.0810
 1848SOL    HW117423   0.293   0.044   1.904 -0.9477 -0.1853  1.6087
 1848SOL    HW217424   0.247   4.734   1.788 -0.8239  0.8441  0.8039
 1849SOL     OW17425   4.169   4.441   4.199 -0.0424 -0.4724  0.5889
 1849SOL    HW117426   4.103   4.461   4.265 -0.9740  0.4142 -0.6119
 1849SOL    HW217427   4.188   4.525   4.158  0.8044 -0.9641 -0.0158
 1850SOL     OW17428   3.390   1.320  13.732 -0.4454 -0.2591 -0.4800
 1850SOL    HW117429   3.376   1.257  13.802  2.7518  0.0559  0.4560
 1850SOL    HW217430   3.339   1.286  13.658 -1.7960 -1.9047  1.2266
 1851SOL     OW17431   3.198   4.009   4.956  0.0707  0.4199  0.1556
 1851SOL    HW117432   3.133   4.078   4.943 -0.3287  0.1228  0.5818
 1851SOL    HW217433   3.281   4.047   4.926 -0.2624  0.8719 -0.1752
 1852SOL     OW17434   4.751   1.801   9.536 -0.2221 -0.2333  0.1376
 1852SOL    HW117435   0.036   1.743   9.580  0.3045 -0.6057 -1.0952
 1852SOL    HW217436   4.761   1.782   9.443 -0.3050  1.5650 -0.2499
 1853SOL     OW17437   2.839   1.160  11.977 -0.0236 -0.1605  0.1262
 1853SOL    HW117438   2.909   1.224  11.992  0.3621 -0.3877 -0.6891
 1853SOL    HW217439   2.789   1.196  11.904  0.5228 -1.0698 -0.6912
 1854SOL     OW17440   1.128   2.600  19.844 -0.5797  0.2226 -0.0614
 1854SOL    HW117441   1.059   2.605  19.910 -0.6317  1.0591 -0.1736
 1854SOL    HW217442   1.209   2.606  19.895 -0.6214  0.9958 -0.0801
 1855SOL     OW17443   2.694   3.941   0.688 -0.1466  0.1526 -0.3847
 1855SOL    HW117444   2.653   4.005   0.746 -2.9628 -0.0643 -2.0773
 1855SOL    HW217445   2.693   3.983   0.602 -1.0897 -1.7506 -1.3044
 1856SOL     OW17446   3.535   4.094  12.051  0.3327 -0.0060 -0.4556
 1856SOL    HW117447   3.562   4.063  11.965  1.7670 -0.0940  0.0206
 1856SOL    HW217448   3.610   4.146  12.082  0.1082 -0.5662  1.0333
 1857SOL     OW17449   1.932   3.473  19.816 -0.2294  0.0144  0.1067
 1857SOL    HW117450   1.896   3.418  19.747  0.1176  0.2741 -0.2838
 1857SOL    HW217451   2.003   3.421  19.853  0.8585  0.6684 -1.0406
 1858SOL     OW17452   2.645   2.231  15.021 -0.0561 -0.2439  0.2378
 1858SOL    HW117453   2.596   2.163  14.974  0.4903  0.6243 -1.5805
 1858SOL    HW217454   2.578   2.285  15.063 -0.5807 -0.4667 -0.3093
 1859SOL     OW17455   4.068   4.580   7.873  0.3762 -0.2680 -0.0793
 1859SOL    HW117456   4.112   4.500   7.902 -0.1430  0.0345  1.5226
 1859SOL    HW217457   4.137   4.646   7.868  0.6061 -0.5261 -0.3499
 1860SOL     OW17458   1.658   0.721  10.584 -0.1569 -0.2896 -0.1473
 1860SOL    HW117459   1.620   0.808  10.598  1.9374  0.5661  0.2495
 1860SOL    HW217460   1.587   0.660  10.604 -0.8741  1.2621  2.0335
 1861SOL     OW17461   0.938   2.476   2.533 -0.0404  0.4173  0.4718
 1861SOL    HW117462   1.010   2.538   2.524  1.5400 -0.9012  3.8608
 1861SOL    HW217463   0.867   2.513   2.480  1.8773  3.5865  0.1247
 1862SOL     OW17464   1.381   4.250   6.751  0.0899 -0.6947 -0.4493
 1862SOL    HW117465   1.290   4.222   6.736  0.2693 -0.8256 -1.2797
 1862SOL    HW217466   1.376   4.306   6.828 -0.5063 -1.7588  0.2851
 1863SOL     OW17467   3.619   2.409   4.730  0.2371 -0.2510 -0.5072
 1863SOL    HW117468   3.714   2.413   4.721  0.3907 -0.7577  0.8284
 1863SOL    HW217469   3.600   2.468   4.803 -0.4624 -0.2180 -0.7208
 1864SOL     OW17470   2.538   2.466   5.770 -0.3247  0.0768 -0.2522
 1864SOL    HW117471   2.498   2.384   5.742 -0.0861  0.5550 -2.0422
 1864SOL    HW217472   2.535   2.521   5.691 -0.2358  1.6681  0.8671
 1865SOL     OW17473   2.051   1.269  14.088 -0.1407  0.0454 -0.2245
 1865SOL    HW117474   1.983   1.335  14.105 -1.4096 -0.8025 -2.0500
 1865SOL    HW217475   2.122   1.318  14.046 -0.4023  0.5725 -0.0469
 1866SOL     OW17476   1.917   0.833   3.357  0.3690 -0.0822  0.4472
 1866SOL    HW117477   1.896   0.777   3.431  1.7658  0.0901  0.9786
 1866SOL    HW217478   1.844   0.822   3.296 -0.1048 -1.2711  1.2449
 1867SOL     OW17479   4.652   0.097  17.670 -0.1251 -0.9698 -0.7458
 1867SOL    HW117480   4.747   0.084  17.666  0.0327 -0.4645  1.1932
 1867SOL    HW217481   4.633   0.160  17.601  1.2213  0.4433  0.1671
 1868SOL     OW17482   3.367   4.040  13.176 -0.0665  0.0203 -0.1692
 1868SOL    HW117483   3.288   4.091  13.161 -0.5243 -0.7120 -0.2216
 1868SOL    HW217484   3.428   4.071  13.109 -0.2953  0.6038 -0.1083
 1869SOL     OW17485   2.751   2.177  13.897  0.2236  0.2556 -0.3280
 1869SOL    HW117486   2.784   2.229  13.823 -3.2863  2.4930 -0.3316
 1869SOL    HW217487   2.762   2.234  13.973 -0.9741 -0.1023  0.1076
 1870SOL     OW17488   3.691   2.791   4.001  0.5692 -0.1604  0.0768
 1870SOL    HW117489   3.720   2.857   4.064 -1.3591  0.9850 -0.2241
 1870SOL    HW217490   3.651   2.723   4.055  2.0583 -0.8298  0.3459
 1871SOL     OW17491   3.073   3.802   2.745 -0.2608 -1.0034  0.0098
 1871SOL    HW117492   3.106   3.750   2.818  0.2112  1.4298  1.5232
 1871SOL    HW217493   3.146   3.803   2.682  0.2829 -0.9030  0.6402
 1872SOL     OW17494   3.306   3.889   4.503 -0.0749 -0.0632 -0.5424
 1872SOL    HW117495   3.268   3.803   4.486  1.3422 -0.9421  0.7800
 1872SOL    HW217496   3.397   3.871   4.528 -0.2770  1.6664  1.4525
 1873SOL     OW17497   1.875   2.676  15.959  0.4789  0.4542 -0.1707
 1873SOL    HW117498   1.961   2.634  15.952  0.0459 -0.8844  2.4076
 1873SOL    HW217499   1.888   2.747  16.022 -0.3277  0.1934  0.2925
 1874SOL     OW17500   2.427   4.614   5.838 -0.9544  0.1510 -0.0029
 1874SOL    HW117501   2.464   4.553   5.774  0.7170 -0.1700  1.2769
 1874SOL    HW217502   2.332   4.605   5.828 -0.6986 -0.5880 -1.7839
 1875SOL     OW17503   1.873   4.339  20.755  0.0615 -0.0410 -0.1951
 1875SOL    HW117504   1.830   4.405  20.811  0.8589 -1.1202  1.6886
 1875SOL    HW217505   1.853   4.256  20.797  1.0876 -0.8103 -1.2457
 1876SOL     OW17506   0.927   0.077  19.051 -0.5381 -0.1554  0.2965
 1876SOL    HW117507   0.977   0.158  19.058  0.1057 -0.3846 -1.5571
 1876SOL    HW217508   0.961   0.021  19.120  1.4922 -0.1574 -0.7106
 1877SOL     OW17509   1.732   2.889  17.385 -0.0332 -0.4423 -0.4957
 1877SOL    HW117510   1.767   2.895  17.473  0.3779 -0.8236 -0.6306
 1877SOL    HW217511   1.653   2.942  17.386 -0.1616 -0.6532  0.1721
 1878SOL     OW17512   2.105   2.370   3.774 -0.0369  0.2592 -0.1652
 1878SOL    HW117513   2.083   2.309   3.703 -0.0115 -0.1678  0.1961
 1878SOL    HW217514   2.197   2.391   3.760  0.3845 -1.0634  0.6865
 1879SOL     OW17515   1.272   2.399   6.513 -0.8093  0.2766  0.4202
 1879SOL    HW117516   1.208   2.431   6.577 -1.4877 -1.6263  0.6611
 1879SOL    HW217517   1.345   2.368   6.566 -1.7630 -2.1643  0.2711
 1880SOL     OW17518   4.350   2.119  17.423 -0.1917  0.3158  0.6577
 1880SOL    HW117519   4.405   2.182  17.470 -0.7005  1.1017  0.1978
 1880SOL    HW217520   4.413   2.062  17.378  0.2658  0.9838  0.4384
 1881SOL     OW17521   0.504   1.576   2.869  0.4011  0.2714 -0.4714
 1881SOL    HW117522   0.566   1.644   2.844  1.2479 -0.4824 -0.4098
 1881SOL    HW217523   0.420   1.622   2.877  1.0477  1.3698 -0.0501
 1882SOL     OW17524   2.454   0.915  13.738 -0.3368  0.1133  0.3716
 1882SOL    HW117525   2.368   0.953  13.753 -0.2611 -0.0045  1.0847
 1882SOL    HW217526   2.448   0.878  13.650 -1.1595 -0.3052  0.6017
 1883SOL     OW17527   1.522   0.369  19.255 -0.3117 -0.2399  0.1909
 1883SOL    HW117528   1.607   0.405  19.279 -1.1792  1.2253  1.0658
 1883SOL    HW217529   1.530   0.348  19.162  1.5833 -1.7532  0.7223
 1884SOL     OW17530   0.774   0.214  17.721  0.3691 -0.3106 -0.5424
 1884SOL    HW117531   0.859   0.183  17.751  0.5563 -0.0287 -0.7770
 1884SOL    HW217532   0.711   0.151  17.756  0.8203 -1.3663 -1.6523
 1885SOL     OW17533   2.627   1.615  14.282  0.2802  0.2481 -0.2379
 1885SOL    HW117534   2.636   1.597  14.376 -0.3435  0.8771 -0.0499
 1885SOL    HW217535   2.648   1.708  14.274  1.0510  0.0186 -0.8282
 1886SOL     OW17536   3.292   0.811  14.229  0.0850  0.0612 -0.3352
 1886SOL    HW117537   3.311   0.774  14.315 -1.1440  0.4542  0.0977
 1886SOL    HW217538   3.197   0.822  14.228 -0.0829 -1.4267 -2.3190
 1887SOL     OW17539   1.042   3.042   2.785  0.3949  0.3494  0.4760
 1887SOL    HW117540   1.100   2.971   2.811  1.0730  1.4540  1.9209
 1887SOL    HW217541   0.958   3.021   2.826  0.1774 -0.4248 -0.3547
 1888SOL     OW17542   1.728   2.529   4.612 -0.3591 -0.0649 -0.7272
 1888SOL    HW117543   1.679   2.466   4.664 -0.1539 -0.9637 -1.6211
 1888SOL    HW217544   1.712   2.613   4.655  0.6333 -0.9497  1.3748
 1889SOL     OW17545   3.588   4.616  21.193  0.1199 -0.9356 -0.2321
 1889SOL    HW117546   3.580   4.570   0.080 -1.3028 -1.0871 -0.4498
 1889SOL    HW217547   3.594   4.708   0.021  1.4179 -1.1091  0.1241
 1890SOL     OW17548   4.583   0.584   9.575  0.8156 -0.3354 -0.2441
 1890SOL    HW117549   4.519   0.598   9.505  0.5527  0.2047  0.1052
 1890SOL    HW217550   4.549   0.635   9.649  2.1868  0.7908 -0.3988
 1891SOL     OW17551   2.876   4.329   1.318  0.3441 -0.8479  0.3319
 1891SOL    HW117552   2.831   4.412   1.335  0.8187 -0.5491  0.1285
 1891SOL    HW217553   2.968   4.347   1.337  0.6614 -0.9159 -1.1334
 1892SOL     OW17554   1.200   0.571  15.359  0.2238 -0.3055 -0.7213
 1892SOL    HW117555   1.277   0.570  15.417 -0.6974  0.3863  0.5212
 1892SOL    HW217556   1.224   0.515  15.286  2.2935  0.7058 -0.8072
 1893SOL     OW17557   0.097   1.869   3.515 -0.1618  0.2714 -0.0947
 1893SOL    HW117558   0.089   1.802   3.584 -0.0238  0.6900  0.3252
 1893SOL    HW217559   0.049   1.832   3.441 -0.9252  0.1459  0.4635
 1894SOL     OW17560   4.454   3.606   1.786  0.1180 -0.3235 -0.1169
 1894SOL    HW117561   4.410   3.673   1.734 -1.1570 -1.2579 -0.2402
 1894SOL    HW217562   4.518   3.654   1.838 -0.5401  0.9469 -0.4882
 1895SOL     OW17563   4.257   3.208   0.178  0.4747  0.6539 -0.0606
 1895SOL    HW117564   4.272   3.303   0.173 -3.2713  1.2273 -0.3360
 1895SOL    HW217565   4.228   3.194   0.268  3.2126 -0.5402  0.6331
 1896SOL     OW17566   2.615   0.833   9.317 -0.3211  0.2128  0.3587
 1896SOL    HW117567   2.625   0.901   9.384  1.4207 -0.7498  1.0407
 1896SOL    HW217568   2.532   0.790   9.339 -0.7842  1.2545  0.6721
 1897SOL     OW17569   1.848   3.180   3.530  0.0962  0.4939 -0.4594
 1897SOL    HW117570   1.776   3.228   3.570  2.7558  3.0321  1.3677
 1897SOL    HW217571   1.854   3.213   3.441 -3.0190 -1.9795 -1.5690
 1898SOL     OW17572   1.494   2.770  19.066  0.4939  0.5677  0.3452
 1898SOL    HW117573   1.517   2.789  19.158  0.2139  0.1937  0.4925
 1898SOL    HW217574   1.519   2.679  19.054  1.2470  0.8436 -0.1796
 1899SOL     OW17575   2.123   1.681  15.963  0.5138 -0.1942 -0.2303
 1899SOL    HW117576   2.154   1.603  16.009 -0.1474  0.4929  1.4163
 1899SOL    HW217577   2.194   1.704  15.903  1.0880 -1.5383 -0.0622
 1900SOL     OW17578   2.687   2.739   1.543  0.2893  0.2758 -0.0823
 1900SOL    HW117579   2.731   2.777   1.619  2.4071 -0.4630 -0.9502
 1900SOL    HW217580   2.601   2.781   1.542  0.1810  0.1010  2.8763
 1901SOL     OW17581   1.398   4.283  20.963  0.4777 -0.2721 -0.7099
 1901SOL    HW117582   1.317   4.253  20.922  0.8155 -2.1177 -0.0163
 1901SOL    HW217583   1.454   4.308  20.889 -0.4824  0.3759 -1.2153
 1902SOL     OW17584   2.306   3.972   9.791 -0.1000  0.6326  0.2795
 1902SOL    HW117585   2.256   4.047   9.823  0.0638  0.7073  0.3588
 1902SOL    HW217586   2.396   4.004   9.784  0.5093 -0.4762  3.2846
 1903SOL     OW17587   1.858   0.403  11.860 -0.0006  0.0869 -0.5712
 1903SOL    HW117588   1.865   0.394  11.765  1.0299  2.0410 -0.6690
 1903SOL    HW217589   1.879   0.495  11.878  1.0436 -0.5700  1.6585
 1904SOL     OW17590   3.084   1.033  18.928 -0.6657 -0.3188 -0.6523
 1904SOL    HW117591   3.119   0.945  18.944 -0.2623  0.4110  2.5559
 1904SOL    HW217592   2.995   1.030  18.965 -1.3008  0.0787 -2.1394
 1905SOL     OW17593   3.499   1.188   2.373  0.2238 -0.1872 -0.3056
 1905SOL    HW117594   3.553   1.166   2.296  1.5159  1.0559  0.2453
 1905SOL    HW217595   3.427   1.241   2.338 -0.2776 -1.2982 -0.9528
 1906SOL     OW17596   2.714   0.368  11.957  0.0723  0.4668  0.0032
 1906SOL    HW117597   2.725   0.437  11.892 -0.3633 -0.1397 -0.7116
 1906SOL    HW217598   2.630   0.388  11.998 -0.1752  0.2149 -0.3801
 1907SOL     OW17599   1.245   4.688   1.848  0.8889  0.0836 -0.3082
 1907SOL    HW117600   1.247   4.613   1.789 -1.7846 -0.0824 -0.2122
 1907SOL    HW217601   1.238   4.765   1.791  1.6148  0.1337 -0.3303
 1908SOL     OW17602   3.435   2.623  15.048  0.2295 -0.5498  0.1459
 1908SOL    HW117603   3.498   2.597  15.115 -0.0361 -0.8810  0.2700
 1908SOL    HW217604   3.393   2.541  15.021  1.2400 -0.5859 -1.3368
 1909SOL     OW17605   1.838   1.628   3.561 -0.0377  0.3089  0.1066
 1909SOL    HW117606   1.876   1.623   3.473 -1.8857  1.0850 -0.7215
 1909SOL    HW217607   1.763   1.570   3.558 -1.4870  2.1718  0.4833
 1910SOL     OW17608   2.620   3.464   1.551  0.2074 -0.2324  0.1786
 1910SOL    HW117609   2.627   3.465   1.455 -1.1401 -0.5397  0.0763
 1910SOL    HW217610   2.583   3.550   1.573 -1.5983 -1.0267  0.2577
 1911SOL     OW17611   1.369   1.402  18.602  0.8174  0.0864 -0.0268
 1911SOL    HW117612   1.419   1.421  18.523  0.3306  1.7517  0.0537
 1911SOL    HW217613   1.429   1.355  18.659  1.1829 -1.0661 -1.3785
 1912SOL     OW17614   1.048   0.075  18.260  0.3699  0.1091  0.0375
 1912SOL    HW117615   1.130   0.063  18.308  0.9014  1.9056 -0.4089
 1912SOL    HW217616   1.067   0.042  18.172  0.1413 -0.9003  0.3629
 1913SOL     OW17617   0.838   2.167  18.581  0.1828  0.1172  0.1841
 1913SOL    HW117618   0.799   2.115  18.652  1.9831 -1.0447  0.3156
 1913SOL    HW217619   0.763   2.211  18.541 -0.8334  0.7562  2.7793
 1914SOL     OW17620   0.563   3.541  11.242 -0.4646  0.4366 -0.3654
 1914SOL    HW117621   0.642   3.593  11.252 -0.8145  0.4652  2.1492
 1914SOL    HW217622   0.566   3.510  11.151  2.6974 -0.0015 -0.1079
 1915SOL     OW17623   0.154   0.446  15.208  0.5416  1.0835 -0.5436
 1915SOL    HW117624   0.183   0.357  15.226 -0.3847  0.6229 -1.3667
 1915SOL    HW217625   0.218   0.501  15.253  0.7109 -0.0057  0.5562
 1916SOL     OW17626   0.932   4.639   0.373 -0.0431  0.2064 -0.2026
 1916SOL    HW117627   1.005   4.588   0.336 -0.2856  0.5610 -1.1854
 1916SOL    HW217628   0.957   4.655   0.463  1.0217  0.1787 -0.4932
 1917SOL     OW17629   4.227   1.818  17.940  0.0715 -0.4888 -0.3009
 1917SOL    HW117630   4.238   1.826  17.845  0.2472 -0.8825 -0.3125
 1917SOL    HW217631   4.266   1.898  17.975 -3.1339  1.2729 -0.7974
 1918SOL     OW17632   4.260   2.587  13.838  0.0855  0.5360 -0.1250
 1918SOL    HW117633   4.247   2.527  13.912  0.3528  0.5895 -0.0349
 1918SOL    HW217634   4.336   2.552  13.793  0.0923  0.6681 -0.2146
 1919SOL     OW17635   1.961   0.899  19.150 -1.0061  0.1998 -0.8433
 1919SOL    HW117636   1.876   0.867  19.180 -0.1829 -1.6823 -0.5511
 1919SOL    HW217637   1.976   0.854  19.067 -0.4422  0.7777 -1.0501
 1920SOL     OW17638   0.712   2.556   1.263  0.4075  0.3061  0.0571
 1920SOL    HW117639   0.784   2.494   1.258 -0.5670 -0.8840  0.9579
 1920SOL    HW217640   0.753   2.642   1.250  1.8657 -0.4414 -0.2141
 1921SOL     OW17641   0.971   3.832   1.430  0.1683 -0.1326 -0.4301
 1921SOL    HW117642   0.880   3.803   1.423  0.8277 -2.1658 -0.7493
 1921SOL    HW217643   0.968   3.927   1.419 -2.1136 -0.0138  1.4790
 1922SOL     OW17644   1.614   1.257   9.773 -0.2431 -0.2664  0.6184
 1922SOL    HW117645   1.547   1.231   9.835 -1.2322  2.4150  0.6702
 1922SOL    HW217646   1.579   1.233   9.687 -0.1743 -1.2206  0.8675
 1923SOL     OW17647   2.863   0.959  18.559 -0.4999 -0.3107 -0.1439
 1923SOL    HW117648   2.817   1.012  18.625  0.6784 -0.2284  0.6123
 1923SOL    HW217649   2.953   0.955  18.591 -0.2124 -1.3262 -1.1117
 1924SOL     OW17650   2.556   2.719   8.061  0.0617  0.3214 -0.0995
 1924SOL    HW117651   2.513   2.765   7.989  1.8819  1.0479 -0.7291
 1924SOL    HW217652   2.614   2.656   8.018  0.8313  0.4641  0.7342
 1925SOL     OW17653   3.120   0.587  19.732  0.3678  0.0428 -0.2044
 1925SOL    HW117654   3.160   0.606  19.817 -0.5479  0.1147  0.2125
 1925SOL    HW217655   3.097   0.494  19.736  1.1118 -0.1667 -0.7020
 1926SOL     OW17656   4.364   2.543   3.830  0.3586  0.4192  0.1682
 1926SOL    HW117657   4.350   2.635   3.852 -3.1912  0.3421 -1.7261
 1926SOL    HW217658   4.360   2.498   3.914  0.7679  1.8597  0.9582
 1927SOL     OW17659   0.285   0.149  16.116 -0.1239  0.1767 -0.4869
 1927SOL    HW117660   0.289   0.056  16.140  0.8068  0.0238 -1.1939
 1927SOL    HW217661   0.333   0.194  16.185 -1.1397  0.2023  0.2035
 1928SOL     OW17662   2.815   0.937   1.359  0.7214 -0.3477 -0.4755
 1928SOL    HW117663   2.800   0.940   1.264 -2.4838  3.1315  0.1437
 1928SOL    HW217664   2.877   1.008   1.375  1.2519 -0.9299  0.0083
 1929SOL     OW17665   0.472   3.312  19.340 -0.9873  0.1913 -0.2864
 1929SOL    HW117666   0.434   3.265  19.266  1.0023 -0.0332 -1.1596
 1929SOL    HW217667   0.448   3.258  19.416 -0.2919 -1.2494 -1.0888
 1930SOL     OW17668   3.217   0.885  16.039  0.1712 -0.3536 -0.5285
 1930SOL    HW117669   3.157   0.849  15.973 -0.2000 -2.5565  1.0115
 1930SOL    HW217670   3.277   0.813  16.058  0.2620  0.2669  1.5502
 1931SOL     OW17671   2.812   3.444   5.647 -0.0370  0.2700 -0.2858
 1931SOL    HW117672   2.739   3.413   5.593 -0.9923 -0.8282  1.6414
 1931SOL    HW217673   2.774   3.515   5.699  0.6969  0.8253 -0.5088
 1932SOL     OW17674   1.942   0.809  16.626  0.3494  0.3234  0.3126
 1932SOL    HW117675   2.028   0.771  16.648  0.1842  0.0867  0.5450
 1932SOL    HW217676   1.887   0.788  16.701 -0.1706 -0.3280 -0.2571
 1933SOL     OW17677   0.772   3.019   0.417 -0.3939 -0.0467 -0.1427
 1933SOL    HW117678   0.812   3.011   0.504 -0.8059  0.1788  0.0680
 1933SOL    HW217679   0.845   3.037   0.358 -0.3523  1.6670  0.4321
 1934SOL     OW17680   4.294   0.033   2.857 -0.9697  0.4888  0.0512
 1934SOL    HW117681   4.344   0.113   2.836  0.8771 -0.4242  0.9120
 1934SOL    HW217682   4.343   4.738   2.815 -1.7291 -0.3780  0.6274
 1935SOL     OW17683   2.011   3.704   1.250 -0.0365  0.2981  0.2552
 1935SOL    HW117684   2.066   3.692   1.327 -0.9754 -0.1815  0.8434
 1935SOL    HW217685   2.021   3.622   1.201 -0.0836  0.2912  0.2581
 1936SOL     OW17686   3.569   0.896  13.631  0.6099 -0.2235  0.1503
 1936SOL    HW117687   3.502   0.964  13.632  0.2130 -0.5805 -2.2238
 1936SOL    HW217688   3.521   0.813  13.629  1.1091 -0.4989 -0.6899
 1937SOL     OW17689   3.548   1.752   6.014 -0.1372  0.4896 -0.1084
 1937SOL    HW117690   3.579   1.786   5.930 -1.7187 -0.1936 -0.9538
 1937SOL    HW217691   3.453   1.744   6.003 -0.4976  1.7022  2.1982
 1938SOL     OW17692   4.260   0.340   3.758  0.1849  0.0104 -0.6194
 1938SOL    HW117693   4.311   0.391   3.821 -0.0918 -1.2836  0.6456
 1938SOL    HW217694   4.313   0.261   3.743  0.0795  0.1514 -1.7162
 1939SOL     OW17695   0.242   4.452   0.420 -0.4431 -0.5569  0.3269
 1939SOL    HW117696   0.179   4.461   0.491 -0.0906  0.0087  0.5649
 1939SOL    HW217697   0.214   4.373   0.373 -1.5859 -0.0565  0.1679
 1940SOL     OW17698   3.540   2.907   2.553 -0.0264 -0.2728  0.2458
 1940SOL    HW117699   3.571   2.842   2.616  1.8536  0.4129  0.0433
 1940SOL    HW217700   3.597   2.983   2.566 -1.6529  1.0131 -0.1231
 1941SOL     OW17701   3.330   0.158   8.112  0.7485  0.2993 -0.5730
 1941SOL    HW117702   3.335   0.142   8.206  2.5081  0.4821 -0.6430
 1941SOL    HW217703   3.285   0.081   8.077 -0.9347  0.7677  0.5647
 1942SOL     OW17704   4.482   4.023   2.967  0.2936  0.0629  0.2072
 1942SOL    HW117705   4.495   4.101   3.020  1.6806  0.1538 -0.2617
 1942SOL    HW217706   4.476   3.951   3.030  0.0252  0.4247  0.5894
 1943SOL     OW17707   2.338   1.730   3.460 -0.8379 -0.0936  0.6735
 1943SOL    HW117708   2.433   1.742   3.458 -0.8834  0.4872  3.2452
 1943SOL    HW217709   2.313   1.725   3.367  1.8931 -1.7432  0.0364
 1944SOL     OW17710   2.018   0.020  10.895 -0.3104  0.5349  0.9087
 1944SOL    HW117711   1.973   4.741  10.959  2.1530 -2.4354  0.0923
 1944SOL    HW217712   1.975   4.775  10.812  0.2614  0.2306  0.6880
 1945SOL     OW17713   4.654   0.082   7.653  0.0627 -0.0661 -0.8370
 1945SOL    HW117714   4.598   0.119   7.584 -1.1124  0.9924  0.6806
 1945SOL    HW217715   4.618   4.771   7.669  1.6638 -1.1252 -3.0910
 1946SOL     OW17716   2.186   3.800  14.277  0.8592  0.4635 -0.7556
 1946SOL    HW117717   2.138   3.808  14.360 -0.8371 -0.9387 -1.6055
 1946SOL    HW217718   2.276   3.784  14.304  0.5045  1.0793  0.8340
 1947SOL     OW17719   2.783   3.039   6.105  0.4203 -0.2891 -0.8635
 1947SOL    HW117720   2.770   3.085   6.188 -0.9398 -1.0181 -0.6725
 1947SOL    HW217721   2.784   2.947   6.128  0.4537 -0.4750 -1.6002
 1948SOL     OW17722   3.915   3.416  18.394  0.1108  0.1855  0.6101
 1948SOL    HW117723   4.010   3.424  18.396  0.0599 -0.0140  3.0937
 1948SOL    HW217724   3.883   3.502  18.421 -0.4319  0.1541  0.0871
 1949SOL     OW17725   1.244   4.459   8.360  0.9130 -0.3977 -0.1266
 1949SOL    HW117726   1.281   4.543   8.335  0.2790  0.0673  0.4836
 1949SOL    HW217727   1.313   4.416   8.410  0.6001  0.4955  1.0738
 1950SOL     OW17728   0.173   4.171   3.726 -0.2441  0.0772  0.5334
 1950SOL    HW117729   0.144   4.083   3.749  1.9719 -0.2376  2.1276
 1950SOL    HW217730   0.205   4.208   3.808 -1.5954  2.5218 -0.0600
 1951SOL     OW17731   4.671   2.671   3.127 -0.3410 -0.3344 -0.2654
 1951SOL    HW117732   4.655   2.578   3.139 -1.0919  0.0747  1.8120
 1951SOL    HW217733   4.760   2.685   3.159 -1.1855  0.1590  1.8501
 1952SOL     OW17734   1.720   1.749   6.960 -0.0731  0.8469  0.2366
 1952SOL    HW117735   1.701   1.806   6.885 -1.2786 -0.5120 -0.4862
 1952SOL    HW217736   1.688   1.798   7.036 -1.5054  0.9337 -0.4304
 1953SOL     OW17737   3.868   4.386  18.862  0.1197  0.2961  0.2792
 1953SOL    HW117738   3.939   4.382  18.926  2.6655  0.7088 -2.5087
 1953SOL    HW217739   3.882   4.310  18.806 -1.6033  0.4244 -0.3383
 1954SOL     OW17740   3.573   4.208   4.482  0.0307 -0.4197  0.3309
 1954SOL    HW117741   3.576   4.286   4.426  0.5659 -1.1609 -0.6646
 1954SOL    HW217742   3.483   4.207   4.516 -0.6960 -0.6912 -1.5440
 1955SOL     OW17743   3.147   3.396   4.897  0.1156  0.8074  0.1306
 1955SOL    HW117744   3.152   3.408   4.991 -0.7895  0.7337  0.1929
 1955SOL    HW217745   3.135   3.484   4.862  0.1208  0.7983  0.1056
 1956SOL     OW17746   2.623   1.359   0.340 -0.0885 -0.1088 -0.4040
 1956SOL    HW117747   2.668   1.389   0.261 -1.0142 -1.2067 -1.3327
 1956SOL    HW217748   2.656   1.416   0.409  1.3878  0.2628 -1.4248
 1957SOL     OW17749   2.649   0.200  13.017  0.3010  0.0539  0.3636
 1957SOL    HW117750   2.632   0.294  13.020 -0.9331 -0.1957  1.3320
 1957SOL    HW217751   2.564   0.160  13.033  0.9640 -1.2276  0.6989
 1958SOL     OW17752   1.759   3.483  21.166 -0.0293  0.1302  0.0125
 1958SOL    HW117753   1.833   3.436  21.126 -1.7444 -1.4741 -1.3011
 1958SOL    HW217754   1.744   3.438   0.053 -0.5879 -0.6024 -0.4800
 1959SOL     OW17755   0.562   4.766  17.436  0.7976  0.5511 -0.0873
 1959SOL    HW117756   0.610   0.061  17.394  0.4874  0.3147 -0.8480
 1959SOL    HW217757   0.551   4.701  17.366  0.6886 -0.0423  0.4864
 1960SOL     OW17758   3.302   3.779   1.575 -0.1102  0.0079  0.3843
 1960SOL    HW117759   3.280   3.849   1.514  0.3089  0.6695  1.0034
 1960SOL    HW217760   3.384   3.742   1.541 -0.4741 -0.3747 -0.0973
 1961SOL     OW17761   1.713   3.976   4.523  0.1439  0.0207  0.2339
 1961SOL    HW117762   1.638   4.033   4.504  0.3604 -0.2278 -1.4173
 1961SOL    HW217763   1.676   3.888   4.528 -0.2130  0.3376  2.9370
 1962SOL     OW17764   3.706   0.811  13.850 -0.2816 -0.1110 -0.0798
 1962SOL    HW117765   3.652   0.843  13.778 -1.1137 -1.6851 -0.1662
 1962SOL    HW217766   3.773   0.757  13.808  0.3618  0.4955  0.1642
 1963SOL     OW17767   4.541   0.635  14.225  0.0071 -0.0020 -0.0184
 1963SOL    HW117768   4.530   0.543  14.245  0.5577 -0.0561  0.0354
 1963SOL    HW217769   4.548   0.678  14.310  0.3689  0.0115 -0.0531
 1964SOL     OW17770   2.059   3.729  15.827  0.0477  0.0646 -0.2686
 1964SOL    HW117771   2.012   3.812  15.829 -0.6451 -0.3292 -0.2173
 1964SOL    HW217772   2.151   3.753  15.834 -0.2441  0.7281  1.2080
 1965SOL     OW17773   3.967   0.001  17.486 -0.3921 -0.3785 -0.1761
 1965SOL    HW117774   3.996   4.703  17.433  0.1797 -0.0184 -0.3648
 1965SOL    HW217775   3.924   0.060  17.425  0.5960  0.2108 -0.3027
 1966SOL     OW17776   3.463   1.507  12.297  0.2944 -0.7203 -0.2359
 1966SOL    HW117777   3.468   1.595  12.334 -0.2438  0.0569 -1.9984
 1966SOL    HW217778   3.445   1.451  12.372  2.4598  0.4556  1.1765
 1967SOL     OW17779   1.728   4.482  16.821  0.2366  0.2720  0.1379
 1967SOL    HW117780   1.730   4.508  16.729  2.2023  0.8242  0.3302
 1967SOL    HW217781   1.674   4.403  16.823 -0.2642  0.5794 -1.4058
 1968SOL     OW17782   3.644   2.427  16.459 -0.3162 -0.6460  0.1381
 1968SOL    HW117783   3.558   2.394  16.432 -0.2203 -2.7886  2.4826
 1968SOL    HW217784   3.705   2.360  16.429  0.2885 -0.4506  0.9517
 1969SOL     OW17785   3.582   4.340  11.857  0.1201  0.3657  0.0894
 1969SOL    HW117786   3.627   4.356  11.941  0.5601 -0.7809  0.0719
 1969SOL    HW217787   3.490   4.332  11.881  0.0286  1.7648  0.2472
 1970SOL     OW17788   2.560   2.583   5.526 -0.1648  0.2960  0.1923
 1970SOL    HW117789   2.594   2.559   5.440 -1.9029  0.2785 -0.5032
 1970SOL    HW217790   2.576   2.677   5.533  0.8683  0.1108  0.2470
 1971SOL     OW17791   1.680   2.715  16.859 -0.0561 -0.4345 -0.5265
 1971SOL    HW117792   1.602   2.665  16.834 -0.2947 -0.4210  0.1847
 1971SOL    HW217793   1.667   2.802  16.821 -1.4119  0.2286  1.4422
 1972SOL     OW17794   0.411   2.583  18.645 -0.6598  0.2702  0.0732
 1972SOL    HW117795   0.345   2.565  18.578 -0.1459  2.0258 -0.8913
 1972SOL    HW217796   0.388   2.669  18.679  0.1113  0.1253  0.9562
 1973SOL     OW17797   4.703   2.970   8.262 -0.2114  0.5120 -0.3181
 1973SOL    HW117798   4.690   3.062   8.282 -1.9090  0.3362 -0.6041
 1973SOL    HW217799   4.652   2.955   8.183 -0.7653 -0.9190  0.3120
 1974SOL     OW17800   3.993   4.063   4.156  0.2189  0.4576  0.5039
 1974SOL    HW117801   3.978   4.061   4.061  0.2934 -0.7606  0.5160
 1974SOL    HW217802   3.994   3.971   4.182  2.8559  0.7118  1.2882
 1975SOL     OW17803   1.657   2.629   2.509  0.2613  0.1998  0.1806
 1975SOL    HW117804   1.730   2.683   2.540  1.7843 -1.2005 -0.9701
 1975SOL    HW217805   1.603   2.615   2.587  2.3204 -0.4866  1.4919
 1976SOL     OW17806   3.537   3.511   9.135  0.1087 -0.4655 -0.4211
 1976SOL    HW117807   3.631   3.495   9.146  0.2770  0.0397 -1.1055
 1976SOL    HW217808   3.514   3.463   9.056 -0.1703 -0.4350 -0.3578
 1977SOL     OW17809   1.936   0.755   0.965 -0.0119  0.3531 -0.1283
 1977SOL    HW117810   1.978   0.786   0.885  1.3108 -0.4325  0.2667
 1977SOL    HW217811   1.857   0.709   0.934  0.0247  0.8268 -0.9261
 1978SOL     OW17812   0.987   3.566   2.411  0.1701  0.3540 -0.4626
 1978SOL    HW117813   1.052   3.496   2.404 -0.3380 -0.2471  0.7413
 1978SOL    HW217814   1.019   3.621   2.482 -0.4686  0.2390 -0.0886
 1979SOL     OW17815   2.525   0.952   5.580  0.1041  0.7631 -0.1952
 1979SOL    HW117816   2.572   0.907   5.510  2.7390  1.5942  1.0371
 1979SOL    HW217817   2.520   1.043   5.551 -0.4790  0.7308 -0.1910
 1980SOL     OW17818   2.396   4.728   1.136 -0.1864  0.4696 -0.0822
 1980SOL    HW117819   2.379   4.674   1.213  5.3381 -0.5999  0.3875
 1980SOL    HW217820   2.325   0.016   1.135 -1.4053 -0.8330  4.7138
 1981SOL     OW17821   2.882   3.378  20.179 -0.4097  0.6921 -0.0402
 1981SOL    HW117822   2.966   3.356  20.219 -1.9843 -0.9490  2.3635
 1981SOL    HW217823   2.872   3.472  20.191  0.7813  0.7777  0.2318
 1982SOL     OW17824   1.739   0.513   2.927  0.2445 -0.0770  0.6492
 1982SOL    HW117825   1.804   0.581   2.945  0.1618  0.1972 -0.1054
 1982SOL    HW217826   1.781   0.453   2.867  0.3285 -0.7212  1.3478
 1983SOL     OW17827   1.903   1.493   1.737 -0.4450  0.7398 -0.2371
 1983SOL    HW117828   1.889   1.586   1.719 -0.8488  0.8052  0.4378
 1983SOL    HW217829   1.843   1.448   1.677  1.2832  0.8622 -2.0627
 1984SOL     OW17830   3.196   1.525   6.650 -0.0028  0.0265 -0.6195
 1984SOL    HW117831   3.200   1.619   6.663  0.1693 -0.1900  0.9225
 1984SOL    HW217832   3.102   1.504   6.655  0.0326 -0.0054 -0.0851
 1985SOL     OW17833   1.290   0.641  15.817  0.5484 -0.1932  0.2434
 1985SOL    HW117834   1.286   0.570  15.882 -0.2387  0.4867  0.9389
 1985SOL    HW217835   1.253   0.603  15.738 -1.5918  0.0266  1.1439
 1986SOL     OW17836   2.063   4.350  10.796 -0.0957 -0.0553  0.2515
 1986SOL    HW117837   2.091   4.358  10.887  0.6491 -0.6746  0.0776
 1986SOL    HW217838   1.978   4.393  10.793 -1.4268 -2.5992  1.8748
 1987SOL     OW17839   3.337   2.380   1.904 -0.2469 -0.3275  0.2319
 1987SOL    HW117840   3.332   2.312   1.837 -0.7802 -0.2297  0.1756
 1987SOL    HW217841   3.312   2.460   1.859 -3.2250 -0.7074  1.2153
 1988SOL     OW17842   3.972   1.041  17.138  0.2740  0.1937 -0.0205
 1988SOL    HW117843   3.905   1.103  17.168 -0.1132 -0.7464  1.0659
 1988SOL    HW217844   3.936   0.955  17.161  1.6673 -0.3287  0.1868
 1989SOL     OW17845   0.222   4.422   0.999 -0.1459 -0.4195 -0.1105
 1989SOL    HW117846   0.182   4.443   1.084  1.3177  0.5500  0.3512
 1989SOL    HW217847   0.266   4.503   0.973 -2.4221 -0.0590 -2.8208
 1990SOL     OW17848   3.469   3.260  18.380  0.0050  0.4685  0.5867
 1990SOL    HW117849   3.535   3.283  18.315  2.4988  0.8762  3.2690
 1990SOL    HW217850   3.418   3.341  18.391  0.3579  0.7631  0.0493
 1991SOL     OW17851   1.518   3.246   1.254 -0.0008 -0.1289 -0.1336
 1991SOL    HW117852   1.501   3.261   1.347 -0.9412 -0.3811 -0.2585
 1991SOL    HW217853   1.432   3.225   1.217  0.4127 -0.3093 -1.0061
 1992SOL     OW17854   2.047   3.414   1.902 -0.9663  0.4599 -0.2496
 1992SOL    HW117855   1.952   3.425   1.908 -0.8761  0.2216  1.6506
 1992SOL    HW217856   2.059   3.337   1.847 -1.9512 -1.4072  2.1071
 1993SOL     OW17857   0.731   1.235  16.867  0.2202 -0.0395  0.2356
 1993SOL    HW117858   0.821   1.263  16.883  0.0392  1.4058 -1.3429
 1993SOL    HW217859   0.677   1.298  16.914 -0.0830  0.7436 -1.1679
 1994SOL     OW17860   2.533   1.482  15.679 -0.8245 -0.0318 -0.1236
 1994SOL    HW117861   2.557   1.406  15.626 -1.4284 -0.1327 -0.2451
 1994SOL    HW217862   2.494   1.544  15.617 -0.9523  0.1034  0.0915
 1995SOL     OW17863   2.510   0.836   4.784 -0.5029 -0.2291 -0.3713
 1995SOL    HW117864   2.488   0.821   4.876 -0.2636 -0.9664 -0.4373
 1995SOL    HW217865   2.573   0.908   4.786  0.7857 -1.3709  0.1622
 1996SOL     OW17866   0.626   1.630   4.162 -0.1887  0.0241  0.4976
 1996SOL    HW117867   0.555   1.566   4.163  0.7994 -1.0751 -0.1054
 1996SOL    HW217868   0.584   1.711   4.133 -1.2468 -0.5683  0.3634
 1997SOL     OW17869   1.173   2.058  20.436  0.2647 -0.1719 -0.6219
 1997SOL    HW117870   1.265   2.048  20.462  0.5684  0.3640 -1.4739
 1997SOL    HW217871   1.157   1.985  20.376  0.6028  0.6480 -1.7260
 1998SOL     OW17872   4.665   4.162   5.315  0.4457 -0.1552 -0.2402
 1998SOL    HW117873   4.748   4.210   5.318  1.0163 -1.0682 -1.1929
 1998SOL    HW217874   4.619   4.200   5.240 -1.1334  2.1826  1.9029
 1999SOL     OW17875   2.840   1.622  19.198 -0.3172  0.1819 -0.0786
 1999SOL    HW117876   2.906   1.553  19.207  0.1831  0.5684 -0.8496
 1999SOL    HW217877   2.821   1.648  19.288  1.8740  1.3069  0.0571
 2000SOL     OW17878   2.670   2.397   8.897 -0.0312  0.1743 -0.2961
 2000SOL    HW117879   2.651   2.450   8.975 -0.5271 -0.1343 -0.2092
 2000SOL    HW217880   2.594   2.341   8.886 -1.0854  2.0054 -2.4752
 2001SOL     OW17881   4.260   3.739  18.615 -0.4529  0.1671  0.5937
 2001SOL    HW117882   4.341   3.717  18.570 -0.7451  0.7595 -0.2348
 2001SOL    HW217883   4.280   3.821  18.661 -0.5133  0.2038  0.5554
 2002SOL     OW17884   0.124   0.333   9.729 -0.6549 -0.3878  0.2977
 2002SOL    HW117885   0.101   0.402   9.667 -2.0414 -2.2851 -1.3020
 2002SOL    HW217886   0.087   0.254   9.691  1.7896 -2.1684  1.6438
 2003SOL     OW17887   4.758   3.548   5.063 -0.2605  0.0867  0.1518
 2003SOL    HW117888   4.684   3.596   5.100 -1.6709 -0.5071 -1.9323
 2003SOL    HW217889   0.029   3.613   5.010 -0.4828 -0.0857 -0.2531
 2004SOL     OW17890   2.323   1.036   4.280 -0.1010  0.2733 -0.0730
 2004SOL    HW117891   2.344   0.944   4.295  0.4944  0.5743  0.8933
 2004SOL    HW217892   2.245   1.052   4.333 -1.0433 -0.0566 -1.3582
 2005SOL     OW17893   4.716   2.411   3.149 -0.0524  0.1967  0.5181
 2005SOL    HW117894   0.011   2.363   3.106  0.8959  1.7331  0.3636
 2005SOL    HW217895   4.745   2.423   3.239  0.6493  2.3566  0.0064
 2006SOL     OW17896   4.215   1.801   9.937  0.2340  0.3614 -0.2114
 2006SOL    HW117897   4.201   1.896   9.935 -0.2042  0.2953 -0.3655
 2006SOL    HW217898   4.226   1.776   9.845 -1.6449 -0.0278 -0.3229
 2007SOL     OW17899   2.722   3.112  14.629 -0.2657  0.0658  0.4825
 2007SOL    HW117900   2.777   3.069  14.695 -0.5748 -1.0583  0.0091
 2007SOL    HW217901   2.745   3.068  14.547 -0.8143  0.5930  0.0518
 2008SOL     OW17902   0.999   2.609   5.753  0.1863 -0.1702  0.4762
 2008SOL    HW117903   0.914   2.582   5.788 -0.4392  0.2892 -0.6842
 2008SOL    HW217904   1.031   2.674   5.816 -0.9149  0.6150  0.2436
 2009SOL     OW17905   1.225   1.719  13.831 -0.0712 -0.3654  0.0156
 2009SOL    HW117906   1.230   1.776  13.908 -0.3045 -0.3583  0.0243
 2009SOL    HW217907   1.297   1.749  13.775 -1.2236  1.0345 -0.7186
 2010SOL     OW17908   3.754   1.687  13.538  0.2872 -0.2888  0.1940
 2010SOL    HW117909   3.702   1.752  13.490 -0.7181 -0.3021  1.2649
 2010SOL    HW217910   3.844   1.704  13.510 -0.2175  0.1176 -1.2253
 2011SOL     OW17911   0.418   3.155  11.615  0.8766 -0.2951 -0.5144
 2011SOL    HW117912   0.405   3.183  11.706 -1.4669 -1.7058 -0.4109
 2011SOL    HW217913   0.441   3.236  11.568 -0.5375  0.8735  0.8203
 2012SOL     OW17914   3.822   1.656   4.409  0.0476 -0.1616 -0.3247
 2012SOL    HW117915   3.806   1.749   4.393 -0.6488 -0.6111 -2.3143
 2012SOL    HW217916   3.909   1.640   4.372  0.3685 -0.1964  0.4469
 2013SOL     OW17917   0.935   1.192  19.995  0.4621  0.0119 -0.1556
 2013SOL    HW117918   0.881   1.270  19.985  1.2027  0.3636 -1.3779
 2013SOL    HW217919   0.901   1.149  20.074 -0.0206  1.5063  0.4473
 2014SOL     OW17920   1.585   3.451  18.354 -0.0971 -0.1467 -0.3308
 2014SOL    HW117921   1.555   3.485  18.439 -1.5272  0.7373 -1.1992
 2014SOL    HW217922   1.634   3.372  18.376  0.4792  0.6980  1.4308
 2015SOL     OW17923   0.870   0.126   1.175  0.2929 -0.4608  0.4160
 2015SOL    HW117924   0.822   0.049   1.146  0.5000  0.5235 -2.6251
 2015SOL    HW217925   0.802   0.186   1.206 -0.1725 -0.3777 -0.7586
 2016SOL     OW17926   2.288   4.078  15.478  0.0653 -0.5065 -0.6544
 2016SOL    HW117927   2.298   4.106  15.569  0.5795 -0.4383 -0.7352
 2016SOL    HW217928   2.217   4.014  15.481 -0.1182 -0.2861 -0.2495
 2017SOL     OW17929   4.452   0.009  12.696  0.3166 -0.3094  0.4303
 2017SOL    HW117930   4.448   0.046  12.784 -0.2858 -0.7314  0.5831
 2017SOL    HW217931   4.363   0.022  12.661 -0.5086 -3.6933  1.3261
 2018SOL     OW17932   2.699   3.669   1.229 -0.1385 -0.7405  0.1678
 2018SOL    HW117933   2.622   3.704   1.184  0.5149 -1.5061 -1.5683
 2018SOL    HW217934   2.677   3.577   1.244 -0.0216 -0.6820  0.6892
 2019SOL     OW17935   3.573   2.968   5.649 -0.3181  0.2698 -0.4029
 2019SOL    HW117936   3.577   3.063   5.638  0.9109  0.1266 -1.2879
 2019SOL    HW217937   3.535   2.935   5.568  0.5853 -0.1002 -0.6846
 2020SOL     OW17938   3.495   3.204  11.556 -0.1792  0.2934  0.0060
 2020SOL    HW117939   3.442   3.277  11.587 -1.2390 -0.8805  0.9461
 2020SOL    HW217940   3.488   3.138  11.625  1.1360 -0.5185 -0.6342
 2021SOL     OW17941   3.511   3.446  13.449 -0.3550 -0.2183 -0.1181
 2021SOL    HW117942   3.478   3.392  13.521 -0.0390 -0.7384 -0.3665
 2021SOL    HW217943   3.440   3.507  13.431 -1.0397 -1.1048 -0.4139
 2022SOL     OW17944   1.524   3.734   4.290 -0.6033  0.2829 -0.7665
 2022SOL    HW117945   1.524   3.742   4.385 -0.9108 -1.7352 -0.6009
 2022SOL    HW217946   1.592   3.669   4.271 -0.9487  0.2415 -1.8879
 2023SOL     OW17947   2.998   4.691  20.771  0.3743 -0.3864  0.2333
 2023SOL    HW117948   3.019   0.009  20.762  1.6128 -0.5800  1.0001
 2023SOL    HW217949   2.949   4.670  20.692 -0.0392  0.9516  0.1218
 2024SOL     OW17950   0.112   4.617  18.801  0.1201 -0.4215  0.2279
 2024SOL    HW117951   0.025   4.614  18.841  0.9289  1.4949  2.1456
 2024SOL    HW217952   0.097   4.648  18.712 -1.1262  0.2223  0.6692
 2025SOL     OW17953   0.865   4.503  18.723  0.2115 -0.5767  0.0711
 2025SOL    HW117954   0.921   4.498  18.645 -0.6112 -2.2979 -0.4158
 2025SOL    HW217955   0.777   4.491  18.689 -0.2685  0.0648  1.1011
 2026SOL     OW17956   2.050   3.695  19.455  0.3673 -0.5841 -0.1845
 2026SOL    HW117957   2.041   3.779  19.500 -0.5936 -0.0782 -1.3244
 2026SOL    HW217958   2.047   3.717  19.362  2.8558 -1.5671 -0.5120
 2027SOL     OW17959   2.737   1.110  15.822  0.1943 -0.4978 -0.3947
 2027SOL    HW117960   2.691   1.181  15.868  1.5211  0.6820 -0.8817
 2027SOL    HW217961   2.779   1.060  15.891 -0.4986 -0.6383 -0.0712
 2028SOL     OW17962   0.967   3.467   4.037  0.2224  0.2250 -0.3321
 2028SOL    HW117963   0.899   3.533   4.044 -0.0533 -0.3899  2.7688
 2028SOL    HW217964   0.920   3.385   4.021  0.3701  0.2614 -0.9328
 2029SOL     OW17965   1.877   1.898   6.033  0.0023 -0.1129  0.0244
 2029SOL    HW117966   1.946   1.886   5.968 -0.8689 -0.6865 -0.7990
 2029SOL    HW217967   1.897   1.981   6.075 -0.9243  1.5435 -2.7994
 2030SOL     OW17968   1.112   3.848   1.936  0.0647  0.8239 -0.1068
 2030SOL    HW117969   1.061   3.777   1.974  0.3406  0.7188  0.0668
 2030SOL    HW217970   1.174   3.873   2.005 -1.2300  2.4273  0.4913
 2031SOL     OW17971   2.483   3.253   6.164  0.5396 -0.1027  0.2962
 2031SOL    HW117972   2.481   3.245   6.068 -3.1487 -0.2741  0.3671
 2031SOL    HW217973   2.549   3.190   6.192  2.4764  0.7881 -2.2420
 2032SOL     OW17974   1.689   0.395   0.996 -0.1640  0.3146 -0.4429
 2032SOL    HW117975   1.614   0.347   0.963  1.4490 -1.0855 -2.0626
 2032SOL    HW217976   1.726   0.440   0.920  0.9440  0.5973  0.2465
 2033SOL     OW17977   4.404   4.712   2.429 -0.5429 -0.1846 -0.6658
 2033SOL    HW117978   4.464   0.010   2.415 -0.3135 -0.4042 -0.8661
 2033SOL    HW217979   4.330   4.749   2.476  1.1465 -0.5324  2.2462
 2034SOL     OW17980   1.510   0.824   0.814  0.4040 -0.0226 -0.0144
 2034SOL    HW117981   1.442   0.760   0.837  0.8928 -1.7329 -3.2710
 2034SOL    HW217982   1.460   0.899   0.781 -0.0235 -0.2632  0.0737
 2035SOL     OW17983   2.632   0.673   1.868 -0.2577 -0.0551  0.5971
 2035SOL    HW117984   2.575   0.741   1.903 -0.7617  0.2179 -0.7607
 2035SOL    HW217985   2.716   0.716   1.854 -1.4486  1.0150 -3.1326
 2036SOL     OW17986   4.081   1.959   4.695  0.4609  0.0437  0.3129
 2036SOL    HW117987   3.991   1.989   4.707  0.5624  0.6340 -0.3765
 2036SOL    HW217988   4.108   1.998   4.612  1.5859  0.4221  0.8610
 2037SOL     OW17989   1.613   4.173  17.245  0.3801 -0.4118  0.2447
 2037SOL    HW117990   1.666   4.248  17.272  2.3793 -1.0919 -1.7826
 2037SOL    HW217991   1.524   4.207  17.240  1.3588  1.9622 -1.0766
 2038SOL     OW17992   1.696   1.590   1.351 -1.0946  0.4480 -0.2522
 2038SOL    HW117993   1.673   1.513   1.299  0.2844  1.3078 -2.1497
 2038SOL    HW217994   1.617   1.644   1.351 -1.2468  0.2195 -1.0552
 2039SOL     OW17995   4.326   2.162   2.159  0.1485 -0.5812 -0.8772
 2039SOL    HW117996   4.236   2.136   2.141  0.0926 -0.0479 -1.3931
 2039SOL    HW217997   4.329   2.173   2.254 -0.5793  0.2985 -0.9510
 2040SOL     OW17998   4.150   2.628  18.991  0.0721  0.1785 -0.1627
 2040SOL    HW117999   4.180   2.546  18.952  1.7396  1.6670 -2.0325
 2040SOL    HW218000   4.089   2.664  18.928 -0.4149  0.5320  0.5107
 2041SOL     OW18001   2.891   2.426  19.536  0.1152 -0.3907 -0.4881
 2041SOL    HW118002   2.969   2.460  19.580 -0.5471  1.3102 -0.6280
 2041SOL    HW218003   2.861   2.355  19.593 -0.4352  1.4630  1.5729
 2042SOL     OW18004   3.196   4.509  11.673  0.2226 -0.2457 -0.2183
 2042SOL    HW118005   3.128   4.480  11.613  0.9761 -0.0894 -1.1594
 2042SOL    HW218006   3.163   4.592  11.708 -0.1201 -0.2210 -0.5981
 2043SOL     OW18007   2.334   1.659   9.543 -0.0014  0.2004  0.1142
 2043SOL    HW118008   2.298   1.600   9.610 -0.4941  0.2655 -0.1003
 2043SOL    HW218009   2.259   1.684   9.489  0.8289 -1.8439 -1.9874
 2044SOL     OW18010   1.920   2.797  11.689 -0.6683 -0.3399  0.3883
 2044SOL    HW118011   1.884   2.719  11.732  1.1127 -0.3151  1.9390
 2044SOL    HW218012   1.889   2.870  11.742 -0.0207 -0.1875  0.5644
 2045SOL     OW18013   4.607   3.489   4.551 -0.1720  0.0742  0.0633
 2045SOL    HW118014   4.671   3.548   4.511  0.6442 -1.5708 -1.0764
 2045SOL    HW218015   4.638   3.478   4.642 -0.3859  1.4868  0.2985
 2046SOL     OW18016   4.324   3.624  20.357  0.6949  0.3056 -0.4542
 2046SOL    HW118017   4.314   3.650  20.265  0.7802 -0.7659 -0.7610
 2046SOL    HW218018   4.255   3.559  20.371  1.6095 -0.6030 -0.1564
 2047SOL     OW18019   3.996   0.861   1.339 -0.5635  0.3430 -0.1845
 2047SOL    HW118020   3.998   0.772   1.304 -1.5517  0.5524 -0.7858
 2047SOL    HW218021   4.048   0.912   1.277  0.3296  0.1075  0.3737
 2048SOL     OW18022   4.267   0.104  19.808  0.4093  0.1981 -0.3178
 2048SOL    HW118023   4.245   0.046  19.735 -0.7645 -0.3125  0.4430
 2048SOL    HW218024   4.315   0.048  19.869  0.3629  0.3382 -0.1555
 2049SOL     OW18025   2.146   3.899  20.478  0.1767 -0.4657  0.0618
 2049SOL    HW118026   2.139   3.989  20.445 -2.2086  0.2959  2.6776
 2049SOL    HW218027   2.078   3.851  20.430  0.3790 -0.5366 -0.1549
 2050SOL     OW18028   0.366   4.336   4.118  0.1292 -0.3656  0.2656
 2050SOL    HW118029   0.360   4.365   4.209 -0.2095 -1.6063  0.6321
 2050SOL    HW218030   0.445   4.283   4.114  0.3415 -0.0142 -0.2477
 2051SOL     OW18031   2.663   2.792   4.197  0.0441  0.0874  0.2055
 2051SOL    HW118032   2.729   2.850   4.160  0.0698 -0.3765 -0.4717
 2051SOL    HW218033   2.696   2.704   4.181 -0.0381 -0.1142  1.1556
 2052SOL     OW18034   2.536   3.634  20.515 -0.2624  0.6192  0.1689
 2052SOL    HW118035   2.509   3.589  20.434  2.4667 -0.5582 -0.1126
 2052SOL    HW218036   2.538   3.727  20.491  0.1743  0.3057 -1.0208
 2053SOL     OW18037   2.448   4.467   2.764 -0.0077  0.6728 -0.1429
 2053SOL    HW118038   2.502   4.443   2.689  0.3207  2.0202 -0.3304
 2053SOL    HW218039   2.473   4.557   2.784  0.8652 -0.1483  2.4141
 2054SOL     OW18040   2.014   4.723  20.586 -0.4101 -0.4062 -0.0831
 2054SOL    HW118041   2.079   4.719  20.515  0.9636 -1.0216  1.2000
 2054SOL    HW218042   1.957   4.648  20.570 -1.8420  1.1530 -2.2290
 2055SOL     OW18043   1.330   2.403  17.022 -0.0767  0.7534 -0.3647
 2055SOL    HW118044   1.359   2.351  17.097  0.2762  1.6022  0.0857
 2055SOL    HW218045   1.293   2.339  16.961  1.1931 -0.1287 -0.2048
 2056SOL     OW18046   3.130   4.686  14.956 -0.2897  0.0582 -0.1354
 2056SOL    HW118047   3.074   4.609  14.952  1.5524 -1.3265  0.8424
 2056SOL    HW218048   3.199   4.670  14.892  0.6660  0.4392  0.7938
 2057SOL     OW18049   4.356   4.155   9.164 -0.0572 -0.9500  0.0455
 2057SOL    HW118050   4.379   4.116   9.080  0.2409 -1.0541  0.1759
 2057SOL    HW218051   4.391   4.244   9.159 -2.0923 -0.1878 -0.8604
 2058SOL     OW18052   3.333   3.206   5.338 -0.4033 -0.5599  0.0324
 2058SOL    HW118053   3.314   3.113   5.349  0.0391 -0.5398  0.9821
 2058SOL    HW218054   3.410   3.208   5.282 -0.4596 -0.7683 -0.0517
 2059SOL     OW18055   2.624   4.212  16.904 -0.3444 -0.0312 -0.4447
 2059SOL    HW118056   2.716   4.211  16.931 -0.0926  1.1846 -1.2467
 2059SOL    HW218057   2.611   4.127  16.860  0.5608  0.0714 -0.9045
 2060SOL     OW18058   3.337   3.885   5.164  0.0040  0.3849  0.4733
 2060SOL    HW118059   3.352   3.947   5.235 -1.0074  1.2628 -0.0828
 2060SOL    HW218060   3.286   3.934   5.100 -1.0272 -1.1119  0.1651
 2061SOL     OW18061   2.798   1.502  16.732  0.5161  0.1647  0.1021
 2061SOL    HW118062   2.860   1.574  16.719  0.8179  0.3047  2.2746
 2061SOL    HW218063   2.724   1.542  16.776 -0.8100 -0.1625 -1.8421
 2062SOL     OW18064   1.414   2.552   2.679  0.2403  0.1961  0.0410
 2062SOL    HW118065   1.480   2.486   2.702  1.9561  0.8022 -3.0777
 2062SOL    HW218066   1.334   2.502   2.663  0.6955 -0.8210  0.9376
 2063SOL     OW18067   1.255   3.714   4.247 -0.5166 -0.2067 -0.0185
 2063SOL    HW118068   1.350   3.717   4.251 -0.5926  0.3477  1.3232
 2063SOL    HW218069   1.230   3.651   4.315 -1.1844  0.6985  0.5783
 2064SOL     OW18070   2.672   2.183  19.580 -0.1371 -0.0313  0.0986
 2064SOL    HW118071   2.588   2.156  19.616 -0.0040 -0.1633  0.3070
 2064SOL    HW218072   2.656   2.193  19.486 -0.3137 -0.3296  0.0979
 2065SOL     OW18073   2.787   1.478  17.157  0.1163  0.0610 -0.1275
 2065SOL    HW118074   2.789   1.423  17.235 -0.4021  2.7669  1.7717
 2065SOL    HW218075   2.879   1.501  17.143  0.2909 -0.9843 -0.7139
 2066SOL     OW18076   3.972   2.729  17.183  0.0238 -0.0928  0.4153
 2066SOL    HW118077   3.996   2.800  17.124 -0.2915  0.0649  0.4759
 2066SOL    HW218078   3.907   2.767  17.242 -0.1697 -0.4372  0.4280
 2067SOL     OW18079   2.397   1.450   5.678  0.3277  0.2266 -0.5276
 2067SOL    HW118080   2.422   1.542   5.667 -0.8175  0.5415 -0.5225
 2067SOL    HW218081   2.479   1.404   5.693  1.0563  1.0442 -2.0299
 2068SOL     OW18082   4.718   4.540  17.623 -0.2473  0.2186 -0.1932
 2068SOL    HW118083   0.015   4.592  17.591  0.9243 -0.8181  0.7709
 2068SOL    HW218084   4.643   4.599  17.620  0.9903  1.8192  0.5154
 2069SOL     OW18085   0.655   2.371  17.634  0.3320 -0.2075 -0.2402
 2069SOL    HW118086   0.638   2.347  17.543 -2.5661  0.7637  0.0457
 2069SOL    HW218087   0.642   2.289  17.683 -1.8925  0.1650 -0.2192
 2070SOL     OW18088   3.802   2.903  16.107 -0.2189 -0.1006  0.2993
 2070SOL    HW118089   3.725   2.862  16.066  0.1333 -0.2086 -0.2557
 2070SOL    HW218090   3.765   2.958  16.176 -0.8195  0.1054 -0.1791
 2071SOL     OW18091   1.502   1.407   1.755 -0.1526 -0.0347  0.4205
 2071SOL    HW118092   1.472   1.471   1.819  3.8206  0.0915  2.1296
 2071SOL    HW218093   1.475   1.323   1.790  0.2202  0.1921  1.2387
 2072SOL     OW18094   3.612   4.502   2.529  0.2334  0.3211 -0.1424
 2072SOL    HW118095   3.588   4.538   2.614 -2.1405 -0.6297 -0.3944
 2072SOL    HW218096   3.663   4.571   2.487 -1.0538  1.9038  0.8979
 2073SOL     OW18097   3.281   2.970   6.090 -0.0943 -0.2369 -0.6908
 2073SOL    HW118098   3.251   3.040   6.031 -0.3133  0.4174  0.1934
 2073SOL    HW218099   3.341   2.918   6.037  1.3777  1.6213 -0.8545
 2074SOL     OW18100   4.499   1.201  14.247  0.6321 -0.2152  0.0734
 2074SOL    HW118101   4.459   1.204  14.160 -1.3651 -0.7158  0.9817
 2074SOL    HW218102   4.561   1.274  14.247  1.3814 -0.8317 -2.1330
 2075SOL     OW18103   0.257   3.162   0.760  0.2120  0.1798 -0.5186
 2075SOL    HW118104   0.235   3.250   0.791  1.2433 -0.0382  0.8311
 2075SOL    HW218105   0.323   3.175   0.692  0.3204  0.4569 -0.3597
 2076SOL     OW18106   1.228   3.656   2.879  1.0995  0.1649  0.0145
 2076SOL    HW118107   1.214   3.568   2.915  2.0027 -0.5812 -1.4310
 2076SOL    HW218108   1.191   3.715   2.944  0.2144 -1.3135  0.8503
 2077SOL     OW18109   3.779   1.476  20.374 -0.0363 -0.1372  0.0775
 2077SOL    HW118110   3.803   1.385  20.354 -0.7282 -0.2647 -0.1614
 2077SOL    HW218111   3.716   1.468  20.446 -0.9805  0.1021 -0.7339
 2078SOL     OW18112   1.754   3.260   2.655  0.0778 -0.3032 -0.1766
 2078SOL    HW118113   1.662   3.260   2.631  0.0950 -0.7435 -0.2369
 2078SOL    HW218114   1.755   3.275   2.749  0.0093  1.4919 -0.4558
 2079SOL     OW18115   0.115   4.203  20.974  0.5159 -0.1769 -0.1010
 2079SOL    HW118116   0.175   4.276  20.957 -0.5135  0.6540 -0.2089
 2079SOL    HW218117   0.082   4.220  21.063 -1.7866  0.9708 -1.1659
 2080SOL     OW18118   2.346   1.753  15.819  0.2466  0.1149  0.1419
 2080SOL    HW118119   2.431   1.775  15.857  0.6751  0.7951 -1.2018
 2080SOL    HW218120   2.328   1.824  15.757 -0.7333 -0.6665 -0.4709
 2081SOL     OW18121   0.434   0.270   2.990  0.1624  0.4923  0.3902
 2081SOL    HW118122   0.387   0.225   2.920 -0.0480  0.5822  0.4747
 2081SOL    HW218123   0.366   0.319   3.037  0.3222  0.5287  0.5816
 2082SOL     OW18124   3.861   1.219   2.370 -0.3384 -0.5058  0.1495
 2082SOL    HW118125   3.790   1.217   2.307 -0.5416 -0.9584  0.3936
 2082SOL    HW218126   3.881   1.127   2.387 -1.6543 -0.4090  2.3059
 2083SOL     OW18127   0.328   2.230  10.921 -0.4085 -0.0321  0.0598
 2083SOL    HW118128   0.249   2.273  10.888 -0.4625 -0.3421 -0.2213
 2083SOL    HW218129   0.351   2.278  11.000 -1.2775 -0.3776  0.5251
 2084SOL     OW18130   4.508   1.680  12.265  0.4544 -0.0623  0.5525
 2084SOL    HW118131   4.487   1.587  12.267  3.5032 -0.7284  1.2441
 2084SOL    HW218132   4.548   1.697  12.350 -2.1869  2.3683  1.3292
 2085SOL     OW18133   1.718   0.912   2.510  0.1016 -0.5517 -0.1948
 2085SOL    HW118134   1.639   0.864   2.484  0.3893 -1.5156  0.7276
 2085SOL    HW218135   1.704   0.934   2.602  0.5395  0.0177 -0.2604
 2086SOL     OW18136   2.268   2.590  14.304  0.2709  0.3212 -0.3020
 2086SOL    HW118137   2.191   2.534  14.304 -0.6841  1.6060  2.9150
 2086SOL    HW218138   2.323   2.555  14.374  2.9353 -1.0466 -3.0791
 2087SOL     OW18139   0.646   1.048   0.264 -0.2368 -0.3477 -0.3951
 2087SOL    HW118140   0.652   1.068   0.170 -0.4035  1.3823 -0.0281
 2087SOL    HW218141   0.597   0.966   0.268 -1.4596  0.3223 -1.7298
 2088SOL     OW18142   4.355   3.085   3.302  0.2686 -0.4890  0.0360
 2088SOL    HW118143   4.423   3.018   3.296 -0.4343 -1.0477 -1.6333
 2088SOL    HW218144   4.332   3.104   3.211 -1.2799  0.2383  0.5876
 2089SOL     OW18145   4.156   4.160  18.464 -0.0172 -0.1359 -0.1004
 2089SOL    HW118146   4.226   4.180  18.526 -0.1429  0.2392 -0.0765
 2089SOL    HW218147   4.180   4.076  18.427  1.1934  0.6654 -1.1404
 2090SOL     OW18148   0.350   3.485  19.022 -0.4441 -0.4799 -0.1314
 2090SOL    HW118149   0.330   3.570  18.984 -0.8681 -0.2812  0.5384
 2090SOL    HW218150   0.446   3.478  19.015 -0.1702  1.0797  1.9672
 2091SOL     OW18151   3.960   1.471   1.040 -0.0074 -0.0137  0.2045
 2091SOL    HW118152   3.911   1.524   0.977 -0.7885  2.1184  2.6365
 2091SOL    HW218153   4.048   1.511   1.041  0.7000 -1.5514 -1.3819
 2092SOL     OW18154   3.230   2.222  17.305  0.3418 -0.1695 -0.0620
 2092SOL    HW118155   3.250   2.129  17.316 -0.0663 -0.4582 -1.7791
 2092SOL    HW218156   3.313   2.262  17.280  0.1792 -0.3276 -0.8596
 2093SOL     OW18157   1.013   4.440  19.242 -0.0878 -0.4734  0.4395
 2093SOL    HW118158   1.070   4.364  19.237 -0.6769 -0.8733 -0.1199
 2093SOL    HW218159   0.973   4.447  19.156 -2.5637 -1.4924  1.5034
 2094SOL     OW18160   0.653   3.227  16.010  0.5699  0.6208  0.2647
 2094SOL    HW118161   0.643   3.287  15.936 -0.5334 -1.6837 -1.4469
 2094SOL    HW218162   0.565   3.218  16.046  1.0398  1.4413  1.6270
 2095SOL     OW18163   1.306   2.416  14.061 -0.4908  0.4775 -0.0254
 2095SOL    HW118164   1.269   2.435  13.975  0.4143  1.4332 -0.2034
 2095SOL    HW218165   1.384   2.471  14.066  0.5491 -1.0466  0.6093
 2096SOL     OW18166   3.092   1.243   0.629 -0.3236 -0.0365 -0.6161
 2096SOL    HW118167   3.052   1.324   0.660  0.9251  0.7163 -0.9484
 2096SOL    HW218168   3.053   1.174   0.683  0.8218  1.1082  1.6758
 2097SOL     OW18169   3.064   2.307   4.158  0.0148 -0.1065 -0.5843
 2097SOL    HW118170   3.106   2.245   4.099 -0.7303 -0.8027 -0.3879
 2097SOL    HW218171   2.989   2.259   4.194 -0.8071  1.0483 -0.7534
 2098SOL     OW18172   4.336   3.774  19.813 -0.0391 -0.4954  0.4867
 2098SOL    HW118173   4.335   3.819  19.728  0.7856 -0.1300  0.6720
 2098SOL    HW218174   4.414   3.718  19.809 -0.2361 -0.7878  0.8334
 2099SOL     OW18175   2.013   3.445  16.269 -0.4075  0.5491 -0.4104
 2099SOL    HW118176   2.002   3.351  16.283 -2.5809  1.1014  1.5564
 2099SOL    HW218177   1.965   3.463  16.188  1.6174 -0.3842 -1.8071
 2100SOL     OW18178   0.736   0.837   2.101 -0.4461  0.0832  0.2902
 2100SOL    HW118179   0.817   0.787   2.112 -1.8088 -2.1507  0.1811
 2100SOL    HW218180   0.729   0.850   2.006  0.4987  1.4402  0.4123
 2101SOL     OW18181   0.909   3.835  16.516  0.1528  0.1711  0.4370
 2101SOL    HW118182   0.996   3.801  16.493  0.0015 -0.7970  1.2807
 2101SOL    HW218183   0.877   3.875  16.436  0.6501 -1.0403 -0.3680
 2102SOL     OW18184   0.644   0.705   4.145 -0.5297 -0.4679  0.0926
 2102SOL    HW118185   0.571   0.765   4.135 -0.8546 -1.0209 -0.8435
 2102SOL    HW218186   0.660   0.671   4.056  1.2190  0.0875  0.1855
 2103SOL     OW18187   1.904   1.875   3.711  0.1796  0.0901  0.1135
 2103SOL    HW118188   1.882   1.785   3.687  2.2395 -0.3503 -0.1346
 2103SOL    HW218189   1.885   1.926   3.632 -1.0800 -0.0980  0.2842
 2104SOL     OW18190   3.892   1.530   3.838  0.1791  0.0590 -0.1509
 2104SOL    HW118191   3.852   1.522   3.925 -1.4226  1.2136 -0.7832
 2104SOL    HW218192   3.855   1.457   3.788 -1.0632  1.0504 -0.6967
 2105SOL     OW18193   1.718   1.913   3.273  0.0702  0.0353 -0.0700
 2105SOL    HW118194   1.720   1.923   3.178 -1.6784 -0.8720 -0.2137
 2105SOL    HW218195   1.723   1.818   3.287  2.8332  0.3108  0.8187
 2106SOL     OW18196   0.272   3.450   0.342 -0.0361  0.1201  0.0002
 2106SOL    HW118197   0.337   3.439   0.272 -0.7579  1.4707 -0.8693
 2106SOL    HW218198   0.314   3.510   0.404  0.5836 -1.0382  0.7126
 2107SOL     OW18199   1.278   0.531  17.660  0.3219 -0.0162 -0.3618
 2107SOL    HW118200   1.267   0.626  17.670  0.6658  0.0779 -0.8662
 2107SOL    HW218201   1.373   0.518  17.663  0.2978 -0.2862 -0.8142
 2108SOL     OW18202   3.079   4.483  20.395 -0.3184 -0.0499  0.1174
 2108SOL    HW118203   3.165   4.520  20.374 -0.8426  1.8183  1.2192
 2108SOL    HW218204   3.063   4.419  20.326  1.6604  0.0808 -0.4809
 2109SOL     OW18205   1.196   0.029   1.582  0.3698 -0.0025  0.4962
 2109SOL    HW118206   1.123   0.065   1.532  0.9330  0.1248 -0.2404
 2109SOL    HW218207   1.253   0.104   1.599 -0.3962  0.1616  2.3311
 2110SOL     OW18208   2.862   3.967   5.661  0.1893 -0.0262  0.2359
 2110SOL    HW118209   2.913   3.965   5.580 -0.1360 -1.2959  0.0634
 2110SOL    HW218210   2.925   3.945   5.729  0.2061 -0.1234  0.1898
 2111SOL     OW18211   4.447   3.612   3.528 -0.5706 -0.1955 -0.2749
 2111SOL    HW118212   4.405   3.672   3.589 -0.4240  0.0430 -0.4123
 2111SOL    HW218213   4.487   3.668   3.462 -0.4588 -0.4432 -0.4179
 2112SOL     OW18214   4.097   3.957   5.074 -0.3764 -0.2442 -0.1236
 2112SOL    HW118215   4.088   3.954   4.978 -1.1516 -1.7634 -0.0140
 2112SOL    HW218216   4.094   3.865   5.100  1.4595  0.0934  1.2171
 2113SOL     OW18217   1.446   2.983   4.186 -0.0521 -0.4988  0.0052
 2113SOL    HW118218   1.516   3.015   4.129 -0.4676 -0.5174 -0.5046
 2113SOL    HW218219   1.415   2.903   4.144  0.1125 -0.8864  0.6139
 2114SOL     OW18220   0.119   2.975   1.757 -0.0430  1.0384  0.0820
 2114SOL    HW118221   0.030   2.940   1.765  0.3243  0.5772  2.1451
 2114SOL    HW218222   0.133   3.024   1.838  2.4356 -0.8416  0.8224
 2115SOL     OW18223   2.936   3.037   4.585 -0.0926 -0.0274  0.3614
 2115SOL    HW118224   2.886   3.097   4.642  0.8193  1.0534  0.0312
 2115SOL    HW218225   2.872   3.002   4.524 -0.2318  2.2356 -0.7869
 2116SOL     OW18226   0.415   4.212   5.004  0.2218 -0.4180 -0.2106
 2116SOL    HW118227   0.440   4.262   4.927  0.2842 -0.9806 -0.5526
 2116SOL    HW218228   0.394   4.125   4.971  2.0739 -1.1896  0.6419
 2117SOL     OW18229   2.671   3.358  16.941 -0.0212 -0.1174 -0.0008
 2117SOL    HW118230   2.732   3.331  16.872 -0.3279 -0.0753 -0.2885
 2117SOL    HW218231   2.725   3.408  17.003  0.1264  0.4160 -0.5572
 2118SOL     OW18232   1.483   2.848   3.197  0.1853 -0.0495  0.4142
 2118SOL    HW118233   1.562   2.801   3.171  0.3857  1.3711 -1.5085
 2118SOL    HW218234   1.483   2.843   3.293  0.9438 -2.7635  0.2678
 2119SOL     OW18235   4.457   0.824  10.820 -0.0241  0.9540  0.0830
 2119SOL    HW118236   4.551   0.822  10.834  0.2618  1.2949 -1.7514
 2119SOL    HW218237   4.439   0.911  10.784 -0.7731  0.2579 -1.2699
 2120SOL     OW18238   3.015   0.148  12.483 -0.4432  0.0005 -0.1595
 2120SOL    HW118239   2.928   0.120  12.510 -0.9475  0.3829 -1.4033
 2120SOL    HW218240   3.041   0.213  12.549 -1.8496  1.2447 -0.8261
 2121SOL     OW18241   4.027   2.857   4.956 -0.1102 -0.1843 -0.1143
 2121SOL    HW118242   4.099   2.872   5.017  1.1986 -0.9944 -1.4592
 2121SOL    HW218243   3.963   2.926   4.977  1.2748  0.8465  0.7177
 2122SOL     OW18244   2.501   1.519   2.835  0.1770  0.5060  0.1312
 2122SOL    HW118245   2.444   1.596   2.847  1.2954  1.3807 -0.2243
 2122SOL    HW218246   2.475   1.485   2.749  0.6909  1.3265 -0.3526
 2123SOL     OW18247   3.703   0.679  18.675 -0.2610 -0.2659  0.2941
 2123SOL    HW118248   3.625   0.717  18.714 -1.6435 -1.5767 -1.1961
 2123SOL    HW218249   3.758   0.754  18.651 -2.0651  0.6941 -0.7808
 2124SOL     OW18250   1.614   1.160   4.244  0.1232  0.2733 -0.1182
 2124SOL    HW118251   1.669   1.185   4.319  0.2916 -0.3192 -0.0495
 2124SOL    HW218252   1.567   1.241   4.222 -0.5040  0.2518  1.1166
 2125SOL     OW18253   1.904   1.950   2.313  0.2883  0.3728 -0.4410
 2125SOL    HW118254   1.927   2.023   2.370 -1.2748 -0.4693  1.2669
 2125SOL    HW218255   1.831   1.984   2.261 -0.2145  0.1450  0.1148
 2126SOL     OW18256   4.338   3.646   1.196  0.3632 -0.3287 -0.7189
 2126SOL    HW118257   4.289   3.630   1.277 -2.3645  0.3444 -2.2322
 2126SOL    HW218258   4.327   3.740   1.180  1.0646 -0.4305 -1.7761
 2127SOL     OW18259   4.073   1.404  16.401  0.1264 -0.4024 -0.0398
 2127SOL    HW118260   4.018   1.377  16.327 -0.5497 -0.5224  0.5125
 2127SOL    HW218261   4.109   1.489  16.374  1.5144 -1.4203 -1.3766
 2128SOL     OW18262   1.012   1.640  17.344  0.5611  0.2019  0.2267
 2128SOL    HW118263   1.103   1.629  17.317  0.9226 -0.0115  1.5518
 2128SOL    HW218264   0.987   1.725  17.308  0.9244 -0.2595 -1.1375
 2129SOL     OW18265   3.095   1.917  12.932 -0.2314 -0.4812 -0.0682
 2129SOL    HW118266   3.038   1.980  12.888  1.0592  1.4670  1.0544
 2129SOL    HW218267   3.060   1.831  12.907 -2.5654  0.6903 -0.8263
 2130SOL     OW18268   3.262   0.584   8.169 -0.4841  0.0034 -1.0131
 2130SOL    HW118269   3.332   0.521   8.151 -0.7688 -0.2749 -1.1459
 2130SOL    HW218270   3.186   0.530   8.191 -1.0299  0.2840 -2.2359
 2131SOL     OW18271   1.823   3.849  12.454 -0.8299  0.1461 -0.4606
 2131SOL    HW118272   1.770   3.791  12.509  0.4104 -1.0461 -0.5237
 2131SOL    HW218273   1.843   3.924  12.510 -0.0972 -0.7840  0.5249
 2132SOL     OW18274   1.184   3.993  16.664  0.1322  0.0702 -0.0775
 2132SOL    HW118275   1.148   4.038  16.587 -0.2241 -0.2930 -0.1228
 2132SOL    HW218276   1.262   3.949  16.631  0.5241  0.7223 -0.0168
 2133SOL     OW18277   0.980   2.979   4.882  0.5742  0.2009  0.4469
 2133SOL    HW118278   1.031   2.980   4.963  0.6239 -0.3803  0.4220
 2133SOL    HW218279   0.892   3.006   4.909  0.4565 -0.5138  0.7857
 2134SOL     OW18280   4.140   3.388   5.093 -0.3759 -0.4694  0.5370
 2134SOL    HW118281   4.195   3.367   5.018  0.6271  0.8986  0.8946
 2134SOL    HW218282   4.200   3.394   5.167 -1.1904 -0.4714  1.2073
 2135SOL     OW18283   0.022   3.107  18.561  0.1709  0.2931 -0.3383
 2135SOL    HW118284   0.018   3.012  18.572  1.7619  0.4272  1.4091
 2135SOL    HW218285   0.041   3.120  18.468  3.3696 -1.1446  0.1281
 2136SOL     OW18286   4.664   3.711   7.818 -0.1860  0.3090 -0.0213
 2136SOL    HW118287   4.691   3.772   7.887 -1.5918  0.5111  0.3495
 2136SOL    HW218288   4.700   3.749   7.738  0.7509  0.5068  0.4931
 2137SOL     OW18289   4.687   2.552  18.412 -0.2861  0.0056  0.2914
 2137SOL    HW118290   4.640   2.468  18.406 -1.3040  0.5826  0.1660
 2137SOL    HW218291   4.648   2.596  18.487  1.4264 -0.3573  1.3804
 2138SOL     OW18292   0.929   1.950  16.110  0.0514  0.3103  0.0109
 2138SOL    HW118293   0.969   1.888  16.173 -1.2024 -2.2135 -1.6724
 2138SOL    HW218294   0.843   1.968  16.147 -0.6680 -1.1381 -0.9376
 2139SOL     OW18295   3.762   2.618   0.920  0.3928 -0.1892  0.1408
 2139SOL    HW118296   3.727   2.691   0.869  0.4684 -0.0019  0.3574
 2139SOL    HW218297   3.758   2.647   1.011  0.9977 -0.2122  0.1762
 2140SOL     OW18298   0.605   0.838   6.500 -0.1652 -0.2230  0.7263
 2140SOL    HW118299   0.637   0.920   6.463 -0.1258  0.1839  1.6436
 2140SOL    HW218300   0.656   0.770   6.456  1.4504  0.3817  1.6615
 2141SOL     OW18301   4.082   1.629   4.329  0.1963 -0.5972  0.4222
 2141SOL    HW118302   4.087   1.617   4.234 -2.0743  1.1213  0.0653
 2141SOL    HW218303   4.138   1.704   4.347 -0.8048  0.2018  0.2089
 2142SOL     OW18304   2.532   1.746  18.684  0.3963 -0.4775  0.5113
 2142SOL    HW118305   2.522   1.667  18.736 -2.4300 -0.5368 -0.1324
 2142SOL    HW218306   2.547   1.715  18.595 -2.5246 -0.2899 -0.0661
 2143SOL     OW18307   1.549   1.347   1.326  0.1119 -1.0413 -0.1864
 2143SOL    HW118308   1.553   1.285   1.398 -1.1514 -2.2987 -1.1854
 2143SOL    HW218309   1.535   1.293   1.248 -0.9517  0.4866 -1.0703
 2144SOL     OW18310   2.749   1.595  14.559 -0.3585 -0.1028 -0.0244
 2144SOL    HW118311   2.840   1.572  14.540 -0.6946 -1.7957  0.4195
 2144SOL    HW218312   2.737   1.681  14.518  1.2828 -0.1210 -0.5413
 2145SOL     OW18313   3.062   2.515  13.541  0.9693  0.0164  0.0085
 2145SOL    HW118314   3.147   2.559  13.544 -0.1439  2.1471  0.3513
 2145SOL    HW218315   3.031   2.527  13.452 -0.0372  1.2715  0.5220
 2146SOL     OW18316   3.622   4.681  13.408 -0.2346 -0.0913  0.1751
 2146SOL    HW118317   3.662   4.741  13.345 -1.5168  0.2899 -0.2656
 2146SOL    HW218318   3.609   4.734  13.487 -0.3335 -0.0932  0.1593
 2147SOL     OW18319   1.853   4.617   0.497 -0.1399 -0.0191 -0.3778
 2147SOL    HW118320   1.942   4.584   0.487  0.4228  1.7286 -1.2450
 2147SOL    HW218321   1.807   4.549   0.545  1.9065 -0.5548  0.8252
 2148SOL     OW18322   2.076   1.720  14.162  0.3651 -0.4431 -0.7823
 2148SOL    HW118323   2.166   1.692  14.178  0.1070  0.2810  2.0609
 2148SOL    HW218324   2.079   1.816  14.168 -0.8270 -0.4921  0.6085
 2149SOL     OW18325   3.507   0.408  18.245 -0.0770  0.8848  0.1221
 2149SOL    HW118326   3.425   0.451  18.220 -0.9996 -0.9826 -0.1103
 2149SOL    HW218327   3.534   0.453  18.326 -1.6123  1.1555  0.4881
 2150SOL     OW18328   3.204   4.222   6.701  0.0419 -0.4505 -0.3009
 2150SOL    HW118329   3.231   4.298   6.649  0.5119  0.5437  1.4161
 2150SOL    HW218330   3.222   4.247   6.791 -1.2958 -1.9967  0.3847
 2151SOL     OW18331   1.392   1.897  16.577 -0.2466 -0.1494 -0.1669
 2151SOL    HW118332   1.466   1.889  16.516  0.2901  0.5437  0.3969
 2151SOL    HW218333   1.325   1.838  16.541  0.1956  0.0011 -1.2450
 2152SOL     OW18334   4.057   3.897  20.106  0.4656 -0.0198  0.5594
 2152SOL    HW118335   4.000   3.853  20.169 -1.9694  0.4871 -1.3251
 2152SOL    HW218336   4.113   3.827  20.072 -1.0576 -1.0570  0.1689
 2153SOL     OW18337   1.218   3.901   5.638  0.1981  0.5461 -0.0360
 2153SOL    HW118338   1.303   3.860   5.652  1.3174  2.9148  0.2505
 2153SOL    HW218339   1.236   3.995   5.645 -2.5105  1.0359  0.4084
 2154SOL     OW18340   3.443   0.308   1.431 -0.5723  0.4039  0.3912
 2154SOL    HW118341   3.356   0.319   1.393 -0.4616 -0.7627 -0.2086
 2154SOL    HW218342   3.491   0.257   1.366 -0.1338 -0.8885  1.7073
 2155SOL     OW18343   1.465   1.607   4.749  0.4462  0.7430 -1.1089
 2155SOL    HW118344   1.371   1.594   4.755  0.4676  2.1003  2.1764
 2155SOL    HW218345   1.477   1.702   4.744  1.7551  0.6685  0.5674
 2156SOL     OW18346   4.599   2.557  16.603 -0.0222  0.4586 -0.2146
 2156SOL    HW118347   4.628   2.491  16.540 -0.5618 -0.5045  0.5319
 2156SOL    HW218348   4.644   2.533  16.684 -0.9675  0.4360  0.3026
 2157SOL     OW18349   2.640   2.505  20.961  0.1870 -0.0449 -0.4010
 2157SOL    HW118350   2.593   2.578  20.923  0.5741  0.7692  0.6623
 2157SOL    HW218351   2.587   2.428  20.940  0.6032  0.3503 -2.8770
 2158SOL     OW18352   1.490   1.165   0.428  0.4139 -0.2812  0.2308
 2158SOL    HW118353   1.494   1.070   0.422  0.9270 -0.2551  0.1274
 2158SOL    HW218354   1.404   1.184   0.464  0.0154 -0.7573 -0.4692
 2159SOL     OW18355   3.143   0.273  12.235 -0.3102 -0.2307 -0.1352
 2159SOL    HW118356   3.130   0.221  12.315 -0.9734 -0.5877 -0.4821
 2159SOL    HW218357   3.055   0.299  12.208  0.0562  1.3776  0.2372
 2160SOL     OW18358   2.320   1.007  10.483 -0.1565  0.5944  0.1572
 2160SOL    HW118359   2.317   0.915  10.457  0.7357  0.4866  0.4172
 2160SOL    HW218360   2.239   1.021  10.531 -0.6188  0.1239 -0.4809
 2161SOL     OW18361   0.080   0.072   0.198 -0.2109 -0.9821  0.5147
 2161SOL    HW118362   0.085   0.156   0.154 -2.8733 -1.6394 -1.0449
 2161SOL    HW218363   0.117   0.009   0.135  0.8948 -1.1334  1.3051
 2162SOL     OW18364   1.279   4.259  18.513  0.2940 -0.4024 -0.1288
 2162SOL    HW118365   1.186   4.245  18.497  0.1423  2.0815 -1.3389
 2162SOL    HW218366   1.318   4.172  18.503 -1.5237 -0.9976 -1.9625
 2163SOL     OW18367   4.218   2.498   2.941 -0.2396 -0.4106  0.2646
 2163SOL    HW118368   4.122   2.499   2.940 -0.2605 -2.4595 -0.7844
 2163SOL    HW218369   4.243   2.542   2.859 -0.2774  0.4688  0.7243
 2164SOL     OW18370   2.801   2.448   0.761  0.4496 -0.1052  0.1265
 2164SOL    HW118371   2.721   2.424   0.713  1.2382  1.8129 -2.1771
 2164SOL    HW218372   2.872   2.409   0.709  1.3215  2.1627 -0.4102
 2165SOL     OW18373   2.828   2.051   0.987  0.4307  0.7338  1.0504
 2165SOL    HW118374   2.874   2.073   1.068  0.6900  0.2156  1.0438
 2165SOL    HW218375   2.740   2.086   0.999 -0.1266 -1.1404  2.3846
 2166SOL     OW18376   4.673   2.196   3.539  0.5418 -0.0760  0.2023
 2166SOL    HW118377   4.589   2.221   3.576  1.2806  2.5708  0.0969
 2166SOL    HW218378   4.722   2.159   3.613 -1.1486 -2.6946  0.0039
 2167SOL     OW18379   4.129   1.208  19.371 -0.0433 -0.1940  0.2180
 2167SOL    HW118380   4.112   1.124  19.414  1.3488 -0.4482  0.2753
 2167SOL    HW218381   4.218   1.232  19.399 -0.1443  0.9262 -0.4051
 2168SOL     OW18382   1.206   4.501  16.697 -0.0767 -0.3587  0.5118
 2168SOL    HW118383   1.121   4.542  16.709  0.0159 -0.1052  0.2944
 2168SOL    HW218384   1.186   4.413  16.664 -0.2152  0.0425 -0.4737
 2169SOL     OW18385   2.133   1.011   4.483  0.0685  0.1330  0.0121
 2169SOL    HW118386   2.047   1.026   4.524  1.3207  1.1691  2.2585
 2169SOL    HW218387   2.175   0.947   4.539  0.3938 -1.0784 -1.6286
 2170SOL     OW18388   3.557   3.719  12.479  0.2554 -0.0730  0.2360
 2170SOL    HW118389   3.576   3.636  12.524  0.5578 -1.5901 -2.6571
 2170SOL    HW218390   3.465   3.712  12.455  0.7661 -0.3612 -1.6475
 2171SOL     OW18391   4.447   0.859  18.409 -0.2663  0.0968 -0.6070
 2171SOL    HW118392   4.403   0.797  18.350  0.5589 -2.2850  1.2871
 2171SOL    HW218393   4.422   0.830  18.497  0.3037  2.3220  0.2803
 2172SOL     OW18394   1.633   3.286   3.700  0.1657  0.0215 -0.1575
 2172SOL    HW118395   1.547   3.260   3.734  0.2230  0.1264  0.0711
 2172SOL    HW218396   1.678   3.322   3.776  0.0690  0.8266 -0.4811
 2173SOL     OW18397   0.095   2.531   1.447 -0.1549  0.7640  0.5259
 2173SOL    HW118398   0.130   2.621   1.444 -0.4179  0.8380 -0.5210
 2173SOL    HW218399   0.036   2.531   1.522  0.2649  1.3173  0.8631
 2174SOL     OW18400   0.395   1.323  19.878  0.3154  0.0570  0.3495
 2174SOL    HW118401   0.346   1.390  19.831 -0.1843  0.1079  0.9580
 2174SOL    HW218402   0.331   1.254  19.896  1.1726 -1.2634 -1.6263
 2175SOL     OW18403   0.411   3.751  11.358  0.4329 -0.0245 -0.6375
 2175SOL    HW118404   0.455   3.698  11.290  0.8884 -0.2493 -0.1677
 2175SOL    HW218405   0.397   3.836  11.316  0.9494 -0.0787 -0.9312
 2176SOL     OW18406   2.453   0.618   9.008  0.9189  0.3048  0.2288
 2176SOL    HW118407   2.505   0.566   9.068  1.2431  0.6965  0.2880
 2176SOL    HW218408   2.501   0.615   8.925  1.3231  1.1228  0.4321
 2177SOL     OW18409   3.100   4.676   9.109 -0.6383 -0.0243  0.3108
 2177SOL    HW118410   3.074   4.718   9.191  1.8475  0.9924  0.5569
 2177SOL    HW218411   3.195   4.675   9.112 -0.5661 -0.0852 -2.5174
 2178SOL     OW18412   3.584   3.826   4.604  0.0383  0.2407 -0.1633
 2178SOL    HW118413   3.575   3.839   4.699  0.6346  2.4459 -0.4133
 2178SOL    HW218414   3.653   3.887   4.577  0.3636 -0.8942 -1.9044
 2179SOL     OW18415   0.803   1.324  17.910 -0.0157  0.1349 -0.4056
 2179SOL    HW118416   0.744   1.274  17.853 -0.1200  0.9422 -1.0113
 2179SOL    HW218417   0.879   1.269  17.922  0.0887  0.0598 -1.4958
 2180SOL     OW18418   4.656   2.080   5.113  0.0077  0.0311  0.8748
 2180SOL    HW118419   4.732   2.050   5.164 -1.9905 -1.3899  3.0631
 2180SOL    HW218420   4.581   2.043   5.160 -1.9884  1.0053 -1.5888
 2181SOL     OW18421   2.465   3.239   5.895 -0.4161  0.0111  0.9098
 2181SOL    HW118422   2.457   3.321   5.845 -1.5265  0.5372  1.9645
 2181SOL    HW218423   2.550   3.204   5.869 -0.1352  1.2736  0.1179
 2182SOL     OW18424   2.214   2.832  20.449  0.5775 -0.5343 -0.7516
 2182SOL    HW118425   2.285   2.784  20.491 -1.3264 -3.3750 -0.7933
 2182SOL    HW218426   2.253   2.867  20.369  2.5211 -0.3034  0.3091
 2183SOL     OW18427   1.419   0.579  16.084 -0.1757 -0.7910  0.4725
 2183SOL    HW118428   1.457   0.626  16.010 -0.8964 -0.8005  0.1002
 2183SOL    HW218429   1.467   0.497  16.088 -0.2774 -0.8746 -0.1027
 2184SOL     OW18430   4.336   1.554   2.354  0.2676  0.6615 -0.2828
 2184SOL    HW118431   4.259   1.565   2.298 -0.1685  0.7358  0.3319
 2184SOL    HW218432   4.411   1.570   2.296 -0.1512 -0.2727 -1.0787
 2185SOL     OW18433   0.199   1.234  18.083  0.4988  0.5609 -0.2274
 2185SOL    HW118434   0.104   1.227  18.084  0.4298  1.3523 -1.1013
 2185SOL    HW218435   0.222   1.259  18.173 -0.2176  1.6040 -0.3343
 2186SOL     OW18436   4.660   0.505   2.534  1.0035 -0.1617 -0.1117
 2186SOL    HW118437   4.733   0.455   2.571  0.9528  0.6951  1.1661
 2186SOL    HW218438   4.602   0.522   2.609 -0.4200 -0.6940 -1.0867
 2187SOL     OW18439   1.073   4.654   0.817 -0.0887  0.4970  0.0002
 2187SOL    HW118440   1.084   4.571   0.771  0.2097 -0.2773  1.4496
 2187SOL    HW218441   0.981   4.656   0.841  0.3584 -0.3853  1.7978
 2188SOL     OW18442   0.149   2.330  20.084  0.1234 -0.0487 -0.9527
 2188SOL    HW118443   0.110   2.358  20.002  1.9086 -2.0902 -2.4879
 2188SOL    HW218444   0.243   2.337  20.070  0.4870 -2.8002  0.0771
 2189SOL     OW18445   1.529   0.487   0.205  0.5384  0.1353  0.3573
 2189SOL    HW118446   1.590   0.560   0.209  0.3051  0.3076  0.8919
 2189SOL    HW218447   1.477   0.495   0.285 -1.8217  1.4378 -1.3094
 2190SOL     OW18448   2.250   1.299   5.165  0.7484 -0.2485 -0.4158
 2190SOL    HW118449   2.208   1.374   5.122 -0.7398 -0.7284  0.1849
 2190SOL    HW218450   2.249   1.229   5.100  1.0463 -0.1169 -0.5624
 2191SOL     OW18451   4.691   3.571   3.662 -0.1677 -0.4598  0.2925
 2191SOL    HW118452   4.711   3.492   3.713 -1.7380 -0.4586  0.9069
 2191SOL    HW218453   4.609   3.551   3.617 -0.5571  0.8257  0.4346
 2192SOL     OW18454   0.150   3.675  16.523 -0.3066  0.2833 -0.3708
 2192SOL    HW118455   0.161   3.624  16.443 -0.1719 -0.1913 -0.0448
 2192SOL    HW218456   0.056   3.691  16.528 -0.7829 -3.2205  1.5949
 2193SOL     OW18457   4.246   3.091   5.072  0.1899 -0.1015  0.0396
 2193SOL    HW118458   4.192   3.112   5.149  1.8517  1.3298  0.8069
 2193SOL    HW218459   4.270   3.176   5.035  1.1966 -0.7589 -0.8131
 2194SOL     OW18460   3.787   0.960   3.877 -0.6746  0.2964  0.3694
 2194SOL    HW118461   3.830   0.946   3.961 -0.0948 -0.6481 -0.0771
 2194SOL    HW218462   3.782   0.872   3.838  0.7123  1.0072 -1.3842
 2195SOL     OW18463   1.650   3.743   1.187 -0.1212 -0.0715 -0.0741
 2195SOL    HW118464   1.720   3.687   1.220  0.4274  0.4513 -0.3601
 2195SOL    HW218465   1.603   3.688   1.123  0.9958  0.1202 -1.0527
 2196SOL     OW18466   0.780   4.195  15.908 -0.5138 -0.0997 -0.1377
 2196SOL    HW118467   0.873   4.218  15.896 -0.7524 -0.5638 -2.7911
 2196SOL    HW218468   0.771   4.185  16.002  1.8485  1.2582  0.2586
 2197SOL     OW18469   0.111   0.057   8.501  0.3442  0.2162 -0.6979
 2197SOL    HW118470   0.109   0.046   8.596  0.8566  0.5185 -0.6540
 2197SOL    HW218471   0.041   0.119   8.482  0.6310  0.6076 -0.4631
 2198SOL     OW18472   4.045   2.373  17.214 -0.0922  0.4048 -0.0593
 2198SOL    HW118473   4.098   2.451  17.195  0.1163  0.3833  0.4345
 2198SOL    HW218474   4.106   2.300  17.208 -0.0043  0.4058  0.7742
 2199SOL     OW18475   0.174   3.718  14.415  0.1681  0.1195  0.0067
 2199SOL    HW118476   0.124   3.724  14.334 -0.8542 -0.9826  0.5729
 2199SOL    HW218477   0.123   3.660  14.472  0.6359  1.2772  1.6170
 2200SOL     OW18478   3.686   2.995  18.823 -0.2479 -0.1833  0.2114
 2200SOL    HW118479   3.618   3.031  18.767 -0.9280 -1.6511  0.0827
 2200SOL    HW218480   3.662   3.022  18.911  2.2028  4.2550 -0.5112
 2201SOL     OW18481   1.980   3.950   4.115 -0.7671 -0.0525  0.1064
 2201SOL    HW118482   1.972   3.875   4.175  1.0303  0.8151  1.4143
 2201SOL    HW218483   2.065   3.938   4.073 -1.4332  0.0846 -1.2778
 2202SOL     OW18484   0.455   2.392   3.740 -0.0091  0.2500  0.0567
 2202SOL    HW118485   0.478   2.383   3.648 -2.2634  0.0972 -0.4890
 2202SOL    HW218486   0.374   2.342   3.750 -0.0473  0.6724  2.0087
 2203SOL     OW18487   0.010   1.305  11.118 -0.0778  0.2571 -0.4002
 2203SOL    HW118488   0.099   1.322  11.087  0.0618 -0.2515 -0.2732
 2203SOL    HW218489   4.742   1.390  11.112  1.1824  1.0585  2.0402
 2204SOL     OW18490   0.839   2.762   1.121  0.0764  0.7656  0.4338
 2204SOL    HW118491   0.860   2.847   1.161  0.5459  0.4131  0.9339
 2204SOL    HW218492   0.921   2.734   1.080 -0.2314  0.8221 -0.2320
 2205SOL     OW18493   1.323   3.755  16.877 -0.0043 -0.0326  0.2065
 2205SOL    HW118494   1.388   3.705  16.927 -0.2562 -2.2435 -1.7021
 2205SOL    HW218495   1.244   3.750  16.930  0.4716 -0.1300  0.9089
 2206SOL     OW18496   0.088   3.876   5.140  0.1857  0.7637  0.1197
 2206SOL    HW118497   0.044   3.894   5.223  1.0726  0.2510  0.7008
 2206SOL    HW218498   0.172   3.838   5.165  0.2558  0.1602 -1.0211
 2207SOL     OW18499   2.778   3.663   8.577 -0.1788 -0.1330 -0.5018
 2207SOL    HW118500   2.702   3.639   8.523 -0.2878  0.6051 -0.6773
 2207SOL    HW218501   2.823   3.730   8.526  0.0391  0.1505  0.0665
 2208SOL     OW18502   1.287   4.611   2.951 -0.3097 -0.3690 -0.4337
 2208SOL    HW118503   1.213   4.669   2.964 -0.1573 -0.0814 -0.8364
 2208SOL    HW218504   1.264   4.561   2.872 -1.6967 -2.8173  1.5034
 2209SOL     OW18505   3.156   0.097   5.179  0.3476  0.0637 -0.1196
 2209SOL    HW118506   3.187   0.180   5.144  0.8381 -0.0331  0.0843
 2209SOL    HW218507   3.171   0.103   5.273 -0.6973  0.2043  0.0325
 2210SOL     OW18508   2.134   0.582   2.438 -0.2015 -0.4550  0.3556
 2210SOL    HW118509   2.095   0.650   2.493 -2.4747 -2.6704  1.5148
 2210SOL    HW218510   2.203   0.543   2.492  0.8461  0.6897 -0.1679
 2211SOL     OW18511   2.212   4.429  15.739 -0.1498 -0.2227 -0.0068
 2211SOL    HW118512   2.277   4.471  15.795 -0.7946  1.7884 -0.7911
 2211SOL    HW218513   2.128   4.468  15.764 -0.8329 -1.4857 -0.2782
 2212SOL     OW18514   4.333   1.480  17.740  0.1424  0.8342  0.3653
 2212SOL    HW118515   4.377   1.553  17.695  0.4389  0.1267 -0.4957
 2212SOL    HW218516   4.240   1.502  17.736  0.1244  0.4968 -1.0925
 2213SOL     OW18517   2.697   2.350  13.204 -0.4769  0.1385  0.3109
 2213SOL    HW118518   2.609   2.365  13.237 -1.1651 -1.0598 -0.9564
 2213SOL    HW218519   2.700   2.397  13.121 -1.2383 -3.1162 -1.5862
 2214SOL     OW18520   3.306   1.566  16.799 -0.1289 -0.1599 -0.1714
 2214SOL    HW118521   3.266   1.506  16.862  0.1980  0.1583  0.3389
 2214SOL    HW218522   3.318   1.647  16.848  0.8422 -0.1598 -0.4149
 2215SOL     OW18523   0.878   3.621  20.043  0.3100  0.4342 -0.3366
 2215SOL    HW118524   0.908   3.652  20.128 -1.2382 -1.1592  0.7912
 2215SOL    HW218525   0.929   3.541  20.027 -0.2197  0.1172 -0.4172
 2216SOL     OW18526   3.111   0.570  20.049  0.1425  0.2417  0.3223
 2216SOL    HW118527   3.062   0.583  20.130  1.7558 -2.2803  1.6809
 2216SOL    HW218528   3.199   0.603  20.068  0.5570 -0.4788 -0.3548
 2217SOL     OW18529   0.081   4.179   9.651  0.2687 -0.3873  0.0418
 2217SOL    HW118530   0.076   4.084   9.654 -1.1313 -0.3367 -0.5697
 2217SOL    HW218531   4.769   4.207   9.624  0.7156  1.0624  0.0754
 2218SOL     OW18532   1.397   4.749   6.292 -0.4536 -0.3053 -0.0334
 2218SOL    HW118533   1.320   4.696   6.315  0.4352 -0.9776  1.3570
 2218SOL    HW218534   1.471   4.701   6.328  0.7695 -0.4546 -2.7818
 2219SOL     OW18535   2.340   1.951  20.634  0.8079  0.7768 -0.4930
 2219SOL    HW118536   2.251   1.973  20.660  1.1546  1.8836 -0.2554
 2219SOL    HW218537   2.381   1.917  20.713  1.5381  3.1497  0.1466
 2220SOL     OW18538   2.343   3.092   2.951 -0.0870 -0.0741 -0.3365
 2220SOL    HW118539   2.350   3.128   2.863  0.0963 -0.2344 -0.3868
 2220SOL    HW218540   2.281   3.150   2.996 -0.3217 -0.1047 -0.6263
 2221SOL     OW18541   1.463   4.504  19.276 -0.1495  0.1525 -0.5979
 2221SOL    HW118542   1.500   4.590  19.295 -1.3514 -0.0377  2.6249
 2221SOL    HW218543   1.387   4.523  19.220 -0.6665  1.2058  0.4660
 2222SOL     OW18544   3.499   0.813  21.179  0.1371  0.2532  0.0978
 2222SOL    HW118545   3.487   0.728   0.027 -1.8041  1.0653  1.1472
 2222SOL    HW218546   3.511   0.790  21.087 -0.3487 -1.1744  0.3783
 2223SOL     OW18547   0.491   2.248  16.816  0.1765 -0.8117  0.2254
 2223SOL    HW118548   0.467   2.255  16.723  0.3140 -1.0219  0.1743
 2223SOL    HW218549   0.566   2.189  16.816  0.5506 -0.3327  0.4065
 2224SOL     OW18550   0.578   0.353   0.403  0.1761  0.2012  0.3492
 2224SOL    HW118551   0.499   0.306   0.430 -0.9598  0.2715 -2.8071
 2224SOL    HW218552   0.622   0.292   0.343  0.7845  1.5384 -0.5541
 2225SOL     OW18553   0.421   3.077   4.979  0.5026 -0.0649 -0.4295
 2225SOL    HW118554   0.421   2.990   4.940  2.0571 -0.4826  0.5114
 2225SOL    HW218555   0.512   3.092   5.005 -0.2113  0.8779  1.5356
 2226SOL     OW18556   2.155   0.068   2.382  0.3479 -0.0046 -0.3060
 2226SOL    HW118557   2.095   0.005   2.421  2.0096 -0.9453  0.7671
 2226SOL    HW218558   2.162   0.139   2.446  0.5596 -0.0155 -0.3148
 2227SOL     OW18559   3.885   1.061   7.239 -0.1535  0.1494  0.5179
 2227SOL    HW118560   3.875   1.119   7.164 -1.4434  0.1591  0.7054
 2227SOL    HW218561   3.844   0.979   7.213  1.5533 -0.6353  0.3079
 2228SOL     OW18562   1.561   3.639   3.317 -0.0761  0.3988  0.1756
 2228SOL    HW118563   1.480   3.662   3.363  0.1899  1.2431  0.2219
 2228SOL    HW218564   1.602   3.723   3.299  0.9871 -0.0633  0.4966
 2229SOL     OW18565   3.310   0.932  13.335 -0.0907 -0.0676 -0.4250
 2229SOL    HW118566   3.293   0.900  13.246 -0.1590 -0.2436 -0.3489
 2229SOL    HW218567   3.341   0.854  13.382 -0.6311 -0.1086 -0.1368
 2230SOL     OW18568   1.505   2.314   4.985 -0.0400 -0.3927 -0.1362
 2230SOL    HW118569   1.460   2.366   5.051 -1.3116 -1.3711 -0.2387
 2230SOL    HW218570   1.570   2.263   5.034  0.1896  0.1632  0.1430
 2231SOL     OW18571   1.815   0.618  17.882  0.1176  0.0099 -0.1904
 2231SOL    HW118572   1.822   0.713  17.883 -0.1537  0.0296 -0.0686
 2231SOL    HW218573   1.745   0.599  17.945 -0.3424 -0.2249 -0.7737
 2232SOL     OW18574   3.278   0.346   3.421  0.1088  0.1116 -0.3193
 2232SOL    HW118575   3.313   0.362   3.509  1.1961 -3.3523 -0.1064
 2232SOL    HW218576   3.235   0.428   3.397  1.3240  1.6599  2.7410
 2233SOL     OW18577   4.183   2.392  11.720  0.5293  0.9247 -0.0046
 2233SOL    HW118578   4.251   2.458  11.709  0.6351  0.1099 -4.4002
 2233SOL    HW218579   4.157   2.369  11.630 -2.5998 -1.7619  1.5737
 2234SOL     OW18580   1.266   2.490  20.787  0.5625 -0.1033 -0.0511
 2234SOL    HW118581   1.241   2.430  20.857 -0.9412  0.0516 -0.4435
 2234SOL    HW218582   1.326   2.552  20.828  0.4122 -0.5738  0.8753
 2235SOL     OW18583   3.546   3.637  19.407  0.0276 -0.1232  0.7233
 2235SOL    HW118584   3.608   3.586  19.458  1.4177  1.2942  0.4636
 2235SOL    HW218585   3.583   3.637  19.318  0.0115  1.3168  0.7232
 2236SOL     OW18586   0.690   4.405   1.219  0.7669  0.0252  0.3199
 2236SOL    HW118587   0.759   4.378   1.159 -0.8584 -0.3062 -1.3940
 2236SOL    HW218588   0.627   4.333   1.217 -1.3365  1.9024 -0.7658
 2237SOL     OW18589   1.749   0.771   6.649  0.4037 -0.0378 -0.2149
 2237SOL    HW118590   1.684   0.837   6.671 -1.4560 -1.4454 -1.4953
 2237SOL    HW218591   1.776   0.792   6.560 -0.1988 -1.0153 -0.6298
 2238SOL     OW18592   2.612   3.776   5.366  0.0032 -0.4073 -0.3979
 2238SOL    HW118593   2.634   3.867   5.387  0.9609 -1.2677  2.2878
 2238SOL    HW218594   2.536   3.783   5.309 -1.0365  2.0363  1.2699
 2239SOL     OW18595   2.352   2.916   4.911  0.7529  0.5945 -0.0889
 2239SOL    HW118596   2.340   2.829   4.948  1.5062 -0.1561 -1.6204
 2239SOL    HW218597   2.267   2.937   4.872  1.2077 -0.3386 -1.5942
 2240SOL     OW18598   4.135   1.479  19.461 -0.2275  0.2308  0.4316
 2240SOL    HW118599   4.055   1.500  19.509 -0.0468  0.5301  0.6038
 2240SOL    HW218600   4.130   1.384  19.446 -0.9016  0.3465 -0.0866
 2241SOL     OW18601   4.410   3.704  13.345  0.1276 -0.6173 -0.5544
 2241SOL    HW118602   4.441   3.714  13.255  0.7197 -0.7222 -0.3594
 2241SOL    HW218603   4.367   3.618  13.347 -0.4280 -0.3478 -0.8961
 2242SOL     OW18604   3.357   0.005   0.997 -0.1640 -0.2563  0.2908
 2242SOL    HW118605   3.398   4.724   0.932 -0.9366  2.1315 -2.3193
 2242SOL    HW218606   3.263   4.766   0.985 -0.4237  2.7211 -1.4774
 2243SOL     OW18607   2.394   2.011  16.829  0.0872  0.0669  0.0482
 2243SOL    HW118608   2.341   1.931  16.829  1.8654 -1.1070 -0.2140
 2243SOL    HW218609   2.383   2.047  16.916 -0.9010 -0.3400  0.0971
 2244SOL     OW18610   2.253   0.456   1.459 -0.2591  0.1085  0.3021
 2244SOL    HW118611   2.243   0.467   1.364  1.6211 -1.3742 -0.0518
 2244SOL    HW218612   2.331   0.508   1.481  0.0393 -0.5850  0.8595
 2245SOL     OW18613   2.959   4.395   4.260 -0.2306  0.4003 -0.1324
 2245SOL    HW118614   2.973   4.490   4.263  1.7822  0.0875  0.4933
 2245SOL    HW218615   2.904   4.376   4.337 -1.5463  1.2048 -0.8733
 2246SOL     OW18616   2.725   1.674   2.833 -0.6211  0.0077  0.3406
 2246SOL    HW118617   2.791   1.640   2.772 -0.7963  0.0717  0.1186
 2246SOL    HW218618   2.667   1.599   2.849 -0.9239  0.1620 -0.0372
 2247SOL     OW18619   2.034   1.510   1.060 -0.1002 -0.0545  0.2576
 2247SOL    HW118620   1.949   1.465   1.060  1.1593 -2.4534  0.3730
 2247SOL    HW218621   2.034   1.561   1.141 -0.0536 -2.7303  1.9581
 2248SOL     OW18622   3.885   1.449  18.989 -0.0337 -0.1920 -0.0347
 2248SOL    HW118623   3.841   1.378  18.942  0.4590 -1.2786  1.1417
 2248SOL    HW218624   3.903   1.413  19.075  1.0154  1.0727  0.2772
 2249SOL     OW18625   3.689   2.280  18.342  0.0574  0.1380 -0.0044
 2249SOL    HW118626   3.636   2.243  18.413  0.6986 -3.7412 -1.5575
 2249SOL    HW218627   3.628   2.289  18.269  0.4951 -0.2840 -0.4258
 2250SOL     OW18628   4.188   3.628  17.122  0.7933 -0.1077 -0.4001
 2250SOL    HW118629   4.239   3.694  17.169  0.1873  0.5352 -0.6289
 2250SOL    HW218630   4.218   3.635  17.031 -0.7815  1.3509 -0.8316
 2251SOL     OW18631   0.944   1.457  16.422  0.1331  0.0478 -0.4800
 2251SOL    HW118632   0.849   1.453  16.427  0.1412 -1.8263 -2.1709
 2251SOL    HW218633   0.969   1.380  16.372  2.4397  1.3907 -1.3841
 2252SOL     OW18634   3.032   3.897   5.904 -0.2737 -0.1703  0.3860
 2252SOL    HW118635   3.051   3.810   5.938 -2.5560 -0.4449  0.9893
 2252SOL    HW218636   2.948   3.921   5.945 -1.6412  0.6299 -2.9044
 2253SOL     OW18637   1.238   4.248   5.107  1.0272 -0.3425  0.1406
 2253SOL    HW118638   1.194   4.320   5.064  0.1043 -1.3618 -0.6274
 2253SOL    HW218639   1.294   4.209   5.040  1.4773 -0.3892  0.5347
 2254SOL     OW18640   0.582   1.694  19.280  0.4809  0.3527 -0.5479
 2254SOL    HW118641   0.526   1.760  19.321 -0.5074 -0.9044  0.1063
 2254SOL    HW218642   0.667   1.706  19.322 -0.5922 -1.0858  2.0130
 2255SOL     OW18643   3.017   1.398  18.845  0.2753  0.2135 -0.0649
 2255SOL    HW118644   2.968   1.317  18.856  1.6697 -0.5730  0.2897
 2255SOL    HW218645   3.002   1.446  18.927 -1.3991  0.7732 -0.6954
 2256SOL     OW18646   4.429   0.700   6.085 -0.5977 -0.2126 -0.5230
 2256SOL    HW118647   4.356   0.669   6.138 -0.5089 -1.0988 -0.9152
 2256SOL    HW218648   4.494   0.629   6.089  1.1928  1.5863  1.7356
 2257SOL     OW18649   1.492   1.328  20.474 -0.4062  0.7327  0.6210
 2257SOL    HW118650   1.544   1.398  20.512  1.7508 -0.4434 -0.2143
 2257SOL    HW218651   1.488   1.348  20.381 -0.3693  0.1113  0.4842
 2258SOL     OW18652   0.371   0.195   0.470  0.1125  0.9920  0.2508
 2258SOL    HW118653   0.303   0.146   0.516  0.1292  1.5454  0.8663
 2258SOL    HW218654   0.377   0.153   0.384  0.7445 -0.6390  1.0948
 2259SOL     OW18655   2.073   1.672   9.422 -0.5687 -0.0571 -0.2644
 2259SOL    HW118656   2.033   1.717   9.347 -1.9523  0.9060  1.0447
 2259SOL    HW218657   2.034   1.585   9.421 -0.0961 -0.2617 -1.0590
 2260SOL     OW18658   3.776   3.304   5.796  0.2207  0.1201  0.5560
 2260SOL    HW118659   3.811   3.330   5.710 -0.4833 -2.1697 -0.4318
 2260SOL    HW218660   3.840   3.240   5.829  0.7554  1.3826  1.9708
 2261SOL     OW18661   1.932   4.179   1.056  0.1335 -0.7380 -0.4537
 2261SOL    HW118662   1.921   4.089   1.086 -0.1764 -0.4966  0.1675
 2261SOL    HW218663   1.911   4.232   1.133 -1.7204 -0.0982 -1.3882
 2262SOL     OW18664   4.193   1.859   2.165  0.0655  0.0047 -0.1691
 2262SOL    HW118665   4.128   1.915   2.206  0.3304 -0.7471  1.2715
 2262SOL    HW218666   4.165   1.770   2.186  0.9715 -0.3430 -0.4411
 2263SOL     OW18667   4.067   3.216   5.525 -0.4593 -0.3221 -0.2493
 2263SOL    HW118668   4.048   3.153   5.593 -1.3822 -0.2263 -0.4065
 2263SOL    HW218669   4.069   3.165   5.444  0.8977 -0.4758 -0.1063
 2264SOL     OW18670   4.248   1.267   5.086  0.2254  0.4104  0.1285
 2264SOL    HW118671   4.254   1.253   5.180  1.8166 -2.6370 -0.4172
 2264SOL    HW218672   4.326   1.318   5.064  0.7151 -0.3186  0.1857
 2265SOL     OW18673   0.364   2.184  17.703  0.4477 -0.0332  0.3691
 2265SOL    HW118674   0.334   2.201  17.792 -4.5193  0.1455 -1.2841
 2265SOL    HW218675   0.406   2.266  17.676  0.9175  0.3132  2.1426
 2266SOL     OW18676   1.492   1.702  13.434  0.4526  0.2637 -0.2203
 2266SOL    HW118677   1.557   1.666  13.494 -0.1471  1.3014  1.0651
 2266SOL    HW218678   1.493   1.643  13.358  0.0685 -1.9710  1.5197
 2267SOL     OW18679   1.101   4.698   1.131 -0.1046  0.4427 -0.0804
 2267SOL    HW118680   1.058   4.729   1.051 -1.1002 -0.0639  0.2547
 2267SOL    HW218681   1.053   4.741   1.202  0.4712  0.5166  0.2665
 2268SOL     OW18682   2.589   2.464  14.134 -0.3221  0.7683 -0.4386
 2268SOL    HW118683   2.540   2.392  14.175  0.3069 -0.6816 -2.2465
 2268SOL    HW218684   2.529   2.500  14.069 -0.0351  0.7969 -0.6885
 2269SOL     OW18685   2.647   4.550   4.908  0.5814 -0.1231 -0.1379
 2269SOL    HW118686   2.704   4.609   4.858 -0.9260  1.0084 -0.5158
 2269SOL    HW218687   2.608   4.606   4.976  2.0860 -1.4946  1.8867
 2270SOL     OW18688   1.663   4.070   0.308  0.2669  0.4189  0.3101
 2270SOL    HW118689   1.574   4.082   0.276 -0.1478 -1.1082  0.9088
 2270SOL    HW218690   1.654   4.019   0.388  1.6067  0.9720  0.8190
 2271SOL     OW18691   0.028   1.500  20.217  0.4244 -0.5319 -0.1705
 2271SOL    HW118692   0.019   1.437  20.289 -0.5697 -0.6110 -0.3535
 2271SOL    HW218693   0.077   1.453  20.151  0.0635 -0.9737 -0.1296
 2272SOL     OW18694   3.184   2.756   6.469  0.2676  0.2755 -0.0016
 2272SOL    HW118695   3.132   2.779   6.392  0.6477 -1.2408 -0.7055
 2272SOL    HW218696   3.273   2.783   6.446  0.6048 -1.3854 -0.5839
 2273SOL     OW18697   2.886   4.508  19.066  0.5905  0.5184  0.1561
 2273SOL    HW118698   2.956   4.501  19.131  0.5728 -1.0877  0.0097
 2273SOL    HW218699   2.808   4.528  19.117  0.3203 -2.0607  0.7787
 2274SOL     OW18700   1.458   2.271  21.169  0.0112 -0.2548  0.0573
 2274SOL    HW118701   1.415   2.196   0.014 -0.5705  1.3303  2.3401
 2274SOL    HW218702   1.528   2.295   0.033  0.5279  0.7185 -0.9294
 2275SOL     OW18703   3.729   0.855   5.880  0.0702 -0.5292 -0.5820
 2275SOL    HW118704   3.728   0.939   5.928 -0.1474 -1.0587  0.3473
 2275SOL    HW218705   3.664   0.867   5.811 -1.2286 -0.5508  0.6334
 2276SOL     OW18706   3.841   1.692  14.285  0.5605  0.4448  0.4347
 2276SOL    HW118707   3.882   1.615  14.246  2.0755  0.5812  1.7236
 2276SOL    HW218708   3.747   1.677  14.276  0.9050  0.5793 -3.4331
 2277SOL     OW18709   4.425   1.645   4.344  0.0069  0.7170 -0.4238
 2277SOL    HW118710   4.482   1.605   4.410 -1.9098  0.3009  0.9823
 2277SOL    HW218711   4.373   1.572   4.310 -1.2776  1.4796 -0.0955
 2278SOL     OW18712   0.287   4.056  10.954  0.0489 -0.5689 -0.0899
 2278SOL    HW118713   0.344   4.115  10.905  1.8972 -2.2491  0.0501
 2278SOL    HW218714   0.343   3.982  10.978 -1.5786 -1.0978  2.0930
 2279SOL     OW18715   1.960   0.114   0.748  0.4437  0.1232  0.2109
 2279SOL    HW118716   1.918   0.183   0.698  0.7685  1.2229  1.4440
 2279SOL    HW218717   1.888   0.061   0.782  0.0352  2.2277  2.6472
 2280SOL     OW18718   2.244   4.087   0.391  0.5976 -0.0039  0.7413
 2280SOL    HW118719   2.307   4.158   0.388 -0.7493  1.1695  0.3069
 2280SOL    HW218720   2.166   4.121   0.347 -0.2701 -1.5172  1.0743
 2281SOL     OW18721   1.396   0.364   4.346  0.2852 -0.0565 -0.1885
 2281SOL    HW118722   1.421   0.342   4.436 -1.0797  0.3624  0.2955
 2281SOL    HW218723   1.346   0.445   4.354 -0.3691 -0.3523 -1.2739
 2282SOL     OW18724   4.503   1.893   3.836  0.1769  0.1793  0.2419
 2282SOL    HW118725   4.577   1.869   3.892 -1.0945  2.7898  3.0718
 2282SOL    HW218726   4.536   1.964   3.781  0.8603 -1.1151 -1.0279
 2283SOL     OW18727   4.121   1.760  17.284  0.1850  0.4598  0.8562
 2283SOL    HW118728   4.152   1.795  17.200 -1.7608  1.2614  0.4730
 2283SOL    HW218729   4.170   1.679  17.295  1.5632  1.1327 -0.3403
 2284SOL     OW18730   1.339   4.254   0.413  0.5202 -0.0843 -0.2765
 2284SOL    HW118731   1.327   4.174   0.361  0.3476  0.3142 -0.8427
 2284SOL    HW218732   1.271   4.249   0.480  1.1793 -0.9398  0.3335
 2285SOL     OW18733   2.070   4.437  16.371  0.0370  0.4938 -0.8510
 2285SOL    HW118734   2.122   4.472  16.444  2.5644  0.2072 -2.5090
 2285SOL    HW218735   2.106   4.479  16.294 -0.4084 -1.7610 -2.2926
 2286SOL     OW18736   2.615   2.026  14.273 -0.1664 -0.3056  0.2207
 2286SOL    HW118737   2.616   1.962  14.201 -0.8083 -0.2046  0.1210
 2286SOL    HW218738   2.536   2.078  14.257  0.2877  0.4311  0.3739
 2287SOL     OW18739   0.639   3.447  10.995  0.2769 -0.3659  0.5664
 2287SOL    HW118740   0.662   3.354  11.001  0.3479 -0.3726  0.2008
 2287SOL    HW218741   0.675   3.475  10.911  0.6509  0.1015  0.8802
 2288SOL     OW18742   4.071   0.903   6.254 -0.1112 -0.2480 -0.0450
 2288SOL    HW118743   4.107   0.822   6.289  1.5335  1.5558  2.4273
 2288SOL    HW218744   4.147   0.954   6.228 -1.1393  0.5837 -1.4639
 2289SOL     OW18745   0.467   1.529   6.079  1.0429  0.2584  0.0880
 2289SOL    HW118746   0.414   1.459   6.118  1.4572  0.0668  0.3062
 2289SOL    HW218747   0.411   1.567   6.011  0.1330  0.9209  1.2135
 2290SOL     OW18748   3.861   4.587  20.858 -0.3327  0.2476  0.4638
 2290SOL    HW118749   3.769   4.574  20.880 -0.3309  1.0037  0.9119
 2290SOL    HW218750   3.860   4.630  20.773 -0.4086  0.9908  0.8394
 2291SOL     OW18751   2.070   2.247  14.169 -0.0816  0.3045 -0.4285
 2291SOL    HW118752   2.071   2.256  14.074  0.9066 -0.0714 -0.4583
 2291SOL    HW218753   2.033   2.329  14.201  0.7185  0.9220 -1.0828
 2292SOL     OW18754   3.268   1.920   3.424  0.1950 -0.6788 -0.3033
 2292SOL    HW118755   3.309   1.859   3.485 -0.7124 -0.8171  0.1679
 2292SOL    HW218756   3.201   1.868   3.379 -0.9953  0.1177  0.5404
 2293SOL     OW18757   0.052   1.754  18.161 -0.0408  0.2857  0.2651
 2293SOL    HW118758   0.129   1.710  18.126  0.1463 -0.2354  1.3114
 2293SOL    HW218759   4.761   1.685  18.165 -0.9055  1.0055 -1.7316
 2294SOL     OW18760   3.939   4.519   4.320  0.2573 -0.0915  0.5849
 2294SOL    HW118761   3.855   4.518   4.274  0.7327  0.6813 -0.3064
 2294SOL    HW218762   3.917   4.523   4.413 -0.6864  0.4706  0.3309
 2295SOL     OW18763   1.530   2.392  17.794  0.6885  0.5277 -0.8260
 2295SOL    HW118764   1.619   2.375  17.826 -1.5981 -3.1682  3.3917
 2295SOL    HW218765   1.524   2.342  17.713  2.4709  0.7999 -1.1296
 2296SOL     OW18766   1.750   3.315  19.697 -0.3501  0.4461 -0.4953
 2296SOL    HW118767   1.659   3.343  19.700 -0.6662 -0.3686 -2.5721
 2296SOL    HW218768   1.748   3.230  19.652  1.2612 -0.2303  0.6994
 2297SOL     OW18769   2.134   2.658   2.651 -0.2066  0.3750 -0.2872
 2297SOL    HW118770   2.206   2.705   2.694 -0.1229  0.3408 -0.3909
 2297SOL    HW218771   2.058   2.716   2.663 -0.5674 -0.4357  1.4132
 2298SOL     OW18772   0.617   1.033   1.840 -0.1550  0.0651 -0.2699
 2298SOL    HW118773   0.604   1.108   1.899  1.4216  0.1789 -0.0595
 2298SOL    HW218774   0.534   0.985   1.844  0.0645 -0.1172  2.3123
 2299SOL     OW18775   0.953   4.226   7.738  0.3406 -0.6179 -0.2679
 2299SOL    HW118776   1.019   4.179   7.790 -0.3413 -1.6647 -0.3469
 2299SOL    HW218777   0.880   4.240   7.798  0.3233 -0.1325 -0.3999
 2300SOL     OW18778   1.850   1.110   1.610  0.3363 -0.2237 -0.0790
 2300SOL    HW118779   1.810   1.197   1.603 -0.3019 -0.6828 -2.1091
 2300SOL    HW218780   1.776   1.050   1.598  0.5092 -1.0302  2.9190
 2301SOL     OW18781   3.749   4.236  20.865 -0.0827 -0.1039  0.7178
 2301SOL    HW118782   3.668   4.229  20.917  0.4100  1.6874  1.7239
 2301SOL    HW218783   3.818   4.242  20.930  0.8419 -1.3190 -0.1564
 2302SOL     OW18784   0.551   1.141  15.886  0.6896  0.0233 -0.2648
 2302SOL    HW118785   0.634   1.141  15.935  1.0831  0.8526 -0.9250
 2302SOL    HW218786   0.510   1.058  15.909  0.3739  0.9030  2.2919
 2303SOL     OW18787   3.512   4.478   5.180  0.2890 -0.1149 -0.1233
 2303SOL    HW118788   3.505   4.541   5.108 -0.6083 -1.4962 -1.2487
 2303SOL    HW218789   3.587   4.423   5.156  0.8892  0.3358  0.7124
 2304SOL     OW18790   1.341   1.947   1.259  0.1911 -0.6558  0.8962
 2304SOL    HW118791   1.401   1.992   1.319  0.8435 -0.8690  0.4050
 2304SOL    HW218792   1.259   1.994   1.267  1.5870  2.1559 -1.4798
 2305SOL     OW18793   0.057   4.090   3.391  0.0923  0.0286 -0.3679
 2305SOL    HW118794   0.055   4.095   3.296 -1.4382  0.6102 -0.3111
 2305SOL    HW218795   0.126   4.150   3.418 -1.4788  2.0837 -0.9581
 2306SOL     OW18796   1.195   0.466  16.324  0.1251  0.4019 -0.4460
 2306SOL    HW118797   1.256   0.394  16.303  0.4722  0.0070  2.0022
 2306SOL    HW218798   1.252   0.542  16.337 -0.0444  0.4124  0.1783
 2307SOL     OW18799   4.362   4.199  20.434 -0.2281 -0.1487 -0.3131
 2307SOL    HW118800   4.399   4.149  20.361 -0.3117  0.4468 -0.7701
 2307SOL    HW218801   4.360   4.138  20.507 -0.1984 -0.7704 -0.8311
 2308SOL     OW18802   1.046   0.659   4.536  0.3267 -0.6756  0.0481
 2308SOL    HW118803   1.039   0.754   4.539  2.0554 -0.4273 -4.1585
 2308SOL    HW218804   0.964   0.628   4.576  0.1770  2.5582  2.2378
 2309SOL     OW18805   0.642   3.161   1.128 -0.0799  0.2816 -0.1868
 2309SOL    HW118806   0.697   3.101   1.178  1.2202  2.4880  1.0527
 2309SOL    HW218807   0.573   3.187   1.189 -0.4813  0.2655 -0.6323
 2310SOL     OW18808   4.433   3.622  15.806 -0.2939 -0.3520  0.1044
 2310SOL    HW118809   4.425   3.527  15.818  3.1354 -0.8534 -1.5992
 2310SOL    HW218810   4.400   3.639  15.718  2.2898 -0.3700 -0.8537
 2311SOL     OW18811   0.544   3.442   2.855 -0.0487 -0.1666 -0.4051
 2311SOL    HW118812   0.585   3.528   2.847  0.1456 -0.1791  0.4023
 2311SOL    HW218813   0.470   3.457   2.914  0.5509 -0.7536  0.4909
 2312SOL     OW18814   4.147   1.999   0.230 -0.2006  0.1665 -0.2319
 2312SOL    HW118815   4.114   1.925   0.179 -0.1697  0.5379 -0.8016
 2312SOL    HW218816   4.239   1.977   0.248 -0.2897 -0.0934 -0.1095
 2313SOL     OW18817   3.944   1.801   5.549  0.3722 -0.5566  0.6967
 2313SOL    HW118818   3.915   1.722   5.502 -2.1893  0.5590  0.4063
 2313SOL    HW218819   3.915   1.787   5.639 -1.1323  0.5750  0.3941
 2314SOL     OW18820   3.319   3.108   6.349  0.2559  0.2604  0.9339
 2314SOL    HW118821   3.279   3.065   6.273  2.7113  0.8286 -0.6861
 2314SOL    HW218822   3.327   3.200   6.323  1.0547  0.4612  1.8837
 2315SOL     OW18823   0.295   4.494   1.666  0.3836 -0.0506 -0.1898
 2315SOL    HW118824   0.220   4.553   1.668  0.8797  0.5295  1.2350
 2315SOL    HW218825   0.367   4.545   1.702  1.4409 -0.6514 -1.4572
 2316SOL     OW18826   4.044   0.334   5.094 -0.4555  0.0060 -0.3115
 2316SOL    HW118827   3.952   0.306   5.093 -0.6087  0.4989 -0.4493
 2316SOL    HW218828   4.046   0.407   5.156  0.2017 -1.1966  1.0545
 2317SOL     OW18829   0.817   3.844   4.856 -0.0575  0.2856 -0.2140
 2317SOL    HW118830   0.828   3.764   4.907 -1.5758  0.8145  0.9568
 2317SOL    HW218831   0.887   3.902   4.887 -1.1210  0.6922  1.4555
 2318SOL     OW18832   4.378   3.288   0.671 -0.1524  0.3574 -0.8229
 2318SOL    HW118833   4.381   3.355   0.739 -0.6216  1.0371 -1.4671
 2318SOL    HW218834   4.285   3.267   0.663 -0.0086 -0.3192 -0.6645
 2319SOL     OW18835   2.856   2.683  10.193  0.2550 -0.7635 -0.2950
 2319SOL    HW118836   2.770   2.642  10.203 -0.8205  1.6768  0.4725
 2319SOL    HW218837   2.894   2.680  10.281 -1.5345  3.6868  0.6316
 2320SOL     OW18838   4.050   0.709  12.722 -0.1595  0.6099  0.8115
 2320SOL    HW118839   4.101   0.785  12.692  0.5940 -0.2730 -0.1292
 2320SOL    HW218840   4.113   0.637  12.725 -1.1119 -0.2340  0.6542
 2321SOL     OW18841   4.002   0.527  20.953 -0.2755 -0.3197  0.2808
 2321SOL    HW118842   3.963   0.524  21.041 -0.0292 -0.1961  0.3953
 2321SOL    HW218843   4.001   0.436  20.923 -0.7325 -0.3015  0.2505
 2322SOL     OW18844   1.410   4.059   0.172  0.3995  0.2155 -0.1255
 2322SOL    HW118845   1.322   4.022   0.176 -0.3307  2.0978  1.3725
 2322SOL    HW218846   1.438   4.045   0.082 -0.7386 -2.0201 -0.1133
 2323SOL     OW18847   0.323   2.596   1.962  0.1303  0.4203  0.6101
 2323SOL    HW118848   0.396   2.571   1.904 -0.0529 -0.6316  0.8185
 2323SOL    HW218849   0.293   2.680   1.928  0.9524  0.4912  0.0496
 2324SOL     OW18850   2.861   0.177   1.076  0.0686 -0.5674  0.1206
 2324SOL    HW118851   2.923   0.113   1.110 -1.1110 -1.1822  1.1585
 2324SOL    HW218852   2.783   0.166   1.132 -0.2070  1.6027  0.1554
 2325SOL     OW18853   3.743   1.387  18.292  0.2766  0.0271  0.4653
 2325SOL    HW118854   3.700   1.311  18.253  1.9380  0.5349 -2.3022
 2325SOL    HW218855   3.672   1.452  18.301 -0.6048 -0.9425  0.5642
 2326SOL     OW18856   3.839   1.081   0.839 -0.0173  0.7760 -0.5241
 2326SOL    HW118857   3.838   1.175   0.821 -0.6530  0.6785 -1.0082
 2326SOL    HW218858   3.792   1.043   0.765  0.6741  0.0378 -0.5747
 2327SOL     OW18859   3.373   1.387   0.574  0.3687 -0.1463  0.0122
 2327SOL    HW118860   3.457   1.415   0.608  0.1914  0.2499  0.1255
 2327SOL    HW218861   3.347   1.314   0.630  0.6632 -0.3092 -0.0618
 2328SOL     OW18862   1.550   4.018  11.054  0.0384 -0.4186  0.1633
 2328SOL    HW118863   1.636   4.054  11.032 -0.8716 -0.3146 -3.1458
 2328SOL    HW218864   1.511   4.083  11.114  1.0209  0.9687 -0.7178
 2329SOL     OW18865   1.474   1.784   1.534 -0.3820  0.2919  0.3262
 2329SOL    HW118866   1.449   1.726   1.462  0.0191 -0.3421  0.6928
 2329SOL    HW218867   1.491   1.725   1.607  0.1594  0.8712  0.6657
 2330SOL     OW18868   2.107   0.348  16.508 -0.1397 -0.6824 -0.3166
 2330SOL    HW118869   2.011   0.350  16.500 -0.1402 -0.7555 -0.3221
 2330SOL    HW218870   2.137   0.321  16.421 -0.1100 -0.5513 -0.3469
 2331SOL     OW18871   2.174   2.938  19.199  0.4200  0.0339 -0.1440
 2331SOL    HW118872   2.150   2.872  19.265 -0.3023 -0.2632 -0.6946
 2331SOL    HW218873   2.262   2.913  19.171  1.0994  0.7172  1.3898
 2332SOL     OW18874   3.433   1.616  20.453  0.2793 -0.0796 -0.1291
 2332SOL    HW118875   3.476   1.546  20.404  0.9452 -0.2029  0.6256
 2332SOL    HW218876   3.366   1.571  20.504  1.5608 -0.3282  1.3302
 2333SOL     OW18877   4.185   2.398  18.859 -0.5984  0.1618 -0.3598
 2333SOL    HW118878   4.146   2.340  18.923  0.0241 -0.2715 -0.3711
 2333SOL    HW218879   4.253   2.345  18.817  0.1746  0.9902 -0.1581
 2334SOL     OW18880   0.703   3.375  14.938  0.0848 -0.0988  0.5973
 2334SOL    HW118881   0.696   3.280  14.935 -0.6487  0.0366 -1.7882
 2334SOL    HW218882   0.764   3.398  14.868 -2.2064  1.4100 -0.9423
 2335SOL     OW18883   3.722   2.624  16.269  0.1843  0.1290 -0.2119
 2335SOL    HW118884   3.810   2.627  16.308  0.1680  0.8745 -0.2305
 2335SOL    HW218885   3.701   2.531  16.264  1.1993 -0.0804 -0.6970
 2336SOL     OW18886   4.616   0.446  19.345  0.1289 -0.4096  0.7355
 2336SOL    HW118887   4.662   0.428  19.427  0.4601 -1.0323  0.4137
 2336SOL    HW218888   4.654   0.528  19.314  1.4157 -1.2075  0.1894
 2337SOL     OW18889   3.609   4.544  16.647  0.0441  0.5228  0.7022
 2337SOL    HW118890   3.540   4.609  16.653 -1.1576 -0.5967 -1.3654
 2337SOL    HW218891   3.617   4.510  16.737 -2.5569  0.1106  0.7580
 2338SOL     OW18892   3.591   2.466  17.795 -0.6791 -0.4245  0.0114
 2338SOL    HW118893   3.539   2.398  17.838 -1.2512 -0.0060 -0.0226
 2338SOL    HW218894   3.570   2.456  17.702  0.2662 -1.0812 -0.1296
 2339SOL     OW18895   2.576   1.625  20.769  0.2571  0.1837 -0.1645
 2339SOL    HW118896   2.486   1.653  20.786  0.9067  1.3321  1.3235
 2339SOL    HW218897   2.630   1.687  20.817  1.8152 -1.1459 -0.2069
 2340SOL     OW18898   3.388   2.740  15.768  0.2014 -0.3035 -0.1343
 2340SOL    HW118899   3.343   2.670  15.720 -1.2660  1.3995 -1.2683
 2340SOL    HW218900   3.400   2.809  15.703  1.6030  0.5114  0.9941
 2341SOL     OW18901   4.032   2.447   2.673 -0.3017  0.3174 -0.0443
 2341SOL    HW118902   4.094   2.463   2.602  1.4950 -1.5952  1.0753
 2341SOL    HW218903   3.972   2.380   2.639  0.2413 -0.2151  0.0424
 2342SOL     OW18904   1.557   1.935   5.822  0.3984 -0.2793 -0.0518
 2342SOL    HW118905   1.629   1.979   5.867  0.6383 -0.2173 -0.4985
 2342SOL    HW218906   1.589   1.846   5.806 -1.1212 -1.4126  3.2982
 2343SOL     OW18907   0.725   0.033  12.808  0.3615  0.0825  0.2213
 2343SOL    HW118908   0.740   0.099  12.740  1.1915 -0.6475 -0.2901
 2343SOL    HW218909   0.805   4.758  12.810 -0.9313 -1.9638 -0.5030
 2344SOL     OW18910   1.753   2.878  19.395  0.4603 -0.0910  0.1233
 2344SOL    HW118911   1.763   2.799  19.448 -1.2192 -0.5483 -0.2289
 2344SOL    HW218912   1.802   2.860  19.315  0.5348 -0.5637  0.2783
 2345SOL     OW18913   0.951   3.264   4.864 -0.0691 -0.5586 -0.0617
 2345SOL    HW118914   1.029   3.221   4.900  0.9862  0.6337 -0.9467
 2345SOL    HW218915   0.982   3.309   4.786 -1.5703  0.2830 -0.1674
 2346SOL     OW18916   2.896   2.524  20.996 -0.2458 -0.4307 -0.4939
 2346SOL    HW118917   2.921   2.437  20.964  0.7534 -1.4357  3.1260
 2346SOL    HW218918   2.800   2.523  20.993 -0.2042 -1.1755 -1.7540
 2347SOL     OW18919   0.253   4.379  18.327  0.5725 -1.2612  0.0781
 2347SOL    HW118920   0.319   4.320  18.364 -0.6405 -1.5482  1.7972
 2347SOL    HW218921   0.280   4.466  18.358  0.8598 -1.2252 -0.2702
 2348SOL     OW18922   1.389   2.494  13.268  0.4239 -0.0473 -0.2674
 2348SOL    HW118923   1.482   2.514  13.266 -0.2283  3.0729  1.4438
 2348SOL    HW218924   1.368   2.481  13.360 -0.6890 -1.4893 -0.7116
 2349SOL     OW18925   0.078   0.002   2.399 -0.1902  0.3966 -0.0305
 2349SOL    HW118926   0.144   0.059   2.359 -1.0449  1.0029 -0.5821
 2349SOL    HW218927   0.129   4.709   2.443  0.8448  2.0231  1.3020
 2350SOL     OW18928   0.791   3.056  10.123 -0.4074  0.0171  0.7134
 2350SOL    HW118929   0.859   2.995  10.094 -0.0208  0.9220 -0.2836
 2350SOL    HW218930   0.719   3.041  10.062 -0.3437  0.5108  0.5220
 2351SOL     OW18931   2.504   1.811   6.319 -0.5079 -0.3338 -0.3129
 2351SOL    HW118932   2.444   1.738   6.308  0.8315 -1.7266  1.7405
 2351SOL    HW218933   2.459   1.885   6.277 -1.5608 -2.4601 -2.9661
 2352SOL     OW18934   1.881   0.862  16.226  0.0594 -0.3813  0.3837
 2352SOL    HW118935   1.793   0.845  16.194  1.0748 -0.0439 -2.5951
 2352SOL    HW218936   1.938   0.805  16.173  1.7741  0.3904  1.3743
 2353SOL     OW18937   4.305   0.336  13.586 -0.0692 -0.0542  0.0029
 2353SOL    HW118938   4.214   0.323  13.615 -0.8180  0.4416 -2.1624
 2353SOL    HW218939   4.319   0.430  13.593  0.4976 -0.2097  0.9785
 2354SOL     OW18940   1.103   4.438   5.001  0.0592 -0.0045  0.5931
 2354SOL    HW118941   1.122   4.524   4.962  0.4192  0.3031  1.4576
 2354SOL    HW218942   1.041   4.398   4.940  1.6935 -0.0648 -1.0441
 2355SOL     OW18943   1.730   4.364  17.995 -0.2462 -0.2876 -0.3694
 2355SOL    HW118944   1.716   4.422  18.070 -0.4303  1.4332 -1.7272
 2355SOL    HW218945   1.653   4.307  17.995  0.6493 -1.4869  1.8439
 2356SOL     OW18946   3.148   1.222  15.753 -0.0423  0.2363  0.5635
 2356SOL    HW118947   3.079   1.284  15.776  0.8196  0.9431  1.2541
 2356SOL    HW218948   3.138   1.210  15.658 -1.5653 -0.2203  0.7862
 2357SOL     OW18949   1.367   4.504   0.775  0.8013 -0.5857  0.0334
 2357SOL    HW118950   1.426   4.565   0.731 -2.2331  1.1435 -1.6054
 2357SOL    HW218951   1.350   4.544   0.860  0.8344 -0.4069 -0.0448
 2358SOL     OW18952   4.661   0.385  20.329  0.0030 -0.4253  0.1171
 2358SOL    HW118953   4.756   0.378  20.318  0.0384  0.7939 -0.4189
 2358SOL    HW218954   4.630   0.422  20.246 -0.5286  2.4915  1.6206
 2359SOL     OW18955   1.357   3.252   4.535  0.0178 -0.1284  0.2429
 2359SOL    HW118956   1.384   3.169   4.573  0.1281  0.3971  1.3217
 2359SOL    HW218957   1.345   3.234   4.442  0.5435 -1.2255  0.3952
 2360SOL     OW18958   3.492   3.115   4.334  0.2637 -0.1893 -0.2017
 2360SOL    HW118959   3.429   3.187   4.339  0.5948  0.2061 -1.5454
 2360SOL    HW218960   3.461   3.062   4.260  1.7241  0.2237 -1.1138
 2361SOL     OW18961   0.738   1.349   1.710  0.3145 -0.6947  0.1749
 2361SOL    HW118962   0.690   1.293   1.649 -0.8750 -1.5783  1.9357
 2361SOL    HW218963   0.812   1.296   1.740  0.4661 -0.5273  0.1009
 2362SOL     OW18964   3.507   1.056   6.024  0.0768 -0.6205 -0.4440
 2362SOL    HW118965   3.485   1.086   6.112  0.1339  2.0606 -1.3447
 2362SOL    HW218966   3.598   1.082   6.011 -0.1560 -0.3485 -1.5846
 2363SOL     OW18967   3.265   4.097   2.452  0.0153  0.1461 -0.0356
 2363SOL    HW118968   3.336   4.161   2.463 -1.1772  1.6291 -1.0477
 2363SOL    HW218969   3.292   4.045   2.377  0.8301 -0.3188  0.5830
 2364SOL     OW18970   0.341   4.659   0.848 -0.4936 -0.0224 -0.2472
 2364SOL    HW118971   0.414   4.705   0.891 -0.0895 -1.2990  0.4202
 2364SOL    HW218972   0.263   4.694   0.891 -0.2014  0.2194  0.0942
 2365SOL     OW18973   2.679   3.323  20.368  0.3457 -0.2107  0.0481
 2365SOL    HW118974   2.738   3.276  20.426  1.1102  1.0767  0.3080
 2365SOL    HW218975   2.721   3.318  20.282  0.3668 -0.1164  0.0525
 2366SOL     OW18976   4.138   1.026  17.826  0.1499 -0.2133  0.4816
 2366SOL    HW118977   4.184   1.031  17.910 -0.3863 -2.5649  0.9109
 2366SOL    HW218978   4.086   0.946  17.832 -0.9488  0.3485 -1.5575
 2367SOL     OW18979   2.307   3.992   5.271  0.2302  0.0559 -0.2333
 2367SOL    HW118980   2.367   4.014   5.200  2.0884  0.0211  1.3074
 2367SOL    HW218981   2.222   4.022   5.242  1.2818  1.4784 -1.7956
 2368SOL     OW18982   3.075   2.818   1.795 -0.0764 -0.0227 -0.2222
 2368SOL    HW118983   3.051   2.789   1.707 -2.5928 -0.8611  0.7494
 2368SOL    HW218984   3.014   2.888   1.815 -1.3662 -1.7771  2.0096
 2369SOL     OW18985   4.389   4.378  20.120  0.0189  0.5632 -0.4617
 2369SOL    HW118986   4.459   4.351  20.061 -0.3685 -0.6697 -0.3612
 2369SOL    HW218987   4.434   4.418  20.194  0.5278  1.7181 -1.3901
 2370SOL     OW18988   4.595   1.023  10.550 -0.1500 -0.5730 -0.3324
 2370SOL    HW118989   4.613   1.058  10.463 -0.2983  0.0504 -0.1088
 2370SOL    HW218990   4.637   0.937  10.550 -0.8075 -0.8906 -1.2805
 2371SOL     OW18991   1.540   0.801  20.559  0.1625  0.1666  0.4167
 2371SOL    HW118992   1.554   0.892  20.532  2.4282  0.1171  1.3780
 2371SOL    HW218993   1.459   0.803  20.610  1.3444  1.9930  2.2046
 2372SOL     OW18994   3.650   4.375  10.161 -0.7818 -0.6085 -0.3908
 2372SOL    HW118995   3.740   4.368  10.192 -1.1856 -0.9808  0.7316
 2372SOL    HW218996   3.652   4.344  10.071  0.4128  0.4589 -0.7280
 2373SOL     OW18997   4.483   1.697  19.896 -0.0908  0.4386  0.0749
 2373SOL    HW118998   4.407   1.688  19.838  0.5525  1.0314 -0.8465
 2373SOL    HW218999   4.559   1.692  19.838  0.6086 -1.1090  1.1159
 2374SOL     OW19000   0.223   2.535  16.563  0.0825  0.1198  0.2146
 2374SOL    HW119001   0.245   2.628  16.565 -0.4140  0.3022 -2.0122
 2374SOL    HW219002   0.147   2.527  16.620 -1.1846  1.4434 -1.2747
 2375SOL     OW19003   3.243   4.110  11.738  0.3528  0.2837  0.2486
 2375SOL    HW119004   3.184   4.164  11.685  2.7079  0.9149 -1.7060
 2375SOL    HW219005   3.296   4.063  11.674 -0.3355 -2.8558  1.9758
 2376SOL     OW19006   1.389   0.895   0.551 -0.1529 -0.2749 -0.6551
 2376SOL    HW119007   1.418   0.804   0.546 -0.5307 -0.4994  1.1892
 2376SOL    HW219008   1.296   0.892   0.527 -0.9607 -0.8089  2.5063
 2377SOL     OW19009   1.180   1.898   0.974 -0.0044 -0.6527 -0.1012
 2377SOL    HW119010   1.225   1.862   0.898 -0.2496  0.2714 -0.6804
 2377SOL    HW219011   1.199   1.836   1.045 -1.0010 -2.2984 -1.2721
 2378SOL     OW19012   0.362   1.638   2.509 -0.0399  0.6153  0.2882
 2378SOL    HW119013   0.446   1.596   2.493 -1.0526 -0.9235 -1.0056
 2378SOL    HW219014   0.324   1.590   2.582 -0.2026  0.7085  0.2656
 2379SOL     OW19015   3.633   1.421   7.184 -0.1119 -0.1041 -0.5182
 2379SOL    HW119016   3.628   1.504   7.137  0.4393  0.1038 -0.2113
 2379SOL    HW219017   3.571   1.430   7.256 -0.0174  0.0606 -0.4574
 2380SOL     OW19018   2.605   2.976   4.767 -0.3269 -0.0180  0.2039
 2380SOL    HW119019   2.606   2.961   4.673 -0.7159 -0.0731  0.2065
 2380SOL    HW219020   2.519   2.946   4.795 -0.2304  0.0440  0.5691
 2381SOL     OW19021   3.297   0.955  17.312 -0.4234  0.0762 -0.7186
 2381SOL    HW119022   3.381   0.930  17.350 -0.8849  0.2746  0.4129
 2381SOL    HW219023   3.267   0.877  17.265 -0.8886 -0.8316  1.0995
 2382SOL     OW19024   0.709   1.789  18.192  0.1224 -0.0229 -0.3226
 2382SOL    HW119025   0.733   1.719  18.252 -0.2229  0.3525  0.2580
 2382SOL    HW219026   0.757   1.865  18.224 -0.8325  0.4178  0.0696
 2383SOL     OW19027   4.290   1.320  10.102  0.3229 -0.1033 -0.6199
 2383SOL    HW119028   4.270   1.387  10.167 -1.5540 -0.7575 -0.5390
 2383SOL    HW219029   4.291   1.238  10.151  2.3820 -0.1615 -0.7614
 2384SOL     OW19030   4.604   1.865  16.182 -0.4848  0.0327  0.1191
 2384SOL    HW119031   4.553   1.878  16.102 -1.1549  1.1053  0.7176
 2384SOL    HW219032   4.664   1.793  16.161 -1.0386 -0.0565 -1.1618
 2385SOL     OW19033   2.315   3.210   0.471 -0.4509 -0.1568  0.4193
 2385SOL    HW119034   2.295   3.262   0.549 -0.7105  0.0332  0.2282
 2385SOL    HW219035   2.248   3.237   0.407 -0.1002 -0.1449  0.0604
 2386SOL     OW19036   4.494   1.603  17.407  0.6990 -0.2106 -0.1364
 2386SOL    HW119037   4.439   1.524  17.407  2.8932 -1.7288 -0.6402
 2386SOL    HW219038   4.486   1.637  17.318 -0.8513  0.5592  0.2921
 2387SOL     OW19039   3.638   3.857  16.533 -0.6145 -0.0704 -0.3591
 2387SOL    HW119040   3.671   3.809  16.457  0.2835  0.8323 -0.5468
 2387SOL    HW219041   3.686   3.940  16.531  0.4244 -0.6169  1.9874
 2388SOL     OW19042   2.789   2.365  15.264 -0.2084 -0.0184 -0.2996
 2388SOL    HW119043   2.785   2.307  15.189  0.1840 -2.0190  1.2451
 2388SOL    HW219044   2.872   2.412  15.254  0.0409 -0.5862 -0.8783
 2389SOL     OW19045   2.704   0.406   7.182 -0.0216 -0.1296  0.5367
 2389SOL    HW119046   2.660   0.475   7.232 -1.3044 -0.0778 -0.6518
 2389SOL    HW219047   2.757   0.453   7.118 -2.4969 -0.2713 -1.6260
 2390SOL     OW19048   0.267   0.499   2.988  0.0985 -0.1611  0.4165
 2390SOL    HW119049   0.290   0.519   2.898 -1.8009 -0.3605 -0.0966
 2390SOL    HW219050   0.265   0.584   3.032  0.7883 -0.0447  0.2220
 2391SOL     OW19051   0.398   4.674  20.036  1.0789  0.5410  0.3706
 2391SOL    HW119052   0.415   4.580  20.042 -0.2147  0.1962 -1.3166
 2391SOL    HW219053   0.342   4.694  20.111  0.1983 -0.2952 -0.0694
 2392SOL     OW19054   4.759   0.215   0.720 -0.1684  0.3326  0.0430
 2392SOL    HW119055   0.017   0.302   0.737 -1.1982  0.6560  0.4193
 2392SOL    HW219056   0.058   0.166   0.685  0.6265  1.1063  0.6909
 2393SOL     OW19057   1.390   0.889  10.871  0.1158 -0.0191  0.2686
 2393SOL    HW119058   1.297   0.876  10.886 -0.6102  2.5730 -2.0048
 2393SOL    HW219059   1.410   0.973  10.912  1.7919 -1.3408  2.1689
 2394SOL     OW19060   0.329   3.300   4.254 -0.0516  0.2142 -0.5775
 2394SOL    HW119061   0.323   3.378   4.309 -0.6065  0.5570 -1.1256
 2394SOL    HW219062   0.409   3.312   4.204 -0.5156  0.7749 -1.1888
 2395SOL     OW19063   3.606   0.834  20.893 -0.1853 -0.6485  0.1292
 2395SOL    HW119064   3.532   0.895  20.885 -0.9398 -1.4476  1.0701
 2395SOL    HW219065   3.669   0.864  20.827 -1.1391  0.3291 -0.3339
 2396SOL     OW19066   2.522   2.104  13.117  0.3707 -0.4100 -0.0521
 2396SOL    HW119067   2.565   2.151  13.188  1.2149 -0.5124 -0.5001
 2396SOL    HW219068   2.447   2.061  13.158  0.5446 -0.0161  0.6682
 2397SOL     OW19069   3.315   0.732   5.380  0.3681  0.2265 -0.2356
 2397SOL    HW119070   3.220   0.728   5.366  0.1847 -0.2094  1.1819
 2397SOL    HW219071   3.347   0.645   5.357  0.8026  1.2811 -3.6323
 2398SOL     OW19072   0.789   4.233   2.239 -0.1149 -0.2620  0.1894
 2398SOL    HW119073   0.723   4.289   2.280  1.0978  0.0857  1.6965
 2398SOL    HW219074   0.788   4.259   2.147 -1.2509  0.5763  0.4313
 2399SOL     OW19075   2.035   1.663   5.971  0.5975 -0.6040 -0.1777
 2399SOL    HW119076   2.056   1.754   5.947  0.1474  0.2871  2.7115
 2399SOL    HW219077   2.117   1.629   6.007  0.4367 -0.9479 -0.1435
 2400SOL     OW19078   0.940   3.758   5.464 -0.4499 -0.4367  0.0328
 2400SOL    HW119079   0.887   3.713   5.530 -0.5518  0.4178  0.5325
 2400SOL    HW219080   0.981   3.831   5.511 -0.1187 -0.1300 -0.7284
 2401SOL     OW19081   0.328   0.607  14.720  0.4817  0.7286 -0.2798
 2401SOL    HW119082   0.255   0.660  14.688  0.2835  0.4218 -0.3364
 2401SOL    HW219083   0.296   0.570  14.803 -0.0931 -0.8664 -1.2104
 2402SOL     OW19084   3.499   1.924  19.637  0.5479  0.5652 -0.2486
 2402SOL    HW119085   3.548   1.928  19.554 -2.3560 -0.1107 -1.9901
 2402SOL    HW219086   3.462   2.011  19.647  0.4748  0.4961  0.0665
 2403SOL     OW19087   4.167   3.049   0.389  0.1078 -0.1367 -0.6280
 2403SOL    HW119088   4.202   3.037   0.477 -0.3518 -0.2301 -0.4544
 2403SOL    HW219089   4.075   3.023   0.396 -0.1307  0.6084 -0.9510
 2404SOL     OW19090   4.039   2.848   5.299 -0.0472 -0.1215 -0.5763
 2404SOL    HW119091   3.976   2.777   5.304 -1.1823  0.9609  0.4487
 2404SOL    HW219092   4.103   2.828   5.368 -0.3536 -0.1583 -0.3042
 2405SOL     OW19093   4.557   1.002   9.624  0.4423  0.0604  0.1648
 2405SOL    HW119094   4.480   0.946   9.635 -1.1312  2.4557  1.3427
 2405SOL    HW219095   4.564   1.015   9.529 -2.6050  2.6383  0.2882
 2406SOL     OW19096   1.094   4.536   4.131  0.1022  0.7105  0.7077
 2406SOL    HW119097   1.170   4.593   4.127  0.4500  0.2757  1.0387
 2406SOL    HW219098   1.127   4.450   4.104 -0.4713  0.7210 -0.0247
 2407SOL     OW19099   0.019   2.457  19.853  0.2169 -0.1941  0.0097
 2407SOL    HW119100   4.706   2.491  19.844  0.3498  0.4823  1.2740
 2407SOL    HW219101   0.075   2.533  19.837  0.5214  0.0948  2.4089
 2408SOL     OW19102   1.094   0.947   0.913 -0.0507  0.2240  0.1624
 2408SOL    HW119103   1.168   0.962   0.855 -0.5123 -0.1290 -0.5198
 2408SOL    HW219104   1.099   0.854   0.935 -1.9874 -0.4587 -2.2329
 2409SOL     OW19105   2.814   4.361  17.424  0.0677  0.5158  0.1571
 2409SOL    HW119106   2.849   4.391  17.340 -1.2351 -1.3282 -1.0132
 2409SOL    HW219107   2.800   4.442  17.473  0.0195  1.6460 -1.7024
 2410SOL     OW19108   0.948   0.170   2.551  0.4871  0.1090 -0.4517
 2410SOL    HW119109   0.926   0.171   2.458 -0.2276  1.1092 -0.2764
 2410SOL    HW219110   0.865   0.150   2.595  1.0705 -1.5328 -0.0981
 2411SOL     OW19111   3.434   1.143   2.973 -0.3361  0.1822 -0.0312
 2411SOL    HW119112   3.410   1.166   2.883  0.4115  1.5719  0.1205
 2411SOL    HW219113   3.352   1.146   3.022 -0.3349  2.0402 -0.1251
 2412SOL     OW19114   3.474   2.593   4.901 -0.1541  0.3898  0.2471
 2412SOL    HW119115   3.409   2.614   4.834 -1.2409  2.0901  1.8443
 2412SOL    HW219116   3.449   2.506   4.932 -0.1817 -0.0152 -0.9252
 2413SOL     OW19117   0.609   4.222   4.223  0.2637  0.4741  0.0415
 2413SOL    HW119118   0.616   4.309   4.262 -1.0681  0.3026  0.6659
 2413SOL    HW219119   0.541   4.178   4.274  4.0075 -2.4642  2.5669
 2414SOL     OW19120   1.598   2.795   0.965  0.1119  0.0228  0.2002
 2414SOL    HW119121   1.587   2.784   1.059 -2.4083 -0.7940 -0.1886
 2414SOL    HW219122   1.584   2.707   0.928  0.8378  0.3845 -0.9525
 2415SOL     OW19123   1.215   2.006  18.776  0.0212  0.2494 -0.2466
 2415SOL    HW119124   1.175   2.054  18.704 -0.7293  1.2420  0.8444
 2415SOL    HW219125   1.219   2.068  18.848  1.1049 -0.6385  0.4661
 2416SOL     OW19126   0.925   0.449   6.649 -0.0734 -0.1690  0.5669
 2416SOL    HW119127   0.843   0.436   6.697  0.4525 -1.6116  1.0754
 2416SOL    HW219128   0.941   0.543   6.655 -1.7239  0.1355  0.4129
 2417SOL     OW19129   4.063   0.237  17.164  0.3743 -0.1462 -0.3702
 2417SOL    HW119130   4.121   0.301  17.206  0.9764 -1.1462  0.3300
 2417SOL    HW219131   4.074   0.253  17.070  1.0853  0.2768 -0.2154
 2418SOL     OW19132   1.361   1.550  20.733 -0.2162  0.2810 -0.5421
 2418SOL    HW119133   1.285   1.602  20.708 -1.7363 -0.7125  1.9857
 2418SOL    HW219134   1.363   1.478  20.671 -0.3998  1.1908 -1.6010
 2419SOL     OW19135   0.092   4.008   3.113  0.0542  0.1545 -0.0024
 2419SOL    HW119136   0.054   3.989   3.027 -1.7661  2.7830  0.2168
 2419SOL    HW219137   0.069   3.932   3.167 -1.3022 -0.1636 -1.0225
 2420SOL     OW19138   0.023   0.577   3.906 -0.1426  0.3434 -0.1506
 2420SOL    HW119139   0.107   0.579   3.860 -0.0951  0.9656 -0.0306
 2420SOL    HW219140   0.019   0.660   3.953 -0.9852  0.4697 -0.4464
 2421SOL     OW19141   3.916   0.329  18.233 -0.0505 -0.3882 -0.0440
 2421SOL    HW119142   3.928   0.261  18.299  0.3348 -1.2799 -1.0400
 2421SOL    HW219143   3.993   0.322  18.176 -0.7142 -0.0593 -0.9836
 2422SOL     OW19144   0.837   1.121  19.735  0.1590 -0.1935 -0.1361
 2422SOL    HW119145   0.858   1.148  19.824  0.5690 -0.0787 -0.2657
 2422SOL    HW219146   0.769   1.181  19.706  1.4152  1.0104 -0.5995
 2423SOL     OW19147   2.084   1.739  10.694 -0.2577 -0.5064 -0.1247
 2423SOL    HW119148   2.118   1.827  10.710 -1.1143 -0.1868 -0.0873
 2423SOL    HW219149   2.151   1.681  10.730 -0.6518  0.1688  1.6894
 2424SOL     OW19150   2.261   3.722   2.080  0.3537 -0.4949  0.0050
 2424SOL    HW119151   2.179   3.692   2.119  0.5841 -0.9544  0.1317
 2424SOL    HW219152   2.313   3.642   2.068  0.4422 -0.3079 -0.8676
 2425SOL     OW19153   3.826   4.523  14.603 -0.1557 -0.3269 -0.7276
 2425SOL    HW119154   3.785   4.547  14.520 -0.4747 -0.7353 -0.6888
 2425SOL    HW219155   3.918   4.507  14.580 -0.0381  0.4962 -0.8290
 2426SOL     OW19156   1.224   4.280   2.947 -0.3878 -0.1497 -0.5199
 2426SOL    HW119157   1.319   4.287   2.936 -0.4117  0.3844 -0.4002
 2426SOL    HW219158   1.211   4.293   3.041 -0.6245  0.2480 -0.6103
 2427SOL     OW19159   3.509   2.161  14.538 -0.0122 -0.0019 -0.4690
 2427SOL    HW119160   3.458   2.240  14.554 -2.0660 -1.3943 -0.0548
 2427SOL    HW219161   3.530   2.127  14.625 -0.9620 -1.0692 -0.6550
 2428SOL     OW19162   0.425   1.198  17.453 -0.3415 -0.1468 -0.4991
 2428SOL    HW119163   0.411   1.292  17.465 -1.6795  0.1181 -4.2113
 2428SOL    HW219164   0.337   1.161  17.448  0.1922 -1.5059  0.3593
 2429SOL     OW19165   2.912   4.219   2.776  0.2409  0.3780 -0.1306
 2429SOL    HW119166   2.880   4.269   2.701 -0.9495  0.4333  0.4033
 2429SOL    HW219167   2.990   4.174   2.744 -0.7921 -0.3177 -1.6702
 2430SOL     OW19168   0.794   0.857   2.754 -0.2917 -0.3826 -0.2160
 2430SOL    HW119169   0.761   0.879   2.666 -0.4946 -0.5585 -0.1843
 2430SOL    HW219170   0.821   0.941   2.791 -0.0557 -0.3279 -0.5092
 2431SOL     OW19171   1.295   4.728  16.439  0.1581 -0.0024  0.2334
 2431SOL    HW119172   1.367   4.665  16.433  0.8224  0.6151  1.6933
 2431SOL    HW219173   1.216   4.676  16.420  0.8658 -0.9302 -0.1730
 2432SOL     OW19174   4.668   3.198  13.637 -0.5508 -0.2039 -0.1001
 2432SOL    HW119175   4.597   3.256  13.608 -1.8166 -1.1730  1.0780
 2432SOL    HW219176   4.739   3.258  13.660 -1.1622  0.7944 -0.7884
 2433SOL     OW19177   0.898   2.618  20.037 -0.3880  0.1181  0.0310
 2433SOL    HW119178   0.820   2.577  20.075  0.0567  0.3429  1.1912
 2433SOL    HW219179   0.971   2.574  20.081  0.1290  0.2160 -0.7353
 2434SOL     OW19180   4.256   3.488  16.480 -0.4795  0.0673 -0.8428
 2434SOL    HW119181   4.265   3.569  16.531 -2.4358 -0.2751  0.0359
 2434SOL    HW219182   4.346   3.456  16.470  0.1864  1.7340 -0.1946
 2435SOL     OW19183   0.058   2.436  18.090  0.0539 -0.1510  0.3180
 2435SOL    HW119184   0.038   2.522  18.126 -1.7053 -0.1386 -0.7192
 2435SOL    HW219185   0.045   2.376  18.163 -0.8184  0.2105  0.4588
 2436SOL     OW19186   0.275   4.206  17.406 -0.8209 -0.7101  0.3871
 2436SOL    HW119187   0.359   4.235  17.440 -0.8038 -0.6784  0.3187
 2436SOL    HW219188   0.218   4.283  17.416 -0.9701 -0.8856  0.8781
 2437SOL     OW19189   0.031   4.731  16.152 -0.1927  0.0611  0.2690
 2437SOL    HW119190   4.774   4.725  16.242 -0.8616 -0.4716 -0.0139
 2437SOL    HW219191   0.118   4.692  16.155  0.3776  1.3870  1.0023
 2438SOL     OW19192   1.237   2.787   9.596  0.2565  0.0377 -0.5662
 2438SOL    HW119193   1.198   2.828   9.519 -1.5143  1.5537  1.1363
 2438SOL    HW219194   1.216   2.846   9.668  2.9889 -0.7317  0.8744
 2439SOL     OW19195   2.603   0.938   3.990 -0.3827 -0.1785 -0.5626
 2439SOL    HW119196   2.696   0.956   3.982 -0.0721 -2.0471 -1.1626
 2439SOL    HW219197   2.567   1.015   4.033  1.4527  0.5068 -0.2629
 2440SOL     OW19198   2.957   0.591  20.262 -0.4756  0.1147  0.0001
 2440SOL    HW119199   2.971   0.613  20.354 -1.4054  1.4099 -0.1803
 2440SOL    HW219200   2.868   0.619  20.243  0.1203  0.9364 -1.6320
 2441SOL     OW19201   4.092   0.763   2.654 -1.0113 -0.2987  1.1087
 2441SOL    HW119202   4.063   0.676   2.682 -1.7731 -1.4832 -3.3105
 2441SOL    HW219203   4.020   0.821   2.675 -1.9328 -1.3357  0.8079
 2442SOL     OW19204   1.202   3.543  19.798 -0.3471 -0.0986 -0.0088
 2442SOL    HW119205   1.235   3.537  19.708 -1.1725 -0.8653 -0.2619
 2442SOL    HW219206   1.134   3.610  19.794 -0.8922 -0.6567 -0.1092
 2443SOL     OW19207   2.266   1.124  19.501 -0.3656  0.2025 -0.5563
 2443SOL    HW119208   2.274   1.033  19.472  0.4470  0.1914 -0.2816
 2443SOL    HW219209   2.333   1.171  19.452 -0.5628  0.5942 -0.4481
 2444SOL     OW19210   1.154   3.535   9.706  0.0655 -0.3510 -0.3553
 2444SOL    HW119211   1.091   3.515   9.637 -0.8287  0.8965  0.1101
 2444SOL    HW219212   1.100   3.552   9.783  1.0662 -2.0653  0.7439
 2445SOL     OW19213   2.072   4.549   4.087 -0.0902 -0.3299 -0.3866
 2445SOL    HW119214   2.075   4.627   4.032  1.7530 -1.6433 -2.1500
 2445SOL    HW219215   1.988   4.508   4.065 -0.8855  0.9483  0.2619
 2446SOL     OW19216   0.418   0.806  18.808 -0.1577  0.3808 -0.5564
 2446SOL    HW119217   0.458   0.872  18.751  0.7148  0.3224 -0.0109
 2446SOL    HW219218   0.437   0.722  18.765  0.0433  0.3717 -0.4452
 2447SOL     OW19219   3.451   2.638  15.399  0.1328  0.5529  0.2200
 2447SOL    HW119220   3.366   2.614  15.435  0.2384  2.1080  1.4985
 2447SOL    HW219221   3.477   2.562  15.346 -1.3369 -0.5439  1.0694
 2448SOL     OW19222   2.386   2.463  19.792  0.1880 -0.1232 -0.4405
 2448SOL    HW119223   2.470   2.470  19.747 -0.4547 -0.9240 -1.7796
 2448SOL    HW219224   2.372   2.369  19.802 -0.1671  0.0308  0.4736
 2449SOL     OW19225   1.475   1.025   9.853 -0.2584  0.5012 -0.0559
 2449SOL    HW119226   1.485   1.046   9.760  0.4466  1.3101  0.1945
 2449SOL    HW219227   1.386   1.053   9.875 -0.2781  0.7015 -0.3947
 2450SOL     OW19228   3.892   2.227   2.359 -0.3927 -0.4068 -0.2523
 2450SOL    HW119229   3.824   2.186   2.413 -0.9246 -2.8103 -2.7399
 2450SOL    HW219230   3.844   2.290   2.304 -0.1458  0.4567  0.5268
 2451SOL     OW19231   4.642   2.236   8.786  0.0851 -0.1940 -0.2216
 2451SOL    HW119232   4.737   2.246   8.782 -0.0760  1.9888  1.2072
 2451SOL    HW219233   4.626   2.190   8.868 -0.1753  0.4856  0.1075
 2452SOL     OW19234   0.612   1.453   8.978 -0.3491 -0.3362 -0.5479
 2452SOL    HW119235   0.546   1.459   8.909  0.0414  2.2239 -0.6829
 2452SOL    HW219236   0.561   1.436   9.058 -1.2352  2.5704 -0.4987
 2453SOL     OW19237   4.572   3.544  20.744  0.2007  0.0523  0.2155
 2453SOL    HW119238   4.583   3.449  20.741 -1.3639 -0.1291  0.1222
 2453SOL    HW219239   4.493   3.560  20.693  1.2003  1.5288 -0.8650
 2454SOL     OW19240   1.204   2.090   5.374  0.0749 -0.3025  0.3507
 2454SOL    HW119241   1.292   2.114   5.404  0.0144 -1.4826  1.4887
 2454SOL    HW219242   1.217   2.008   5.327 -0.3128 -0.1281 -0.0527
 2455SOL     OW19243   4.079   4.667  21.000  0.1027 -0.6864  0.3180
 2455SOL    HW119244   4.001   4.634  20.955  0.8730  1.0625 -2.2813
 2455SOL    HW219245   4.102   4.597  21.062 -3.4039 -1.2703  0.9536
 2456SOL     OW19246   1.223   2.694  19.023  0.2949 -0.0419 -0.1457
 2456SOL    HW119247   1.255   2.708  18.934  0.7921  0.8268  0.1764
 2456SOL    HW219248   1.298   2.657  19.070 -0.1661 -1.1325 -0.2584
 2457SOL     OW19249   0.114   2.806   4.059 -0.3241 -0.2265 -0.3113
 2457SOL    HW119250   0.160   2.853   4.129  0.3112 -0.1371 -0.7777
 2457SOL    HW219251   0.024   2.799   4.089 -0.2415  0.5784  0.1311
 2458SOL     OW19252   1.094   3.612  15.032 -0.4478 -0.6504 -0.4059
 2458SOL    HW119253   1.058   3.575  15.113 -0.8437  0.4325 -0.0799
 2458SOL    HW219254   1.186   3.586  15.032 -0.3659 -0.3765  0.5594
 2459SOL     OW19255   3.522   4.317   1.008  0.4203  0.6301 -0.0206
 2459SOL    HW119256   3.603   4.276   1.039 -0.2104 -1.0059 -0.5142
 2459SOL    HW219257   3.455   4.287   1.069 -0.5945 -1.5455 -2.1922
 2460SOL     OW19258   2.838   1.086  20.990  0.5106 -0.6775  0.0769
 2460SOL    HW119259   2.909   1.048  21.042  0.9592 -1.6865 -1.2842
 2460SOL    HW219260   2.765   1.024  21.000 -1.0101  1.6137  3.5205
 2461SOL     OW19261   4.676   4.102   6.127  0.3712  0.3579 -0.1583
 2461SOL    HW119262   4.734   4.027   6.137 -1.4534 -0.9900  0.3906
 2461SOL    HW219263   4.632   4.088   6.043  0.0606  0.8193 -0.0717
 2462SOL     OW19264   1.419   2.993  11.032 -0.1971 -0.0389  0.6648
 2462SOL    HW119265   1.447   2.925  11.093 -1.5331  0.2083  1.5646
 2462SOL    HW219266   1.454   2.965  10.948  2.7700  0.2976  1.7898
 2463SOL     OW19267   0.115   2.361   5.001  0.3603  0.3911  0.0674
 2463SOL    HW119268   0.130   2.333   5.091  0.8517 -0.0378 -0.1475
 2463SOL    HW219269   0.117   2.280   4.950 -1.3178  0.4839 -0.1441
 2464SOL     OW19270   2.680   0.075   9.238 -0.1553 -0.3767  0.4976
 2464SOL    HW119271   2.589   0.093   9.214 -0.6751 -1.7585  1.4104
 2464SOL    HW219272   2.725   0.061   9.154 -0.5163  1.5509 -0.0174
 2465SOL     OW19273   4.753   2.632   1.959 -0.4576  0.5824  0.1338
 2465SOL    HW119274   0.071   2.624   1.939 -0.1069  1.3530  1.4777
 2465SOL    HW219275   4.734   2.725   1.947 -0.6026  0.7721  1.7830
 2466SOL     OW19276   3.000   2.812  18.131 -0.1865  0.0917 -0.1447
 2466SOL    HW119277   2.928   2.867  18.164 -0.4812 -0.2675 -0.1920
 2466SOL    HW219278   3.011   2.840  18.040 -1.4156 -1.0572 -0.6439
 2467SOL     OW19279   0.181   2.459  11.025 -0.2486  0.3734 -0.1984
 2467SOL    HW119280   0.133   2.428  10.948  1.3314 -2.9411  0.1745
 2467SOL    HW219281   0.112   2.472  11.091 -1.1341 -0.5759 -0.9220
 2468SOL     OW19282   2.795   2.244   1.467 -0.1121 -0.0394  0.1243
 2468SOL    HW119283   2.756   2.229   1.553  0.2188  0.1090  0.2973
 2468SOL    HW219284   2.762   2.172   1.413 -0.9883  0.3509  0.1538
 2469SOL     OW19285   0.989   1.725   4.436 -0.1096 -0.1076  0.3742
 2469SOL    HW119286   1.037   1.710   4.355 -0.7344  1.0067 -0.2004
 2469SOL    HW219287   0.903   1.688   4.420 -0.5542  1.0026  0.1681
 2470SOL     OW19288   3.307   0.659   5.900 -0.2162 -0.2103  0.1888
 2470SOL    HW119289   3.255   0.734   5.869  0.0972  0.3797  1.0694
 2470SOL    HW219290   3.355   0.630   5.823 -2.3092 -1.1280 -0.7704
 2471SOL     OW19291   2.807   3.823  12.197 -0.1805 -0.2309 -0.3292
 2471SOL    HW119292   2.826   3.810  12.104 -0.2765 -1.8294 -0.1327
 2471SOL    HW219293   2.815   3.735  12.235  0.0339  0.4503  1.1942
 2472SOL     OW19294   0.953   0.753  15.623 -0.5350  0.0612  0.2216
 2472SOL    HW119295   0.913   0.809  15.689 -0.6965  0.9274 -0.6099
 2472SOL    HW219296   0.965   0.810  15.547 -0.2648 -0.9048 -0.4632
 2473SOL     OW19297   0.486   0.611  19.340 -0.1529  0.5722 -0.6990
 2473SOL    HW119298   0.498   0.582  19.250 -0.9460 -0.5787 -0.4329
 2473SOL    HW219299   0.574   0.624  19.373  0.1285  1.8481 -1.9139
 2474SOL     OW19300   3.896   0.496   5.571 -0.0488  0.6198 -0.0376
 2474SOL    HW119301   3.825   0.561   5.567  0.1390  0.9537  1.8042
 2474SOL    HW219302   3.971   0.545   5.605  1.1418  0.3315 -2.2477
 2475SOL     OW19303   4.584   3.290  10.926  0.1776  0.3904 -0.5456
 2475SOL    HW119304   4.539   3.325  11.003 -0.7925  0.2852 -1.0614
 2475SOL    HW219305   4.654   3.235  10.961 -1.2015 -0.8454  0.2606
 2476SOL     OW19306   2.610   0.291   0.037  0.6648  0.0118  0.7224
 2476SOL    HW119307   2.669   0.349  21.185 -0.7721 -0.2414 -1.3380
 2476SOL    HW219308   2.622   0.315   0.129  0.4667  3.2050 -0.1000
 2477SOL     OW19309   0.948   3.915  16.783 -0.4951 -0.4101 -0.7226
 2477SOL    HW119310   0.921   3.868  16.705  0.5998 -0.4111 -1.1007
 2477SOL    HW219311   1.039   3.940  16.767 -0.0537 -1.0043  0.8262
 2478SOL     OW19312   3.262   0.568  16.573  0.8096 -0.1270  0.5994
 2478SOL    HW119313   3.270   0.493  16.633  0.1627  0.1734  1.0566
 2478SOL    HW219314   3.178   0.555  16.530  1.8756 -1.0491 -1.1978
 2479SOL     OW19315   3.143   3.648   0.831 -0.4332 -0.1015  0.0332
 2479SOL    HW119316   3.130   3.742   0.814  1.3162  0.1240 -0.0524
 2479SOL    HW219317   3.167   3.611   0.746  0.5999 -0.3308  0.4287
 2480SOL     OW19318   0.917   1.164  20.527 -0.3815 -0.5375  0.0830
 2480SOL    HW119319   0.970   1.171  20.448 -0.4660 -0.6439  0.0164
 2480SOL    HW219320   0.878   1.250  20.538  0.0052 -0.3886  0.2709
 2481SOL     OW19321   3.965   2.294   1.571 -0.2508  0.2343 -0.2815
 2481SOL    HW119322   3.914   2.363   1.614 -0.3393 -0.2939  0.4706
 2481SOL    HW219323   3.902   2.250   1.513 -0.2004  0.7729 -0.7387
 2482SOL     OW19324   1.049   4.145   7.997 -0.2448  0.0753 -0.6276
 2482SOL    HW119325   1.143   4.164   7.997 -0.6620  2.1444 -0.2777
 2482SOL    HW219326   1.040   4.071   7.937  1.6006 -0.0521 -0.7624
 2483SOL     OW19327   3.735   1.090   0.037 -0.1325 -0.1926  0.4998
 2483SOL    HW119328   3.756   1.046   0.119  0.7282 -1.8546 -0.6110
 2483SOL    HW219329   3.653   1.050   0.009  1.0458 -1.6385 -0.9030
 2484SOL     OW19330   2.559   0.391   2.383 -0.4875  0.7011  0.1148
 2484SOL    HW119331   2.651   0.378   2.406 -0.4897  0.7340  0.1432
 2484SOL    HW219332   2.560   0.466   2.323 -0.5435  0.9973  0.4831
 2485SOL     OW19333   3.269   3.294  13.395 -0.2343  0.0933  0.3168
 2485SOL    HW119334   3.350   3.259  13.360  1.1112 -0.0322  3.5579
 2485SOL    HW219335   3.281   3.389  13.395 -1.3268  0.2371 -2.2179
 2486SOL     OW19336   3.898   2.075  15.512  0.1214  0.2404 -0.3955
 2486SOL    HW119337   3.890   2.023  15.592  1.5514 -0.2530 -0.5646
 2486SOL    HW219338   3.809   2.080  15.477 -0.1166 -1.6125 -0.0622
 2487SOL     OW19339   4.648   4.213  19.185  0.8620 -0.0376  1.1175
 2487SOL    HW119340   4.703   4.259  19.247 -1.4868  1.8223  1.8485
 2487SOL    HW219341   4.576   4.178  19.238  0.3341 -0.8274 -0.1189
 2488SOL     OW19342   0.274   1.155  19.277 -0.1924  0.3946  0.5014
 2488SOL    HW119343   0.338   1.209  19.231 -0.6436  0.2256 -0.3230
 2488SOL    HW219344   0.309   1.148  19.366  1.3843 -0.4485 -0.1833
 2489SOL     OW19345   0.749   0.104  15.986 -0.2205  0.2928 -0.2723
 2489SOL    HW119346   0.705   0.094  16.070 -1.9950 -1.5918 -1.4283
 2489SOL    HW219347   0.700   0.172  15.941 -0.4418 -0.0405 -0.5398
 2490SOL     OW19348   1.397   4.277  14.893  0.0054  0.0996 -0.0516
 2490SOL    HW119349   1.431   4.188  14.896  0.3599  0.3513  3.2992
 2490SOL    HW219350   1.470   4.330  14.861  0.4960 -0.4862  0.0939
 2491SOL     OW19351   4.307   2.867  18.325 -0.0374 -0.1921 -0.1045
 2491SOL    HW119352   4.233   2.808  18.339  0.3593 -0.8835 -0.9081
 2491SOL    HW219353   4.374   2.837  18.387  0.8569 -1.7759 -1.8324
 2492SOL     OW19354   1.334   2.092   0.135  0.3221 -0.0317 -0.3633
 2492SOL    HW119355   1.240   2.101   0.150  0.5298 -1.4965  1.8030
 2492SOL    HW219356   1.375   2.146   0.203  1.0513  0.6825 -1.3616
 2493SOL     OW19357   2.538   1.132  10.808  0.1379  0.1024 -0.6102
 2493SOL    HW119358   2.445   1.117  10.825  0.2559  0.0623 -0.0073
 2493SOL    HW219359   2.583   1.081  10.874  0.5922  0.1001 -0.9237
 2494SOL     OW19360   3.813   0.634   6.005  0.7843  0.1019  0.1491
 2494SOL    HW119361   3.808   0.712   5.949  0.8910 -0.7466 -1.0434
 2494SOL    HW219362   3.734   0.585   5.984  1.6897 -1.0685 -0.5109
 2495SOL     OW19363   2.510   0.854  14.770  0.5643 -0.2964 -0.0440
 2495SOL    HW119364   2.493   0.777  14.825  0.7886  0.4816  1.0995
 2495SOL    HW219365   2.606   0.856  14.761  0.6596  0.8126  1.2791
 2496SOL     OW19366   1.325   4.148  15.998  0.4510  0.2927 -0.5135
 2496SOL    HW119367   1.257   4.094  16.038  0.9920  0.6644  0.8954
 2496SOL    HW219368   1.361   4.093  15.928 -0.4921 -0.3455 -0.4953
 2497SOL     OW19369   2.119   2.005   2.050 -0.8292  0.2616  0.0489
 2497SOL    HW119370   2.120   1.916   2.014 -1.5292  0.4683 -0.5000
 2497SOL    HW219371   2.025   2.026   2.058 -0.6591  1.2226 -0.5017
 2498SOL     OW19372   4.611   1.089  11.942 -0.2479  0.0273 -0.8809
 2498SOL    HW119373   4.542   1.150  11.967 -0.1428 -0.1568 -0.1246
 2498SOL    HW219374   4.565   1.006  11.927 -0.2628  0.0450 -0.9340
 2499SOL     OW19375   3.601   3.193   7.945  0.4352 -0.2392 -0.1716
 2499SOL    HW119376   3.534   3.135   7.907  1.2795 -0.1794 -1.7612
 2499SOL    HW219377   3.675   3.136   7.963  0.1885 -0.1865  1.0012
 2500SOL     OW19378   4.583   0.710   0.243  0.3093  0.3264  0.1566
 2500SOL    HW119379   4.604   0.742   0.331  3.2557  1.6838 -1.0582
 2500SOL    HW219380   4.554   0.788   0.196 -0.0440 -0.1817 -0.4598
 2501SOL     OW19381   4.268   4.020  17.639 -0.4551 -0.1121 -0.0404
 2501SOL    HW119382   4.331   3.953  17.612 -0.9184 -0.2642 -0.7540
 2501SOL    HW219383   4.304   4.055  17.720  0.2179 -0.6499 -0.1008
 2502SOL     OW19384   1.421   4.261  11.166 -0.0765  0.2940  0.4005
 2502SOL    HW119385   1.339   4.217  11.144 -0.4367  0.8225  0.6746
 2502SOL    HW219386   1.405   4.353  11.143  0.0456  0.5925  1.5347
 2503SOL     OW19387   1.632   0.057  11.203 -0.2567 -0.3375  0.1657
 2503SOL    HW119388   1.683   0.124  11.158 -2.8062 -0.0268 -2.2509
 2503SOL    HW219389   1.654   0.068  11.296  3.0708  0.6454 -0.7477
 2504SOL     OW19390   0.052   0.312   4.179  0.7637  0.4760  1.0799
 2504SOL    HW119391   0.047   0.224   4.217  3.0595  0.3230  1.0278
 2504SOL    HW219392   0.013   0.303   4.092  0.8610 -0.4593  1.1304
 2505SOL     OW19393   2.317   0.563   5.573  0.2460 -0.0228  0.7035
 2505SOL    HW119394   2.231   0.533   5.602  0.3540 -1.4174 -0.4427
 2505SOL    HW219395   2.362   0.484   5.544  1.1776  0.9749 -0.5902
 2506SOL     OW19396   4.652   2.289   0.670  0.1630 -0.0540  0.0778
 2506SOL    HW119397   4.724   2.248   0.719  0.2909  0.0469 -0.0230
 2506SOL    HW219398   4.682   2.286   0.579 -0.5229 -1.1726 -0.1138
 2507SOL     OW19399   3.235   0.520   6.389 -0.4447  0.2238  0.3155
 2507SOL    HW119400   3.180   0.504   6.466  0.9560 -1.9565  0.8450
 2507SOL    HW219401   3.297   0.587   6.419 -0.1819 -0.2994  0.9425
 2508SOL     OW19402   1.414   3.432  19.221  0.0911  0.4819  0.3670
 2508SOL    HW119403   1.460   3.349  19.209 -1.7798 -0.5448  0.2077
 2508SOL    HW219404   1.336   3.424  19.167  0.6735  2.9593 -0.8696
 2509SOL     OW19405   2.105   3.805   3.637 -0.2541 -0.6424  0.0869
 2509SOL    HW119406   2.104   3.747   3.713  1.4631  0.1754  0.7493
 2509SOL    HW219407   2.135   3.750   3.565  1.1377 -0.6473  0.6662
 2510SOL     OW19408   1.188   2.478  11.770  0.6691 -0.0767 -0.4618
 2510SOL    HW119409   1.146   2.558  11.737  0.6871  0.0193 -0.2510
 2510SOL    HW219410   1.258   2.510  11.827 -1.3408 -0.2951  2.0974
 2511SOL     OW19411   4.762   1.328   5.734  0.1983 -0.0257  0.2860
 2511SOL    HW119412   4.714   1.330   5.651  2.1369 -1.0270 -0.8616
 2511SOL    HW219413   4.695   1.340   5.801 -1.8723 -2.9596 -1.2460
 2512SOL     OW19414   2.014   2.615  16.531  0.7630  0.3349 -0.2312
 2512SOL    HW119415   2.084   2.582  16.474 -0.0245 -0.8070 -0.5421
 2512SOL    HW219416   1.989   2.699  16.492  1.3917  0.3619 -0.5856
 2513SOL     OW19417   2.097   0.061   7.191 -0.6720  0.0402 -0.0924
 2513SOL    HW119418   2.053   4.773   7.246 -2.5890  2.0644  0.6878
 2513SOL    HW219419   2.140   0.120   7.252  0.3752  0.0374 -0.8191
 2514SOL     OW19420   1.908   2.435   2.700  0.1998 -0.1303 -0.6113
 2514SOL    HW119421   1.975   2.503   2.699 -0.1846  0.2211 -1.9587
 2514SOL    HW219422   1.852   2.455   2.625 -0.6945 -1.1421 -0.2132
 2515SOL     OW19423   2.561   0.619   7.268 -0.1968  0.1295 -0.1398
 2515SOL    HW119424   2.651   0.624   7.301 -0.1346 -0.3658 -0.2317
 2515SOL    HW219425   2.523   0.704   7.289  0.9785  1.1353 -2.1178
 2516SOL     OW19426   1.010   4.318   9.204  0.2198  1.0142  0.4339
 2516SOL    HW119427   0.944   4.266   9.159  0.0742  0.6848  1.0349
 2516SOL    HW219428   1.087   4.315   9.146  0.2012  0.1683  0.4526
 2517SOL     OW19429   1.805   1.361   5.626  0.0567  0.5815 -0.0295
 2517SOL    HW119430   1.760   1.412   5.558 -3.1774  1.5143  2.7938
 2517SOL    HW219431   1.859   1.424   5.672 -0.1862  0.5399  0.3110
 2518SOL     OW19432   3.007   2.918  19.699  0.5106  0.1681 -0.2884
 2518SOL    HW119433   2.993   2.965  19.781 -1.8935  0.9470 -1.1175
 2518SOL    HW219434   2.968   2.975  19.633  1.0807 -1.1698 -1.7726
 2519SOL     OW19435   4.258   0.829   5.171 -0.4201 -0.0832 -0.0653
 2519SOL    HW119436   4.165   0.845   5.190 -0.6403 -0.6925 -0.6008
 2519SOL    HW219437   4.258   0.744   5.126  0.6611 -1.3890  2.3886
 2520SOL     OW19438   0.372   2.687  19.411  0.3943 -0.1556 -0.1278
 2520SOL    HW119439   0.334   2.616  19.464 -1.0207 -0.5413 -1.6478
 2520SOL    HW219440   0.307   2.757  19.414  1.4158  0.7529  0.6776
 2521SOL     OW19441   0.352   4.204   3.378  0.0418  0.3731 -0.2236
 2521SOL    HW119442   0.389   4.166   3.298  1.5038  0.7232  0.2999
 2521SOL    HW219443   0.351   4.298   3.361 -3.9024  0.0845 -1.6585
 2522SOL     OW19444   2.947   3.251   3.932 -0.2653  0.6541  0.0180
 2522SOL    HW119445   3.041   3.251   3.947 -0.2728 -0.3245  0.0653
 2522SOL    HW219446   2.911   3.306   4.001  0.2700  0.9582  0.0493
 2523SOL     OW19447   4.473   4.268   1.516 -0.4883 -0.0449  0.2623
 2523SOL    HW119448   4.415   4.343   1.528  0.2850  0.4958  0.5929
 2523SOL    HW219449   4.484   4.261   1.422  1.6603  1.9477  0.3498
 2524SOL     OW19450   4.713   3.216   9.228 -0.0300 -0.2224 -0.0749
 2524SOL    HW119451   4.758   3.224   9.312 -1.2450  2.4724  0.3185
 2524SOL    HW219452   4.622   3.200   9.251 -0.2419 -0.1776 -0.8952
 2525SOL     OW19453   2.129   2.458  13.923  0.0789 -0.4889 -0.1884
 2525SOL    HW119454   2.219   2.471  13.895  0.2807 -0.1645  0.6120
 2525SOL    HW219455   2.135   2.434  14.015 -0.5342 -2.5768 -0.6915
 2526SOL     OW19456   1.960   2.635  15.413 -0.1595 -0.1896  0.0582
 2526SOL    HW119457   1.921   2.562  15.460  2.0959 -0.8979  0.8529
 2526SOL    HW219458   1.919   2.713  15.451 -2.3588 -1.0475 -0.6032
 2527SOL     OW19459   2.953   0.953   6.237  0.4999  0.2929  0.0669
 2527SOL    HW119460   2.864   0.960   6.204  0.3138 -0.1908  0.4692
 2527SOL    HW219461   3.008   0.979   6.163  0.1059 -1.2596 -0.7683
 2528SOL     OW19462   0.421   0.165  17.807 -0.1389 -0.1603  0.0893
 2528SOL    HW119463   0.360   0.192  17.875 -0.9002 -0.7669 -0.3643
 2528SOL    HW219464   0.451   0.078  17.835  0.7149  0.2367  0.4435
 2529SOL     OW19465   3.085   1.431  19.994 -0.1354  0.2865  0.3448
 2529SOL    HW119466   2.997   1.397  20.007 -0.8016  1.4492 -1.1532
 2529SOL    HW219467   3.076   1.495  19.923  1.8623  0.5646  0.3444
 2530SOL     OW19468   0.622   2.218   9.860 -0.0982 -0.7868 -0.1410
 2530SOL    HW119469   0.648   2.306   9.831  1.3123 -0.6749  1.4211
 2530SOL    HW219470   0.684   2.159   9.818  2.0209 -0.6128  2.7355
 2531SOL     OW19471   2.863   0.187  20.443 -0.5203  0.4896 -0.2795
 2531SOL    HW119472   2.949   0.221  20.467 -0.2298 -0.1238 -0.4449
 2531SOL    HW219473   2.876   0.146  20.357 -0.4157 -1.7532  0.7987
 2532SOL     OW19474   3.922   2.259   0.878  0.5833 -0.2476  0.8389
 2532SOL    HW119475   3.909   2.302   0.794  0.1832 -1.9354  0.0250
 2532SOL    HW219476   3.845   2.202   0.887 -0.0493  0.9555  2.9616
 2533SOL     OW19477   2.158   4.190   4.031  0.2245 -0.0954  0.3886
 2533SOL    HW119478   2.171   4.216   3.940 -0.2555  0.8715  0.5959
 2533SOL    HW219479   2.079   4.237   4.059 -0.2473 -1.2234  0.9810
 2534SOL     OW19480   2.190   2.658   0.354 -0.1798 -0.3945  0.8291
 2534SOL    HW119481   2.270   2.661   0.406 -0.4489  0.4862  1.1944
 2534SOL    HW219482   2.204   2.722   0.284 -0.3817 -0.5704  0.6248
 2535SOL     OW19483   4.391   0.787   3.072 -0.4445 -0.5197 -0.4842
 2535SOL    HW119484   4.403   0.739   2.991 -1.1865 -0.5735 -0.5651
 2535SOL    HW219485   4.329   0.857   3.050  1.9863  1.5354 -0.7949
 2536SOL     OW19486   1.850   1.680  15.995  0.2455  0.6337 -0.2100
 2536SOL    HW119487   1.839   1.694  15.901 -0.3694  1.8489  0.0384
 2536SOL    HW219488   1.941   1.656  16.005  0.3786  0.7626 -1.0987
 2537SOL     OW19489   4.737   3.341  17.331 -0.3500  1.4219  0.5951
 2537SOL    HW119490   0.037   3.374  17.284  0.0079 -0.1297  0.1213
 2537SOL    HW219491   4.772   3.311  17.415  0.0537 -2.6218 -1.0582
 2538SOL     OW19492   0.948   2.638   2.825 -0.5316 -0.0668  0.2090
 2538SOL    HW119493   0.957   2.712   2.886 -1.7371  0.6388 -0.4793
 2538SOL    HW219494   1.000   2.664   2.749  0.4109 -0.6491  0.6591
 2539SOL     OW19495   1.692   4.619  13.409 -0.6099  0.1831  0.4410
 2539SOL    HW119496   1.682   4.524  13.416 -0.7444  0.3366  2.1785
 2539SOL    HW219497   1.744   4.644  13.485 -0.6616  1.5237  0.0398
 2540SOL     OW19498   4.016   3.091  20.178 -0.0825  0.3370  0.4483
 2540SOL    HW119499   3.960   3.165  20.200  0.8541  0.6943  1.6600
 2540SOL    HW219500   4.012   3.084  20.083 -1.2787  1.0704  0.4531
 2541SOL     OW19501   1.768   2.169   3.779  0.0393 -0.7969  0.0653
 2541SOL    HW119502   1.848   2.117   3.769 -0.6454 -1.5015 -1.7905
 2541SOL    HW219503   1.726   2.133   3.857 -0.6080 -3.2447 -1.4340
 2542SOL     OW19504   3.462   0.508  19.869  0.4064  0.2827 -0.3078
 2542SOL    HW119505   3.531   0.528  19.933 -1.0406  1.8879  0.7743
 2542SOL    HW219506   3.418   0.431  19.905  1.8712 -0.9733 -1.1922
 2543SOL     OW19507   4.587   4.439   1.960 -0.5634 -0.1490  0.2382
 2543SOL    HW119508   4.536   4.492   2.020  0.6365  0.3015  0.8715
 2543SOL    HW219509   4.634   4.377   2.016 -0.2846 -0.4425 -0.3150
 2544SOL     OW19510   2.023   2.708  20.823  0.4562  0.2494 -0.5938
 2544SOL    HW119511   1.935   2.745  20.822  0.2160 -0.2881  1.0610
 2544SOL    HW219512   2.015   2.628  20.770 -0.3495 -0.4871  0.6393
 2545SOL     OW19513   0.260   0.381   2.386  0.3603  0.0629  0.2072
 2545SOL    HW119514   0.274   0.290   2.360  0.6906  0.4579 -0.9900
 2545SOL    HW219515   0.215   0.421   2.312  2.8364  1.6118 -0.4572
 2546SOL     OW19516   1.021   2.178   4.723 -0.1590  0.1730 -0.3191
 2546SOL    HW119517   1.018   2.139   4.636  1.3139 -0.8412  0.0911
 2546SOL    HW219518   1.068   2.114   4.777  0.3652  1.5241  0.8405
 2547SOL     OW19519   4.477   0.810   3.670  0.0280 -0.1916  0.1260
 2547SOL    HW119520   4.563   0.811   3.628  0.8547  0.6413  1.8190
 2547SOL    HW219521   4.424   0.872   3.620  0.5619 -0.3305 -0.6024
 2548SOL     OW19522   2.741   0.519   8.611 -0.1168 -0.4356 -0.1853
 2548SOL    HW119523   2.776   0.450   8.555 -0.2533  0.8567 -1.8470
 2548SOL    HW219524   2.711   0.587   8.551  1.0607  1.5983  1.5017
 2549SOL     OW19525   2.815   4.304   9.705  0.4325 -0.2196 -0.4918
 2549SOL    HW119526   2.822   4.211   9.684 -2.7987 -0.7209  0.7607
 2549SOL    HW219527   2.896   4.324   9.753  1.6513 -2.0986 -1.7652
 2550SOL     OW19528   1.600   2.887  15.502  0.0362 -0.2681  0.0239
 2550SOL    HW119529   1.519   2.870  15.550 -0.5191 -0.3938 -0.9520
 2550SOL    HW219530   1.571   2.922  15.418  1.0155  0.1919 -0.1218
 2551SOL     OW19531   2.662   3.103  13.605  0.2105 -0.3123 -0.0799
 2551SOL    HW119532   2.621   3.148  13.679  1.5944 -1.0185  1.1269
 2551SOL    HW219533   2.625   3.015  13.607 -0.8988  0.1349 -1.1483
 2552SOL     OW19534   3.885   1.248   2.875  0.3554 -0.4869  0.1106
 2552SOL    HW119535   3.807   1.191   2.875 -0.8678  1.1864  0.4629
 2552SOL    HW219536   3.881   1.293   2.791  0.2806  0.4993  0.6414
 2553SOL     OW19537   3.710   2.027   0.499 -0.6762  0.5883  0.0710
 2553SOL    HW119538   3.777   2.018   0.568 -1.7187 -0.2892  0.9714
 2553SOL    HW219539   3.759   2.018   0.417  0.3963  0.4600  0.7197
 2554SOL     OW19540   0.786   4.157   9.086 -0.1635 -0.1289 -0.3639
 2554SOL    HW119541   0.736   4.223   9.038 -0.0081  0.1851 -0.1006
 2554SOL    HW219542   0.837   4.111   9.020 -0.1812  0.0993 -0.5342
 2555SOL     OW19543   0.911   0.620  20.696 -0.1866  0.2765  0.1013
 2555SOL    HW119544   1.001   0.607  20.725  0.1530 -0.7056 -1.3694
 2555SOL    HW219545   0.905   0.714  20.678  0.5661  0.3288  0.1247
 2556SOL     OW19546   0.567   1.217  19.454  0.1466 -0.7421 -0.4491
 2556SOL    HW119547   0.589   1.191  19.544 -0.4844 -2.6517 -0.8457
 2556SOL    HW219548   0.647   1.257  19.421  0.6424 -0.7707  0.6958
 2557SOL     OW19549   2.810   2.645  20.092 -0.9816  0.1305 -0.1191
 2557SOL    HW119550   2.834   2.580  20.158  0.2900 -0.8247 -1.5276
 2557SOL    HW219551   2.853   2.725  20.121 -1.6109  0.0639  1.0023
 2558SOL     OW19552   3.771   2.068   0.064 -0.2519  0.5176  0.0521
 2558SOL    HW119553   3.862   2.089   0.079 -0.5162  1.8919 -0.3157
 2558SOL    HW219554   3.765   2.053  21.165 -0.1711 -0.7027  0.2335
 2559SOL     OW19555   2.131   0.216   5.251 -0.2598  0.2059 -0.1290
 2559SOL    HW119556   2.084   0.299   5.242  0.9002  0.8349 -0.3567
 2559SOL    HW219557   2.114   0.188   5.341 -1.3800  0.2464 -0.3256
 2560SOL     OW19558   1.288   0.755   3.282  0.2498 -1.2918 -0.6637
 2560SOL    HW119559   1.366   0.763   3.336 -1.2014 -0.9775  1.3961
 2560SOL    HW219560   1.297   0.823   3.215  2.0991 -1.7562 -0.8707
 2561SOL     OW19561   4.372   1.843  21.044 -0.9538  0.2221  0.3444
 2561SOL    HW119562   4.401   1.808  20.960  0.4079  0.0833  0.8665
 2561SOL    HW219563   4.362   1.766  21.100  1.4550  0.5959  1.3150
 2562SOL     OW19564   1.515   3.613   5.866 -0.3794  0.0052  0.4185
 2562SOL    HW119565   1.535   3.704   5.888 -0.6241  0.2046 -0.1973
 2562SOL    HW219566   1.536   3.565   5.946 -0.3898  0.6202  0.7974
 2563SOL     OW19567   2.256   3.709  12.416  0.0020  0.0001  0.0356
 2563SOL    HW119568   2.175   3.747  12.383  1.0057  0.6469 -1.7233
 2563SOL    HW219569   2.321   3.729  12.348  1.9066  0.6182  2.0210
 2564SOL     OW19570   3.220   4.400   7.559 -0.4639  0.0433 -0.7987
 2564SOL    HW119571   3.269   4.359   7.488 -0.1804 -0.5944 -0.2383
 2564SOL    HW219572   3.158   4.333   7.587 -0.1915  0.0997 -0.0660
 2565SOL     OW19573   3.944   2.048   3.948 -0.7794  0.1191  0.1944
 2565SOL    HW119574   3.868   2.047   3.890 -0.6297 -0.7887  0.0111
 2565SOL    HW219575   3.981   2.136   3.938 -1.5628  0.4240 -0.0253
 2566SOL     OW19576   2.319   2.918   2.218  0.5161 -0.7448  0.0686
 2566SOL    HW119577   2.387   2.962   2.269  0.7121 -1.1056  0.1192
 2566SOL    HW219578   2.237   2.955   2.250  0.6454 -0.8862  0.5638
 2567SOL     OW19579   4.519   1.187   0.232  0.8005 -0.6504 -0.5088
 2567SOL    HW119580   4.510   1.271   0.277  1.0341 -0.1732 -1.3535
 2567SOL    HW219581   4.590   1.143   0.278  1.6959  0.2423 -1.0272
 2568SOL     OW19582   2.299   3.225  19.251  0.0312  0.0407  0.4323
 2568SOL    HW119583   2.245   3.288  19.299 -1.4113 -0.2873 -0.7519
 2568SOL    HW219584   2.254   3.141  19.264  2.1337 -0.8068  2.3048
 2569SOL     OW19585   1.684   2.098  16.870  0.3436  0.3495 -0.1770
 2569SOL    HW119586   1.611   2.108  16.809 -0.0481 -2.3572 -0.1524
 2569SOL    HW219587   1.644   2.104  16.957  0.6973  2.7037 -0.1581
 2570SOL     OW19588   3.372   4.699  16.679 -0.6023 -0.2220  0.1429
 2570SOL    HW119589   3.297   4.723  16.626 -0.2569  0.0740 -0.2123
 2570SOL    HW219590   3.341   4.702  16.769 -2.1409 -4.1201 -0.2560
 2571SOL     OW19591   3.269   2.495  20.533 -0.3183 -0.1343 -0.4816
 2571SOL    HW119592   3.224   2.506  20.449  0.1477 -2.2377 -0.9974
 2571SOL    HW219593   3.342   2.557  20.529  0.1430 -0.7760 -1.9318
 2572SOL     OW19594   3.869   4.392   2.650 -0.2617 -0.1108 -0.0709
 2572SOL    HW119595   3.782   4.392   2.609 -0.0866  0.4455 -0.4453
 2572SOL    HW219596   3.872   4.310   2.700 -0.4538 -0.8122 -1.2185
 2573SOL     OW19597   1.190   2.398   1.253 -0.0240 -0.1785 -0.3660
 2573SOL    HW119598   1.249   2.442   1.193 -0.4343  0.9517  0.0609
 2573SOL    HW219599   1.248   2.347   1.310  0.4882  0.2971 -0.4606
 2574SOL     OW19600   2.391   4.728   0.348 -0.2861 -0.3401  0.2936
 2574SOL    HW119601   2.474   4.768   0.321  0.3706 -1.5081  0.5993
 2574SOL    HW219602   2.399   4.721   0.443 -0.8639 -0.1722  0.3523
 2575SOL     OW19603   0.102   3.991  15.380  0.4313  0.1566  0.3789
 2575SOL    HW119604   0.120   3.897  15.377 -0.3939 -0.0063  0.5271
 2575SOL    HW219605   0.106   4.020  15.289  1.0816  0.0471  0.3778
 2576SOL     OW19606   3.702   2.122  17.845  0.1021 -0.1440  0.2936
 2576SOL    HW119607   3.718   2.095  17.935 -0.6959  1.5575  0.9321
 2576SOL    HW219608   3.765   2.192  17.828  0.7400 -0.9510 -0.6987
 2577SOL     OW19609   4.032   3.102   2.166  0.0504  0.3906  0.0583
 2577SOL    HW119610   4.050   3.020   2.212  1.0500  0.9560  0.6758
 2577SOL    HW219611   4.078   3.093   2.082 -0.0614  0.2067  0.0171
 2578SOL     OW19612   2.684   2.405  18.002  0.1563  0.5215 -0.6631
 2578SOL    HW119613   2.763   2.438  18.045  0.4535 -1.1845  0.1210
 2578SOL    HW219614   2.715   2.365  17.921 -0.0339  0.9052 -0.9237
 2579SOL     OW19615   2.652   2.792   0.358 -0.0203  0.2614  0.1115
 2579SOL    HW119616   2.720   2.766   0.420 -0.7198  1.7225  1.5053
 2579SOL    HW219617   2.627   2.880   0.386 -0.2384  0.9721 -2.3392
 2580SOL     OW19618   4.760   4.342  18.386 -0.4668 -0.0425 -0.0731
 2580SOL    HW119619   0.078   4.326  18.379 -0.3550  0.3987  0.3359
 2580SOL    HW219620   4.747   4.429  18.349 -0.8375 -0.4483 -0.8898
 2581SOL     OW19621   3.667   4.458   3.822  0.1722  0.2715 -0.1080
 2581SOL    HW119622   3.618   4.516   3.880 -0.2464  0.4731 -0.6616
 2581SOL    HW219623   3.614   4.378   3.819 -0.4023  0.6788 -1.1241
 2582SOL     OW19624   3.546   3.876  19.520 -0.5817  0.0063 -0.0395
 2582SOL    HW119625   3.529   3.786  19.495 -3.0943 -0.0376  1.8204
 2582SOL    HW219626   3.639   3.878  19.542 -0.3408 -1.9228 -0.8997
 2583SOL     OW19627   2.541   1.706  20.399  0.0826 -0.1912 -0.0732
 2583SOL    HW119628   2.524   1.642  20.330  1.5982 -0.9817  0.2907
 2583SOL    HW219629   2.561   1.653  20.476  0.0554  0.7148  0.5517
 2584SOL     OW19630   2.118   3.624   5.238 -0.7565  0.3185 -0.5281
 2584SOL    HW119631   2.025   3.629   5.259 -0.8620 -2.3711 -0.2763
 2584SOL    HW219632   2.144   3.537   5.269  1.8152  1.0579 -0.6487
 2585SOL     OW19633   4.193   2.236  19.415  0.3766 -0.2883 -0.1258
 2585SOL    HW119634   4.168   2.152  19.452  0.3659 -1.0432 -1.8765
 2585SOL    HW219635   4.114   2.290  19.422  0.1180 -0.7016  0.1371
 2586SOL     OW19636   2.566   2.522  18.367  0.2555  0.4164 -0.3140
 2586SOL    HW119637   2.480   2.514  18.326  0.5135  0.9751 -0.9787
 2586SOL    HW219638   2.623   2.465  18.315  0.1314 -0.5298  0.5807
 2587SOL     OW19639   4.261   0.674   1.303  0.5191  0.6829 -0.3703
 2587SOL    HW119640   4.177   0.637   1.276  0.4383  0.6015 -0.0112
 2587SOL    HW219641   4.325   0.628   1.249  0.3980  0.1847 -0.0893
 2588SOL     OW19642   2.286   4.207   7.229  1.0082 -0.4638 -0.2699
 2588SOL    HW119643   2.276   4.272   7.159  0.4470 -0.7648 -0.4690
 2588SOL    HW219644   2.358   4.151   7.199 -0.2937 -1.5617 -1.3558
 2589SOL     OW19645   1.530   2.847   5.368 -0.1874  0.2363 -0.0920
 2589SOL    HW119646   1.624   2.835   5.354 -0.3833 -0.7785 -0.5160
 2589SOL    HW219647   1.524   2.929   5.417  1.0477 -0.9055  1.9805
 2590SOL     OW19648   2.653   3.993  19.517 -0.1642  0.3114 -0.0807
 2590SOL    HW119649   2.593   4.060  19.487  1.6749  1.8542 -0.3394
 2590SOL    HW219650   2.601   3.913  19.521 -3.2175  2.5556  3.7688
 2591SOL     OW19651   1.021   1.619  16.068  0.0875 -0.3808  0.1644
 2591SOL    HW119652   1.011   1.541  16.014 -0.4207 -0.3041  0.1504
 2591SOL    HW219653   1.012   1.692  16.006  0.4415 -0.3118  0.1961
 2592SOL     OW19654   1.343   3.313   9.677  0.3281  0.0936  0.3241
 2592SOL    HW119655   1.334   3.275   9.764  1.5439 -0.9169  0.0078
 2592SOL    HW219656   1.283   3.388   9.677 -0.3575 -0.4610  1.7083
 2593SOL     OW19657   0.972   1.165  17.662  0.4083 -0.1155  0.4485
 2593SOL    HW119658   0.952   1.096  17.726  1.0436 -0.8170 -0.1013
 2593SOL    HW219659   1.023   1.229  17.712  0.9422 -0.6843  0.6399
 2594SOL     OW19660   3.659   4.469   1.589  0.5180 -0.4522 -0.3673
 2594SOL    HW119661   3.579   4.499   1.633  0.5718 -0.8455 -0.0093
 2594SOL    HW219662   3.730   4.513   1.635  0.3361  1.8186 -2.2699
 2595SOL     OW19663   0.111   2.213   0.876 -0.1399 -0.1819 -0.2746
 2595SOL    HW119664   0.159   2.290   0.845  0.7560 -0.6656 -0.0717
 2595SOL    HW219665   0.109   2.222   0.971 -0.6000 -0.0779 -0.2911
 2596SOL     OW19666   1.911   2.281  13.389 -0.2417  0.7458 -0.2189
 2596SOL    HW119667   1.917   2.321  13.302 -0.5158 -0.0414 -0.6011
 2596SOL    HW219668   1.823   2.302  13.420 -0.9018 -0.8280 -1.0375
 2597SOL     OW19669   3.850   2.688  20.869 -0.1139  0.3302  0.0182
 2597SOL    HW119670   3.911   2.758  20.891  0.2297  0.5823 -1.7613
 2597SOL    HW219671   3.884   2.650  20.788 -0.5958 -1.5554  0.6937
 2598SOL     OW19672   0.869   2.577  18.513 -0.1971  0.3237  0.2507
 2598SOL    HW119673   0.810   2.502  18.512  0.2603 -0.0568  1.6030
 2598SOL    HW219674   0.882   2.599  18.420  0.9337 -2.2564 -0.1964
 2599SOL     OW19675   3.155   1.231  15.492  0.4140  0.1713  0.6847
 2599SOL    HW119676   3.129   1.186  15.411  2.0650 -1.8115  1.2400
 2599SOL    HW219677   3.164   1.323  15.467 -0.7540 -0.1609 -0.9886
 2600SOL     OW19678   2.882   3.473  17.106 -0.0255 -0.7077  0.6469
 2600SOL    HW119679   2.823   3.466  17.181  0.5586  0.9798  1.2794
 2600SOL    HW219680   2.951   3.410  17.123 -0.3328 -0.9110  1.1300
 2601SOL     OW19681   0.736   2.092  17.788 -0.7870  0.0601  0.6833
 2601SOL    HW119682   0.708   2.037  17.862 -0.1201  0.5518  1.3009
 2601SOL    HW219683   0.761   2.175  17.828 -1.2168  0.6083 -0.1938
 2602SOL     OW19684   2.007   0.439   5.670  0.2431  0.9608 -0.4514
 2602SOL    HW119685   2.027   0.383   5.745 -1.8267  0.8173  0.0048
 2602SOL    HW219686   2.034   0.387   5.594  2.9582  1.3835  0.2172
 2603SOL     OW19687   0.443   1.129   6.791  0.6961  0.0270  0.3238
 2603SOL    HW119688   0.530   1.110   6.827  1.0787 -1.3810 -1.3932
 2603SOL    HW219689   0.386   1.063   6.831  0.9531 -0.9525 -0.9426
 2604SOL     OW19690   3.865   2.507   7.912  0.0110 -0.1357  0.1434
 2604SOL    HW119691   3.924   2.446   7.869  0.0580 -0.7805  1.1177
 2604SOL    HW219692   3.922   2.558   7.971  0.0712  1.2490 -1.0940
 2605SOL     OW19693   2.758   2.137  10.078  0.1461 -0.3293  0.3690
 2605SOL    HW119694   2.777   2.053  10.120 -0.2021  0.0243  1.2160
 2605SOL    HW219695   2.667   2.130  10.051  0.8003 -1.1318 -1.6507
 2606SOL     OW19696   0.132   3.654  17.226  0.7045 -0.1394  0.5652
 2606SOL    HW119697   0.167   3.575  17.185  0.5872 -0.1288  0.4479
 2606SOL    HW219698   0.173   3.656  17.313  1.4044  0.1538  0.2310
 2607SOL     OW19699   2.464   2.602  12.774  0.2540  0.8574 -0.6082
 2607SOL    HW119700   2.463   2.507  12.766  0.2441  0.8222 -0.1937
 2607SOL    HW219701   2.542   2.630  12.726  0.8830  0.5554  0.2502
 2608SOL     OW19702   1.086   3.945   2.708 -0.7058  0.3103  0.0988
 2608SOL    HW119703   1.174   3.982   2.713 -0.4532 -0.3775  0.6883
 2608SOL    HW219704   1.032   4.017   2.676  0.1880  0.5500 -0.8995
 2609SOL     OW19705   1.683   3.804   2.964 -0.6428  0.0980 -0.1855
 2609SOL    HW119706   1.772   3.791   2.998 -0.9711  3.4313  2.0135
 2609SOL    HW219707   1.633   3.731   3.000  1.0920 -1.4753 -0.9580
 2610SOL     OW19708   0.166   0.842   3.990 -0.2422 -0.3457  0.4265
 2610SOL    HW119709   0.221   0.905   3.943 -0.3272 -0.7262 -0.1922
 2610SOL    HW219710   0.078   0.877   3.983 -0.0986  0.1772  1.2717
 2611SOL     OW19711   2.860   2.003  13.561  0.5398 -0.7127  0.2329
 2611SOL    HW119712   2.886   1.913  13.580  1.8662 -0.3156  0.3397
 2611SOL    HW219713   2.883   2.016  13.469  1.5169 -0.0949  0.5527
 2612SOL     OW19714   1.246   0.744  16.855 -0.3353 -0.1731 -0.1442
 2612SOL    HW119715   1.318   0.749  16.793 -0.1973 -4.3541 -0.2913
 2612SOL    HW219716   1.177   0.798  16.816  1.6748  1.5154 -1.3580
 2613SOL     OW19717   3.464   1.045  20.386 -0.4498  0.3812  0.2583
 2613SOL    HW119718   3.432   1.126  20.347 -1.8982  1.0354  2.7973
 2613SOL    HW219719   3.537   1.071  20.441 -0.9587 -0.0283  1.1286
 2614SOL     OW19720   3.709   3.128  20.148 -0.0352 -0.1101 -0.4976
 2614SOL    HW119721   3.761   3.209  20.143 -0.3430  0.2084  1.3726
 2614SOL    HW219722   3.663   3.125  20.064  0.2983  1.4412 -0.7524
 2615SOL     OW19723   3.456   2.041   8.485 -0.2801  0.0404  0.3594
 2615SOL    HW119724   3.470   2.131   8.513 -0.7605  0.2408 -0.0481
 2615SOL    HW219725   3.432   1.994   8.566 -0.3482  0.3450  0.5143
 2616SOL     OW19726   1.092   0.006  18.557  0.1785  0.2875  0.4566
 2616SOL    HW119727   1.145   4.763  18.634  1.9483 -0.8691 -1.0415
 2616SOL    HW219728   1.084   4.698  18.512 -2.0910  0.6620  0.1568
 2617SOL     OW19729   2.236   0.248  20.218  0.4758 -0.5227 -0.4090
 2617SOL    HW119730   2.259   0.323  20.163 -0.1157  0.1154  0.2164
 2617SOL    HW219731   2.140   0.244  20.214  0.4681 -0.8295  0.1108
 2618SOL     OW19732   0.605   2.356  16.373 -0.2250  0.1018 -0.1580
 2618SOL    HW119733   0.663   2.427  16.345 -1.7900  1.4901  0.1044
 2618SOL    HW219734   0.562   2.327  16.293 -1.7514  1.4059  0.1903
 2619SOL     OW19735   4.493   2.484   0.131  0.3262 -0.2470  0.2569
 2619SOL    HW119736   4.469   2.397   0.099 -0.7219 -0.1317  0.7397
 2619SOL    HW219737   4.424   2.507   0.193  0.6056  0.9276  0.1307
 2620SOL     OW19738   1.601   0.929   5.528 -0.0843 -0.0862  0.4958
 2620SOL    HW119739   1.646   1.002   5.484 -0.4913  0.2234  0.5917
 2620SOL    HW219740   1.604   0.953   5.621  0.0447 -0.3395  0.5564
 2621SOL     OW19741   4.159   4.295   0.065 -0.0558 -0.5028  0.0534
 2621SOL    HW119742   4.223   4.228   0.043 -1.1019 -1.7270  0.7619
 2621SOL    HW219743   4.184   4.370   0.011  2.0238 -0.9443  0.4012
 2622SOL     OW19744   0.342   3.426  12.094  0.1272  0.3900 -0.1715
 2622SOL    HW119745   0.385   3.423  12.008  0.3220  1.4162 -0.1039
 2622SOL    HW219746   0.410   3.457  12.154  0.4226 -1.7733  0.6110
 2623SOL     OW19747   1.986   0.115  20.218  0.2074 -0.4869 -0.1457
 2623SOL    HW119748   1.924   0.148  20.284 -1.0418 -0.4750 -1.3360
 2623SOL    HW219749   2.028   0.040  20.261  0.2901  0.2757  1.1312
 2624SOL     OW19750   0.220   2.054  11.231 -0.0448  0.0756 -0.0885
 2624SOL    HW119751   0.242   2.007  11.151  0.1445  0.7566 -0.4360
 2624SOL    HW219752   0.260   2.140  11.220 -1.2532  0.6570  0.1121
 2625SOL     OW19753   0.941   2.372  20.821 -0.1598  0.0988 -0.2010
 2625SOL    HW119754   1.023   2.357  20.870  0.9809  2.7322 -1.3023
 2625SOL    HW219755   0.961   2.344  20.732 -0.1819  1.6586 -0.6866
 2626SOL     OW19756   3.543   0.143  16.311  0.2491 -0.3787 -0.4227
 2626SOL    HW119757   3.536   0.048  16.308  0.1779 -0.3963  0.3889
 2626SOL    HW219758   3.636   0.161  16.301 -0.0789 -0.4270 -3.6024
 2627SOL     OW19759   2.617   3.015  16.394  0.1728 -0.0565  0.7020
 2627SOL    HW119760   2.681   3.065  16.343  0.4767 -0.0526  1.0923
 2627SOL    HW219761   2.544   3.075  16.406  0.3742  0.1606  0.8332
 2628SOL     OW19762   1.187   4.408  16.032  0.2789  0.2448 -0.2097
 2628SOL    HW119763   1.182   4.503  16.040  0.3766  0.2307  0.0413
 2628SOL    HW219764   1.266   4.384  16.082  0.7396  0.1170 -1.0069
 2629SOL     OW19765   0.780   2.893   3.647 -0.3037  0.0004  0.2037
 2629SOL    HW119766   0.836   2.818   3.625  1.2912  1.0421  0.6635
 2629SOL    HW219767   0.703   2.855   3.689 -0.1782 -1.4897 -0.9292
 2630SOL     OW19768   0.094   2.684  20.894  0.3132  0.3544  0.0803
 2630SOL    HW119769   0.013   2.643  20.865  0.4510  1.7188 -2.2371
 2630SOL    HW219770   0.161   2.616  20.886 -0.5526 -0.6720  1.6962
 2631SOL     OW19771   1.591   2.415   0.632 -0.1496 -0.1242 -0.0987
 2631SOL    HW119772   1.644   2.337   0.648 -0.2338  0.0824  1.1586
 2631SOL    HW219773   1.501   2.382   0.628 -0.1485 -0.1435  0.0431
 2632SOL     OW19774   4.656   2.821  19.627 -0.3503 -0.0194 -0.4236
 2632SOL    HW119775   4.584   2.877  19.598 -1.2189 -0.8522  0.1641
 2632SOL    HW219776   4.625   2.732  19.613 -0.0448 -0.3983  1.3234
 2633SOL     OW19777   3.436   1.827   2.699 -0.5361  0.3603 -0.4159
 2633SOL    HW119778   3.485   1.760   2.747  2.0297  1.3382 -1.6651
 2633SOL    HW219779   3.424   1.897   2.763  0.4794  0.5003 -0.3694
 2634SOL     OW19780   2.723   4.019  11.400 -0.3894  0.3068 -0.8037
 2634SOL    HW119781   2.694   4.083  11.465  0.1283  0.8112 -1.0687
 2634SOL    HW219782   2.799   3.978  11.438  0.5403  1.3398 -1.5299
 2635SOL     OW19783   0.257   4.078  13.179  0.1155  0.4067  0.2637
 2635SOL    HW119784   0.301   4.065  13.095 -2.1526  2.3162 -1.2319
 2635SOL    HW219785   0.176   4.027  13.172  0.2752 -0.0244  1.5560
 2636SOL     OW19786   3.743   1.331  16.238 -0.8960 -0.3415 -0.1981
 2636SOL    HW119787   3.661   1.314  16.191 -0.9741  0.4262 -0.3295
 2636SOL    HW219788   3.716   1.342  16.329 -1.0858  1.2953 -0.4604
 2637SOL     OW19789   0.136   2.138  10.517  0.2130  0.0521 -0.0318
 2637SOL    HW119790   0.093   2.223  10.525  0.4201  0.2984 -1.5633
 2637SOL    HW219791   0.201   2.150  10.448  0.9240 -1.0729  0.4319
 2638SOL     OW19792   3.091   1.498  18.227 -0.3705 -0.3704 -0.4483
 2638SOL    HW119793   3.171   1.451  18.201  0.5930  2.3070 -2.2798
 2638SOL    HW219794   3.122   1.572  18.278 -1.7734 -0.2746  0.2493
 2639SOL     OW19795   1.626   0.056  20.842  0.3102 -0.2542 -0.1832
 2639SOL    HW119796   1.613   0.051  20.937 -0.0141  0.6605 -0.1692
 2639SOL    HW219797   1.538   0.041  20.806  0.4828 -0.8629 -0.3470
 2640SOL     OW19798   2.970   0.192  20.745 -0.2263  0.0225 -0.0875
 2640SOL    HW119799   2.908   0.244  20.694 -0.1842  0.0336 -0.1275
 2640SOL    HW219800   3.023   0.256  20.791  2.4883  0.1000 -3.2861
 2641SOL     OW19801   3.877   1.699   0.793 -0.3516  0.0575 -0.1951
 2641SOL    HW119802   3.895   1.731   0.881 -1.3292 -0.8664  0.3429
 2641SOL    HW219803   3.783   1.716   0.779 -0.5537 -1.2306 -0.4484
 2642SOL     OW19804   0.344   1.147   0.077  0.0657 -0.5921 -0.0280
 2642SOL    HW119805   0.324   1.238   0.097 -0.8330 -0.5435 -1.1623
 2642SOL    HW219806   0.439   1.145   0.068 -0.0592  0.5482 -1.5847
 2643SOL     OW19807   2.622   2.022  15.582  0.4991  0.1075  0.3291
 2643SOL    HW119808   2.578   2.090  15.532  1.0852  1.5968  1.8393
 2643SOL    HW219809   2.615   2.051  15.673  0.4210 -2.0292  1.0002
 2644SOL     OW19810   3.338   3.380  20.975  0.3018 -0.1283  0.7743
 2644SOL    HW119811   3.325   3.466  20.935 -0.0690 -0.9388 -0.8872
 2644SOL    HW219812   3.268   3.326  20.938  0.5308 -1.1352  1.8108
 2645SOL     OW19813   3.736   3.913  18.589 -0.1769  0.0499  0.2313
 2645SOL    HW119814   3.699   3.962  18.516 -2.1155 -0.5636  0.8101
 2645SOL    HW219815   3.678   3.931  18.663  0.9810 -0.4508  1.2625
 2646SOL     OW19816   2.752   2.448   1.726 -0.5240  0.4024  0.2660
 2646SOL    HW119817   2.739   2.487   1.639 -1.7723 -0.2276  0.1575
 2646SOL    HW219818   2.758   2.354   1.709  0.3947  0.3740  0.7448
 2647SOL     OW19819   4.410   0.739  10.547 -0.4003 -0.0511  0.0497
 2647SOL    HW119820   4.428   0.756  10.639 -1.0529 -0.7597  0.3171
 2647SOL    HW219821   4.482   0.683  10.518 -0.3776 -0.1109  0.2229
 2648SOL     OW19822   0.431   2.189  18.425  0.1853  0.2211  0.4597
 2648SOL    HW119823   0.455   2.109  18.472 -1.0966 -0.1911  0.4215
 2648SOL    HW219824   0.372   2.234  18.486  1.9806  1.7830  1.0388
 2649SOL     OW19825   2.852   3.595   2.786  0.4015 -0.3576 -0.4013
 2649SOL    HW119826   2.899   3.677   2.778 -2.6296  1.3167 -0.8472
 2649SOL    HW219827   2.824   3.592   2.878 -0.7475 -0.2154 -0.7463
 2650SOL     OW19828   3.623   0.870   2.745  0.0182  0.3754 -0.3797
 2650SOL    HW119829   3.578   0.879   2.661 -0.9734  0.9632  0.2110
 2650SOL    HW219830   3.646   0.960   2.770 -1.6853  0.4192  1.0562
 2651SOL     OW19831   2.055   2.479  19.559 -0.3754 -0.1250 -0.3282
 2651SOL    HW119832   2.142   2.448  19.535 -0.8964 -1.6181 -0.2824
 2651SOL    HW219833   2.007   2.485  19.476 -0.6262 -0.5189 -0.2123
 2652SOL     OW19834   1.004   4.031   3.114  0.1730  0.6732  0.2320
 2652SOL    HW119835   1.085   4.054   3.160  0.1414  0.7311  0.2574
 2652SOL    HW219836   0.999   4.093   3.041  0.5310  0.2079 -0.1974
 2653SOL     OW19837   3.615   3.227  16.157  0.2638  0.2505  0.0451
 2653SOL    HW119838   3.680   3.160  16.175  0.9482  0.7627 -0.5055
 2653SOL    HW219839   3.571   3.197  16.078  1.5264  1.1545 -1.0052
 2654SOL     OW19840   0.187   2.139  20.288 -0.2719 -0.1053  0.1300
 2654SOL    HW119841   0.239   2.066  20.254  1.2375  1.0874 -0.1262
 2654SOL    HW219842   0.157   2.186  20.210 -1.0232 -0.2964  0.3020
 2655SOL     OW19843   3.667   1.416  20.905  0.0310 -0.5516  0.4683
 2655SOL    HW119844   3.712   1.335  20.928 -2.5779 -2.6207 -1.7466
 2655SOL    HW219845   3.625   1.444  20.986  0.9970 -1.3603  1.2474
 2656SOL     OW19846   4.608   4.553   4.497  0.0064  0.3471  0.0021
 2656SOL    HW119847   4.513   4.546   4.486  0.0809 -0.0027 -0.4456
 2656SOL    HW219848   4.621   4.631   4.550 -0.5455  0.2840  0.2281
 2657SOL     OW19849   2.163   4.542   5.794 -0.4166  0.1696 -0.1003
 2657SOL    HW119850   2.135   4.489   5.719  1.5939 -3.9829  2.0544
 2657SOL    HW219851   2.083   4.556   5.845 -0.7987 -1.6110 -0.1946
 2658SOL     OW19852   2.834   2.715  18.921  0.1441 -0.0601 -0.1326
 2658SOL    HW119853   2.926   2.691  18.912 -0.1548 -0.8569 -1.0812
 2658SOL    HW219854   2.816   2.709  19.014  0.5133 -1.9212 -0.1830
 2659SOL     OW19855   1.249   1.635   3.622 -0.7381 -0.1158  0.1889
 2659SOL    HW119856   1.291   1.577   3.685 -1.0955  0.3418  0.8526
 2659SOL    HW219857   1.233   1.580   3.545  0.3229 -0.4967  0.2389
 2660SOL     OW19858   2.140   0.635  19.521 -0.3406  0.6533  0.9063
 2660SOL    HW119859   2.116   0.591  19.439  1.5015  0.0661  0.6890
 2660SOL    HW219860   2.176   0.565  19.576 -0.4725  1.2688  1.7788
 2661SOL     OW19861   1.875   3.949  18.513  0.7608  0.2229 -0.1368
 2661SOL    HW119862   1.901   4.041  18.515  0.3724  0.2975  1.5175
 2661SOL    HW219863   1.786   3.949  18.549  0.9199 -0.8494  0.2491
 2662SOL     OW19864   1.356   1.611   3.988 -0.5778 -0.2975  0.9029
 2662SOL    HW119865   1.309   1.690   3.962 -2.9618 -1.0907  2.6685
 2662SOL    HW219866   1.355   1.555   3.910 -1.3750  0.2655  0.5094
 2663SOL     OW19867   4.569   2.576  16.960 -0.5160 -0.2715 -0.2482
 2663SOL    HW119868   4.602   2.497  16.915 -1.4088 -0.8336  0.0912
 2663SOL    HW219869   4.579   2.556  17.053  0.0020  0.3357 -0.1719
 2664SOL     OW19870   1.517   1.056   4.992  0.8211  0.2708  0.6391
 2664SOL    HW119871   1.436   1.054   5.043  1.0469  0.1854  0.9956
 2664SOL    HW219872   1.586   1.064   5.058  1.2330 -1.8604  0.4654
 2665SOL     OW19873   3.345   4.541  14.833 -0.3263  0.1068 -0.0009
 2665SOL    HW119874   3.350   4.551  14.738  0.0499  0.0031  0.0063
 2665SOL    HW219875   3.435   4.552  14.863 -0.6326  1.3449  0.4699
 2666SOL     OW19876   2.363   0.013  15.653  0.0773  0.2707 -0.1826
 2666SOL    HW119877   2.406   0.098  15.644 -0.9908  0.8443  0.1603
 2666SOL    HW219878   2.289   0.017  15.592 -1.1122  0.3020  1.2699
 2667SOL     OW19879   3.747   2.048   3.769  0.0867  0.2007  0.1821
 2667SOL    HW119880   3.786   2.077   3.687  2.5566  1.6726  1.8750
 2667SOL    HW219881   3.677   2.112   3.786  0.1312  0.3882 -0.3415
 2668SOL     OW19882   2.825   0.495  17.348  0.4241  0.7033 -0.1675
 2668SOL    HW119883   2.790   0.481  17.436  1.8069  0.0812  0.2757
 2668SOL    HW219884   2.848   0.587  17.346 -2.7768  1.5064 -1.0024
 2669SOL     OW19885   2.905   2.373  20.554 -0.3790 -0.3466  0.1152
 2669SOL    HW119886   2.977   2.336  20.504 -0.0194 -0.0016  0.3716
 2669SOL    HW219887   2.919   2.341  20.644 -0.7689 -0.6027  0.0859
 2670SOL     OW19888   3.197   1.075  16.800 -0.3803  0.4141  0.4427
 2670SOL    HW119889   3.277   1.110  16.839  0.5690 -0.8578 -0.3759
 2670SOL    HW219890   3.149   1.153  16.771 -0.6234  1.3119  3.2347
 2671SOL     OW19891   0.759   0.226  12.632  0.1884  0.4792 -0.4829
 2671SOL    HW119892   0.731   0.317  12.622 -0.5981  0.1451 -1.2429
 2671SOL    HW219893   0.799   0.203  12.548 -1.3332 -0.4914 -0.9376
 2672SOL     OW19894   1.577   1.241  12.460 -1.0232  0.3928  0.4101
 2672SOL    HW119895   1.529   1.324  12.454 -1.6698 -0.0788 -0.8852
 2672SOL    HW219896   1.509   1.174  12.452 -0.2705 -0.2716 -0.3490
 2673SOL     OW19897   0.886   4.764  20.652 -0.3130 -0.1821 -0.8755
 2673SOL    HW119898   0.892   0.015  20.561 -1.3811  1.8950 -0.3264
 2673SOL    HW219899   0.793   4.753  20.669 -0.1870  0.5986  0.3185
 2674SOL     OW19900   4.039   0.549  16.933  0.3633  0.3173 -0.3918
 2674SOL    HW119901   4.122   0.539  16.980  0.0740  0.5054  0.1651
 2674SOL    HW219902   4.046   0.489  16.859  1.5840  1.3803 -1.1473
 2675SOL     OW19903   3.791   2.758  12.644 -0.2222 -0.1419 -0.0198
 2675SOL    HW119904   3.879   2.754  12.605 -1.0787 -1.4547 -1.8631
 2675SOL    HW219905   3.799   2.710  12.726  1.0168  0.5523  0.2684
 2676SOL     OW19906   4.260   1.166   6.516 -0.3012  0.4853  0.4879
 2676SOL    HW119907   4.186   1.225   6.503  1.2748  2.4553  0.4345
 2676SOL    HW219908   4.292   1.187   6.604 -1.4403 -2.1975  1.5486
 2677SOL     OW19909   3.171   4.763  13.525  0.2739 -0.2827  0.2010
 2677SOL    HW119910   3.155   0.028  13.440  0.4615  0.5198  0.5580
 2677SOL    HW219911   3.122   4.681  13.521 -2.1582  1.1593  0.4504
 2678SOL     OW19912   2.946   3.650  15.069 -0.3355 -0.0834 -0.4318
 2678SOL    HW119913   2.939   3.605  15.153  0.1111  1.2956  0.3431
 2678SOL    HW219914   2.994   3.731  15.089 -0.3022  0.2814 -1.9917
 2679SOL     OW19915   4.604   0.199  17.932  0.6395  0.4067 -0.1258
 2679SOL    HW119916   4.566   0.248  18.005  0.4780 -2.0417  1.4056
 2679SOL    HW219917   4.532   0.188  17.870 -0.0888 -0.5712  0.9017
 2680SOL     OW19918   3.781   0.742   4.772 -0.7275 -0.3134 -0.7824
 2680SOL    HW119919   3.746   0.828   4.749  0.7419  0.3098 -0.6882
 2680SOL    HW219920   3.791   0.697   4.688  0.9327  0.5317 -1.0213
 2681SOL     OW19921   3.751   4.761  17.988  0.2493 -0.2709  0.1536
 2681SOL    HW119922   3.822   4.770  18.052  0.6666 -2.9112  0.0823
 2681SOL    HW219923   3.796   4.744  17.905 -0.4077 -0.2857 -0.1949
 2682SOL     OW19924   2.797   4.377   7.528 -0.1650 -0.7342 -0.2221
 2682SOL    HW119925   2.768   4.417   7.446 -0.1495  0.7609  0.4978
 2682SOL    HW219926   2.737   4.304   7.542 -0.8495 -0.3230 -1.0141
 2683SOL     OW19927   2.621   2.208  12.719 -0.0785 -0.1867  0.1610
 2683SOL    HW119928   2.588   2.268  12.786  0.4032  0.1179  0.1262
 2683SOL    HW219929   2.616   2.258  12.638  1.3547  0.1880  0.2979
 2684SOL     OW19930   0.682   2.327  20.098  0.1092  0.6251  0.0801
 2684SOL    HW119931   0.742   2.261  20.132  1.9552  1.2746 -1.8998
 2684SOL    HW219932   0.681   2.395  20.165 -1.8077 -1.3956  2.1311
 2685SOL     OW19933   2.675   0.218  18.286  0.0043 -0.1344  0.3793
 2685SOL    HW119934   2.680   0.280  18.358 -2.6178 -1.2715  1.5724
 2685SOL    HW219935   2.640   0.269  18.213  0.0091  0.3519  0.7161
 2686SOL     OW19936   2.792   3.296  19.632 -0.2382  0.3025  0.5734
 2686SOL    HW119937   2.825   3.315  19.720  1.5803 -0.1846  0.0072
 2686SOL    HW219938   2.788   3.381  19.589  1.1321  0.2704  0.3653
 2687SOL     OW19939   1.800   0.743  16.868  0.3601 -0.2597  0.2661
 2687SOL    HW119940   1.875   0.753  16.927  0.1175  1.9412  0.1823
 2687SOL    HW219941   1.766   0.656  16.888  2.0062 -0.6494  1.3946
 2688SOL     OW19942   2.398   2.316  15.947  0.1436  0.1908 -0.4535
 2688SOL    HW119943   2.342   2.249  15.985  0.6701 -0.0363 -0.0729
 2688SOL    HW219944   2.409   2.381  16.016  1.3025 -0.3429 -0.1287
 2689SOL     OW19945   3.717   1.865   5.134  0.2324  0.0850 -0.4516
 2689SOL    HW119946   3.784   1.822   5.079 -0.0164  0.7522 -1.2782
 2689SOL    HW219947   3.715   1.813   5.214  0.5661 -0.9297 -1.0998
 2690SOL     OW19948   0.456   0.317  15.196 -0.2250 -0.5720 -0.4603
 2690SOL    HW119949   0.532   0.265  15.220 -0.2626  0.6730  2.3635
 2690SOL    HW219950   0.382   0.256  15.204 -0.0414 -0.6012  1.0079
 2691SOL     OW19951   0.458   3.277  17.570 -0.9819  0.3761  0.4964
 2691SOL    HW119952   0.486   3.273  17.479 -1.1334  1.1431  0.4147
 2691SOL    HW219953   0.494   3.197  17.610  0.9012  1.0937  0.2673
 2692SOL     OW19954   3.568   0.890  12.903 -0.1533  0.0932 -0.2045
 2692SOL    HW119955   3.571   0.881  12.998 -1.6585  1.6790 -0.0091
 2692SOL    HW219956   3.481   0.857  12.879  0.7052 -1.4838 -1.1519
 2693SOL     OW19957   1.602   0.877  11.231 -0.5335  0.1954 -0.3254
 2693SOL    HW119958   1.637   0.962  11.205  2.9359 -1.3952 -0.8897
 2693SOL    HW219959   1.569   0.839  11.150  0.2469 -0.0780 -0.5164
 2694SOL     OW19960   3.749   3.059  16.339 -0.6007 -0.3332  0.7767
 2694SOL    HW119961   3.736   2.989  16.403  1.5577 -0.4939  1.0260
 2694SOL    HW219962   3.814   3.116  16.380  0.1516  0.0121 -0.9299
 2695SOL     OW19963   0.462   2.504   9.231 -0.4148 -0.0681  0.3347
 2695SOL    HW119964   0.460   2.583   9.177 -1.4144 -0.1458  0.2527
 2695SOL    HW219965   0.523   2.525   9.302 -0.2972  0.5983  0.0388
 2696SOL     OW19966   2.261   4.477   2.433  0.5141  0.0261  0.7978
 2696SOL    HW119967   2.261   4.465   2.528 -3.0692 -0.8047  0.6696
 2696SOL    HW219968   2.241   4.391   2.398  1.3203  0.4528 -0.7030
 2697SOL     OW19969   3.155   4.319  17.027 -0.0091 -0.2317 -0.3612
 2697SOL    HW119970   3.213   4.247  17.052  0.4388  0.0777 -0.4918
 2697SOL    HW219971   3.093   4.280  16.965 -0.3076 -0.6998  0.2308
 2698SOL     OW19972   1.031   2.900  15.812  0.1378  0.5763  0.6081
 2698SOL    HW119973   0.940   2.921  15.833 -0.1298 -1.0183  1.0485
 2698SOL    HW219974   1.027   2.864  15.724  0.0852 -1.4508  1.4468
 2699SOL     OW19975   0.326   1.115  13.505 -0.2694 -0.1519 -0.0687
 2699SOL    HW119976   0.413   1.122  13.544 -0.2221 -1.1227 -0.0030
 2699SOL    HW219977   0.306   1.204  13.474 -0.2129  0.5613  1.9616
 2700SOL     OW19978   1.939   2.842   1.541 -0.2444  0.1570 -0.2168
 2700SOL    HW119979   1.979   2.796   1.468 -1.9180 -2.1787  0.3243
 2700SOL    HW219980   1.903   2.922   1.503  0.2599 -0.3057 -1.6657
 2701SOL     OW19981   0.649   0.215   0.187 -0.2004  0.3939 -0.3156
 2701SOL    HW119982   0.571   0.200   0.134 -0.9650  0.5402  0.7652
 2701SOL    HW219983   0.689   0.128   0.197 -0.4146  0.2685 -0.5668
 2702SOL     OW19984   3.944   1.783   1.048  0.2832  0.3198  0.0043
 2702SOL    HW119985   4.038   1.785   1.032  0.6114  1.1647  1.9934
 2702SOL    HW219986   3.925   1.868   1.087 -1.2765  0.0832 -0.2531
 2703SOL     OW19987   0.646   1.492  12.275 -0.2051 -0.0719 -0.0375
 2703SOL    HW119988   0.640   1.442  12.356  2.3757  0.3277  0.4196
 2703SOL    HW219989   0.740   1.512  12.266 -0.4032 -0.6369 -3.4166
 2704SOL     OW19990   3.519   4.423  18.151  0.0717 -0.0642  0.3048
 2704SOL    HW119991   3.585   4.476  18.195  0.7212  0.6914 -1.5786
 2704SOL    HW219992   3.437   4.447  18.193  0.3242  2.6617 -0.7661
 2705SOL     OW19993   4.532   1.621   6.582  0.1710  0.4691  0.4586
 2705SOL    HW119994   4.496   1.568   6.653 -1.4241 -0.3056 -0.9003
 2705SOL    HW219995   4.535   1.710   6.617  0.3785 -0.0851  1.8521
 2706SOL     OW19996   3.129   4.088   3.342 -0.5704  0.0822 -0.0009
 2706SOL    HW119997   3.148   4.073   3.249  0.5042 -0.6861  0.3456
 2706SOL    HW219998   3.033   4.091   3.346 -0.6528 -1.3825 -0.9115
 2707SOL     OW19999   3.303   3.684   3.274  0.5346 -0.5484 -0.1207
 2707SOL    HW120000   3.327   3.771   3.307  1.9912 -1.1346  0.3661
 2707SOL    HW220001   3.253   3.644   3.345  1.5743 -0.8716  0.4291
 2708SOL     OW20002   3.538   1.944  15.212 -0.4231 -1.1003 -0.3014
 2708SOL    HW120003   3.497   2.010  15.156 -0.5366 -1.1517 -0.2788
 2708SOL    HW220004   3.549   1.868  15.154 -0.8913 -1.2852 -0.1527
 2709SOL     OW20005   0.524   2.731   8.638  0.0882  0.4196  0.6186
 2709SOL    HW120006   0.580   2.692   8.706  0.0245  2.0389  1.6005
 2709SOL    HW220007   0.452   2.772   8.687 -1.4760 -0.8504 -0.5847
 2710SOL     OW20008   2.647   0.859   3.344  0.0050  0.4873  0.6129
 2710SOL    HW120009   2.577   0.923   3.350 -1.0823 -0.5847 -0.7825
 2710SOL    HW220010   2.603   0.775   3.330  1.6417  0.1212 -2.4732
 2711SOL     OW20011   0.564   4.731  16.440  0.2114  0.5177 -0.8201
 2711SOL    HW120012   0.578   4.641  16.469  0.4186  0.5596 -0.7908
 2711SOL    HW220013   0.481   4.757  16.480  0.0118  0.2450 -1.0562
 2712SOL     OW20014   2.324   2.986  10.534  0.6017  0.5663  0.2085
 2712SOL    HW120015   2.346   2.938  10.614  2.8320  0.6083 -0.3715
 2712SOL    HW220016   2.406   3.027  10.507 -0.6964  2.5018 -0.7878
 2713SOL     OW20017   3.767   3.343   4.189  0.3674  0.0938  0.0328
 2713SOL    HW120018   3.729   3.342   4.101  1.0074  0.9853 -0.2528
 2713SOL    HW220019   3.704   3.392   4.242  0.6417  0.7028 -0.2160
 2714SOL     OW20020   1.321   1.180  16.176 -0.1325 -0.1332 -0.2147
 2714SOL    HW120021   1.399   1.213  16.131  0.0697 -1.0734 -0.5349
 2714SOL    HW220022   1.248   1.209  16.121 -0.0126  0.7347  0.0780
 2715SOL     OW20023   0.326   0.547  17.562 -0.0601  0.4863 -0.1246
 2715SOL    HW120024   0.383   0.504  17.626 -1.1602  1.0221  1.2221
 2715SOL    HW220025   0.303   0.630  17.603 -1.1759  0.6060 -0.9942
 2716SOL     OW20026   1.307   0.425   2.903 -0.3038 -0.0816  0.4404
 2716SOL    HW120027   1.352   0.442   2.820 -2.3375  1.8035 -0.2855
 2716SOL    HW220028   1.319   0.506   2.953 -4.8109  1.2658 -0.6397
 2717SOL     OW20029   3.946   4.726  10.926 -0.0202 -0.1493 -0.3573
 2717SOL    HW120030   3.930   0.043  10.910 -1.0696 -0.3699 -0.5918
 2717SOL    HW220031   3.859   4.689  10.941  0.3839 -1.1141 -0.3984
 2718SOL     OW20032   2.454   0.650  17.639 -0.6301  0.4201  0.1988
 2718SOL    HW120033   2.436   0.744  17.643 -1.2750  0.3474 -1.2822
 2718SOL    HW220034   2.443   0.620  17.730  1.8487  2.1983  1.1141
 2719SOL     OW20035   4.147   2.760  19.473 -0.2229  0.3918 -0.5621
 2719SOL    HW120036   4.058   2.782  19.500  0.3540  1.8019  0.1843
 2719SOL    HW220037   4.136   2.716  19.388 -1.6719 -0.0619 -0.1470
 2720SOL     OW20038   0.024   3.496   1.215 -0.2016 -0.4187 -0.1920
 2720SOL    HW120039   4.739   3.568   1.204  0.3185  0.1956  0.8606
 2720SOL    HW220040   4.747   3.424   1.250 -0.8285 -0.7255 -1.7896
 2721SOL     OW20041   4.281   3.493   0.477 -0.0284 -0.1868 -0.6472
 2721SOL    HW120042   4.355   3.439   0.447  0.9513  0.8609 -0.0944
 2721SOL    HW220043   4.322   3.563   0.528 -1.5273 -0.4602  0.9032
 2722SOL     OW20044   0.219   4.289  15.331 -0.0826  0.2782 -0.5053
 2722SOL    HW120045   0.297   4.243  15.300  0.4646  0.2050  0.9337
 2722SOL    HW220046   0.155   4.220  15.347 -0.1673  0.2626 -0.9163
 2723SOL     OW20047   1.553   3.777  13.350  0.2391  0.0501 -0.1235
 2723SOL    HW120048   1.564   3.683  13.365 -1.1448 -0.2714 -1.1222
 2723SOL    HW220049   1.638   3.806  13.315  1.1272 -0.5505  1.5316
 2724SOL     OW20050   2.996   4.731  17.793 -0.2913 -0.2939  0.3533
 2724SOL    HW120051   3.025   4.641  17.805 -0.1945 -0.3793 -0.4806
 2724SOL    HW220052   2.977   4.763  17.881  3.5076  0.1554  1.0294
 2725SOL     OW20053   2.182   4.135  14.079 -0.5820  0.0306  0.0252
 2725SOL    HW120054   2.254   4.197  14.092 -0.4672 -0.0609 -0.1913
 2725SOL    HW220055   2.105   4.182  14.112 -0.5408  0.3930 -0.3859
 2726SOL     OW20056   4.738   2.991  15.700  0.7093  0.7106 -0.0382
 2726SOL    HW120057   4.723   2.927  15.770 -1.8400 -0.3447 -1.5676
 2726SOL    HW220058   4.674   2.969  15.633  3.0373  1.8768 -2.6374
 2727SOL     OW20059   2.602   0.521   4.823 -0.4055 -0.4291 -0.4262
 2727SOL    HW120060   2.567   0.609   4.813  0.6612 -0.0151 -0.5422
 2727SOL    HW220061   2.558   0.486   4.900 -0.2328  0.4965  0.0942
 2728SOL     OW20062   1.962   4.389  21.112  0.2098 -0.1356 -0.6421
 2728SOL    HW120063   1.903   4.452  21.071 -0.3037 -0.2804 -0.1140
 2728SOL    HW220064   2.001   4.435  21.186  0.8529 -0.0003 -1.0627
 2729SOL     OW20065   2.942   0.662   1.336  0.2838 -0.3990 -0.4637
 2729SOL    HW120066   2.877   0.721   1.298  0.1305 -1.2523 -1.5351
 2729SOL    HW220067   2.941   0.585   1.279  1.1057 -1.0736  0.4226
 2730SOL     OW20068   2.387   3.003   8.350  0.2744 -0.2267  0.1402
 2730SOL    HW120069   2.308   3.020   8.400 -0.6819  1.1500 -1.8329
 2730SOL    HW220070   2.389   2.908   8.339 -0.4346 -0.3697  1.3016
 2731SOL     OW20071   0.564   2.142   4.831 -0.3031 -0.3043  0.5694
 2731SOL    HW120072   0.512   2.133   4.751 -0.8055  2.2554  0.5821
 2731SOL    HW220073   0.526   2.219   4.875  1.0099 -0.7391  2.4645
 2732SOL     OW20074   4.523   3.251  17.477 -0.1083 -0.0499 -0.1283
 2732SOL    HW120075   4.544   3.179  17.418  1.6922 -0.0774  0.5501
 2732SOL    HW220076   4.435   3.278  17.451  0.3816 -0.5521 -2.3415
 2733SOL     OW20077   2.429   1.464  20.245  0.1572 -0.0736 -0.5258
 2733SOL    HW120078   2.477   1.411  20.181 -0.3754  0.6286 -1.5032
 2733SOL    HW220079   2.339   1.463  20.214 -0.4494 -1.2874  1.2460
 2734SOL     OW20080   4.183   2.717  17.462 -0.7103 -0.2953  0.1795
 2734SOL    HW120081   4.239   2.766  17.521 -1.5611 -0.0648  0.7888
 2734SOL    HW220082   4.144   2.783  17.405 -2.5557 -0.1790  1.5841
 2735SOL     OW20083   4.270   2.848  19.980 -0.3414 -0.0192  0.4837
 2735SOL    HW120084   4.263   2.829  20.074 -2.8511 -0.1503  0.2722
 2735SOL    HW220085   4.181   2.869  19.953  0.7025  1.9223 -1.4687
 2736SOL     OW20086   1.701   0.416   2.232  0.6684 -0.2176  0.4544
 2736SOL    HW120087   1.664   0.433   2.145 -2.0655  0.3135  1.7103
 2736SOL    HW220088   1.736   0.327   2.226 -0.9641 -0.7832 -0.6949
 2737SOL     OW20089   3.156   4.775  16.899 -0.1531  0.6296 -0.4173
 2737SOL    HW120090   3.092   0.071  16.898 -0.7615  0.0738 -2.1587
 2737SOL    HW220091   3.113   4.705  16.850  0.9758 -0.4534  0.1623
 2738SOL     OW20092   4.183   3.331   3.035  0.5199 -0.0473  0.5993
 2738SOL    HW120093   4.159   3.239   3.047 -1.6304  0.6919  1.7534
 2738SOL    HW220094   4.148   3.376   3.112  0.8596  1.8836 -0.3792
 2739SOL     OW20095   4.606   2.687   4.986  0.6404  0.1176  0.0818
 2739SOL    HW120096   4.668   2.750   4.949  1.0087 -0.3316 -0.0623
 2739SOL    HW220097   4.621   2.691   5.080  0.5260  0.3906  0.0891
 2740SOL     OW20098   0.371   1.851  19.402 -0.6140  0.0802 -0.3159
 2740SOL    HW120099   0.453   1.900  19.412 -1.8560  2.3715 -1.5204
 2740SOL    HW220100   0.316   1.881  19.473  0.2633 -2.8239  1.6009
 2741SOL     OW20101   3.645   3.481   6.904  0.4254  0.3515 -0.1463
 2741SOL    HW120102   3.629   3.443   6.818 -1.4290  0.1174  0.2966
 2741SOL    HW220103   3.641   3.406   6.964  1.7154  0.5145  0.1421
 2742SOL     OW20104   1.036   4.675  16.959  0.5025 -0.2080  0.3102
 2742SOL    HW120105   1.059   4.766  16.975  1.5068 -0.3519 -0.3765
 2742SOL    HW220106   1.003   4.674  16.869 -2.5856  0.0860  1.4267
 2743SOL     OW20107   2.161   3.680   3.958  0.1637  0.5893  0.6562
 2743SOL    HW120108   2.228   3.615   3.937 -0.9165  0.2021 -1.5259
 2743SOL    HW220109   2.207   3.745   4.012  2.3860  0.5613 -1.2187
 2744SOL     OW20110   1.429   0.377  17.200  0.1213 -1.0625  0.7674
 2744SOL    HW120111   1.495   0.308  17.198  1.3772  0.1111  0.9956
 2744SOL    HW220112   1.433   0.417  17.113 -0.7480 -1.4257  0.5667
 2745SOL     OW20113   1.458   0.467  14.884 -0.0793  0.0893  0.3399
 2745SOL    HW120114   1.377   0.475  14.834 -0.8984  1.9033  1.9280
 2745SOL    HW220115   1.506   0.397  14.841 -1.6833  0.2479 -1.7310
 2746SOL     OW20116   1.556   3.415   4.989  0.4397 -0.1227  0.4868
 2746SOL    HW120117   1.596   3.355   4.926 -0.8514  1.4358 -1.8250
 2746SOL    HW220118   1.462   3.403   4.976  0.1868  1.2525  1.1408
 2747SOL     OW20119   3.143   3.286  19.539 -0.1398 -0.5405 -0.0220
 2747SOL    HW120120   3.199   3.309  19.465 -2.5770  0.9464 -1.4341
 2747SOL    HW220121   3.153   3.358  19.601 -0.5538 -0.2265 -0.3185
 2748SOL     OW20122   0.971   0.331  11.714  0.1111 -0.1523  0.0677
 2748SOL    HW120123   0.905   0.368  11.656  1.4016  0.1414 -1.2165
 2748SOL    HW220124   0.928   0.256  11.755 -1.5888  1.1151  0.5878
 2749SOL     OW20125   3.256   4.325   3.783 -0.3540 -0.1972  0.0177
 2749SOL    HW120126   3.165   4.296   3.775 -0.0580 -1.4319  1.1173
 2749SOL    HW220127   3.281   4.350   3.694 -1.5225 -0.5838 -0.4205
 2750SOL     OW20128   1.495   3.181  18.808  0.3042 -0.3718 -0.3754
 2750SOL    HW120129   1.522   3.123  18.879  0.1176 -0.0784 -0.0698
 2750SOL    HW220130   1.567   3.175  18.745  2.1866  2.2313  1.5224
 2751SOL     OW20131   4.309   0.638  18.322 -0.0938 -0.0469  0.0208
 2751SOL    HW120132   4.218   0.666  18.328  0.4083  2.0922 -2.3646
 2751SOL    HW220133   4.315   0.595  18.236  1.6236  1.4940 -0.6111
 2752SOL     OW20134   2.009   1.610  16.411  0.1322  0.5701 -0.0169
 2752SOL    HW120135   1.966   1.555  16.344 -1.1967  0.6492  0.7810
 2752SOL    HW220136   2.095   1.630  16.373  0.4273 -1.6521 -0.5425
 2753SOL     OW20137   4.323   2.445  20.081  0.0222  0.2034 -0.3376
 2753SOL    HW120138   4.397   2.447  20.019 -0.1057  0.8148 -0.4671
 2753SOL    HW220139   4.355   2.494  20.157  0.2814 -0.7923  0.1930
 2754SOL     OW20140   2.654   2.514   0.038 -0.1908 -0.2591  0.2859
 2754SOL    HW120141   2.659   2.534  21.141  1.0767 -1.7900  0.0294
 2754SOL    HW220142   2.568   2.471   0.048 -0.2048 -0.3500 -0.2223
 2755SOL     OW20143   4.666   0.471  10.978 -0.0636  0.2837 -0.1717
 2755SOL    HW120144   4.583   0.482  10.931  0.1682 -1.0508 -0.8895
 2755SOL    HW220145   4.653   0.518  11.060 -0.9729  1.4243 -0.9592
 2756SOL     OW20146   3.589   3.143   1.710  0.2289  0.1860 -0.1856
 2756SOL    HW120147   3.573   3.184   1.796  1.0655  0.2404 -0.0530
 2756SOL    HW220148   3.503   3.142   1.668 -0.1888  0.1487  0.6621
 2757SOL     OW20149   2.992   1.960  13.303 -0.4059 -0.0433  0.5762
 2757SOL    HW120150   2.940   1.912  13.239  1.7493 -0.4369 -0.8775
 2757SOL    HW220151   2.989   2.051  13.274  1.0915 -0.3144 -0.4522
 2758SOL     OW20152   4.730   0.774   3.572 -0.3039  0.4706  0.5352
 2758SOL    HW120153   4.726   0.816   3.487 -2.1387  0.5855  0.6788
 2758SOL    HW220154   0.047   0.768   3.592  0.1157  0.4589 -1.4688
 2759SOL     OW20155   1.732   4.026   2.549 -0.1453  0.0346 -0.0949
 2759SOL    HW120156   1.732   4.111   2.592  2.6474 -0.4005  0.7257
 2759SOL    HW220157   1.656   3.981   2.586 -0.5023  1.4283  0.8733
 2760SOL     OW20158   1.161   4.129   9.744  0.1741  0.9278  0.9822
 2760SOL    HW120159   1.069   4.126   9.769 -0.2078  0.8746 -0.4637
 2760SOL    HW220160   1.164   4.191   9.671  1.3114  1.0682  1.1496
 2761SOL     OW20161   0.959   1.980  21.190  0.4471 -0.5629 -0.4904
 2761SOL    HW120162   0.929   1.946  21.106  1.2099 -1.0052 -0.5821
 2761SOL    HW220163   0.989   2.069  21.171  1.2327 -0.9000 -0.8021
 2762SOL     OW20164   3.760   3.898  19.263 -0.3203 -0.1510 -0.0880
 2762SOL    HW120165   3.716   3.982  19.254 -1.6208 -0.8687 -0.4947
 2762SOL    HW220166   3.805   3.902  19.347  3.1778  2.5906 -2.0737
 2763SOL     OW20167   3.781   0.951   1.814  0.5438 -0.0950  0.5408
 2763SOL    HW120168   3.838   0.891   1.766 -0.1746 -1.8544  1.8724
 2763SOL    HW220169   3.838   1.022   1.842  1.2681  0.1498 -1.5827
 2764SOL     OW20170   0.797   3.320   0.995  0.2983  0.1050 -0.2033
 2764SOL    HW120171   0.738   3.369   0.937  1.2040 -0.2281 -1.4102
 2764SOL    HW220172   0.739   3.260   1.042 -0.3711  0.0504 -1.0984
 2765SOL     OW20173   2.322   2.131   0.082  0.0650  0.4880  0.7816
 2765SOL    HW120174   2.303   2.067   0.151 -1.7511 -0.8008 -0.9296
 2765SOL    HW220175   2.269   2.208   0.105  0.0323  0.3296  1.2317
 2766SOL     OW20176   1.228   3.185   1.417  0.1219 -0.5417  0.0825
 2766SOL    HW120177   1.244   3.165   1.325 -1.8709 -0.5802 -0.2531
 2766SOL    HW220178   1.233   3.280   1.422 -4.5997 -0.2275 -0.9707
 2767SOL     OW20179   2.599   0.244  17.480 -0.5612 -0.1835 -0.1340
 2767SOL    HW120180   2.644   0.218  17.399 -2.4407 -1.0854 -0.8676
 2767SOL    HW220181   2.638   0.328  17.502 -1.3383  0.9254 -2.9721
 2768SOL     OW20182   2.691   0.729  19.135 -0.5232 -0.0725 -0.6925
 2768SOL    HW120183   2.602   0.719  19.102 -0.7769  2.7207 -0.8859
 2768SOL    HW220184   2.680   0.755  19.226  0.0986 -1.3318 -0.2674
 2769SOL     OW20185   0.326   0.891   6.482 -0.2866 -0.4222 -0.0266
 2769SOL    HW120186   0.321   0.979   6.519  0.3446 -0.8473  1.0565
 2769SOL    HW220187   0.420   0.875   6.472 -0.3807 -1.2778  0.4758
 2770SOL     OW20188   0.497   1.195   2.966 -0.1171 -0.3128  0.2942
 2770SOL    HW120189   0.446   1.273   2.943  0.1613 -0.4058 -0.6021
 2770SOL    HW220190   0.533   1.215   3.053 -1.1851 -0.0050  0.6732
 2771SOL     OW20191   4.562   2.236  17.141 -0.3707  0.1747  0.0661
 2771SOL    HW120192   4.535   2.183  17.215  0.0626  1.5876  1.2475
 2771SOL    HW220193   4.546   2.326  17.169  1.6889  0.8235 -0.7820
 2772SOL     OW20194   1.013   2.428  15.668 -0.1716 -0.0771 -0.2152
 2772SOL    HW120195   0.985   2.510  15.709  0.6746  0.6291 -1.0531
 2772SOL    HW220196   1.045   2.374  15.740 -0.4541  0.4425  0.2945
 2773SOL     OW20197   3.431   2.957  17.392  0.0451 -0.0708  0.6032
 2773SOL    HW120198   3.432   2.911  17.476 -1.8804 -1.3421 -0.0844
 2773SOL    HW220199   3.497   3.026  17.402  0.5360 -0.8603  2.8014
 2774SOL     OW20200   1.043   3.249  19.741 -0.6938  0.2690 -0.0825
 2774SOL    HW120201   0.960   3.243  19.787 -0.2741  3.0004  0.9954
 2774SOL    HW220202   1.037   3.329  19.689 -0.5962 -1.9963 -3.6585
 2775SOL     OW20203   3.760   1.021   1.337 -0.0764 -0.2599 -0.0300
 2775SOL    HW120204   3.836   0.962   1.333  0.0992 -0.0537  0.2849
 2775SOL    HW220205   3.725   1.022   1.248 -1.0917 -2.1929  0.3335
 2776SOL     OW20206   2.345   0.231   3.973 -0.4137  0.1219 -0.0258
 2776SOL    HW120207   2.401   0.159   4.004  0.2911  0.7863  0.2263
 2776SOL    HW220208   2.398   0.276   3.908 -0.2785  1.3669  0.9458
 2777SOL     OW20209   2.552   3.438   2.825  0.1820 -0.5098 -0.1072
 2777SOL    HW120210   2.580   3.392   2.746 -0.3816 -0.1586 -0.5124
 2777SOL    HW220211   2.624   3.426   2.887  0.2681 -1.4819 -0.3900
 2778SOL     OW20212   1.645   2.184   4.295  0.0692 -0.0126  0.3345
 2778SOL    HW120213   1.719   2.151   4.346  1.0682  1.2136 -0.3250
 2778SOL    HW220214   1.575   2.121   4.311  0.3804  0.3466  3.1996
 2779SOL     OW20215   4.084   4.013   9.302  0.0924  0.4298 -0.7240
 2779SOL    HW120216   4.018   3.976   9.243  0.4508  2.6387 -2.4790
 2779SOL    HW220217   4.163   3.963   9.283 -0.0042  0.5862 -1.5343
 2780SOL     OW20218   0.940   2.895  17.648 -0.0986  0.3626 -0.5957
 2780SOL    HW120219   0.926   2.958  17.719  0.7011  0.0390 -0.1500
 2780SOL    HW220220   0.855   2.852  17.637  0.0971 -0.4246  0.9748
 2781SOL     OW20221   0.929   2.966  17.004  0.0781  0.6047  0.4938
 2781SOL    HW120222   0.837   2.966  17.030 -0.3169  0.0448 -0.8934
 2781SOL    HW220223   0.969   2.900  17.059 -0.6881 -0.3433 -0.0869
 2782SOL     OW20224   1.039   4.738  19.269 -0.1057  0.2707 -0.1348
 2782SOL    HW120225   1.083   4.656  19.245  0.5408  0.1692  1.4266
 2782SOL    HW220226   0.983   4.714  19.343  1.1228  1.5340  1.2190
 2783SOL     OW20227   2.803   1.496  20.395 -0.4630  0.3281  0.5203
 2783SOL    HW120228   2.802   1.549  20.316 -4.4415 -0.4516  0.0440
 2783SOL    HW220229   2.816   1.406  20.364  0.1690  0.2882  0.8981
 2784SOL     OW20230   4.484   4.151   5.496 -0.2157  0.1244 -0.3676
 2784SOL    HW120231   4.560   4.164   5.439 -0.7233 -0.0861 -1.0907
 2784SOL    HW220232   4.474   4.056   5.501 -1.3077  0.1852 -1.4290
 2785SOL     OW20233   3.909   0.469  18.666 -0.4868 -0.1830  0.2714
 2785SOL    HW120234   3.846   0.540  18.654 -0.4126  0.4206  3.3573
 2785SOL    HW220235   3.856   0.392  18.682 -0.5042  0.0068  1.1709
 2786SOL     OW20236   0.925   2.906  19.581 -1.0220 -0.3020  0.2213
 2786SOL    HW120237   0.836   2.932  19.557 -0.9248 -0.4296 -0.2881
 2786SOL    HW220238   0.928   2.913  19.676 -2.2353 -2.3969  0.4233
 2787SOL     OW20239   4.530   1.590   3.747 -0.2168  0.5892 -0.0887
 2787SOL    HW120240   4.508   1.508   3.702  0.1487  0.1922  0.4662
 2787SOL    HW220241   4.483   1.657   3.697 -0.3728  0.0662 -0.6513
 2788SOL     OW20242   3.212   0.377   1.039  0.4120  0.5118 -0.3539
 2788SOL    HW120243   3.270   0.305   1.065 -2.4990 -1.0207  1.9447
 2788SOL    HW220244   3.176   0.349   0.954 -2.2921 -1.6584  1.5181
 2789SOL     OW20245   0.814   4.664   1.756 -0.2024 -0.0445  0.8324
 2789SOL    HW120246   0.873   4.666   1.831  1.5318  2.4253 -0.5864
 2789SOL    HW220247   0.730   4.638   1.792  1.3482 -1.8045  3.1532
 2790SOL     OW20248   2.936   3.751  17.229  0.8285 -0.3530 -0.1161
 2790SOL    HW120249   2.892   3.814  17.287  1.5044  1.7542 -1.8672
 2790SOL    HW220250   2.889   3.669  17.243 -0.4274  0.6719  1.7839
 2791SOL     OW20251   0.232   1.905   2.098 -0.2232 -0.1819 -0.2973
 2791SOL    HW120252   0.187   1.821   2.098 -0.2912 -0.1484  1.9876
 2791SOL    HW220253   0.184   1.958   2.161  1.5438  0.6440  0.3527
 2792SOL     OW20254   2.665   4.418   0.963  0.3447  0.6670  0.1482
 2792SOL    HW120255   2.726   4.429   0.890  0.6537  0.8296  0.4301
 2792SOL    HW220256   2.581   4.451   0.930  0.1179 -0.7135 -0.6551
 2793SOL     OW20257   4.465   4.046   5.941  0.2477  0.1957 -0.4505
 2793SOL    HW120258   4.449   4.124   5.887 -1.8540  0.0089 -0.0887
 2793SOL    HW220259   4.397   3.984   5.915 -0.5590 -0.0209  2.1634
 2794SOL     OW20260   0.460   4.540   1.179  0.1425 -0.1807  0.1703
 2794SOL    HW120261   0.460   4.635   1.186 -2.0258 -0.2401  1.0158
 2794SOL    HW220262   0.548   4.514   1.205  0.1977  1.4856  1.6470
 2795SOL     OW20263   3.511   4.243   2.517  0.1976  0.2275 -0.0200
 2795SOL    HW120264   3.542   4.334   2.511 -0.6820  0.5501  0.2606
 2795SOL    HW220265   3.554   4.209   2.595  1.0484  0.2007 -0.4999
 2796SOL     OW20266   0.386   2.767   1.516  0.0140  0.2741 -0.0611
 2796SOL    HW120267   0.302   2.801   1.485 -0.1433 -0.8268 -0.8230
 2796SOL    HW220268   0.366   2.725   1.600 -0.0852  0.5537  0.0561
 2797SOL     OW20269   1.538   3.970  18.864  0.6611 -0.2966  0.3896
 2797SOL    HW120270   1.456   3.935  18.899  0.9654 -0.4991  0.9198
 2797SOL    HW220271   1.602   3.952  18.933  1.1791 -0.2764 -0.0882
 2798SOL     OW20272   4.753   0.044   5.677 -0.4981  0.1172  0.2389
 2798SOL    HW120273   0.049   4.757   5.677 -1.4836 -1.0142 -0.9805
 2798SOL    HW220274   4.719   0.042   5.767  1.1337  0.8291  0.8766
 2799SOL     OW20275   4.335   0.560  16.634 -0.6261  0.0028 -0.0167
 2799SOL    HW120276   4.366   0.477  16.597 -1.1435 -0.1847 -0.0233
 2799SOL    HW220277   4.411   0.618  16.629 -0.7663  0.0420 -1.5813
 2800SOL     OW20278   3.449   2.947  15.613  0.3654 -0.5185 -0.2136
 2800SOL    HW120279   3.520   3.005  15.585  0.9322 -2.1810 -2.2366
 2800SOL    HW220280   3.388   2.946  15.539  0.5350 -2.7829 -0.3385
 2801SOL     OW20281   3.785   4.528  18.274  0.5181 -0.0082  0.0664
 2801SOL    HW120282   3.873   4.529  18.310  1.0800 -0.5226 -1.3039
 2801SOL    HW220283   3.742   4.605  18.312  1.3925 -0.0555  1.1276
 2802SOL     OW20284   3.970   2.850   2.317  0.0466 -0.2021  0.1684
 2802SOL    HW120285   3.879   2.821   2.315  0.4213 -1.3557 -0.0421
 2802SOL    HW220286   4.021   2.773   2.292  1.0374  0.6314 -0.3958
 2803SOL     OW20287   3.976   2.743   3.229 -0.1252  0.5765  0.3332
 2803SOL    HW120288   4.030   2.682   3.280 -1.1041 -1.0140 -0.5221
 2803SOL    HW220289   4.037   2.783   3.167  0.6504  0.9503  1.3391
 2804SOL     OW20290   2.058   3.998  13.332 -0.1852 -0.0853 -0.1350
 2804SOL    HW120291   2.132   4.019  13.276 -0.8385 -0.7841 -1.2582
 2804SOL    HW220292   2.078   4.041  13.415  2.1085 -1.3988 -0.0051
 2805SOL     OW20293   3.387   2.311   0.608  0.1335  0.3100 -0.0530
 2805SOL    HW120294   3.412   2.377   0.544 -4.1455  0.2626 -1.7748
 2805SOL    HW220295   3.399   2.228   0.562 -3.9420  0.3216 -1.1410
 2806SOL     OW20296   2.375   2.923  16.638  0.1861 -0.2697 -0.0550
 2806SOL    HW120297   2.333   2.837  16.645 -1.1633  0.3012 -0.9256
 2806SOL    HW220298   2.466   2.908  16.663 -0.2947 -1.7421  0.8388
 2807SOL     OW20299   0.800   4.700  13.637 -0.1758 -0.3020  0.8495
 2807SOL    HW120300   0.812   4.773  13.698  0.4100  0.8301 -0.6192
 2807SOL    HW220301   0.845   4.728  13.557 -1.5658 -1.4968 -0.3415
 2808SOL     OW20302   1.267   3.559   3.158  0.0626  0.0161  0.1158
 2808SOL    HW120303   1.280   3.601   3.242  0.8002  0.5955 -0.2911
 2808SOL    HW220304   1.196   3.608   3.117  1.0433  0.9598 -0.4334
 2809SOL     OW20305   2.171   2.777   8.310  0.3510 -0.0936 -0.2621
 2809SOL    HW120306   2.249   2.723   8.315 -1.0481 -2.0727  0.2411
 2809SOL    HW220307   2.157   2.807   8.400 -0.7381 -1.5217  0.0360
 2810SOL     OW20308   1.655   0.511   1.914 -0.1491  0.1862 -0.1236
 2810SOL    HW120309   1.649   0.607   1.911 -1.8130  0.1323  1.8217
 2810SOL    HW220310   1.749   0.493   1.925  0.4041  1.5485 -2.6109
 2811SOL     OW20311   2.093   4.485   0.426  0.7576  0.4861 -0.3076
 2811SOL    HW120312   2.180   4.518   0.447  1.1675 -0.1407 -1.0504
 2811SOL    HW220313   2.092   4.396   0.462  0.3814  0.5313 -0.2014
 2812SOL     OW20314   0.042   2.632   0.529  0.0152 -0.2919 -0.7106
 2812SOL    HW120315   4.723   2.617   0.528 -0.3417  1.7920  0.2715
 2812SOL    HW220316   0.053   2.708   0.587  2.0633  0.8966 -2.6522
 2813SOL     OW20317   0.398   4.375  20.569  0.1021 -0.5745 -0.7938
 2813SOL    HW120318   0.473   4.408  20.520 -0.2795 -1.7301 -2.1803
 2813SOL    HW220319   0.435   4.343  20.651  0.6704  1.9060 -0.0730
 2814SOL     OW20320   3.998   1.964   2.558 -0.1131  0.4437 -0.0082
 2814SOL    HW120321   3.905   1.943   2.546 -0.0761 -1.5600  3.1212
 2814SOL    HW220322   4.042   1.918   2.488 -1.3014 -0.1129 -0.3915
 2815SOL     OW20323   2.620   3.766  19.771  0.5075 -0.0537 -0.1804
 2815SOL    HW120324   2.703   3.780  19.725  0.6966  0.5623  0.3610
 2815SOL    HW220325   2.599   3.850  19.810 -0.1889 -0.3090 -0.0010
 2816SOL     OW20326   3.684   3.181   4.759  0.5218 -0.8725 -0.7077
 2816SOL    HW120327   3.683   3.271   4.793  3.8930 -1.3846  0.7203
 2816SOL    HW220328   3.620   3.135   4.813  0.7703  0.0168  0.3591
 2817SOL     OW20329   1.530   3.790   4.548  0.3714 -0.0119 -0.1675
 2817SOL    HW120330   1.524   3.698   4.575 -0.2441  0.4642  1.2977
 2817SOL    HW220331   1.467   3.836   4.603  0.4262  1.2374 -1.1513
 2818SOL     OW20332   4.287   2.995  10.675  0.0636  0.3773 -0.0976
 2818SOL    HW120333   4.299   3.089  10.688  1.4907  0.2590 -0.5684
 2818SOL    HW220334   4.208   2.987  10.622  0.4667  1.3484 -0.8344
 2819SOL     OW20335   0.277   2.901   2.229  0.1397  0.1287  0.3511
 2819SOL    HW120336   0.256   2.879   2.320  0.5239  0.9054  0.6306
 2819SOL    HW220337   0.356   2.851   2.210 -0.3380 -0.5746  0.2210
 2820SOL     OW20338   1.159   4.499   5.583  0.2439  0.2051 -0.6749
 2820SOL    HW120339   1.162   4.404   5.574  0.1214  0.0576  0.8883
 2820SOL    HW220340   1.104   4.529   5.510  1.3569 -0.8106 -1.9414
 2821SOL     OW20341   2.118   3.399   3.341 -0.2687 -0.2683  0.0315
 2821SOL    HW120342   2.103   3.493   3.353 -0.1303 -0.2690  0.2082
 2821SOL    HW220343   2.034   3.365   3.313 -0.0857  0.0620 -0.9256
 2822SOL     OW20344   2.389   1.999   2.962  0.1557 -0.5542 -0.5150
 2822SOL    HW120345   2.315   1.979   3.019 -0.2653  0.1169 -0.8353
 2822SOL    HW220346   2.398   1.921   2.907 -1.0900 -0.1321 -1.3217
 2823SOL     OW20347   1.062   2.295  17.254  0.1978 -0.1702 -0.2673
 2823SOL    HW120348   1.022   2.250  17.327 -0.0965  0.5769  0.0352
 2823SOL    HW220349   1.015   2.379  17.249 -0.3801 -0.5922 -1.8548
 2824SOL     OW20350   0.569   2.839   0.414  0.2563 -0.0697  0.5755
 2824SOL    HW120351   0.648   2.892   0.425 -0.2180  0.4731  1.3436
 2824SOL    HW220352   0.509   2.871   0.480 -0.7784 -0.1842 -0.3023
 2825SOL     OW20353   2.243   1.701   3.201  0.2496  0.6828 -0.1197
 2825SOL    HW120354   2.224   1.777   3.146 -1.1588  1.8360  1.9543
 2825SOL    HW220355   2.187   1.631   3.167 -0.8666  1.4884  0.0813
 2826SOL     OW20356   4.500   2.422  11.436  0.1299 -0.5521  0.6845
 2826SOL    HW120357   4.483   2.506  11.393 -0.4645 -0.3310  1.3457
 2826SOL    HW220358   4.452   2.358  11.383 -1.1961 -0.1832  1.4329
 2827SOL     OW20359   1.005   1.561  13.758  0.0264 -0.4589 -0.3348
 2827SOL    HW120360   1.085   1.607  13.782 -0.4453 -0.2354  0.8142
 2827SOL    HW220361   1.017   1.538  13.666  1.2387 -0.0733 -0.2715
 2828SOL     OW20362   2.042   2.556  17.093  0.3746 -0.1146 -0.4169
 2828SOL    HW120363   1.953   2.527  17.074  0.6211 -1.2282  0.0921
 2828SOL    HW220364   2.035   2.602  17.177  0.3920 -0.8421 -0.0072
 2829SOL     OW20365   4.462   3.364  17.904  0.6130 -0.5241 -0.3172
 2829SOL    HW120366   4.482   3.284  17.855  0.8044 -1.7849  1.8362
 2829SOL    HW220367   4.455   3.336  17.995 -0.6488  1.6863  0.2751
 2830SOL     OW20368   1.732   0.812   1.262  0.8357 -0.1532 -0.9613
 2830SOL    HW120369   1.713   0.867   1.338 -2.2214 -0.0001 -1.8407
 2830SOL    HW220370   1.766   0.730   1.300 -0.3139  0.0730  0.5505
 2831SOL     OW20371   3.797   0.535   4.502  0.0787  0.0434 -0.3382
 2831SOL    HW120372   3.751   0.466   4.550 -0.4109 -0.7473 -1.9477
 2831SOL    HW220373   3.849   0.488   4.437  1.1377  1.0919 -0.2596
 2832SOL     OW20374   2.648   4.584  16.293 -0.2595 -0.0765 -0.5912
 2832SOL    HW120375   2.680   4.567  16.204 -0.8137  1.2735 -1.0473
 2832SOL    HW220376   2.606   4.670  16.287 -0.3200 -0.0046  0.9706
 2833SOL     OW20377   0.850   1.508   0.365 -0.2078  0.0820  0.1117
 2833SOL    HW120378   0.938   1.540   0.346 -0.1953  0.0778  0.1625
 2833SOL    HW220379   0.861   1.414   0.377  0.1403  0.4048  2.3362
 2834SOL     OW20380   0.542   0.271  19.380  0.0443  0.2460  0.1777
 2834SOL    HW120381   0.485   0.347  19.390  0.1568  0.3653 -0.0799
 2834SOL    HW220382   0.548   0.257  19.286  0.3946  0.1999  0.2044
 2835SOL     OW20383   3.391   3.601   2.459  0.1933 -0.1430  0.4060
 2835SOL    HW120384   3.332   3.539   2.501 -0.1461  0.6875  1.1532
 2835SOL    HW220385   3.384   3.581   2.365 -0.5096 -0.7068  0.5775
 2836SOL     OW20386   2.902   1.489   6.764  0.1382  0.5566  0.2771
 2836SOL    HW120387   2.922   1.505   6.856 -0.8988  1.5799  0.3256
 2836SOL    HW220388   2.891   1.394   6.758 -1.2023  0.6382  1.4754
 2837SOL     OW20389   0.940   3.163  20.440  0.0676  0.8335  0.5299
 2837SOL    HW120390   1.030   3.193  20.428  0.5524 -1.3086 -1.2510
 2837SOL    HW220391   0.944   3.105  20.516  0.0568  1.2430  0.8463
 2838SOL     OW20392   4.330   0.508   5.133 -0.1119  0.1355 -0.3882
 2838SOL    HW120393   4.263   0.515   5.201  0.0188 -0.0335 -0.2454
 2838SOL    HW220394   4.327   0.416   5.105  0.6191 -0.0569  0.1751
 2839SOL     OW20395   0.477   0.012  18.705  0.1234 -0.1253 -0.1922
 2839SOL    HW120396   0.569   0.012  18.731 -0.0817 -0.4801  0.5477
 2839SOL    HW220397   0.433   4.742  18.776 -0.8694  1.6415  0.3298
 2840SOL     OW20398   4.472   2.584  15.795  0.1393 -0.0352  0.3717
 2840SOL    HW120399   4.389   2.546  15.823  0.1097 -0.0935  0.2058
 2840SOL    HW220400   4.518   2.513  15.750 -0.3346  0.3896 -0.7862
 2841SOL     OW20401   3.948   3.047  17.654  0.2435  0.1289 -0.3705
 2841SOL    HW120402   3.867   2.996  17.657  0.4296 -0.2359 -1.5378
 2841SOL    HW220403   3.954   3.087  17.741 -0.7902 -0.4577 -0.0233
 2842SOL     OW20404   2.890   3.730  15.436 -0.1519  0.0057 -0.6677
 2842SOL    HW120405   2.937   3.697  15.512  0.9872  1.3923 -0.7721
 2842SOL    HW220406   2.798   3.728  15.462  0.2184  0.3031  0.6936
 2843SOL     OW20407   1.789   1.417  15.699  0.4108  0.1646  0.0821
 2843SOL    HW120408   1.705   1.421  15.654 -0.3611  0.4146  1.5308
 2843SOL    HW220409   1.831   1.501  15.680  0.0040  0.3457 -0.0036
 2844SOL     OW20410   1.414   2.391   1.996 -0.1798  0.2362 -0.0864
 2844SOL    HW120411   1.348   2.335   2.037  0.7436 -1.1197 -0.4594
 2844SOL    HW220412   1.498   2.353   2.023  0.4336  0.9339 -1.0213
 2845SOL     OW20413   1.570   4.627   4.597  0.1838  0.9292 -1.3625
 2845SOL    HW120414   1.631   4.635   4.523 -0.7581  2.2224 -2.0076
 2845SOL    HW220415   1.490   4.669   4.566 -0.6294  0.3283 -0.0577
 2846SOL     OW20416   0.523   4.279  20.782 -0.6683  0.2703  0.3963
 2846SOL    HW120417   0.479   4.304  20.863 -1.1105 -0.5419  0.4105
 2846SOL    HW220418   0.580   4.206  20.806 -0.2715  0.4869  0.1184
 2847SOL     OW20419   0.692   1.702   2.174  0.1663 -0.7334 -0.1333
 2847SOL    HW120420   0.609   1.750   2.177  0.8739  0.5269 -0.7138
 2847SOL    HW220421   0.694   1.664   2.086  1.2243  1.0445 -0.8752
 2848SOL     OW20422   3.449   2.551  19.277 -0.1039 -0.1346  0.2697
 2848SOL    HW120423   3.364   2.559  19.322 -0.8459 -0.2205 -1.1202
 2848SOL    HW220424   3.459   2.633  19.229  0.7906  0.0427  0.7614
 2849SOL     OW20425   1.322   1.818   0.066  0.7745 -0.2415  0.4593
 2849SOL    HW120426   1.254   1.795   0.128  0.3727  0.3159  0.2284
 2849SOL    HW220427   1.337   1.912   0.080  1.6147 -0.3956  0.6320
 2850SOL     OW20428   0.805   1.675   0.728 -0.1124 -0.1151 -0.1524
 2850SOL    HW120429   0.849   1.760   0.736  0.7815 -0.5709 -0.2773
 2850SOL    HW220430   0.792   1.664   0.633 -0.2495 -0.1043 -0.1344
 2851SOL     OW20431   4.424   0.584  13.670  0.5964 -0.1830 -0.2419
 2851SOL    HW120432   4.458   0.527  13.740  1.0479 -1.1137 -1.2186
 2851SOL    HW220433   4.383   0.656  13.717 -2.5052 -2.7645  1.0388
 2852SOL     OW20434   0.982   4.087   4.146  0.1621  0.4184 -0.5988
 2852SOL    HW120435   1.004   3.997   4.123 -0.3915  0.1546 -0.1005
 2852SOL    HW220436   1.001   4.092   4.240  0.9726  1.0542 -0.7959
 2853SOL     OW20437   0.820   3.101  18.487 -0.7278  0.3027  0.0692
 2853SOL    HW120438   0.849   3.144  18.567 -1.3767 -1.0269  1.0245
 2853SOL    HW220439   0.751   3.158  18.453  0.6077  1.6697 -0.3741
 2854SOL     OW20440   1.388   1.437   9.698 -0.1938 -0.7184  0.4523
 2854SOL    HW120441   1.381   1.399   9.786  0.3054 -2.1024 -0.1070
 2854SOL    HW220442   1.352   1.369   9.640 -1.6007  0.6682 -0.2849
 2855SOL     OW20443   4.421   2.092   9.893 -0.1167  0.0810  0.2617
 2855SOL    HW120444   4.336   2.108   9.851  1.0595  0.6992 -1.8879
 2855SOL    HW220445   4.455   2.014   9.848  0.7937  0.2844  0.6089
 2856SOL     OW20446   3.458   2.052   1.472  0.2853 -0.3727 -0.1779
 2856SOL    HW120447   3.436   2.071   1.381 -0.6581 -1.3356 -0.1468
 2856SOL    HW220448   3.423   1.965   1.488  0.4408 -0.2021  1.1177
 2857SOL     OW20449   1.560   2.579  14.110 -0.2073 -1.0366 -0.0037
 2857SOL    HW120450   1.629   2.512  14.103  2.2147  1.4171  0.2376
 2857SOL    HW220451   1.578   2.623  14.192 -1.0680  0.7539 -0.7729
 2858SOL     OW20452   4.424   2.049   1.416 -0.1110 -0.0578  0.0659
 2858SOL    HW120453   4.385   2.108   1.353  0.1784 -0.6015 -0.6194
 2858SOL    HW220454   4.517   2.074   1.419 -0.2182  0.2772  0.6183
 2859SOL     OW20455   1.115   2.437  16.672 -0.3978 -0.3973 -0.0629
 2859SOL    HW120456   1.165   2.514  16.700  1.0848 -0.1335 -3.4494
 2859SOL    HW220457   1.025   2.469  16.662  0.1586  0.8281 -1.1639
 2860SOL     OW20458   4.384   0.854   2.016 -0.3783  0.0630  0.1035
 2860SOL    HW120459   4.410   0.886   2.102 -0.6903  0.3654  0.0848
 2860SOL    HW220460   4.466   0.854   1.965 -0.2666  0.2571  0.2829
 2861SOL     OW20461   2.597   3.999  17.871  0.0764  0.5673 -0.2040
 2861SOL    HW120462   2.520   4.056  17.872 -1.3482 -1.3729  1.9447
 2861SOL    HW220463   2.585   3.942  17.947  2.1687 -1.7055 -1.5909
 2862SOL     OW20464   3.989   2.074   5.953 -1.0184  0.1417 -0.2155
 2862SOL    HW120465   3.983   2.164   5.919 -2.0825  0.1230 -0.0891
 2862SOL    HW220466   4.044   2.028   5.890 -0.9082  0.7541 -0.5686
 2863SOL     OW20467   0.182   4.117   1.088 -0.3662  0.2464 -0.5705
 2863SOL    HW120468   0.099   4.159   1.110 -0.7865 -0.5834 -0.5471
 2863SOL    HW220469   0.245   4.188   1.081 -0.4833  0.6399  2.2020
 2864SOL     OW20470   0.092   2.893  20.693 -0.3903 -0.1778  0.4723
 2864SOL    HW120471   0.037   2.826  20.733 -3.2288  1.6468 -0.3650
 2864SOL    HW220472   0.176   2.849  20.677 -1.8092 -3.1206  1.1369
 2865SOL     OW20473   2.562   4.125  17.288 -0.2401  0.4623 -0.0023
 2865SOL    HW120474   2.501   4.057  17.261  0.2066 -0.0128  0.1729
 2865SOL    HW220475   2.632   4.123  17.223 -0.0016  0.4433  0.2498
 2866SOL     OW20476   1.393   3.052   7.639 -0.0318 -0.1368  0.4401
 2866SOL    HW120477   1.449   3.046   7.716  0.4502 -2.1528 -0.0670
 2866SOL    HW220478   1.306   3.069   7.674  0.6967  1.7410  1.2932
 2867SOL     OW20479   4.459   2.108  12.294 -0.0350  0.5310  0.0214
 2867SOL    HW120480   4.521   2.090  12.223 -1.6676 -1.2030 -0.9517
 2867SOL    HW220481   4.426   2.195  12.276  0.4776  0.5833 -0.6566
 2868SOL     OW20482   2.990   2.770   1.529  0.0059  0.4684  0.6706
 2868SOL    HW120483   2.902   2.767   1.568  0.1928  0.2371  1.0710
 2868SOL    HW220484   2.987   2.706   1.458 -0.4669  1.1962  0.0298
 2869SOL     OW20485   3.372   3.322   0.597 -0.2485 -0.3327 -0.7775
 2869SOL    HW120486   3.465   3.342   0.597 -0.1349 -0.9035  1.0269
 2869SOL    HW220487   3.329   3.407   0.594  0.3008  0.0077  1.1172
 2870SOL     OW20488   2.574   4.324  20.645 -0.2278  0.4683  0.4630
 2870SOL    HW120489   2.602   4.249  20.698 -2.0970 -0.8397 -0.4277
 2870SOL    HW220490   2.554   4.393  20.709 -1.3651 -0.7394  1.3982
 2871SOL     OW20491   3.497   0.974  18.423 -0.1573  0.2267 -0.6367
 2871SOL    HW120492   3.432   0.917  18.381 -1.4995  1.1756  0.1463
 2871SOL    HW220493   3.480   0.964  18.517 -0.5592  2.1109 -0.5100
 2872SOL     OW20494   2.364   1.493   2.167  0.3473  0.1287  0.1806
 2872SOL    HW120495   2.285   1.534   2.202 -1.1957 -1.2324 -1.7617
 2872SOL    HW220496   2.419   1.566   2.140 -1.7147  0.9798 -1.7207
 2873SOL     OW20497   0.700   2.275  19.788 -0.6057  0.6621  0.8375
 2873SOL    HW120498   0.721   2.228  19.869 -1.5381  0.5950  1.0374
 2873SOL    HW220499   0.684   2.206  19.724 -0.5206  0.7137  0.7611
 2874SOL     OW20500   3.046   1.867  20.719 -0.0001 -0.1472  0.4665
 2874SOL    HW120501   3.138   1.876  20.742 -0.2527  1.8359  0.6608
 2874SOL    HW220502   3.009   1.812  20.788  0.5018  1.0354  1.6734
 2875SOL     OW20503   2.279   3.226  17.992 -0.2207 -0.4594  0.2230
 2875SOL    HW120504   2.350   3.286  18.010  0.8219 -1.3770 -0.7927
 2875SOL    HW220505   2.294   3.151  18.050 -1.1038 -0.0540  0.9702
 2876SOL     OW20506   0.040   4.405  17.156 -0.0810  0.3778 -0.1276
 2876SOL    HW120507   0.037   4.380  17.248 -1.9574 -2.2468 -0.9088
 2876SOL    HW220508   4.748   4.473  17.148 -0.6435 -0.1410  0.1961
 2877SOL     OW20509   3.494   2.228   3.316 -0.3475  0.3810  0.1970
 2877SOL    HW120510   3.557   2.230   3.244 -1.2066  0.7145 -0.5424
 2877SOL    HW220511   3.409   2.215   3.274 -0.9524  1.4579  1.0853
 2878SOL     OW20512   4.645   0.547  20.082  0.4268 -0.5501 -0.2747
 2878SOL    HW120513   4.679   0.637  20.082  0.0362 -0.4024  0.4975
 2878SOL    HW220514   4.670   0.512  19.997  0.4799  0.3319 -0.6194
 2879SOL     OW20515   4.694   0.596   4.559  0.0990  0.6644  0.1618
 2879SOL    HW120516   4.745   0.675   4.575  1.4459 -0.0497 -0.5351
 2879SOL    HW220517   4.678   0.597   4.464  0.6636 -0.2204  0.0548
 2880SOL     OW20518   1.063   1.739   1.440  0.0263 -0.8321 -0.4279
 2880SOL    HW120519   0.998   1.781   1.385  1.3320  1.5338 -0.1836
 2880SOL    HW220520   1.114   1.684   1.381 -1.8717 -2.2542 -0.7050
 2881SOL     OW20521   3.465   2.492   3.324  0.3036  0.5140  0.0684
 2881SOL    HW120522   3.520   2.527   3.255 -1.5010  1.7389 -0.7552
 2881SOL    HW220523   3.480   2.398   3.322 -0.2152  0.4892 -2.3938
 2882SOL     OW20524   4.599   3.948   0.173  0.1139  0.5365  0.2462
 2882SOL    HW120525   4.513   3.905   0.172  0.1317  0.5108 -0.3356
 2882SOL    HW220526   4.653   3.892   0.229  0.3513 -0.6265 -1.1546
 2883SOL     OW20527   2.060   1.997   5.436  0.1236 -0.2668  0.3746
 2883SOL    HW120528   2.078   2.073   5.381 -0.8328 -0.2952  0.0219
 2883SOL    HW220529   1.990   1.950   5.390 -1.8430  0.6206  2.4745
 2884SOL     OW20530   4.626   0.214  14.826 -0.4163  0.3179  0.4927
 2884SOL    HW120531   4.664   0.297  14.797 -0.8773 -0.6913 -2.9577
 2884SOL    HW220532   4.532   0.226  14.815 -0.6270  0.1372  2.0960
 2885SOL     OW20533   0.304   0.813   2.163 -0.1838 -0.7638  0.5241
 2885SOL    HW120534   0.387   0.772   2.186  1.3543  0.7774 -2.2865
 2885SOL    HW220535   0.315   0.905   2.187  0.4688  0.3180 -3.7617
 2886SOL     OW20536   2.424   2.855   4.128  0.1585 -0.0820 -0.7305
 2886SOL    HW120537   2.512   2.817   4.140  0.8764  0.6173 -3.9281
 2886SOL    HW220538   2.409   2.905   4.208  2.2246 -1.0954  0.3030
 2887SOL     OW20539   0.611   0.852  20.747 -0.0531  0.3324 -0.6108
 2887SOL    HW120540   0.566   0.874  20.829  0.5444 -2.0245  0.3611
 2887SOL    HW220541   0.700   0.886  20.759  1.3114 -4.0839  1.5125
 2888SOL     OW20542   3.366   1.810   1.219 -0.1421  0.0044 -0.0066
 2888SOL    HW120543   3.320   1.885   1.181  0.0124 -0.0421 -0.2861
 2888SOL    HW220544   3.339   1.735   1.165 -0.4240 -0.1644  0.3742
 2889SOL     OW20545   0.328   1.322  17.152  0.2497 -1.2072  0.1453
 2889SOL    HW120546   0.423   1.324  17.142  0.2574 -1.2162  0.2163
 2889SOL    HW220547   0.301   1.239  17.112  0.2763 -1.2242  0.1626
 2890SOL     OW20548   3.305   4.433   4.038  0.0521  0.0430 -0.3753
 2890SOL    HW120549   3.272   4.409   3.952 -1.1885 -1.1215  0.4282
 2890SOL    HW220550   3.267   4.519   4.056  0.3256  0.2910 -0.9971
 2891SOL     OW20551   3.432   2.864   6.369 -0.5205  0.4773  0.0042
 2891SOL    HW120552   3.404   2.955   6.361  0.4946  0.8871  1.3002
 2891SOL    HW220553   3.527   2.868   6.379 -0.5769 -0.6920  0.9719
 2892SOL     OW20554   2.660   0.447   3.874  0.2054 -0.4147  0.2349
 2892SOL    HW120555   2.596   0.514   3.896  1.1074 -0.0832  1.8293
 2892SOL    HW220556   2.616   0.392   3.809 -0.8832  1.1363 -0.3234
 2893SOL     OW20557   4.575   2.796  20.597  0.3248 -0.1224  0.3675
 2893SOL    HW120558   4.531   2.817  20.680 -1.3103  0.6286 -0.6961
 2893SOL    HW220559   4.623   2.715  20.616 -1.5164 -0.9539  1.5422
 2894SOL     OW20560   3.389   4.223  17.994  0.5763 -0.0634  0.1634
 2894SOL    HW120561   3.309   4.272  17.973  0.4448  0.4207  1.8144
 2894SOL    HW220562   3.443   4.285  18.042  1.0439 -1.0718  0.9341
 2895SOL     OW20563   4.679   4.347  18.096 -0.2574 -0.1175  0.1981
 2895SOL    HW120564   4.670   4.382  18.007 -0.7141 -0.9851 -0.0918
 2895SOL    HW220565   4.773   4.331  18.105 -0.1310  0.5314  0.0882
 2896SOL     OW20566   4.746   0.614   1.765 -0.8340 -0.0185 -0.0312
 2896SOL    HW120567   4.741   0.577   1.853  0.4916 -0.8194 -0.2905
 2896SOL    HW220568   4.697   0.553   1.710 -1.3331  0.2745  0.0956
 2897SOL     OW20569   3.515   4.229  21.010 -0.0803 -0.4833 -0.2778
 2897SOL    HW120570   3.531   4.164  21.078 -0.5567 -0.7540 -0.4194
 2897SOL    HW220571   3.446   4.190  20.957 -0.8539  0.4531  0.0511
 2898SOL     OW20572   3.842   2.170  15.819 -0.3186 -0.1508 -0.6457
 2898SOL    HW120573   3.800   2.086  15.802  0.5847 -0.5552 -0.8828
 2898SOL    HW220574   3.936   2.153  15.808 -0.2169  1.1717 -1.8609
 2899SOL     OW20575   2.191   1.421   4.915  0.1904  0.0260  0.1142
 2899SOL    HW120576   2.267   1.453   4.866 -0.9193  0.8505 -1.0401
 2899SOL    HW220577   2.139   1.373   4.851  1.3856 -3.2688  1.6416
 2900SOL     OW20578   4.279   1.806  19.414 -0.0935  0.5092 -0.2332
 2900SOL    HW120579   4.255   1.751  19.340 -2.0194  1.2352 -0.1350
 2900SOL    HW220580   4.352   1.859  19.381 -0.3597  0.1906 -1.3305
 2901SOL     OW20581   3.385   3.176   7.473  0.0830 -0.0707  0.3286
 2901SOL    HW120582   3.351   3.247   7.419 -1.6258  0.6094  2.2586
 2901SOL    HW220583   3.476   3.199   7.489  0.3769  0.0983 -1.6591
 2902SOL     OW20584   1.680   2.457  19.313 -0.0723  0.0159 -0.2702
 2902SOL    HW120585   1.634   2.373  19.306  1.7081 -1.0132  0.2815
 2902SOL    HW220586   1.635   2.502  19.385  1.2412 -1.9389  1.8105
 2903SOL     OW20587   0.119   1.840   4.846 -0.3427  0.2110 -0.8578
 2903SOL    HW120588   0.130   1.829   4.751 -2.8040  0.3398 -1.1661
 2903SOL    HW220589   0.117   1.751   4.880  0.8953  0.1725 -0.8862
 2904SOL     OW20590   0.357   2.622   0.894  0.6655 -0.3743  0.3035
 2904SOL    HW120591   0.359   2.717   0.884  0.7160 -0.5525 -1.4462
 2904SOL    HW220592   0.448   2.597   0.910  0.5517 -0.0494  1.4207
 2905SOL     OW20593   3.732   1.464  12.487 -0.5738  0.2668  0.3968
 2905SOL    HW120594   3.758   1.447  12.578 -1.2138  0.2991  0.5804
 2905SOL    HW220595   3.746   1.380  12.443  1.4320  0.7184  0.1374
 2906SOL     OW20596   3.573   2.531   1.980 -0.5985 -0.4861  0.6460
 2906SOL    HW120597   3.536   2.601   2.033 -2.0216 -1.1190  0.4932
 2906SOL    HW220598   3.498   2.477   1.956 -0.1017  0.4048 -2.9126
 2907SOL     OW20599   4.188   4.725   8.646  0.0418  0.1745 -0.0290
 2907SOL    HW120600   4.256   0.001   8.688  0.3962 -1.1662  1.0524
 2907SOL    HW220601   4.235   4.653   8.604 -0.3756  1.1219 -2.1487
 2908SOL     OW20602   4.715   3.157  12.898  0.1755 -0.0275 -0.2620
 2908SOL    HW120603   0.031   3.132  12.884  0.5133  0.2511  1.5103
 2908SOL    HW220604   4.717   3.218  12.972 -1.5607 -0.8362  0.4670
 2909SOL     OW20605   3.959   1.858  18.300 -0.1550  0.3225  0.5986
 2909SOL    HW120606   3.923   1.941  18.332  2.4997  1.3862  0.7602
 2909SOL    HW220607   3.998   1.880  18.215 -1.0939 -1.1308 -0.2185
 2910SOL     OW20608   3.539   1.836   5.549 -0.5268  0.0777 -0.3372
 2910SOL    HW120609   3.607   1.851   5.615 -1.6726  0.6721  0.6903
 2910SOL    HW220610   3.531   1.920   5.504 -1.0579  0.1887 -0.0290
 2911SOL     OW20611   0.975   2.996   4.204 -0.1301 -0.6713 -0.0464
 2911SOL    HW120612   1.025   3.055   4.148  2.4100 -2.2853  0.5258
 2911SOL    HW220613   0.884   3.009   4.177  0.7861  0.8112 -2.4343
 2912SOL     OW20614   4.552   2.216   4.410 -0.0051  0.4543  0.1271
 2912SOL    HW120615   4.588   2.132   4.436 -0.3342  0.5997  1.0763
 2912SOL    HW220616   4.620   2.257   4.357  0.7560  0.2347  0.9399
 2913SOL     OW20617   4.472   0.450   7.897 -0.1324  0.6504 -0.3984
 2913SOL    HW120618   4.565   0.439   7.918 -0.3817  0.7290  0.7396
 2913SOL    HW220619   4.459   0.545   7.897  0.0162  0.6644 -1.5209
 2914SOL     OW20620   3.209   2.172   2.619  0.0839  0.6673 -0.1284
 2914SOL    HW120621   3.236   2.244   2.563  2.7845  0.1034  0.4434
 2914SOL    HW220622   3.245   2.193   2.706  1.7040 -1.8127 -0.1814
 2915SOL     OW20623   1.122   1.266   3.957 -0.1013 -0.4023 -0.4395
 2915SOL    HW120624   1.115   1.308   4.043 -0.0467 -0.9434 -0.1666
 2915SOL    HW220625   1.071   1.322   3.899 -0.8911 -0.5156  0.1317
 2916SOL     OW20626   4.085   1.549   0.616 -1.1184  0.4251 -0.4863
 2916SOL    HW120627   4.163   1.516   0.661 -0.1319  1.9412 -1.0666
 2916SOL    HW220628   4.058   1.625   0.667 -2.4336 -0.3326 -0.0732
 2917SOL     OW20629   4.486   3.883  17.592 -0.6586 -0.1192  0.1258
 2917SOL    HW120630   4.581   3.876  17.587 -0.6526  0.0459  0.0082
 2917SOL    HW220631   4.457   3.797  17.622 -0.3563  0.2951  1.6028
 2918SOL     OW20632   2.264   2.134   2.716 -0.8250  0.3155  0.7698
 2918SOL    HW120633   2.258   2.170   2.804  1.7413 -1.0213  1.4885
 2918SOL    HW220634   2.356   2.142   2.693 -1.6573  1.4845 -2.1296
 2919SOL     OW20635   1.702   1.038  13.281 -0.0021 -0.5187  0.0732
 2919SOL    HW120636   1.638   1.109  13.267  0.7159 -0.1140 -1.0953
 2919SOL    HW220637   1.759   1.072  13.350 -0.9529 -0.8190  1.0195
 2920SOL     OW20638   2.302   3.517   4.555 -0.0642 -0.2582  0.1126
 2920SOL    HW120639   2.241   3.581   4.519  1.0407  0.6631 -0.1242
 2920SOL    HW220640   2.284   3.516   4.649  0.6512  1.1694  0.2582
 2921SOL     OW20641   0.087   1.460  19.012 -0.1306 -0.0905 -0.1356
 2921SOL    HW120642   0.169   1.415  18.992  0.9411  1.0202  1.7208
 2921SOL    HW220643   0.089   1.538  18.955  0.7734  0.6915  0.9744
 2922SOL     OW20644   2.291   3.344  10.011 -0.4647 -0.4868 -0.2929
 2922SOL    HW120645   2.286   3.249  10.023 -0.2870 -0.7163 -2.0775
 2922SOL    HW220646   2.257   3.380  10.093  2.0419 -2.0926  1.4358
 2923SOL     OW20647   3.695   1.483  19.925 -0.0303  0.3539 -0.3069
 2923SOL    HW120648   3.739   1.398  19.931  0.4603  0.7012  1.0571
 2923SOL    HW220649   3.604   1.462  19.906  0.0051 -0.4984  0.4719
 2924SOL     OW20650   1.214   0.105   0.753 -0.1181 -0.0528 -0.0465
 2924SOL    HW120651   1.167   0.032   0.793  1.5404 -0.4688  1.1575
 2924SOL    HW220652   1.285   0.063   0.704  1.2551  0.7898  1.2201
 2925SOL     OW20653   4.233   0.818   6.760  0.4755 -0.1402 -0.4619
 2925SOL    HW120654   4.206   0.829   6.669 -0.4393 -1.4230 -0.3528
 2925SOL    HW220655   4.167   0.868   6.810 -0.4373 -1.4723 -0.3389
 2926SOL     OW20656   3.406   0.743  16.711 -0.3943  0.2087 -0.0488
 2926SOL    HW120657   3.345   0.697  16.653  0.2087 -0.3336 -0.2509
 2926SOL    HW220658   3.392   0.702  16.797  0.6681 -0.8666 -0.3792
 2927SOL     OW20659   0.495   2.505   4.396  0.3633  0.6301 -0.5309
 2927SOL    HW120660   0.542   2.516   4.313 -0.3931 -1.4944 -1.2344
 2927SOL    HW220661   0.561   2.473   4.457  0.3261 -0.2824 -0.9698
 2928SOL     OW20662   4.638   3.889  18.643  0.0643 -0.1292  0.5366
 2928SOL    HW120663   4.663   3.924  18.729  0.8330 -0.3293  0.3957
 2928SOL    HW220664   4.588   3.960  18.602  2.0246  0.9922  0.0770
 2929SOL     OW20665   1.161   0.362  13.966 -0.0812 -0.5931  0.3583
 2929SOL    HW120666   1.125   0.444  13.933  2.4566  0.6215  0.5967
 2929SOL    HW220667   1.099   0.334  14.034 -0.9867  1.0764  0.2158
 2930SOL     OW20668   4.029   2.651   4.633  0.6253  0.0256  0.3106
 2930SOL    HW120669   4.109   2.699   4.654  1.3371 -1.9448  2.0387
 2930SOL    HW220670   3.958   2.708   4.663  1.4690  0.1077  2.1305
 2931SOL     OW20671   3.477   3.015   4.599 -0.4482  0.3326 -0.1591
 2931SOL    HW120672   3.545   3.052   4.655  0.7268  1.1775 -2.1563
 2931SOL    HW220673   3.485   3.063   4.516 -1.9917 -1.1225 -1.1498
 2932SOL     OW20674   0.245   0.675   6.636 -1.0267  0.2754 -0.0934
 2932SOL    HW120675   0.322   0.619   6.627 -0.9538  0.4995 -0.8748
 2932SOL    HW220676   0.265   0.753   6.584 -1.3334  0.8128  0.5832
 2933SOL     OW20677   1.847   1.748   2.493 -0.2948  0.5253 -0.4409
 2933SOL    HW120678   1.794   1.689   2.439  0.8090  0.7184 -1.7022
 2933SOL    HW220679   1.879   1.815   2.433  2.7422 -0.5176  0.0248
 2934SOL     OW20680   1.718   1.142  17.883  0.1401  0.4252 -0.2931
 2934SOL    HW120681   1.675   1.116  17.801  0.1400 -1.3335  0.2763
 2934SOL    HW220682   1.646   1.169  17.940  0.1716  2.0472 -1.0139
 2935SOL     OW20683   4.726   1.810   5.657  1.0034 -0.6678 -0.5604
 2935SOL    HW120684   4.758   1.835   5.570  1.1906 -0.6965 -0.4993
 2935SOL    HW220685   0.029   1.797   5.709  0.8542  1.3462  0.1746
 2936SOL     OW20686   4.658   0.505  11.488 -0.4595 -1.1939  0.5726
 2936SOL    HW120687   4.751   0.514  11.469 -1.1540 -0.1064 -2.3698
 2936SOL    HW220688   4.627   0.594  11.501 -1.3475 -1.4546  0.2708
 2937SOL     OW20689   2.965   1.214  19.663  0.5911 -0.8393  0.2480
 2937SOL    HW120690   2.881   1.257  19.647  0.8466 -0.4306 -0.0012
 2937SOL    HW220691   2.944   1.144  19.725  0.0079 -0.9570 -0.0789
 2938SOL     OW20692   0.526   2.711   8.349 -0.5315 -0.6758 -0.0749
 2938SOL    HW120693   0.444   2.742   8.310 -0.4940  0.2918  0.5993
 2938SOL    HW220694   0.505   2.695   8.441  0.5744  1.6922  0.6061
 2939SOL     OW20695   0.088   2.729   8.478 -0.4309  0.1898 -0.2135
 2939SOL    HW120696   0.143   2.659   8.514 -0.4980  1.3660  2.1527
 2939SOL    HW220697   0.001   2.690   8.472 -0.3294 -0.1528  0.4934
 2940SOL     OW20698   4.743   0.828   4.950  0.1647 -0.4640 -0.2964
 2940SOL    HW120699   4.670   0.848   4.892  1.2005  1.7510 -0.8425
 2940SOL    HW220700   4.707   0.838   5.039 -0.3624 -0.0443 -0.5607
 2941SOL     OW20701   3.218   2.871  16.733 -0.0931  0.0019 -0.0827
 2941SOL    HW120702   3.212   2.889  16.827 -0.9525  0.5874 -0.2513
 2941SOL    HW220703   3.204   2.776  16.726 -1.3288  0.1548  0.2639
 2942SOL     OW20704   2.550   0.561   2.151 -0.0800 -0.5311  0.6442
 2942SOL    HW120705   2.551   0.649   2.115 -1.0785 -0.6562  0.3200
 2942SOL    HW220706   2.486   0.514   2.098  1.0858 -1.6829  0.2717
 2943SOL     OW20707   1.227   0.310  18.155  0.4322  0.1556  0.2445
 2943SOL    HW120708   1.223   0.349  18.242  0.9495  0.7482  0.0025
 2943SOL    HW220709   1.241   0.216  18.171 -0.2606  0.1487  0.8078
 2944SOL     OW20710   2.019   4.293  18.002 -0.2330  0.0570  0.4236
 2944SOL    HW120711   1.984   4.205  18.009 -0.6848  0.2285  0.3490
 2944SOL    HW220712   1.941   4.350  18.004 -0.0768  0.3538 -1.3882
 2945SOL     OW20713   2.404   3.677  17.873 -0.2388 -0.3596 -0.3529
 2945SOL    HW120714   2.452   3.677  17.956  0.6039 -1.6555 -0.8573
 2945SOL    HW220715   2.449   3.613  17.818 -1.2838 -0.0809 -1.5390
 2946SOL     OW20716   4.003   2.006  19.187  0.7098  0.1618  0.3242
 2946SOL    HW120717   3.940   1.972  19.249  0.3275 -2.1608 -1.3521
 2946SOL    HW220718   3.964   2.087  19.155 -0.9107 -0.7216  0.0897
 2947SOL     OW20719   2.961   2.611   4.895  0.0376  0.0086 -0.4157
 2947SOL    HW120720   2.871   2.617   4.861 -0.5681  0.6214  1.3160
 2947SOL    HW220721   3.006   2.687   4.857 -0.0573 -0.5769 -1.6812
 2948SOL     OW20722   0.780   2.495   3.982 -0.4784 -0.0107 -0.0805
 2948SOL    HW120723   0.804   2.575   4.028 -0.1483  0.1818 -0.5837
 2948SOL    HW220724   0.743   2.439   4.049 -1.1278  0.7412  0.1955
 2949SOL     OW20725   2.304   4.656  18.600  0.1353 -0.6783  0.0022
 2949SOL    HW120726   2.252   4.668  18.521  2.0789 -0.3896 -1.2223
 2949SOL    HW220727   2.376   4.717  18.591  1.3704 -1.9745  1.1180
 2950SOL     OW20728   0.913   1.756   7.592 -0.4767 -0.0621  0.2790
 2950SOL    HW120729   1.008   1.769   7.586 -0.3699 -0.4571  0.9761
 2950SOL    HW220730   0.882   1.762   7.502  0.5261 -2.2446 -0.2254
 2951SOL     OW20731   1.441   3.634   9.901 -0.0441 -0.1171 -0.8259
 2951SOL    HW120732   1.472   3.573   9.835 -1.3555  1.5031 -2.9264
 2951SOL    HW220733   1.410   3.710   9.852 -1.1425  1.0311  1.6146
 2952SOL     OW20734   3.568   0.985   3.542  0.1978 -0.0284 -0.2769
 2952SOL    HW120735   3.519   0.984   3.624 -1.3802  1.7372 -1.2010
 2952SOL    HW220736   3.514   0.935   3.481  0.8441 -0.4132 -0.5365
 2953SOL     OW20737   4.479   2.208  11.742 -0.0947 -0.1144 -0.0305
 2953SOL    HW120738   4.463   2.125  11.785 -0.8378 -0.7898 -1.6087
 2953SOL    HW220739   4.434   2.201  11.658  1.5409  1.1084 -1.0141
 2954SOL     OW20740   1.375   1.914  20.245 -0.0709  0.2147  0.1684
 2954SOL    HW120741   1.429   1.876  20.176 -1.7798  0.2997 -1.2204
 2954SOL    HW220742   1.438   1.944  20.311  1.5483  0.1019 -1.3225
 2955SOL     OW20743   2.799   4.123   1.167 -0.0244 -0.3040  0.7524
 2955SOL    HW120744   2.776   4.059   1.234 -0.6909 -0.0501  0.7659
 2955SOL    HW220745   2.852   4.188   1.213 -1.7371  0.6717  1.3722
 2956SOL     OW20746   0.145   1.535   8.033  0.0022  0.6455 -0.3886
 2956SOL    HW120747   0.142   1.622   7.992 -0.0536  1.5002  1.4254
 2956SOL    HW220748   0.224   1.494   7.998  1.1055  2.1927  0.2936
 2957SOL     OW20749   2.836   1.712   3.070 -0.5287 -0.5482  1.2306
 2957SOL    HW120750   2.811   1.686   2.982 -0.3040 -2.2436  1.6731
 2957SOL    HW220751   2.848   1.629   3.117  1.2029  0.3463  2.3261
 2958SOL     OW20752   1.756   2.223   8.557  0.8260  0.2523 -0.5357
 2958SOL    HW120753   1.678   2.196   8.508  0.4863  0.7391 -0.2779
 2958SOL    HW220754   1.824   2.233   8.491  1.1293 -1.9033 -0.5261
 2959SOL     OW20755   3.892   2.879  18.239  0.2751  0.5582 -0.6323
 2959SOL    HW120756   3.801   2.881  18.207  0.3166  2.2401 -0.6266
 2959SOL    HW220757   3.898   2.953  18.300  1.8958  0.9741 -1.2987
 2960SOL     OW20758   4.216   3.247  18.560 -0.2371 -0.3071 -0.1431
 2960SOL    HW120759   4.218   3.333  18.519  0.8198 -0.8066 -1.1165
 2960SOL    HW220760   4.261   3.259  18.644 -1.0303  0.3407  0.1852
 2961SOL     OW20761   3.796   0.315   1.533  0.1599 -0.0338  0.4684
 2961SOL    HW120762   3.831   0.249   1.474 -1.5201  0.1494 -0.7244
 2961SOL    HW220763   3.708   0.282   1.556  0.0523  0.8562  1.3246
 2962SOL     OW20764   0.303   3.671   7.164  0.5499 -0.4909 -0.1158
 2962SOL    HW120765   0.375   3.692   7.223  0.7572 -1.4491 -0.0178
 2962SOL    HW220766   0.345   3.649   7.081  0.2470  1.0432 -0.6646
 2963SOL     OW20767   3.609   0.323  21.013  0.3303  0.0760 -0.1592
 2963SOL    HW120768   3.701   0.315  21.038  0.2444 -1.5147 -0.3666
 2963SOL    HW220769   3.605   0.405  20.963  1.4881  0.5364  0.5043
 2964SOL     OW20770   2.283   2.151   3.331  0.0635 -0.4225 -0.3467
 2964SOL    HW120771   2.315   2.240   3.316  2.2498 -1.2579 -0.7705
 2964SOL    HW220772   2.362   2.097   3.328 -1.1895 -2.3055  0.4509
 2965SOL     OW20773   2.426   2.590  16.407  0.3158  0.5498 -0.8768
 2965SOL    HW120774   2.485   2.647  16.357 -1.1211  2.0235 -0.8970
 2965SOL    HW220775   2.392   2.647  16.476  0.3290 -0.8067  0.2274
 2966SOL     OW20776   4.011   3.571   0.441 -0.3362  0.4390 -0.1987
 2966SOL    HW120777   3.976   3.483   0.424 -0.3472  0.2121  0.9809
 2966SOL    HW220778   4.097   3.556   0.480 -1.4747  0.9175  2.4812
 2967SOL     OW20779   2.727   2.342  15.538  0.4631 -0.2435 -0.5766
 2967SOL    HW120780   2.652   2.285  15.557 -0.6564  0.7353 -2.0669
 2967SOL    HW220781   2.739   2.336  15.443  2.3845 -0.5425 -0.3145
 2968SOL     OW20782   2.794   0.842  10.050  0.0272  0.2110  0.3345
 2968SOL    HW120783   2.786   0.749  10.028  0.6500  0.2714 -0.1509
 2968SOL    HW220784   2.888   0.857  10.058 -0.1972  0.2491  2.7890
 2969SOL     OW20785   2.028   4.706   2.631  0.8144  0.1668 -0.3425
 2969SOL    HW120786   1.978   4.727   2.710  1.5710  0.3031  0.0951
 2969SOL    HW220787   2.102   4.655   2.662 -0.3779 -2.1545 -1.2766
 2970SOL     OW20788   0.565   0.545  18.772 -0.0303 -0.0722 -0.0454
 2970SOL    HW120789   0.545   0.481  18.704 -0.4629  0.1031 -0.0849
 2970SOL    HW220790   0.641   0.592  18.740  0.5442 -0.8542  0.1771
 2971SOL     OW20791   2.259   0.132   2.771  0.0967 -0.2484  0.1605
 2971SOL    HW120792   2.228   0.055   2.818  0.9770  0.3795  1.7739
 2971SOL    HW220793   2.330   0.099   2.716  0.6113 -0.5565  1.0030
 2972SOL     OW20794   3.859   1.351   7.993  0.5973 -0.5882  0.2546
 2972SOL    HW120795   3.777   1.390   7.964  1.0710  0.5295  0.4294
 2972SOL    HW220796   3.856   1.261   7.959 -0.7952 -0.6184  0.4713
 2973SOL     OW20797   1.534   3.167   1.594 -0.2821 -0.0783 -0.0776
 2973SOL    HW120798   1.537   3.262   1.582 -2.4979 -0.1055 -0.8423
 2973SOL    HW220799   1.562   3.154   1.685 -2.8957  1.5177  0.9693
 2974SOL     OW20800   3.360   1.198   4.564  0.1206 -0.3408  0.0900
 2974SOL    HW120801   3.355   1.278   4.617 -1.3038  1.9180 -3.4713
 2974SOL    HW220802   3.289   1.143   4.597 -0.1149  0.6504  1.2479
 2975SOL     OW20803   2.479   1.026   5.176  0.3803 -0.4231 -0.4360
 2975SOL    HW120804   2.392   1.025   5.135 -0.5860 -0.5007  1.6125
 2975SOL    HW220805   2.540   1.038   5.103 -1.3663 -0.2347 -1.8628
 2976SOL     OW20806   4.315   4.115   1.688 -0.4301 -0.4736  0.1621
 2976SOL    HW120807   4.379   4.057   1.729  1.1543  0.3003 -1.2147
 2976SOL    HW220808   4.364   4.161   1.620 -1.9334  1.6821  0.5224
 2977SOL     OW20809   2.187   4.078  20.727 -0.7462  0.9536  0.0620
 2977SOL    HW120810   2.266   4.132  20.737 -2.1476  2.8125  0.9980
 2977SOL    HW220811   2.221   3.990  20.710  1.5451  2.0295 -1.0192
 2978SOL     OW20812   3.054   3.401   2.743 -0.2829 -0.6000  0.6237
 2978SOL    HW120813   2.972   3.448   2.736 -0.1201 -0.2406  1.1614
 2978SOL    HW220814   3.032   3.311   2.718 -0.0788  0.2954 -2.8890
 2979SOL     OW20815   3.876   0.942  17.590  0.9365  0.1308  0.9095
 2979SOL    HW120816   3.946   0.900  17.540 -0.4788  0.3017 -1.2164
 2979SOL    HW220817   3.892   1.036  17.579  0.1979  0.1689  0.2006
 2980SOL     OW20818   3.888   0.660  11.606 -0.1475  0.1082 -0.7022
 2980SOL    HW120819   3.884   0.729  11.539 -2.0550  1.8073  1.1618
 2980SOL    HW220820   3.799   0.655  11.641  1.2731  0.4985  2.9994
 2981SOL     OW20821   2.510   4.057   3.586 -0.5416 -0.6890 -0.1565
 2981SOL    HW120822   2.534   4.129   3.528 -1.0943  1.0260  1.7359
 2981SOL    HW220823   2.521   4.092   3.674  2.8741 -4.1693  0.8049
 2982SOL     OW20824   0.362   2.209  20.829 -0.4594 -0.0850  0.3420
 2982SOL    HW120825   0.334   2.127  20.869 -1.3440  0.3913  0.6802
 2982SOL    HW220826   0.447   2.228  20.870 -0.0012 -1.1097 -0.1290
 2983SOL     OW20827   0.165   2.538  19.560  0.2597 -0.0880 -0.1612
 2983SOL    HW120828   0.070   2.550  19.560  0.1645 -0.7825 -1.9450
 2983SOL    HW220829   0.182   2.479  19.486  2.0839  0.0920  0.1007
 2984SOL     OW20830   0.201   3.739  21.002  1.1133 -0.4204  0.3534
 2984SOL    HW120831   0.135   3.672  21.021  0.4684 -0.1877 -1.0215
 2984SOL    HW220832   0.214   3.733  20.907  0.1601  2.2527  0.0539
 2985SOL     OW20833   4.423   2.504  18.592 -0.0723 -0.1966  0.1710
 2985SOL    HW120834   4.392   2.449  18.521  2.2457 -0.6499 -0.5127
 2985SOL    HW220835   4.452   2.443  18.659 -0.2679  0.2141  0.6355
 2986SOL     OW20836   1.956   2.872  16.502  0.0862  0.4842  0.4715
 2986SOL    HW120837   1.899   2.932  16.550 -0.8812 -0.3403  0.3574
 2986SOL    HW220838   2.037   2.920  16.490 -0.1342  1.1709  1.7881
 2987SOL     OW20839   1.447   0.561  19.014 -0.0332  0.2025 -0.0385
 2987SOL    HW120840   1.480   0.623  18.949  3.6027  0.1366  1.7107
 2987SOL    HW220841   1.468   0.601  19.098 -0.2106 -2.0657  1.0998
 2988SOL     OW20842   2.675   1.545   5.666 -0.0951  0.1621  0.5984
 2988SOL    HW120843   2.619   1.615   5.633 -0.7339 -0.0964  1.1367
 2988SOL    HW220844   2.763   1.584   5.671  0.1009  0.0220 -1.9586
 2989SOL     OW20845   4.295   4.120  18.177 -0.6965 -0.3240  0.7955
 2989SOL    HW120846   4.250   4.061  18.237 -1.2484 -0.4426  0.2691
 2989SOL    HW220847   4.366   4.068  18.141 -0.7038 -0.4248  0.9265
 2990SOL     OW20848   4.662   0.897  13.339  0.4083  0.4750 -0.8358
 2990SOL    HW120849   4.745   0.855  13.361 -0.2004  0.0862  0.7503
 2990SOL    HW220850   4.596   0.832  13.363 -0.4758  1.8019  0.3096
 2991SOL     OW20851   0.608   0.683   5.683 -0.3567 -0.0644  0.6659
 2991SOL    HW120852   0.602   0.634   5.765  0.3579 -0.3139  0.5665
 2991SOL    HW220853   0.696   0.721   5.684  0.1462 -1.1983 -0.6355
 2992SOL     OW20854   1.055   4.327  10.606  0.1845 -0.1559 -0.3596
 2992SOL    HW120855   1.090   4.359  10.523 -0.4585 -1.8118 -1.2699
 2992SOL    HW220856   0.974   4.378  10.618  0.8441  0.8614 -0.2001
 2993SOL     OW20857   3.979   3.215   3.361 -0.2725  0.4750 -0.4816
 2993SOL    HW120858   4.032   3.147   3.403 -0.8552 -0.7989 -1.8012
 2993SOL    HW220859   3.889   3.196   3.387 -0.4170  0.8729 -0.6823
 2994SOL     OW20860   3.273   3.136  18.601  0.0308 -0.0036 -0.5618
 2994SOL    HW120861   3.311   3.119  18.688 -1.6570 -0.0966  0.1585
 2994SOL    HW220862   3.318   3.215  18.571  0.8281 -0.1267  0.2817
 2995SOL     OW20863   2.406   0.563  19.366 -0.9771  0.0341 -0.5786
 2995SOL    HW120864   2.350   0.550  19.290 -0.6943 -0.0997 -0.7639
 2995SOL    HW220865   2.494   0.541  19.336 -0.6934  1.0799 -0.5309
 2996SOL     OW20866   0.628   3.963  16.186 -0.1619  0.5971 -0.1138
 2996SOL    HW120867   0.623   3.960  16.090 -0.2244  1.3930 -0.1382
 2996SOL    HW220868   0.547   3.923  16.216  0.0633 -0.0694 -0.3910
 2997SOL     OW20869   4.750   3.541  20.505  0.0672 -0.7805 -0.6254
 2997SOL    HW120870   4.680   3.519  20.444 -0.6600  1.7403 -0.7124
 2997SOL    HW220871   4.706   3.552  20.589  0.3124  1.1993 -0.7623
 2998SOL     OW20872   0.737   3.077  11.574  0.5843  0.5672  0.0331
 2998SOL    HW120873   0.728   3.100  11.666 -1.4348  0.0451 -0.0372
 2998SOL    HW220874   0.704   3.153  11.526  2.2601  1.1053 -0.2530
 2999SOL     OW20875   2.913   1.463  13.397 -0.1602 -0.4959  0.8118
 2999SOL    HW120876   2.980   1.492  13.459  0.7646  1.9328 -1.2765
 2999SOL    HW220877   2.830   1.483  13.439  0.4720  2.1587  0.8203
 3000SOL     OW20878   4.145   4.242   3.537  0.1854  0.5340 -0.1160
 3000SOL    HW120879   4.169   4.242   3.629  0.6351  1.6398 -0.2358
 3000SOL    HW220880   4.151   4.150   3.510 -0.4795  0.1452  1.0923
 3001SOL     OW20881   1.662   0.047   1.686 -0.5404 -0.1320 -0.0330
 3001SOL    HW120882   1.628   0.088   1.765  1.1088  0.7373  0.2230
 3001SOL    HW220883   1.688   0.119   1.630 -0.4195 -0.7777 -0.8150
 3002SOL     OW20884   0.384   0.488   7.627 -0.3994 -0.4621 -0.6343
 3002SOL    HW120885   0.371   0.402   7.587 -0.6655 -0.5382 -0.3854
 3002SOL    HW220886   0.479   0.502   7.623 -0.6203  0.3617 -2.9931
 3003SOL     OW20887   0.713   2.575   4.815  0.0054 -0.0398  0.4128
 3003SOL    HW120888   0.754   2.639   4.873  0.1717  0.4961 -0.2888
 3003SOL    HW220889   0.761   2.494   4.830  1.0960  0.4986 -0.1406
 3004SOL     OW20890   0.763   2.757  14.270  0.1715 -0.5865 -0.1201
 3004SOL    HW120891   0.747   2.787  14.181  0.7403 -2.1523 -0.7585
 3004SOL    HW220892   0.825   2.820  14.306 -0.3016  0.2220 -0.7233
 3005SOL     OW20893   1.095   0.793  18.834 -0.3837 -0.4252 -0.0277
 3005SOL    HW120894   1.113   0.883  18.860 -0.3929 -0.3233 -0.3763
 3005SOL    HW220895   1.037   0.801  18.759  1.4879 -0.6715 -1.5066
 3006SOL     OW20896   4.249   3.529   8.500 -0.2751  1.2087 -0.3018
 3006SOL    HW120897   4.177   3.535   8.562 -0.8255 -0.1886 -0.7880
 3006SOL    HW220898   4.287   3.616   8.498 -0.3328  1.2846  1.9158
 3007SOL     OW20899   1.371   3.788  18.273 -0.1125 -0.0884 -0.6468
 3007SOL    HW120900   1.421   3.767  18.351 -0.0765  1.4714 -0.2595
 3007SOL    HW220901   1.436   3.800  18.204  0.0622  2.0951 -0.1083
 3008SOL     OW20902   4.232   4.532   2.665  0.1545  0.4457 -0.5111
 3008SOL    HW120903   4.264   4.477   2.593  2.3949  0.3089  0.5986
 3008SOL    HW220904   4.311   4.556   2.714 -1.4307  0.2824  2.0973
 3009SOL     OW20905   2.118   1.422   7.926 -0.4745 -0.2219 -0.2667
 3009SOL    HW120906   2.131   1.392   8.016  1.9290  0.5942 -0.3159
 3009SOL    HW220907   2.168   1.361   7.873 -0.2325  0.4906 -0.8620
 3010SOL     OW20908   3.128   0.880  17.525 -0.3145  0.4310 -0.0639
 3010SOL    HW120909   3.180   0.931  17.463 -0.7085  0.8704 -0.0366
 3010SOL    HW220910   3.184   0.874  17.603 -0.3084  0.9142 -0.0286
 3011SOL     OW20911   1.001   1.984   8.306 -0.3126 -0.0240 -0.4542
 3011SOL    HW120912   1.065   2.054   8.317  0.7971 -0.9915 -0.6886
 3011SOL    HW220913   0.954   2.006   8.226 -1.1514  1.3768  0.4205
 3012SOL     OW20914   4.373   3.524  19.557  0.0850 -0.3848  0.0614
 3012SOL    HW120915   4.308   3.493  19.494 -0.1927  0.1396  0.0903
 3012SOL    HW220916   4.456   3.518  19.510 -0.0932 -0.1983 -0.2825
 3013SOL     OW20917   4.085   0.954  20.228 -0.2611 -0.1236  0.0284
 3013SOL    HW120918   4.083   1.049  20.222 -0.0421 -0.0250  1.5874
 3013SOL    HW220919   4.058   0.935  20.318  0.9999 -1.4775  0.1159
 3014SOL     OW20920   3.349   3.856  17.573  0.3560  0.1641 -0.3184
 3014SOL    HW120921   3.376   3.812  17.492  0.7585  0.8955 -0.5869
 3014SOL    HW220922   3.403   3.935  17.576 -0.4452  0.6981  0.0964
 3015SOL     OW20923   0.809   0.280   8.926 -0.0489  0.5793 -0.5162
 3015SOL    HW120924   0.901   0.256   8.912 -0.0939 -0.0196  0.2137
 3015SOL    HW220925   0.811   0.341   8.999 -0.5530 -1.8921  1.5735
 3016SOL     OW20926   2.540   0.565  13.263  0.1584 -0.4184 -0.2435
 3016SOL    HW120927   2.611   0.539  13.205 -0.5277  0.2188 -1.3721
 3016SOL    HW220928   2.518   0.654  13.236 -0.7737 -0.4459  0.3952
 3017SOL     OW20929   2.357   2.020   6.220  0.0322  0.6310  0.0615
 3017SOL    HW120930   2.271   2.059   6.227  0.4238  1.6509 -0.8038
 3017SOL    HW220931   2.393   2.055   6.138  1.5356  0.7575  0.7664
 3018SOL     OW20932   2.481   0.690   6.396  0.3701  0.7161 -0.1233
 3018SOL    HW120933   2.518   0.627   6.333 -0.0536 -1.1374  1.4910
 3018SOL    HW220934   2.557   0.737   6.430  0.9051 -0.6206  0.5136
 3019SOL     OW20935   3.949   1.573   8.099  0.4821 -0.3480 -0.3553
 3019SOL    HW120936   3.932   1.489   8.056  0.7618 -0.9990  0.8176
 3019SOL    HW220937   3.963   1.551   8.191  2.2436  0.8072 -0.3509
 3020SOL     OW20938   4.173   0.072   2.600 -0.2828 -0.5263 -0.2041
 3020SOL    HW120939   4.096   0.030   2.639  0.2517  0.4116  1.8804
 3020SOL    HW220940   4.216   0.116   2.674  1.9101 -0.5295 -1.4764
 3021SOL     OW20941   0.930   1.117  15.580  0.3649  0.1236 -0.7562
 3021SOL    HW120942   1.004   1.086  15.528  0.2418 -0.5939 -0.5052
 3021SOL    HW220943   0.951   1.090  15.670  0.8405  1.8354 -0.3536
 3022SOL     OW20944   1.158   3.638   9.168  0.5991  0.5235 -0.0740
 3022SOL    HW120945   1.198   3.691   9.098 -1.4220  0.7536 -1.0394
 3022SOL    HW220946   1.106   3.701   9.219  0.4249 -0.0305  0.4339
 3023SOL     OW20947   1.705   2.678  16.371  0.7538  0.0295  0.1027
 3023SOL    HW120948   1.741   2.615  16.309  2.4019  0.9711  0.0958
 3023SOL    HW220949   1.768   2.679  16.444 -0.5318 -0.1630  1.2245
 3024SOL     OW20950   2.413   2.990  17.302  0.1593 -0.2610  0.6851
 3024SOL    HW120951   2.461   3.051  17.245  1.2268 -1.4420  0.3201
 3024SOL    HW220952   2.381   3.045  17.373  0.9183  0.7861  0.2319
 3025SOL     OW20953   1.326   0.062  18.270 -0.1120 -0.0260  0.3604
 3025SOL    HW120954   1.417   0.069  18.241 -0.0599 -0.0333  0.5229
 3025SOL    HW220955   1.332   0.024  18.358 -0.4500 -3.0636 -0.9301
 3026SOL     OW20956   1.567   1.092  17.658 -0.4947  0.0939 -0.0760
 3026SOL    HW120957   1.611   1.013  17.626  0.6170  0.6965 -0.0356
 3026SOL    HW220958   1.523   1.128  17.581  0.4070  0.3647 -0.4625
 3027SOL     OW20959   1.017   3.219  18.257  0.3143  0.1592 -0.0833
 3027SOL    HW120960   1.007   3.269  18.176 -0.2277 -0.9008 -0.6666
 3027SOL    HW220961   0.928   3.212  18.291  0.6051  1.0358  0.8598
 3028SOL     OW20962   3.240   0.071  14.304 -0.0188 -0.0714 -0.1268
 3028SOL    HW120963   3.317   0.122  14.330  1.4347 -1.1867 -2.2603
 3028SOL    HW220964   3.251   4.762  14.347  0.6403 -0.7069 -1.5340
 3029SOL     OW20965   2.857   1.261   4.722 -0.1897 -0.4335 -0.5477
 3029SOL    HW120966   2.777   1.230   4.765 -0.8057  1.5913 -0.2515
 3029SOL    HW220967   2.923   1.263   4.791  0.1730 -2.2216 -0.8167
 3030SOL     OW20968   0.501   4.316   2.933  0.9430 -0.2221 -0.0887
 3030SOL    HW120969   0.427   4.354   2.979  1.7774  1.3655 -0.0570
 3030SOL    HW220970   0.556   4.278   3.003  1.2714  0.5376  0.0611
 3031SOL     OW20971   2.908   2.551   0.324  0.3994 -1.0129  0.1405
 3031SOL    HW120972   2.931   2.600   0.245 -2.0871 -1.1648 -0.6552
 3031SOL    HW220973   2.825   2.508   0.303 -0.0446 -1.3979  2.6801
 3032SOL     OW20974   0.808   0.711   1.764 -0.8665 -0.2198  0.0126
 3032SOL    HW120975   0.725   0.735   1.722 -0.6597  1.5354  0.6114
 3032SOL    HW220976   0.864   0.789   1.753  0.6653 -1.3744 -0.3266
 3033SOL     OW20977   1.984   2.813  11.167  0.1906 -0.6108 -0.0701
 3033SOL    HW120978   1.982   2.758  11.089  0.6311 -0.3433 -0.2701
 3033SOL    HW220979   1.897   2.853  11.171  0.7310  0.6964 -1.3736
 3034SOL     OW20980   4.138   0.342  17.983 -0.6053 -0.4428 -0.3439
 3034SOL    HW120981   4.190   0.340  17.903  3.5348  0.2682  2.2905
 3034SOL    HW220982   4.081   0.418  17.973 -0.1498 -0.4121 -2.6663
 3035SOL     OW20983   1.510   3.240   9.485 -0.1946 -0.2048 -0.1118
 3035SOL    HW120984   1.427   3.266   9.525  0.0374 -0.1183  0.3124
 3035SOL    HW220985   1.523   3.150   9.513 -0.7667 -0.6278 -1.2031
 3036SOL     OW20986   4.511   2.220   4.733 -0.0940 -0.5361  1.2385
 3036SOL    HW120987   4.446   2.212   4.663 -0.3847 -2.6839  1.7628
 3036SOL    HW220988   4.533   2.313   4.735 -1.4451 -0.1910 -0.4904
 3037SOL     OW20989   2.706   0.836  20.971 -0.0824 -0.3215 -0.1819
 3037SOL    HW120990   2.674   0.806  21.056  1.9469  0.3247  0.8105
 3037SOL    HW220991   2.650   0.792  20.907 -1.3334 -1.1328  1.4708
 3038SOL     OW20992   1.703   0.533  18.154 -0.1580  0.1807 -0.3219
 3038SOL    HW120993   1.699   0.444  18.191  0.1612  0.4722  0.4043
 3038SOL    HW220994   1.764   0.580  18.211 -2.9757  1.8289  1.2808
 3039SOL     OW20995   4.639   2.446   2.103  0.0304  0.2561  0.7979
 3039SOL    HW120996   4.545   2.460   2.114 -0.1412 -0.8006  0.7025
 3039SOL    HW220997   4.669   2.523   2.057 -1.1855 -0.4394 -1.1796
 3040SOL     OW20998   0.205   4.085  19.395 -0.0622  0.4501 -0.0722
 3040SOL    HW120999   0.259   4.093  19.316 -0.2445  0.6215 -0.1763
 3040SOL    HW221000   0.267   4.054  19.462  0.0232 -0.0027 -0.3580
 3041SOL     OW21001   4.429   1.851  16.382 -0.4234 -0.0090  0.4334
 3041SOL    HW121002   4.494   1.901  16.333  0.9376 -1.5240  0.6718
 3041SOL    HW221003   4.430   1.764  16.342 -0.1443 -0.9060  2.3777
 3042SOL     OW21004   3.307   4.318   0.648  0.2669 -0.3347 -0.2935
 3042SOL    HW121005   3.306   4.231   0.608  0.6908 -0.6390  0.3489
 3042SOL    HW221006   3.215   4.336   0.668  0.2063 -0.7471 -0.1923
 3043SOL     OW21007   0.145   1.515   4.335 -0.3226 -0.0746 -0.1821
 3043SOL    HW121008   0.071   1.472   4.292  0.2386 -1.1917 -0.0310
 3043SOL    HW221009   0.200   1.443   4.366 -0.3832  0.7498  1.8270
 3044SOL     OW21010   2.899   0.266   6.828 -0.3571  0.1337 -0.1464
 3044SOL    HW121011   2.833   0.237   6.765 -0.5131 -1.8338  0.9107
 3044SOL    HW221012   2.955   0.189   6.841  0.2821  0.8504  1.3363
 3045SOL     OW21013   3.224   3.152  16.650  0.1652  0.5498 -0.2516
 3045SOL    HW121014   3.146   3.148  16.595  0.3158  0.9100 -0.4935
 3045SOL    HW221015   3.246   3.061  16.667 -1.2469  0.4777  1.1555
 3046SOL     OW21016   1.179   1.388   0.268  0.2503 -0.2354  0.5044
 3046SOL    HW121017   1.175   1.467   0.322  2.4430  0.2848 -0.0635
 3046SOL    HW221018   1.149   1.417   0.182  0.3773 -0.1750  0.4797
 3047SOL     OW21019   1.983   0.126   4.350  0.7127 -0.3007  0.5778
 3047SOL    HW121020   2.019   0.212   4.367  0.3070 -0.1899  0.8671
 3047SOL    HW221021   1.950   0.131   4.260 -2.3054  0.8603  1.7521
 3048SOL     OW21022   0.554   0.302   1.842 -0.4904 -0.5578 -0.2424
 3048SOL    HW121023   0.585   0.388   1.872 -0.9593 -0.8397  1.0129
 3048SOL    HW221024   0.576   0.301   1.749 -0.0456  0.7379 -0.1568
 3049SOL     OW21025   0.515   4.577  17.212 -0.5017  0.1518  0.1745
 3049SOL    HW121026   0.553   4.603  17.128 -1.8837 -1.4415 -0.9563
 3049SOL    HW221027   0.540   4.485  17.221 -1.2736  0.0290  0.9962
 3050SOL     OW21028   0.366   3.180   4.705 -0.1326  0.0727 -0.2361
 3050SOL    HW121029   0.459   3.197   4.687  0.0492 -0.9360 -0.2234
 3050SOL    HW221030   0.361   3.170   4.800 -0.2926  0.3396 -0.2155
 3051SOL     OW21031   3.384   4.593   4.851  0.1054  0.5778  0.2496
 3051SOL    HW121032   3.418   4.622   4.767 -0.5897 -0.9260 -0.5570
 3051SOL    HW221033   3.455   4.541   4.889 -1.0655 -2.1049 -1.1930
 3052SOL     OW21034   0.266   2.367  20.475 -0.5527  0.6453 -0.4122
 3052SOL    HW121035   0.213   2.338  20.402 -0.7141 -0.9835  0.3485
 3052SOL    HW221036   0.305   2.287  20.510  2.9261  1.9099 -1.3898
 3053SOL     OW21037   2.282   3.596  17.614  0.0599 -0.5854  0.1519
 3053SOL    HW121038   2.260   3.504  17.630  1.4250 -0.9216  0.1103
 3053SOL    HW221039   2.374   3.604  17.642 -1.0249  1.4895  3.1133
 3054SOL     OW21040   3.463   2.186  10.376 -0.4007 -0.2866  0.3423
 3054SOL    HW121041   3.551   2.186  10.414 -0.5022 -1.2339  0.5722
 3054SOL    HW221042   3.405   2.164  10.448 -0.5386 -2.6443 -0.4869
 3055SOL     OW21043   1.533   3.442  20.960 -0.0618  0.3305 -0.1579
 3055SOL    HW121044   1.599   3.381  20.927  0.7019  0.7012  0.6861
 3055SOL    HW221045   1.584   3.510  21.005 -1.0217  0.5989  0.5155
 3056SOL     OW21046   0.249   4.466   3.892 -0.0849 -0.1238  0.5001
 3056SOL    HW121047   0.321   4.529   3.892  0.1731 -0.4221  0.7234
 3056SOL    HW221048   0.256   4.420   3.975 -0.4818 -0.2141  0.4860
 3057SOL     OW21049   4.160   2.151  16.669  0.2641 -0.7684 -0.2427
 3057SOL    HW121050   4.200   2.078  16.717 -0.9362 -0.5099  1.1465
 3057SOL    HW221051   4.233   2.212  16.653  0.4463 -0.3278  2.2439
 3058SOL     OW21052   1.298   0.904  15.638  0.2313  0.5192 -0.2561
 3058SOL    HW121053   1.252   0.863  15.711 -0.5049  0.3699 -0.8131
 3058SOL    HW221054   1.388   0.874  15.647 -0.7682 -3.0253 -2.0004
 3059SOL     OW21055   0.462   2.465   2.534  0.3008 -0.2848 -0.2564
 3059SOL    HW121056   0.424   2.377   2.536  1.0091 -0.5425  2.6483
 3059SOL    HW221057   0.387   2.524   2.537 -0.1810 -0.8103 -2.3023
 3060SOL     OW21058   4.705   0.396  18.382 -0.1029 -0.0710  0.7887
 3060SOL    HW121059   4.711   0.362  18.471 -0.0273  1.8091  1.4925
 3060SOL    HW221060   0.010   0.368  18.340  0.2098 -0.2810  1.5338
 3061SOL     OW21061   0.070   0.482   0.748  0.0756  0.1947 -0.0342
 3061SOL    HW121062   0.148   0.537   0.757  0.0980  0.0685  0.5350
 3061SOL    HW221063   0.000   0.533   0.790 -0.0631  0.1324 -0.1904
 3062SOL     OW21064   4.551   4.611   3.970  0.4812  0.0271 -0.2841
 3062SOL    HW121065   4.567   4.629   4.063 -0.2261 -1.2791  0.0871
 3062SOL    HW221066   4.506   4.526   3.970 -0.4780  0.5609 -1.7602
 3063SOL     OW21067   3.142   1.087   2.255  0.7922  0.3700 -0.2398
 3063SOL    HW121068   3.159   1.068   2.163  0.4913  0.1054 -0.2390
 3063SOL    HW221069   3.188   1.170   2.271  3.1529 -1.0013  0.0983
 3064SOL     OW21070   2.999   3.031  19.954  0.4495 -0.4152  0.2827
 3064SOL    HW121071   2.986   3.013  20.047  0.4008  2.0408  0.7496
 3064SOL    HW221072   3.094   3.030  19.943  0.4426 -1.0686  0.2923
 3065SOL     OW21073   3.673   1.648  18.991  0.4661  0.6449 -0.8414
 3065SOL    HW121074   3.612   1.614  18.925  1.4895  0.6669 -1.7897
 3065SOL    HW221075   3.758   1.614  18.965  1.2014  2.3684 -0.7174
 3066SOL     OW21076   1.576   0.662   1.532  0.4100  0.0743  0.1085
 3066SOL    HW121077   1.653   0.663   1.588  1.3088  2.5314 -1.1733
 3066SOL    HW221078   1.515   0.723   1.573  0.4523  0.6864 -0.7370
 3067SOL     OW21079   1.317   3.612   7.990 -0.0877  0.2343 -0.0719
 3067SOL    HW121080   1.410   3.601   7.975  0.0167  0.5399  0.3630
 3067SOL    HW221081   1.308   3.621   8.085 -0.6678 -0.9388 -0.0146
 3068SOL     OW21082   3.789   3.870  19.691 -0.3997 -0.3540 -0.1323
 3068SOL    HW121083   3.764   3.941  19.750 -0.0126 -0.5835  0.3029
 3068SOL    HW221084   3.843   3.812  19.744  0.1391 -0.4378 -0.7741
 3069SOL     OW21085   1.455   0.614   0.585  0.2999 -0.3611 -0.4332
 3069SOL    HW121086   1.436   0.552   0.654 -0.5333  0.7682  0.3493
 3069SOL    HW221087   1.551   0.615   0.579  0.2956 -2.0032 -0.7129
 3070SOL     OW21088   3.052   1.835   3.280 -0.2580 -0.6453  0.0884
 3070SOL    HW121089   3.024   1.744   3.295 -3.8559  0.3208 -0.5999
 3070SOL    HW221090   2.985   1.887   3.325  1.5079  1.6832 -0.0218
 3071SOL     OW21091   1.818   0.845  11.651 -0.5327 -0.2206 -0.2126
 3071SOL    HW121092   1.904   0.882  11.667 -0.3473 -0.1762 -1.3001
 3071SOL    HW221093   1.773   0.912  11.598 -1.2217 -0.2510  0.3306
 3072SOL     OW21094   3.217   2.458  17.698  0.2787  0.0365  0.3869
 3072SOL    HW121095   3.220   2.480  17.605  1.1426 -0.0683  0.3885
 3072SOL    HW221096   3.257   2.371  17.703  0.9177  0.3679  0.9578
 3073SOL     OW21097   4.048   1.609  17.992 -0.6489  0.3691 -0.1265
 3073SOL    HW121098   3.976   1.672  17.985 -0.7093  0.3695  0.4950
 3073SOL    HW221099   4.123   1.652  17.951 -0.4868  1.1400  0.9971
 3074SOL     OW21100   3.842   0.226   0.663 -0.2040 -0.2542 -0.4935
 3074SOL    HW121101   3.854   0.250   0.571  0.9643 -1.2152 -0.5965
 3074SOL    HW221102   3.765   0.169   0.664 -2.5309  2.9225 -0.3506
 3075SOL     OW21103   4.567   1.117  15.383 -0.5949 -0.7399 -0.3114
 3075SOL    HW121104   4.605   1.055  15.445  0.7954  0.6800  0.2606
 3075SOL    HW221105   4.519   1.179  15.438  2.6783  1.9284 -0.5079
 3076SOL     OW21106   4.578   3.844  20.100 -0.0071 -0.3257  0.4725
 3076SOL    HW121107   4.618   3.758  20.115  2.5525  1.0607  1.6656
 3076SOL    HW221108   4.653   3.904  20.094 -1.7411  1.5944 -1.7712
 3077SOL     OW21109   0.802   0.669  18.155  0.5082  0.0782 -0.2751
 3077SOL    HW121110   0.890   0.699  18.132  0.6552 -0.7040 -0.7327
 3077SOL    HW221111   0.814   0.579  18.184  0.0467  0.4227  0.9827
 3078SOL     OW21112   1.549   4.581  20.284  0.2320  0.0443 -0.3730
 3078SOL    HW121113   1.574   4.606  20.195  1.5504  1.5772  0.4433
 3078SOL    HW221114   1.567   4.658  20.337 -0.7844 -0.7998  1.1917
 3079SOL     OW21115   3.522   2.713  16.487 -0.1578  0.2802 -0.1697
 3079SOL    HW121116   3.584   2.771  16.531  1.1164 -1.6801  0.6547
 3079SOL    HW221117   3.577   2.656  16.433 -1.3106 -0.8267 -0.1790
 3080SOL     OW21118   3.635   3.590  17.533  0.0197  0.3574 -0.1164
 3080SOL    HW121119   3.657   3.652  17.602  0.1969  0.0215  0.1278
 3080SOL    HW221120   3.672   3.628  17.453  3.3135 -1.2428  0.6441
 3081SOL     OW21121   3.719   4.717   5.185 -0.3358  0.3898  0.0035
 3081SOL    HW121122   3.696   4.653   5.118  0.9141  1.2538 -1.2572
 3081SOL    HW221123   3.728   4.666   5.265 -1.1695 -0.7381 -0.6190
 3082SOL     OW21124   0.075   2.352  12.962  0.7508 -0.1045 -0.1696
 3082SOL    HW121125   0.006   2.290  12.985 -0.0855  0.9341  0.1304
 3082SOL    HW221126   0.044   2.435  12.998  1.1949  0.7609 -1.8301
 3083SOL     OW21127   3.163   1.305  14.844 -0.3902  0.2643 -0.0141
 3083SOL    HW121128   3.116   1.372  14.894 -0.8235  0.4508 -0.6716
 3083SOL    HW221129   3.255   1.322  14.863 -0.5231  0.7230  0.2376
 3084SOL     OW21130   2.596   4.644  19.595 -0.1998  0.0099 -0.4814
 3084SOL    HW121131   2.600   4.555  19.562 -1.7724  0.0436 -0.7716
 3084SOL    HW221132   2.533   4.688  19.537 -1.1243  0.7083  1.0634
 3085SOL     OW21133   1.401   2.556  21.096  0.1464 -0.2298  0.2488
 3085SOL    HW121134   1.381   2.473  21.139 -0.1032 -0.1794  0.2262
 3085SOL    HW221135   1.486   2.541  21.055 -0.2817 -0.7408 -0.4469
 3086SOL     OW21136   3.163   2.283  17.965  0.4122  0.1491  0.3749
 3086SOL    HW121137   3.256   2.292  17.946  0.2403  0.2888 -0.4024
 3086SOL    HW221138   3.125   2.367  17.940 -0.1577 -0.4336 -0.7618
 3087SOL     OW21139   4.561   1.096  18.005  0.4261 -0.2473 -0.0332
 3087SOL    HW121140   4.533   1.110  17.915 -0.0887 -2.6496 -0.2444
 3087SOL    HW221141   4.603   1.010  18.004  4.1205  1.5137  1.1414
 3088SOL     OW21142   3.314   2.293   5.223 -0.3482 -0.4855 -0.6755
 3088SOL    HW121143   3.259   2.225   5.184 -0.5782 -1.6373  1.6690
 3088SOL    HW221144   3.260   2.330   5.293  0.9779 -0.0389  0.1138
 3089SOL     OW21145   2.374   0.314   5.259  0.3259 -0.0356 -0.0921
 3089SOL    HW121146   2.293   0.269   5.234 -0.4979  1.3045  0.1694
 3089SOL    HW221147   2.374   0.312   5.355  0.6883 -0.1953 -0.0961
 3090SOL     OW21148   3.364   0.118   7.348  0.1691  0.0776  0.7080
 3090SOL    HW121149   3.291   0.167   7.386  1.3035  0.0823  2.8737
 3090SOL    HW221150   3.333   0.027   7.345 -1.1504  0.5987 -1.3835
 3091SOL     OW21151   2.543   3.743   5.969 -0.1982 -0.1025  0.1809
 3091SOL    HW121152   2.596   3.794   6.030  0.3068 -1.3677  0.7923
 3091SOL    HW221153   2.453   3.754   6.001 -0.1085  0.5192  0.2256
 3092SOL     OW21154   2.952   3.513  13.946  0.3007 -0.2797  0.2137
 3092SOL    HW121155   2.862   3.544  13.958  0.6890  0.9852 -0.1672
 3092SOL    HW221156   2.978   3.480  14.032 -0.1147  0.4146  0.5997
 3093SOL     OW21157   4.365   0.992  20.233  0.2561  0.1134  0.0309
 3093SOL    HW121158   4.279   0.954  20.244 -0.2625  1.2250 -0.1536
 3093SOL    HW221159   4.381   0.989  20.139  0.6190 -0.5474  0.1182
 3094SOL     OW21160   2.877   3.273  13.604 -0.7058  0.1203 -0.2655
 3094SOL    HW121161   2.934   3.260  13.529  0.1512  1.6880  0.1145
 3094SOL    HW221162   2.808   3.207  13.594  2.1976 -2.9829  0.2673
 3095SOL     OW21163   0.265   3.929   3.475 -0.3549  0.4506  0.2207
 3095SOL    HW121164   0.350   3.953   3.438  0.1666  1.1429  1.8396
 3095SOL    HW221165   0.201   3.974   3.421  0.2457 -1.2538 -1.9239
 3096SOL     OW21166   2.852   1.387   2.940  0.3647 -0.4888  0.3198
 3096SOL    HW121167   2.931   1.408   2.890 -0.0919 -0.3329 -0.3269
 3096SOL    HW221168   2.788   1.359   2.875  0.0504 -1.1211  0.8971
 3097SOL     OW21169   3.347   0.874   1.355  0.1638 -0.1821  0.3291
 3097SOL    HW121170   3.340   0.787   1.314 -0.1172 -0.3828  0.8026
 3097SOL    HW221171   3.427   0.869   1.408  0.7033  0.1855 -0.4581
 3098SOL     OW21172   1.728   4.191  18.937 -0.6415  0.0525  0.3510
 3098SOL    HW121173   1.767   4.114  18.979  0.9076  0.0975 -0.9892
 3098SOL    HW221174   1.696   4.159  18.853 -1.5709  0.4846  0.5467
 3099SOL     OW21175   4.307   4.102  12.803 -0.5217 -0.7305 -0.7051
 3099SOL    HW121176   4.310   4.148  12.887  1.6187 -0.2455 -1.0517
 3099SOL    HW221177   4.289   4.011  12.826 -2.2279 -0.1844  0.1320
 3100SOL     OW21178   1.754   2.329   0.279 -0.5704 -0.0146 -0.2000
 3100SOL    HW121179   1.814   2.354   0.208 -0.9661  0.6898 -0.2839
 3100SOL    HW221180   1.785   2.377   0.355 -2.2551  1.9115 -0.7251
 3101SOL     OW21181   0.489   0.195  19.124 -0.5301  0.0349 -0.0737
 3101SOL    HW121182   0.411   0.151  19.160 -0.0592 -0.0138  0.8845
 3101SOL    HW221183   0.453   0.267  19.073 -1.1921  0.3064  0.7667
 3102SOL     OW21184   3.285   3.887  18.483  0.3775  0.3049  0.6652
 3102SOL    HW121185   3.362   3.874  18.429  0.4592  0.1278  0.8236
 3102SOL    HW221186   3.239   3.961  18.443 -1.8638 -2.6540 -2.2987
 3103SOL     OW21187   1.757   0.200   2.952 -0.2116 -0.0736  0.4298
 3103SOL    HW121188   1.724   0.147   3.024  0.4950 -0.5502  0.4073
 3103SOL    HW221189   1.830   0.249   2.990  0.7885 -1.0633 -0.2120
 3104SOL     OW21190   2.568   1.000   2.721  0.1094 -0.1240  0.1776
 3104SOL    HW121191   2.475   0.999   2.698  0.5018  1.0489 -1.3847
 3104SOL    HW221192   2.614   0.993   2.638  1.4387 -0.5258  0.9452
 3105SOL     OW21193   0.520   1.300   2.693 -0.0495 -0.2172  0.0706
 3105SOL    HW121194   0.485   1.211   2.685 -1.8967  0.4005  1.3308
 3105SOL    HW221195   0.452   1.348   2.740  1.2367  1.7040 -0.0562
 3106SOL     OW21196   2.196   2.885  10.830  0.4265  0.0138 -0.0733
 3106SOL    HW121197   2.118   2.831  10.830  1.0186 -0.8418 -0.6640
 3106SOL    HW221198   2.188   2.939  10.908 -0.8211  0.0259 -0.2039
 3107SOL     OW21199   0.849   1.398   6.614  0.3284 -0.5877 -0.5415
 3107SOL    HW121200   0.773   1.347   6.586 -0.8711  1.5272 -1.1737
 3107SOL    HW221201   0.892   1.424   6.532 -0.3282  1.3039 -0.2870
 3108SOL     OW21202   1.682   0.864  19.133  0.6323  0.7267  0.3592
 3108SOL    HW121203   1.597   0.879  19.176  0.0256 -0.9215 -0.2483
 3108SOL    HW221204   1.663   0.869  19.040  0.7759 -1.8236  0.1772
 3109SOL     OW21205   3.136   2.102   2.879  0.1723  0.1389 -0.1074
 3109SOL    HW121206   3.175   2.031   2.930  0.2111 -0.0454 -0.3943
 3109SOL    HW221207   3.139   2.071   2.789 -3.2886 -1.0962  0.2146
 3110SOL     OW21208   4.197   1.976   3.037  0.3503 -0.3302 -0.0334
 3110SOL    HW121209   4.163   1.909   2.978  1.0563 -1.0386  0.3797
 3110SOL    HW221210   4.168   2.059   2.998  1.4154 -0.7779 -1.7301
 3111SOL     OW21211   2.826   2.555   9.601 -0.0507  0.2243 -0.3093
 3111SOL    HW121212   2.807   2.648   9.616 -2.1310 -0.2620  0.1269
 3111SOL    HW221213   2.920   2.552   9.582  0.3897  2.1775  1.6095
 3112SOL     OW21214   0.714   4.439   4.363  0.2935 -0.0880 -0.1826
 3112SOL    HW121215   0.683   4.527   4.386 -0.5311 -0.1163 -1.1749
 3112SOL    HW221216   0.808   4.449   4.350  0.1295  0.7379 -0.7241
 3113SOL     OW21217   0.122   2.340  14.406 -0.0910 -0.6564 -0.2688
 3113SOL    HW121218   0.158   2.322  14.493 -1.6037  0.9338  0.6795
 3113SOL    HW221219   0.141   2.433  14.391  1.5114 -1.2848 -2.2780
 3114SOL     OW21220   3.943   1.505  16.794  0.1799 -0.0016 -0.3560
 3114SOL    HW121221   3.925   1.528  16.703 -1.1259 -1.4069 -0.4624
 3114SOL    HW221222   3.945   1.409  16.794 -0.7167 -0.0237  1.2663
 3115SOL     OW21223   4.316   0.050  21.087  0.1903 -0.1567  1.3469
 3115SOL    HW121224   4.240   0.033  21.033  1.1553  0.5567 -0.2465
 3115SOL    HW221225   4.286   0.035  21.177 -2.0516  0.9859  0.7861
 3116SOL     OW21226   0.993   1.785   2.903 -0.2481 -0.2445  0.3683
 3116SOL    HW121227   0.916   1.825   2.944 -0.4551  1.0525 -1.2812
 3116SOL    HW221228   1.054   1.770   2.976 -1.5305 -0.0465  1.4807
 3117SOL     OW21229   1.883   0.394  15.599 -0.4720  0.4372 -0.6182
 3117SOL    HW121230   1.835   0.347  15.666  1.6365 -0.4794  0.2371
 3117SOL    HW221231   1.856   0.485  15.610 -1.3977  0.0431  0.3817
 3118SOL     OW21232   3.704   2.148   4.223 -0.3180 -0.0477 -0.3705
 3118SOL    HW121233   3.614   2.143   4.191 -0.0560 -0.6691 -1.0042
 3118SOL    HW221234   3.726   2.059   4.249  0.0011  0.1680  0.1195
 3119SOL     OW21235   3.125   0.727   0.855  0.1005 -0.4266 -0.0808
 3119SOL    HW121236   3.218   0.723   0.876 -0.5717 -3.0555  2.3685
 3119SOL    HW221237   3.120   0.698   0.763  1.6421 -0.6628 -0.0937
 3120SOL     OW21238   2.671   4.119  18.147 -0.1492 -0.1876  0.0018
 3120SOL    HW121239   2.717   4.200  18.129  0.5831 -0.4257  0.7926
 3120SOL    HW221240   2.598   4.145  18.202 -1.0698  0.2162 -1.4077
 3121SOL     OW21241   4.652   2.070   3.252 -0.0956  0.4429 -0.1120
 3121SOL    HW121242   4.576   2.120   3.220  0.1857  1.8883  1.4884
 3121SOL    HW221243   4.637   2.062   3.346  1.1547 -0.2849  0.0146
 3122SOL     OW21244   4.516   2.124  18.103  0.1046  0.5727 -0.5508
 3122SOL    HW121245   4.575   2.163  18.038 -1.7535  1.4672 -1.6833
 3122SOL    HW221246   4.537   2.031  18.100 -1.0543  0.4091 -3.5109
 3123SOL     OW21247   4.543   1.664   5.385 -0.0330 -0.2077 -0.0821
 3123SOL    HW121248   4.487   1.625   5.318 -1.8296 -0.5242  1.5939
 3123SOL    HW221249   4.619   1.697   5.337 -2.1440  1.1234 -2.5047
 3124SOL     OW21250   0.042   1.106   0.932  0.1496 -0.1700 -0.4852
 3124SOL    HW121251   4.775   1.115   1.017  0.8551 -2.1772  0.1046
 3124SOL    HW221252   0.109   1.174   0.932 -0.0645  0.0400  0.4441
 3125SOL     OW21253   2.245   2.400   0.720 -0.3333 -0.6468  0.4169
 3125SOL    HW121254   2.234   2.492   0.699 -1.0568 -0.5801  1.0702
 3125SOL    HW221255   2.158   2.362   0.704  0.1950 -1.3835 -0.7171
 3126SOL     OW21256   0.435   2.560   4.997  0.1214  0.0884 -0.2956
 3126SOL    HW121257   0.442   2.614   5.076 -0.2624  1.0340 -0.9018
 3126SOL    HW221258   0.345   2.529   4.996  0.6957 -1.5913  0.7207
 3127SOL     OW21259   2.064   3.296   1.397  0.5389  0.4410 -0.1233
 3127SOL    HW121260   2.138   3.249   1.435  0.3856 -0.2976 -0.7270
 3127SOL    HW221261   1.986   3.258   1.438  0.3954 -0.0768 -0.8852
 3128SOL     OW21262   1.692   4.759  18.962 -0.6225 -0.5811 -0.0039
 3128SOL    HW121263   1.736   4.691  18.911  0.1497  0.3458 -0.5704
 3128SOL    HW221264   1.602   4.729  18.970 -0.6386 -0.9159 -1.5844
 3129SOL     OW21265   4.333   1.174   4.190  0.1165 -0.0745 -0.1538
 3129SOL    HW121266   4.334   1.117   4.267 -0.0296  0.8453  0.5202
 3129SOL    HW221267   4.246   1.161   4.152  0.4707 -1.1216 -0.5980
 3130SOL     OW21268   2.763   2.071   0.571 -0.0231 -0.2653 -0.5004
 3130SOL    HW121269   2.788   2.140   0.509  0.3578  1.0227  1.0973
 3130SOL    HW221270   2.833   2.070   0.635 -2.4725  1.1357  2.1763
 3131SOL     OW21271   3.115   3.189   0.832 -0.2900  0.7049  0.3286
 3131SOL    HW121272   3.057   3.260   0.803  0.0751  0.6544 -0.5204
 3131SOL    HW221273   3.067   3.148   0.904 -1.4874  0.4108 -0.6291
 3132SOL     OW21274   1.351   3.044  12.461  0.0559 -0.1341 -0.1524
 3132SOL    HW121275   1.379   3.117  12.517  0.7342 -1.4848  1.2686
 3132SOL    HW221276   1.344   3.082  12.374  0.0352  1.7366  0.6558
 3133SOL     OW21277   0.657   2.340   0.542  0.4954  0.3370 -0.2530
 3133SOL    HW121278   0.672   2.253   0.580  1.5814  0.5389 -0.2234
 3133SOL    HW221279   0.576   2.331   0.492  1.6492 -1.1939 -1.8399
 3134SOL     OW21280   3.337   0.798  15.456  0.8404 -0.0740 -0.8419
 3134SOL    HW121281   3.249   0.764  15.439  1.6286 -1.6400 -1.8236
 3134SOL    HW221282   3.324   0.892  15.469 -1.1270 -0.4911  0.1903
 3135SOL     OW21283   1.619   4.562  16.601  0.3572 -0.3313 -0.2553
 3135SOL    HW121284   1.565   4.616  16.658  1.5306  1.1992 -0.5998
 3135SOL    HW221285   1.561   4.536  16.529 -0.1187  0.7063 -0.2446
 3136SOL     OW21286   4.538   0.127   7.173  0.0159  0.6212 -0.1403
 3136SOL    HW121287   4.451   0.088   7.178  0.4265 -0.1826  0.6920
 3136SOL    HW221288   4.560   0.125   7.080 -0.9597  1.0667 -0.3827
 3137SOL     OW21289   1.379   1.696   8.701 -0.2140  0.3190  0.2900
 3137SOL    HW121290   1.430   1.756   8.646 -1.6537 -0.2594 -1.6757
 3137SOL    HW221291   1.291   1.735   8.702 -0.2795  0.1138  1.8457
 3138SOL     OW21292   3.440   4.140  19.517  0.6202  0.0932  0.1021
 3138SOL    HW121293   3.352   4.111  19.542  1.0765 -1.0884  0.3232
 3138SOL    HW221294   3.499   4.078  19.560  1.4576 -0.8967 -2.4975
 3139SOL     OW21295   0.694   4.672   4.141 -0.5087  0.1487 -0.2141
 3139SOL    HW121296   0.656   4.674   4.229  1.1582  1.8593  0.4410
 3139SOL    HW221297   0.743   4.589   4.138  1.5338  1.2995  1.3219
 3140SOL     OW21298   4.478   0.132   7.452  0.1888  0.1274 -0.7402
 3140SOL    HW121299   4.504   0.111   7.362  0.8519  1.5051 -0.8751
 3140SOL    HW221300   4.392   0.173   7.443 -0.1080 -0.4823 -0.6752
 3141SOL     OW21301   1.294   0.988   5.117 -0.4638  0.1264 -0.5213
 3141SOL    HW121302   1.211   0.968   5.072 -0.4497 -0.8000 -0.1360
 3141SOL    HW221303   1.312   0.910   5.169 -0.8734  1.5386  1.7169
 3142SOL     OW21304   3.533   4.099  19.181  0.4624  0.1613 -0.0565
 3142SOL    HW121305   3.448   4.064  19.153 -0.1509  0.1493  1.8175
 3142SOL    HW221306   3.513   4.185  19.217  1.1080 -0.2593  1.3150
 3143SOL     OW21307   1.823   2.012  15.431 -0.3717 -0.5864 -0.0363
 3143SOL    HW121308   1.772   2.060  15.497 -0.5553  0.4964 -0.9718
 3143SOL    HW221309   1.757   1.971  15.375 -0.2121 -3.0494  1.5896
 3144SOL     OW21310   3.177   2.730   0.386 -0.4214 -0.1151  0.5187
 3144SOL    HW121311   3.234   2.682   0.327 -1.1834 -1.8826  1.2424
 3144SOL    HW221312   3.128   2.663   0.433 -0.9056  1.3190  2.0770
 3145SOL     OW21313   4.748   2.837  18.962  0.2108 -0.0444 -0.2971
 3145SOL    HW121314   0.046   2.844  19.022  1.2741  1.5872 -1.8004
 3145SOL    HW221315   4.672   2.864  19.013  1.0419  0.8054  0.4745
 3146SOL     OW21316   4.519   4.737  17.437 -0.8068 -0.3830  0.3704
 3146SOL    HW121317   4.534   0.055  17.451  0.2361 -0.5116  0.0991
 3146SOL    HW221318   4.427   4.724  17.461 -0.6002  0.4711  1.6775
 3147SOL     OW21319   2.012   2.935  15.289 -0.5244  0.7221 -0.3103
 3147SOL    HW121320   1.968   2.893  15.363  0.0901 -1.1858 -1.0087
 3147SOL    HW221321   2.102   2.948  15.320 -0.3237  0.1211 -0.6297
 3148SOL     OW21322   0.064   3.412   1.741 -0.0252  0.1750  0.4424
 3148SOL    HW121323   0.012   3.347   1.789  1.2514 -0.6953  0.6539
 3148SOL    HW221324   0.067   3.488   1.800 -1.7218  0.5301  0.0878
 3149SOL     OW21325   0.003   2.762  17.902 -0.8243  0.3280 -0.1135
 3149SOL    HW121326   4.743   2.718  17.979 -0.0425 -1.8692 -1.0059
 3149SOL    HW221327   0.084   2.803  17.934 -1.3669  0.8255  0.6276
 3150SOL     OW21328   3.919   2.302  21.144  0.3561  0.0300 -0.1685
 3150SOL    HW121329   3.929   2.278  21.051  0.4036  1.0542 -0.4274
 3150SOL    HW221330   3.848   2.367  21.144 -1.2334 -1.7307  0.7892
 3151SOL     OW21331   2.705   2.538   3.754 -0.3064 -0.2233 -0.5969
 3151SOL    HW121332   2.773   2.587   3.800 -1.1850  0.2853  0.1781
 3151SOL    HW221333   2.747   2.456   3.729  0.0634 -0.6831  1.5052
 3152SOL     OW21334   0.323   4.386  16.297  0.0844 -0.0041  0.1039
 3152SOL    HW121335   0.349   4.294  16.301 -0.1661 -0.1687 -1.8282
 3152SOL    HW221336   0.373   4.429  16.367 -0.6218 -1.8007  1.7021
 3153SOL     OW21337   2.174   1.642   4.495 -0.9275  0.1876 -0.7001
 3153SOL    HW121338   2.214   1.635   4.408  0.6416 -1.4167  0.1535
 3153SOL    HW221339   2.143   1.554   4.515  0.9850  0.0007  1.4581
 3154SOL     OW21340   3.394   1.215   2.725 -0.1102 -0.6327 -0.3674
 3154SOL    HW121341   3.379   1.138   2.670 -0.8557 -0.1217 -0.8866
 3154SOL    HW221342   3.464   1.263   2.681  1.6571 -1.9859  0.9731
 3155SOL     OW21343   4.276   2.961   4.176 -0.4171 -0.1119 -0.2066
 3155SOL    HW121344   4.227   2.910   4.241  1.1939 -1.8852 -0.3772
 3155SOL    HW221345   4.214   2.976   4.105 -0.3767 -3.3329 -0.9253
 3156SOL     OW21346   0.544   0.963  13.102 -0.4437  0.4864 -0.4200
 3156SOL    HW121347   0.581   1.051  13.102  0.3414  0.1643  0.5496
 3156SOL    HW221348   0.534   0.941  13.010 -0.0706  1.3518 -0.6696
 3157SOL     OW21349   2.805   3.209  19.045 -0.0306  0.4540  0.9066
 3157SOL    HW121350   2.718   3.207  19.004  0.4358 -0.0773 -0.0541
 3157SOL    HW221351   2.790   3.181  19.135 -0.2525 -3.4246 -0.3473
 3158SOL     OW21352   0.003   4.380   5.070 -0.2575  0.2935 -0.4765
 3158SOL    HW121353   4.746   4.305   5.020  0.0183 -0.0651 -0.1211
 3158SOL    HW221354   4.704   4.440   5.075 -0.2138  0.4419 -1.5278
 3159SOL     OW21355   3.926   1.393   1.735  0.0866  0.9330  0.1719
 3159SOL    HW121356   3.952   1.426   1.649 -0.2765 -1.1043 -0.7210
 3159SOL    HW221357   3.997   1.334   1.761 -1.0771 -0.5314  0.0704
 3160SOL     OW21358   1.130   0.524  15.633 -0.6084 -0.1694 -0.0490
 3160SOL    HW121359   1.136   0.510  15.539  1.5364  1.7322 -0.2119
 3160SOL    HW221360   1.047   0.569  15.646 -0.2950  0.7392 -1.2016
 3161SOL     OW21361   3.609   1.030   0.679  0.0504 -0.4932  0.0064
 3161SOL    HW121362   3.637   1.122   0.674 -0.7887 -0.2071  0.5031
 3161SOL    HW221363   3.513   1.035   0.687  0.1355 -1.3822  1.4757
 3162SOL     OW21364   2.916   0.047  13.979  0.1655  0.7195 -0.2051
 3162SOL    HW121365   2.862   0.038  14.058  1.5179 -0.6055  0.5696
 3162SOL    HW221366   2.951   0.136  13.983  0.2247  0.6514  0.6796
 3163SOL     OW21367   0.167   3.361   1.494  0.1386 -0.6162  0.2223
 3163SOL    HW121368   0.096   3.332   1.436  0.5796 -0.8056 -0.2242
 3163SOL    HW221369   0.123   3.384   1.576 -0.6179  0.7854 -0.5863
 3164SOL     OW21370   0.702   1.283  18.587  0.0443 -0.2147  0.0620
 3164SOL    HW121371   0.748   1.354  18.632  0.0296  0.0164 -0.2878
 3164SOL    HW221372   0.763   1.255  18.519  0.3276 -0.9908  0.6290
 3165SOL     OW21373   3.554   2.177  20.318  0.8694 -0.5699  0.3601
 3165SOL    HW121374   3.615   2.103  20.320 -0.1226 -1.4112 -0.6151
 3165SOL    HW221375   3.474   2.143  20.358  1.0125  0.5087  1.5623
 3166SOL     OW21376   1.641   4.618  12.470 -0.0166  0.9194 -0.0274
 3166SOL    HW121377   1.689   4.629  12.552  1.3700  0.2715 -0.7409
 3166SOL    HW221378   1.608   4.528  12.474  0.2480  0.8107 -0.2801
 3167SOL     OW21379   1.767   4.448  15.052  0.0026  0.1472 -0.1717
 3167SOL    HW121380   1.763   4.355  15.029 -0.0925 -0.3534  1.8607
 3167SOL    HW221381   1.852   4.478  15.019  0.7442 -1.0575  0.6694
 3168SOL     OW21382   0.873   1.410  14.927  0.2058  0.2527  0.0637
 3168SOL    HW121383   0.840   1.461  15.001  1.1988 -0.5898  1.0933
 3168SOL    HW221384   0.896   1.325  14.965  2.2262  0.3616 -0.9202
 3169SOL     OW21385   1.555   1.400  18.387 -0.4185  0.2774 -0.0023
 3169SOL    HW121386   1.545   1.492  18.362 -0.1863  0.2551 -0.1775
 3169SOL    HW221387   1.545   1.352  18.305  0.6183  0.2240 -0.0915
 3170SOL     OW21388   3.777   3.893  13.899  0.6734 -0.0520 -0.1932
 3170SOL    HW121389   3.696   3.942  13.883  0.7698 -0.1001 -0.8248
 3170SOL    HW221390   3.759   3.805  13.866  0.1118 -0.7600  1.9521
 3171SOL     OW21391   3.402   3.851   0.563  0.9715 -0.0340  0.5351
 3171SOL    HW121392   3.492   3.858   0.533  0.9195  3.7619  1.2414
 3171SOL    HW221393   3.357   3.925   0.522 -2.1032 -2.7026 -0.9256
 3172SOL     OW21394   3.103   4.472   7.222  0.3361  0.1592  0.3294
 3172SOL    HW121395   3.108   4.567   7.225 -1.2207  0.2220  0.6452
 3172SOL    HW221396   3.038   4.452   7.155  2.4603 -0.7199 -1.4703
 3173SOL     OW21397   0.724   1.497  19.508  0.0086 -0.0885  0.0605
 3173SOL    HW121398   0.752   1.418  19.463  0.9930  0.2586  0.0663
 3173SOL    HW221399   0.757   1.569  19.453 -2.1770  0.3036 -0.7534
 3174SOL     OW21400   3.970   4.062  13.130 -0.2725 -0.0382 -0.0227
 3174SOL    HW121401   4.058   4.081  13.163  0.3056 -2.5897 -0.1123
 3174SOL    HW221402   3.959   3.968  13.144 -2.5394  0.0795 -1.0789
 3175SOL     OW21403   0.502   2.453  21.078 -0.1637 -0.1472 -0.0820
 3175SOL    HW121404   0.499   2.536  21.125 -0.7266  0.9530 -2.0737
 3175SOL    HW221405   0.457   2.391  21.135 -0.5078  1.1142  1.0001
 3176SOL     OW21406   2.795   2.842  17.612  0.1440  0.3053 -0.2119
 3176SOL    HW121407   2.704   2.815  17.602  0.3498 -0.3854 -0.2379
 3176SOL    HW221408   2.811   2.898  17.536 -0.0667 -0.1038 -0.5605
 3177SOL     OW21409   2.865   0.162   0.119 -0.2387 -0.2242  0.0233
 3177SOL    HW121410   2.880   0.183   0.027 -0.8708 -0.5584 -0.1574
 3177SOL    HW221411   2.910   0.231   0.168  0.1679 -0.1006 -0.5371
 3178SOL     OW21412   3.993   1.122  20.524 -0.6410  0.8324 -0.2379
 3178SOL    HW121413   4.040   1.190  20.572 -0.0083  1.2832 -1.5126
 3178SOL    HW221414   3.999   1.148  20.432 -2.0600  0.0837 -0.5481
 3179SOL     OW21415   4.617   1.364   0.559 -0.0272  0.0743 -0.3341
 3179SOL    HW121416   4.562   1.305   0.610 -0.9315  2.0215  0.9533
 3179SOL    HW221417   4.571   1.374   0.476 -0.8211  0.4767  0.1551
 3180SOL     OW21418   4.455   4.667   2.091 -0.2972 -0.3801  0.0483
 3180SOL    HW121419   4.429   4.637   2.179  3.8757  0.0361  1.4375
 3180SOL    HW221420   4.486   4.757   2.105  0.6684 -0.4327 -1.7821
 3181SOL     OW21421   0.554   3.878   4.885  0.3708  0.0527 -0.1436
 3181SOL    HW121422   0.547   3.889   4.980  3.3936  0.8661 -0.0051
 3181SOL    HW221423   0.647   3.889   4.866 -0.0745 -1.0486 -3.0938
 3182SOL     OW21424   1.105   1.644   4.971 -0.3764 -0.2045  0.2270
 3182SOL    HW121425   1.193   1.633   5.007 -0.7500 -1.1237  0.8605
 3182SOL    HW221426   1.053   1.676   5.045 -0.4488  0.8319 -0.2831
 3183SOL     OW21427   1.700   0.637   5.637 -0.8880 -0.0794  0.0859
 3183SOL    HW121428   1.624   0.654   5.581 -1.7431 -0.5424  1.1108
 3183SOL    HW221429   1.697   0.706   5.703  1.7143  2.1347 -2.1036
 3184SOL     OW21430   2.980   2.189   1.920 -0.4788 -0.0745  0.0020
 3184SOL    HW121431   3.062   2.160   1.958 -0.9839 -0.8941  0.4709
 3184SOL    HW221432   2.983   2.285   1.925  0.9619 -0.0612 -1.0903
 3185SOL     OW21433   4.168   4.613   1.058  0.0705  0.2721 -0.2988
 3185SOL    HW121434   4.114   4.690   1.071 -0.0889  0.0174  0.5211
 3185SOL    HW221435   4.121   4.561   0.993  0.1674  0.8542 -0.8333
 3186SOL     OW21436   2.105   2.943  14.701  0.6131 -0.0131 -0.3053
 3186SOL    HW121437   2.197   2.947  14.673  1.4673 -0.4437  2.4800
 3186SOL    HW221438   2.079   2.853  14.684  1.8904 -0.9329  2.7923
 3187SOL     OW21439   0.994   0.599   5.432 -1.2359 -0.2757  0.2409
 3187SOL    HW121440   0.937   0.523   5.424 -2.4574  0.6654 -0.1120
 3187SOL    HW221441   1.082   0.563   5.435 -1.7396 -1.6278 -1.1415
 3188SOL     OW21442   1.160   4.205  11.115 -0.0232  0.7370 -0.1239
 3188SOL    HW121443   1.125   4.233  11.031 -0.1744  0.6735 -0.0806
 3188SOL    HW221444   1.145   4.279  11.174 -2.7642 -0.4364  0.6531
 3189SOL     OW21445   4.073   2.980  17.962  0.2543  0.0805 -0.5943
 3189SOL    HW121446   4.138   2.977  17.891  0.0723 -0.7324 -0.7270
 3189SOL    HW221447   4.113   3.037  18.027  0.3118  1.0408 -1.4568
 3190SOL     OW21448   1.152   3.856  11.848  0.5162  0.3859 -0.2179
 3190SOL    HW121449   1.113   3.801  11.780  0.6389 -0.5422  0.4673
 3190SOL    HW221450   1.194   3.928  11.800 -1.4003  0.9796 -0.9906
 3191SOL     OW21451   0.780   4.317   1.978 -0.0782  0.2080 -0.1342
 3191SOL    HW121452   0.829   4.276   1.907 -0.4960 -0.4345 -0.0558
 3191SOL    HW221453   0.700   4.349   1.937 -0.7449 -0.9920  0.2249
 3192SOL     OW21454   3.963   3.705  14.460  0.2460  0.1033  0.5500
 3192SOL    HW121455   3.915   3.786  14.442 -0.6449 -0.3793  0.7936
 3192SOL    HW221456   3.987   3.672  14.373  3.3920  2.3256  0.5708
 3193SOL     OW21457   1.183   2.508   0.763 -0.3350  0.4415 -0.0179
 3193SOL    HW121458   1.246   2.566   0.807 -0.9403  1.6527 -0.7371
 3193SOL    HW221459   1.179   2.541   0.673 -1.7590  0.1612 -0.0594
 3194SOL     OW21460   4.597   2.582   3.674 -0.1902  0.2809 -0.1304
 3194SOL    HW121461   4.563   2.603   3.587 -0.9993 -0.3456  0.0371
 3194SOL    HW221462   4.520   2.561   3.726  0.4220 -0.8407  0.3349
 3195SOL     OW21463   1.177   0.664  19.047 -0.3802  0.0418 -0.2329
 3195SOL    HW121464   1.260   0.617  19.034 -0.0544  0.3677  0.6303
 3195SOL    HW221465   1.163   0.711  18.966 -0.1769 -0.7422 -0.7244
 3196SOL     OW21466   3.976   0.783  16.416  0.1818  0.7650  0.0191
 3196SOL    HW121467   3.939   0.744  16.495 -0.4656 -1.0987 -1.2250
 3196SOL    HW221468   3.948   0.874  16.419 -0.7421  0.4301  1.3975
 3197SOL     OW21469   2.498   0.354   1.661 -0.3932  0.1072  0.2422
 3197SOL    HW121470   2.561   0.374   1.731 -0.3394 -0.6029  0.3943
 3197SOL    HW221471   2.426   0.415   1.676 -0.1616  0.2849  0.6289
 3198SOL     OW21472   0.857   0.032   0.564 -0.0496 -0.4916 -0.2244
 3198SOL    HW121473   0.810   0.026   0.481 -0.2825 -0.8286 -0.0703
 3198SOL    HW221474   0.941   0.071   0.541 -0.5987  0.5845 -0.4237
 3199SOL     OW21475   0.103   4.218  19.936  0.0318  0.0469 -0.4797
 3199SOL    HW121476   0.099   4.176  19.850 -1.0652  0.0929 -0.4508
 3199SOL    HW221477   0.034   4.175  19.986  1.3971 -0.7502  0.7170
 3200SOL     OW21478   2.642   0.105   0.321 -0.0242  0.0937  0.4057
 3200SOL    HW121479   2.711   0.096   0.256  0.1534  0.0890  0.5931
 3200SOL    HW221480   2.689   0.109   0.405 -0.2788 -0.4689  0.5801
 3201SOL     OW21481   1.571   1.868   6.763  0.7906 -0.8081  0.3878
 3201SOL    HW121482   1.623   1.946   6.742 -1.0855  0.3021 -0.0929
 3201SOL    HW221483   1.587   1.808   6.690  0.4840 -0.0127 -0.3276
 3202SOL     OW21484   1.983   3.289   4.300 -0.1086 -0.4267 -0.2733
 3202SOL    HW121485   2.064   3.328   4.266  1.0599 -2.0493  0.6506
 3202SOL    HW221486   1.984   3.199   4.268 -1.1408 -0.6961  0.4433
 3203SOL     OW21487   4.178   1.907   1.038  0.2811 -0.0203 -0.2819
 3203SOL    HW121488   4.258   1.913   0.986 -0.4707  1.1787 -1.3096
 3203SOL    HW221489   4.169   1.994   1.077 -0.9598  0.0905 -0.8236
 3204SOL     OW21490   2.851   1.620   1.897  0.1894 -0.3993  0.2863
 3204SOL    HW121491   2.823   1.693   1.951 -0.8435  0.7722 -1.8568
 3204SOL    HW221492   2.788   1.550   1.916 -2.1200  1.0886 -1.8968
 3205SOL     OW21493   1.671   0.798  15.100  0.5670  0.2814  0.2055
 3205SOL    HW121494   1.648   0.790  15.008  1.1468  0.6300  0.0346
 3205SOL    HW221495   1.647   0.713  15.138  1.8833 -0.4540 -0.5998
 3206SOL     OW21496   2.447   1.161   1.483  0.3603  0.0404  0.3428
 3206SOL    HW121497   2.422   1.217   1.556 -0.9659 -1.2851  0.9068
 3206SOL    HW221498   2.368   1.112   1.461  1.5206 -1.6598 -0.1110
 3207SOL     OW21499   1.771   1.176  19.549 -0.4085  0.3194 -0.4643
 3207SOL    HW121500   1.714   1.238  19.504  1.6020  0.0699 -3.4044
 3207SOL    HW221501   1.713   1.108  19.582 -2.4026  2.7986  1.0920
 3208SOL     OW21502   3.836   0.173  13.741 -0.8648  0.1887  0.6038
 3208SOL    HW121503   3.852   0.083  13.714 -0.9415 -0.1769  1.8059
 3208SOL    HW221504   3.741   0.184  13.734 -1.2325 -0.9005  3.9127
 3209SOL     OW21505   0.389   3.382   5.230  0.6527  0.1831 -0.4157
 3209SOL    HW121506   0.439   3.463   5.239  0.1070  0.5638 -0.7723
 3209SOL    HW221507   0.441   3.316   5.277  0.0924  1.1658  1.6055
 3210SOL     OW21508   1.273   3.312  17.627 -0.1311 -0.8227 -0.2541
 3210SOL    HW121509   1.313   3.344  17.546 -0.8319  1.5257  0.3026
 3210SOL    HW221510   1.342   3.324  17.693 -1.4235  2.3040  0.5181
 3211SOL     OW21511   0.203   0.592  11.211  0.3352 -0.3892 -0.0455
 3211SOL    HW121512   0.201   0.608  11.116  1.5523 -0.1697 -0.0324
 3211SOL    HW221513   0.277   0.533  11.223  0.6228  0.1643  0.8634
 3212SOL     OW21514   3.032   2.684  10.457 -0.6654 -0.4937 -0.5524
 3212SOL    HW121515   3.101   2.649  10.401 -0.7588  0.5273 -1.3001
 3212SOL    HW221516   3.074   2.755  10.506 -1.2640  0.3042 -1.2062
 3213SOL     OW21517   1.058   3.025   1.052 -0.0399 -0.0512  0.5480
 3213SOL    HW121518   1.039   3.091   0.985  0.0947 -0.1153  0.4479
 3213SOL    HW221519   1.102   2.955   1.004  1.0352  0.3840  0.9047
 3214SOL     OW21520   0.764   4.597  10.808 -0.4982  0.6678  0.0299
 3214SOL    HW121521   0.753   4.684  10.768  1.2479  0.8995  0.0529
 3214SOL    HW221522   0.800   4.616  10.895 -0.0844 -0.0892  0.0207
 3215SOL     OW21523   3.703   3.771  20.516  0.1511  0.0995 -0.3080
 3215SOL    HW121524   3.720   3.726  20.599  2.7227 -3.1030 -2.5715
 3215SOL    HW221525   3.765   3.844  20.515 -0.3391  0.5374  0.8672
 3216SOL     OW21526   2.416   2.441  16.838  0.6166 -0.5372  0.2372
 3216SOL    HW121527   2.504   2.476  16.827  0.4425 -0.5884 -1.2495
 3216SOL    HW221528   2.424   2.381  16.913  1.4014  0.9511  1.3320
 3217SOL     OW21529   1.156   0.028   3.110 -0.1141  0.0198 -0.1675
 3217SOL    HW121530   1.070   0.051   3.073 -0.8260  0.8658  1.9987
 3217SOL    HW221531   1.219   0.058   3.044 -1.4054  1.0406 -0.9423
 3218SOL     OW21532   3.151   3.353  19.226 -0.0379  0.0734  0.5469
 3218SOL    HW121533   3.114   3.419  19.166 -1.8486  0.0520  1.6325
 3218SOL    HW221534   3.227   3.396  19.265  0.2103  0.6631 -0.5796
 3219SOL     OW21535   4.427   4.030  20.244 -0.2288  0.0480  0.1826
 3219SOL    HW121536   4.343   4.032  20.197 -0.2182  0.4298  0.1743
 3219SOL    HW221537   4.478   3.963  20.200  0.1744  1.1487 -1.0370
 3220SOL     OW21538   3.249   1.707   9.599  0.0666 -0.2252  0.3085
 3220SOL    HW121539   3.240   1.613   9.580  3.3214 -0.3065 -0.7692
 3220SOL    HW221540   3.318   1.711   9.664 -0.2885  1.4088  0.5619
 3221SOL     OW21541   1.680   1.440   4.052  0.1055  0.1977  0.1098
 3221SOL    HW121542   1.585   1.433   4.040  0.2088 -1.0015 -0.0336
 3221SOL    HW221543   1.691   1.447   4.147  0.0204 -2.0337  0.2837
 3222SOL     OW21544   2.504   1.571   1.357  0.4196 -0.0801  0.7623
 3222SOL    HW121545   2.533   1.655   1.323  0.2262  0.5506  2.1279
 3222SOL    HW221546   2.475   1.522   1.281  2.5030  0.3194 -0.2863
 3223SOL     OW21547   2.819   3.934  15.229  0.0015 -0.0391  0.5852
 3223SOL    HW121548   2.875   4.012  15.235  0.2868 -0.3107  1.4024
 3223SOL    HW221549   2.868   3.866  15.275 -0.4969 -0.5671  0.3327
 3224SOL     OW21550   3.622   1.827  16.722 -0.0794 -0.3575 -0.4350
 3224SOL    HW121551   3.630   1.866  16.809 -2.1706 -1.6475  0.3215
 3224SOL    HW221552   3.678   1.882  16.667 -0.2466  1.6161  1.3379
 3225SOL     OW21553   2.876   0.239   0.791  0.7387 -0.0106  0.0063
 3225SOL    HW121554   2.962   0.279   0.779  1.2788 -1.2739 -0.3461
 3225SOL    HW221555   2.882   0.192   0.874  0.8851 -1.3856 -0.7785
 3226SOL     OW21556   4.295   3.206   4.391  0.9377 -0.4554  0.0815
 3226SOL    HW121557   4.227   3.200   4.457  0.3541  0.4242 -0.4380
 3226SOL    HW221558   4.290   3.123   4.343 -0.6277  0.1453 -0.7957
 3227SOL     OW21559   1.057   2.054  16.472  0.0168 -0.2198 -0.2277
 3227SOL    HW121560   0.964   2.069  16.486 -0.2419 -1.1833 -0.9065
 3227SOL    HW221561   1.078   1.981  16.531  0.1651 -0.5218 -0.6527
 3228SOL     OW21562   0.609   1.524  16.981  0.6197 -0.0132 -0.0698
 3228SOL    HW121563   0.537   1.576  17.017  0.4187  0.4275 -1.0844
 3228SOL    HW221564   0.651   1.583  16.918  1.2301 -0.6166 -0.2252
 3229SOL     OW21565   3.948   3.426  11.268  0.3776 -0.0601 -0.8253
 3229SOL    HW121566   3.965   3.491  11.336 -2.3602  0.0656 -0.2554
 3229SOL    HW221567   4.020   3.362  11.277  0.7941  0.6920  1.2675
 3230SOL     OW21568   3.238   3.402   2.528 -0.3481 -0.4324  0.1521
 3230SOL    HW121569   3.188   3.411   2.610 -0.2208  3.4650 -0.1916
 3230SOL    HW221570   3.178   3.358   2.468 -1.6166 -0.2617  1.2995
 3231SOL     OW21571   1.658   1.025  11.493 -0.2843  0.1901  0.1169
 3231SOL    HW121572   1.662   0.974  11.412 -1.3321  0.7815 -0.2989
 3231SOL    HW221573   1.697   1.109  11.471  1.8590 -0.5935  0.9229
 3232SOL     OW21574   4.365   1.347   1.654  0.0414  0.3783  0.4381
 3232SOL    HW121575   4.410   1.297   1.586 -2.3336 -1.0004 -0.1274
 3232SOL    HW221576   4.395   1.437   1.642  1.4879 -0.2784 -0.8882
 3233SOL     OW21577   4.416   3.635   7.762 -0.2698  0.1851  0.1165
 3233SOL    HW121578   4.509   3.639   7.784 -0.0829  0.0868 -0.6609
 3233SOL    HW221579   4.414   3.640   7.667 -0.9668 -1.6696  0.0323
 3234SOL     OW21580   3.099   0.213   9.970  0.0600 -0.0235  0.1671
 3234SOL    HW121581   3.033   0.281   9.955  0.6532  0.8465  1.4804
 3234SOL    HW221582   3.073   0.173  10.053 -0.4033 -1.5370 -0.7183
 3235SOL     OW21583   4.405   4.376  18.201 -0.1921 -0.2092 -0.0934
 3235SOL    HW121584   4.494   4.346  18.181  0.6504  0.9785  1.9442
 3235SOL    HW221585   4.358   4.297  18.227  0.1595 -0.9024 -1.5551
 3236SOL     OW21586   3.503   2.697   7.691  0.0075 -0.7310 -0.6667
 3236SOL    HW121587   3.570   2.690   7.759 -1.1463 -0.3567  0.4951
 3236SOL    HW221588   3.553   2.708   7.610  1.3453  0.2517  0.2881
 3237SOL     OW21589   1.920   3.868  19.215  0.6663 -0.4830  0.1794
 3237SOL    HW121590   1.842   3.913  19.246  0.8219  0.1114 -0.2887
 3237SOL    HW221591   1.892   3.777  19.204  0.7380 -0.7885  2.5010
 3238SOL     OW21592   1.728   4.258   2.720  0.2709 -0.2660 -0.3631
 3238SOL    HW121593   1.694   4.333   2.672  0.4695  0.2153  0.2631
 3238SOL    HW221594   1.803   4.292   2.769 -0.6956 -0.4971  1.2671
 3239SOL     OW21595   3.675   3.143   2.559 -0.0620  0.1449  0.1262
 3239SOL    HW121596   3.589   3.174   2.530 -0.8282 -1.5298  0.6240
 3239SOL    HW221597   3.687   3.183   2.645  0.1210  1.2251 -0.3963
 3240SOL     OW21598   2.249   1.320  19.730  0.2986 -0.3559  0.0224
 3240SOL    HW121599   2.239   1.233  19.769 -1.6819 -0.1637 -0.0751
 3240SOL    HW221600   2.196   1.316  19.650  0.3307  0.8968 -0.0554
 3241SOL     OW21601   4.378   0.229  10.978  0.5172  0.4763 -0.0881
 3241SOL    HW121602   4.417   0.196  11.059 -1.7641  0.2367  0.9002
 3241SOL    HW221603   4.325   0.156  10.945  1.2929  0.6298 -1.7231
 3242SOL     OW21604   0.278   1.764   4.396 -0.0621  0.2341  0.7620
 3242SOL    HW121605   0.233   1.689   4.357  2.6777 -0.7661 -0.4541
 3242SOL    HW221606   0.232   1.840   4.360 -0.4311 -0.7781 -0.9385
 3243SOL     OW21607   1.870   0.418   4.245  0.0938 -0.0031 -0.2822
 3243SOL    HW121608   1.891   0.355   4.176  1.1369  1.8458 -1.6259
 3243SOL    HW221609   1.778   0.440   4.230  0.1463 -0.0658 -0.6802
 3244SOL     OW21610   3.268   1.279  19.173  0.0976  0.1420  0.6469
 3244SOL    HW121611   3.345   1.325  19.139  0.2155 -0.8323 -0.4103
 3244SOL    HW221612   3.288   1.186  19.160 -1.6099 -0.0812 -0.4217
 3245SOL     OW21613   3.948   4.357   8.097 -0.1285  0.0109 -0.3225
 3245SOL    HW121614   3.918   4.356   8.006 -0.4021 -0.2584 -0.2309
 3245SOL    HW221615   4.033   4.401   8.094  0.1053 -0.4626 -0.7866
 3246SOL     OW21616   3.792   0.566  21.135  0.2370 -0.7283  0.3828
 3246SOL    HW121617   3.812   0.537   0.027 -0.7923  1.7485  1.4141
 3246SOL    HW221618   3.806   0.660  21.136 -2.7150 -0.2588 -1.2892
 3247SOL     OW21619   0.402   4.312  14.845  0.4202  0.3303  0.6320
 3247SOL    HW121620   0.371   4.393  14.806  1.0182  0.0323 -0.4574
 3247SOL    HW221621   0.489   4.298  14.807  0.8785 -0.1182  1.8149
 3248SOL     OW21622   2.685   1.506   4.332  0.4806 -0.0101  0.4107
 3248SOL    HW121623   2.652   1.595   4.319  0.8945  0.1470  0.4218
 3248SOL    HW221624   2.666   1.461   4.250  2.1332  0.6810 -0.3575
 3249SOL     OW21625   2.477   3.739   3.912 -0.1085 -0.3413  0.0015
 3249SOL    HW121626   2.564   3.746   3.950 -0.6623  2.7498  0.7205
 3249SOL    HW221627   2.492   3.730   3.818  1.0412 -1.5550  0.3030
 3250SOL     OW21628   3.298   1.286  16.334 -0.0340  0.4210 -0.4853
 3250SOL    HW121629   3.254   1.206  16.307  1.1608 -1.3811  2.9275
 3250SOL    HW221630   3.259   1.308  16.418  2.5676  1.1363  0.5284
 3251SOL     OW21631   0.503   3.441   3.796  0.0346  0.0987  0.0204
 3251SOL    HW121632   0.425   3.438   3.740 -0.6705 -0.7328  1.0448
 3251SOL    HW221633   0.472   3.477   3.879  1.0435  1.1509 -0.0510
 3252SOL     OW21634   0.893   3.294  10.203  0.5212 -0.1518 -0.4103
 3252SOL    HW121635   0.858   3.207  10.180  0.8967 -0.3212 -0.3406
 3252SOL    HW221636   0.873   3.348  10.126 -0.7390 -0.0101  0.0143
 3253SOL     OW21637   1.683   1.529   2.862 -0.6791  0.0463 -0.0908
 3253SOL    HW121638   1.696   1.435   2.874 -0.7639 -0.0411 -0.7087
 3253SOL    HW221639   1.592   1.537   2.833 -0.8850  0.3723  0.6418
 3254SOL     OW21640   4.731   2.249   0.396 -0.2574 -0.1025  0.0552
 3254SOL    HW121641   4.745   2.306   0.320 -0.9364 -0.4789 -0.3598
 3254SOL    HW221642   4.692   2.170   0.358  1.5571 -1.2111  0.4997
 3255SOL     OW21643   3.472   0.285  16.877 -0.4464  0.3278 -0.3066
 3255SOL    HW121644   3.522   0.338  16.940  0.1030  1.5578 -1.7594
 3255SOL    HW221645   3.496   0.195  16.897 -2.0806  0.5825  2.7848
 3256SOL     OW21646   2.632   0.351   0.960 -0.4849  0.2436 -0.7385
 3256SOL    HW121647   2.563   0.330   0.896 -0.0462 -0.0648 -1.1111
 3256SOL    HW221648   2.696   0.280   0.950 -0.4290  0.1828  0.0630
 3257SOL     OW21649   0.913   4.064  10.653 -0.5075  0.3862  0.3742
 3257SOL    HW121650   0.974   4.134  10.632  0.3497 -0.3912  0.2656
 3257SOL    HW221651   0.951   4.021  10.729 -0.8028 -0.2488  0.1645
 3258SOL     OW21652   1.632   3.370  19.966 -0.1324  0.1597  0.0616
 3258SOL    HW121653   1.547   3.400  19.935 -0.6224  1.1038  2.2950
 3258SOL    HW221654   1.689   3.373  19.889 -2.0867 -0.3344 -1.3976
 3259SOL     OW21655   3.388   2.978   1.024 -0.0308  0.2929 -0.6763
 3259SOL    HW121656   3.443   3.010   1.095  0.0433 -0.6775 -0.3020
 3259SOL    HW221657   3.305   2.955   1.066  0.0035 -0.2551 -0.9160
 3260SOL     OW21658   0.633   3.601   4.528  0.5107  0.0172 -0.2019
 3260SOL    HW121659   0.700   3.662   4.558  2.0382 -2.2571  1.0876
 3260SOL    HW221660   0.576   3.588   4.603 -0.6447  0.9908 -0.9165
 3261SOL     OW21661   1.089   1.482   2.232  0.0554  0.0831 -0.0074
 3261SOL    HW121662   1.072   1.395   2.267  1.7102 -0.4964 -0.6557
 3261SOL    HW221663   1.080   1.540   2.308 -0.0946 -0.7573  0.6228
 3262SOL     OW21664   1.614   3.778   0.071 -0.3455  0.2352 -0.1930
 3262SOL    HW121665   1.578   3.859   0.035 -0.9898 -0.3319 -0.8265
 3262SOL    HW221666   1.642   3.728  21.191 -0.1713 -0.2441  0.1827
 3263SOL     OW21667   2.814   2.694  13.713  0.0422  0.7432 -0.5884
 3263SOL    HW121668   2.861   2.762  13.761 -0.8978  0.3528  0.8818
 3263SOL    HW221669   2.857   2.612  13.739  0.2901  0.6402 -1.3125
 3264SOL     OW21670   4.239   1.527   6.378  0.0502  0.8011 -0.5888
 3264SOL    HW121671   4.327   1.536   6.340  0.3417  1.3182  0.1917
 3264SOL    HW221672   4.219   1.614   6.412  0.8054 -0.2686  2.6114
 3265SOL     OW21673   2.951   1.630  16.257 -0.0243  0.2886  0.0258
 3265SOL    HW121674   2.911   1.703  16.212 -0.2037  0.1342 -0.0655
 3265SOL    HW221675   3.014   1.670  16.316 -0.9587  0.5773  0.8270
 3266SOL     OW21676   3.106   1.353   5.735  0.0488  0.4428  0.2845
 3266SOL    HW121677   3.055   1.292   5.682  1.4903 -0.7493  0.2706
 3266SOL    HW221678   3.065   1.351   5.821  0.2203 -0.6906  0.3308
 3267SOL     OW21679   1.796   4.716   0.871 -0.5974 -0.8618  0.4651
 3267SOL    HW121680   1.755   4.632   0.894 -0.1462 -0.9043  1.1137
 3267SOL    HW221681   1.872   4.722   0.929 -1.3832  0.6247  1.3149
 3268SOL     OW21682   3.680   1.849   9.358  0.0279  0.2438  0.3945
 3268SOL    HW121683   3.755   1.796   9.331  1.3192  1.6367  1.2911
 3268SOL    HW221684   3.653   1.896   9.279 -1.3194 -2.0119 -0.4780
 3269SOL     OW21685   1.752   2.329  17.538 -0.7302 -0.9577  0.4053
 3269SOL    HW121686   1.758   2.409  17.590 -0.8794  0.0771 -1.1663
 3269SOL    HW221687   1.843   2.304  17.521 -0.6618 -2.5982  3.1529
 3270SOL     OW21688   0.284   0.958   0.516  0.1116 -0.3155  0.4695
 3270SOL    HW121689   0.331   0.875   0.523  1.0701  0.2463  0.8651
 3270SOL    HW221690   0.259   0.979   0.606  2.3806  1.2334  0.7616
 3271SOL     OW21691   3.838   3.043   0.753 -0.1887  0.2861  0.4624
 3271SOL    HW121692   3.885   3.065   0.673 -0.2788 -0.5685  0.1717
 3271SOL    HW221693   3.876   3.099   0.820  0.7196  0.1348  0.0697
 3272SOL     OW21694   0.744   1.543   3.901 -0.7296  0.2308  0.0931
 3272SOL    HW121695   0.781   1.567   3.986  2.8895 -0.4395 -1.3275
 3272SOL    HW221696   0.674   1.481   3.923 -0.8791  1.3206  2.7092
 3273SOL     OW21697   2.249   0.249   2.179 -0.3562  0.1685  0.5531
 3273SOL    HW121698   2.298   0.295   2.112 -1.2254 -0.0760 -0.2558
 3273SOL    HW221699   2.191   0.316   2.216 -0.4736  0.1081  0.4794
 3274SOL     OW21700   0.409   2.785   2.763  0.5513 -0.2197 -0.3057
 3274SOL    HW121701   0.381   2.876   2.757 -0.4195 -0.4877  0.1404
 3274SOL    HW221702   0.343   2.736   2.715  2.0256 -0.4985 -2.0221
 3275SOL     OW21703   1.848   1.123   3.327  0.3406  0.1693  0.1194
 3275SOL    HW121704   1.927   1.075   3.302  0.7493  0.5963  0.6136
 3275SOL    HW221705   1.865   1.154   3.416 -0.3691  0.2855  0.2142
 3276SOL     OW21706   0.930   1.989  10.709 -0.1212 -0.0526 -0.6335
 3276SOL    HW121707   0.914   2.026  10.622 -1.9421 -0.4536 -0.4762
 3276SOL    HW221708   0.886   1.904  10.707  0.0903 -0.1919  0.5884
 3277SOL     OW21709   3.255   4.361   5.778 -0.6253  0.5810 -0.9700
 3277SOL    HW121710   3.166   4.397   5.781 -0.1866  1.4561  1.4412
 3277SOL    HW221711   3.310   4.428   5.818  0.7425 -1.0509 -0.0779
 3278SOL     OW21712   3.867   0.242   4.660 -0.1451  0.0469  0.0468
 3278SOL    HW121713   3.894   0.159   4.699 -0.0645 -0.2707 -0.6843
 3278SOL    HW221714   3.948   0.292   4.651 -0.1414  0.0551  0.1226
 3279SOL     OW21715   4.263   2.430   1.013  0.0609  0.7257 -0.1840
 3279SOL    HW121716   4.231   2.467   0.931  0.1405  2.6530  0.6771
 3279SOL    HW221717   4.303   2.503   1.059  2.6250 -0.9746  0.2785
 3280SOL     OW21718   2.724   1.137   1.856 -0.6078 -0.5269 -0.1759
 3280SOL    HW121719   2.764   1.133   1.769  1.5949  0.7188  0.7834
 3280SOL    HW221720   2.687   1.225   1.862 -0.7104 -0.5931  0.1862
 3281SOL     OW21721   0.879   0.304   4.598  0.2734 -0.2839  0.2628
 3281SOL    HW121722   0.904   0.325   4.508 -0.4946  0.6782  0.2807
 3281SOL    HW221723   0.936   0.231   4.622 -0.0172 -0.9910 -1.2425
 3282SOL     OW21724   4.009   0.602   1.293 -0.2547 -0.3202  0.1057
 3282SOL    HW121725   3.949   0.538   1.255  0.9955 -1.2766 -0.2654
 3282SOL    HW221726   4.015   0.578   1.385 -0.4917 -0.1877  0.1553
 3283SOL     OW21727   0.813   1.837   7.341  0.9632 -0.3472  0.6942
 3283SOL    HW121728   0.775   1.752   7.318  1.3251 -0.4465  0.4646
 3283SOL    HW221729   0.742   1.884   7.383 -0.2679  0.6038 -2.4892
 3284SOL     OW21730   2.200   1.871  13.487 -0.3517 -0.1446 -0.1996
 3284SOL    HW121731   2.148   1.791  13.497  2.9329 -2.0830  1.2827
 3284SOL    HW221732   2.225   1.894  13.576  1.5684  0.6431 -0.9589
 3285SOL     OW21733   3.189   4.589   0.046 -0.0714  0.1988 -0.0141
 3285SOL    HW121734   3.162   4.504   0.009  2.4254 -0.8114  0.4785
 3285SOL    HW221735   3.212   4.642  21.166 -0.0281 -0.1192 -0.2241
 3286SOL     OW21736   4.250   1.816   5.962 -0.5883  0.0156 -0.1960
 3286SOL    HW121737   4.305   1.739   5.950  0.3084  0.3495  1.6491
 3286SOL    HW221738   4.280   1.878   5.897  1.1579  0.1536  0.7403
 3287SOL     OW21739   0.756   3.624   3.752 -0.4721  0.0277 -0.1098
 3287SOL    HW121740   0.763   3.529   3.750 -1.2665 -0.0116 -1.2471
 3287SOL    HW221741   0.702   3.646   3.676  0.1871  1.4291 -0.1786
 3288SOL     OW21742   3.628   0.023   4.770 -0.0074 -0.1702 -0.0628
 3288SOL    HW121743   3.688   0.095   4.789  0.8993 -0.9461  0.0198
 3288SOL    HW221744   3.548   0.065   4.738  0.5790  0.8601 -0.1495
 3289SOL     OW21745   0.773   2.081   0.888  0.0636 -0.1675  0.6553
 3289SOL    HW121746   0.701   2.032   0.927 -1.5122  2.2985  0.7843
 3289SOL    HW221747   0.836   2.091   0.959 -0.4060 -0.4334  1.1093
 3290SOL     OW21748   2.806   2.735  17.337 -0.0303  0.4366 -0.2002
 3290SOL    HW121749   2.824   2.795  17.264 -0.9082 -3.2588 -3.4797
 3290SOL    HW221750   2.892   2.706  17.366  0.2724  0.7229 -0.8060
 3291SOL     OW21751   1.011   2.553  15.318  0.0152 -0.0741  0.6244
 3291SOL    HW121752   0.927   2.544  15.364  0.7323  0.3604  2.0205
 3291SOL    HW221753   1.068   2.487  15.359  0.6340  0.2733  0.3277
 3292SOL     OW21754   3.357   3.994   8.799 -0.1857 -0.1090  0.4778
 3292SOL    HW121755   3.324   3.944   8.873  0.7997  1.7346  2.1439
 3292SOL    HW221756   3.433   4.040   8.833 -1.1810  2.6505 -1.0354
 3293SOL     OW21757   0.115   1.350  15.014  0.1124  0.0533  0.0116
 3293SOL    HW121758   0.077   1.421  15.067 -1.0255 -0.2004 -0.4754
 3293SOL    HW221759   0.195   1.326  15.061 -1.6866 -1.1897  2.4299
 3294SOL     OW21760   3.650   3.996   3.337 -0.0573 -0.7832 -0.2462
 3294SOL    HW121761   3.704   3.917   3.342 -1.0547 -1.3963  0.9468
 3294SOL    HW221762   3.562   3.967   3.362 -1.1572  0.0048 -3.2348
 3295SOL     OW21763   1.604   0.023   9.025  0.1687 -0.5232 -0.7645
 3295SOL    HW121764   1.604   4.747   9.106 -2.1954 -0.2262 -0.5742
 3295SOL    HW221765   1.687   0.070   9.028  0.9693 -1.9870  0.5555
 3296SOL     OW21766   2.972   2.093  18.213 -0.2527 -0.1317 -0.0425
 3296SOL    HW121767   3.062   2.069  18.190  0.2918  2.8284 -1.0376
 3296SOL    HW221768   2.981   2.141  18.295 -0.7997  1.1559 -0.7332
 3297SOL     OW21769   1.168   1.415  14.848  0.1845 -0.3990 -0.4945
 3297SOL    HW121770   1.081   1.430  14.812  0.4166 -0.3579 -1.0373
 3297SOL    HW221771   1.170   1.467  14.929 -0.0897  0.0591 -0.7864
 3298SOL     OW21772   2.147   3.388  19.397 -0.5981  0.0697  0.0672
 3298SOL    HW121773   2.089   3.355  19.466 -0.2035 -0.7871 -0.0044
 3298SOL    HW221774   2.118   3.478  19.382 -0.3351  0.4248  1.7273
 3299SOL     OW21775   4.101   4.552  18.391 -0.0913  0.9338 -0.3292
 3299SOL    HW121776   4.061   4.465  18.392 -0.3581  1.0656  0.7640
 3299SOL    HW221777   4.168   4.547  18.322 -1.3000  0.4094 -1.4591
 3300SOL     OW21778   2.612   4.638  12.736 -0.0979 -0.0508 -0.0380
 3300SOL    HW121779   2.607   4.726  12.772  1.0646  0.0422 -0.1161
 3300SOL    HW221780   2.671   4.645  12.661 -2.0787 -0.3550 -1.6424
 3301SOL     OW21781   0.613   1.168   1.541 -0.1388  0.1715 -0.0111
 3301SOL    HW121782   0.574   1.225   1.474  0.0045  1.4729  1.0034
 3301SOL    HW221783   0.661   1.102   1.492  1.9895  2.5810 -1.1479
 3302SOL     OW21784   2.279   1.204   5.744 -0.1043 -0.6711 -0.2760
 3302SOL    HW121785   2.296   1.298   5.736 -0.3879 -0.7522 -1.8395
 3302SOL    HW221786   2.258   1.191   5.836  1.9682  0.4727  0.3399
 3303SOL     OW21787   2.186   0.082  17.144  1.0048  0.2472  0.1692
 3303SOL    HW121788   2.180   0.019  17.073  1.2168  0.5580 -0.1243
 3303SOL    HW221789   2.207   0.165  17.101 -1.0779  0.8786  0.3954
 3304SOL     OW21790   0.111   3.238  19.217 -0.2692 -0.4730 -0.2495
 3304SOL    HW121791   0.139   3.326  19.242  1.0175 -1.4558  1.7524
 3304SOL    HW221792   0.031   3.252  19.165 -2.0831  1.6557  3.1261
 3305SOL     OW21793   3.462   2.678  18.064 -0.4482  0.1159  0.2630
 3305SOL    HW121794   3.415   2.706  17.985 -1.6522  0.0045  0.9426
 3305SOL    HW221795   3.440   2.585  18.073  0.3995 -0.0842  0.2244
 3306SOL     OW21796   3.772   4.197   0.403  0.5529  0.1271  0.4463
 3306SOL    HW121797   3.727   4.113   0.411 -0.1607  0.5265  0.6834
 3306SOL    HW221798   3.817   4.193   0.319 -0.3201 -0.0929 -0.0152
 3307SOL     OW21799   2.898   3.944  11.144  0.6639  0.8505 -0.2475
 3307SOL    HW121800   2.807   3.919  11.130  0.6291  1.2134 -0.6498
 3307SOL    HW221801   2.946   3.899  11.074  0.5217  2.4694 -1.3711
 3308SOL     OW21802   0.611   0.575   1.917  0.2827 -0.8443  0.1647
 3308SOL    HW121803   0.587   0.610   2.002 -0.8373  1.0387 -0.9330
 3308SOL    HW221804   0.665   0.643   1.876  2.3970 -2.5295  0.1426
 3309SOL     OW21805   1.758   1.782  17.685 -0.1696  0.1261 -0.1985
 3309SOL    HW121806   1.788   1.863  17.644 -0.2261  0.4049  0.3122
 3309SOL    HW221807   1.786   1.713  17.625 -2.6449  0.7273 -2.0292
 3310SOL     OW21808   0.574   4.670   4.401  0.1414  0.1299  0.4945
 3310SOL    HW121809   0.483   4.675   4.370  0.7266 -0.8798 -1.3477
 3310SOL    HW221810   0.595   4.759   4.428 -1.6294  0.2346  1.5797
 3311SOL     OW21811   1.212   3.272  12.523  0.1532  0.2847 -0.1669
 3311SOL    HW121812   1.118   3.289  12.517 -0.2569 -1.7014  0.8492
 3311SOL    HW221813   1.249   3.354  12.556 -1.6349 -0.1434  2.8784
 3312SOL     OW21814   4.036   3.118  19.905 -0.1094 -0.0329 -0.2230
 3312SOL    HW121815   4.014   3.043  19.849  1.1633  0.8686 -1.9337
 3312SOL    HW221816   4.120   3.149  19.871  1.6524 -0.7605  3.5368
 3313SOL     OW21817   1.438   0.702  20.092  0.1704 -0.4286 -0.4451
 3313SOL    HW121818   1.350   0.739  20.095 -0.5349 -2.0107 -1.8897
 3313SOL    HW221819   1.496   0.778  20.097 -1.2667  0.6510 -0.0533
 3314SOL     OW21820   2.948   1.018  20.514 -0.4045 -0.5980  0.7100
 3314SOL    HW121821   2.887   1.066  20.571 -1.0708 -1.3166  0.6023
 3314SOL    HW221822   2.902   1.010  20.431  1.6057  2.6788 -0.7170
 3315SOL     OW21823   1.322   0.009   1.305 -0.0106  0.3764  0.0997
 3315SOL    HW121824   1.307   0.024   1.398 -0.0763 -0.4760  0.2259
 3315SOL    HW221825   1.240   4.746   1.274  0.0795  0.4855 -0.2741
 3316SOL     OW21826   1.121   2.839  10.676  0.4364 -0.3207 -0.1445
 3316SOL    HW121827   1.102   2.928  10.647  0.8452  0.1985  1.1311
 3316SOL    HW221828   1.043   2.812  10.724 -0.5918 -1.5121 -2.5442
 3317SOL     OW21829   4.440   2.982   4.883  0.3612  0.2512 -0.1229
 3317SOL    HW121830   4.485   2.911   4.929  2.1975  1.3383 -0.2499
 3317SOL    HW221831   4.379   3.018   4.947  1.1445  0.1222  0.6912
 3318SOL     OW21832   0.898   1.871  17.192  0.1711  0.0649 -0.1652
 3318SOL    HW121833   0.876   1.889  17.284 -1.2166  1.7711 -0.8341
 3318SOL    HW221834   0.824   1.905  17.142  2.3956  2.0498 -2.1114
 3319SOL     OW21835   3.737   1.358   3.703 -0.7721 -0.1465  0.1436
 3319SOL    HW121836   3.772   1.271   3.723 -1.5474 -0.4135  0.3349
 3319SOL    HW221837   3.753   1.369   3.609 -0.0824 -0.2314  0.2532
 3320SOL     OW21838   1.891   2.711  14.387  0.3608  0.2179 -0.1187
 3320SOL    HW121839   1.964   2.752  14.342  0.7949  0.6087  0.9412
 3320SOL    HW221840   1.887   2.754  14.472  0.8101 -1.8904  0.9884
 3321SOL     OW21841   2.835   0.217  10.823 -0.0491  0.4505 -0.1782
 3321SOL    HW121842   2.745   0.213  10.790 -0.3684 -0.8591  0.8308
 3321SOL    HW221843   2.834   0.286  10.888 -0.2219  0.7332 -0.4798
 3322SOL     OW21844   1.243   2.610  15.871 -0.0218 -0.0059 -0.7662
 3322SOL    HW121845   1.153   2.579  15.867  0.2999 -0.8427 -1.4103
 3322SOL    HW221846   1.259   2.624  15.964  0.2540 -2.9995 -0.3471
 3323SOL     OW21847   1.351   0.062  17.596 -0.1906 -0.2142  0.0287
 3323SOL    HW121848   1.359   0.151  17.563  1.8422 -0.7533 -0.9684
 3323SOL    HW221849   1.356   0.071  17.691  1.3532  0.6202 -0.1200
 3324SOL     OW21850   2.251   4.091   6.055  0.1514 -0.3599 -0.3974
 3324SOL    HW121851   2.243   4.013   6.110  0.1872 -0.2139 -0.1849
 3324SOL    HW221852   2.162   4.127   6.051 -0.1048 -1.1358 -1.5570
 3325SOL     OW21853   0.469   0.567  17.102 -0.9433  0.7025  0.3493
 3325SOL    HW121854   0.419   0.636  17.059 -0.8383  0.1364 -0.6755
 3325SOL    HW221855   0.411   0.490  17.099 -0.4963  0.3725  0.2566
 3326SOL     OW21856   0.557   4.309  17.218  0.4237 -0.2018  0.5764
 3326SOL    HW121857   0.568   4.224  17.175 -0.3789 -0.4795  0.9198
 3326SOL    HW221858   0.633   4.316  17.276  0.6749 -0.5306  0.2913
 3327SOL     OW21859   0.686   0.108   2.653  0.1624  0.4462  0.4838
 3327SOL    HW121860   0.682   0.038   2.719  3.7554  1.6177  1.9524
 3327SOL    HW221861   0.686   0.189   2.704  1.7030  1.3836 -1.0313
 3328SOL     OW21862   2.092   1.815   0.111  0.0032  0.1359  0.6066
 3328SOL    HW121863   2.033   1.864   0.054  1.6206  0.7976 -0.5154
 3328SOL    HW221864   2.129   1.882   0.169  0.5778 -0.0911  0.4975
 3329SOL     OW21865   2.507   4.054  19.868 -0.1037  0.4914 -0.2438
 3329SOL    HW121866   2.500   4.057  19.963 -0.3640 -1.1629 -0.2045
 3329SOL    HW221867   2.417   4.052  19.837 -0.0385  4.3749 -0.6402
 3330SOL     OW21868   3.620   1.545  15.371 -0.4773  0.1487 -0.0165
 3330SOL    HW121869   3.569   1.464  15.370 -1.2994  0.6996 -2.3494
 3330SOL    HW221870   3.673   1.541  15.292 -0.5171  1.9100 -0.1228
 3331SOL     OW21871   4.637   0.753   5.187  0.6931 -0.5268 -0.0615
 3331SOL    HW121872   4.553   0.777   5.226  0.3152 -1.6146 -0.2066
 3331SOL    HW221873   4.700   0.760   5.259  0.6696  1.4441 -0.2409
 3332SOL     OW21874   2.320   4.718  13.773 -0.0604  0.4471  0.5929
 3332SOL    HW121875   2.230   4.722  13.807 -0.0082 -0.3007  0.8113
 3332SOL    HW221876   2.325   4.633  13.730  0.6285  0.3912  0.7970
 3333SOL     OW21877   4.503   3.693  13.083 -0.5555  0.3552  0.1092
 3333SOL    HW121878   4.591   3.676  13.115  0.5014  1.0192 -2.4290
 3333SOL    HW221879   4.470   3.607  13.055 -0.1295  0.3698 -0.4264
 3334SOL     OW21880   0.798   2.148  17.304  0.4636 -0.4027 -0.5273
 3334SOL    HW121881   0.855   2.177  17.375 -0.4008 -0.8724  0.3549
 3334SOL    HW221882   0.750   2.228  17.278  1.2746 -0.0836 -1.0437
 3335SOL     OW21883   2.281   1.762  16.373  0.2876 -0.2830  0.1990
 3335SOL    HW121884   2.362   1.783  16.419  0.5776  0.7627 -0.8130
 3335SOL    HW221885   2.309   1.718  16.293 -0.1085  1.1114 -0.7050
 3336SOL     OW21886   4.625   3.007  10.186  0.8198  0.0136  0.2381
 3336SOL    HW121887   4.682   3.083  10.179  1.4383 -0.2816  2.0327
 3336SOL    HW221888   4.594   3.008  10.277  0.2249 -1.4269  0.0521
 3337SOL     OW21889   0.077   0.932   8.861 -0.1917 -0.2937  0.2752
 3337SOL    HW121890   0.074   0.925   8.956  0.7061  0.0925  0.3330
 3337SOL    HW221891   0.100   1.023   8.845 -1.1173 -0.1631 -0.3260
 3338SOL     OW21892   2.407   0.971   6.838  0.1909  0.0753 -1.0878
 3338SOL    HW121893   2.480   0.931   6.790  0.5553 -0.7458  0.1420
 3338SOL    HW221894   2.449   1.018   6.910 -0.3806  0.9716 -1.3502
 3339SOL     OW21895   1.012   4.521  18.456 -0.2536  0.5024 -0.0127
 3339SOL    HW121896   1.033   4.476  18.375 -0.2659  2.6037 -1.1704
 3339SOL    HW221897   0.924   4.555  18.443 -1.4186 -1.6845  1.9799
 3340SOL     OW21898   1.493   0.167  18.655  0.6189  0.1980 -0.0158
 3340SOL    HW121899   1.580   0.147  18.690  0.2841 -0.8426  0.2385
 3340SOL    HW221900   1.441   0.090  18.676 -1.7180  3.0056  4.3437
 3341SOL     OW21901   4.593   0.583  10.365 -0.0782 -0.0628  0.5354
 3341SOL    HW121902   4.614   0.493  10.390 -0.2178 -0.3103 -0.2373
 3341SOL    HW221903   4.679   0.625  10.353 -0.0114 -0.5560 -0.7574
 3342SOL     OW21904   0.585   3.921   0.928 -0.8401  0.3594  0.1005
 3342SOL    HW121905   0.654   3.937   0.864 -0.8969 -0.2642 -0.1155
 3342SOL    HW221906   0.626   3.865   0.994 -1.6009 -1.2559 -0.8217
 3343SOL     OW21907   0.861   2.928  10.397  0.0323  0.0080  0.0972
 3343SOL    HW121908   0.842   2.995  10.331  0.8956 -0.7406 -0.9159
 3343SOL    HW221909   0.925   2.969  10.455 -0.0456  0.3527 -0.0629
 3344SOL     OW21910   0.675   2.303  20.443  0.3752  0.2313  0.4039
 3344SOL    HW121911   0.760   2.259  20.435 -0.5234 -0.9408 -2.9733
 3344SOL    HW221912   0.611   2.232  20.439 -0.9107  1.4467 -0.5212
 3345SOL     OW21913   4.476   0.452   0.649 -0.0170 -0.2250 -0.3004
 3345SOL    HW121914   4.465   0.370   0.698 -1.2343 -0.3287 -0.7429
 3345SOL    HW221915   4.407   0.509   0.682 -1.0693 -0.4190 -2.1639
 3346SOL     OW21916   0.511   2.513  16.964  0.0032  0.3623 -0.0249
 3346SOL    HW121917   0.416   2.503  16.955  0.0675  0.7797 -1.1858
 3346SOL    HW221918   0.546   2.434  16.923  0.0954 -0.6254  1.9668
 3347SOL     OW21919   1.761   1.676   3.953  0.0811  0.4121  0.3785
 3347SOL    HW121920   1.714   1.602   3.993 -0.7733  0.7501  0.0004
 3347SOL    HW221921   1.695   1.721   3.901  0.7670  1.0521  0.0605
 3348SOL     OW21922   2.062   2.578   5.469 -0.0902 -0.0061  0.1954
 3348SOL    HW121923   2.008   2.611   5.540  0.9932 -0.2283  1.1303
 3348SOL    HW221924   2.132   2.642   5.460  0.7285 -0.8404  0.4865
 3349SOL     OW21925   0.021   0.858   4.596  0.0040  0.1097 -0.1762
 3349SOL    HW121926   0.077   0.801   4.649 -0.9193 -0.0170  0.6704
 3349SOL    HW221927   0.029   0.944   4.637  2.4713  0.8855 -2.2788
 3350SOL     OW21928   3.936   3.441   0.755  0.5263 -0.4907 -0.2905
 3350SOL    HW121929   3.890   3.453   0.672 -0.8381 -1.4673  0.3259
 3350SOL    HW221930   3.953   3.530   0.785  1.1299 -0.1327 -1.6799
 3351SOL     OW21931   4.579   0.229  17.012 -0.2851  0.2549 -0.2282
 3351SOL    HW121932   4.552   0.312  17.052 -0.3602 -0.6617  1.6342
 3351SOL    HW221933   4.640   0.191  17.075  0.1478 -0.8689 -1.3297
 3352SOL     OW21934   0.487   4.421  11.874  0.0341 -0.7465 -0.3831
 3352SOL    HW121935   0.468   4.436  11.966 -0.0415 -1.4460 -0.2836
 3352SOL    HW221936   0.411   4.454  11.827  1.0869  1.7333 -0.3306
 3353SOL     OW21937   3.694   0.759  17.502 -0.4942 -0.0873 -0.1686
 3353SOL    HW121938   3.638   0.825  17.461  0.3836  1.1768  0.6944
 3353SOL    HW221939   3.757   0.809  17.554  2.4913 -1.4330 -2.4939
 3354SOL     OW21940   1.697   1.510  13.702  0.4850  0.1970 -0.0120
 3354SOL    HW121941   1.737   1.596  13.710 -0.3297  0.8036 -2.5805
 3354SOL    HW221942   1.761   1.458  13.654 -0.1222  0.1017 -0.7306
 3355SOL     OW21943   1.918   1.786   4.678 -0.6654 -0.3185  0.3236
 3355SOL    HW121944   1.931   1.699   4.716  3.6600 -0.2309 -1.0038
 3355SOL    HW221945   1.935   1.773   4.584  1.1336  2.2290  0.3137
 3356SOL     OW21946   3.469   3.285   2.891 -0.5687 -0.0348  0.0955
 3356SOL    HW121947   3.460   3.215   2.826 -0.8408  0.1033 -0.0162
 3356SOL    HW221948   3.422   3.253   2.967  2.2601 -1.4671  1.2517
 3357SOL     OW21949   3.921   2.758  15.344  0.4459 -0.6810  0.1678
 3357SOL    HW121950   3.965   2.727  15.264  0.9796  0.8438 -0.1325
 3357SOL    HW221951   3.990   2.803  15.392 -0.4443  0.4005  0.4110
 3358SOL     OW21952   3.928   4.476   4.631  0.0775  0.3188  0.4204
 3358SOL    HW121953   3.843   4.519   4.625 -0.6720 -1.3019 -0.3435
 3358SOL    HW221954   3.971   4.521   4.704 -1.0368  1.8052  0.1747
 3359SOL     OW21955   0.597   4.204  18.731 -0.3070  0.1045  0.2101
 3359SOL    HW121956   0.522   4.159  18.691 -0.9136 -0.5367  2.0816
 3359SOL    HW221957   0.606   4.285  18.680 -1.7533 -0.2096 -0.5479
 3360SOL     OW21958   3.796   2.219  16.338  0.2474 -0.6631 -0.1539
 3360SOL    HW121959   3.790   2.209  16.243 -0.3684  0.7395 -0.2524
 3360SOL    HW221960   3.862   2.155  16.365  2.6687  1.1503 -1.8818
 3361SOL     OW21961   4.175   1.030   0.557  0.1854  0.2224  0.0385
 3361SOL    HW121962   4.184   0.949   0.607 -1.4851 -1.5864 -2.5984
 3361SOL    HW221963   4.080   1.045   0.554  0.3087  0.4242 -2.4822
 3362SOL     OW21964   4.670   0.700  19.250 -0.4774 -0.7739 -0.6344
 3362SOL    HW121965   4.687   0.695  19.155  2.9463  0.1913 -0.0968
 3362SOL    HW221966   4.754   0.729  19.287 -1.5733 -1.9922  2.7802
 3363SOL     OW21967   1.877   0.081  20.777 -0.4174 -0.2483 -0.4308
 3363SOL    HW121968   1.782   0.078  20.774 -0.4075 -1.2992  0.0956
 3363SOL    HW221969   1.904   4.769  20.750  0.4215  0.4239 -1.7635
 3364SOL     OW21970   3.151   4.023  16.391  0.3242 -0.2090 -0.4278
 3364SOL    HW121971   3.241   4.033  16.421  0.5615 -1.5338 -0.6804
 3364SOL    HW221972   3.146   4.073  16.310  1.1964 -1.2579 -1.1222
 3365SOL     OW21973   0.063   1.215  17.734 -0.3439  0.2483 -0.1380
 3365SOL    HW121974   0.065   1.145  17.799 -1.5251 -1.1642 -1.6163
 3365SOL    HW221975   0.144   1.263  17.748 -0.0062 -0.8167  1.5470
 3366SOL     OW21976   2.114   1.098   2.135  0.0658 -0.3802 -0.6145
 3366SOL    HW121977   2.039   1.064   2.185  0.1104  0.1145 -0.2092
 3366SOL    HW221978   2.085   1.098   2.044 -0.0381 -1.2398 -0.5809
 3367SOL     OW21979   2.611   2.050  16.350  0.3062  0.3100  0.0484
 3367SOL    HW121980   2.550   2.015  16.285 -0.0080  1.1831 -0.1255
 3367SOL    HW221981   2.564   2.123  16.390  0.2245 -0.6615  1.7454
 3368SOL     OW21982   0.644   4.324   5.867  0.1017 -0.2073  0.1273
 3368SOL    HW121983   0.614   4.278   5.790  1.2741 -0.3097 -0.2737
 3368SOL    HW221984   0.619   4.416   5.852  2.2167  0.1292 -1.3269
 3369SOL     OW21985   3.357   1.676   2.503 -0.5802  0.1070 -0.8344
 3369SOL    HW121986   3.304   1.609   2.546 -3.6031  1.5975 -2.2176
 3369SOL    HW221987   3.376   1.740   2.571 -1.2987 -0.0057 -0.5256
 3370SOL     OW21988   4.754   2.722  16.345  0.4967  0.2567 -0.1137
 3370SOL    HW121989   0.001   2.653  16.407  0.5736 -0.9957 -1.5462
 3370SOL    HW221990   0.027   2.701  16.265 -1.0592  0.8322 -1.2299
 3371SOL     OW21991   0.339   2.157   4.602 -0.8677 -0.2096 -0.0160
 3371SOL    HW121992   0.270   2.158   4.669 -1.0060  0.1237 -0.1631
 3371SOL    HW221993   0.295   2.122   4.524 -1.2144  1.3012 -0.4867
 3372SOL     OW21994   3.879   3.620   4.823 -0.1964  0.2421 -0.3655
 3372SOL    HW121995   3.866   3.587   4.912  1.2660  0.9135  0.0953
 3372SOL    HW221996   3.949   3.685   4.831  2.7792 -2.6105 -2.6381
 3373SOL     OW21997   3.926   4.505   8.435 -0.0191  0.1442  0.0037
 3373SOL    HW121998   3.866   4.441   8.396 -0.6613  0.7463  0.0071
 3373SOL    HW221999   4.005   4.454   8.455 -0.2851 -0.5134 -0.5892
 3374SOL     OW22000   0.182   3.542  14.851 -0.7152  0.4810 -0.0429
 3374SOL    HW122001   0.148   3.453  14.844  0.6688 -0.0007 -0.7875
 3374SOL    HW222002   0.206   3.552  14.943 -0.7878  0.0531  0.0221
 3375SOL     OW22003   3.435   1.871  17.174  0.2301  0.3358  0.0766
 3375SOL    HW122004   3.443   1.784  17.214  0.0493  0.5665  0.6078
 3375SOL    HW222005   3.363   1.913  17.221 -0.3764  0.3802 -0.8939
 3376SOL     OW22006   4.024   1.229  20.284  0.0948  0.0433  0.1804
 3376SOL    HW122007   3.956   1.194  20.227  1.0861 -1.1321 -0.2634
 3376SOL    HW222008   4.088   1.267  20.224  0.5309 -0.0981  0.5565
 3377SOL     OW22009   1.014   3.810  16.029 -0.2380 -0.3388  0.6250
 3377SOL    HW122010   1.032   3.716  16.035 -3.0342 -0.8049  1.2812
 3377SOL    HW222011   0.963   3.819  15.948  0.5870  0.6968  0.2199
 3378SOL     OW22012   3.384   0.495   4.201 -0.0936  0.0737  0.1385
 3378SOL    HW122013   3.329   0.561   4.243 -0.9870 -1.5872  1.5763
 3378SOL    HW222014   3.468   0.502   4.246 -0.0203  0.6283 -0.0898
 3379SOL     OW22015   2.361   2.717  18.976  0.2534 -0.2377  0.0454
 3379SOL    HW122016   2.400   2.706  18.889 -1.8165  0.8160 -1.0246
 3379SOL    HW222017   2.414   2.785  19.018 -0.3989  1.1350 -1.3674
 3380SOL     OW22018   1.668   3.630   2.335 -0.1199 -0.1481  0.2651
 3380SOL    HW122019   1.614   3.642   2.413  0.2196  0.3148  0.4233
 3380SOL    HW222020   1.676   3.535   2.327 -0.9505 -0.2228  0.2453
 3381SOL     OW22021   3.261   0.821   0.297  0.0227  0.1806  0.6551
 3381SOL    HW122022   3.347   0.862   0.285  0.0993 -0.6611 -1.6113
 3381SOL    HW222023   3.229   0.858   0.379  2.4648  0.6439  1.4159
 3382SOL     OW22024   0.371   1.034   6.079 -0.0494 -0.0050 -0.6505
 3382SOL    HW122025   0.339   1.101   6.019 -0.4109 -0.3956 -0.8883
 3382SOL    HW222026   0.314   0.959   6.064  0.5128 -0.4485 -0.5573
 3383SOL     OW22027   3.524   1.426   5.687 -0.2340 -0.1806  0.1469
 3383SOL    HW122028   3.469   1.366   5.636  0.4381 -0.1537 -0.5961
 3383SOL    HW222029   3.462   1.474   5.742 -1.3598  3.0228 -3.9185
 3384SOL     OW22030   0.878   1.990  19.468  0.4874  0.1060 -0.1607
 3384SOL    HW122031   0.920   2.015  19.551  2.0819  1.5056 -1.3915
 3384SOL    HW222032   0.918   2.047  19.403 -1.4503 -0.3641 -1.7622
 3385SOL     OW22033   2.515   3.057   0.443 -0.4284  0.4573  0.1277
 3385SOL    HW122034   2.435   3.109   0.453 -2.2430 -2.7106  2.2969
 3385SOL    HW222035   2.542   3.037   0.533  0.1704 -2.4566 -0.7052
 3386SOL     OW22036   1.717   4.365  11.323 -0.7599  0.2329 -0.0735
 3386SOL    HW122037   1.707   4.433  11.256 -2.7475  0.1241  0.1038
 3386SOL    HW222038   1.648   4.385  11.387  0.3050 -0.4324  1.2759
 3387SOL     OW22039   2.234   2.017  18.479 -0.2946  0.1043 -0.5764
 3387SOL    HW122040   2.181   1.943  18.449 -1.5301  0.9438 -0.4199
 3387SOL    HW222041   2.252   2.067  18.399  1.8728 -1.2445 -0.9260
 3388SOL     OW22042   0.887   2.225   5.133 -0.4375 -0.1187  0.9126
 3388SOL    HW122043   0.908   2.133   5.116 -0.0993 -0.0021  0.6954
 3388SOL    HW222044   0.946   2.251   5.204 -0.0262  0.1360  0.4787
 3389SOL     OW22045   4.572   0.970  17.458 -0.4192 -0.6125 -0.6832
 3389SOL    HW122046   4.505   0.982  17.525 -1.7180 -2.7138 -1.5984
 3389SOL    HW222047   4.612   0.885  17.479  1.2031  0.1215 -0.7846
 3390SOL     OW22048   3.270   4.417   6.554  0.2078 -0.4956 -0.3766
 3390SOL    HW122049   3.315   4.441   6.474  3.8253  1.8139  2.3635
 3390SOL    HW222050   3.214   4.492   6.574  0.9969 -0.1419  0.5026
 3391SOL     OW22051   0.057   2.327   1.875 -0.0557  0.0160  0.1712
 3391SOL    HW122052   4.771   2.371   1.817 -0.2851 -0.5759 -0.0351
 3391SOL    HW222053   0.012   2.323   1.959 -0.9794 -1.9174 -0.4034
 3392SOL     OW22054   2.985   3.035  17.001 -0.2492  0.5451  0.1288
 3392SOL    HW122055   2.908   2.987  17.033  0.9846 -0.5314  1.4838
 3392SOL    HW222056   3.058   2.974  17.011  0.9183  1.8243 -0.4685
 3393SOL     OW22057   4.196   1.244  10.573 -0.3954  0.0137 -0.1984
 3393SOL    HW122058   4.108   1.279  10.585 -0.9101 -1.1271 -0.5238
 3393SOL    HW222059   4.230   1.289  10.495 -0.4405  0.9419  0.3306
 3394SOL     OW22060   0.334   0.217   0.827  0.0867 -0.5949 -0.5550
 3394SOL    HW122061   0.368   0.146   0.881  0.9534 -1.6274 -2.4630
 3394SOL    HW222062   0.323   0.178   0.740 -2.0110  0.8480 -0.9458
 3395SOL     OW22063   2.411   3.411  14.294  0.2096 -0.2465 -0.2176
 3395SOL    HW122064   2.327   3.415  14.341  1.3978  0.6474  1.7941
 3395SOL    HW222065   2.450   3.328  14.321 -0.0626 -0.7109 -1.2365
 3396SOL     OW22066   2.798   4.433   5.185  0.7005  0.5909  0.3248
 3396SOL    HW122067   2.727   4.461   5.242  0.3067 -1.6071  0.9111
 3396SOL    HW222068   2.754   4.398   5.107  1.1450 -0.8292  0.7190
 3397SOL     OW22069   0.549   1.833   0.662  0.1407 -0.7674 -0.4784
 3397SOL    HW122070   0.534   1.799   0.574 -0.1374 -0.1013 -0.6933
 3397SOL    HW222071   0.582   1.759   0.712 -0.3482 -1.3164 -0.9724
 3398SOL     OW22072   2.272   0.818  11.689  0.1906 -0.5144 -0.0008
 3398SOL    HW122073   2.245   0.731  11.720 -1.4129  0.3024  0.8865
 3398SOL    HW222074   2.248   0.877  11.761  1.9190  0.5617 -0.3206
 3399SOL     OW22075   3.897   2.293  20.854  0.2358  0.5455 -0.1406
 3399SOL    HW122076   3.992   2.307  20.852 -0.0742  2.4600 -1.2889
 3399SOL    HW222077   3.877   2.254  20.769 -0.2038  1.3984 -0.4318
 3400SOL     OW22078   1.802   0.905  17.954  0.5042 -0.4793 -0.3295
 3400SOL    HW122079   1.765   0.979  17.906  1.2715 -0.3450 -0.7139
 3400SOL    HW222080   1.769   0.914  18.043  0.2187  0.0637 -0.4955
 3401SOL     OW22081   2.132   1.460   9.644 -0.1606  0.6246  1.0355
 3401SOL    HW122082   2.047   1.461   9.688 -0.8072  0.9665 -0.2341
 3401SOL    HW222083   2.114   1.424   9.557  1.0142  0.5968  0.7967
 3402SOL     OW22084   1.365   0.209  15.886  0.1785 -0.0841 -0.2002
 3402SOL    HW122085   1.332   0.173  15.804  0.0341 -0.2072 -0.0865
 3402SOL    HW222086   1.289   0.251  15.926 -0.0769 -1.3098  0.5805
 3403SOL     OW22087   2.803   1.723   6.698  0.1115 -0.3726  0.2190
 3403SOL    HW122088   2.786   1.704   6.606 -1.3562  0.8574  0.2216
 3403SOL    HW222089   2.852   1.648   6.730 -0.4712 -1.3774 -1.2568
 3404SOL     OW22090   4.663   1.367  19.557  0.0759  0.7430  0.8032
 3404SOL    HW122091   4.707   1.294  19.601  0.5484  0.4614 -0.1306
 3404SOL    HW222092   4.734   1.420  19.522 -0.3059  0.6433 -0.1401
 3405SOL     OW22093   0.376   2.814  17.532 -0.4191  0.0447 -0.1276
 3405SOL    HW122094   0.305   2.754  17.555  0.4107 -0.8941  0.0132
 3405SOL    HW222095   0.416   2.775  17.454  1.0129 -0.3282  0.7921
 3406SOL     OW22096   0.732   1.946   4.977  0.3713  0.5744  0.1944
 3406SOL    HW122097   0.800   1.976   4.916  0.0714  0.5209 -0.1591
 3406SOL    HW222098   0.655   1.997   4.954 -0.0601 -0.2619 -0.2164
 3407SOL     OW22099   4.726   0.117   3.022  0.1362  0.4437  0.1879
 3407SOL    HW122100   4.642   0.072   3.022  1.1444 -1.4668 -1.0121
 3407SOL    HW222101   4.716   0.186   2.956 -0.1521 -0.4018 -0.6467
 3408SOL     OW22102   2.554   2.519   5.016  0.2746  0.0231  0.7745
 3408SOL    HW122103   2.467   2.559   5.008  0.3328  0.0312  0.1916
 3408SOL    HW222104   2.604   2.556   4.944  0.4148 -0.8953  0.4044
 3409SOL     OW22105   2.404   4.082   1.882  0.0890 -0.3834  0.0543
 3409SOL    HW122106   2.493   4.067   1.914 -0.0130  1.2143  1.1225
 3409SOL    HW222107   2.415   4.126   1.798  0.3147 -0.8676 -0.1696
 3410SOL     OW22108   3.288   4.593   2.062  0.2187  0.7076 -0.6763
 3410SOL    HW122109   3.312   4.507   2.027 -2.5373 -0.4513  0.3065
 3410SOL    HW222110   3.311   4.589   2.154 -0.2829  0.8938 -0.5439
 3411SOL     OW22111   0.123   3.567  17.664 -0.1090 -0.1079 -0.3888
 3411SOL    HW122112   0.047   3.514  17.642  0.5986 -1.1766 -0.2760
 3411SOL    HW222113   0.173   3.513  17.725  0.3265  0.9198  0.1660
 3412SOL     OW22114   3.017   1.407  19.126 -0.1148 -0.3782 -0.3136
 3412SOL    HW122115   3.105   1.370  19.138  1.3679  3.3674  0.3999
 3412SOL    HW222116   2.961   1.354  19.182  1.5683 -3.3290 -1.4040
 3413SOL     OW22117   2.183   3.460   4.227  0.1255 -0.3581  0.4472
 3413SOL    HW122118   2.243   3.488   4.158  0.6453  0.1036  1.0919
 3413SOL    HW222119   2.197   3.522   4.298 -0.3556 -0.8804  0.9995
 3414SOL     OW22120   4.152   2.185   1.040 -0.3585  0.2941  0.0810
 3414SOL    HW122121   4.069   2.196   0.993 -0.8495  0.5902  1.0274
 3414SOL    HW222122   4.203   2.263   1.017 -0.7710  0.6546  0.3961
 3415SOL     OW22123   0.699   2.539  19.051 -0.4189  0.3896 -0.5035
 3415SOL    HW122124   0.620   2.535  19.105  0.4038  1.8831  0.8039
 3415SOL    HW222125   0.671   2.587  18.972 -0.4070  2.3174  0.6638
 3416SOL     OW22126   2.500   3.251   4.873 -0.2902 -0.3475 -0.3174
 3416SOL    HW122127   2.408   3.250   4.846 -0.2270 -1.6690 -0.4883
 3416SOL    HW222128   2.519   3.160   4.896  0.5966  0.1701  0.9969
 3417SOL     OW22129   1.513   3.962   1.727 -0.0403  0.1206  0.0562
 3417SOL    HW122130   1.482   3.873   1.713  1.6197 -0.6450  1.3059
 3417SOL    HW222131   1.587   3.971   1.667  1.2361 -0.0928  1.6071
 3418SOL     OW22132   1.901   3.146   0.440 -0.6537  0.1046  0.9333
 3418SOL    HW122133   1.829   3.116   0.384  2.0846 -0.4930 -2.3000
 3418SOL    HW222134   1.948   3.065   0.464  0.3786  0.7174  0.9858
 3419SOL     OW22135   0.846   2.036  18.291  0.0435  0.2541 -0.6637
 3419SOL    HW122136   0.936   2.006  18.276  0.2448  0.0601  0.8873
 3419SOL    HW222137   0.845   2.063  18.383 -1.7691 -0.7982 -0.3716
 3420SOL     OW22138   0.456   0.388  18.134  0.3009 -0.1585 -0.0033
 3420SOL    HW122139   0.457   0.469  18.083  2.1473 -1.6457 -2.3053
 3420SOL    HW222140   0.532   0.394  18.191  0.7718 -0.5683 -0.5969
 3421SOL     OW22141   2.186   3.530   9.134 -0.4907  0.3412  0.1426
 3421SOL    HW122142   2.164   3.604   9.190  0.6732 -0.1549  1.2378
 3421SOL    HW222143   2.133   3.457   9.169 -1.5105  0.6116 -0.8302
 3422SOL     OW22144   1.646   4.543   1.684  0.0800 -0.1979 -0.1408
 3422SOL    HW122145   1.554   4.541   1.711  0.0152  0.3013 -0.3324
 3422SOL    HW222146   1.673   4.634   1.697  0.6014 -0.3825  0.0964
 3423SOL     OW22147   1.494   0.400   2.424  0.3456 -0.4207 -0.0353
 3423SOL    HW122148   1.436   0.328   2.398  1.0081 -0.8243 -0.3730
 3423SOL    HW222149   1.572   0.389   2.371  1.0606 -0.3234  1.0018
 3424SOL     OW22150   1.941   3.954  17.803 -0.3208 -0.1224 -0.2840
 3424SOL    HW122151   1.970   3.960  17.713  0.6050  1.0280  0.0957
 3424SOL    HW222152   2.021   3.933  17.853 -0.7910 -0.5633  0.2898
 3425SOL     OW22153   4.397   1.517  20.398  0.2605 -0.5064  0.6777
 3425SOL    HW122154   4.406   1.532  20.304  1.1734 -1.0244  0.6761
 3425SOL    HW222155   4.426   1.600  20.438 -0.2998 -0.2261  0.4926
 3426SOL     OW22156   3.911   4.162   0.166 -0.6296  0.6358  0.8571
 3426SOL    HW122157   4.001   4.186   0.141 -1.2067  2.7647  0.8469
 3426SOL    HW222158   3.875   4.120   0.088  0.6631 -1.0358  1.1587
 3427SOL     OW22159   0.047   0.005  18.580  0.1597 -0.1070  0.6155
 3427SOL    HW122160   0.003   4.696  18.570  0.6920 -0.5046  1.6723
 3427SOL    HW222161   4.751   0.068  18.585 -0.2295 -0.4338 -0.6969
 3428SOL     OW22162   1.317   0.473   0.420 -0.1032  0.6143  0.1892
 3428SOL    HW122163   1.359   0.527   0.487 -1.2432  0.5801  0.9404
 3428SOL    HW222164   1.299   0.533   0.348 -0.4758  1.0393  0.6329
 3429SOL     OW22165   2.057   4.128  19.105 -0.7358 -0.0672 -0.1617
 3429SOL    HW122166   2.111   4.051  19.120  0.0818  0.1522 -1.9801
 3429SOL    HW222167   2.101   4.175  19.034 -1.4525  1.8529  0.6547
 3430SOL     OW22168   3.994   2.871   8.742 -0.1490 -0.2960 -0.0931
 3430SOL    HW122169   3.904   2.840   8.724 -0.3478  0.2486 -0.0129
 3430SOL    HW222170   4.019   2.918   8.662  0.1295 -0.5989 -0.1836
 3431SOL     OW22171   1.048   0.791  16.300  0.3447  0.2148 -0.1943
 3431SOL    HW122172   1.111   0.751  16.241  0.5063  1.1376 -0.6572
 3431SOL    HW222173   1.077   0.766  16.387 -0.1772 -1.5584 -0.5329
 3432SOL     OW22174   0.926   2.284   2.261  0.4525  0.1506 -0.1569
 3432SOL    HW122175   0.949   2.377   2.266 -1.7686  0.6143  1.3196
 3432SOL    HW222176   0.870   2.278   2.183 -2.7419  0.7365  2.0980
 3433SOL     OW22177   3.531   1.097  19.933  0.2981 -0.5257  0.1915
 3433SOL    HW122178   3.542   1.005  19.909  1.7822 -0.1366 -0.6439
 3433SOL    HW222179   3.542   1.145  19.850  0.1394  0.4521  0.7293
 3434SOL     OW22180   1.569   2.113  19.706  0.3899 -0.0941  0.1071
 3434SOL    HW122181   1.546   2.178  19.639 -0.5039  0.5601  1.0311
 3434SOL    HW222182   1.586   2.033  19.657 -0.6410  0.2768 -0.8815
 3435SOL     OW22183   1.126   3.560  16.097  0.0863 -0.0606  0.5224
 3435SOL    HW122184   1.138   3.539  16.189 -1.5704  0.3411  0.8182
 3435SOL    HW222185   1.212   3.545  16.058  1.3055  1.7901  2.5230
 3436SOL     OW22186   1.791   2.300  19.599 -0.0227  0.1232  0.4082
 3436SOL    HW122187   1.778   2.389  19.629 -1.7777 -0.2869  0.8526
 3436SOL    HW222188   1.819   2.251  19.677  0.0813  0.0916  0.3517
 3437SOL     OW22189   0.058   2.093   5.495  0.2628  0.7197 -0.6872
 3437SOL    HW122190   0.030   2.149   5.422  1.3408  2.1721  0.0134
 3437SOL    HW222191   0.120   2.031   5.455 -2.3059 -1.1203 -1.8127
 3438SOL     OW22192   2.598   1.054  16.420 -0.1648  0.1240  0.5215
 3438SOL    HW122193   2.585   1.148  16.419 -1.6356 -0.0788  1.1666
 3438SOL    HW222194   2.693   1.043  16.412 -0.0988  1.6231 -0.8508
 3439SOL     OW22195   3.006   3.095   9.464 -0.2696 -0.4128 -0.2905
 3439SOL    HW122196   3.011   3.053   9.550 -1.0990  1.7601  0.8099
 3439SOL    HW222197   3.016   3.023   9.402 -1.0228 -2.1622  1.6189
 3440SOL     OW22198   1.810   1.553   2.268 -0.1309  0.4346  0.0597
 3440SOL    HW122199   1.733   1.590   2.225 -0.8450 -2.1259 -0.8754
 3440SOL    HW222200   1.774   1.491   2.332  1.1726 -1.4063 -0.9951
 3441SOL     OW22201   1.484   1.637  16.871 -0.0073 -0.0129  0.0167
 3441SOL    HW122202   1.557   1.671  16.820  0.6430 -0.6454  0.5203
 3441SOL    HW222203   1.447   1.568  16.817  0.5196 -0.5078  0.2909
 3442SOL     OW22204   2.042   2.615  20.054 -0.1477 -0.4918 -0.0354
 3442SOL    HW122205   2.137   2.613  20.068 -0.0313  1.6830 -0.4771
 3442SOL    HW222206   2.022   2.708  20.042 -2.3365 -0.9565  0.0704
 3443SOL     OW22207   0.805   3.688  20.533 -0.0436  0.2062  0.2418
 3443SOL    HW122208   0.710   3.701  20.531  0.0960  0.9213 -1.5832
 3443SOL    HW222209   0.816   3.597  20.562 -1.2985 -0.1017 -0.2514
 3444SOL     OW22210   4.132   1.170   2.573 -0.0892  0.0997 -0.7695
 3444SOL    HW122211   4.160   1.214   2.653  0.6375 -1.3469 -0.2336
 3444SOL    HW222212   4.070   1.231   2.533 -0.6871  0.6815  1.0415
 3445SOL     OW22213   2.738   3.332  12.536  0.1877  0.0462 -1.0189
 3445SOL    HW122214   2.789   3.300  12.610 -0.7959  0.0558 -0.3313
 3445SOL    HW222215   2.692   3.254  12.503 -1.6073  0.6103  0.1747
 3446SOL     OW22216   3.592   0.046   2.910  0.1277 -0.0732  0.2546
 3446SOL    HW122217   3.673   0.064   2.863  0.2525 -0.3478  0.3656
 3446SOL    HW222218   3.607   0.081   2.998  0.5892 -1.2708  0.6430
 3447SOL     OW22219   1.555   2.045  18.755 -0.0786  0.5594  0.3567
 3447SOL    HW122220   1.613   2.120  18.765 -0.3964  0.7603  0.7038
 3447SOL    HW222221   1.549   2.032  18.660  3.3846 -1.7101  0.4678
 3448SOL     OW22222   2.886   1.229  17.653  0.1176  0.3613  0.5743
 3448SOL    HW122223   2.894   1.134  17.657  0.7187  0.3535 -1.0176
 3448SOL    HW222224   2.963   1.261  17.700 -0.1615  0.0544  1.2357
 3449SOL     OW22225   4.609   1.533  10.051  0.0597  0.2286  0.4089
 3449SOL    HW122226   4.526   1.558  10.091 -0.3108  0.8268 -0.7459
 3449SOL    HW222227   4.645   1.615  10.017  1.1275 -0.0242  0.9258
 3450SOL     OW22228   1.208   3.181  20.543 -0.1033 -0.5442 -0.0797
 3450SOL    HW122229   1.181   3.261  20.588 -1.5690 -0.1098 -1.7310
 3450SOL    HW222230   1.274   3.142  20.601  0.1895  1.5500  1.0103
 3451SOL     OW22231   1.168   2.340   3.241 -0.5158 -0.1009 -0.0676
 3451SOL    HW122232   1.162   2.252   3.278  2.7348  0.1970  1.1669
 3451SOL    HW222233   1.175   2.326   3.146 -0.4437 -1.1571  0.0967
 3452SOL     OW22234   2.680   0.751   0.034 -0.2981  0.1053 -0.4429
 3452SOL    HW122235   2.706   0.795   0.115  1.8234 -1.3447 -0.3369
 3452SOL    HW222236   2.586   0.737   0.043 -0.1088  0.2366  1.6238
 3453SOL     OW22237   3.233   3.157  14.802 -0.2042  0.2166 -0.1930
 3453SOL    HW122238   3.216   3.088  14.738  0.3073 -0.6207  0.5642
 3453SOL    HW222239   3.311   3.127  14.848  0.5815  1.7815 -0.5228
 3454SOL     OW22240   2.685   2.419   2.891  0.4837  0.5506 -0.1013
 3454SOL    HW122241   2.689   2.327   2.919 -0.7006  0.6041  0.2350
 3454SOL    HW222242   2.710   2.469   2.968  0.4454  0.5511 -0.0896
 3455SOL     OW22243   1.377   4.676   8.594  0.5339  0.3579 -0.6589
 3455SOL    HW122244   1.438   4.719   8.655 -0.3252  0.7644 -0.0890
 3455SOL    HW222245   1.425   4.600   8.563  1.7683  1.3013 -1.0691
 3456SOL     OW22246   2.457   3.751  14.370  0.0173  0.1566 -0.4239
 3456SOL    HW122247   2.550   3.732  14.375  0.4239  2.1504 -0.6778
 3456SOL    HW222248   2.418   3.695  14.437  1.2169 -1.7962 -1.3499
 3457SOL     OW22249   3.777   0.716  19.124  0.3659 -0.1220  0.1187
 3457SOL    HW122250   3.795   0.654  19.053  0.7218  0.0734  0.0364
 3457SOL    HW222251   3.829   0.683  19.198  1.5234  0.7817 -0.2984
 3458SOL     OW22252   1.709   0.383  19.016  0.7186 -0.1806 -0.4338
 3458SOL    HW122253   1.789   0.353  19.058  0.8804 -0.7952 -1.1681
 3458SOL    HW222254   1.689   0.466  19.058  2.0937  0.2850 -0.6891
 3459SOL     OW22255   3.268   1.722  16.160  0.0458  0.5911 -0.4883
 3459SOL    HW122256   3.210   1.794  16.185 -2.5841 -1.5383 -0.4640
 3459SOL    HW222257   3.306   1.693  16.243  0.3749  1.3358 -0.3797
 3460SOL     OW22258   1.735   1.864   2.702  0.2082  0.6023 -0.6855
 3460SOL    HW122259   1.758   1.826   2.617  1.1818 -0.5496  0.0912
 3460SOL    HW222260   1.656   1.817   2.729 -0.3604  1.2839 -1.1658
 3461SOL     OW22261   2.462   1.262   2.288 -0.5536 -0.3594 -0.2897
 3461SOL    HW122262   2.420   1.345   2.267  0.5764  0.1575 -0.4594
 3461SOL    HW222263   2.526   1.248   2.219  0.9214 -0.2170  1.0321
 3462SOL     OW22264   3.203   0.443  15.366 -0.5621 -0.1024  0.0395
 3462SOL    HW122265   3.294   0.412  15.356 -0.7501 -1.1092  1.4528
 3462SOL    HW222266   3.212   0.537  15.383  0.1049  0.2739 -2.3201
 3463SOL     OW22267   1.993   1.889   3.961  0.5320  0.6924 -0.5267
 3463SOL    HW122268   1.970   1.923   3.874 -0.2173  0.3373 -0.4646
 3463SOL    HW222269   1.927   1.822   3.978  1.9956 -0.7756 -0.6424
 3464SOL     OW22270   3.637   1.717  18.031  0.4933 -0.4509 -0.0562
 3464SOL    HW122271   3.545   1.695  18.012  1.0227 -3.2165  0.5106
 3464SOL    HW222272   3.638   1.739  18.124  0.0931  1.1959 -0.4491
 3465SOL     OW22273   3.481   2.857   3.825  0.1508  0.5397 -0.4412
 3465SOL    HW122274   3.558   2.831   3.874 -1.0791  0.7704  1.6127
 3465SOL    HW222275   3.436   2.920   3.882 -2.0501 -0.3188 -1.2375
 3466SOL     OW22276   4.687   1.633   4.920 -0.1345 -0.1022  0.0349
 3466SOL    HW122277   4.673   1.540   4.936 -1.1991 -0.1630 -1.2831
 3466SOL    HW222278   4.712   1.668   5.006  0.1594 -1.5727  0.5526
 3467SOL     OW22279   3.067   3.281  13.786 -0.0462  0.2726 -0.5556
 3467SOL    HW122280   2.998   3.284  13.720 -0.2501  0.0136 -0.3553
 3467SOL    HW222281   3.040   3.346  13.851 -0.1902  0.0538 -0.3937
 3468SOL     OW22282   0.850   4.537   2.107  0.5587  0.5351  0.0444
 3468SOL    HW122283   0.856   4.460   2.051  1.2378 -0.6202  1.7034
 3468SOL    HW222284   0.908   4.601   2.066  0.0324  0.1478 -1.3020
 3469SOL     OW22285   4.091   0.056   3.866 -0.3305 -0.4295 -0.0073
 3469SOL    HW122286   4.057   0.142   3.889  2.0332  0.2853  0.8443
 3469SOL    HW222287   4.033   0.025   3.796 -2.0883  1.2049  0.7285
 3470SOL     OW22288   3.775   0.814   4.423  0.1289  0.1897  0.3992
 3470SOL    HW122289   3.680   0.813   4.419  0.1815 -0.4189 -0.6463
 3470SOL    HW222290   3.798   0.727   4.455  0.4168 -0.2065 -0.9107
 3471SOL     OW22291   1.035   3.196   6.707 -0.3112  0.1134 -0.6460
 3471SOL    HW122292   1.109   3.225   6.653 -0.6157  0.8787 -0.6491
 3471SOL    HW222293   0.984   3.275   6.722 -1.1707 -0.4316 -0.7019
 3472SOL     OW22294   3.690   1.283   0.661  0.0519  0.0065  0.8035
 3472SOL    HW122295   3.645   1.358   0.700 -1.2198 -0.6704  0.6345
 3472SOL    HW222296   3.744   1.321   0.592 -2.9122  0.4545 -1.3043
 3473SOL     OW22297   3.140   3.478   9.096  0.7741  0.1572  0.4469
 3473SOL    HW122298   3.055   3.515   9.071  1.5369 -0.1236 -2.5466
 3473SOL    HW222299   3.118   3.403   9.152 -0.9414  0.6573  0.4295
 3474SOL     OW22300   1.170   4.567   7.845  0.3370 -0.2746  0.4165
 3474SOL    HW122301   1.185   4.496   7.783  2.5290 -1.3512  2.1941
 3474SOL    HW222302   1.175   4.647   7.792  1.6994 -1.2377 -0.8990
 3475SOL     OW22303   1.854   2.755   2.643 -0.2232 -0.1177  1.0934
 3475SOL    HW122304   1.859   2.837   2.593  2.4537 -1.0423 -0.1475
 3475SOL    HW222305   1.859   2.783   2.735 -0.1017  1.1771  0.6973
 3476SOL     OW22306   4.272   0.077  16.892  0.1849 -0.4616 -0.1280
 3476SOL    HW122307   4.237   4.764  16.893 -1.2167  0.1030 -0.3443
 3476SOL    HW222308   4.338   0.075  16.822  0.5470 -1.4817  0.2403
 3477SOL     OW22309   0.486   2.853  19.204 -0.4360 -0.2817 -0.1609
 3477SOL    HW122310   0.548   2.886  19.268  0.4878  0.6990 -1.5679
 3477SOL    HW222311   0.446   2.777  19.246  0.2547  0.2976  1.5247
 3478SOL     OW22312   3.197   3.352   4.513 -0.0612  0.5437 -0.4300
 3478SOL    HW122313   3.103   3.365   4.519 -0.2280 -0.4618 -0.8564
 3478SOL    HW222314   3.209   3.257   4.522  1.0622  0.8854  1.6546
 3479SOL     OW22315   1.167   4.711   5.236  0.2077  0.5618  0.2741
 3479SOL    HW122316   1.115   0.006   5.199 -1.9572 -2.7149 -2.9720
 3479SOL    HW222317   1.103   4.646   5.264  2.3029 -1.4165  0.4884
 3480SOL     OW22318   1.428   2.804  18.817 -0.3962  0.1699  0.4226
 3480SOL    HW122319   1.436   2.798  18.912  1.7381 -0.1283  0.2245
 3480SOL    HW222320   1.517   2.824  18.787 -1.2276  1.0307 -1.4438
 3481SOL     OW22321   3.005   4.087  17.202  0.2067  0.4161  0.1383
 3481SOL    HW122322   3.065   4.038  17.145  0.8217  1.3799 -0.0395
 3481SOL    HW222323   3.027   4.179  17.187  1.3247  0.6340  2.9641
 3482SOL     OW22324   0.831   0.672   4.353 -0.1106  0.1859  0.6555
 3482SOL    HW122325   0.915   0.706   4.321  0.1071  0.6621  1.7317
 3482SOL    HW222326   0.767   0.701   4.287  0.2524  1.6486  0.9414
 3483SOL     OW22327   1.241   1.204   0.538 -0.4746  0.0860  0.2323
 3483SOL    HW122328   1.185   1.268   0.582  0.7711  1.2799  0.0824
 3483SOL    HW222329   1.181   1.149   0.488 -1.3749  2.1928 -0.9959
 3484SOL     OW22330   2.268   1.000   2.621 -0.5194  0.2611  0.0305
 3484SOL    HW122331   2.290   0.922   2.571 -0.4273  0.6631 -0.5607
 3484SOL    HW222332   2.180   1.024   2.592 -1.3049 -0.7255  1.6087
 3485SOL     OW22333   1.236   3.225  15.348 -0.4908  0.3893 -0.3793
 3485SOL    HW122334   1.301   3.189  15.288  0.1499 -0.5945  0.9163
 3485SOL    HW222335   1.163   3.163  15.346 -0.0957 -0.0954  0.5575
 3486SOL     OW22336   0.431   0.930  20.396  0.2144 -0.0258  0.6521
 3486SOL    HW122337   0.408   0.862  20.459  0.1203  0.7954  1.4885
 3486SOL    HW222338   0.419   0.888  20.311  2.0277 -1.6706  1.2078
 3487SOL     OW22339   1.837   1.788   1.631 -0.3568 -0.4919  0.7148
 3487SOL    HW122340   1.792   1.872   1.638 -0.8139 -0.5948 -1.0068
 3487SOL    HW222341   1.808   1.752   1.547  0.6043 -1.9158  0.9948
 3488SOL     OW22342   4.389   4.042   4.257 -0.2352  0.0045  0.0273
 3488SOL    HW122343   4.412   3.967   4.202 -1.1116  0.0080 -0.3441
 3488SOL    HW222344   4.349   4.104   4.196 -0.6019  0.2814  0.5586
 3489SOL     OW22345   4.556   1.505   6.319  0.7527  0.3148 -1.0728
 3489SOL    HW122346   4.541   1.563   6.394  0.1873 -1.2026 -0.0181
 3489SOL    HW222347   4.638   1.459   6.340  0.2606 -0.5738 -1.0955
 3490SOL     OW22348   0.652   0.974  19.954  0.3434  0.8787  0.7795
 3490SOL    HW122349   0.677   1.033  20.025  1.4555 -0.9190  1.8655
 3490SOL    HW222350   0.715   0.903  19.958 -0.4176  0.0923 -1.1656
 3491SOL     OW22351   2.252   2.976   5.462  0.2602  0.1225  0.0253
 3491SOL    HW122352   2.260   3.008   5.552 -2.0571  0.6036  0.0624
 3491SOL    HW222353   2.289   2.888   5.465  1.5589  0.7059  1.1323
 3492SOL     OW22354   2.170   2.938  16.171 -0.0890 -0.0725 -0.3133
 3492SOL    HW122355   2.243   2.877  16.162 -0.6406 -1.1629  2.4165
 3492SOL    HW222356   2.093   2.885  16.149 -0.0476  1.0371 -3.0568
 3493SOL     OW22357   3.800   2.901  20.275  0.0683 -0.2275  0.3875
 3493SOL    HW122358   3.787   2.843  20.200  3.8554  0.1323 -0.5531
 3493SOL    HW222359   3.792   2.989  20.239  1.2581 -0.0656  0.5010
 3494SOL     OW22360   4.119   1.178  16.949 -0.2565  0.1084  0.2912
 3494SOL    HW122361   4.102   1.112  16.882 -1.1432  0.5864  0.0368
 3494SOL    HW222362   4.064   1.152  17.023  0.0746  0.0537  0.5148
 3495SOL     OW22363   3.246   1.316   9.705  0.0505  0.1341  0.3267
 3495SOL    HW122364   3.294   1.339   9.626 -0.3446 -1.6884 -0.4585
 3495SOL    HW222365   3.159   1.351   9.692  0.1806  0.4207  0.2380
 3496SOL     OW22366   2.179   2.144  19.751  0.3356 -0.3137  0.0910
 3496SOL    HW122367   2.211   2.173  19.837  2.3563  0.4107 -0.9038
 3496SOL    HW222368   2.126   2.216  19.719 -0.2634 -0.5054  0.6615
 3497SOL     OW22369   0.069   2.692  13.600  0.6552  0.4873 -0.2054
 3497SOL    HW122370   0.002   2.760  13.587  2.3743  2.4137  0.8775
 3497SOL    HW222371   0.030   2.633  13.665 -0.6534  0.7218 -0.7714
 3498SOL     OW22372   1.606   3.819  15.165  0.4931 -0.4409  0.3796
 3498SOL    HW122373   1.596   3.843  15.257  1.8147  0.3830  0.3001
 3498SOL    HW222374   1.686   3.862  15.137 -0.9389  0.8716 -1.6834
 3499SOL     OW22375   1.532   3.581  10.407  0.2463 -0.5791 -0.3672
 3499SOL    HW122376   1.526   3.660  10.460 -1.4913 -1.1728  0.3106
 3499SOL    HW222377   1.609   3.535  10.441 -0.6066 -0.7495  1.3360
 3500SOL     OW22378   2.074   2.493   3.010  0.5081  1.1103 -0.2755
 3500SOL    HW122379   2.062   2.461   2.921 -0.3726 -0.2110  0.3178
 3500SOL    HW222380   2.168   2.486   3.027  0.3605 -0.8237 -0.2620
 3501SOL     OW22381   4.144   3.185   1.911  0.0916  0.3061 -0.3448
 3501SOL    HW122382   4.053   3.169   1.886 -0.1718  0.3446  0.6203
 3501SOL    HW222383   4.180   3.236   1.838 -1.1121  1.6820  0.0275
 3502SOL     OW22384   4.229   1.406   3.434  0.1830  0.6876 -0.6025
 3502SOL    HW122385   4.296   1.339   3.444 -0.2600  0.7223  2.3689
 3502SOL    HW222386   4.272   1.476   3.384  1.7923 -0.1156 -0.3189
 3503SOL     OW22387   2.069   0.478   1.018  0.2060 -0.1754 -1.0660
 3503SOL    HW122388   2.042   0.556   0.967 -0.6952 -0.0475 -0.3971
 3503SOL    HW222389   1.987   0.432   1.034  0.6068 -0.6512 -0.4390
 3504SOL     OW22390   1.403   0.141  19.355 -0.4412 -0.0686  0.0382
 3504SOL    HW122391   1.468   0.080  19.390 -0.9547 -1.3354 -1.2105
 3504SOL    HW222392   1.454   0.216  19.326  0.5382 -1.3307 -1.5241
 3505SOL     OW22393   1.469   3.337   3.159  0.5570 -0.3067  0.1379
 3505SOL    HW122394   1.403   3.403   3.136  0.9803  0.0992  0.0818
 3505SOL    HW222395   1.454   3.321   3.252 -1.3050 -2.1184 -0.4757
 3506SOL     OW22396   1.557   1.855   5.106  0.2680  0.4726 -0.0446
 3506SOL    HW122397   1.627   1.917   5.127  0.1036  0.8957 -0.7363
 3506SOL    HW222398   1.583   1.816   5.023 -0.3564  0.6885 -0.3434
 3507SOL     OW22399   0.685   0.176  16.737  0.5140 -0.6210  0.0337
 3507SOL    HW122400   0.776   0.195  16.716 -0.5333  1.7861 -2.4024
 3507SOL    HW222401   0.658   0.246  16.796 -0.8164  0.6127 -2.0599
 3508SOL     OW22402   4.424   1.163  13.495  0.0526  0.4701  0.5508
 3508SOL    HW122403   4.479   1.085  13.506 -0.4250 -0.1497 -1.4245
 3508SOL    HW222404   4.386   1.153  13.408  0.1550  3.0218  0.2120
 3509SOL     OW22405   1.414   1.128  16.995 -0.2032 -0.0091  0.0682
 3509SOL    HW122406   1.463   1.158  17.072  0.2519  2.3419 -1.1557
 3509SOL    HW222407   1.323   1.152  17.014 -0.2236 -0.2220  0.2491
 3510SOL     OW22408   2.552   3.764   1.646  0.0018  0.0189 -0.1770
 3510SOL    HW122409   2.483   3.772   1.712  0.7285  1.8964  0.3593
 3510SOL    HW222410   2.517   3.812   1.570 -0.1952 -0.8583 -0.6406
 3511SOL     OW22411   3.854   4.506   0.013  0.5957 -0.4445 -0.2248
 3511SOL    HW122412   3.855   4.449   0.090  0.8163  0.2122  0.2666
 3511SOL    HW222413   3.772   4.554   0.020  2.1470  1.9856  1.3681
 3512SOL     OW22414   3.772   3.861   1.212 -0.2040  0.2129  0.1456
 3512SOL    HW122415   3.752   3.771   1.238 -0.9467  0.4708  0.4541
 3512SOL    HW222416   3.689   3.896   1.181  0.4466  0.2558 -1.5436
 3513SOL     OW22417   3.798   2.008   0.776  0.3641  0.2900 -0.0043
 3513SOL    HW122418   3.893   2.008   0.766  0.6794  0.9312  3.0085
 3513SOL    HW222419   3.777   1.923   0.813 -0.1359  0.5434  0.3062
 3514SOL     OW22420   2.464   3.652  15.915  0.3551 -0.3668 -0.2176
 3514SOL    HW122421   2.407   3.726  15.893 -0.4129 -1.0278 -0.4372
 3514SOL    HW222422   2.488   3.667  16.006 -2.3922 -1.5450  0.7240
 3515SOL     OW22423   0.006   4.626  21.083  0.3898  0.0039 -0.0325
 3515SOL    HW122424   0.042   4.667  21.004  1.6087 -1.4869 -0.2597
 3515SOL    HW222425   0.067   4.652  21.153 -0.0509  0.3817  0.2075
 3516SOL     OW22426   1.142   4.068   8.421  0.2648  0.1654  0.1935
 3516SOL    HW122427   1.232   4.101   8.425  0.3138  0.0254  0.2460
 3516SOL    HW222428   1.149   3.987   8.371  0.1303  0.2808 -0.0138
 3517SOL     OW22429   4.328   2.367  19.213  0.2955 -0.2466  0.0367
 3517SOL    HW122430   4.291   2.331  19.294  1.4276 -0.6680  0.3708
 3517SOL    HW222431   4.368   2.450  19.239 -0.8737  0.4511 -0.4197
 3518SOL     OW22432   3.398   4.215   4.171 -0.0609 -0.3031 -0.7190
 3518SOL    HW122433   3.354   4.293   4.138  0.2882 -0.1250 -0.7659
 3518SOL    HW222434   3.490   4.240   4.177 -0.2114 -0.1526  0.9295
 3519SOL     OW22435   4.676   1.314  19.135 -0.0720 -0.5071 -0.3063
 3519SOL    HW122436   4.731   1.383  19.097  0.8258 -2.2550 -2.2054
 3519SOL    HW222437   4.729   1.234  19.128 -2.0908 -1.8458 -0.4184
 3520SOL     OW22438   1.312   0.036   0.003 -0.0861 -0.2223 -0.2698
 3520SOL    HW122439   1.285   0.114  21.151  1.8780  0.0900 -0.8671
 3520SOL    HW222440   1.313   4.743  21.132 -0.6797 -0.5173  0.0225
 3521SOL     OW22441   2.051   0.149  16.857 -0.1888 -0.5782  0.1284
 3521SOL    HW122442   2.013   0.216  16.914 -0.8434 -0.1088 -0.8551
 3521SOL    HW222443   2.137   0.184  16.834 -0.2039 -0.4479  0.2670
 3522SOL     OW22444   2.223   0.714   4.939 -0.1223 -0.0329  0.1482
 3522SOL    HW122445   2.292   0.764   4.982  0.2060 -1.0565  0.8376
 3522SOL    HW222446   2.213   0.636   4.994 -0.6467 -0.7036 -0.8968
 3523SOL     OW22447   1.928   2.830   9.159  0.3074 -0.2012  0.1088
 3523SOL    HW122448   2.022   2.818   9.146  0.5677  1.0428  0.9035
 3523SOL    HW222449   1.899   2.750   9.202  1.1241 -0.2715  0.5187
 3524SOL     OW22450   1.019   2.364   5.609 -0.7059 -0.6334  0.3311
 3524SOL    HW122451   0.967   2.304   5.663 -0.7791 -1.2406 -0.4156
 3524SOL    HW222452   1.023   2.445   5.660 -0.7916 -1.2068  1.2424
 3525SOL     OW22453   4.500   2.837   5.459  0.0614  0.2805  0.0002
 3525SOL    HW122454   4.589   2.829   5.493  0.1477 -1.0704 -0.5254
 3525SOL    HW222455   4.497   2.923   5.417  0.7762  0.7904  1.0141
 3526SOL     OW22456   4.392   0.272   2.740  0.0417  0.1049  0.4518
 3526SOL    HW122457   4.386   0.311   2.653 -1.3182  0.3147  0.6449
 3526SOL    HW222458   4.344   0.332   2.797  1.2254  0.1539  1.4112
 3527SOL     OW22459   0.463   3.599   4.039  0.0751 -0.2467 -0.1425
 3527SOL    HW122460   0.522   3.663   4.001  1.4188 -0.6483  1.2627
 3527SOL    HW222461   0.384   3.649   4.062  0.7439  0.7004  0.0676
 3528SOL     OW22462   0.599   4.552   9.419 -0.3650  0.0245 -0.0680
 3528SOL    HW122463   0.536   4.481   9.418  1.3278 -1.4960  0.2307
 3528SOL    HW222464   0.668   4.523   9.360  0.7375  1.0302  0.7205
 3529SOL     OW22465   2.496   4.248  13.730 -0.3457  0.3227  0.4856
 3529SOL    HW122466   2.456   4.237  13.817  0.7295  1.5447  1.1353
 3529SOL    HW222467   2.567   4.184  13.729 -0.7800 -0.1572  0.2512
 3530SOL     OW22468   2.823   4.068  14.995  0.0807 -0.0783 -0.3738
 3530SOL    HW122469   2.793   4.018  15.071 -1.0831 -0.5317 -1.1308
 3530SOL    HW222470   2.918   4.066  15.002 -0.0355  0.2204  1.2926
 3531SOL     OW22471   2.670   0.490  17.576 -0.6137  0.2318 -0.1082
 3531SOL    HW122472   2.592   0.545  17.585 -0.0556  0.7579  1.4370
 3531SOL    HW222473   2.733   0.527  17.637  0.9210 -0.1004 -1.4807
 3532SOL     OW22474   2.314   2.661   0.719 -0.4508 -0.3868  0.1257
 3532SOL    HW122475   2.392   2.616   0.687 -0.1301  0.8023 -0.7730
 3532SOL    HW222476   2.331   2.753   0.702 -1.6978 -0.0524  0.6982
 3533SOL     OW22477   2.549   1.799   5.274 -0.6459  0.0583  0.1464
 3533SOL    HW122478   2.494   1.739   5.325 -2.7027  1.8124  0.0048
 3533SOL    HW222479   2.518   1.789   5.184 -1.7372  2.1791  0.2956
 3534SOL     OW22480   0.957   0.082  14.661 -0.2462 -0.1354 -0.4407
 3534SOL    HW122481   1.040   0.044  14.690 -0.8972 -0.1681  1.3554
 3534SOL    HW222482   0.904   0.088  14.740 -1.8120  0.2784 -1.5163
 3535SOL     OW22483   2.286   1.946  10.729 -0.4469  0.6688 -0.4491
 3535SOL    HW122484   2.320   1.989  10.650  1.4411  0.0786  0.0598
 3535SOL    HW222485   2.360   1.943  10.789 -1.2658 -1.0125  0.4708
 3536SOL     OW22486   1.878   3.100   1.485 -0.1956 -0.3186 -0.5238
 3536SOL    HW122487   1.829   3.068   1.409 -1.7024  0.2353  0.2317
 3536SOL    HW222488   1.813   3.108   1.555  1.1653 -0.6469  0.7785
 3537SOL     OW22489   1.244   1.543  16.235  0.0854  0.2699  0.2239
 3537SOL    HW122490   1.313   1.562  16.171 -1.4418  1.4007 -1.0990
 3537SOL    HW222491   1.163   1.542  16.183 -0.9877 -0.1436  1.9120
 3538SOL     OW22492   4.031   2.611   8.710 -0.4680  0.9405  0.0652
 3538SOL    HW122493   4.040   2.696   8.753  0.3080  0.3793  1.0146
 3538SOL    HW222494   3.991   2.555   8.776 -0.4942  0.4345 -0.3864
 3539SOL     OW22495   3.475   0.074  20.932  0.0549 -0.0817 -0.2441
 3539SOL    HW122496   3.547   0.032  20.884 -0.3523 -1.0807  0.0151
 3539SOL    HW222497   3.516   0.149  20.975  0.5759  0.3918 -1.5398
 3540SOL     OW22498   1.416   0.626   9.449 -0.0944  0.0507 -0.0219
 3540SOL    HW122499   1.332   0.636   9.493  0.8264  0.7656  1.5763
 3540SOL    HW222500   1.416   0.694   9.382 -1.4221 -0.9186 -0.9816
 3541SOL     OW22501   4.554   2.500   4.721 -0.0311 -0.3797  0.2597
 3541SOL    HW122502   4.567   2.592   4.697  1.1406 -0.1033  1.8738
 3541SOL    HW222503   4.531   2.503   4.814  0.9452 -1.7869  0.5459
 3542SOL     OW22504   1.893   4.627  19.367  0.0100  0.2255  0.5421
 3542SOL    HW122505   1.932   4.541  19.384 -0.8323 -0.0338  1.1766
 3542SOL    HW222506   1.950   4.689  19.412  0.9969  0.0576 -0.4732
 3543SOL     OW22507   2.122   2.902  18.096  0.0713  0.0518 -0.2950
 3543SOL    HW122508   2.186   2.964  18.130  0.2468 -0.1517 -0.2480
 3543SOL    HW222509   2.062   2.887  18.169  2.0870 -2.5372  0.8435
 3544SOL     OW22510   1.674   2.066   1.240  0.0655 -0.0878  0.2225
 3544SOL    HW122511   1.767   2.066   1.262  0.1287 -0.2432 -0.0556
 3544SOL    HW222512   1.630   2.057   1.325  0.2953  0.2869  0.3851
 3545SOL     OW22513   0.645   3.883   2.045  0.2815 -0.3052  0.0005
 3545SOL    HW122514   0.721   3.923   2.088 -0.0235  0.4146 -0.1391
 3545SOL    HW222515   0.632   3.800   2.093 -0.3128  0.6924  1.5737
 3546SOL     OW22516   2.670   3.930  11.815  0.1782 -0.2252 -0.3688
 3546SOL    HW122517   2.598   3.872  11.839 -0.2670  0.2459 -0.5537
 3546SOL    HW222518   2.748   3.875  11.816 -0.3866 -1.0393 -1.5170
 3547SOL     OW22519   3.144   3.222  16.396  0.5028  0.4338 -0.1240
 3547SOL    HW122520   3.183   3.310  16.397 -3.0423  1.9916 -0.4325
 3547SOL    HW222521   3.141   3.198  16.303 -2.2763  1.6166 -0.3275
 3548SOL     OW22522   4.680   1.949   7.434  0.1433  0.5681  0.1539
 3548SOL    HW122523   4.680   1.857   7.462  0.2492  1.0420  1.7022
 3548SOL    HW222524   4.772   1.975   7.440  0.2961  0.4332 -1.4403
 3549SOL     OW22525   1.118   2.130  16.212  0.1030  0.3600  0.5781
 3549SOL    HW122526   1.038   2.098  16.172 -0.7426  1.8068  1.0939
 3549SOL    HW222527   1.106   2.114  16.306  1.8254 -2.4862  0.2807
 3550SOL     OW22528   1.558   0.670   6.323  0.0102 -0.5679  0.4326
 3550SOL    HW122529   1.487   0.734   6.324  0.0638 -0.4909 -0.8279
 3550SOL    HW222530   1.514   0.587   6.306 -0.2653 -1.1119  3.8443
 3551SOL     OW22531   2.130   1.888  19.647 -0.5942  0.0893  0.1345
 3551SOL    HW122532   2.144   1.980  19.669 -0.7094  0.0398  0.4139
 3551SOL    HW222533   2.196   1.841  19.698 -2.9843 -0.3042  2.8740
 3552SOL     OW22534   2.576   3.073   2.204 -0.5487 -0.5668 -0.4189
 3552SOL    HW122535   2.582   3.116   2.289 -1.9076 -1.4269  0.1331
 3552SOL    HW222536   2.545   3.141   2.144 -0.7530 -0.2609  0.0333
 3553SOL     OW22537   1.906   4.590  20.092 -0.3136 -0.0999 -0.1261
 3553SOL    HW122538   1.836   4.646  20.127  0.2687 -0.0880  1.0293
 3553SOL    HW222539   1.950   4.645  20.026  1.5883  1.5465  2.4977
 3554SOL     OW22540   3.535   0.155  17.857 -0.2935 -0.2426  0.2684
 3554SOL    HW122541   3.454   0.204  17.866  0.8425  1.8484 -0.8197
 3554SOL    HW222542   3.593   0.191  17.924  0.7049  0.2487 -0.8480
 3555SOL     OW22543   0.173   1.982  14.498  0.5940 -0.0735 -0.4865
 3555SOL    HW122544   0.213   1.898  14.522  1.1181  0.0733 -0.8422
 3555SOL    HW222545   0.241   2.028  14.449  0.6630  0.9969  0.6281
 3556SOL     OW22546   2.990   2.261  16.013 -0.3935 -0.3706  0.0396
 3556SOL    HW122547   3.028   2.306  15.937 -0.8941  2.8198  1.6540
 3556SOL    HW222548   2.900   2.292  16.017  0.1882  0.9824  3.0913
 3557SOL     OW22549   2.622   1.316  15.473 -0.4344 -0.3321  0.0225
 3557SOL    HW122550   2.636   1.288  15.383  1.3519 -1.7993  0.7376
 3557SOL    HW222551   2.705   1.356  15.499 -1.3230  1.1077  0.6341
 3558SOL     OW22552   1.670   3.738  16.706  0.8257  0.1143  0.1385
 3558SOL    HW122553   1.747   3.721  16.761  0.5359 -0.7497  0.2858
 3558SOL    HW222554   1.688   3.821  16.664  0.8247  1.0394  1.9585
 3559SOL     OW22555   2.920   4.422  17.763 -0.1439  0.6057 -0.2870
 3559SOL    HW122556   2.952   4.418  17.673 -0.8894  1.9578 -0.6131
 3559SOL    HW222557   2.860   4.349  17.771  2.0319 -1.1681 -0.0683
 3560SOL     OW22558   0.699   3.047   0.854  0.1159 -0.0991  0.0859
 3560SOL    HW122559   0.674   3.083   0.939 -0.6087  0.4613 -0.3628
 3560SOL    HW222560   0.670   2.956   0.857 -0.7549  0.1728  0.0941
 3561SOL     OW22561   0.708   3.276  20.515 -0.4289 -0.0506  0.9188
 3561SOL    HW122562   0.654   3.197  20.526 -0.3748  0.0402  1.8407
 3561SOL    HW222563   0.788   3.244  20.473 -1.2655 -0.1610 -0.5776
 3562SOL     OW22564   0.550   1.343  12.050 -0.0052  0.4616  0.0994
 3562SOL    HW122565   0.610   1.366  11.978 -0.0022  0.2366  0.0320
 3562SOL    HW222566   0.571   1.406  12.119 -0.0759  0.7432 -0.1336
 3563SOL     OW22567   1.536   2.258  17.338  0.4598  0.0644  0.1078
 3563SOL    HW122568   1.621   2.251  17.380 -0.0244 -1.4359  0.8534
 3563SOL    HW222569   1.505   2.346  17.360  2.1400  0.8462 -0.7645
 3564SOL     OW22570   0.821   3.782   9.761  0.3332  0.3891 -0.2963
 3564SOL    HW122571   0.837   3.830   9.680  0.4233  0.0858 -0.4591
 3564SOL    HW222572   0.898   3.726   9.771 -0.6932 -1.1700 -1.1500
 3565SOL     OW22573   1.286   2.026  15.974  0.3954  0.8132  0.4245
 3565SOL    HW122574   1.371   2.063  15.997  0.2612  1.8832 -0.8042
 3565SOL    HW222575   1.236   2.028  16.056  0.9244  1.8721  0.7193
 3566SOL     OW22576   0.028   3.277  17.990 -0.0778 -0.2708  0.1687
 3566SOL    HW122577   4.719   3.237  17.971 -0.9461  2.4706 -1.7867
 3566SOL    HW222578   0.091   3.222  17.945 -1.0361 -0.9316 -0.3756
 3567SOL     OW22579   2.721   3.600  12.769 -0.2119  0.0426  0.0637
 3567SOL    HW122580   2.731   3.506  12.786 -0.2729 -0.5932 -3.3571
 3567SOL    HW222581   2.807   3.638  12.788  0.1276 -0.8792  0.3588
 3568SOL     OW22582   0.720   4.724   2.876  0.1427  0.4049 -0.3991
 3568SOL    HW122583   0.655   4.752   2.940  1.8890  1.6109  0.8725
 3568SOL    HW222584   0.690   4.638   2.847 -0.3756 -0.3833  2.4537
 3569SOL     OW22585   1.852   1.461  16.252 -0.1133  0.5225  0.4585
 3569SOL    HW122586   1.783   1.526  16.259 -1.4241 -0.9020  0.7488
 3569SOL    HW222587   1.875   1.460  16.159  1.6810  3.2423  0.8812
 3570SOL     OW22588   0.760   4.671   1.134 -1.1673  0.3622 -0.2165
 3570SOL    HW122589   0.783   4.627   1.052  0.1726 -0.1676  0.4443
 3570SOL    HW222590   0.747   4.600   1.196 -0.9435  0.8247  0.3573
 3571SOL     OW22591   1.950   3.127  13.126  1.0205  0.6306  0.0133
 3571SOL    HW122592   1.914   3.186  13.060  0.1028 -0.5577 -0.5510
 3571SOL    HW222593   1.889   3.132  13.199 -0.7649 -1.9924 -1.2534
 3572SOL     OW22594   4.123   1.913  18.708  0.0768 -0.0789  0.2545
 3572SOL    HW122595   4.072   1.834  18.687  0.0738  0.0429 -0.1936
 3572SOL    HW222596   4.063   1.985  18.689 -0.1121  0.0082  1.2100
 3573SOL     OW22597   0.367   0.015   1.281 -0.1168 -0.4093  0.2624
 3573SOL    HW122598   0.343   0.106   1.270 -0.8809 -0.8314 -1.5889
 3573SOL    HW222599   0.285   4.746   1.303  0.2252 -0.6657  1.0099
 3574SOL     OW22600   1.726   1.281  10.718  0.1143  0.6336 -0.4920
 3574SOL    HW122601   1.700   1.366  10.683 -3.2030 -0.2282 -0.1291
 3574SOL    HW222602   1.759   1.232  10.643  0.7395  1.7609 -0.9410
 3575SOL     OW22603   3.990   0.668   0.151 -0.6053 -0.0260 -0.7717
 3575SOL    HW122604   3.982   0.702   0.062 -0.4290 -0.0126 -0.7813
 3575SOL    HW222605   4.057   0.722   0.192 -1.9190  1.1052 -0.0962
 3576SOL     OW22606   4.492   2.456  19.824 -0.7231 -0.0033  0.2449
 3576SOL    HW122607   4.467   2.542  19.790  0.5904 -1.3404 -4.0367
 3576SOL    HW222608   4.437   2.394  19.776  2.7153 -2.0486 -1.0524
 3577SOL     OW22609   4.190   2.724  20.768 -0.2147  0.0482 -0.3960
 3577SOL    HW122610   4.152   2.782  20.834  0.1135  0.5512 -0.6517
 3577SOL    HW222611   4.210   2.782  20.694 -0.0869 -0.4244 -0.7304
 3578SOL     OW22612   3.343   3.525   2.221 -0.5581  0.3987 -0.2390
 3578SOL    HW122613   3.349   3.594   2.156 -0.7957 -1.1784 -1.9348
 3578SOL    HW222614   3.406   3.459   2.192 -1.0488 -0.5459  0.8365
 3579SOL     OW22615   1.119   4.280  13.345  0.7318  0.7108 -0.1048
 3579SOL    HW122616   1.077   4.323  13.419  0.0117 -1.3256  0.6377
 3579SOL    HW222617   1.172   4.350  13.305 -1.5435  2.6659  0.2907
 3580SOL     OW22618   0.740   0.754  11.069  0.1049  0.0446  0.4534
 3580SOL    HW122619   0.818   0.717  11.108 -1.3345 -2.8061  0.6461
 3580SOL    HW222620   0.715   0.692  11.001 -2.7481  0.2698  1.2809
 3581SOL     OW22621   0.351   1.286  20.183  0.0715  0.1947  0.6550
 3581SOL    HW122622   0.265   1.246  20.193  0.5100 -0.7959  0.4187
 3581SOL    HW222623   0.346   1.333  20.099  0.1029 -0.6970  0.1598
 3582SOL     OW22624   3.160   3.500  15.800  0.0180 -0.6885  0.1262
 3582SOL    HW122625   3.220   3.496  15.875 -1.2125  0.3516  1.1652
 3582SOL    HW222626   3.213   3.537  15.729  0.8187 -0.4562  0.8397
 3583SOL     OW22627   4.311   0.815   3.913  0.8416  0.2320  0.4350
 3583SOL    HW122628   4.367   0.772   3.848  0.6595 -1.4014  1.3340
 3583SOL    HW222629   4.279   0.894   3.870  1.9240 -0.0696 -0.9273
 3584SOL     OW22630   4.770   0.328   6.306  0.4369 -0.2005  0.4897
 3584SOL    HW122631   0.043   0.397   6.350 -0.2592  1.4483 -1.3214
 3584SOL    HW222632   0.026   0.331   6.215  0.5471 -2.3724  0.4540
 3585SOL     OW22633   4.235   1.242  18.095 -0.2095  0.0124  0.1637
 3585SOL    HW122634   4.168   1.285  18.148 -0.3002 -0.0847  0.1269
 3585SOL    HW222635   4.299   1.311  18.078  0.2637 -0.1882  1.1432
 3586SOL     OW22636   3.980   2.519   2.038  0.4862 -0.5657  0.5397
 3586SOL    HW122637   3.994   2.574   1.961  0.4391 -1.9445 -0.4596
 3586SOL    HW222638   4.030   2.562   2.108  0.6195  0.6236 -0.2946
 3587SOL     OW22639   2.659   3.884  18.247  0.6201 -0.6554 -0.3226
 3587SOL    HW122640   2.675   3.950  18.180  1.3093 -1.1952 -0.6942
 3587SOL    HW222641   2.598   3.925  18.308 -0.2426 -0.2681 -1.4545
 3588SOL     OW22642   4.388   1.184   9.344 -0.1212 -0.3851 -0.8857
 3588SOL    HW122643   4.346   1.270   9.342 -0.3018 -0.4733 -0.8997
 3588SOL    HW222644   4.342   1.133   9.277  0.9984 -0.0199 -1.9468
 3589SOL     OW22645   0.933   2.462  11.501 -0.0369 -0.2675  0.0501
 3589SOL    HW122646   0.875   2.447  11.576  1.7246  0.7715  1.6215
 3589SOL    HW222647   0.985   2.539  11.526  0.1545  0.4193 -2.4625
 3590SOL     OW22648   1.000   0.611   0.869  0.1554 -0.1693 -0.5699
 3590SOL    HW122649   1.003   0.528   0.916  0.9393 -0.2810 -0.8132
 3590SOL    HW222650   0.920   0.607   0.817 -0.1159 -0.5228 -0.1223
 3591SOL     OW22651   2.107   3.347  10.292  0.3623  0.2954 -0.5752
 3591SOL    HW122652   2.094   3.273  10.351 -0.0922  0.5078 -0.4093
 3591SOL    HW222653   2.170   3.404  10.337 -0.7771  0.9675  0.1668
 3592SOL     OW22654   0.607   1.463   6.752  0.0717  0.0229  0.2217
 3592SOL    HW122655   0.525   1.432   6.790 -0.6032  0.8414 -0.5557
 3592SOL    HW222656   0.616   1.412   6.671  0.5710 -0.4175  0.5614
 3593SOL     OW22657   2.960   4.690   4.269 -0.4810  0.1798 -0.5598
 3593SOL    HW122658   2.923   0.001   4.253  0.6039  0.8955  0.9020
 3593SOL    HW222659   2.982   4.689   4.362 -1.0275 -1.8624 -0.4448
 3594SOL     OW22660   1.394   4.143  10.306  0.0906 -0.5502 -0.4957
 3594SOL    HW122661   1.367   4.230  10.279 -0.5648 -0.6997 -0.3291
 3594SOL    HW222662   1.482   4.132  10.268 -0.0785 -0.0608 -1.0302
 3595SOL     OW22663   3.378   0.164   3.203  0.0518  0.4657 -0.3295
 3595SOL    HW122664   3.352   0.131   3.118 -0.4968  1.0227 -0.3798
 3595SOL    HW222665   3.315   0.234   3.222 -0.1573 -0.0287  0.7723
 3596SOL     OW22666   1.816   3.258  20.193 -0.6091  0.4098  0.4607
 3596SOL    HW122667   1.744   3.288  20.136 -0.6776 -1.0310 -0.2070
 3596SOL    HW222668   1.866   3.198  20.138 -1.7701 -2.4515  2.5333
 3597SOL     OW22669   3.375   4.364   3.514 -0.2144  0.7972 -0.3718
 3597SOL    HW122670   3.329   4.448   3.510 -1.5489  0.1162  0.6681
 3597SOL    HW222671   3.401   4.347   3.423  0.8713  2.7805 -0.4367
 3598SOL     OW22672   4.351   0.012  20.060  0.3606  0.4699 -0.0273
 3598SOL    HW122673   4.389   0.076  20.121 -0.7672  0.2109  0.9535
 3598SOL    HW222674   4.261   0.001  20.090  0.0787 -0.3735 -1.1778
 3599SOL     OW22675   4.226   4.196  16.774  0.3960  0.6021  0.1616
 3599SOL    HW122676   4.189   4.240  16.851 -0.3494  0.0861  0.0963
 3599SOL    HW222677   4.307   4.243  16.757  1.5621 -0.5773  2.4868
 3600SOL     OW22678   3.247   0.327   7.083 -0.0498  0.3847 -0.4725
 3600SOL    HW122679   3.216   0.299   7.169 -1.2162  0.3888 -0.8943
 3600SOL    HW222680   3.331   0.370   7.101 -0.2054  0.2268  0.6417
 3601SOL     OW22681   0.754   3.734  18.134  0.2438 -0.3371 -0.2157
 3601SOL    HW122682   0.710   3.709  18.215  1.0038  1.3668  0.7061
 3601SOL    HW222683   0.776   3.827  18.145  1.3277 -0.3821 -1.9184
 3602SOL     OW22684   4.404   3.608  18.275 -0.7203  0.0734 -0.7986
 3602SOL    HW122685   4.454   3.645  18.348 -0.3547 -0.8494 -0.5864
 3602SOL    HW222686   4.450   3.527  18.253 -1.4717 -0.2052 -1.3287
 3603SOL     OW22687   0.116   3.967  21.125 -0.5810  0.5669  0.0547
 3603SOL    HW122688   0.158   3.894  21.079  0.3199  0.9692  0.2473
 3603SOL    HW222689   0.109   4.036  21.059 -1.9093  0.1314 -0.2741
 3604SOL     OW22690   4.277   0.286  10.428  0.1189 -0.1860 -0.3563
 3604SOL    HW122691   4.268   0.193  10.409 -2.0432  0.1997 -1.2259
 3604SOL    HW222692   4.255   0.294  10.521 -2.4419 -0.1449 -0.9602
 3605SOL     OW22693   1.805   2.161   2.872  0.1529  0.1237  0.1812
 3605SOL    HW122694   1.855   2.080   2.883 -0.5326 -0.5291 -1.5328
 3605SOL    HW222695   1.865   2.220   2.826 -0.5015 -0.5281 -1.5246
 3606SOL     OW22696   1.341   0.015  14.451 -0.8760  0.6756 -0.1326
 3606SOL    HW122697   1.424   4.759  14.415 -0.0682  1.8806  0.6726
 3606SOL    HW222698   1.361   0.035  14.542 -2.6820 -1.4103  0.7234
 3607SOL     OW22699   3.675   2.772  13.151  0.5586 -0.3379 -0.0219
 3607SOL    HW122700   3.681   2.819  13.234  1.0411 -0.4074 -0.0200
 3607SOL    HW222701   3.581   2.752  13.142  0.5694 -0.7730  0.7521
 3608SOL     OW22702   2.063   4.725   3.231 -0.6095  0.8964 -0.3828
 3608SOL    HW122703   2.110   4.643   3.214 -0.9843  0.8455 -1.1637
 3608SOL    HW222704   2.077   4.741   3.324 -2.1133 -1.0464  0.1755
 3609SOL     OW22705   0.110   4.768   0.954 -0.2979  0.0762 -0.7138
 3609SOL    HW122706   0.082   0.083   0.962 -2.3559 -0.5120 -1.2120
 3609SOL    HW222707   0.030   4.717   0.967  1.0843 -1.7016  0.8307
 3610SOL     OW22708   4.201   4.397  20.389  0.2158  0.7804 -0.0295
 3610SOL    HW122709   4.278   4.342  20.375 -1.9931 -2.6363  1.3014
 3610SOL    HW222710   4.233   4.469  20.444  2.6697 -0.0983 -0.3019
 3611SOL     OW22711   2.431   1.606  18.072 -0.2885  0.2547  0.2142
 3611SOL    HW122712   2.370   1.540  18.105  0.7760 -1.6143 -1.5762
 3611SOL    HW222713   2.470   1.566  17.994  1.6379  2.2904  0.1405
 3612SOL     OW22714   0.242   0.893   3.273 -0.0652 -0.8814  0.2062
 3612SOL    HW122715   0.188   0.969   3.297  2.1168  1.0141 -0.9370
 3612SOL    HW222716   0.274   0.860   3.357 -0.4127 -0.0839  0.6552
 3613SOL     OW22717   2.096   1.405   0.388  0.2469  0.3385  0.7371
 3613SOL    HW122718   2.190   1.416   0.373 -0.0957 -0.5106 -2.1733
 3613SOL    HW222719   2.057   1.413   0.300 -1.9613 -3.6954  1.3492
 3614SOL     OW22720   4.662   3.347  13.105 -0.0579 -0.2368 -0.0088
 3614SOL    HW122721   4.607   3.342  13.183 -0.4281 -1.5319 -0.3595
 3614SOL    HW222722   4.709   3.430  13.114 -0.5542 -0.1030  1.2938
 3615SOL     OW22723   3.641   1.370   1.129 -0.3429  0.4089 -0.0408
 3615SOL    HW122724   3.694   1.449   1.124 -2.2612  1.6944  0.0045
 3615SOL    HW222725   3.558   1.399   1.165 -1.5681 -1.3556 -1.4320
 3616SOL     OW22726   2.955   3.514   0.062 -0.3893 -0.4006  0.1412
 3616SOL    HW122727   3.030   3.489   0.115 -0.6786 -2.1811 -0.3156
 3616SOL    HW222728   2.884   3.528   0.126 -0.3072 -1.0050  0.3660
 3617SOL     OW22729   1.420   3.431  17.415  0.5306 -0.2306 -0.2186
 3617SOL    HW122730   1.343   3.433  17.358  1.9895  0.6146 -2.1748
 3617SOL    HW222731   1.448   3.522  17.421  0.2512 -0.2890  2.0476
 3618SOL     OW22732   2.080   0.808  17.542 -0.1917  0.0532 -0.0688
 3618SOL    HW122733   2.082   0.722  17.500 -1.5120  0.9470 -1.9789
 3618SOL    HW222734   2.057   0.791  17.633  1.5396 -1.8034  0.0138
 3619SOL     OW22735   2.680   0.678  20.466 -0.3446 -0.1185 -0.0690
 3619SOL    HW122736   2.669   0.762  20.422 -0.5408  0.6135  1.3666
 3619SOL    HW222737   2.609   0.624  20.433  0.1404  0.0932 -1.4491
 3620SOL     OW22738   1.890   1.412   9.504  0.3423 -0.0583 -0.1591
 3620SOL    HW122739   1.849   1.419   9.418  0.6404  1.7309 -0.1734
 3620SOL    HW222740   1.825   1.369   9.559 -0.6459  0.6366 -0.7723
 3621SOL     OW22741   0.861   0.308  20.998 -0.4291 -0.2251 -0.1137
 3621SOL    HW122742   0.793   0.240  20.997 -0.3651 -0.2927  0.2318
 3621SOL    HW222743   0.893   0.311  20.907 -1.4608  0.3739 -0.4575
 3622SOL     OW22744   1.679   2.914   8.880 -1.0390  0.4041  0.3560
 3622SOL    HW122745   1.659   2.947   8.793 -3.6418  0.2356  0.8874
 3622SOL    HW222746   1.712   2.825   8.865 -0.9283  0.5958 -0.5100
 3623SOL     OW22747   4.400   1.273  19.417  0.2316  0.1334 -0.3515
 3623SOL    HW122748   4.479   1.291  19.468  1.5337 -2.2771 -1.5708
 3623SOL    HW222749   4.422   1.302  19.329 -0.5926  0.3596 -0.4819
 3624SOL     OW22750   2.505   3.620  19.093 -0.6819  0.4878 -0.2294
 3624SOL    HW122751   2.463   3.648  19.174  0.7286  0.2744  0.5836
 3624SOL    HW222752   2.463   3.537  19.070  1.2661 -1.1135  2.0675
 3625SOL     OW22753   3.350   1.138   0.253  0.2533  0.1427 -0.0400
 3625SOL    HW122754   3.302   1.188   0.319  1.7033 -0.1083  1.2204
 3625SOL    HW222755   3.419   1.095   0.303  0.9966 -0.5069 -1.6515
 3626SOL     OW22756   4.299   2.891  11.562 -0.6493 -0.1551 -0.3742
 3626SOL    HW122757   4.390   2.882  11.589  0.1156  1.8782 -2.3380
 3626SOL    HW222758   4.298   2.859  11.472 -1.8130  0.1863 -0.4763
 3627SOL     OW22759   4.318   4.679  15.384 -0.3362 -0.2573 -0.4565
 3627SOL    HW122760   4.244   4.710  15.437  0.0083  1.5186 -0.9934
 3627SOL    HW222761   4.293   4.698  15.294  0.0125 -1.2670 -0.7576
 3628SOL     OW22762   2.805   3.422   5.957 -0.1954 -0.0739 -0.4217
 3628SOL    HW122763   2.834   3.346   5.908 -1.4548 -0.8410  0.0038
 3628SOL    HW222764   2.734   3.389   6.012  0.2094  1.0980  0.8050
 3629SOL     OW22765   4.632   4.687   0.907  0.1702  0.0121  0.4472
 3629SOL    HW122766   4.597   4.768   0.870 -0.1567  0.1789  1.1247
 3629SOL    HW222767   4.606   4.619   0.844 -0.5982  0.2610  0.4953
 3630SOL     OW22768   1.396   1.449  10.211  0.0624  0.4347 -0.9930
 3630SOL    HW122769   1.460   1.520  10.216  2.1786 -1.5929  0.6892
 3630SOL    HW222770   1.344   1.457  10.291  0.0174  0.3891 -1.0175
 3631SOL     OW22771   0.747   0.604   4.898  0.1194 -0.1293 -0.3754
 3631SOL    HW122772   0.747   0.700   4.903 -1.0463 -0.1172 -0.7374
 3631SOL    HW222773   0.791   0.584   4.815  0.9124  0.0720 -0.0121
 3632SOL     OW22774   2.497   0.236  19.801  0.1573 -0.0112 -0.7395
 3632SOL    HW122775   2.517   0.237  19.895  0.3027 -0.0542 -0.7695
 3632SOL    HW222776   2.500   0.329  19.775 -2.7151  0.2433 -0.1111
 3633SOL     OW22777   2.986   0.816  20.000 -0.3428 -0.4364 -0.1840
 3633SOL    HW122778   3.043   0.739  20.003 -0.2423 -0.4439 -2.3004
 3633SOL    HW222779   2.898   0.782  20.011 -0.3099 -0.8704 -1.2759
 3634SOL     OW22780   2.160   3.626   0.447 -0.0875  0.2247  0.0321
 3634SOL    HW122781   2.088   3.689   0.446 -1.4618 -1.3586 -1.2589
 3634SOL    HW222782   2.236   3.675   0.416 -1.0391  1.3781 -0.4800
 3635SOL     OW22783   0.612   3.570  18.909 -0.1718 -0.4849  0.1163
 3635SOL    HW122784   0.688   3.627  18.899 -0.0240 -0.6691  0.1879
 3635SOL    HW222785   0.614   3.513  18.832 -1.1884  0.6218 -0.7427
 3636SOL     OW22786   2.617   1.767   1.015 -0.0119  0.1194 -0.4876
 3636SOL    HW122787   2.630   1.824   0.940  0.5366 -0.3134 -0.7229
 3636SOL    HW222788   2.536   1.720   0.997  0.4927 -0.4981 -1.1350
 3637SOL     OW22789   2.305   3.470   4.816 -0.1704  0.3488  0.4153
 3637SOL    HW122790   2.230   3.430   4.861 -0.8661  1.3963  0.1814
 3637SOL    HW222791   2.328   3.545   4.869  1.9544 -1.0935  1.5438
 3638SOL     OW22792   0.107   4.515   4.407 -0.4666 -0.2762 -0.0928
 3638SOL    HW122793   0.111   4.485   4.498 -1.7413  3.8485  1.2873
 3638SOL    HW222794   0.021   4.488   4.376 -0.4069 -0.8148  0.2112
 3639SOL     OW22795   2.262   0.108  19.699  0.5095 -0.1313  0.0802
 3639SOL    HW122796   2.332   0.151  19.747 -0.0761  0.3073  0.5420
 3639SOL    HW222797   2.240   0.032  19.754  0.2566  0.0303  0.2012
 3640SOL     OW22798   0.333   0.436   4.307 -0.4675 -0.1468  0.4742
 3640SOL    HW122799   0.311   0.498   4.237 -0.1578 -0.5619  0.0033
 3640SOL    HW222800   0.256   0.379   4.314 -0.0956 -0.7458 -0.2372
 3641SOL     OW22801   0.130   0.733  16.676  0.0053  0.2853 -0.0928
 3641SOL    HW122802   0.039   0.729  16.704  0.2678 -0.3394  0.6964
 3641SOL    HW222803   0.133   0.804  16.612 -0.4605  2.1615  1.9802
 3642SOL     OW22804   3.082   1.989   4.842  0.6144  0.0833  0.5958
 3642SOL    HW122805   3.006   1.954   4.796  1.5477 -1.3355  0.1181
 3642SOL    HW222806   3.146   1.917   4.840  1.4904  0.8256  2.0908
 3643SOL     OW22807   3.247   1.420   5.213 -0.4948 -0.1259 -0.3316
 3643SOL    HW122808   3.274   1.378   5.131 -0.5985  0.1836 -0.5228
 3643SOL    HW222809   3.326   1.419   5.267 -0.4318 -0.3488 -0.4266
 3644SOL     OW22810   2.277   3.959   0.887  0.8455  0.5713 -0.9874
 3644SOL    HW122811   2.362   4.002   0.898 -1.3786  4.3328  1.5992
 3644SOL    HW222812   2.267   3.906   0.966  1.0476 -0.3099 -1.5565
 3645SOL     OW22813   1.898   2.513   1.620  0.9322  0.1685 -0.1661
 3645SOL    HW122814   1.882   2.489   1.711 -1.5570 -1.3786 -0.9988
 3645SOL    HW222815   1.989   2.542   1.618  0.6395  1.3043  3.0454
 3646SOL     OW22816   1.937   2.930  16.830 -0.1283 -0.2263  0.1524
 3646SOL    HW122817   1.919   2.948  16.922 -1.7387 -0.7548 -0.0548
 3646SOL    HW222818   2.002   2.859  16.832  2.8886  2.5896  0.9063
 3647SOL     OW22819   4.243   2.784  15.982 -0.0670 -0.6290 -0.4612
 3647SOL    HW122820   4.190   2.771  15.904 -1.3727 -0.3025  0.3865
 3647SOL    HW222821   4.183   2.820  16.047  0.9746 -1.0986  0.7636
 3648SOL     OW22822   4.167   0.449   4.232  0.3236  0.2647  0.4754
 3648SOL    HW122823   4.076   0.468   4.254  0.2831  1.0281 -0.3333
 3648SOL    HW222824   4.184   0.503   4.155  1.4108 -0.0054  0.5327
 3649SOL     OW22825   3.765   0.512   7.577  0.2822 -0.5573 -0.0176
 3649SOL    HW122826   3.813   0.518   7.659  0.9345 -0.3833 -0.4145
 3649SOL    HW222827   3.712   0.433   7.585  2.1679 -1.8469 -0.4089
 3650SOL     OW22828   1.606   4.076  16.269 -0.4477 -0.1626 -0.5021
 3650SOL    HW122829   1.646   4.162  16.256  0.4165 -0.6004 -0.7284
 3650SOL    HW222830   1.645   4.043  16.350 -0.9524 -0.2430 -0.2900
 3651SOL     OW22831   2.723   2.470  14.378 -0.0454  0.1645  0.2103
 3651SOL    HW122832   2.710   2.549  14.429  0.3966  1.3562 -1.5315
 3651SOL    HW222833   2.666   2.480  14.302  2.3847  0.2337 -1.5962
 3652SOL     OW22834   1.837   4.054   9.688 -0.3484  0.4028 -0.5877
 3652SOL    HW122835   1.768   4.002   9.648 -0.9276  0.5272  0.2725
 3652SOL    HW222836   1.896   3.989   9.727 -0.0190  0.3017 -1.2480
 3653SOL     OW22837   2.839   2.277  14.746 -0.2750  0.2233  0.3720
 3653SOL    HW122838   2.838   2.296  14.652  2.1867 -0.1593  0.2704
 3653SOL    HW222839   2.749   2.253  14.766 -0.7855  0.1890 -1.9170
 3654SOL     OW22840   0.794   0.645  17.855  0.1926  0.0204 -0.1590
 3654SOL    HW122841   0.840   0.623  17.774 -1.7621  0.1625 -1.3017
 3654SOL    HW222842   0.816   0.574  17.915  2.1682  0.2594 -0.6078
 3655SOL     OW22843   4.203   0.193   0.501  0.0345  0.2373  0.6462
 3655SOL    HW122844   4.271   0.223   0.441 -1.0419  0.6873 -0.3604
 3655SOL    HW222845   4.241   0.117   0.544  0.5608 -0.5275 -1.1479
 3656SOL     OW22846   0.748   0.614  19.394  0.5803  0.3087  0.5340
 3656SOL    HW122847   0.792   0.699  19.396  1.0345  0.0788  0.3271
 3656SOL    HW222848   0.803   0.557  19.449  0.0377  0.2657  1.0309
 3657SOL     OW22849   2.072   3.880  18.319  0.3987 -0.5777  0.3797
 3657SOL    HW122850   1.997   3.885  18.260  1.0196 -0.4531 -0.4014
 3657SOL    HW222851   2.035   3.889  18.406 -0.5213 -0.7309  0.0045
 3658SOL     OW22852   0.185   0.669  11.467  0.0431 -0.3222  0.0517
 3658SOL    HW122853   0.151   0.757  11.483  1.2462  0.4756 -1.6584
 3658SOL    HW222854   0.182   0.660  11.371  0.1867 -2.0264  0.2105
 3659SOL     OW22855   1.843   1.331  15.971  0.4972  0.8350 -0.0434
 3659SOL    HW122856   1.880   1.246  15.948 -2.3038 -0.6128  0.8555
 3659SOL    HW222857   1.835   1.377  15.888 -1.0047 -0.9840 -0.9075
 3660SOL     OW22858   4.241   1.689  18.978 -0.4361  0.4835  0.0774
 3660SOL    HW122859   4.270   1.657  19.063  0.1434  0.8946  0.0373
 3660SOL    HW222860   4.258   1.617  18.918  3.4532  1.8584 -0.5057
 3661SOL     OW22861   2.499   3.123  17.540  0.8314 -0.2171 -0.1494
 3661SOL    HW122862   2.471   3.183  17.610 -1.2848 -0.3993 -0.8355
 3661SOL    HW222863   2.594   3.115  17.552  0.7215  1.0899  1.6584
 3662SOL     OW22864   1.803   4.639  16.217 -0.3836 -0.6820 -0.1992
 3662SOL    HW122865   1.769   4.578  16.283 -1.4072 -0.4019 -0.4706
 3662SOL    HW222866   1.822   4.584  16.141 -3.1801 -0.3648 -1.1372
 3663SOL     OW22867   3.833   1.453  19.450  0.3342 -0.6002 -0.1401
 3663SOL    HW122868   3.740   1.435  19.437  0.6263 -1.0505 -1.5403
 3663SOL    HW222869   3.865   1.477  19.364  1.4149  0.0629  0.4476
 3664SOL     OW22870   4.019   1.366  12.022  1.1283  0.5068  0.2239
 3664SOL    HW122871   3.979   1.427  12.084  0.9135  0.6729 -0.0770
 3664SOL    HW222872   4.101   1.339  12.063  1.5434  1.5084  0.0584
 3665SOL     OW22873   2.018   4.464  18.967 -0.0383  0.2427  0.1781
 3665SOL    HW122874   2.039   4.439  19.056 -0.3667  0.0620  0.2072
 3665SOL    HW222875   2.072   4.407  18.912 -0.9915 -0.7410  0.2386
 3666SOL     OW22876   0.083   3.081  17.051  0.0617  0.1520  0.2708
 3666SOL    HW122877   4.768   3.111  17.059 -0.4037 -1.3854  0.6986
 3666SOL    HW222878   0.100   3.081  16.957 -0.6894 -0.4658  0.1318
 3667SOL     OW22879   2.495   3.092   3.368  0.0026  0.0703 -0.2564
 3667SOL    HW122880   2.510   3.108   3.461  0.9304 -0.6547 -0.2717
 3667SOL    HW222881   2.573   3.044   3.339 -0.6172 -0.3576 -1.2367
 3668SOL     OW22882   3.303   0.667   1.663  0.2183 -0.3674  0.1196
 3668SOL    HW122883   3.346   0.753   1.669 -0.0463 -0.1815 -0.7774
 3668SOL    HW222884   3.372   0.608   1.631  0.1511 -0.3232 -0.1013
 3669SOL     OW22885   1.515   0.086   4.799 -0.6672  0.1545  0.0062
 3669SOL    HW122886   1.420   0.082   4.812 -1.2617  1.3588 -3.8864
 3669SOL    HW222887   1.539   4.774   4.769 -0.5906 -0.0411  0.6325
 3670SOL     OW22888   0.785   3.589  15.556  0.4806  0.0573 -0.4988
 3670SOL    HW122889   0.744   3.503  15.547  1.1289 -0.3480  0.4592
 3670SOL    HW222890   0.728   3.636  15.617 -1.1454  1.0935 -2.8149
 3671SOL     OW22891   2.118   1.053   5.487  0.1591 -0.6742 -0.7709
 3671SOL    HW122892   2.166   1.097   5.557  1.6910 -2.3938 -0.7467
 3671SOL    HW222893   2.044   1.011   5.531 -0.3108  0.4107 -0.5407
 3672SOL     OW22894   3.288   3.611  20.886  0.4953 -0.4078  0.3455
 3672SOL    HW122895   3.286   3.665  20.964  1.0463 -1.1031  0.8392
 3672SOL    HW222896   3.343   3.659  20.825 -0.7660  0.6263  0.0212
 3673SOL     OW22897   1.107   0.374  14.494 -0.4793  0.0564 -0.2958
 3673SOL    HW122898   1.053   0.304  14.459 -0.7893  0.2232 -0.1539
 3673SOL    HW222899   1.175   0.388  14.427 -0.2205 -0.6044 -0.1650
 3674SOL     OW22900   2.005   1.572   3.975 -0.5211 -0.5431  0.6674
 3674SOL    HW122901   2.054   1.615   3.904  0.5309 -1.3721  0.8933
 3674SOL    HW222902   1.915   1.600   3.961 -0.8156 -3.2051 -2.8658
 3675SOL     OW22903   1.376   0.987  18.640 -0.3099 -0.1979 -0.3508
 3675SOL    HW122904   1.329   0.934  18.576 -2.4233  2.0975 -0.6949
 3675SOL    HW222905   1.464   0.998  18.602 -0.0393 -2.9925 -0.5201
 3676SOL     OW22906   2.620   4.184   6.456  0.1124 -0.0410  1.0113
 3676SOL    HW122907   2.610   4.134   6.538 -0.9507 -0.1355  0.8196
 3676SOL    HW222908   2.531   4.201   6.427  0.4882  0.6141  0.2369
 3677SOL     OW22909   0.111   0.129  19.615  0.0393  0.1342  0.3749
 3677SOL    HW122910   0.063   0.130  19.532  0.0700  0.0284  0.3562
 3677SOL    HW222911   0.196   0.093  19.592 -0.5505 -1.4858  0.7888
 3678SOL     OW22912   0.142   4.255   0.212 -0.5193 -0.0785  0.2926
 3678SOL    HW122913   0.137   4.278   0.120  0.1246  1.7041  0.7084
 3678SOL    HW222914   0.054   4.221   0.233 -0.8718  0.1693 -0.7781
 3679SOL     OW22915   3.527   4.042  13.814 -0.1548  0.2292 -0.4756
 3679SOL    HW122916   3.532   4.133  13.785  1.1076 -0.0298 -1.0735
 3679SOL    HW222917   3.506   3.993  13.735 -3.4088  0.3141  0.3653
 3680SOL     OW22918   2.015   4.525  14.240  0.0568 -0.1359  0.0253
 3680SOL    HW122919   1.934   4.566  14.212 -0.3177  1.1656  3.1043
 3680SOL    HW222920   2.081   4.560  14.180 -0.8205  2.3618  0.5398
 3681SOL     OW22921   2.646   1.059   2.466  0.3483  0.2420 -0.0883
 3681SOL    HW122922   2.597   1.126   2.418  0.5378 -0.2705 -1.0105
 3681SOL    HW222923   2.732   1.097   2.480  0.1256  0.5994  0.3077
 3682SOL     OW22924   1.254   1.639  17.255 -0.3984  0.6110 -0.2226
 3682SOL    HW122925   1.294   1.613  17.172  1.0485  2.7972 -0.1870
 3682SOL    HW222926   1.328   1.648  17.316 -1.4226 -0.6480  1.2113
 3683SOL     OW22927   3.242   0.594   3.894  0.6553 -0.3487  0.0996
 3683SOL    HW122928   3.167   0.615   3.839  1.4282 -0.3811 -0.9508
 3683SOL    HW222929   3.206   0.591   3.983 -0.9200 -2.0281 -0.5946
 3684SOL     OW22930   2.587   2.751  16.292  0.0550  0.2031  0.3013
 3684SOL    HW122931   2.608   2.840  16.320  0.0322  0.1630  0.4457
 3684SOL    HW222932   2.668   2.718  16.254  0.2830  0.0110  0.9542
 3685SOL     OW22933   4.751   1.825  19.546 -0.0317  0.2665  0.0021
 3685SOL    HW122934   4.683   1.783  19.492 -0.5934 -0.5018  1.2975
 3685SOL    HW222935   4.734   1.792  19.635  1.1743  1.1718  0.5608
 3686SOL     OW22936   0.439   3.745  17.242 -0.0159 -0.2767 -0.1052
 3686SOL    HW122937   0.369   3.735  17.306 -0.7548 -0.7190 -0.9779
 3686SOL    HW222938   0.394   3.742  17.157  1.0820 -0.7327 -0.6689
 3687SOL     OW22939   0.565   3.523   0.869  0.0468 -0.1383  0.1111
 3687SOL    HW122940   0.514   3.602   0.851 -0.0992 -0.8848 -2.7385
 3687SOL    HW222941   0.500   3.454   0.878  0.3401 -0.4442 -0.1173
 3688SOL     OW22942   0.909   4.640   3.816  0.0325  0.2295  0.0590
 3688SOL    HW122943   0.898   4.596   3.900  0.2425  1.0386  0.5065
 3688SOL    HW222944   0.826   4.684   3.800 -0.6280 -1.4252 -1.0140
 3689SOL     OW22945   3.204   3.356   3.610 -0.1844  0.4056 -0.3396
 3689SOL    HW122946   3.149   3.433   3.623  2.7295  2.5922 -1.0484
 3689SOL    HW222947   3.216   3.319   3.697  0.1505  1.9289  0.2526
 3690SOL     OW22948   1.734   3.579   2.622 -0.2420 -1.0174 -0.0701
 3690SOL    HW122949   1.669   3.550   2.686  0.2936 -1.5593  0.2297
 3690SOL    HW222950   1.804   3.617   2.674  0.0277 -1.1282 -0.3490
 3691SOL     OW22951   3.679   2.555   6.128 -0.3038 -0.4724  0.4606
 3691SOL    HW122952   3.600   2.558   6.182  0.7631 -1.6982  2.0999
 3691SOL    HW222953   3.658   2.496   6.056 -1.3715  0.3336  0.1187
 3692SOL     OW22954   4.375   0.678   9.399  0.5178  0.0471  1.0119
 3692SOL    HW122955   4.322   0.610   9.357 -1.1231  1.8295  0.2047
 3692SOL    HW222956   4.388   0.745   9.332  0.1497  1.6340  2.5009
 3693SOL     OW22957   3.164   0.908  20.832  0.3399 -0.3018 -0.6965
 3693SOL    HW122958   3.178   0.995  20.870  1.8208 -0.6910 -0.3693
 3693SOL    HW222959   3.098   0.868  20.888  0.0396  0.4154 -0.5321
 3694SOL     OW22960   3.490   3.955   2.963 -0.2105  0.5164  0.1036
 3694SOL    HW122961   3.518   4.020   3.027  2.1624  2.1020 -2.5337
 3694SOL    HW222962   3.511   3.871   3.004 -0.9297  1.4755  2.4299
 3695SOL     OW22963   1.564   1.239  18.690  0.2851 -0.2241  0.3315
 3695SOL    HW122964   1.649   1.206  18.719 -0.1655 -0.5584  1.2885
 3695SOL    HW222965   1.554   1.208  18.601  1.4492  0.3361  0.0077
 3696SOL     OW22966   3.646   2.675   7.931  0.1850  0.0626 -0.0862
 3696SOL    HW122967   3.661   2.735   8.004 -0.9950  0.8945 -0.5287
 3696SOL    HW222968   3.726   2.622   7.927  0.6808  0.7113  1.1452
 3697SOL     OW22969   2.914   1.348  15.761 -0.1076  0.5198 -0.4866
 3697SOL    HW122970   2.837   1.292  15.766  0.5018 -0.1643  1.1915
 3697SOL    HW222971   2.893   1.424  15.815  0.9464 -0.3134  1.0781
 3698SOL     OW22972   0.541   0.705  16.174  0.3411  0.4650  0.0926
 3698SOL    HW122973   0.601   0.756  16.227  0.2777  1.2508 -0.5847
 3698SOL    HW222974   0.492   0.652  16.237  0.5736  1.0582  0.7736
 3699SOL     OW22975   1.759   4.447   3.360 -0.4214  0.0185  0.0075
 3699SOL    HW122976   1.827   4.487   3.413 -0.2547  0.5125 -0.5808
 3699SOL    HW222977   1.694   4.515   3.348 -0.2616  0.0299 -0.7725
 3700SOL     OW22978   2.711   0.067  19.728  0.0357  0.2396  0.2498
 3700SOL    HW122979   2.667   4.771  19.683 -0.0305  0.3975  0.0613
 3700SOL    HW222980   2.640   0.121  19.762  0.0867  0.8790 -0.6705
 3701SOL     OW22981   0.659   3.952   5.119  0.1913  1.1263  0.0819
 3701SOL    HW122982   0.708   3.879   5.155 -1.5300 -0.0432  0.0329
 3701SOL    HW222983   0.665   4.021   5.185  1.3872  0.7670  0.3341
 3702SOL     OW22984   2.314   3.592  16.398  0.3103  0.2457  0.8764
 3702SOL    HW122985   2.332   3.498  16.388 -1.1501  0.0142  0.4237
 3702SOL    HW222986   2.277   3.600  16.486 -1.4871  0.1176  0.1241
 3703SOL     OW22987   0.649   0.795  15.166  0.2892 -0.4409 -0.3680
 3703SOL    HW122988   0.729   0.845  15.184 -0.0199  0.2062 -0.7768
 3703SOL    HW222989   0.678   0.721  15.114  0.4661  0.4325 -1.5283
 3704SOL     OW22990   4.140   1.294  14.098  0.5520  0.6463 -0.2572
 3704SOL    HW122991   4.226   1.270  14.064  0.6187  1.9932 -1.0162
 3704SOL    HW222992   4.119   1.225  14.161  1.7932 -0.1537 -0.7337
 3705SOL     OW22993   3.201   1.850  19.151  0.0988  0.5398 -0.1397
 3705SOL    HW122994   3.289   1.827  19.122 -1.2595 -0.1018 -3.8004
 3705SOL    HW222995   3.169   1.772  19.196  1.0546  0.4447  0.3722
 3706SOL     OW22996   3.255   4.718  21.033 -0.2637  0.2961 -0.6912
 3706SOL    HW122997   3.236   4.666  20.955  1.9459 -2.1306  0.3941
 3706SOL    HW222998   3.339   4.760  21.015  1.2530 -1.8794  1.1911
 3707SOL     OW22999   3.186   0.546  16.279  0.5241  0.1185  0.3040
 3707SOL    HW123000   3.215   0.455  16.277  1.7525  0.4955  1.1289
 3707SOL    HW223001   3.218   0.580  16.363 -2.0809  0.6015  1.1072
 3708SOL     OW23002   1.973   1.258   4.234  0.5647 -0.6817  0.3071
 3708SOL    HW123003   1.937   1.211   4.159 -2.2306  0.6280  0.8438
 3708SOL    HW223004   1.962   1.198   4.307  0.8601 -0.8989  0.1716
 3709SOL     OW23005   3.897   2.363   9.784  0.0631 -0.2275  0.0645
 3709SOL    HW123006   3.909   2.405   9.699 -0.2192  0.8368  0.5449
 3709SOL    HW223007   3.825   2.411   9.824  1.4849  0.5407  1.7170
 3710SOL     OW23008   1.083   2.700  17.476 -0.0681 -0.3453  0.0329
 3710SOL    HW123009   1.039   2.738  17.400  0.6400  0.6129  0.0952
 3710SOL    HW223010   1.062   2.759  17.548  1.2026  0.0365  0.0915
 3711SOL     OW23011   2.866   0.341  14.008  0.0859 -0.6672  0.6375
 3711SOL    HW123012   2.852   0.291  13.928  1.4654  0.3461 -0.2568
 3711SOL    HW223013   2.796   0.406  14.008 -0.1308 -0.8999  0.4372
 3712SOL     OW23014   1.012   0.691  15.088  0.1311 -0.8041  0.1668
 3712SOL    HW123015   0.979   0.608  15.123  0.2812 -0.7851  0.3510
 3712SOL    HW223016   0.977   0.695  14.999 -1.9022  0.0738  0.9860
 3713SOL     OW23017   3.494   1.244  16.131 -0.4682 -0.0666 -0.0355
 3713SOL    HW123018   3.440   1.198  16.067 -0.6086  0.4073 -0.2567
 3713SOL    HW223019   3.432   1.278  16.195 -0.3583 -0.2618  0.1713
 3714SOL     OW23020   2.469   4.117  11.961 -0.5906  0.3371  0.4197
 3714SOL    HW123021   2.547   4.071  11.929  0.0304  0.5693  1.5798
 3714SOL    HW223022   2.405   4.048  11.975 -1.0883  0.3125 -1.9787
 3715SOL     OW23023   0.642   1.133   1.110 -0.5747 -0.2387  0.3067
 3715SOL    HW123024   0.717   1.144   1.051 -2.0198  2.4949 -1.0391
 3715SOL    HW223025   0.679   1.090   1.187  1.5218 -2.8970 -2.1681
 3716SOL     OW23026   0.837   3.910  19.941 -0.1133 -0.3108 -0.1560
 3716SOL    HW123027   0.805   3.822  19.962 -0.0810  0.0008  1.1633
 3716SOL    HW223028   0.931   3.906  19.958 -0.1613  0.0717  0.2015
 3717SOL     OW23029   2.148   1.805   5.179 -0.0739  0.2125 -0.0709
 3717SOL    HW123030   2.062   1.787   5.215  0.2896 -1.8726 -0.2830
 3717SOL    HW223031   2.131   1.864   5.105 -1.3137 -0.3710 -0.2377
 3718SOL     OW23032   4.323   1.607   3.264  0.9667  0.2986 -0.3232
 3718SOL    HW123033   4.272   1.590   3.185  0.6121  0.4024 -0.1188
 3718SOL    HW223034   4.372   1.687   3.245 -0.2274  1.1303  0.0993
 3719SOL     OW23035   2.293   3.139  14.408 -0.0948  0.2738 -0.0463
 3719SOL    HW123036   2.214   3.176  14.368 -0.3690 -1.0451 -0.7220
 3719SOL    HW223037   2.343   3.103  14.335 -0.4484 -1.8499  0.7613
 3720SOL     OW23038   3.587   2.552  16.704 -0.3697  0.2271 -0.4819
 3720SOL    HW123039   3.598   2.498  16.626 -0.3427  0.1510 -0.4251
 3720SOL    HW223040   3.592   2.642  16.672 -0.6542  0.1971 -0.6104
 3721SOL     OW23041   0.158   2.722  17.120 -0.0888 -0.0173 -0.1008
 3721SOL    HW123042   0.180   2.767  17.038  0.6049  0.5901  0.4170
 3721SOL    HW223043   0.068   2.748  17.139  0.4500  1.4552  0.4061
 3722SOL     OW23044   0.521   3.107   2.972 -0.1439 -0.2967  0.1341
 3722SOL    HW123045   0.585   3.159   2.923  0.2803 -0.2413  0.7461
 3722SOL    HW223046   0.455   3.083   2.907 -0.6662  1.5211 -0.0089
 3723SOL     OW23047   3.769   0.063  13.236 -0.0471  0.0056 -0.1518
 3723SOL    HW123048   3.714   0.135  13.207 -0.5692  0.0307  0.8943
 3723SOL    HW223049   3.858   0.098  13.235 -0.3370  0.7505  0.6661
 3724SOL     OW23050   0.558   0.534  11.481  0.2886  0.4650  0.5025
 3724SOL    HW123051   0.485   0.505  11.427  1.5764 -2.3728  0.2855
 3724SOL    HW223052   0.524   0.537  11.570 -0.5078  0.5790  0.1879
 3725SOL     OW23053   4.528   2.021   9.416 -0.1512 -0.5913  0.2399
 3725SOL    HW123054   4.492   1.960   9.481 -0.7315  0.9482  1.3594
 3725SOL    HW223055   4.593   2.072   9.465 -0.5543  0.5403 -0.4170
 3726SOL     OW23056   1.130   2.037   3.790 -0.1970 -0.2221 -0.0741
 3726SOL    HW123057   1.196   2.011   3.726 -1.1562  0.6846 -1.4413
 3726SOL    HW223058   1.057   2.068   3.737 -1.8880 -1.6588  1.4410
 3727SOL     OW23059   0.403   2.990  19.782 -0.2190 -0.0742  0.0134
 3727SOL    HW123060   0.358   2.911  19.752  0.4903 -0.1025 -0.9848
 3727SOL    HW223061   0.469   2.958  19.843 -0.5901 -0.1599  0.3743
 3728SOL     OW23062   0.838   1.466  20.477 -0.3700  0.7899  0.5522
 3728SOL    HW123063   0.807   1.463  20.386 -0.9872 -0.3053  0.7953
 3728SOL    HW223064   0.897   1.541  20.480 -1.0406  1.3658 -0.5446
 3729SOL     OW23065   4.672   1.064  13.602 -0.6086  0.3519 -0.3517
 3729SOL    HW123066   4.760   1.097  13.616  0.7893 -2.1824 -3.2020
 3729SOL    HW223067   4.671   0.978  13.644 -2.3724  1.3048  1.5804
 3730SOL     OW23068   1.014   0.181  16.433 -0.2953  0.0129  0.0848
 3730SOL    HW123069   1.043   0.096  16.401 -1.1257 -1.0544  2.1842
 3730SOL    HW223070   1.075   0.243  16.393  2.3658 -1.8772  1.1594
 3731SOL     OW23071   3.908   2.003   5.321 -0.0212  0.4871  0.4520
 3731SOL    HW123072   3.893   1.924   5.372 -2.3616  0.0048 -0.9826
 3731SOL    HW223073   3.839   2.002   5.254  1.2898  2.5851 -0.9284
 3732SOL     OW23074   1.642   1.463  17.599  0.1299  0.0356  0.3928
 3732SOL    HW123075   1.617   1.378  17.634  2.7025 -0.5849  0.7287
 3732SOL    HW223076   1.652   1.448  17.505 -0.3877  0.2076  0.3076
 3733SOL     OW23077   4.695   2.272  17.886  0.5203  0.3666  0.5872
 3733SOL    HW123078   4.752   2.333  17.932 -0.0121  1.7798 -0.6253
 3733SOL    HW223079   4.753   2.200  17.861  1.4064  0.9486  0.9348
 3734SOL     OW23080   0.139   4.398  11.416 -0.0952 -1.1664 -0.1915
 3734SOL    HW123081   0.047   4.410  11.441  0.3024  0.0820  0.7054
 3734SOL    HW223082   0.160   4.475  11.363  0.6293 -1.0801  0.2077
 3735SOL     OW23083   3.936   2.118  20.347 -0.0575  0.3131 -0.2972
 3735SOL    HW123084   3.915   2.210  20.366 -2.4139 -0.1327 -0.7788
 3735SOL    HW223085   3.939   2.114  20.251  0.1709 -0.0936 -0.2716
 3736SOL     OW23086   3.201   2.237   2.088  0.0440  0.4888 -0.4828
 3736SOL    HW123087   3.254   2.175   2.038 -0.3534  0.2925 -0.6676
 3736SOL    HW223088   3.238   2.323   2.067 -0.1959  0.4165 -1.2109
 3737SOL     OW23089   0.470   0.372  14.935  0.0885  0.7135 -0.4616
 3737SOL    HW123090   0.416   0.295  14.917  1.4432 -0.5392  0.7785
 3737SOL    HW223091   0.470   0.379  15.031  0.4080  1.9494 -0.5504
 3738SOL     OW23092   2.464   1.365  19.547  0.0696 -0.2395 -0.0608
 3738SOL    HW123093   2.409   1.322  19.612 -1.6788  1.3834 -0.4727
 3738SOL    HW223094   2.507   1.436  19.595 -1.8449  1.4679 -0.8626
 3739SOL     OW23095   4.523   2.844   8.824  0.5449 -0.1493  0.4225
 3739SOL    HW123096   4.464   2.918   8.811 -0.4363 -0.8029  1.1211
 3739SOL    HW223097   4.486   2.774   8.770  1.6285 -0.0415 -0.4609
 3740SOL     OW23098   2.813   3.025  18.253  0.0722  0.1330  0.2482
 3740SOL    HW123099   2.870   3.086  18.299  0.7001  0.8172 -1.4811
 3740SOL    HW223100   2.787   2.962  18.321 -0.1863  2.0085  1.9082
 3741SOL     OW23101   0.517   4.546  12.561  0.0444 -0.2394 -0.3277
 3741SOL    HW123102   0.444   4.579  12.509  0.1703  1.2039  0.4263
 3741SOL    HW223103   0.591   4.602  12.539  0.3300 -0.2058  0.7100
 3742SOL     OW23104   1.906   4.262   9.240  0.2324  0.3930 -0.1071
 3742SOL    HW123105   1.872   4.284   9.153  0.0217 -0.9329 -0.3594
 3742SOL    HW223106   1.982   4.320   9.251  0.1884  0.6576 -1.1164
 3743SOL     OW23107   3.713   1.832  14.772  0.0256 -0.3879 -0.4595
 3743SOL    HW123108   3.749   1.776  14.704 -1.0758 -1.6781  0.0159
 3743SOL    HW223109   3.769   1.817  14.849  0.5595  0.1954 -0.7321
 3744SOL     OW23110   0.605   2.215   5.149 -0.3021 -0.9002  0.3120
 3744SOL    HW123111   0.576   2.299   5.184 -0.1007 -0.9599  0.6220
 3744SOL    HW223112   0.700   2.225   5.138 -0.2942 -1.0481  0.2488
 3745SOL     OW23113   4.273   3.752  16.598 -0.2360  0.2372 -0.6181
 3745SOL    HW123114   4.312   3.780  16.515 -0.4259  1.5690 -0.2613
 3745SOL    HW223115   4.210   3.821  16.620 -3.3792 -2.2787 -1.5879
 3746SOL     OW23116   3.356   1.801   1.497  0.0620 -0.3723  0.2701
 3746SOL    HW123117   3.399   1.779   1.415  1.0390 -0.2131  0.7351
 3746SOL    HW223118   3.346   1.717   1.542  0.5880 -0.3174  0.4954
 3747SOL     OW23119   2.400   4.354   9.871 -0.2512  0.5010  0.4077
 3747SOL    HW123120   2.444   4.277   9.836 -1.4220 -1.2480  2.7490
 3747SOL    HW223121   2.455   4.382   9.944 -1.8816 -0.3745  1.9535
 3748SOL     OW23122   2.407   3.342   6.426  0.0686  0.2176 -0.3162
 3748SOL    HW123123   2.411   3.366   6.519  0.9727  1.0727 -0.5856
 3748SOL    HW223124   2.498   3.328   6.401 -0.1710  0.0962 -1.1097
 3749SOL     OW23125   4.420   2.273  13.773  0.5210 -0.3788 -0.7033
 3749SOL    HW123126   4.333   2.258  13.736 -0.0810  1.9850 -0.2534
 3749SOL    HW223127   4.448   2.357  13.736  1.5115  0.1362  1.1807
 3750SOL     OW23128   1.993   3.140   9.837 -0.1592 -0.0691  0.2028
 3750SOL    HW123129   2.088   3.143   9.837 -0.1399 -0.8108 -0.1142
 3750SOL    HW223130   1.969   3.160   9.928  0.2581  1.2301  0.0383
 3751SOL     OW23131   3.984   2.489   1.054 -0.4511 -0.0476  0.0348
 3751SOL    HW123132   3.946   2.422   0.997 -1.6439  0.1400  0.5914
 3751SOL    HW223133   4.078   2.484   1.039 -0.8592  0.8219 -2.8279
 3752SOL     OW23134   3.178   2.768   9.396 -0.0889 -0.0039 -0.4290
 3752SOL    HW123135   3.097   2.745   9.441  0.3621 -1.9244 -0.6036
 3752SOL    HW223136   3.151   2.825   9.324 -1.5328 -2.9077 -2.1566
 3753SOL     OW23137   3.585   2.028  18.982  0.0425 -0.2906  0.3733
 3753SOL    HW123138   3.661   2.008  18.927  0.4062 -1.1990  1.2142
 3753SOL    HW223139   3.609   2.109  19.027  0.4164 -0.4396  0.4461
 3754SOL     OW23140   3.463   3.272   3.492 -0.1956  0.2560 -0.5815
 3754SOL    HW123141   3.396   3.318   3.543  0.2340 -0.0380  0.2442
 3754SOL    HW223142   3.426   3.185   3.478 -0.5255  0.4906 -1.1975
 3755SOL     OW23143   1.990   1.527   5.728 -0.2005  0.8662  0.5250
 3755SOL    HW123144   2.041   1.588   5.674  0.9675  0.3421  1.0222
 3755SOL    HW223145   2.005   1.557   5.818  0.5376 -0.2698  0.7845
 3756SOL     OW23146   2.351   0.642  10.235 -0.5991  0.2550  0.1172
 3756SOL    HW123147   2.265   0.662  10.273 -0.3800  1.9903 -0.3256
 3756SOL    HW223148   2.379   0.563  10.281 -2.0378  0.2007  0.9036
 3757SOL     OW23149   1.362   1.243  15.321 -0.0982 -0.2619  0.4467
 3757SOL    HW123150   1.276   1.217  15.355 -0.8193  0.3999 -0.8556
 3757SOL    HW223151   1.364   1.209  15.232  0.6461  0.4943  0.1749
 3758SOL     OW23152   0.181   1.368   1.817  0.1900  0.1436 -0.3494
 3758SOL    HW123153   0.244   1.413   1.874  0.7867  0.7880 -1.5248
 3758SOL    HW223154   0.190   1.275   1.840  0.1008  0.4469  0.9331
 3759SOL     OW23155   0.143   0.717   2.389 -0.6049 -0.3588 -0.0705
 3759SOL    HW123156   0.114   0.631   2.358 -0.4052 -0.2266 -0.6261
 3759SOL    HW223157   0.195   0.752   2.317 -1.3026  0.5408 -0.1444
 3760SOL     OW23158   3.129   4.497   2.559 -0.1888  0.1370  0.5300
 3760SOL    HW123159   3.187   4.430   2.596  1.0914  0.8466 -0.1907
 3760SOL    HW223160   3.044   4.453   2.550  0.6732 -1.4266 -0.0137
 3761SOL     OW23161   3.109   0.328  19.561  0.0506  0.1837 -0.1344
 3761SOL    HW123162   3.059   0.400  19.523  1.0258  0.9484  0.0175
 3761SOL    HW223163   3.048   0.285  19.620 -0.4604  1.0520 -0.0232
 3762SOL     OW23164   1.893   2.837  19.131 -0.0839 -0.3652 -0.5450
 3762SOL    HW123165   1.988   2.839  19.133 -0.1460  0.8517  1.1670
 3762SOL    HW223166   1.868   2.915  19.082 -0.2090 -0.4853 -0.6733
 3763SOL     OW23167   4.532   1.998   9.136  0.9330  0.4491 -0.0968
 3763SOL    HW123168   4.620   1.969   9.111  0.8317  0.6261 -0.6587
 3763SOL    HW223169   4.535   2.003   9.231  1.9638  1.8709 -0.2005
 3764SOL     OW23170   0.449   4.146  16.337 -0.2155 -0.2275 -0.1012
 3764SOL    HW123171   0.515   4.089  16.298 -3.2451 -1.9623 -2.6247
 3764SOL    HW223172   0.387   4.086  16.379 -1.2675  1.3510  0.6043
 3765SOL     OW23173   1.976   4.235  17.644  0.1262  0.2726  0.2033
 3765SOL    HW123174   1.999   4.144  17.624 -0.0563  0.2283  0.1996
 3765SOL    HW223175   2.060   4.281  17.641  0.5882 -0.3929  3.0141
 3766SOL     OW23176   3.637   4.481   0.232 -0.4351  0.1036  0.3384
 3766SOL    HW123177   3.568   4.464   0.296 -0.2114 -1.1206  0.2509
 3766SOL    HW223178   3.713   4.508   0.284 -1.3843  2.7653  0.3491
 3767SOL     OW23179   3.484   0.687  18.448 -0.0904  0.0998  0.0355
 3767SOL    HW123180   3.488   0.724  18.537 -0.6828  0.3152 -0.0297
 3767SOL    HW223181   3.562   0.631  18.443  0.0866  0.2854  0.6026
 3768SOL     OW23182   3.832   0.814  11.398  0.1984 -0.0836  0.3116
 3768SOL    HW123183   3.786   0.757  11.337  0.6201 -0.4446  0.3308
 3768SOL    HW223184   3.793   0.900  11.384  0.7257 -0.0454 -0.8965
 3769SOL     OW23185   4.720   0.827  10.912 -0.4751 -0.4321 -0.3828
 3769SOL    HW123186   4.742   0.734  10.906 -1.8954 -0.7986  0.2190
 3769SOL    HW223187   4.730   0.848  11.005 -1.0626 -0.1928 -0.3757
 3770SOL     OW23188   3.920   2.146  18.326 -0.0433 -0.0821 -0.1418
 3770SOL    HW123189   3.976   2.196  18.385 -0.9638 -0.5721  1.1503
 3770SOL    HW223190   3.835   2.190  18.332 -0.9717 -2.1214  1.3449
 3771SOL     OW23191   0.680   0.050  17.116  0.0979  0.1910  0.0074
 3771SOL    HW123192   0.675   0.045  17.021 -0.1018  1.2384 -0.0447
 3771SOL    HW223193   0.613   0.115  17.139 -0.3727 -0.6232  0.9089
 3772SOL     OW23194   3.159   1.674  15.141 -0.2857  0.2414 -0.1245
 3772SOL    HW123195   3.232   1.687  15.201 -0.2721  0.5965 -0.2220
 3772SOL    HW223196   3.100   1.748  15.156  0.5630  1.2537 -1.7640
 3773SOL     OW23197   3.132   4.747  16.476 -0.2295 -0.3911 -0.3646
 3773SOL    HW123198   3.125   4.673  16.415  1.0348  0.7385 -1.8823
 3773SOL    HW223199   3.054   0.024  16.459 -1.3521 -1.6087  1.0213
 3774SOL     OW23200   0.008   4.024  20.140  0.6659  0.3008  0.0584
 3774SOL    HW123201   0.100   4.010  20.160  0.3512 -0.1205  1.2464
 3774SOL    HW223202   4.750   4.069  20.217 -0.3613 -0.5158  0.0890
 3775SOL     OW23203   4.357   2.255  10.397  0.1855  0.1762  0.3791
 3775SOL    HW123204   4.365   2.345  10.364 -0.6898  0.0906 -0.0736
 3775SOL    HW223205   4.380   2.261  10.490 -1.7299  1.1944  0.7878
 3776SOL     OW23206   1.379   2.528  18.299  0.0119 -0.4732 -0.0863
 3776SOL    HW123207   1.355   2.561  18.385 -0.6960 -1.3937  0.0743
 3776SOL    HW223208   1.417   2.603  18.254  1.2163 -0.2133  1.3427
 3777SOL     OW23209   2.238   2.063  17.798 -0.0511 -0.2503  0.3122
 3777SOL    HW123210   2.291   2.085  17.874 -0.8256  1.4293  0.3793
 3777SOL    HW223211   2.185   2.142  17.782 -0.0265 -0.6503 -1.8334
 3778SOL     OW23212   3.723   1.005  10.638 -0.6887  0.4909 -0.2378
 3778SOL    HW123213   3.770   1.032  10.717 -3.1372  0.8112  1.1088
 3778SOL    HW223214   3.735   1.078  10.577  0.7935  0.4480 -0.0167
 3779SOL     OW23215   4.454   0.280  10.721 -0.0669 -0.1894 -0.2364
 3779SOL    HW123216   4.389   0.216  10.691 -1.4150  0.7988  0.6015
 3779SOL    HW223217   4.455   0.269  10.816 -0.9293  1.6561 -0.0147
 3780SOL     OW23218   4.112   3.217  18.139  0.3579 -0.1586 -0.3563
 3780SOL    HW123219   4.040   3.216  18.201  0.0265 -0.1950 -0.7373
 3780SOL    HW223220   4.126   3.310  18.120  0.3636 -0.1553 -0.3358
 3781SOL     OW23221   0.345   3.447  20.283  0.3948  0.2328  0.0774
 3781SOL    HW123222   0.292   3.525  20.294  0.0814  0.1944 -1.1761
 3781SOL    HW223223   0.358   3.439  20.189  0.1591 -1.4012  0.1763
 3782SOL     OW23224   4.376   4.254   4.455 -0.4982  0.6543  0.7932
 3782SOL    HW123225   4.341   4.165   4.457  2.1919 -0.4114  0.2637
 3782SOL    HW223226   4.379   4.281   4.547  0.5542 -0.5197  1.0983
 3783SOL     OW23227   3.638   0.268  19.709  0.0505 -0.4809  0.1114
 3783SOL    HW123228   3.551   0.248  19.744 -0.1640 -0.5942 -0.4741
 3783SOL    HW223229   3.664   0.348  19.753 -0.7835  0.1046 -0.4563
 3784SOL     OW23230   4.414   4.157  17.845  0.3287 -0.1092  0.2243
 3784SOL    HW123231   4.393   4.250  17.832  0.0363  0.2136  3.1123
 3784SOL    HW223232   4.508   4.152  17.831  0.2643  0.5273 -0.4571
 3785SOL     OW23233   2.186   4.565  16.117  0.7141  0.2462 -0.0809
 3785SOL    HW123234   2.125   4.595  16.049 -0.5300 -0.0474  0.9027
 3785SOL    HW223235   2.263   4.620  16.106  0.6424 -0.0023 -1.9398
 3786SOL     OW23236   4.347   3.163  18.336 -0.5889  0.8186  0.3589
 3786SOL    HW123237   4.318   3.072  18.324 -0.3182  0.7435  0.2784
 3786SOL    HW223238   4.326   3.182  18.428 -0.3026  0.5491  0.4818
 3787SOL     OW23239   2.639   0.923  15.427  0.4104  0.0731 -0.2666
 3787SOL    HW123240   2.570   0.980  15.391 -0.5971 -0.4391  0.8517
 3787SOL    HW223241   2.605   0.896  15.512  0.7784 -2.4488 -0.9300
 3788SOL     OW23242   1.412   0.070   0.571 -0.1840 -0.1755 -0.2258
 3788SOL    HW123243   1.502   0.080   0.539  0.1837 -1.8749  0.2618
 3788SOL    HW223244   1.358   0.073   0.493  0.4371 -0.8228 -0.6796
 3789SOL     OW23245   1.576   2.654  15.389 -0.0777  0.5085  0.6574
 3789SOL    HW123246   1.594   2.741  15.426 -0.2817  0.4592  0.8655
 3789SOL    HW223247   1.584   2.594  15.463  1.5203  0.1784  0.2224
 3790SOL     OW23248   1.079   2.727   4.731 -0.4303 -0.2149 -0.3377
 3790SOL    HW123249   1.079   2.812   4.775  0.7974 -0.8654  0.9299
 3790SOL    HW223250   1.079   2.748   4.638 -0.5735  1.1700 -0.0260
 3791SOL     OW23251   2.002   4.582   2.143 -0.2976 -0.0932  0.4825
 3791SOL    HW123252   1.922   4.557   2.189 -1.3513 -1.0328 -1.8161
 3791SOL    HW223253   2.022   4.506   2.088  1.9292  0.3125  0.7225
 3792SOL     OW23254   4.425   3.131  16.045  0.0274 -0.3214  0.2125
 3792SOL    HW123255   4.361   3.166  16.107  2.4263  1.1397  1.8738
 3792SOL    HW223256   4.487   3.082  16.100  0.4730 -1.5417 -1.3653
 3793SOL     OW23257   1.719   3.276  16.479 -0.1095  0.0170  0.3403
 3793SOL    HW123258   1.808   3.285  16.444  0.0271 -0.1965  0.6375
 3793SOL    HW223259   1.722   3.196  16.532 -0.8838 -0.8514 -0.9237
 3794SOL     OW23260   3.584   1.686  15.615 -0.0946  0.3102 -0.7144
 3794SOL    HW123261   3.640   1.628  15.667 -0.1310 -0.2389 -1.2899
 3794SOL    HW223262   3.589   1.651  15.526  0.4525  1.6208 -1.1966
 3795SOL     OW23263   3.892   3.700   5.458  0.2173 -0.1353  0.5293
 3795SOL    HW123264   3.901   3.698   5.553 -0.9849  1.1063  0.6668
 3795SOL    HW223265   3.849   3.784   5.440  1.6840  0.2481 -1.1893
 3796SOL     OW23266   4.742   0.434   7.966  0.1738  0.0613  0.0333
 3796SOL    HW123267   0.016   0.357   7.992  1.0722  0.1661 -1.4035
 3796SOL    HW223268   0.025   0.483   7.909 -1.5786  0.2053 -1.6410
 3797SOL     OW23269   1.046   2.474  16.333 -0.0078 -0.3412  0.4153
 3797SOL    HW123270   1.105   2.399  16.341 -0.3030 -0.7838 -1.4638
 3797SOL    HW223271   1.037   2.507  16.422  0.3309 -2.3985  1.2279
 3798SOL     OW23272   1.393   1.435   6.021  0.4763  0.4270  0.4572
 3798SOL    HW123273   1.471   1.465   6.067  0.4891 -1.5947  1.7593
 3798SOL    HW223274   1.320   1.465   6.075  0.3531  1.8544 -0.4858
 3799SOL     OW23275   4.560   3.479  20.317  0.9633  0.8668 -0.3543
 3799SOL    HW123276   4.490   3.538  20.291  0.5726  0.6217  0.1476
 3799SOL    HW223277   4.515   3.405  20.359  1.3261 -0.6159 -2.5838
 3800SOL     OW23278   2.437   0.094   1.617  0.4776 -0.0225 -0.0814
 3800SOL    HW123279   2.378   0.105   1.543  0.7291  0.0089 -0.2789
 3800SOL    HW223280   2.475   0.181   1.631  0.1180  0.0632  0.3471
 3801SOL     OW23281   1.140   2.113  17.967 -0.4208 -0.4040  0.0429
 3801SOL    HW123282   1.190   2.169  18.026 -0.0860 -0.6756  0.0203
 3801SOL    HW223283   1.108   2.042  18.022  0.7390 -1.1962 -0.2982
 3802SOL     OW23284   0.526   4.439  11.586 -0.3628 -0.1015 -0.0957
 3802SOL    HW123285   0.480   4.355  11.587  1.7079 -1.2359  0.0216
 3802SOL    HW223286   0.522   4.469  11.677  1.9735 -1.7409  0.5346
 3803SOL     OW23287   3.699   2.402   4.387  0.1240  0.2195  0.2824
 3803SOL    HW123288   3.773   2.437   4.435  1.5488 -1.3388 -0.7721
 3803SOL    HW223289   3.737   2.334   4.331 -2.0251 -0.2910 -0.5489
 3804SOL     OW23290   0.097   1.353   2.125  0.0089  0.1010  0.0581
 3804SOL    HW123291   0.040   1.320   2.194 -2.3353  0.8017 -1.5566
 3804SOL    HW223292   0.130   1.274   2.081  0.0160 -0.2840  0.7610
 3805SOL     OW23293   0.822   1.585  15.156 -0.2860 -0.5746 -0.4825
 3805SOL    HW123294   0.772   1.625  15.228  0.2939  0.7701 -0.8387
 3805SOL    HW223295   0.797   1.635  15.079  1.3090 -0.1980 -0.7344
 3806SOL     OW23296   2.085   1.829  17.455  0.2870 -0.2868 -0.0276
 3806SOL    HW123297   2.003   1.783  17.436 -0.8926  0.9119  2.1970
 3806SOL    HW223298   2.092   1.827  17.550  2.7013 -0.1244 -0.2091
 3807SOL     OW23299   1.734   0.828  13.765 -0.1904  0.2389  0.4722
 3807SOL    HW123300   1.725   0.920  13.791  1.0717  0.5052 -0.0091
 3807SOL    HW223301   1.810   0.797  13.814 -0.2939 -0.4011  0.2222
 3808SOL     OW23302   0.668   1.317   5.568  0.8798  0.7747  0.0775
 3808SOL    HW123303   0.597   1.328   5.505 -0.6879  2.7666  2.1651
 3808SOL    HW223304   0.624   1.288   5.648  2.7642 -0.9786  0.4593
 3809SOL     OW23305   3.313   1.052  16.536 -0.1066  0.0605  0.2101
 3809SOL    HW123306   3.268   1.003  16.604 -2.1349  1.5195 -0.0665
 3809SOL    HW223307   3.332   1.137  16.575  0.5193  0.1854 -0.3618
 3810SOL     OW23308   3.816   0.068   0.224 -0.3839 -0.1780 -0.1524
 3810SOL    HW123309   3.799   4.752   0.244  0.4216 -0.4490 -0.7340
 3810SOL    HW223310   3.871   0.067   0.146  1.0114  0.7540  0.8136
 3811SOL     OW23311   0.213   2.281   1.413  0.0133 -0.1620 -0.0385
 3811SOL    HW123312   0.181   2.370   1.398 -0.0070  0.0963  1.4649
 3811SOL    HW223313   0.216   2.273   1.509 -1.8845 -2.4679 -0.1851
 3812SOL     OW23314   3.559   1.214  17.285  0.0893 -0.0383 -0.1080
 3812SOL    HW123315   3.568   1.192  17.378  0.8175 -0.8240 -0.3685
 3812SOL    HW223316   3.467   1.197  17.265  0.4992 -2.2021 -0.1515
 3813SOL     OW23317   0.775   3.494  10.032  0.2746  0.0171  0.6664
 3813SOL    HW123318   0.818   3.556   9.973 -0.7741  0.2502  0.1577
 3813SOL    HW223319   0.747   3.548  10.106 -0.0917  0.0449  0.5068
 3814SOL     OW23320   1.642   2.538  20.932  0.0313 -0.5266 -0.1256
 3814SOL    HW123321   1.664   2.478  20.861 -1.0722 -0.1832 -0.7647
 3814SOL    HW223322   1.683   2.621  20.906  0.4840 -0.6679  0.1363
 3815SOL     OW23323   3.081   3.279  17.162 -0.2056  0.2853  0.0978
 3815SOL    HW123324   3.113   3.260  17.250 -1.7896 -0.1115  0.5895
 3815SOL    HW223325   3.093   3.198  17.113 -2.8218 -0.6362  0.9768
 3816SOL     OW23326   2.860   4.208  12.452 -0.2126  0.1338  0.2100
 3816SOL    HW123327   2.921   4.182  12.521 -1.1330 -0.4373  0.8036
 3816SOL    HW223328   2.814   4.284  12.488 -0.7068 -0.1775  0.2321
 3817SOL     OW23329   2.665   1.237   5.891  0.5279 -0.2822 -0.7158
 3817SOL    HW123330   2.654   1.142   5.892 -1.7837 -0.0150 -1.2482
 3817SOL    HW223331   2.667   1.261   5.798 -0.8248  0.4033 -0.5793
 3818SOL     OW23332   3.494   3.155  10.003 -0.7895  0.3756 -0.1513
 3818SOL    HW123333   3.502   3.250  10.016  0.1185  0.3712 -0.6232
 3818SOL    HW223334   3.407   3.133  10.034 -0.5496  1.1859  1.0711
 3819SOL     OW23335   4.303   1.112   3.846 -0.2934 -0.4401  0.1488
 3819SOL    HW123336   4.227   1.132   3.900 -0.1181  0.7618 -0.0514
 3819SOL    HW223337   4.269   1.115   3.756 -0.3001 -1.1709  0.1291
 3820SOL     OW23338   2.572   2.198   5.385  0.4435 -0.4023  0.0505
 3820SOL    HW123339   2.635   2.270   5.372  0.8256 -0.7556 -0.0463
 3820SOL    HW223340   2.522   2.195   5.303  0.0782  0.0954  0.2532
 3821SOL     OW23341   3.794   0.903  16.784 -0.1119  0.3632 -0.1050
 3821SOL    HW123342   3.877   0.867  16.816  0.1921  1.5235  0.3816
 3821SOL    HW223343   3.729   0.837  16.808  0.3002  0.6289  1.7023
 3822SOL     OW23344   3.385   3.325  13.666  0.0601 -0.5982 -0.3157
 3822SOL    HW123345   3.290   3.340  13.662 -0.1246 -0.9736  2.7150
 3822SOL    HW223346   3.394   3.236  13.702  1.5105 -1.4874 -2.8597
 3823SOL     OW23347   0.321   3.939   0.934  0.1955 -0.4891  0.1803
 3823SOL    HW123348   0.412   3.961   0.954  0.2578 -0.8282  0.2782
 3823SOL    HW223349   0.270   3.997   0.991  0.3274  0.5999 -0.8092
 3824SOL     OW23350   2.292   3.149   4.657 -0.4030 -0.0090  0.1496
 3824SOL    HW123351   2.219   3.087   4.646 -0.6092 -0.0191  1.6487
 3824SOL    HW223352   2.250   3.230   4.685  0.1202  0.1553  0.4470
 3825SOL     OW23353   2.322   0.843  19.474  0.7289 -0.1108  0.3594
 3825SOL    HW123354   2.276   0.760  19.483  0.1747  0.1276 -0.2401
 3825SOL    HW223355   2.338   0.852  19.380 -2.2445  2.0890  0.0463
 3826SOL     OW23356   4.348   3.041   6.176 -0.2609  1.0253  0.3337
 3826SOL    HW123357   4.343   3.058   6.082  1.9366 -0.0844  0.0219
 3826SOL    HW223358   4.257   3.046   6.206 -1.1433 -0.1217 -2.1198
 3827SOL     OW23359   0.315   4.305   9.652 -0.5092 -0.0046 -0.1494
 3827SOL    HW123360   0.352   4.310   9.740 -0.4208 -3.3387  0.0150
 3827SOL    HW223361   0.226   4.271   9.665 -0.7678  0.2328 -1.2832
 3828SOL     OW23362   4.168   2.630  17.829 -0.4114 -0.4400  0.0196
 3828SOL    HW123363   4.231   2.681  17.881 -0.1250 -0.2925 -0.4663
 3828SOL    HW223364   4.082   2.656  17.862 -0.2990  1.1005 -0.8981
 3829SOL     OW23365   2.841   3.789  16.954 -0.0120  0.7025  0.0623
 3829SOL    HW123366   2.833   3.732  17.031  1.8002  0.5941  0.1736
 3829SOL    HW223367   2.934   3.788  16.933 -0.5342  0.6108 -2.2412
 3830SOL     OW23368   0.138   1.385  16.455 -0.4423  0.2129  0.1947
 3830SOL    HW123369   0.185   1.440  16.392 -1.2654 -0.2477 -0.8464
 3830SOL    HW223370   0.111   1.309  16.403 -4.0225  1.4196  0.2782
 3831SOL     OW23371   0.020   2.930  20.066 -0.2131  0.0291  0.1657
 3831SOL    HW123372   4.740   2.913  20.142  0.5551  3.2874  1.4401
 3831SOL    HW223373   0.108   2.941  20.102  0.4426 -0.1961 -1.3711
 3832SOL     OW23374   1.894   1.800   9.250  0.3258  0.5434 -0.0868
 3832SOL    HW123375   1.808   1.768   9.276 -0.1505  2.5934  0.8226
 3832SOL    HW223376   1.903   1.772   9.159 -1.3836  0.5024 -0.2477
 3833SOL     OW23377   3.048   2.367  17.464  0.3572 -0.5843 -0.4117
 3833SOL    HW123378   3.112   2.316  17.415 -0.4905 -1.7548 -0.2827
 3833SOL    HW223379   2.982   2.392  17.399  1.2173  1.0913 -0.6622
 3834SOL     OW23380   0.081   3.221   4.770 -0.6663 -0.6330  0.2718
 3834SOL    HW123381   0.141   3.158   4.730  0.0561 -0.7965  1.6091
 3834SOL    HW223382   0.138   3.291   4.802 -1.1281 -1.1066  2.1377
 3835SOL     OW23383   3.321   4.670   7.130  0.2781 -0.4526  0.0970
 3835SOL    HW123384   3.350   4.593   7.081 -0.9576 -1.8893  1.5871
 3835SOL    HW223385   3.362   4.660   7.216 -0.4202  0.1916  0.5024
 3836SOL     OW23386   4.735   3.605  19.555 -0.1242  0.3424 -0.1331
 3836SOL    HW123387   4.695   3.551  19.487 -0.2912  0.0299  0.2118
 3836SOL    HW223388   4.730   3.695  19.522  1.5115 -0.0352 -1.3744
 3837SOL     OW23389   1.121   1.469   0.008  0.3719  0.0461 -0.1086
 3837SOL    HW123390   1.203   1.456  21.155 -0.2775  1.7471 -1.6603
 3837SOL    HW223391   1.064   1.515  21.143 -1.2577  0.1143  1.4694
 3838SOL     OW23392   0.262   1.972  10.947 -0.0177 -0.0718 -0.0228
 3838SOL    HW123393   0.325   1.916  10.902  1.2131 -0.8474  2.6640
 3838SOL    HW223394   0.297   2.060  10.938  1.5072 -0.5174  1.5902
 3839SOL     OW23395   2.375   2.761  17.143  0.5462 -0.6599 -0.0106
 3839SOL    HW123396   2.385   2.822  17.216 -2.0017 -1.8125  1.3084
 3839SOL    HW223397   2.393   2.674  17.181  1.8053 -0.9821 -1.3375
 3840SOL     OW23398   1.810   0.786  20.490 -0.5327 -0.5059 -0.0433
 3840SOL    HW123399   1.717   0.777  20.508 -0.4187 -1.0561  0.2569
 3840SOL    HW223400   1.840   0.852  20.553 -0.6263 -0.6604  0.1615
 3841SOL     OW23401   2.002   3.704  18.056  0.2069  0.3077  0.1756
 3841SOL    HW123402   1.953   3.780  18.089  2.6644  1.4190  1.2456
 3841SOL    HW223403   2.094   3.731  18.059  0.8719 -1.6133 -2.2962
 3842SOL     OW23404   1.320   2.083  12.334  0.3720 -0.1084 -0.1261
 3842SOL    HW123405   1.241   2.071  12.387  0.6835  0.3591  0.4477
 3842SOL    HW223406   1.292   2.066  12.244 -0.1885 -0.7762  0.1751
 3843SOL     OW23407   3.041   1.995   0.320  0.7555  0.1903  0.9574
 3843SOL    HW123408   3.038   1.917   0.375 -2.2628  0.0799  0.6469
 3843SOL    HW223409   3.002   2.064   0.373  2.5352  1.2532  0.8738
 3844SOL     OW23410   0.654   1.622  19.030 -0.7767 -0.1166 -0.8928
 3844SOL    HW123411   0.731   1.574  19.060 -0.0301  0.6258 -1.6388
 3844SOL    HW223412   0.621   1.665  19.109  0.6308  1.0527 -0.9543
 3845SOL     OW23413   3.226   4.643  19.828 -0.6971 -0.3856  0.1937
 3845SOL    HW123414   3.136   4.611  19.835  0.4156 -3.7768 -1.2611
 3845SOL    HW223415   3.268   4.614  19.909 -0.4833 -0.1786  0.1557
 3846SOL     OW23416   2.024   3.393  16.552 -0.2565  0.3295 -0.5763
 3846SOL    HW123417   2.011   3.307  16.512  3.0248 -0.8287  0.8293
 3846SOL    HW223418   2.024   3.454  16.479  0.9212 -1.2822 -1.9276
 3847SOL     OW23419   1.382   0.965  19.848 -0.2769  0.5361 -0.2291
 3847SOL    HW123420   1.451   0.934  19.906  0.6922  0.0859 -1.6245
 3847SOL    HW223421   1.301   0.958  19.900  0.3598 -1.4287  0.4833
 3848SOL     OW23422   3.356   2.462  12.325  0.0223  0.3212 -0.1622
 3848SOL    HW123423   3.363   2.464  12.229 -0.0704 -1.9703 -0.2247
 3848SOL    HW223424   3.443   2.436  12.355 -0.4775 -0.8465  0.2836
 3849SOL     OW23425   2.992   3.499  16.004  0.0359 -0.0937  0.1694
 3849SOL    HW123426   3.049   3.559  16.051  1.5904 -0.8820 -0.7092
 3849SOL    HW223427   3.033   3.489  15.918 -0.2451 -2.3491  0.2919
 3850SOL     OW23428   2.845   4.130  18.805  0.3414  0.3280 -0.1087
 3850SOL    HW123429   2.788   4.205  18.792  0.9775  0.7231 -0.6226
 3850SOL    HW223430   2.914   4.161  18.863 -0.1289 -0.2339  0.7542
 3851SOL     OW23431   3.694   4.386  11.109  0.3763  0.3419  0.6827
 3851SOL    HW123432   3.777   4.360  11.069 -0.0625 -0.7069  0.4463
 3851SOL    HW223433   3.663   4.459  11.055  0.3373 -0.3338 -0.1995
 3852SOL     OW23434   2.035   0.778  15.893 -0.0137  0.1571 -0.0197
 3852SOL    HW123435   2.121   0.814  15.871  0.5333 -0.4250  1.1513
 3852SOL    HW223436   2.052   0.719  15.967 -1.3221 -0.4318 -0.1888
 3853SOL     OW23437   1.098   4.424   0.693 -0.1623  0.4159  0.7662
 3853SOL    HW123438   1.082   4.354   0.630 -1.9693  0.1737  1.4933
 3853SOL    HW223439   1.193   4.436   0.692 -0.1240  0.0339 -1.5913
 3854SOL     OW23440   3.308   2.982  16.120 -0.0503 -0.3400  0.3624
 3854SOL    HW123441   3.271   2.894  16.119  1.4857 -0.9905  0.6183
 3854SOL    HW223442   3.285   3.017  16.207 -0.0507 -0.7428  0.5233
 3855SOL     OW23443   4.348   4.650   4.701 -0.1789  0.5642 -0.0611
 3855SOL    HW123444   4.254   4.650   4.720 -0.3444  2.0033 -0.9129
 3855SOL    HW223445   4.389   4.658   4.787 -0.8625  1.8359  0.1493
 3856SOL     OW23446   1.700   3.683  15.572 -1.0142  0.5307  0.7107
 3856SOL    HW123447   1.643   3.738  15.518  0.4529  2.2508  0.8993
 3856SOL    HW223448   1.780   3.735  15.582  1.1580 -2.5141 -0.8156
 3857SOL     OW23449   1.796   3.578  15.205 -0.0935  0.2961  0.4011
 3857SOL    HW123450   1.861   3.509  15.197 -1.0139 -0.5344  0.1461
 3857SOL    HW223451   1.847   3.659  15.204  1.0088 -0.3886  1.0769
 3858SOL     OW23452   0.856   1.438  16.720  0.0260  0.4953  0.1320
 3858SOL    HW123453   0.947   1.442  16.750  0.2660  2.4362 -0.8092
 3858SOL    HW223454   0.862   1.432  16.625 -0.8221 -0.1293  0.1163
 3859SOL     OW23455   2.591   1.618  13.109 -0.0205 -0.4502 -0.5953
 3859SOL    HW123456   2.678   1.584  13.089  0.4270  0.6393 -0.5320
 3859SOL    HW223457   2.601   1.660  13.194 -0.4615  0.2189 -0.8719
 3860SOL     OW23458   2.536   4.602   8.970 -0.0307  0.0932 -0.1314
 3860SOL    HW123459   2.615   4.584   8.918  0.9883 -1.5807  2.0051
 3860SOL    HW223460   2.567   4.655   9.043 -0.8886 -0.6797  0.7814
 3861SOL     OW23461   4.526   1.645   1.360  0.2407 -0.1542 -0.4816
 3861SOL    HW123462   4.433   1.661   1.340 -0.4039 -0.6469  2.1878
 3861SOL    HW223463   4.542   1.557   1.327  0.7204  1.3539 -4.3239
 3862SOL     OW23464   3.361   3.644  18.610  0.4160 -0.3464  0.6864
 3862SOL    HW123465   3.324   3.660  18.697 -2.2368 -0.8270 -0.3572
 3862SOL    HW223466   3.343   3.725  18.562  0.5037 -0.6871  0.0867
 3863SOL     OW23467   3.385   1.458   6.429  0.8477  0.1466  0.1042
 3863SOL    HW123468   3.343   1.488   6.510  1.7122 -1.9658  1.3603
 3863SOL    HW223469   3.367   1.364   6.427  1.6409  0.0376 -1.6810
 3864SOL     OW23470   3.351   2.783   7.426  0.3957 -0.3500  0.0655
 3864SOL    HW123471   3.339   2.781   7.521  0.3122 -0.2945  0.0560
 3864SOL    HW223472   3.263   2.793   7.391  0.4681  0.0381 -0.0042
 3865SOL     OW23473   2.848   1.798   5.095  0.2511  0.3758 -0.5747
 3865SOL    HW123474   2.920   1.741   5.120 -0.5224 -1.0873 -1.6554
 3865SOL    HW223475   2.777   1.775   5.155  0.7901  2.0338  0.6935
 3866SOL     OW23476   3.779   0.922   8.125 -0.1492  0.2328  0.6011
 3866SOL    HW123477   3.784   0.924   8.220  0.8010 -0.9999  0.5815
 3866SOL    HW223478   3.722   0.995   8.102  1.4591  1.9555  2.0077
 3867SOL     OW23479   0.221   3.126  20.752  0.6522  0.1376  0.3971
 3867SOL    HW123480   0.155   3.165  20.808  0.4281  0.5775 -0.1681
 3867SOL    HW223481   0.177   3.053  20.709 -0.1505  1.9241 -1.8088
 3868SOL     OW23482   1.488   1.574   1.041  0.5684  0.0397 -0.2357
 3868SOL    HW123483   1.573   1.530   1.032  0.2375 -0.7772  0.6778
 3868SOL    HW223484   1.509   1.667   1.039  1.3612 -0.1507 -1.3159
 3869SOL     OW23485   1.530   4.581  20.008 -0.1063  0.1641  0.0484
 3869SOL    HW123486   1.465   4.623  19.951  0.8874  2.5679  0.6832
 3869SOL    HW223487   1.595   4.546  19.947 -0.3320  0.5695 -0.4301
 3870SOL     OW23488   0.763   4.463  20.388  0.0473 -0.0913  0.2199
 3870SOL    HW123489   0.728   4.379  20.418  1.5132  0.4980  3.5793
 3870SOL    HW223490   0.858   4.454  20.396  0.2386  1.6838  0.0001
 3871SOL     OW23491   4.313   1.355   2.759  0.3687 -0.2764 -0.0172
 3871SOL    HW123492   4.271   1.315   2.835  0.7836 -0.3660  0.1701
 3871SOL    HW223493   4.386   1.405   2.797  0.3792 -0.0615 -0.3273
 3872SOL     OW23494   1.938   4.702  16.692 -0.4330 -0.4047  0.2059
 3872SOL    HW123495   1.999   4.769  16.662 -1.1705  0.1148 -0.1471
 3872SOL    HW223496   1.851   4.738  16.673 -0.8258 -1.6352 -0.3797
 3873SOL     OW23497   3.163   1.833  13.484  0.2725 -0.4105  0.0647
 3873SOL    HW123498   3.169   1.893  13.559  1.1345 -1.5666  0.9094
 3873SOL    HW223499   3.093   1.870  13.430  1.4710  1.9094  0.1171
 3874SOL     OW23500   1.214   2.936  16.492  0.1328  0.0241 -0.0245
 3874SOL    HW123501   1.168   2.954  16.573 -1.6638  0.7292 -1.1981
 3874SOL    HW223502   1.284   3.001  16.488  1.0705 -0.8919  1.6316
 3875SOL     OW23503   0.443   0.573  16.404  0.2007 -0.2139  0.6058
 3875SOL    HW123504   0.535   0.580  16.430  0.0898 -2.1578  1.5288
 3875SOL    HW223505   0.395   0.570  16.486 -0.6147 -0.4161  0.1225
 3876SOL     OW23506   3.499   4.269   0.102 -0.7876 -0.3799  0.2498
 3876SOL    HW123507   3.553   4.320   0.041 -1.4294  1.3833  1.1716
 3876SOL    HW223508   3.527   4.298   0.188 -1.1602 -1.5955  0.7758
 3877SOL     OW23509   4.257   4.594  18.819  0.2434  0.4058 -0.1026
 3877SOL    HW123510   4.319   4.656  18.781  1.7089 -2.0738 -1.6868
 3877SOL    HW223511   4.298   4.566  18.901  0.3207  0.2490 -0.1960
 3878SOL     OW23512   1.644   1.403  20.007  0.0455  0.3757  0.3571
 3878SOL    HW123513   1.664   1.453  19.928 -0.7725 -0.0505 -0.1242
 3878SOL    HW223514   1.639   1.312  19.977  0.4265  0.1311  1.0262
 3879SOL     OW23515   4.532   2.535   0.771  0.4140  0.0281 -0.3026
 3879SOL    HW123516   4.503   2.555   0.682  0.4589  1.3225 -0.0355
 3879SOL    HW223517   4.576   2.450   0.764 -1.0296 -0.6350 -1.2084
 3880SOL     OW23518   3.469   1.928  15.625 -0.2510  0.9856  0.1882
 3880SOL    HW123519   3.375   1.922  15.641 -0.2960  1.2606  0.0217
 3880SOL    HW223520   3.495   1.839  15.599 -0.6161  1.1149 -0.6070
 3881SOL     OW23521   2.868   1.043   3.102  0.0070  0.4671  0.2590
 3881SOL    HW123522   2.917   1.119   3.135 -0.7500  1.1810 -0.2714
 3881SOL    HW223523   2.781   1.052   3.139 -0.0072 -0.2924  0.4125
 3882SOL     OW23524   4.205   2.690   5.737 -0.3377 -0.2861 -0.4502
 3882SOL    HW123525   4.253   2.608   5.723  0.9143  0.2927  0.4185
 3882SOL    HW223526   4.127   2.663   5.785  0.7580 -0.8031  1.0788
 3883SOL     OW23527   3.990   1.743   5.067 -0.1093  0.1428 -0.0724
 3883SOL    HW123528   4.043   1.718   4.991  1.2487 -0.0021  0.9283
 3883SOL    HW223529   3.995   1.838   5.070  1.5743  0.0033  1.1164
 3884SOL     OW23530   2.832   0.647   7.311 -0.3308 -0.0914 -1.0458
 3884SOL    HW123531   2.902   0.582   7.303 -3.2653 -3.1730 -1.9327
 3884SOL    HW223532   2.843   0.684   7.398  1.2891 -1.8762 -0.4867
 3885SOL     OW23533   2.305   2.842   1.937 -0.2691 -0.0294 -1.0642
 3885SOL    HW123534   2.331   2.919   1.887 -0.7808 -0.2634 -1.6971
 3885SOL    HW223535   2.289   2.874   2.025  3.9988 -0.2023 -0.2274
 3886SOL     OW23536   0.357   1.129   1.688  0.3896  0.3821 -0.4268
 3886SOL    HW123537   0.451   1.148   1.688  0.3092  0.7552 -0.9416
 3886SOL    HW223538   0.315   1.211   1.663 -0.0722  0.1784 -0.3272
 3887SOL     OW23539   0.949   2.226   2.673 -0.4072  0.5817 -0.1530
 3887SOL    HW123540   0.869   2.175   2.683  0.9821 -1.9703 -1.9712
 3887SOL    HW223541   0.927   2.293   2.608 -1.1578  0.1365 -0.3516
 3888SOL     OW23542   1.811   0.206   1.502  0.2023  0.4022 -0.4756
 3888SOL    HW123543   1.815   0.278   1.565  1.8509 -1.0059  0.9881
 3888SOL    HW223544   1.895   0.210   1.456  0.2194 -0.4821 -0.5176
 3889SOL     OW23545   0.677   3.896   3.046 -0.4372 -0.1403 -0.0313
 3889SOL    HW123546   0.647   3.823   3.101 -0.7095  1.0874  1.4450
 3889SOL    HW223547   0.633   3.882   2.962 -1.6231 -0.8698  0.7042
 3890SOL     OW23548   3.129   0.574  20.687 -0.0154  0.1277  0.6259
 3890SOL    HW123549   3.055   0.630  20.665  0.1473  0.4812  0.9792
 3890SOL    HW223550   3.200   0.635  20.708 -0.1943 -0.2027  2.1996
 3891SOL     OW23551   2.539   3.852  14.024 -0.7210 -0.2281  0.4378
 3891SOL    HW123552   2.605   3.922  14.019 -0.7852 -0.2679 -1.0484
 3891SOL    HW223553   2.534   3.830  14.117  0.2936  0.8042  0.7379
 3892SOL     OW23554   3.149   2.081  19.007 -0.3467 -0.0413  0.0884
 3892SOL    HW123555   3.132   1.996  19.048 -1.0465 -0.1368 -0.3868
 3892SOL    HW223556   3.062   2.114  18.984 -0.1697  1.4723  1.5979
 3893SOL     OW23557   1.526   3.167  18.234 -0.8522  0.8806  0.3328
 3893SOL    HW123558   1.521   3.094  18.296  0.4192  0.4802 -0.0272
 3893SOL    HW223559   1.465   3.232  18.268 -0.2413  0.6148  1.9611
 3894SOL     OW23560   4.385   2.544   8.366 -0.2233 -0.4499 -0.3039
 3894SOL    HW123561   4.327   2.532   8.441 -0.7431 -0.4977 -0.7112
 3894SOL    HW223562   4.373   2.465   8.314 -0.0056 -0.3285 -0.5382
 3895SOL     OW23563   1.269   3.418  18.971  0.2955  0.2121  0.5216
 3895SOL    HW123564   1.280   3.325  18.952 -0.1758  0.3410 -0.4133
 3895SOL    HW223565   1.181   3.438  18.938  0.5081  1.0486  0.4774
 3896SOL     OW23566   0.738   3.412   5.179  0.2906 -0.1215 -0.7185
 3896SOL    HW123567   0.682   3.394   5.103 -0.6808  0.7570 -0.2117
 3896SOL    HW223568   0.677   3.422   5.252  1.1144  0.9535 -0.1866
 3897SOL     OW23569   3.858   1.330  12.704 -0.5160  0.4644 -0.1040
 3897SOL    HW123570   3.940   1.369  12.674 -0.5284  0.6352  0.0815
 3897SOL    HW223571   3.878   1.238  12.718 -0.1139  0.7037  0.8549
 3898SOL     OW23572   3.015   0.111  17.189  0.5503 -0.2823 -0.3391
 3898SOL    HW123573   3.078   0.039  17.194 -0.1040 -0.9430 -1.6054
 3898SOL    HW223574   3.035   0.153  17.105 -1.3523 -1.1014 -1.1972
 3899SOL     OW23575   4.252   0.471   2.887 -0.3847  0.7892 -0.2615
 3899SOL    HW123576   4.164   0.501   2.909 -0.4719  1.5365 -1.5956
 3899SOL    HW223577   4.282   0.423   2.964 -1.7122  1.0933  0.4332
 3900SOL     OW23578   0.935   2.667   4.954  0.3409  0.2821  0.0341
 3900SOL    HW123579   0.993   2.629   5.020  0.1330  0.2267  0.1820
 3900SOL    HW223580   0.987   2.663   4.873  0.5575  0.2624  0.1723
 3901SOL     OW23581   4.376   0.717  19.889 -0.0414  0.1462 -0.2912
 3901SOL    HW123582   4.352   0.687  19.976 -1.0727 -0.2208 -0.7057
 3901SOL    HW223583   4.350   0.646  19.831 -0.3651  0.8629 -1.0192
 3902SOL     OW23584   2.044   2.373  19.166  0.1953 -0.4230 -0.0987
 3902SOL    HW123585   2.029   2.322  19.086 -0.2903 -1.6474  0.7830
 3902SOL    HW223586   2.138   2.368  19.181  0.0897 -1.3875  0.2181
 3903SOL     OW23587   0.807   4.030   7.119 -0.8171 -0.1532  0.1695
 3903SOL    HW123588   0.884   4.015   7.064 -0.8596 -2.0576  0.6156
 3903SOL    HW223589   0.842   4.074   7.197 -0.2236 -0.7539  0.2470
 3904SOL     OW23590   3.281   4.576  17.838  0.1586 -0.1787 -0.5840
 3904SOL    HW123591   3.309   4.613  17.755 -1.9345  0.4744 -1.0028
 3904SOL    HW223592   3.302   4.483  17.831  1.0939  0.0859 -1.3569
 3905SOL     OW23593   2.749   2.012  18.425  0.9036 -0.2090  0.2275
 3905SOL    HW123594   2.778   2.049  18.342  0.1890  1.6939  0.8386
 3905SOL    HW223595   2.668   2.058  18.446  1.0461 -0.7210  1.9464
 3906SOL     OW23596   1.862   2.382   5.795 -0.0839 -0.5042  0.5379
 3906SOL    HW123597   1.771   2.355   5.809 -1.0730  1.9360 -1.1912
 3906SOL    HW223598   1.862   2.476   5.811  2.1527 -0.5385  0.6743
 3907SOL     OW23599   0.820   2.105  20.570 -0.4126  0.1972  0.5554
 3907SOL    HW123600   0.739   2.068  20.603 -0.6131 -1.4413 -1.7868
 3907SOL    HW223601   0.883   2.033  20.573 -0.4980 -0.0144 -2.8627
 3908SOL     OW23602   3.100   1.374   7.273  0.4132 -0.8423 -0.1136
 3908SOL    HW123603   3.101   1.450   7.331  1.1649  0.0109 -1.2576
 3908SOL    HW223604   3.061   1.304   7.326 -4.1342  1.4387 -0.4928
 3909SOL     OW23605   0.012   1.978   0.510  0.4448  0.3201  1.0100
 3909SOL    HW123606   0.049   2.062   0.483 -1.7748  1.4150  1.3945
 3909SOL    HW223607   0.041   1.967   0.601 -0.5058  1.3530  1.4330
 3910SOL     OW23608   2.369   2.896  17.763  0.1070 -0.8918  0.0521
 3910SOL    HW123609   2.377   2.857  17.850 -1.8534  0.7236  0.9710
 3910SOL    HW223610   2.309   2.970  17.776  1.8075  0.8549 -2.1782
 3911SOL     OW23611   3.799   4.574   5.396 -0.1996  0.4458 -0.0611
 3911SOL    HW123612   3.818   4.482   5.411  2.3208  1.1149  0.8918
 3911SOL    HW223613   3.758   4.603   5.478 -0.7183  0.2415 -0.2493
 3912SOL     OW23614   4.035   0.491  16.609 -0.2035  0.3360  0.3645
 3912SOL    HW123615   4.045   0.397  16.623 -0.1471  0.2386 -0.3233
 3912SOL    HW223616   4.123   0.527  16.624  0.1968  0.0422 -1.2361
 3913SOL     OW23617   2.507   3.493  16.740  0.1358  0.6621  0.2890
 3913SOL    HW123618   2.592   3.488  16.695 -0.5528 -0.7731 -0.8385
 3913SOL    HW223619   2.515   3.431  16.812  0.1507  0.7447  0.3585
 3914SOL     OW23620   2.557   1.011  20.586 -0.5791  0.0485 -0.0724
 3914SOL    HW123621   2.621   1.062  20.636  2.2420 -0.5732 -3.0401
 3914SOL    HW223622   2.556   0.925  20.628  1.8075 -0.4805 -1.0733
 3915SOL     OW23623   1.096   4.654  20.802 -0.1954 -0.0580  1.0610
 3915SOL    HW123624   1.036   4.720  20.770  0.3091 -0.0183  0.2073
 3915SOL    HW223625   1.094   4.585  20.737  1.2742  0.2944  0.6248
 3916SOL     OW23626   1.764   0.083   5.519  0.6231  0.2572  0.3826
 3916SOL    HW123627   1.674   0.087   5.489  0.7161 -0.6227 -0.0191
 3916SOL    HW223628   1.813   0.051   5.443  1.4184  1.6854  0.2848
 3917SOL     OW23629   0.924   2.899   5.449 -0.6809 -0.3678  0.3693
 3917SOL    HW123630   0.871   2.953   5.391 -0.1912 -1.0958 -0.7346
 3917SOL    HW223631   0.988   2.959   5.487  0.7685 -0.4885 -1.9422
 3918SOL     OW23632   3.117   1.735  17.456 -0.3050 -0.0521  0.0166
 3918SOL    HW123633   3.067   1.678  17.514  0.7801  0.2112  1.1917
 3918SOL    HW223634   3.182   1.677  17.416 -0.7082 -0.1222 -0.5405
 3919SOL     OW23635   0.994   3.893   3.813 -0.4390 -0.5133 -0.2411
 3919SOL    HW123636   1.039   3.967   3.854  0.4425 -0.5229 -1.1813
 3919SOL    HW223637   0.912   3.929   3.781 -0.8108 -0.3461  0.9101
 3920SOL     OW23638   0.910   3.772   9.193 -0.0553  0.3886 -0.8203
 3920SOL    HW123639   0.834   3.829   9.208 -0.5875 -0.0172 -2.0239
 3920SOL    HW223640   0.885   3.688   9.232 -0.5430  0.0074 -1.9736
 3921SOL     OW23641   4.614   3.391  16.184 -0.1890 -0.4122  0.2697
 3921SOL    HW123642   4.700   3.363  16.216  0.2002 -1.4365 -1.6865
 3921SOL    HW223643   4.615   3.368  16.091 -1.6237  1.8725 -0.2867
 3922SOL     OW23644   4.412   0.568  21.123  0.6300 -0.2564 -0.5204
 3922SOL    HW123645   4.495   0.558  21.169  0.7691 -0.9102 -0.9197
 3922SOL    HW223646   4.387   0.479  21.097 -1.2810 -0.3375  1.5069
 3923SOL     OW23647   0.500   2.676  12.750 -0.6082 -0.1027  0.0205
 3923SOL    HW123648   0.433   2.610  12.734  0.3209 -0.9737 -0.2871
 3923SOL    HW223649   0.452   2.759  12.754 -1.6992 -0.7295 -0.1720
 3924SOL     OW23650   2.275   0.316  12.656 -0.1990 -0.3958 -0.4505
 3924SOL    HW123651   2.340   0.249  12.634  0.4020  1.0993 -3.2197
 3924SOL    HW223652   2.191   0.278  12.631  0.2166  0.1785 -2.7506
 3925SOL     OW23653   2.117   4.439  19.232 -0.1508  0.7285  0.2139
 3925SOL    HW123654   2.210   4.418  19.230  0.3006  2.6391  1.9706
 3925SOL    HW223655   2.074   4.356  19.254  1.1246 -0.1521 -0.6424
 3926SOL     OW23656   0.973   3.308   0.651 -0.1269 -0.2111 -0.6641
 3926SOL    HW123657   0.906   3.317   0.583 -1.2589  3.9815  1.0638
 3926SOL    HW223658   1.056   3.320   0.604 -0.7584 -0.7566 -1.9208
 3927SOL     OW23659   0.310   1.764   3.887  0.0698 -0.1234 -0.3091
 3927SOL    HW123660   0.363   1.842   3.906  0.6565 -0.7734  0.7255
 3927SOL    HW223661   0.251   1.756   3.961 -1.1007  0.2831 -1.2068
 3928SOL     OW23662   3.979   2.773   0.034 -0.6037 -0.2375 -0.1411
 3928SOL    HW123663   3.900   2.720   0.026 -0.6559  0.0560 -1.5544
 3928SOL    HW223664   4.045   2.727  21.179 -0.5791  0.9207 -1.1624
 3929SOL     OW23665   2.837   4.439   2.113  0.0908 -0.1720 -0.0139
 3929SOL    HW123666   2.896   4.366   2.131 -0.4204 -0.6039 -0.0878
 3929SOL    HW223667   2.798   4.418   2.028  1.9261  1.4880 -1.2566
 3930SOL     OW23668   0.107   0.324  11.113  0.3204 -0.0558 -0.1274
 3930SOL    HW123669   0.099   0.389  11.183 -1.1173  0.2004 -0.5431
 3930SOL    HW223670   0.044   0.352  11.046  0.5239 -1.2283 -0.8119
 3931SOL     OW23671   2.326   0.532  11.461 -0.0792 -0.0056 -0.1288
 3931SOL    HW123672   2.247   0.480  11.471 -0.2927  0.3495  0.0206
 3931SOL    HW223673   2.295   0.620  11.437  0.3695 -0.4817 -2.4681
 3932SOL     OW23674   2.719   1.708   2.369 -0.4856 -0.1435 -0.0930
 3932SOL    HW123675   2.744   1.616   2.368  0.2719  0.0423  0.5662
 3932SOL    HW223676   2.767   1.744   2.444  0.2301  1.0582 -1.1354
 3933SOL     OW23677   4.770   3.872  19.504 -0.8566 -0.2363 -0.2941
 3933SOL    HW123678   4.738   3.908  19.586 -0.2506 -0.8906  0.2257
 3933SOL    HW223679   0.041   3.945  19.462 -0.9638  0.0254  0.0467
 3934SOL     OW23680   3.557   1.875  20.406 -0.3621  0.7254 -0.3201
 3934SOL    HW123681   3.645   1.851  20.378 -0.6203  0.8321 -1.2110
 3934SOL    HW223682   3.520   1.794  20.441  0.2875  0.8078  0.5631
 3935SOL     OW23683   1.103   4.507   8.108 -0.5801 -0.2120 -0.1394
 3935SOL    HW123684   1.140   4.490   8.021  0.7812 -1.5809  0.7163
 3935SOL    HW223685   1.166   4.469   8.169 -2.5067 -0.9469  1.3762
 3936SOL     OW23686   4.541   0.553   2.787  0.1026 -1.0484 -0.2003
 3936SOL    HW123687   4.464   0.532   2.840 -0.7323  0.4821 -0.8088
 3936SOL    HW223688   4.607   0.580   2.851 -0.3022 -1.0382  0.2127
 3937SOL     OW23689   1.316   0.031   3.831 -0.3845  0.1003  0.2829
 3937SOL    HW123690   1.322   0.003   3.923 -0.5625 -1.8758 -0.3233
 3937SOL    HW223691   1.284   4.730   3.784  2.1794  0.3614 -1.8489
 3938SOL     OW23692   4.523   0.006  20.635 -0.2764  0.1521 -0.4741
 3938SOL    HW123693   4.531   0.009  20.730 -0.2128  1.6417 -0.5244
 3938SOL    HW223694   4.580   4.710  20.608 -0.5094 -0.4542  0.6337
 3939SOL     OW23695   2.456   2.472   2.771 -0.2121 -0.0292 -0.0558
 3939SOL    HW123696   2.443   2.556   2.727  1.0796  1.3994  2.3220
 3939SOL    HW223697   2.548   2.472   2.797 -0.6250 -1.4885  1.3879
 3940SOL     OW23698   3.616   4.528  16.975 -0.2625  0.3992  0.0528
 3940SOL    HW123699   3.525   4.499  16.974  0.3688 -1.6045  3.8091
 3940SOL    HW223700   3.664   4.457  16.932 -0.0451  0.1591  0.6999
 3941SOL     OW23701   4.175   1.199  19.802 -0.3828 -0.5485  0.0230
 3941SOL    HW123702   4.244   1.158  19.750  1.0314 -0.3998  1.8003
 3941SOL    HW223703   4.110   1.226  19.737  0.6111 -1.8482 -1.5342
 3942SOL     OW23704   2.806   3.649  19.167  0.3749 -0.9080 -0.4168
 3942SOL    HW123705   2.857   3.724  19.136  0.0305 -0.2978  0.4921
 3942SOL    HW223706   2.716   3.669  19.141  0.1120 -0.4709  0.8370
 3943SOL     OW23707   0.936   0.714   2.428  0.5551 -0.2005  0.0513
 3943SOL    HW123708   1.031   0.701   2.436  0.6628 -0.8702 -2.5932
 3943SOL    HW223709   0.899   0.664   2.501  2.0948 -1.5009 -0.0636
 3944SOL     OW23710   2.465   1.888   4.718 -0.6817 -0.4145  0.1996
 3944SOL    HW123711   2.384   1.856   4.757  0.2291 -1.5161  1.1571
 3944SOL    HW223712   2.478   1.974   4.758 -1.7546  0.0826 -0.4928
 3945SOL     OW23713   4.471   4.009  10.711 -0.7958  0.2897 -0.3580
 3945SOL    HW123714   4.404   4.057  10.761 -1.2001  1.5639 -2.1376
 3945SOL    HW223715   4.545   4.069  10.707  0.3961 -1.0470  1.4260
 3946SOL     OW23716   1.153   4.704  16.089 -0.4359 -0.5614 -0.3993
 3946SOL    HW123717   1.244   4.715  16.061  0.0994 -0.9426  1.2156
 3946SOL    HW223718   1.108   0.003  16.050  1.0645  1.0582  0.9459
 3947SOL     OW23719   0.045   0.397  19.559 -0.1523 -0.0286 -0.2704
 3947SOL    HW123720   0.117   0.412  19.498  0.4274  0.6746  0.5824
 3947SOL    HW223721   0.063   0.311  19.597  0.1631  0.0821 -0.1656
 3948SOL     OW23722   4.591   0.776  11.544  0.0276 -0.3491  0.2483
 3948SOL    HW123723   4.616   0.868  11.536 -0.2838 -0.3873 -1.2967
 3948SOL    HW223724   4.496   0.778  11.552  0.0076 -0.5406  0.0619
 3949SOL     OW23725   2.128   1.983  14.181 -0.1806 -0.2050 -0.3685
 3949SOL    HW123726   2.123   2.078  14.174 -1.8735 -0.3192 -0.7031
 3949SOL    HW223727   2.198   1.958  14.121  1.1734  0.9424  0.7210
 3950SOL     OW23728   2.086   4.128   5.157  0.1187  0.3199  0.2996
 3950SOL    HW123729   2.128   4.202   5.114 -1.4592  0.3988 -1.0754
 3950SOL    HW223730   2.047   4.165   5.236  0.5189  0.6881  0.3256
 3951SOL     OW23731   1.881   4.718  17.186 -0.3936  0.2493 -0.0890
 3951SOL    HW123732   1.901   4.626  17.205 -0.4938  0.4628  1.0336
 3951SOL    HW223733   1.821   4.714  17.111  0.5393 -0.5522 -0.8037
 3952SOL     OW23734   0.420   1.230   7.526  0.0270 -0.4300  0.2142
 3952SOL    HW123735   0.390   1.183   7.448 -1.3831  1.4194 -0.3445
 3952SOL    HW223736   0.348   1.220   7.589  0.7103 -1.0039  0.9068
 3953SOL     OW23737   2.032   1.653  13.477  0.1998 -0.5348  0.3183
 3953SOL    HW123738   1.994   1.661  13.390  0.1092 -0.0040  0.4066
 3953SOL    HW223739   1.996   1.571  13.512  0.9187 -1.1917 -0.4792
 3954SOL     OW23740   3.993   3.940   5.760  0.0197  0.5684  0.1188
 3954SOL    HW123741   3.915   3.996   5.770  0.3325  0.8096  1.1138
 3954SOL    HW223742   4.058   3.997   5.718 -0.0710  0.5877  0.0023
 3955SOL     OW23743   3.219   4.420  10.023  0.4616 -0.8740 -0.0363
 3955SOL    HW123744   3.126   4.403  10.008  0.5464 -1.9394  0.6117
 3955SOL    HW223745   3.257   4.421   9.935 -0.3378  0.6162 -0.3623
 3956SOL     OW23746   3.327   3.078  17.765  0.3238 -0.1552  0.0915
 3956SOL    HW123747   3.234   3.094  17.752  0.8744  1.4191 -1.8365
 3956SOL    HW223748   3.340   3.082  17.860 -1.0861  2.1260  0.1621
 3957SOL     OW23749   0.259   2.181  13.284  0.6885 -0.5181  0.4377
 3957SOL    HW123750   0.323   2.229  13.336 -2.4189  2.8114  1.2873
 3957SOL    HW223751   0.304   2.162  13.202  2.1962  3.3720  0.3388
 3958SOL     OW23752   1.485   4.339  20.137  0.5842 -0.3283  0.0170
 3958SOL    HW123753   1.512   4.430  20.122  2.3821 -1.1341 -1.5556
 3958SOL    HW223754   1.412   4.326  20.077 -0.7766  0.6084  1.4587
 3959SOL     OW23755   3.668   1.547   0.272  0.2713 -0.0624  0.0501
 3959SOL    HW123756   3.617   1.580   0.347  0.6525 -1.2415  0.8239
 3959SOL    HW223757   3.718   1.623   0.242 -2.2376  1.1968 -0.9531
 3960SOL     OW23758   3.589   0.771   6.972 -0.4113  0.1701  0.2817
 3960SOL    HW123759   3.511   0.825   6.960  0.3260  0.9107 -1.2910
 3960SOL    HW223760   3.580   0.702   6.906 -0.5570 -0.6864  1.2043
 3961SOL     OW23761   4.660   2.783  14.278  0.4136  0.5083 -0.3901
 3961SOL    HW123762   4.681   2.829  14.197  0.1400  3.1635  1.0455
 3961SOL    HW223763   4.604   2.710  14.250  0.3019  1.4345 -2.5876
 3962SOL     OW23764   3.591   1.189  12.916  0.0375  0.5160  0.0606
 3962SOL    HW123765   3.613   1.099  12.893  0.2675  0.4832  0.4083
 3962SOL    HW223766   3.517   1.181  12.976 -1.1804  0.6441 -1.4209
 3963SOL     OW23767   0.835   1.442  17.085  0.1693  0.1569 -0.2431
 3963SOL    HW123768   0.837   1.475  17.174  0.3139 -0.2899 -0.0804
 3963SOL    HW223769   0.749   1.467  17.051 -0.5588 -1.2088  0.6040
 3964SOL     OW23770   2.257   1.878   1.713  0.1312 -0.8115 -0.1640
 3964SOL    HW123771   2.302   1.952   1.755 -0.9972 -0.8861  1.1439
 3964SOL    HW223772   2.312   1.802   1.732  1.6400 -0.1966 -2.0591
 3965SOL     OW23773   1.990   3.401  16.818  0.2145 -0.1460 -0.0722
 3965SOL    HW123774   2.059   3.336  16.828  0.8638  0.3329 -1.4657
 3965SOL    HW223775   1.970   3.401  16.725 -1.0349  0.3677  0.1890
 3966SOL     OW23776   0.577   1.955  18.558  0.3584  0.0234 -0.6328
 3966SOL    HW123777   0.594   2.017  18.629  0.2779  0.3466 -0.8937
 3966SOL    HW223778   0.624   1.875  18.584  1.9081  0.7650 -1.1194
 3967SOL     OW23779   2.874   2.699   3.897  0.5081  0.4661  0.1495
 3967SOL    HW123780   2.960   2.739   3.909  0.7340  0.2253 -0.6815
 3967SOL    HW223781   2.857   2.653   3.979  0.8581  1.1101  0.5824
 3968SOL     OW23782   2.445   3.781   0.702 -0.1052 -0.6081  0.9686
 3968SOL    HW123783   2.373   3.836   0.732 -0.3199  0.8632 -2.2352
 3968SOL    HW223784   2.524   3.831   0.723 -0.1132 -1.1218  2.2290
 3969SOL     OW23785   1.254   0.194  16.217  0.2454  0.0809  0.3401
 3969SOL    HW123786   1.199   0.139  16.161  1.7958 -0.6416 -0.4813
 3969SOL    HW223787   1.297   0.132  16.276 -0.9088  0.7787  1.9096
 3970SOL     OW23788   3.427   1.248  20.634 -0.0943 -0.0904 -0.7409
 3970SOL    HW123789   3.348   1.202  20.604 -0.1284 -1.1890  1.0198
 3970SOL    HW223790   3.393   1.325  20.680 -0.1519 -0.6388  0.1419
 3971SOL     OW23791   0.605   4.438  14.037  0.3347 -0.6952  0.0654
 3971SOL    HW123792   0.607   4.444  13.942  2.2497 -0.2362  0.1338
 3971SOL    HW223793   0.673   4.374  14.058  0.3932 -0.2722  1.1657
 3972SOL     OW23794   2.627   2.787   1.839  0.1075  0.5064  0.1918
 3972SOL    HW123795   2.590   2.707   1.802 -2.2681  1.4174  0.6370
 3972SOL    HW223796   2.627   2.771   1.933  0.6165  0.6061  0.2074
 3973SOL     OW23797   2.286   1.698   8.487  0.0848 -0.0557  0.1110
 3973SOL    HW123798   2.253   1.695   8.576 -1.3749  0.0772 -0.4251
 3973SOL    HW223799   2.352   1.767   8.488  0.8406 -0.8000  1.3471
 3974SOL     OW23800   0.902   0.651   6.977 -0.1121  0.2050  0.4779
 3974SOL    HW123801   0.834   0.692   7.030  0.2553 -0.8508  1.7576
 3974SOL    HW223802   0.855   0.586   6.925 -0.4140  0.9863 -0.2323
 3975SOL     OW23803   3.982   1.603   7.066 -0.5675  0.0931 -0.4548
 3975SOL    HW123804   3.930   1.550   7.006  0.0156 -0.4697 -0.4721
 3975SOL    HW223805   4.045   1.648   7.010 -1.7974  1.6720 -0.5582
 3976SOL     OW23806   0.233   3.096   1.535  0.6808 -0.3391  0.1872
 3976SOL    HW123807   0.227   3.190   1.552  1.3359 -0.6942  2.3897
 3976SOL    HW223808   0.181   3.056   1.605 -0.6788 -1.5353 -1.5165
 3977SOL     OW23809   4.330   1.270  16.732  0.3707  0.2182  0.0639
 3977SOL    HW123810   4.323   1.218  16.812 -0.7129 -1.3780 -1.0603
 3977SOL    HW223811   4.341   1.360  16.763 -1.1289 -0.2540  2.0208
 3978SOL     OW23812   2.310   2.857  15.818  0.1227  0.2443  0.1962
 3978SOL    HW123813   2.255   2.779  15.813 -0.6559  0.8789 -1.0814
 3978SOL    HW223814   2.392   2.830  15.774  0.1044 -0.0710  0.3549
 3979SOL     OW23815   0.734   1.398   2.900  0.5080  0.1017 -0.2237
 3979SOL    HW123816   0.786   1.399   2.820 -0.5578  2.2106 -0.8944
 3979SOL    HW223817   0.653   1.444   2.877 -0.4222 -0.6118  1.6287
 3980SOL     OW23818   3.021   1.880   2.120  0.1794  0.2488  0.1034
 3980SOL    HW123819   3.021   1.959   2.174 -0.4013  0.4458 -0.1879
 3980SOL    HW223820   3.077   1.902   2.046  2.0697 -0.4776  1.2856
 3981SOL     OW23821   0.211   3.785  18.094  0.6015 -0.0163  0.5315
 3981SOL    HW123822   0.198   3.691  18.084  2.1731 -0.4790  2.8202
 3981SOL    HW223823   0.127   3.824  18.067 -1.4585 -2.3024  3.5517
 3982SOL     OW23824   0.164   0.017   1.626 -0.4278  0.4080  0.4071
 3982SOL    HW123825   0.086   0.039   1.676 -1.4344 -1.2053 -0.4403
 3982SOL    HW223826   0.156   0.067   1.545 -0.4850  0.3992  0.4073
 3983SOL     OW23827   0.113   2.873  14.391 -0.0649 -0.1466  0.5011
 3983SOL    HW123828   0.158   2.789  14.399 -1.0475 -0.6638  0.5361
 3983SOL    HW223829   0.029   2.852  14.349 -0.3245  0.8036  0.5486
 3984SOL     OW23830   1.465   1.339  20.190  0.4010 -0.0889 -0.1761
 3984SOL    HW123831   1.504   1.363  20.105 -0.6208 -0.2277 -0.6798
 3984SOL    HW223832   1.374   1.319  20.169  0.0446  0.3042  1.0301
 3985SOL     OW23833   2.146   3.907   5.619  0.1551  0.4612  0.1094
 3985SOL    HW123834   2.104   3.948   5.695 -0.7654 -1.2630  0.5320
 3985SOL    HW223835   2.211   3.970   5.591  0.4087  1.1684  2.2834
 3986SOL     OW23836   1.396   3.178   9.252 -0.1351  0.0297  0.0450
 3986SOL    HW123837   1.455   3.195   9.325 -0.5520 -1.6728  0.7712
 3986SOL    HW223838   1.327   3.244   9.262 -0.6385 -0.7245  1.6813
 3987SOL     OW23839   2.708   1.219  19.516  0.2758 -0.3795 -0.0066
 3987SOL    HW123840   2.719   1.172  19.599  0.9028  2.1216  1.3335
 3987SOL    HW223841   2.636   1.280  19.533  1.6328  1.4108 -0.7482
 3988SOL     OW23842   3.157   2.471  19.669 -0.1442  0.2412  0.4074
 3988SOL    HW123843   3.173   2.430  19.584 -0.6128 -2.2838  1.5449
 3988SOL    HW223844   3.159   2.565  19.651  1.6978 -0.2733 -2.0469
 3989SOL     OW23845   3.084   3.864  17.672  0.4821  0.5041  0.0523
 3989SOL    HW123846   3.040   3.914  17.603  1.4332  0.5443 -0.5250
 3989SOL    HW223847   3.176   3.861  17.644  1.3436  2.7087  2.6134
 3990SOL     OW23848   3.112   3.484  17.501  0.1967  0.5007  0.1140
 3990SOL    HW123849   3.160   3.549  17.450 -0.2696  0.1500 -0.7648
 3990SOL    HW223850   3.154   3.401  17.481  1.0526  0.5792  1.5548
 3991SOL     OW23851   2.693   3.529  15.819  0.2002  0.2182  0.3845
 3991SOL    HW123852   2.619   3.589  15.811 -0.5535 -0.6199  1.0262
 3991SOL    HW223853   2.678   3.484  15.902  0.5167 -1.1751 -0.3058
 3992SOL     OW23854   1.303   2.983  15.638 -0.4772  0.5322 -0.1862
 3992SOL    HW123855   1.353   2.926  15.696  0.6611  1.9150  0.1899
 3992SOL    HW223856   1.223   2.933  15.619  0.5899 -1.2501 -0.0041
 3993SOL     OW23857   4.554   3.346   1.746  0.2885  0.0640  0.4857
 3993SOL    HW123858   4.607   3.357   1.667 -0.2285 -1.7830 -0.1258
 3993SOL    HW223859   4.525   3.434   1.769 -0.7459  0.4119 -2.2028
 3994SOL     OW23860   3.739   2.046   4.758  0.0121 -0.3582  0.2134
 3994SOL    HW123861   3.762   1.953   4.760  1.5057 -0.0438 -2.6695
 3994SOL    HW223862   3.646   2.047   4.738  0.1689 -1.1805 -0.5627
 3995SOL     OW23863   0.405   1.642  18.604 -0.0859 -0.4837 -0.2846
 3995SOL    HW123864   0.461   1.589  18.661  3.5758  0.9633 -2.5540
 3995SOL    HW223865   0.394   1.725  18.651  0.8691 -0.2266 -0.5133
 3996SOL     OW23866   4.530   0.201   1.015  0.0198  0.2460 -0.1472
 3996SOL    HW123867   4.591   0.227   0.946  0.7787 -0.8509  0.1044
 3996SOL    HW223868   4.462   0.151   0.970 -0.2003  0.6902 -0.3003
 3997SOL     OW23869   1.372   2.323   5.668  0.3702  0.2061 -0.9188
 3997SOL    HW123870   1.309   2.378   5.621  1.2289  2.0470  0.0675
 3997SOL    HW223871   1.325   2.241   5.683 -1.8713  1.6172 -0.0860
 3998SOL     OW23872   2.222   4.333  17.583 -0.1387 -0.2354  0.1496
 3998SOL    HW123873   2.306   4.377  17.597 -0.7353  1.1093 -0.4808
 3998SOL    HW223874   2.206   4.340  17.489 -1.8343  1.1431  0.5298
 3999SOL     OW23875   1.810   2.993  12.200  0.7757  0.0590 -0.3736
 3999SOL    HW123876   1.789   2.987  12.294 -1.5235 -1.2323 -0.9499
 3999SOL    HW223877   1.829   2.903  12.174 -1.1651  0.0320 -1.7257
 4000SOL     OW23878   4.189   4.329   0.707 -0.3885  0.0930 -0.4261
 4000SOL    HW123879   4.246   4.373   0.644  1.0441 -2.2165 -0.7825
 4000SOL    HW223880   4.123   4.284   0.654 -0.9571  0.6052 -0.1478
 4001SOL     OW23881   2.348   1.515  13.490 -0.5794  0.3304 -0.5392
 4001SOL    HW123882   2.287   1.500  13.417 -0.8276  1.1807 -0.5127
 4001SOL    HW223883   2.393   1.596  13.466 -0.0784  0.1650 -0.1404
 4002SOL     OW23884   0.699   0.190  14.986  0.6688  0.2866  0.1808
 4002SOL    HW123885   0.757   0.115  14.974 -0.9275 -0.7974 -0.8146
 4002SOL    HW223886   0.714   0.245  14.910  0.5219  0.0883  0.0077
 4003SOL     OW23887   4.753   2.570   5.489  0.8939 -0.7250  0.2075
 4003SOL    HW123888   4.762   2.553   5.583  1.3714  0.2638  0.3423
 4003SOL    HW223889   0.050   2.521   5.449 -0.2097 -2.3782  0.2075
 4004SOL     OW23890   1.301   4.244   2.543 -0.2861  0.1704  0.3754
 4004SOL    HW123891   1.349   4.257   2.625 -2.6121  1.1360  1.5746
 4004SOL    HW223892   1.323   4.320   2.489 -1.0627  0.9782  1.2054
 4005SOL     OW23893   1.457   2.264   5.399 -0.4422  0.6322  0.2045
 4005SOL    HW123894   1.458   2.281   5.493 -0.0503  1.2177  0.0982
 4005SOL    HW223895   1.547   2.235   5.379 -0.6482  0.0715  0.0924
 4006SOL     OW23896   1.228   0.535   6.102  0.1026  0.7203 -0.0035
 4006SOL    HW123897   1.187   0.590   6.169 -0.5093 -0.4791  0.5930
 4006SOL    HW223898   1.302   0.493   6.146  0.6433  1.1535 -0.4939
 4007SOL     OW23899   0.043   2.038   2.228 -0.6054 -0.0363 -0.1421
 4007SOL    HW123900   0.085   2.121   2.252 -2.4796  0.1212  2.5674
 4007SOL    HW223901   4.749   2.065   2.168 -1.6806  0.4089  1.3114
 4008SOL     OW23902   3.158   4.706   3.226  0.2550 -0.5941 -0.4981
 4008SOL    HW123903   3.137   4.646   3.154 -0.1412 -0.5404 -0.4273
 4008SOL    HW223904   3.203   0.003   3.183 -1.5560  0.2782 -0.9425
 4009SOL     OW23905   1.130   4.227  17.291  0.4475 -0.1010 -0.0693
 4009SOL    HW123906   1.172   4.147  17.322  2.5820  0.6216 -1.1167
 4009SOL    HW223907   1.115   4.213  17.198 -0.0884  0.3241 -0.0521
 4010SOL     OW23908   1.118   1.875  10.410  0.0432  0.4849 -0.2318
 4010SOL    HW123909   1.180   1.947  10.402 -0.0694  0.6523  0.4194
 4010SOL    HW223910   1.034   1.917  10.426 -0.0184  0.2034  0.1828
 4011SOL     OW23911   4.229   0.662  16.308 -0.3330 -0.1781  0.4341
 4011SOL    HW123912   4.276   0.593  16.355 -0.4960 -0.5894 -0.0043
 4011SOL    HW223913   4.151   0.677  16.361  0.8370  1.2645  1.7324
 4012SOL     OW23914   4.641   0.496   3.643  0.3643  0.0356  0.3718
 4012SOL    HW123915   4.563   0.513   3.696 -0.2747 -0.5794 -0.3647
 4012SOL    HW223916   4.660   0.579   3.600 -0.3060 -0.0059 -0.0055
 4013SOL     OW23917   2.978   0.235  17.441 -0.0164 -0.0556 -0.7394
 4013SOL    HW123918   3.016   0.193  17.364  3.4046  1.1787  0.2481
 4013SOL    HW223919   2.941   0.316  17.408 -0.0272 -0.3170 -1.3758
 4014SOL     OW23920   3.122   3.381  18.823 -0.4567  0.0257  0.1378
 4014SOL    HW123921   3.066   3.416  18.892 -1.0467 -2.4902  0.9287
 4014SOL    HW223922   3.208   3.372  18.864 -0.7573 -1.2629  0.5071
 4015SOL     OW23923   2.288   1.398  19.123 -0.2915  0.3253  0.0151
 4015SOL    HW123924   2.272   1.304  19.133  2.1156 -0.1693 -1.0166
 4015SOL    HW223925   2.290   1.431  19.213 -1.1887 -0.5832  0.3806
 4016SOL     OW23926   2.405   1.536   7.932 -0.1614  0.0585  0.4301
 4016SOL    HW123927   2.387   1.442   7.924  0.5536 -0.1127  0.8232
 4016SOL    HW223928   2.368   1.560   8.017 -2.3674  0.6071 -0.6914
 4017SOL     OW23929   0.920   0.135   3.013 -0.0079 -0.3055  0.5085
 4017SOL    HW123930   0.882   0.112   2.928  0.9046  0.8528 -0.2140
 4017SOL    HW223931   0.845   0.145   3.071 -0.6856 -0.2546 -0.3781
 4018SOL     OW23932   4.113   1.106  14.303 -0.0816  0.5853  0.1849
 4018SOL    HW123933   4.149   1.043  14.365 -0.1543  0.3594 -0.0006
 4018SOL    HW223934   4.018   1.088  14.303  0.3426 -1.6670 -2.5022
 4019SOL     OW23935   0.807   1.425  21.157  0.1413  0.4249  0.3531
 4019SOL    HW123936   0.735   1.385   0.010 -0.1879 -0.1560 -0.6033
 4019SOL    HW223937   0.815   1.512  21.195 -0.6761  0.2849  0.8701
 4020SOL     OW23938   4.289   0.244   5.042 -0.1541  0.2167 -0.0688
 4020SOL    HW123939   4.296   0.259   4.948 -0.6451 -0.7862 -0.2665
 4020SOL    HW223940   4.202   0.276   5.065  0.1696  0.9456  0.1349
 4021SOL     OW23941   2.938   4.631  18.061 -0.1796 -0.0744  0.0014
 4021SOL    HW123942   2.895   4.717  18.062 -1.0083 -0.4889 -0.4427
 4021SOL    HW223943   2.961   4.616  18.153 -1.1647  0.0636  0.2802
 4022SOL     OW23944   1.770   2.144   5.443  0.0905 -0.3507  0.1300
 4022SOL    HW123945   1.832   2.217   5.454 -1.7912  0.9476  2.1691
 4022SOL    HW223946   1.791   2.085   5.515 -0.3780 -0.3852  0.2353
 4023SOL     OW23947   4.453   3.346  13.282  0.2087 -0.2979 -0.3135
 4023SOL    HW123948   4.428   3.256  13.261 -1.5828  0.3586 -0.9971
 4023SOL    HW223949   4.423   3.397  13.207  1.9188  0.7606 -0.2808
 4024SOL     OW23950   0.229   0.973  18.281  0.4695 -0.0029  0.1206
 4024SOL    HW123951   0.266   1.058  18.306 -0.7477  1.2307 -2.2687
 4024SOL    HW223952   0.191   0.939  18.362 -1.7664  3.1048  0.3923
 4025SOL     OW23953   4.700   0.955  17.217  0.2241  0.0773  0.3510
 4025SOL    HW123954   4.641   0.971  17.291  0.4764  1.0885  0.3223
 4025SOL    HW223955   0.011   0.948  17.256  0.1915 -0.6435  0.2988
 4026SOL     OW23956   0.828   0.674   5.214  0.5910 -0.1207 -0.4841
 4026SOL    HW123957   0.872   0.662   5.298  1.5900  0.6124 -0.9009
 4026SOL    HW223958   0.744   0.716   5.236  0.8509  0.0649  0.1486
 4027SOL     OW23959   1.824   1.233  17.481 -0.0300 -0.0755  0.0612
 4027SOL    HW123960   1.871   1.283  17.415 -0.7096  1.2825  0.6193
 4027SOL    HW223961   1.764   1.177  17.431 -0.1665  0.5674 -0.4931
 4028SOL     OW23962   0.823   4.306   0.380  0.6221 -0.1065 -0.1575
 4028SOL    HW123963   0.779   4.389   0.400  0.2327 -0.7854  1.7764
 4028SOL    HW223964   0.814   4.297   0.285 -1.9669  0.5672  0.0221
 4029SOL     OW23965   3.101   1.034   5.131 -0.7263 -0.6112  0.3716
 4029SOL    HW123966   3.091   1.110   5.073 -1.3482 -1.1365 -0.1998
 4029SOL    HW223967   3.062   1.062   5.214  0.2548  0.1740  0.5677
 4030SOL     OW23968   0.457   0.550  15.960  0.6053 -0.0506  0.5944
 4030SOL    HW123969   0.502   0.575  15.879  1.0693  0.1422  0.9155
 4030SOL    HW223970   0.498   0.602  16.028 -0.3638  0.4013  0.8312
 4031SOL     OW23971   4.303   1.460  18.848  0.0395 -0.3175  0.1697
 4031SOL    HW123972   4.272   1.379  18.806  1.1184 -0.6611  0.0553
 4031SOL    HW223973   4.390   1.474  18.812  0.7521 -0.3095  1.9034
 4032SOL     OW23974   2.013   1.312   4.718 -0.2555  0.0555 -0.3421
 4032SOL    HW123975   2.081   1.309   4.651 -0.9242 -0.2753 -0.9928
 4032SOL    HW223976   1.945   1.252   4.688 -0.0174 -1.0046  1.1992
 4033SOL     OW23977   2.688   0.136  12.753 -0.1642 -0.0355  0.0323
 4033SOL    HW123978   2.722   0.208  12.700  0.6947 -0.7795 -0.4319
 4033SOL    HW223979   2.671   0.176  12.839  1.7755  0.3718  0.2350
 4034SOL     OW23980   0.193   4.389  19.518 -0.3934 -0.0219 -0.0666
 4034SOL    HW123981   0.128   4.319  19.514  0.6408 -0.8855 -1.6668
 4034SOL    HW223982   0.146   4.467  19.490 -1.1468 -0.3615  0.2487
 4035SOL     OW23983   0.587   3.829   2.414 -0.5473  0.2417  0.2671
 4035SOL    HW123984   0.600   3.771   2.489  1.2531  1.4844  0.9130
 4035SOL    HW223985   0.670   3.876   2.405 -2.6187  4.0071  0.8266
 4036SOL     OW23986   4.437   4.131   3.657  0.0523 -0.3914  0.1083
 4036SOL    HW123987   4.352   4.165   3.686  0.8344  1.7107 -0.0872
 4036SOL    HW223988   4.501   4.177   3.711  1.3414  1.3875 -2.9503
 4037SOL     OW23989   3.962   1.767   6.756  0.4258 -0.3566  0.0139
 4037SOL    HW123990   3.924   1.841   6.710  1.0832  0.9385  1.5496
 4037SOL    HW223991   4.055   1.787   6.762  0.4076 -0.7144  1.5233
 4038SOL     OW23992   3.144   4.254   0.040  0.2989 -0.1522  0.0862
 4038SOL    HW123993   3.111   4.170   0.007  1.5502 -0.0230 -1.4797
 4038SOL    HW223994   3.218   4.230   0.096 -0.8604 -0.2604  1.5833
 4039SOL     OW23995   4.703   0.306  18.628  0.6179  0.7747  0.2371
 4039SOL    HW123996   4.631   0.329  18.687 -0.1755  1.0174 -0.8347
 4039SOL    HW223997   0.006   0.331  18.676  0.1050 -2.2100  2.6462
 4040SOL     OW23998   1.100   1.235  16.016  0.0926  0.1373 -0.0173
 4040SOL    HW123999   1.047   1.296  15.965 -0.8997 -1.4529 -0.8709
 4040SOL    HW224000   1.171   1.209  15.957  0.2361  0.0622  0.1851
 4041SOL     OW24001   2.389   0.508   2.573  0.7192  0.3683 -0.1460
 4041SOL    HW124002   2.430   0.592   2.592 -0.1936  0.9309 -0.6315
 4041SOL    HW224003   2.444   0.469   2.505  0.4511  1.1157 -0.7919
 4042SOL     OW24004   4.284   4.121   6.926  0.0793 -0.2867 -0.1509
 4042SOL    HW124005   4.349   4.158   6.986 -0.3061  0.2601 -0.0754
 4042SOL    HW224006   4.271   4.189   6.860 -1.8419  0.3337  0.8901
 4043SOL     OW24007   0.301   1.044   2.904 -0.1100  0.2320  0.1204
 4043SOL    HW124008   0.262   1.131   2.905 -0.9398 -0.1404  0.1355
 4043SOL    HW224009   0.394   1.059   2.921 -0.0893  1.1967 -0.8621
 4044SOL     OW24010   1.645   1.514   6.094 -0.0124 -0.4577  0.3976
 4044SOL    HW124011   1.738   1.494   6.101  0.5152  1.6737 -0.4976
 4044SOL    HW224012   1.640   1.609   6.108 -2.0811 -0.6436  0.8839
 4045SOL     OW24013   4.469   3.247  20.421  0.4129 -0.1401  0.2473
 4045SOL    HW124014   4.411   3.208  20.356 -1.5452  0.5048  1.5903
 4045SOL    HW224015   4.418   3.246  20.502  1.3662  2.6198  0.8975
 4046SOL     OW24016   2.784   1.995   2.827  0.3578  0.2341  0.5529
 4046SOL    HW124017   2.826   2.004   2.742 -2.3744 -0.6446 -0.9040
 4046SOL    HW224018   2.769   1.901   2.838 -1.4123  0.5444  0.9395
 4047SOL     OW24019   3.720   1.509   3.425 -0.4892 -0.2294  0.0433
 4047SOL    HW124020   3.681   1.596   3.411 -0.3423 -0.6270 -2.8882
 4047SOL    HW224021   3.809   1.528   3.455  0.1321  0.6307 -2.3328
 4048SOL     OW24022   4.688   0.779  13.662  0.0181  0.6335 -0.1367
 4048SOL    HW124023   4.675   0.712  13.595  0.0308 -0.6580  1.1510
 4048SOL    HW224024   4.611   0.773  13.718  1.4997 -0.3756  1.7742
 4049SOL     OW24025   2.990   4.014  13.891  0.3109  0.1140  0.0760
 4049SOL    HW124026   2.932   3.942  13.866  1.9938 -0.2851 -2.6895
 4049SOL    HW224027   2.957   4.090  13.842 -0.6662  0.9327  1.9929
 4050SOL     OW24028   2.407   2.083  19.626 -0.0849  0.3802 -0.6002
 4050SOL    HW124029   2.344   2.074  19.698 -0.0480  0.6131 -0.5387
 4050SOL    HW224030   2.355   2.110  19.551 -0.2392 -0.6291 -0.8588
 4051SOL     OW24031   3.434   0.716   6.450  0.0173  0.1667  0.5060
 4051SOL    HW124032   3.516   0.757   6.478  0.7535 -1.0753  0.1749
 4051SOL    HW224033   3.431   0.732   6.356 -0.8631  1.5331  0.7736
 4052SOL     OW24034   0.608   0.375   5.001  0.2294 -0.0930 -0.6945
 4052SOL    HW124035   0.651   0.447   4.956  0.7656  0.4261  0.6561
 4052SOL    HW224036   0.536   0.350   4.943  0.5042  1.0338 -1.5123
 4053SOL     OW24037   0.490   4.290  12.410 -0.4963 -0.3574 -0.2258
 4053SOL    HW124038   0.468   4.371  12.457  1.7844  0.9448 -1.3908
 4053SOL    HW224039   0.484   4.222  12.477  1.2006  1.2961  1.6289
 4054SOL     OW24040   0.670   1.433  16.443 -0.3435 -0.0034 -0.2264
 4054SOL    HW124041   0.615   1.510  16.459 -1.6910 -1.3029  1.5087
 4054SOL    HW224042   0.638   1.367  16.505  1.6230 -1.5552 -0.8240
 4055SOL     OW24043   2.618   0.260   5.184  0.8875 -0.3891  0.2146
 4055SOL    HW124044   2.601   0.264   5.090  0.1324 -2.3388  0.2667
 4055SOL    HW224045   2.533   0.277   5.225  0.9683 -0.7485  0.5345
 4056SOL     OW24046   1.805   4.426  16.440 -0.1979 -0.2083  0.0083
 4056SOL    HW124047   1.897   4.452  16.428  0.4523 -1.8212  1.5034
 4056SOL    HW224048   1.771   4.488  16.504  0.0586 -0.0365 -0.0201
 4057SOL     OW24049   0.853   1.447  19.143  0.2567  0.6246  0.1454
 4057SOL    HW124050   0.816   1.410  19.224  1.3695  0.3385  0.5154
 4057SOL    HW224051   0.910   1.378  19.110  1.0697  1.3922 -0.0252
 4058SOL     OW24052   3.090   1.353  16.964  0.5213  0.0168  0.0918
 4058SOL    HW124053   3.030   1.342  16.890 -2.2007  0.0991  2.2566
 4058SOL    HW224054   3.059   1.290  17.029  1.7399  1.2754  1.8872
 4059SOL     OW24055   2.007   0.199  18.789 -0.3207 -0.2067  0.7081
 4059SOL    HW124056   2.030   0.110  18.762 -0.0677  0.9799 -2.9661
 4059SOL    HW224057   1.912   0.200  18.790 -0.3200 -1.1128  2.7638
 4060SOL     OW24058   3.525   0.984   0.417 -0.2681 -0.4882 -0.3913
 4060SOL    HW124059   3.580   0.983   0.496 -1.8889 -2.6339  0.6821
 4060SOL    HW224060   3.581   0.946   0.349  0.8526  0.6451 -0.1254
 4061SOL     OW24061   3.172   3.395   5.184 -0.1135  0.5897  1.0109
 4061SOL    HW124062   3.257   3.388   5.228 -0.4559  0.8456  1.7022
 4061SOL    HW224063   3.110   3.418   5.253 -0.4634  2.0358  0.2183
 4062SOL     OW24064   3.827   4.144   3.025  0.2184  0.8134  0.2733
 4062SOL    HW124065   3.886   4.207   3.066 -0.5368  1.7769 -0.1161
 4062SOL    HW224066   3.859   4.137   2.935  0.8962 -0.0890  0.5875
 4063SOL     OW24067   1.356   0.004  20.781  0.8015  0.2382  0.2283
 4063SOL    HW124068   1.283   4.724  20.809 -0.9520  0.6449 -3.4242
 4063SOL    HW224069   1.334   0.091  20.813 -0.3783  0.3872 -1.0003
 4064SOL     OW24070   1.303   0.865  19.599  0.0078 -0.1899 -0.3799
 4064SOL    HW124071   1.369   0.893  19.663  0.1180  2.0022 -1.4248
 4064SOL    HW224072   1.242   0.812  19.649  0.7284  0.5666  1.3147
 4065SOL     OW24073   3.083   0.886   3.145 -0.1116  0.3304  0.7175
 4065SOL    HW124074   2.995   0.909   3.115  0.0021 -0.8989 -0.5681
 4065SOL    HW224075   3.112   0.962   3.195 -1.7639  0.8856  0.8312
 4066SOL     OW24076   3.610   0.447  20.599  0.0300 -0.4182  0.2886
 4066SOL    HW124077   3.613   0.489  20.685  2.4595 -1.2162  0.6128
 4066SOL    HW224078   3.583   0.357  20.617 -2.3262  0.2313 -0.0864
 4067SOL     OW24079   0.441   3.730   1.406  0.2440  0.3080  0.2729
 4067SOL    HW124080   0.415   3.680   1.483  1.3800  0.1371  0.5342
 4067SOL    HW224081   0.398   3.685   1.333  0.6477 -0.5881  0.5958
 4068SOL     OW24082   1.511   3.230   8.052 -0.0254  0.2915 -0.4038
 4068SOL    HW124083   1.469   3.269   7.976  0.1614  0.8014 -0.2434
 4068SOL    HW224084   1.451   3.161   8.080 -0.2052  0.2601 -0.8686
 4069SOL     OW24085   3.209   3.239  17.436  0.6719 -0.0771 -0.3434
 4069SOL    HW124086   3.199   3.144  17.441  0.3378 -0.0092  0.3031
 4069SOL    HW224087   3.295   3.255  17.476  0.4747 -0.0512  0.0661
 4070SOL     OW24088   3.664   0.700  20.017 -0.1766 -0.1462 -0.3823
 4070SOL    HW124089   3.636   0.721  20.106  2.1410 -1.9208  0.7823
 4070SOL    HW224090   3.751   0.740  20.010 -0.8115  0.9018 -2.2110
 4071SOL     OW24091   3.535   0.243   3.670 -0.4286 -0.2365  0.1868
 4071SOL    HW124092   3.460   0.295   3.698  0.0138 -0.9166  2.5910
 4071SOL    HW224093   3.602   0.307   3.649 -1.2148  0.3157 -0.6816
 4072SOL     OW24094   1.738   1.362  20.851  0.2531  0.4163  0.5508
 4072SOL    HW124095   1.746   1.321  20.765  1.4371  2.2234 -0.2154
 4072SOL    HW224096   1.651   1.400  20.851  0.8777  1.8633 -0.5025
 4073SOL     OW24097   1.281   2.777   2.410  0.1357  0.3608 -0.1699
 4073SOL    HW124098   1.369   2.814   2.400  0.2783 -0.0669 -0.5005
 4073SOL    HW224099   1.287   2.690   2.369 -0.1745 -0.0584  0.6726
 4074SOL     OW24100   0.548   3.960  19.384 -0.7850  0.1754 -0.0388
 4074SOL    HW124101   0.640   3.967  19.359 -0.6619  2.1183  0.9436
 4074SOL    HW224102   0.541   3.875  19.427  0.9219  0.8614  1.5628
 4075SOL     OW24103   2.897   1.146   2.400 -0.3871 -0.0841  0.0988
 4075SOL    HW124104   2.973   1.135   2.342 -1.7344  0.2430 -1.7438
 4075SOL    HW224105   2.921   1.100   2.480  1.6144 -0.3041 -0.6176
 4076SOL     OW24106   3.149   1.039  16.242 -0.2121  0.5917  0.7413
 4076SOL    HW124107   3.201   1.008  16.316 -0.1632  2.0379  1.3072
 4076SOL    HW224108   3.174   0.982  16.170 -0.2869 -0.8520  1.8453
 4077SOL     OW24109   1.061   2.331   5.321  0.0090 -0.0792 -0.1636
 4077SOL    HW124110   1.037   2.349   5.412 -0.9210 -0.0272 -0.4172
 4077SOL    HW224111   1.116   2.253   5.325 -0.8090 -0.6285  0.3534
 4078SOL     OW24112   4.363   4.267  13.646 -0.3125  0.2759  0.4052
 4078SOL    HW124113   4.449   4.233  13.671 -1.5441 -1.2715  2.5545
 4078SOL    HW224114   4.302   4.198  13.671 -2.1109  1.1192 -1.7152
 4079SOL     OW24115   0.328   0.934   1.490  0.0482 -0.1936 -0.2874
 4079SOL    HW124116   0.339   0.972   1.577 -0.3264 -0.7416  0.0012
 4079SOL    HW224117   0.241   0.893   1.493  0.3730 -0.9046 -0.6532
 4080SOL     OW24118   4.516   1.919   0.539  0.3869 -0.8138  0.6683
 4080SOL    HW124119   4.460   1.996   0.529 -0.0202 -1.1872  0.0163
 4080SOL    HW224120   4.604   1.949   0.515  0.3440 -0.3781  1.0886
 4081SOL     OW24121   1.581   0.715  14.866 -0.1093  0.1118 -0.0998
 4081SOL    HW124122   1.509   0.662  14.900 -0.5268 -1.2546 -3.1454
 4081SOL    HW224123   1.548   0.751  14.784  2.9897 -1.1981 -1.9064
 4082SOL     OW24124   0.103   2.229   4.405  0.3226 -0.2139 -0.1540
 4082SOL    HW124125   0.154   2.306   4.381  1.3872 -0.7475  0.4246
 4082SOL    HW224126   0.071   2.247   4.493  0.4773 -0.3958 -0.0620
 4083SOL     OW24127   3.936   2.619   0.379 -0.0165 -0.1153 -0.4267
 4083SOL    HW124128   3.990   2.674   0.323  0.2126  0.5799  0.4756
 4083SOL    HW224129   3.974   2.629   0.467 -1.8192  0.6619  0.2751
 4084SOL     OW24130   4.128   2.471  19.867  0.1964 -0.3014  0.1731
 4084SOL    HW124131   4.115   2.394  19.812 -1.8895 -0.3994  0.7853
 4084SOL    HW224132   4.192   2.444  19.932  0.7750 -0.9782 -0.6906
 4085SOL     OW24133   4.444   1.943  15.996  0.7076  0.4730  0.9663
 4085SOL    HW124134   4.361   1.922  15.954  1.2318  0.3000  0.0166
 4085SOL    HW224135   4.423   2.015  16.055  0.2489  1.5784 -0.5624
 4086SOL     OW24136   4.685   1.610  21.068  0.1236 -0.6047  0.2796
 4086SOL    HW124137   4.774   1.599  21.034  0.9792  1.9682  1.6669
 4086SOL    HW224138   4.688   1.571  21.155  0.4072  1.2491  1.0969
 4087SOL     OW24139   1.028   1.103   5.884 -0.6786  0.4878 -0.9506
 4087SOL    HW124140   0.976   1.108   5.804 -1.7428 -0.2942 -0.3060
 4087SOL    HW224141   1.083   1.026   5.872 -0.7249  0.4616 -0.9912
 4088SOL     OW24142   1.393   3.298  15.682  0.3859  0.3963  0.0970
 4088SOL    HW124143   1.373   3.210  15.650  0.3414  0.9177 -1.3402
 4088SOL    HW224144   1.482   3.292  15.716  0.2697 -0.2867  0.2684
 4089SOL     OW24145   0.384   0.879   2.735  0.2143 -0.4364  0.2614
 4089SOL    HW124146   0.439   0.949   2.699 -0.9869  0.3485 -0.0434
 4089SOL    HW224147   0.322   0.924   2.791 -2.1449 -1.0377 -1.8918
 4090SOL     OW24148   1.432   1.812  18.773 -0.0036 -0.1551  0.8067
 4090SOL    HW124149   1.468   1.900  18.780 -0.4474  0.0502  0.4949
 4090SOL    HW224150   1.337   1.824  18.778 -0.1292 -0.4706 -0.6275
 4091SOL     OW24151   3.297   3.786  20.047  0.0720 -0.2240  0.6768
 4091SOL    HW124152   3.242   3.805  19.971  0.6793 -0.8758  0.0705
 4091SOL    HW224153   3.374   3.841  20.037  0.6703 -1.1306  0.2294
 4092SOL     OW24154   4.346   0.266   3.057  0.0348  0.2657  0.1252
 4092SOL    HW124155   4.341   0.268   3.152  0.4111  0.2660  0.1469
 4092SOL    HW224156   4.378   0.178   3.036 -0.8765 -0.0249 -0.0422
 4093SOL     OW24157   1.581   0.643   4.406  0.1427 -0.1406  0.6990
 4093SOL    HW124158   1.605   0.693   4.328 -1.4057 -1.8780 -0.9181
 4093SOL    HW224159   1.485   0.639   4.403  0.1093 -0.6816  2.3850
 4094SOL     OW24160   3.303   0.015   5.681  0.0475  0.3910  0.3963
 4094SOL    HW124161   3.338   0.090   5.729 -0.9292  1.1745 -0.1143
 4094SOL    HW224162   3.211   0.011   5.706 -0.2740  0.3339 -0.8100
 4095SOL     OW24163   0.595   0.360  16.916 -0.0493  0.1573 -0.3553
 4095SOL    HW124164   0.562   0.450  16.925 -0.2752  0.1659 -1.3133
 4095SOL    HW224165   0.552   0.312  16.987 -2.4310  0.0892 -1.8478
 4096SOL     OW24166   3.948   3.918  17.208  0.6655  0.5308 -0.0621
 4096SOL    HW124167   3.993   3.960  17.134 -0.4371  2.4462  0.3515
 4096SOL    HW224168   3.998   3.944  17.285  0.9188 -0.2066  0.0170
 4097SOL     OW24169   2.941   2.078  17.949  0.2871  0.0599  0.2258
 4097SOL    HW124170   3.003   2.148  17.930 -2.3666  2.1028 -0.8679
 4097SOL    HW224171   2.939   2.072  18.044 -0.4647  2.3412  0.3557
 4098SOL     OW24172   0.303   2.341   2.093 -0.4649 -0.2190  0.0326
 4098SOL    HW124173   0.305   2.264   2.036  0.4897  0.1545 -0.4407
 4098SOL    HW224174   0.302   2.415   2.033  0.8430  0.1802  0.4867
 4099SOL     OW24175   4.225   3.163  11.649  0.4856 -0.2163 -0.9020
 4099SOL    HW124176   4.313   3.197  11.636  1.1018 -0.5419  2.3554
 4099SOL    HW224177   4.233   3.069  11.637  0.1775 -0.0213 -2.6653
 4100SOL     OW24178   3.452   2.140   4.151  0.3308  0.0996 -0.1845
 4100SOL    HW124179   3.424   2.126   4.241 -1.3544 -3.3809 -1.2315
 4100SOL    HW224180   3.382   2.193   4.112 -0.3840 -0.8716 -0.2420
 4101SOL     OW24181   3.103   2.939   3.491  0.4418 -0.2854 -0.5043
 4101SOL    HW124182   3.131   2.865   3.545  2.4741  1.4143  0.7828
 4101SOL    HW224183   3.049   2.992   3.549 -0.6922 -0.5776 -1.3084
 4102SOL     OW24184   2.748   0.663  20.116  0.1276  0.4803 -0.0268
 4102SOL    HW124185   2.655   0.678  20.096  0.2743  1.1448 -0.1929
 4102SOL    HW224186   2.776   0.597  20.052  0.0813  1.1524 -0.7444
 4103SOL     OW24187   2.302   0.267   0.341 -0.1651  0.2907  0.1896
 4103SOL    HW124188   2.215   0.265   0.380 -0.0180  0.3743  0.5232
 4103SOL    HW224189   2.343   0.185   0.369 -0.5186 -0.2448 -0.8500
 4104SOL     OW24190   3.316   2.364   2.837  0.0834  0.5152 -0.1985
 4104SOL    HW124191   3.264   2.337   2.913 -1.0808  1.4322 -0.6572
 4104SOL    HW224192   3.406   2.344   2.861 -0.3537  0.1658  1.1543
 4105SOL     OW24193   0.564   3.275   9.368  0.2128 -0.1812 -0.0068
 4105SOL    HW124194   0.490   3.316   9.323  0.8574  1.3366  0.3235
 4105SOL    HW224195   0.545   3.288   9.461 -0.2832 -1.8646  0.1379
 4106SOL     OW24196   3.095   1.857  17.097  0.1549  0.6737 -0.4801
 4106SOL    HW124197   3.018   1.891  17.143  0.4611  0.0152  0.5041
 4106SOL    HW224198   3.101   1.766  17.125  1.0464  0.6068 -0.9068
 4107SOL     OW24199   3.035   1.915   6.414  0.3134 -0.0167  0.2964
 4107SOL    HW124200   3.052   1.996   6.367  0.2428  0.1634  0.5751
 4107SOL    HW224201   2.945   1.925   6.447  0.6594  0.2188  1.1799
 4108SOL     OW24202   2.241   0.029   4.403 -0.0013  0.6211 -0.0036
 4108SOL    HW124203   2.222   0.016   4.496  1.3539 -2.0333 -0.1177
 4108SOL    HW224204   2.157   0.055   4.365 -0.8975  0.1570  1.6577
 4109SOL     OW24205   1.656   2.942  18.461  0.2970  0.2532  0.2959
 4109SOL    HW124206   1.672   2.974  18.550 -0.6244 -0.6935  0.8051
 4109SOL    HW224207   1.561   2.934  18.455  0.4312 -0.8901 -0.3554
 4110SOL     OW24208   2.275   4.550   1.301 -0.4551  0.0740  0.2573
 4110SOL    HW124209   2.277   4.465   1.256 -1.3524 -0.2520  0.8110
 4110SOL    HW224210   2.317   4.533   1.385  1.0495  0.6357 -0.3868
 4111SOL     OW24211   0.277   0.367   4.955  0.0400  0.3924 -0.1338
 4111SOL    HW124212   0.293   0.442   5.013  0.3774  0.8217 -0.7731
 4111SOL    HW224213   0.182   0.359   4.952 -0.0098  1.0933 -0.4435
 4112SOL     OW24214   3.640   4.644   4.232 -0.1411 -0.9792  0.0740
 4112SOL    HW124215   3.611   4.640   4.140 -0.0800 -2.8256  0.1412
 4112SOL    HW224216   3.586   4.713   4.271 -0.9579 -0.9649 -1.0691
 4113SOL     OW24217   2.675   3.030  18.019 -0.9997  0.4669  0.2298
 4113SOL    HW124218   2.617   2.960  18.048 -0.7269  0.1130 -0.0791
 4113SOL    HW224219   2.733   3.046  18.094  0.8061 -1.6076 -0.7317
 4114SOL     OW24220   4.109   0.428   0.536  0.5415  0.0108  0.1628
 4114SOL    HW124221   4.130   0.337   0.515 -1.7145 -0.5216  0.3001
 4114SOL    HW224222   4.122   0.435   0.630 -0.7424 -0.5271  0.3702
 4115SOL     OW24223   3.239   4.712   1.546 -0.7598  0.0142  0.4452
 4115SOL    HW124224   3.203   4.733   1.460  0.0903 -0.7425 -0.1063
 4115SOL    HW224225   3.203   0.002   1.604 -2.5667 -0.3904 -0.2039
 4116SOL     OW24226   0.198   0.319  17.042  0.9569  0.1839 -0.6752
 4116SOL    HW124227   0.114   0.346  17.077  0.4173 -1.0478 -1.0112
 4116SOL    HW224228   0.182   0.304  16.948  1.7911  0.9859 -0.9511
 4117SOL     OW24229   0.798   0.436  10.420 -0.1417  0.1020  0.0487
 4117SOL    HW124230   0.768   0.372  10.356 -0.1913 -0.2461  0.4263
 4117SOL    HW224231   0.802   0.518  10.371  0.7137 -0.3485 -0.6384
 4118SOL     OW24232   2.498   0.036  16.336  0.1925 -0.8479 -0.1716
 4118SOL    HW124233   2.560   0.084  16.392 -0.4578  0.1471 -0.3032
 4118SOL    HW224234   2.427   0.011  16.395 -0.4889  0.1915 -0.5440
 4119SOL     OW24235   1.991   1.007  16.458  0.2243 -0.3568 -0.8415
 4119SOL    HW124236   1.945   0.975  16.381 -0.8052 -0.9147  0.0117
 4119SOL    HW224237   1.976   0.940  16.525  2.8009 -0.8641 -0.7581
 4120SOL     OW24238   3.823   2.605  16.992 -0.4229  0.2046  0.1138
 4120SOL    HW124239   3.833   2.641  16.904 -0.8261  1.4891  0.5800
 4120SOL    HW224240   3.891   2.649  17.044 -0.7759  0.1316  0.6441
 4121SOL     OW24241   2.587   2.831  13.675  0.0568  0.2724 -0.1643
 4121SOL    HW124242   2.657   2.768  13.694 -0.1743 -0.1216 -0.6287
 4121SOL    HW224243   2.557   2.809  13.587  0.8269  1.8399 -0.8214
 4122SOL     OW24244   4.121   0.379  18.492 -0.1936 -0.3421 -0.1127
 4122SOL    HW124245   4.108   0.287  18.466 -2.0849  0.3506 -1.7162
 4122SOL    HW224246   4.042   0.400  18.542  0.0474  0.5181 -0.1079
 4123SOL     OW24247   4.051   0.798   4.906  0.2739 -0.3816 -0.0765
 4123SOL    HW124248   3.969   0.817   4.860 -0.4344 -0.6015  1.0816
 4123SOL    HW224249   4.030   0.815   4.998  1.8169  0.5470  0.1018
 4124SOL     OW24250   0.397   2.050   5.062 -0.6003 -0.4333 -0.3356
 4124SOL    HW124251   0.404   1.990   4.988 -0.0094  0.1356 -0.7446
 4124SOL    HW224252   0.488   2.073   5.082 -0.9540  2.2190 -1.7289
 4125SOL     OW24253   3.294   2.990   2.486 -0.0731 -0.3466  0.4405
 4125SOL    HW124254   3.383   2.955   2.483  0.1357  0.0970  1.9156
 4125SOL    HW224255   3.247   2.932   2.546 -0.4628  0.1734  0.6390
 4126SOL     OW24256   1.082   1.971  12.326 -0.2413 -0.3471 -0.1130
 4126SOL    HW124257   1.075   1.929  12.412  0.0155  1.0164  0.5800
 4126SOL    HW224258   0.997   1.954  12.285  0.2726 -2.4913 -0.2717
 4127SOL     OW24259   3.436   2.698   1.302 -0.1405  0.3839  0.0010
 4127SOL    HW124260   3.431   2.767   1.368  0.4273  0.4474 -0.0287
 4127SOL    HW224261   3.465   2.742   1.222 -1.1120  0.3642 -0.3769
 4128SOL     OW24262   1.405   1.395   4.159  0.1646  0.0027 -0.1651
 4128SOL    HW124263   1.320   1.351   4.163  1.0822 -1.6219  1.2564
 4128SOL    HW224264   1.389   1.473   4.105 -1.6307 -1.6458 -2.0364
 4129SOL     OW24265   1.001   3.173  10.962 -0.7160 -0.7330  0.1883
 4129SOL    HW124266   1.052   3.252  10.980  0.4664 -1.2572 -0.8421
 4129SOL    HW224267   0.974   3.182  10.871 -1.1839 -1.1851  0.2784
 4130SOL     OW24268   0.124   2.853  16.540 -0.8561 -0.5003  0.1584
 4130SOL    HW124269   0.187   2.890  16.478 -0.0513  1.2137  1.9846
 4130SOL    HW224270   0.065   2.800  16.486 -0.3053  1.1837 -2.1195
 4131SOL     OW24271   3.105   2.115  14.758 -0.4399  0.3830  0.2094
 4131SOL    HW124272   3.020   2.159  14.757 -0.4166  0.4243 -0.2840
 4131SOL    HW224273   3.103   2.059  14.680 -0.5037 -0.5443  0.8852
 4132SOL     OW24274   3.070   2.736  17.663  0.1116  0.3907  0.1948
 4132SOL    HW124275   3.022   2.665  17.706  0.2046 -0.3536 -0.9336
 4132SOL    HW224276   3.033   2.816  17.700 -1.2988 -0.2092  0.0493
 4133SOL     OW24277   3.064   0.838  19.257  0.4253  0.6938  0.0653
 4133SOL    HW124278   3.078   0.932  19.252 -1.3534  1.0432  1.9242
 4133SOL    HW224279   3.127   0.807  19.323 -0.9856  0.9463  1.5028
 4134SOL     OW24280   2.672   1.007   1.582 -0.4027  0.3979  0.5499
 4134SOL    HW124281   2.723   0.983   1.505  0.1373  1.0187  0.7137
 4134SOL    HW224282   2.606   1.067   1.550 -1.0379 -0.4168  0.3352
 4135SOL     OW24283   4.488   4.645   3.342  0.1204 -0.3369  0.6761
 4135SOL    HW124284   4.444   4.667   3.424 -1.2871 -0.5730 -0.0278
 4135SOL    HW224285   4.472   4.552   3.330  1.7617 -0.6726  0.9987
 4136SOL     OW24286   3.959   0.012   5.358  0.3631  0.1848 -0.2062
 4136SOL    HW124287   3.918   0.098   5.362 -0.7028 -0.2116 -2.5825
 4136SOL    HW224288   3.891   4.726   5.385  0.9752  0.0429  1.0135
 4137SOL     OW24289   2.636   2.620  15.446 -0.3894  0.2288 -0.0977
 4137SOL    HW124290   2.543   2.600  15.454 -0.4331 -0.3236 -2.1051
 4137SOL    HW224291   2.679   2.535  15.438  0.2635  0.5036  0.4037
 4138SOL     OW24292   2.970   4.186  18.281 -0.3741  0.0832 -0.0051
 4138SOL    HW124293   2.931   4.161  18.364 -0.0902 -0.1041  0.0722
 4138SOL    HW224294   2.929   4.270  18.259 -1.3879 -0.4820 -0.3056
 4139SOL     OW24295   2.289   4.709   9.035  0.6287 -0.3012 -0.5248
 4139SOL    HW124296   2.325   4.724   9.122 -0.8002  2.1031 -0.3451
 4139SOL    HW224297   2.363   4.677   8.983  1.7158 -0.6954  1.2711
 4140SOL     OW24298   0.924   1.669  17.630 -0.4296  0.5621 -0.6631
 4140SOL    HW124299   0.955   1.656  17.540 -1.7532 -1.1007 -0.9008
 4140SOL    HW224300   0.835   1.634  17.629 -0.4722  0.6206  1.2874
 4141SOL     OW24301   2.584   2.239  19.337  0.2001 -0.2728  0.0615
 4141SOL    HW124302   2.525   2.204  19.270  1.5898 -0.6262 -0.9623
 4141SOL    HW224303   2.669   2.246  19.294  0.7113  1.1068  1.2792
 4142SOL     OW24304   2.607   0.415  16.966 -0.0882  0.2086  0.0736
 4142SOL    HW124305   2.655   0.341  16.929  1.5190  1.8862 -1.1792
 4142SOL    HW224306   2.544   0.375  17.026  1.9912 -2.0827  0.7415
 4143SOL     OW24307   0.085   2.978   4.588 -0.0554 -0.3443 -0.2939
 4143SOL    HW124308   0.124   2.897   4.623  1.2273  0.4078  0.0394
 4143SOL    HW224309   0.151   3.012   4.528 -0.5170  0.5634 -0.2788
 4144SOL     OW24310   3.472   2.723  17.240 -0.6234 -0.2548 -0.1912
 4144SOL    HW124311   3.459   2.817  17.255 -0.1023 -0.3622  0.9072
 4144SOL    HW224312   3.384   2.690  17.220 -1.0744  0.1468  1.1416
 4145SOL     OW24313   2.847   3.095  13.970 -0.1484  0.4589  0.4583
 4145SOL    HW124314   2.850   3.134  14.058 -1.9079 -0.2243  0.8143
 4145SOL    HW224315   2.795   3.015  13.981  0.8066 -0.3483 -0.9241
 4146SOL     OW24316   2.041   3.679  21.017 -0.1626  0.1342 -0.2827
 4146SOL    HW124317   2.112   3.737  20.989 -2.3566  2.8524 -0.1351
 4146SOL    HW224318   2.032   3.695  21.111 -2.1001  0.9739 -0.6122
 4147SOL     OW24319   0.046   0.787   5.384 -0.2183 -0.1980 -0.0257
 4147SOL    HW124320   0.033   0.728   5.458 -0.5675 -1.1129 -0.8237
 4147SOL    HW224321   0.099   0.737   5.322 -1.2104  0.0391 -1.0586
 4148SOL     OW24322   1.180   3.949   5.281 -0.5134 -0.1841  0.0010
 4148SOL    HW124323   1.246   3.887   5.313  1.0537  1.2434 -0.4418
 4148SOL    HW224324   1.213   4.035   5.309 -2.2932  0.5144 -0.0488
 4149SOL     OW24325   3.685   4.051   1.733  0.0714  0.0877  0.5849
 4149SOL    HW124326   3.687   3.992   1.657 -0.3203 -0.4924  1.0240
 4149SOL    HW224327   3.705   3.994   1.808 -2.5618  0.0755  1.2795
 4150SOL     OW24328   0.472   2.390  16.155 -0.5345 -0.0817  0.0703
 4150SOL    HW124329   0.412   2.465  16.154 -0.1806  0.2023 -0.2386
 4150SOL    HW224330   0.426   2.321  16.108 -0.9624 -0.1341  0.5677
 4151SOL     OW24331   0.416   2.025   3.136  0.9630  0.3087  0.3029
 4151SOL    HW124332   0.327   1.989   3.138  1.4930 -1.0608 -0.9552
 4151SOL    HW224333   0.403   2.120   3.125 -0.3308  0.0118 -0.8267
 4152SOL     OW24334   4.346   4.113  21.176  0.4996 -0.1234  1.1383
 4152SOL    HW124335   4.439   4.102  21.159  0.2583  0.8791 -0.8577
 4152SOL    HW224336   4.309   4.025  21.163  0.6289  0.2205 -1.5249
 4153SOL     OW24337   3.259   2.369  18.413  0.2666 -0.3318 -0.3508
 4153SOL    HW124338   3.254   2.423  18.492 -0.0190 -0.0674 -0.5487
 4153SOL    HW224339   3.237   2.281  18.442  0.2141 -0.2431 -0.1269
 4154SOL     OW24340   1.700   3.368  10.087  0.4160 -0.0627 -0.0316
 4154SOL    HW124341   1.752   3.447  10.094  1.1612 -0.5394 -0.2361
 4154SOL    HW224342   1.700   3.347   9.993  0.3066 -0.3647  0.0339
 4155SOL     OW24343   4.129   0.426  20.683 -0.5406 -0.1475 -0.2811
 4155SOL    HW124344   4.094   0.515  20.678 -0.7645 -0.3124 -1.7086
 4155SOL    HW224345   4.089   0.389  20.762  0.9971  1.6263  1.3240
 4156SOL     OW24346   3.059   4.583  18.335 -0.4739 -0.1592 -0.6817
 4156SOL    HW124347   2.971   4.549  18.352  0.0249 -0.7837  0.6435
 4156SOL    HW224348   3.053   4.676  18.354 -1.0682 -0.0503 -1.4068
 4157SOL     OW24349   2.881   2.925  18.696  0.1961 -0.2112  1.2804
 4157SOL    HW124350   2.842   2.853  18.746  0.2052  0.4171  2.1882
 4157SOL    HW224351   2.931   2.975  18.760  0.6375  0.2896  0.5449
 4158SOL     OW24352   1.419   4.470   8.053 -0.0684 -0.1709  0.0517
 4158SOL    HW124353   1.359   4.532   8.093 -0.5401  0.0483 -0.9808
 4158SOL    HW224354   1.503   4.515   8.052  0.5249 -1.2190  3.2399
 4159SOL     OW24355   4.455   4.145  19.416 -0.0608  0.0544 -1.0066
 4159SOL    HW124356   4.381   4.186  19.370 -0.9838  0.1573  0.5676
 4159SOL    HW224357   4.429   4.147  19.508  0.9062 -2.0187 -0.7059
 4160SOL     OW24358   4.414   1.014   6.012 -0.2073 -0.1072  0.3872
 4160SOL    HW124359   4.434   0.922   5.994  2.9467  0.5126  0.8172
 4160SOL    HW224360   4.369   1.012   6.097 -0.6660 -1.3033  0.1212
 4161SOL     OW24361   4.384   4.086  17.260  0.2904 -0.3155 -0.6273
 4161SOL    HW124362   4.451   4.147  17.290  0.8325 -1.0450 -0.3316
 4161SOL    HW224363   4.397   4.080  17.166  1.3562 -1.2894 -0.4266
 4162SOL     OW24364   0.425   2.917  16.646  0.0058 -0.9569 -0.4040
 4162SOL    HW124365   0.500   2.956  16.691  0.5356 -1.3654 -0.9284
 4162SOL    HW224366   0.429   2.954  16.558 -1.0681 -0.1004 -0.0890
 4163SOL     OW24367   4.077   2.025  19.500 -0.2067 -0.9570 -0.0870
 4163SOL    HW124368   3.984   2.033  19.522  0.1954 -2.2229  2.0590
 4163SOL    HW224369   4.081   1.950  19.442 -0.3968 -1.5063  0.6083
 4164SOL     OW24370   0.758   0.221   8.668 -0.2055 -0.0018  0.3981
 4164SOL    HW124371   0.842   0.200   8.627 -0.1655  0.2723  0.3394
 4164SOL    HW224372   0.777   0.221   8.762 -0.2192 -0.2897  0.4003
 4165SOL     OW24373   4.407   4.651   7.474  0.2206  0.2041  0.1288
 4165SOL    HW124374   4.484   4.708   7.486  0.0423  0.6606 -0.8745
 4165SOL    HW224375   4.369   4.681   7.392 -0.4028 -0.7682  0.0746
 4166SOL     OW24376   4.472   0.927   0.081 -0.5452 -0.0850 -0.3227
 4166SOL    HW124377   4.524   0.936   0.002 -2.6024 -0.1248 -1.6937
 4166SOL    HW224378   4.487   1.008   0.130 -0.7812  0.7673 -1.6725
 4167SOL     OW24379   4.362   1.061   1.373  0.2689  0.2079 -0.1839
 4167SOL    HW124380   4.314   1.028   1.297  0.0687 -0.5363  0.2622
 4167SOL    HW224381   4.293   1.082   1.437  0.3963  1.5234 -0.4879
 4168SOL     OW24382   1.161   0.548   1.445  0.4481 -0.2600  0.0818
 4168SOL    HW124383   1.113   0.491   1.384  1.3432  0.4008 -1.2368
 4168SOL    HW224384   1.235   0.580   1.394 -1.2511  3.7845  0.1484
 4169SOL     OW24385   2.758   4.449   0.682  0.2483  0.3299 -0.0153
 4169SOL    HW124386   2.665   4.445   0.657  0.6905 -0.6800 -1.4889
 4169SOL    HW224387   2.797   4.507   0.617  0.8089  0.0867  0.1121
 4170SOL     OW24388   3.403   2.831  19.086  0.2255 -0.1039 -0.0960
 4170SOL    HW124389   3.341   2.859  19.018 -0.7819 -1.5843  0.2029
 4170SOL    HW224390   3.400   2.901  19.151  0.6833  0.9930 -1.2525
 4171SOL     OW24391   4.433   0.856  16.565 -0.7522 -0.5729 -0.0473
 4171SOL    HW124392   4.426   0.869  16.471 -1.0641  0.7504  0.1624
 4171SOL    HW224393   4.521   0.888  16.587 -1.0543  0.0199  0.2765
 4172SOL     OW24394   2.758   0.221   6.602  0.0642  0.5073 -0.1733
 4172SOL    HW124395   2.671   0.194   6.572  0.2575  0.0536 -0.3222
 4172SOL    HW224396   2.797   0.264   6.526  0.1569  0.2778 -0.2556
 4173SOL     OW24397   4.714   0.804  20.368  0.0611 -0.0100  0.2188
 4173SOL    HW124398   4.758   0.852  20.298 -0.7748 -0.2339 -0.4638
 4173SOL    HW224399   0.009   0.767  20.420  0.7015  1.1471  0.1783
 4174SOL     OW24400   0.682   3.460  20.111  0.1111 -0.4053 -0.1779
 4174SOL    HW124401   0.751   3.515  20.074  0.1864 -1.3070 -1.3861
 4174SOL    HW224402   0.696   3.464  20.206  0.4486  1.2150 -0.2987
 4175SOL     OW24403   2.717   4.759   0.861  0.0979  0.1084  0.5804
 4175SOL    HW124404   2.723   4.753   0.956  0.0648 -0.6143  0.5407
 4175SOL    HW224405   2.804   4.732   0.830  0.2936  0.9209  0.4318
 4176SOL     OW24406   4.709   0.763  16.269  0.1837 -0.1549 -0.6857
 4176SOL    HW124407   4.666   0.748  16.185  0.8828 -3.0005 -0.5582
 4176SOL    HW224408   0.024   0.738  16.254  1.0215  2.6012 -0.0225
 4177SOL     OW24409   0.514   1.596  20.335 -0.0144 -0.2704  0.4168
 4177SOL    HW124410   0.557   1.641  20.263  0.3709 -0.2769  0.6401
 4177SOL    HW224411   0.420   1.608  20.319  0.0857  0.6281  0.4925
 4178SOL     OW24412   3.992   2.376  16.739 -0.1500 -0.4547  0.6138
 4178SOL    HW124413   4.051   2.304  16.716  0.0124 -0.4892  1.1197
 4178SOL    HW224414   3.960   2.353  16.826  1.2482  0.9382  1.5122
 4179SOL     OW24415   0.647   0.184   3.118 -0.0629 -0.4560  0.3310
 4179SOL    HW124416   0.614   0.187   3.208  0.8271 -0.7479  0.6739
 4179SOL    HW224417   0.574   0.213   3.064 -1.1199 -1.8650  1.0183
 4180SOL     OW24418   1.529   0.769   3.447  0.1283  0.4220  0.3678
 4180SOL    HW124419   1.606   0.713   3.456 -0.4358 -0.3747  0.3188
 4180SOL    HW224420   1.563   0.855   3.422  0.9879  0.0452  0.2572
 4181SOL     OW24421   1.684   4.107  13.340  0.4630 -0.1456 -0.2400
 4181SOL    HW124422   1.617   4.080  13.404  0.7385 -0.3326 -0.0306
 4181SOL    HW224423   1.712   4.026  13.299 -0.1517  0.0406 -1.0363
 4182SOL     OW24424   2.237   2.120  16.070  0.1130  0.3903  0.0747
 4182SOL    HW124425   2.318   2.070  16.080 -0.9518 -1.1515  0.9953
 4182SOL    HW224426   2.167   2.058  16.092 -1.2582  2.0166  0.3427
 4183SOL     OW24427   3.879   4.182  17.603 -1.0277  0.1264 -0.6953
 4183SOL    HW124428   3.944   4.249  17.627 -1.0993 -0.2315  0.5313
 4183SOL    HW224429   3.868   4.131  17.683 -0.0735 -2.0897 -1.9774
 4184SOL     OW24430   3.223   3.152  10.087  0.3190 -0.6175  0.6052
 4184SOL    HW124431   3.162   3.122  10.154  2.1645  0.4246  2.7330
 4184SOL    HW224432   3.201   3.244  10.073  0.0180 -0.7983 -0.1443
 4185SOL     OW24433   2.797   1.454  20.771 -0.3889  0.2928  0.1946
 4185SOL    HW124434   2.760   1.537  20.800  0.2458  0.4097  0.6573
 4185SOL    HW224435   2.892   1.469  20.767 -0.3199 -0.2366 -0.2614
 4186SOL     OW24436   2.360   3.853   0.302 -0.2427  0.4044  0.3150
 4186SOL    HW124437   2.408   3.887   0.226 -0.0629  0.2131  0.3455
 4186SOL    HW224438   2.323   3.932   0.343 -0.0938  0.5349  0.1997
 4187SOL     OW24439   3.537   2.323  17.543  0.4050 -0.0656  0.3655
 4187SOL    HW124440   3.632   2.325  17.554  0.4941 -0.3016 -0.3192
 4187SOL    HW224441   3.524   2.269  17.464 -0.2057  1.4185 -0.5455
 4188SOL     OW24442   0.513   1.560   5.342  0.2387  0.0602 -0.4069
 4188SOL    HW124443   0.589   1.615   5.364  0.4091  0.2941 -1.5764
 4188SOL    HW224444   0.451   1.576   5.414  0.7977  0.8152 -0.0844
 4189SOL     OW24445   0.795   1.106   2.851  0.4827  0.2754 -0.3096
 4189SOL    HW124446   0.706   1.141   2.858  0.3890  0.3347 -1.8369
 4189SOL    HW224447   0.846   1.176   2.810  1.0780 -0.0363 -0.1092
 4190SOL     OW24448   2.502   0.584   0.961 -0.6445 -0.3156 -0.2155
 4190SOL    HW124449   2.477   0.592   0.869  2.3097 -0.7245 -1.0676
 4190SOL    HW224450   2.554   0.504   0.965  1.5701  1.1777  1.2808
 4191SOL     OW24451   4.330   3.840   3.681 -0.6218  0.0867  0.2154
 4191SOL    HW124452   4.275   3.840   3.759  1.0785  1.5047  1.4060
 4191SOL    HW224453   4.376   3.924   3.683 -0.5293  0.1071 -2.2727
 4192SOL     OW24454   1.652   4.644   6.400 -0.0812  0.4428 -0.4237
 4192SOL    HW124455   1.654   4.729   6.442 -0.4715  0.5106 -0.5411
 4192SOL    HW224456   1.721   4.593   6.444 -0.1998  0.6495 -0.0017
 4193SOL     OW24457   3.582   1.492   0.807 -0.3806 -0.1140 -0.2455
 4193SOL    HW124458   3.527   1.510   0.883  1.5609  2.3995  0.5588
 4193SOL    HW224459   3.601   1.578   0.770  1.6568 -1.1067 -1.5055
 4194SOL     OW24460   3.473   2.674  16.145  0.0219 -0.3002  0.2775
 4194SOL    HW124461   3.547   2.705  16.198  2.5687  0.5560 -3.7632
 4194SOL    HW224462   3.496   2.585  16.120 -0.1191  0.0937 -1.2998
 4195SOL     OW24463   2.584   0.088  20.453  0.0217 -0.0984 -0.0407
 4195SOL    HW124464   2.507   0.144  20.462 -0.2296 -0.7925  2.0071
 4195SOL    HW224465   2.656   0.149  20.438 -1.0435  0.5214 -2.7788
 4196SOL     OW24466   4.701   1.273  18.144  0.0007 -0.5220 -0.0357
 4196SOL    HW124467   4.651   1.203  18.102 -0.5791 -1.3402  2.0338
 4196SOL    HW224468   4.714   1.243  18.234  1.6007  1.0575  0.2610
 4197SOL     OW24469   3.745   1.427   4.058  0.5540  0.2609 -0.1215
 4197SOL    HW124470   3.820   1.412   4.115  0.5969  2.3265  0.3601
 4197SOL    HW224471   3.668   1.409   4.113  0.6619 -0.5447 -0.2340
 4198SOL     OW24472   1.902   3.000   3.995 -0.6691 -0.4307  0.0764
 4198SOL    HW124473   1.953   3.016   3.916  0.9027 -0.1662  1.1474
 4198SOL    HW224474   1.864   2.913   3.982 -0.8010 -0.1842 -1.1868
 4199SOL     OW24475   0.775   2.524  20.297  0.0265 -0.3911  0.4511
 4199SOL    HW124476   0.777   2.603  20.351  1.2190 -1.7095  2.3080
 4199SOL    HW224477   0.740   2.456  20.354  0.6524 -1.6292 -0.6432
 4200SOL     OW24478   4.048   0.068  19.342  0.3387  0.5809 -0.5966
 4200SOL    HW124479   3.966   0.089  19.386 -0.0925  0.0630 -1.1423
 4200SOL    HW224480   4.023   0.003  19.276  1.0887  0.8661 -1.1564
 4201SOL     OW24481   3.076   3.191   6.031  0.2368  0.1845 -0.0484
 4201SOL    HW124482   3.148   3.178   5.969  0.0057 -0.6184 -0.1432
 4201SOL    HW224483   2.998   3.199   5.975  0.2241  0.8353  0.0642
 4202SOL     OW24484   2.572   2.084   3.331 -0.2961  0.3608  0.1595
 4202SOL    HW124485   2.630   2.009   3.338 -1.2281 -0.3025  0.6798
 4202SOL    HW224486   2.607   2.134   3.257 -0.8807 -1.6106 -1.4314
 4203SOL     OW24487   0.236   1.644  17.619  0.5373  0.2722 -0.6603
 4203SOL    HW124488   0.260   1.732  17.649 -1.0300  0.9822 -1.4308
 4203SOL    HW224489   0.142   1.638  17.638  0.2999 -0.6239 -2.1378
 4204SOL     OW24490   2.537   2.648  17.378 -0.2329 -0.3077 -0.3503
 4204SOL    HW124491   2.516   2.697  17.457 -0.3656 -0.0010 -0.5785
 4204SOL    HW224492   2.629   2.667  17.362 -0.1731 -0.4639 -0.2073
 4205SOL     OW24493   2.620   1.977  10.377  0.2363 -0.1561  0.6009
 4205SOL    HW124494   2.673   1.917  10.429 -0.8482  0.7057  2.7065
 4205SOL    HW224495   2.648   1.962  10.287  2.4924 -1.2693  1.4884
 4206SOL     OW24496   0.772   0.690  16.807  0.3152  0.2527  0.1596
 4206SOL    HW124497   0.678   0.700  16.794  0.2974  0.5053  0.4933
 4206SOL    HW224498   0.801   0.774  16.843  0.4278 -0.3262  1.4136
 4207SOL     OW24499   1.314   3.325   7.855  0.1710 -0.4426  0.1231
 4207SOL    HW124500   1.242   3.264   7.843 -2.0680  2.4566 -1.2322
 4207SOL    HW224501   1.305   3.356   7.945  0.8754 -1.5723  0.5786
 4208SOL     OW24502   2.765   2.628   2.389  0.0531  0.7563 -0.1469
 4208SOL    HW124503   2.776   2.606   2.482 -0.1726 -1.4456 -0.6674
 4208SOL    HW224504   2.829   2.697   2.374  2.7928 -1.6287  0.6335
 4209SOL     OW24505   4.580   3.465   5.679  0.0694 -0.2812 -0.8866
 4209SOL    HW124506   4.606   3.390   5.734  2.6267 -0.4644 -2.3500
 4209SOL    HW224507   4.560   3.426   5.594  0.7086  0.6482 -1.4500
 4210SOL     OW24508   0.805   4.416   1.483 -0.2722  0.3461 -0.3229
 4210SOL    HW124509   0.771   4.380   1.402 -1.5583 -0.5606  0.6237
 4210SOL    HW224510   0.886   4.462   1.458  0.1192 -1.2257 -1.8582
 4211SOL     OW24511   3.746   3.082  15.881 -0.4787  0.4128 -0.0565
 4211SOL    HW124512   3.657   3.072  15.913 -0.3086  1.3901  0.7071
 4211SOL    HW224513   3.796   3.013  15.925 -0.5591  0.7760  0.5932
 4212SOL     OW24514   4.243   1.484  18.384  0.2040  0.0948 -0.5032
 4212SOL    HW124515   4.175   1.438  18.336  2.0335 -0.5609 -2.4850
 4212SOL    HW224516   4.237   1.575  18.353 -0.4914  0.2698  0.1403
 4213SOL     OW24517   2.624   3.214  17.822 -0.2875  0.0423 -0.0251
 4213SOL    HW124518   2.616   3.147  17.890  0.7827  0.2591  0.3205
 4213SOL    HW224519   2.685   3.176  17.758 -0.2770  0.3703 -0.2125
 4214SOL     OW24520   4.410   0.172  14.058 -0.5340  0.0330  0.1356
 4214SOL    HW124521   4.339   0.222  14.098 -0.0733  1.1792 -0.4914
 4214SOL    HW224522   4.486   0.187  14.114 -0.6152 -0.6852  0.4472
 4215SOL     OW24523   3.082   0.008  11.717  0.2376 -0.3242  0.8438
 4215SOL    HW124524   3.119   0.049  11.639  0.9943 -0.6388  1.0345
 4215SOL    HW224525   3.129   0.049  11.790 -1.2993  0.8276  1.1902
 4216SOL     OW24526   1.488   0.403   1.439 -0.2661  0.4025 -0.1794
 4216SOL    HW124527   1.556   0.361   1.385 -1.4470 -0.8882 -0.6590
 4216SOL    HW224528   1.523   0.491   1.457  1.3744 -0.1286 -0.7303
 4217SOL     OW24529   2.396   4.607  15.860 -0.2000 -0.1832  0.5584
 4217SOL    HW124530   2.408   4.661  15.781 -3.7063  0.4114  0.4226
 4217SOL    HW224531   2.411   4.668  15.933 -1.5239  0.3789  0.3744
 4218SOL     OW24532   1.903   2.530  20.636  0.0200  0.6072  0.3650
 4218SOL    HW124533   1.814   2.516  20.604 -0.6515  1.0838  1.9938
 4218SOL    HW224534   1.948   2.575  20.565 -0.7818 -0.5037 -0.8289
 4219SOL     OW24535   1.699   0.492   4.570 -0.0724  0.2415  0.2418
 4219SOL    HW124536   1.663   0.540   4.496 -0.6073  0.0625  0.3883
 4219SOL    HW224537   1.654   0.529   4.646  1.4089  1.3260  0.6012
 4220SOL     OW24538   3.410   4.363  11.543  0.3761 -0.3182  0.1704
 4220SOL    HW124539   3.493   4.400  11.572  0.0994  1.1373 -0.9324
 4220SOL    HW224540   3.343   4.416  11.587  0.0018 -0.3280 -0.3903
 4221SOL     OW24541   4.043   4.753  20.079  0.0097  0.3595 -0.2833
 4221SOL    HW124542   3.955   4.728  20.053 -0.5982  1.6325  0.5577
 4221SOL    HW224543   4.039   0.072  20.090  1.1365  0.2534  1.1332
 4222SOL     OW24544   0.909   4.218   3.432 -0.1524 -0.0031  0.0548
 4222SOL    HW124545   0.912   4.174   3.517  0.8749 -0.7215 -0.3653
 4222SOL    HW224546   0.999   4.246   3.415 -0.6233  1.4501 -0.1078
 4223SOL     OW24547   2.651   3.222  13.365  0.2545  0.5866 -0.0208
 4223SOL    HW124548   2.662   3.189  13.454 -0.2448  0.7597  0.1039
 4223SOL    HW224549   2.739   3.251  13.339  0.5698 -0.2687  0.0963
 4224SOL     OW24550   3.774   1.897  17.650  0.1393  0.1955 -0.3254
 4224SOL    HW124551   3.780   1.984  17.691  0.5706 -0.5161  1.1300
 4224SOL    HW224552   3.859   1.886  17.607  0.3928  0.1521  0.1817
 4225SOL     OW24553   2.131   3.472   1.623  0.3538  0.3681  0.0359
 4225SOL    HW124554   2.161   3.392   1.579 -1.0785  1.1965 -2.4610
 4225SOL    HW224555   2.198   3.490   1.690  3.8809  0.5687 -3.5420
 4226SOL     OW24556   1.402   4.026  18.477  0.1455 -1.1040  1.0569
 4226SOL    HW124557   1.397   4.034  18.382  0.0621 -0.4526  1.1194
 4226SOL    HW224558   1.338   3.958  18.498 -0.3855 -0.7103  0.7186
 4227SOL     OW24559   0.677   4.465   8.531 -0.4307 -0.0531 -0.2180
 4227SOL    HW124560   0.641   4.432   8.449  0.6978  0.9929 -1.1496
 4227SOL    HW224561   0.756   4.512   8.505 -0.5502  1.0429  1.3691
 4228SOL     OW24562   0.259   1.790   0.534  0.2487  0.3528  0.4980
 4228SOL    HW124563   0.168   1.759   0.543  0.6643 -0.4398  1.9313
 4228SOL    HW224564   0.268   1.858   0.601  0.6071  0.6768  0.1188
 4229SOL     OW24565   2.499   1.171   9.061  0.5495  0.4862 -0.2635
 4229SOL    HW124566   2.506   1.076   9.060  0.2936  0.4530  0.8730
 4229SOL    HW224567   2.407   1.188   9.040  0.7282  0.4996 -1.0352
 4230SOL     OW24568   1.887   2.939  17.115  0.6899  0.3229  0.1524
 4230SOL    HW124569   1.865   3.031  17.128 -1.7348 -0.3731  1.0154
 4230SOL    HW224570   1.830   2.892  17.176  2.6221 -1.6760  0.4285
 4231SOL     OW24571   1.263   0.697  17.322 -0.2218  0.5762 -0.6990
 4231SOL    HW124572   1.312   0.616  17.315  0.1891  0.7708 -0.0966
 4231SOL    HW224573   1.295   0.751  17.249 -0.2392  0.3375 -0.8837
 4232SOL     OW24574   1.887   0.611  18.326  0.5552  0.2837  0.0531
 4232SOL    HW124575   1.976   0.577  18.330  0.2192 -0.5732  0.2590
 4232SOL    HW224576   1.897   0.701  18.296  1.2098 -1.0210 -3.5864
 4233SOL     OW24577   0.148   0.615   1.328 -0.5505 -0.4087  0.2278
 4233SOL    HW124578   0.119   0.676   1.395 -0.4670 -0.8841  0.6909
 4233SOL    HW224579   0.072   0.558   1.313 -0.4715 -0.4863  0.1243
 4234SOL     OW24580   1.188   4.429  16.976  0.1382  0.5638  0.2239
 4234SOL    HW124581   1.238   4.436  16.894  1.2487  0.9277  0.9329
 4234SOL    HW224582   1.133   4.507  16.977 -0.0197  0.4639 -0.2648
 4235SOL     OW24583   0.690   2.616  18.283  0.1677  0.0793 -0.2445
 4235SOL    HW124584   0.621   2.624  18.348 -0.1955 -0.2632 -0.5885
 4235SOL    HW224585   0.731   2.703  18.280  0.5126 -0.0516  0.8066
 4236SOL     OW24586   1.640   3.080   3.127  0.1304 -0.1224 -0.4648
 4236SOL    HW124587   1.657   3.090   3.221 -0.7774 -0.4421 -0.2633
 4236SOL    HW224588   1.582   3.004   3.122 -0.8463  0.6757 -1.1820
 4237SOL     OW24589   2.248   2.587   1.866 -0.4243 -0.2026 -0.3769
 4237SOL    HW124590   2.335   2.551   1.882 -1.5670 -1.4047  3.1913
 4237SOL    HW224591   2.259   2.682   1.876 -0.0965 -0.5686  2.8220
 4238SOL     OW24592   4.285   3.346   5.639  0.0475 -0.1246 -0.2326
 4238SOL    HW124593   4.359   3.286   5.649 -2.1636 -2.5811  1.1378
 4238SOL    HW224594   4.218   3.294   5.595 -1.2024  1.8657 -0.6668
 4239SOL     OW24595   1.932   1.876  13.765  0.5148 -0.0970 -0.2101
 4239SOL    HW124596   1.869   1.837  13.705  0.6080 -0.4604 -0.0744
 4239SOL    HW224597   1.882   1.943  13.812  0.4216  0.1274 -0.6297
 4240SOL     OW24598   3.277   0.542   0.413 -0.2962 -0.0200  0.0458
 4240SOL    HW124599   3.367   0.550   0.445  0.0794 -0.9400 -0.7719
 4240SOL    HW224600   3.284   0.551   0.318 -0.8480 -1.8104 -0.1750
 4241SOL     OW24601   2.070   3.070   5.230 -0.1333 -0.0974  0.2908
 4241SOL    HW124602   2.074   3.165   5.234  0.5161 -0.1006 -0.2702
 4241SOL    HW224603   2.130   3.040   5.299  0.7395 -0.1044 -0.4698
 4242SOL     OW24604   0.179   4.354  18.066 -0.2579 -0.2575 -0.2388
 4242SOL    HW124605   0.202   4.344  18.158 -0.4501  1.2419 -0.0351
 4242SOL    HW224606   0.232   4.288  18.021  0.5649 -0.3235  0.8353
 4243SOL     OW24607   3.266   0.295   4.846  0.4646  0.1883  0.1318
 4243SOL    HW124608   3.174   0.271   4.850  0.9695 -1.8137  0.1106
 4243SOL    HW224609   3.300   0.278   4.934  0.3993  2.5972  0.6098
 4244SOL     OW24610   3.417   0.534   4.505  0.2333  0.1684 -0.0656
 4244SOL    HW124611   3.473   0.471   4.550  1.4682 -0.6189 -2.7137
 4244SOL    HW224612   3.347   0.481   4.467 -0.1808  0.7048 -0.0529
 4245SOL     OW24613   3.063   4.435  19.241  0.0456  0.0160 -0.1920
 4245SOL    HW124614   3.040   4.399  19.326 -0.6049 -0.2826 -0.4904
 4245SOL    HW224615   3.141   4.387  19.214  0.6320  0.5811  0.5427
 4246SOL     OW24616   4.374   1.879   0.841 -0.0075  0.4646  0.1742
 4246SOL    HW124617   4.469   1.888   0.851  0.1943 -1.1665 -0.3650
 4246SOL    HW224618   4.363   1.806   0.781 -1.5506  1.9260 -1.3345
 4247SOL     OW24619   2.007   2.199  11.546  0.3297  0.0189 -0.3309
 4247SOL    HW124620   1.953   2.120  11.545 -0.7466  0.7568 -0.3238
 4247SOL    HW224621   1.965   2.257  11.482  0.5206  0.9912  0.4322
 4248SOL     OW24622   2.991   2.227  18.463 -0.2904 -0.3886  0.5561
 4248SOL    HW124623   2.920   2.287  18.485  0.6808  0.4372  1.4114
 4248SOL    HW224624   3.033   2.206  18.546  2.2916  1.3973 -0.2710
 4249SOL     OW24625   1.834   2.533  16.190 -0.3945  0.6064 -0.3425
 4249SOL    HW124626   1.929   2.517  16.192 -0.5385  0.0773  1.8122
 4249SOL    HW224627   1.814   2.540  16.096  1.5912 -0.4183 -0.8620
 4250SOL     OW24628   4.482   4.682   4.955 -0.3983  0.0215  0.2529
 4250SOL    HW124629   4.404   4.724   4.992 -1.7649 -2.7240  0.5291
 4250SOL    HW224630   4.499   4.609   5.015  2.1183  0.3679 -0.0745
 4251SOL     OW24631   1.279   2.644  17.143  0.0312  0.5290 -0.5079
 4251SOL    HW124632   1.359   2.666  17.191 -0.2097 -0.9051  0.5325
 4251SOL    HW224633   1.304   2.568  17.090 -0.5229  0.3568 -0.5169
 4252SOL     OW24634   2.354   0.760  21.039 -0.2649 -0.0114 -0.0616
 4252SOL    HW124635   2.378   0.730  21.127 -1.2879 -1.0288 -0.1318
 4252SOL    HW224636   2.405   0.704  20.980 -0.2475  0.0928 -0.1470
 4253SOL     OW24637   1.486   3.717   2.532  0.2796 -0.3340 -0.5728
 4253SOL    HW124638   1.491   3.639   2.587 -1.3792  1.1373  1.6404
 4253SOL    HW224639   1.516   3.789   2.588  0.4561  0.8395 -2.1630
 4254SOL     OW24640   3.819   3.056   4.593 -0.1016  0.1514  0.5567
 4254SOL    HW124641   3.836   2.983   4.652  2.3045 -0.5807 -1.0267
 4254SOL    HW224642   3.784   3.125   4.649  1.8428 -0.6599  2.7806
 4255SOL     OW24643   4.315   2.287  19.684  0.1341  0.1557  0.0518
 4255SOL    HW124644   4.258   2.292  19.608 -1.7000 -0.2718  1.4014
 4255SOL    HW224645   4.283   2.212  19.734  1.3469  0.4091  1.2419
 4256SOL     OW24646   3.727   2.179   1.506 -0.2084  0.6288 -0.3096
 4256SOL    HW124647   3.635   2.157   1.497 -0.0668  1.1835 -3.3512
 4256SOL    HW224648   3.773   2.100   1.477  0.2538  0.9117 -0.3504
 4257SOL     OW24649   4.084   0.867  20.625  0.4204 -0.3986  0.1838
 4257SOL    HW124650   4.037   0.934  20.577 -0.0629  0.3324  1.6710
 4257SOL    HW224651   4.167   0.908  20.650  0.6972 -0.7934 -0.0889
 4258SOL     OW24652   0.658   4.291  14.763  0.3919 -0.3178 -0.0863
 4258SOL    HW124653   0.701   4.307  14.679 -1.1674 -1.8034 -1.1808
 4258SOL    HW224654   0.669   4.197  14.778  1.2371  0.0646  1.6916
 4259SOL     OW24655   3.127   0.125  12.906  0.4538 -0.5022  0.1747
 4259SOL    HW124656   3.042   0.110  12.947  0.1349 -0.8158 -0.6208
 4259SOL    HW224657   3.168   0.039  12.902 -0.0529 -0.6636 -1.3960
 4260SOL     OW24658   1.040   3.272  16.820 -0.3069 -0.6233  0.0268
 4260SOL    HW124659   1.114   3.225  16.857  0.2239 -0.6408 -1.0533
 4260SOL    HW224660   1.054   3.363  16.845 -0.3995 -0.7666  0.5992
 4261SOL     OW24661   1.166   0.585  12.088  0.0578  0.3608  0.3293
 4261SOL    HW124662   1.219   0.629  12.021 -1.5627  2.3340  0.3475
 4261SOL    HW224663   1.089   0.553  12.040  0.1688 -0.5607  0.7515
 4262SOL     OW24664   3.703   0.452   2.975  0.5973  0.2872 -0.2611
 4262SOL    HW124665   3.718   0.379   2.914 -0.9613 -0.9836  0.8982
 4262SOL    HW224666   3.644   0.510   2.928 -0.0482 -0.3563 -0.2521
 4263SOL     OW24667   3.943   2.361  10.641  0.0162  0.3854  0.6761
 4263SOL    HW124668   3.890   2.440  10.630  1.1826  0.9898 -0.5203
 4263SOL    HW224669   3.959   2.330  10.552 -0.1376 -0.9979  1.1329
 4264SOL     OW24670   0.602   0.840   5.244  0.1696 -0.4529  0.2295
 4264SOL    HW124671   0.561   0.920   5.214 -0.6352 -0.6855  0.6847
 4264SOL    HW224672   0.551   0.770   5.203  2.4887 -0.6742 -2.2004
 4265SOL     OW24673   3.264   0.592  18.327 -0.2560 -0.0937  0.0478
 4265SOL    HW124674   3.211   0.556  18.398  2.1981 -2.8239  0.4660
 4265SOL    HW224675   3.347   0.617  18.368  1.6349 -2.8192 -2.1020
 4266SOL     OW24676   0.218   1.618   6.352 -0.2382  0.2806  0.5108
 4266SOL    HW124677   0.174   1.674   6.416 -1.8417 -0.5079  0.0972
 4266SOL    HW224678   0.170   1.634   6.270  0.2963 -0.5118  0.0454
 4267SOL     OW24679   0.042   1.122   4.969  0.2737  0.2337 -0.4405
 4267SOL    HW124680   0.097   1.044   4.958 -1.5771 -0.9918 -1.0562
 4267SOL    HW224681   4.737   1.100   4.924 -0.4217  2.3601 -0.2172
 4268SOL     OW24682   1.085   4.319  10.868  0.0614 -0.0685 -0.1652
 4268SOL    HW124683   1.145   4.393  10.875 -1.4198  1.0855  0.4400
 4268SOL    HW224684   1.078   4.302  10.775 -1.1854  1.8543 -0.4228
 4269SOL     OW24685   3.161   2.697   7.681 -0.0882  0.1776 -0.1949
 4269SOL    HW124686   3.152   2.787   7.648 -1.3103  0.3833  0.7357
 4269SOL    HW224687   3.236   2.701   7.740  2.7673 -0.4145 -3.7878
 4270SOL     OW24688   0.973   1.454  11.004 -0.2087 -0.3765  0.1789
 4270SOL    HW124689   0.974   1.470  11.098  1.3287  0.1491  0.0699
 4270SOL    HW224690   1.019   1.529  10.967 -1.6889 -0.0759 -1.0695
 4271SOL     OW24691   1.512   1.227  19.714 -0.1749 -0.1760 -0.7741
 4271SOL    HW124692   1.570   1.243  19.788  2.2815 -2.3541 -2.2121
 4271SOL    HW224693   1.456   1.155  19.742  1.1117 -1.3554 -1.2333
 4272SOL     OW24694   2.696   3.630  18.571  0.4005 -0.2872 -0.1169
 4272SOL    HW124695   2.706   3.536  18.562 -0.9393 -0.5610  1.2758
 4272SOL    HW224696   2.607   3.642  18.605  0.7067  1.4421  0.0928
 4273SOL     OW24697   0.315   0.385  19.009 -0.0653 -0.5974 -0.5551
 4273SOL    HW124698   0.254   0.398  18.936 -2.0569  1.5807  1.4867
 4273SOL    HW224699   0.390   0.441  18.988 -0.0641 -0.9824 -1.5780
 4274SOL     OW24700   0.440   4.025  17.247  0.2923  0.3447  0.3754
 4274SOL    HW124701   0.430   3.934  17.273  1.3224  0.2753  0.5557
 4274SOL    HW224702   0.370   4.072  17.292  0.9759 -0.0495  1.8713
 4275SOL     OW24703   1.919   0.332   4.949  0.0975 -0.5479  0.5318
 4275SOL    HW124704   1.949   0.320   4.859  1.0932 -0.8671  0.8919
 4275SOL    HW224705   1.836   0.285   4.954  0.3034 -0.9748 -0.0810
 4276SOL     OW24706   2.539   1.971  20.842  0.2855  0.1673  0.1529
 4276SOL    HW124707   2.553   1.954  20.935  1.1083 -2.0028 -0.3692
 4276SOL    HW224708   2.575   2.059  20.827 -0.2015  0.6614  1.9567
 4277SOL     OW24709   3.009   0.492  16.539  0.0366 -0.1096  0.2317
 4277SOL    HW124710   3.003   0.397  16.549 -2.6784 -0.1340 -1.3711
 4277SOL    HW224711   2.975   0.527  16.621  1.4959 -0.5325  1.0141
 4278SOL     OW24712   3.938   1.737   9.370 -0.4994  0.1353  0.4426
 4278SOL    HW124713   3.958   1.660   9.424 -0.5800  0.0797  0.3939
 4278SOL    HW224714   4.016   1.749   9.316 -0.8393 -0.4570 -0.1915
 4279SOL     OW24715   2.635   3.875  11.085  0.0549  0.3443 -0.2111
 4279SOL    HW124716   2.574   3.946  11.063 -0.4819 -0.1610 -0.3459
 4279SOL    HW224717   2.605   3.801  11.033 -0.1353 -0.3419  0.8786
 4280SOL     OW24718   0.822   0.640  18.557 -0.1547 -0.2218 -0.3976
 4280SOL    HW124719   0.893   0.592  18.513 -0.4028 -0.3836 -0.6230
 4280SOL    HW224720   0.752   0.575  18.567  0.2655 -0.4512  1.1294
 4281SOL     OW24721   0.600   2.955   3.199 -0.4072  0.4548  0.4854
 4281SOL    HW124722   0.585   2.863   3.221 -0.3663  0.6688  1.4179
 4281SOL    HW224723   0.568   2.964   3.109 -0.4889 -0.4503  0.4241
 4282SOL     OW24724   4.038   3.544  10.191  0.1261  0.1537  0.0019
 4282SOL    HW124725   4.004   3.476  10.249 -2.0959  0.8925 -0.4257
 4282SOL    HW224726   4.052   3.620  10.247 -2.1911  0.9242 -0.4440
 4283SOL     OW24727   4.369   3.157   4.691 -0.0987 -0.1928  0.0875
 4283SOL    HW124728   4.435   3.147   4.622 -0.3634 -0.9880 -0.0483
 4283SOL    HW224729   4.391   3.089   4.755  0.5676  0.9956  1.1209
 4284SOL     OW24730   3.262   2.215   4.821 -0.1109  0.0965  0.0225
 4284SOL    HW124731   3.257   2.276   4.748  1.8046  1.4675  1.0160
 4284SOL    HW224732   3.175   2.177   4.828 -0.2403 -0.1616 -3.0841
 4285SOL     OW24733   4.524   0.131  19.454  0.5577  0.0991 -0.1689
 4285SOL    HW124734   4.522   0.068  19.526 -1.4706  1.5820  1.0421
 4285SOL    HW224735   4.617   0.152  19.444  0.8510 -0.2092  1.9137
 4286SOL     OW24736   2.462   1.721   5.656 -0.0928  0.5407 -0.1123
 4286SOL    HW124737   2.512   1.798   5.627  0.0056  0.8586  0.9290
 4286SOL    HW224738   2.372   1.752   5.662 -0.6017 -0.3190 -3.0803
 4287SOL     OW24739   0.840   3.140   3.575 -0.0106  0.0614  0.4186
 4287SOL    HW124740   0.843   3.055   3.619  0.3404  0.0103  0.2896
 4287SOL    HW224741   0.878   3.125   3.489  1.9975  0.8168  1.1689
 4288SOL     OW24742   1.819   2.055  14.143 -0.4313 -0.2483 -0.2371
 4288SOL    HW124743   1.898   2.095  14.178  0.2966 -1.6128 -0.2963
 4288SOL    HW224744   1.763   2.040  14.219 -0.1296 -0.3915 -0.0452
 4289SOL     OW24745   4.655   1.062   1.146 -0.1811  0.0443  0.0329
 4289SOL    HW124746   4.711   1.055   1.223 -0.4880 -1.3609  0.1359
 4289SOL    HW224747   4.590   1.129   1.169 -0.3482 -0.4655  1.0453
 4290SOL     OW24748   1.368   2.280   2.456  0.0875  0.7430  0.1238
 4290SOL    HW124749   1.323   2.293   2.373 -0.5275 -0.4345  0.2699
 4290SOL    HW224750   1.336   2.350   2.513  0.0814  1.2029 -0.4451
 4291SOL     OW24751   0.210   2.960  13.611 -0.0407  0.1266  0.1628
 4291SOL    HW124752   0.257   3.025  13.663  0.1280  0.0041  0.1608
 4291SOL    HW224753   0.150   2.918  13.672 -0.8628  0.9817 -0.0470
 4292SOL     OW24754   2.842   2.945  16.099 -0.0576  0.2579  0.0886
 4292SOL    HW124755   2.811   3.035  16.106 -1.2722 -0.3782  2.7139
 4292SOL    HW224756   2.918   2.941  16.158  2.1816  0.5430 -2.7527
 4293SOL     OW24757   0.320   1.849  20.721 -0.2142  1.0677 -0.4285
 4293SOL    HW124758   0.257   1.854  20.794 -0.8232  0.3969 -0.9150
 4293SOL    HW224759   0.282   1.906  20.654 -1.1432 -0.6936 -1.3783
 4294SOL     OW24760   1.885   2.882  15.509  0.0117 -0.3326 -0.1900
 4294SOL    HW124761   1.936   2.874  15.590  1.2797  0.8735 -0.8761
 4294SOL    HW224762   1.800   2.913  15.537  0.4382  0.0321  0.6927
 4295SOL     OW24763   2.095   4.267   7.807  0.1940  0.0449 -0.0029
 4295SOL    HW124764   2.083   4.304   7.895  0.1725 -1.4907  0.6483
 4295SOL    HW224765   2.007   4.237   7.782 -0.1117  1.9556 -1.2207
 4296SOL     OW24766   0.077   2.988   2.814  0.0673  0.3230  0.4477
 4296SOL    HW124767   0.049   2.910   2.862  0.2077 -0.4411 -0.7255
 4296SOL    HW224768   4.776   3.017   2.766  0.6826 -0.5258 -1.0642
 4297SOL     OW24769   3.087   3.301   6.270 -0.7976  0.3596  0.3856
 4297SOL    HW124770   3.077   3.250   6.190  0.7565  0.5068  0.1080
 4297SOL    HW224771   3.067   3.239   6.341 -0.5125 -0.2040 -0.0291
 4298SOL     OW24772   3.740   1.792  20.738  0.0177  0.2249 -0.4032
 4298SOL    HW124773   3.831   1.787  20.767  0.0476 -2.9657 -1.1177
 4298SOL    HW224774   3.735   1.876  20.692  2.9846 -0.3522 -1.7751
 4299SOL     OW24775   3.140   3.262  16.108 -0.2023  0.7367 -0.1032
 4299SOL    HW124776   3.199   3.256  16.033  0.8051  1.1568  0.6532
 4299SOL    HW224777   3.099   3.348  16.100  0.7723  1.2531  0.4719
 4300SOL     OW24778   2.633   3.289   0.356 -0.2792 -0.6771  0.2269
 4300SOL    HW124779   2.588   3.206   0.341 -0.2085 -0.8448  0.9426
 4300SOL    HW224780   2.713   3.264   0.402 -0.4483 -0.1697  0.7880
 4301SOL     OW24781   1.669   1.403  21.172 -0.2596 -0.0583 -0.3757
 4301SOL    HW124782   1.688   1.363  21.087 -0.8146  0.0255 -0.5430
 4301SOL    HW224783   1.604   1.471  21.153  0.5496  0.8058 -0.0629
 4302SOL     OW24784   1.007   3.113  15.578 -0.4794  0.0161  0.1344
 4302SOL    HW124785   1.036   3.022  15.570  0.5473  0.4425 -0.9681
 4302SOL    HW224786   1.088   3.164  15.585 -1.0384  0.8961  0.2435
 4303SOL     OW24787   2.426   1.018   2.984  0.4159 -0.2984 -0.0165
 4303SOL    HW124788   2.502   1.047   3.035  2.7306  0.9880 -4.1790
 4303SOL    HW224789   2.458   0.943   2.935 -0.8814  0.5127 -2.1032
 4304SOL     OW24790   3.556   0.888   1.483  0.3884  0.0588 -0.1529
 4304SOL    HW124791   3.608   0.968   1.491  1.4782 -0.9674  2.6705
 4304SOL    HW224792   3.619   0.820   1.457  0.0494 -0.6844  0.9774
 4305SOL     OW24793   0.300   0.359   4.673 -0.2979 -0.2516  0.3983
 4305SOL    HW124794   0.277   0.452   4.664  0.6463 -0.0292  0.3104
 4305SOL    HW224795   0.283   0.340   4.766 -2.0809 -0.4203  0.0411
 4306SOL     OW24796   2.454   1.070  11.136  0.3028 -0.1994 -0.6698
 4306SOL    HW124797   2.409   1.121  11.204 -1.3104 -1.7395 -0.6031
 4306SOL    HW224798   2.536   1.044  11.178 -1.0503 -1.8336  0.9639
 4307SOL     OW24799   4.238   2.546   2.521 -0.4256 -0.0603  0.0812
 4307SOL    HW124800   4.292   2.571   2.446  1.0883 -2.1425  0.4711
 4307SOL    HW224801   4.293   2.565   2.597 -0.2287 -2.1769  0.4805
 4308SOL     OW24802   2.320   3.857   4.856  0.3540 -0.3571  0.2497
 4308SOL    HW124803   2.258   3.929   4.857  0.7987  0.0290 -0.0604
 4308SOL    HW224804   2.266   3.779   4.868 -0.0085  0.1080  1.6131
 4309SOL     OW24805   3.210   3.485  16.460 -0.4897  0.0524  0.0004
 4309SOL    HW124806   3.184   3.451  16.545 -1.8317 -1.5738 -1.0523
 4309SOL    HW224807   3.162   3.568  16.451  2.4461  1.9985  2.3715
 4310SOL     OW24808   0.094   1.960  14.180 -0.1509  0.2848 -0.4288
 4310SOL    HW124809   0.031   1.954  14.109 -0.2774  0.5171 -0.3357
 4310SOL    HW224810   0.148   1.881  14.171 -2.1260 -1.2435  1.0837
 4311SOL     OW24811   2.766   3.193   1.806  0.9002 -0.4448  0.2340
 4311SOL    HW124812   2.846   3.216   1.853  1.8975 -1.9584 -0.7226
 4311SOL    HW224813   2.695   3.224   1.862  2.1494  0.3477  1.3658
 4312SOL     OW24814   0.223   3.781   4.074 -0.1192  0.4411 -0.3037
 4312SOL    HW124815   0.160   3.853   4.068  1.7904  2.2082  0.5657
 4312SOL    HW224816   0.180   3.707   4.032 -2.8907  1.5738  0.5467
 4313SOL     OW24817   2.357   3.877  19.529 -0.5222 -0.5763 -0.6869
 4313SOL    HW124818   2.273   3.923  19.522  0.1464  0.3926 -2.2590
 4313SOL    HW224819   2.345   3.816  19.602 -3.1370 -1.5184 -1.8911
 4314SOL     OW24820   1.090   0.904   1.318 -0.0905  0.5684 -0.2892
 4314SOL    HW124821   1.058   0.828   1.367 -0.5627  1.7511  1.2239
 4314SOL    HW224822   1.137   0.866   1.244 -1.6883 -1.1975 -0.3973
 4315SOL     OW24823   1.076   1.414  18.083  0.7819  0.1092 -0.3615
 4315SOL    HW124824   1.028   1.487  18.043  0.8106  0.8654  0.9907
 4315SOL    HW224825   1.018   1.383  18.153  1.4196 -0.2234  0.0152
 4316SOL     OW24826   1.323   1.154   2.139 -0.2992  0.4004 -0.2635
 4316SOL    HW124827   1.303   1.166   2.231  0.8615  2.8195 -0.3271
 4316SOL    HW224828   1.254   1.201   2.093  0.4927  1.2190 -0.6066
 4317SOL     OW24829   3.063   2.911   6.261 -0.6879 -0.2129  0.3376
 4317SOL    HW124830   3.113   2.946   6.188 -0.9683  0.2835  0.3805
 4317SOL    HW224831   2.981   2.880   6.222 -1.0198  0.4499  0.5022
 4318SOL     OW24832   4.181   0.770   3.328  0.3646  0.1975 -0.1234
 4318SOL    HW124833   4.157   0.822   3.251 -0.5829 -0.3389 -0.1854
 4318SOL    HW224834   4.176   0.679   3.298  0.8361  0.0241  0.3272
 4319SOL     OW24835   1.583   1.089  21.176 -0.2707 -0.0507  0.1203
 4319SOL    HW124836   1.567   1.037  21.097 -0.9865  1.3366 -0.6484
 4319SOL    HW224837   1.497   1.104   0.017  0.0818 -0.8046  1.2330
 4320SOL     OW24838   2.012   2.436   1.922 -0.2320  0.8182  0.5224
 4320SOL    HW124839   2.066   2.514   1.908  1.7363 -0.9485 -1.6066
 4320SOL    HW224840   2.073   2.363   1.920 -2.3691 -0.9793  0.3723
 4321SOL     OW24841   3.590   3.833  10.288 -0.4450 -0.1459  0.0137
 4321SOL    HW124842   3.646   3.909  10.304 -0.2629 -0.0897 -0.8666
 4321SOL    HW224843   3.501   3.868  10.288 -0.2545  0.3453 -2.0305
 4322SOL     OW24844   0.021   2.206   4.078 -0.0378 -0.1451 -0.3468
 4322SOL    HW124845   4.766   2.285   4.122 -1.4974 -0.2932 -1.1155
 4322SOL    HW224846   4.744   2.136   4.117  1.3204 -0.7593  0.4054
 4323SOL     OW24847   3.914   0.118  21.137  0.5657  0.4683 -0.3114
 4323SOL    HW124848   3.991   0.168  21.110  0.2446  1.0538 -0.1268
 4323SOL    HW224849   3.922   0.035  21.090  0.6450  1.0239 -1.2715
 4324SOL     OW24850   3.195   3.339  10.843  0.3630 -0.3163  0.5104
 4324SOL    HW124851   3.242   3.318  10.923  1.3536  1.5433  0.4317
 4324SOL    HW224852   3.263   3.342  10.775 -0.1425  0.4011  0.0362
 4325SOL     OW24853   2.302   0.890  18.354 -0.2759  0.3945 -0.0854
 4325SOL    HW124854   2.376   0.914  18.410  0.4842  0.4988 -1.1424
 4325SOL    HW224855   2.230   0.875  18.415  0.2558  1.6248  0.8394
 4326SOL     OW24856   3.874   0.829  21.138 -0.2556  0.1635 -0.5098
 4326SOL    HW124857   3.799   0.888  21.148 -0.4741 -0.2742  0.5153
 4326SOL    HW224858   3.918   0.858  21.059 -1.2365  0.7415 -0.8443
 4327SOL     OW24859   2.250   4.635   0.613  0.7098 -0.1614 -0.5330
 4327SOL    HW124860   2.227   4.723   0.642  1.3487 -0.7100  1.6403
 4327SOL    HW224861   2.223   4.578   0.685  0.1054 -1.7642 -2.0207
 4328SOL     OW24862   0.728   4.079   0.147 -0.2002  0.4184  0.0129
 4328SOL    HW124863   0.670   4.024   0.093  1.9750 -1.0856 -0.8221
 4328SOL    HW224864   0.699   4.064   0.237 -1.8887  0.5745 -0.5173
 4329SOL     OW24865   3.552   0.198   0.704 -0.3647  0.8492  0.1735
 4329SOL    HW124866   3.479   0.137   0.718 -0.0574  0.2827 -0.7013
 4329SOL    HW224867   3.512   0.285   0.711 -1.1370  0.5418 -0.4356
 4330SOL     OW24868   3.779   1.194  10.462  0.2920 -0.2895 -0.1287
 4330SOL    HW124869   3.853   1.252  10.478 -0.3531  0.9681 -1.7002
 4330SOL    HW224870   3.783   1.176  10.368 -1.7538  0.2744 -0.3295
 4331SOL     OW24871   1.928   2.723   3.359  0.2885 -0.1480  0.0386
 4331SOL    HW124872   1.861   2.655   3.371 -0.1142  0.0923 -0.8334
 4331SOL    HW224873   1.889   2.802   3.396 -0.6909  0.4420 -2.2661
 4332SOL     OW24874   0.308   2.065  13.564  0.2363 -1.2956 -0.3983
 4332SOL    HW124875   0.401   2.063  13.543  0.4684 -0.4914  0.5485
 4332SOL    HW224876   0.265   2.087  13.482  1.0223  0.2378 -0.3993
 4333SOL     OW24877   0.002   3.311  16.668  0.3242  1.0043 -0.3998
 4333SOL    HW124878   0.018   3.380  16.733 -2.0887  2.0486 -0.8983
 4333SOL    HW224879   4.687   3.326  16.639 -0.1242 -2.2435 -0.6662
 4334SOL     OW24880   4.128   3.065   0.877 -0.1646  0.0107 -0.0601
 4334SOL    HW124881   4.178   3.017   0.943  1.7156  1.5251 -0.3989
 4334SOL    HW224882   4.059   3.108   0.926  0.0478 -0.4734  0.6662
 4335SOL     OW24883   3.949   1.437  20.673  0.4670 -0.1708  0.2511
 4335SOL    HW124884   4.011   1.448  20.601 -0.3767 -0.9696 -0.5967
 4335SOL    HW224885   3.869   1.405  20.631  0.6120 -2.5676  1.7703
 4336SOL     OW24886   1.161   2.156   0.930  0.0007 -0.4545  0.3836
 4336SOL    HW124887   1.237   2.213   0.939 -1.2418  1.0136  1.5378
 4336SOL    HW224888   1.196   2.068   0.943  1.3952  0.2637  1.5128
 4337SOL     OW24889   2.541   2.519   3.545 -0.2821 -0.0634 -0.0319
 4337SOL    HW124890   2.607   2.532   3.613  0.4724  0.4173 -0.8518
 4337SOL    HW224891   2.589   2.479   3.473 -0.8624  0.4182 -0.6898
 4338SOL     OW24892   2.554   0.186   7.278 -0.0886 -0.6001 -0.5742
 4338SOL    HW124893   2.599   0.254   7.227  0.9499 -0.7329  0.1798
 4338SOL    HW224894   2.519   0.127   7.212  0.0471  0.0115 -1.1974
 4339SOL     OW24895   4.496   4.742   3.072 -0.7586 -0.1003  0.1908
 4339SOL    HW124896   4.478   4.657   3.031  2.5294 -1.4165  1.4478
 4339SOL    HW224897   4.468   4.731   3.163  0.9221 -0.2938  0.6941
 4340SOL     OW24898   3.857   0.724   6.709  0.3956  0.3270 -0.1827
 4340SOL    HW124899   3.918   0.780   6.661  0.9832  1.1142  1.5182
 4340SOL    HW224900   3.881   0.734   6.801 -0.0651 -2.0216  0.2030
 4341SOL     OW24901   1.695   0.756   3.211 -0.0336 -0.2869 -0.5677
 4341SOL    HW124902   1.605   0.755   3.178 -0.1760  0.4019 -0.2055
 4341SOL    HW224903   1.707   0.670   3.252 -0.0416 -0.9315 -1.9270
 4342SOL     OW24904   3.761   3.625  12.291 -0.9431 -0.0362  0.0045
 4342SOL    HW124905   3.696   3.654  12.356 -1.5229 -0.1028 -0.5420
 4342SOL    HW224906   3.785   3.705  12.244  0.7793  0.2967  1.4735
 4343SOL     OW24907   1.648   4.772  17.908  1.0121 -0.0051 -0.2718
 4343SOL    HW124908   1.692   4.697  17.867  1.6977  0.1214  0.2268
 4343SOL    HW224909   1.693   0.073  17.872  1.9583  0.0906  1.1020
 4344SOL     OW24910   0.925   0.786  12.907  0.6151  0.1744 -1.1008
 4344SOL    HW124911   0.952   0.695  12.922  0.1078  0.2254  0.1583
 4344SOL    HW224912   0.991   0.838  12.953 -0.6946  0.3494  0.5791
 4345SOL     OW24913   1.606   4.374  19.588 -0.4055 -0.3766  0.2834
 4345SOL    HW124914   1.585   4.392  19.496  1.1447  0.3929  0.0760
 4345SOL    HW224915   1.683   4.317  19.583  0.1035  0.2466  1.1207
 4346SOL     OW24916   3.380   4.486  20.309  0.1901 -0.1079 -0.5345
 4346SOL    HW124917   3.436   4.561  20.329 -0.5782  0.0886  0.8783
 4346SOL    HW224918   3.371   4.440  20.392 -1.7867 -0.1111 -0.7524
 4347SOL     OW24919   0.706   1.390   4.664  0.6982 -0.3131  0.2843
 4347SOL    HW124920   0.653   1.316   4.633  0.6342  0.6661 -1.9390
 4347SOL    HW224921   0.796   1.367   4.640  0.9499 -0.6852  1.5684
 4348SOL     OW24922   4.564   2.283   2.553  0.3033  0.7221  0.0828
 4348SOL    HW124923   4.610   2.205   2.522  1.2431  1.0791  0.5709
 4348SOL    HW224924   4.605   2.355   2.505  1.7556  1.2677  2.1457
 4349SOL     OW24925   4.579   1.089  19.288  0.7029  0.2333  0.3106
 4349SOL    HW124926   4.659   1.041  19.269  0.6410  0.3628 -0.2544
 4349SOL    HW224927   4.600   1.180  19.266  0.6384  0.3793  0.8490
 4350SOL     OW24928   3.240   0.844   2.404  0.7036  0.3152  0.0708
 4350SOL    HW124929   3.150   0.871   2.385  0.8033 -0.1343 -1.0602
 4350SOL    HW224930   3.275   0.817   2.319  2.3991  1.9361  0.2692
 4351SOL     OW24931   2.300   0.395  18.022  0.3434  0.0847  0.3647
 4351SOL    HW124932   2.206   0.399  18.004  0.6294 -3.6346 -1.8461
 4351SOL    HW224933   2.337   0.466  17.970 -1.1024  0.7992  0.3110
 4352SOL     OW24934   1.835   1.648  13.287 -0.5573  0.5185  0.0047
 4352SOL    HW124935   1.830   1.553  13.277  1.4632  0.4725 -0.4870
 4352SOL    HW224936   1.759   1.680  13.239  0.3969 -0.6832 -2.3416
 4353SOL     OW24937   4.081   1.836  16.835 -0.0963 -0.1131  0.1343
 4353SOL    HW124938   4.033   1.753  16.846 -0.6372  0.2699  0.6714
 4353SOL    HW224939   4.068   1.859  16.743 -2.1050  0.6917  0.6100
 4354SOL     OW24940   2.095   2.265  15.383  0.1066  0.4162  0.3888
 4354SOL    HW124941   2.099   2.310  15.468 -0.1468  0.7358  0.2306
 4354SOL    HW224942   2.111   2.334  15.319  3.3888 -0.4029  0.3295
 4355SOL     OW24943   3.365   4.450  16.928  0.0576 -0.3192 -0.4229
 4355SOL    HW124944   3.340   4.503  16.853  1.0865 -2.1649 -2.0586
 4355SOL    HW224945   3.282   4.413  16.960 -0.2893 -0.0916 -1.0610
 4356SOL     OW24946   2.784   4.049  19.791 -0.0698  0.2357 -0.2468
 4356SOL    HW124947   2.759   4.070  19.701 -0.6652 -0.0799 -0.1509
 4356SOL    HW224948   2.703   4.055  19.841  0.3564  0.9275  0.3667
 4357SOL     OW24949   2.389   0.111  13.072  0.4194  0.2965  0.2311
 4357SOL    HW124950   2.378   0.138  13.163  0.1248  0.7962  0.0487
 4357SOL    HW224951   2.301   0.089  13.042  0.3849  0.9947 -0.1968
 4358SOL     OW24952   3.502   4.642  12.184  0.5883 -0.1754 -0.1102
 4358SOL    HW124953   3.551   4.644  12.266  0.5005 -0.4693 -0.0495
 4358SOL    HW224954   3.498   4.733  12.155  1.3374 -0.1765 -0.2166
 4359SOL     OW24955   0.759   4.061   1.569 -0.5885 -0.1173  0.1059
 4359SOL    HW124956   0.739   4.052   1.662 -2.4709  2.5389 -0.0512
 4359SOL    HW224957   0.677   4.037   1.525 -0.3215  0.6468 -0.8056
 4360SOL     OW24958   2.655   1.683  18.438 -0.4943  0.4095 -0.1977
 4360SOL    HW124959   2.727   1.745  18.449  0.4127 -0.7085  0.1636
 4360SOL    HW224960   2.660   1.657  18.346 -0.0783 -0.1163 -0.0247
 4361SOL     OW24961   4.700   2.465   1.714 -0.1460  0.3893  0.6504
 4361SOL    HW124962   4.616   2.423   1.733 -0.4030 -0.2124 -1.8740
 4361SOL    HW224963   4.708   2.533   1.780 -2.6517  0.4848  0.8530
 4362SOL     OW24964   2.626   0.961   5.837  0.1401  0.2723  0.4204
 4362SOL    HW124965   2.576   0.958   5.755 -1.3629  2.6279  1.2637
 4362SOL    HW224966   2.566   0.927   5.903 -0.2726  2.8793  1.3854
 4363SOL     OW24967   1.742   3.354   5.852 -0.4991 -0.4461 -0.3347
 4363SOL    HW124968   1.767   3.264   5.875  0.3236  0.0503  0.7228
 4363SOL    HW224969   1.724   3.396   5.936 -0.0594  0.6178 -0.7739
 4364SOL     OW24970   0.605   3.542  17.597  0.0980  0.1678 -0.0372
 4364SOL    HW124971   0.618   3.534  17.503 -1.2650  0.8258 -0.2780
 4364SOL    HW224972   0.573   3.456  17.624  0.5514 -0.0412 -0.1578
 4365SOL     OW24973   1.321   0.066  19.087  0.2507 -0.3090  0.1417
 4365SOL    HW124974   1.345   0.074  19.179  0.1775 -0.6101  0.1872
 4365SOL    HW224975   1.350   0.148  19.047  0.3630 -0.2168  0.4151
 4366SOL     OW24976   2.866   0.003  18.909 -0.0487 -0.4158 -0.2267
 4366SOL    HW124977   2.884   4.686  18.918  0.5272 -0.3574 -0.7556
 4366SOL    HW224978   2.914   0.029  18.831  1.2537  0.6836  0.9244
 4367SOL     OW24979   4.048   1.029  10.372 -0.4574 -0.0137 -0.1797
 4367SOL    HW124980   4.083   1.059  10.456 -1.8604 -2.0966  1.1632
 4367SOL    HW224981   4.103   0.955  10.348 -0.6826 -0.0478 -0.5897
 4368SOL     OW24982   2.852   3.643   2.481 -0.1257 -1.1684  0.5172
 4368SOL    HW124983   2.856   3.630   2.576  0.8289 -0.2373  0.6037
 4368SOL    HW224984   2.934   3.605   2.448  0.5934  0.5492  0.2985
 4369SOL     OW24985   2.823   0.918   2.831 -0.1665  0.2395  0.0388
 4369SOL    HW124986   2.754   0.984   2.827 -0.7292 -0.4058 -0.9817
 4369SOL    HW224987   2.874   0.942   2.908 -0.6861  1.5501 -0.0160
 4370SOL     OW24988   1.701   0.574  19.214  0.0857  0.2747  0.0219
 4370SOL    HW124989   1.734   0.570  19.303  2.1426 -1.6621 -0.8238
 4370SOL    HW224990   1.699   0.667  19.193  1.2089  0.6348  1.5001
 4371SOL     OW24991   3.129   1.959  14.515 -0.2053 -0.3430  0.0951
 4371SOL    HW124992   3.140   1.879  14.464  0.9435 -0.0118 -0.1612
 4371SOL    HW224993   3.124   2.029  14.449  0.2910 -0.0314  0.3890
 4372SOL     OW24994   0.395   3.817  17.881  0.2046  0.8400  0.4779
 4372SOL    HW124995   0.313   3.814  17.928 -0.3477  0.9653 -0.4708
 4372SOL    HW224996   0.436   3.732  17.897 -0.0980  0.7892  0.9636
 4373SOL     OW24997   1.659   1.478  17.320 -0.4966  0.4352 -0.4372
 4373SOL    HW124998   1.667   1.395  17.274 -1.2865  0.2476 -0.2313
 4373SOL    HW224999   1.620   1.538  17.255  0.0769  0.6434 -0.5878
 4374SOL     OW25000   0.278   1.113  20.827  0.4788 -0.1985  0.7644
 4374SOL    HW125001   0.306   1.110  20.736  0.1650 -0.2315  0.6689
 4374SOL    HW225002   0.225   1.193  20.833 -0.3034 -0.7044  0.6891
 4375SOL     OW25003   0.795   3.646  19.246 -0.0846  0.2425  0.1357
 4375SOL    HW125004   0.768   3.564  19.204  0.4076 -0.4744  1.2259
 4375SOL    HW225005   0.714   3.697  19.254 -0.4691 -0.3375 -0.0904
 4376SOL     OW25006   4.263   1.239  18.678 -0.4247  0.0744  0.2388
 4376SOL    HW125007   4.185   1.195  18.646 -0.0676 -1.3517  1.3129
 4376SOL    HW225008   4.330   1.170  18.682  0.0934  0.6834  2.0777
 4377SOL     OW25009   1.759   3.036  19.866  0.0891 -0.1044 -0.0759
 4377SOL    HW125010   1.664   3.018  19.867  0.2617 -0.9943  0.6301
 4377SOL    HW225011   1.775   3.075  19.780 -0.5835 -1.8099 -0.9841
 4378SOL     OW25012   3.616   4.254  13.392  0.1638 -0.0632  0.3290
 4378SOL    HW125013   3.610   4.338  13.346  2.4675 -0.5875 -0.9044
 4378SOL    HW225014   3.656   4.194  13.329 -2.8558 -2.4866  0.6687
 4379SOL     OW25015   0.296   2.844   9.395 -0.4777  0.2568 -0.9398
 4379SOL    HW125016   0.222   2.885   9.350  1.0696  0.8304 -2.9397
 4379SOL    HW225017   0.322   2.909   9.461 -0.2437  1.0407 -1.8044
 4380SOL     OW25018   4.573   3.207  18.682  0.2716  0.5031 -0.1046
 4380SOL    HW125019   4.555   3.124  18.724 -0.6571  0.2840 -0.9366
 4380SOL    HW225020   4.656   3.194  18.636 -1.3497 -0.8426 -2.6266
 4381SOL     OW25021   4.343   3.054   2.068  0.5683 -0.2752  0.6776
 4381SOL    HW125022   4.425   3.066   2.019  0.8207  2.7600  1.8836
 4381SOL    HW225023   4.277   3.099   2.015  0.0356 -0.8699  0.8323
 4382SOL     OW25024   3.865   1.455   1.377  0.0569  0.0769  0.0656
 4382SOL    HW125025   3.865   1.372   1.425  0.5575  0.9835  1.6507
 4382SOL    HW225026   3.812   1.438   1.299 -0.6604 -1.4440  0.8852
 4383SOL     OW25027   2.550   2.210  11.569 -0.2396  0.2995 -0.7086
 4383SOL    HW125028   2.642   2.231  11.558  0.1555  0.5859  3.1537
 4383SOL    HW225029   2.549   2.120  11.604 -1.4278  0.1214 -1.1798
 4384SOL     OW25030   0.155   0.956  16.168 -0.0892 -0.4376 -0.0053
 4384SOL    HW125031   0.248   0.969  16.184  0.1200 -0.5786 -1.1617
 4384SOL    HW225032   0.150   0.906  16.087 -1.0822 -3.0083  1.6358
 4385SOL     OW25033   3.497   0.086  19.548 -0.0660 -0.0280 -0.3081
 4385SOL    HW125034   3.406   0.117  19.550  0.0762  0.4297 -0.9540
 4385SOL    HW225035   3.546   0.155  19.592 -0.2766 -1.0836  1.5623
 4386SOL     OW25036   4.052   2.527  16.062  0.2819  0.6184 -0.5519
 4386SOL    HW125037   4.069   2.613  16.101  0.0251  0.1323  0.6072
 4386SOL    HW225038   3.985   2.545  15.995 -0.0529  1.2510 -0.0525
 4387SOL     OW25039   1.217   3.388   0.531  0.4865 -0.4352  0.0300
 4387SOL    HW125040   1.203   3.421   0.442  0.9270  0.1777  0.1846
 4387SOL    HW225041   1.301   3.342   0.526  0.5279 -0.3702  0.1399
 4388SOL     OW25042   3.113   2.856  10.687  0.1770  0.3037 -0.3903
 4388SOL    HW125043   3.171   2.931  10.699  0.2669  0.0728  0.5960
 4388SOL    HW225044   3.025   2.891  10.704  0.0925  0.4889 -1.2002
 4389SOL     OW25045   1.816   4.738  14.105 -0.2853 -0.2430  0.4157
 4389SOL    HW125046   1.852   0.047  14.078  0.8337 -0.8368  0.0164
 4389SOL    HW225047   1.744   4.723  14.044 -1.3225  1.0283  1.3144
 4390SOL     OW25048   2.072   1.061  20.937 -0.6550  0.6469 -0.2285
 4390SOL    HW125049   2.096   0.989  20.880  0.6674  0.3109  0.7648
 4390SOL    HW225050   2.054   1.134  20.877  0.5999  0.2600 -1.0763
 4391SOL     OW25051   4.493   2.922  17.408 -0.7978  0.1085 -0.2678
 4391SOL    HW125052   4.581   2.887  17.394  0.0643  2.4671 -0.6857
 4391SOL    HW225053   4.464   2.883  17.491  0.4095 -1.1096 -0.4244
 4392SOL     OW25054   4.584   2.698   4.082 -0.2295  0.3387  0.1033
 4392SOL    HW125055   4.548   2.731   4.164 -1.1928  1.4335 -0.7654
 4392SOL    HW225056   4.565   2.766   4.018  1.3642 -0.1006 -0.8302
 4393SOL     OW25057   3.913   4.710  15.116  0.2059  0.3121  0.6485
 4393SOL    HW125058   3.832   4.666  15.146  0.7721 -0.9106  0.3999
 4393SOL    HW225059   3.895   4.735  15.026  1.0172 -2.2530 -0.2459
 4394SOL     OW25060   4.469   3.982   8.968  0.2636 -0.4909  0.3397
 4394SOL    HW125061   4.414   3.904   8.957  0.2479 -0.4388  0.0363
 4394SOL    HW225062   4.516   3.990   8.885  1.5134 -1.1340  0.9861
 4395SOL     OW25063   3.657   0.405   1.004 -0.6407  0.3435  0.2102
 4395SOL    HW125064   3.630   0.473   0.942 -1.2821  0.7499  0.9382
 4395SOL    HW225065   3.576   0.358   1.026 -0.3333 -0.1178  0.3627
 4396SOL     OW25066   1.834   4.513  20.555  0.1476  0.7074  0.0588
 4396SOL    HW125067   1.805   4.457  20.483  1.8109  0.9610 -0.8255
 4396SOL    HW225068   1.857   4.453  20.625 -2.6232  0.5207  0.7836
 4397SOL     OW25069   2.915   1.654  18.786  0.6771 -0.0456 -0.5627
 4397SOL    HW125070   2.916   1.680  18.694 -3.0772 -1.5552 -1.0284
 4397SOL    HW225071   2.959   1.569  18.788 -0.7941 -0.8023 -1.1642
 4398SOL     OW25072   3.035   0.544   3.674  0.3161 -0.1547  0.1256
 4398SOL    HW125073   2.942   0.564   3.661  0.2051  0.3995  1.7383
 4398SOL    HW225074   3.071   0.537   3.586 -1.1400  0.2137 -0.4979
 4399SOL     OW25075   1.432   0.132   2.035 -0.6020 -0.1606  0.3737
 4399SOL    HW125076   1.437   0.107   2.127  2.9002  0.0805  0.2713
 4399SOL    HW225077   1.399   0.053   1.991 -0.4295 -0.9015  1.5657
 4400SOL     OW25078   2.129   1.954   3.055  0.4577 -0.2711  0.3708
 4400SOL    HW125079   2.097   2.011   3.125 -1.5396 -0.0858 -0.6868
 4400SOL    HW225080   2.055   1.946   2.995  2.4798  0.3792 -2.2183
 4401SOL     OW25081   4.531   4.199   3.259 -0.3210 -0.2472  0.5076
 4401SOL    HW125082   4.614   4.245   3.267  0.7085 -1.7628 -1.4488
 4401SOL    HW225083   4.470   4.248   3.315  1.2432  2.3338 -0.0757
 4402SOL     OW25084   2.011   2.247  17.464 -0.3215 -0.2430  0.1837
 4402SOL    HW125085   2.073   2.320  17.474  0.5596 -1.0498  0.6226
 4402SOL    HW225086   2.064   2.176  17.429 -1.0284 -0.9064  0.4665
 4403SOL     OW25087   3.592   3.919  20.024  0.3481 -0.3842 -0.0376
 4403SOL    HW125088   3.584   3.844  19.965 -0.0723 -1.0793  0.9036
 4403SOL    HW225089   3.648   3.981  19.977  0.6404 -1.2643 -0.8450
 4404SOL     OW25090   4.572   1.210   5.540  0.1962  0.2202  0.0450
 4404SOL    HW125091   4.590   1.155   5.616 -0.8281 -0.2997 -0.0814
 4404SOL    HW225092   4.622   1.171   5.469 -0.3685 -0.4378  0.0040
 4405SOL     OW25093   3.513   1.953   2.327  0.3482  0.0951  0.8591
 4405SOL    HW125094   3.471   2.038   2.331  0.7820  0.5031 -3.5004
 4405SOL    HW225095   3.441   1.890   2.335 -0.3490  0.8329  0.3840
 4406SOL     OW25096   3.061   2.335   5.341 -0.4738 -0.1317  0.1239
 4406SOL    HW125097   3.034   2.372   5.425 -0.0371 -1.7861  0.9973
 4406SOL    HW225098   3.017   2.389   5.275 -1.2512  0.8162  1.4278
 4407SOL     OW25099   3.851   2.069  17.054  0.1341 -0.3439  0.4784
 4407SOL    HW125100   3.907   2.083  17.131  2.3360 -1.6601 -0.8911
 4407SOL    HW225101   3.836   2.157  17.020  2.1893 -0.0490  0.2898
 4408SOL     OW25102   0.700   2.555  16.002 -0.0313 -0.0311 -0.3694
 4408SOL    HW125103   0.654   2.607  16.068  1.7990  0.9011  0.1708
 4408SOL    HW225104   0.633   2.495  15.968 -0.9743 -0.4686  2.2771
 4409SOL     OW25105   3.840   0.727   2.793 -0.3003 -0.3690 -0.0116
 4409SOL    HW125106   3.820   0.656   2.732 -0.8699 -2.6979  2.8415
 4409SOL    HW225107   3.754   0.764   2.814 -0.4301 -1.7711  1.9771
 4410SOL     OW25108   1.445   0.855   3.066  0.3120 -0.5065 -0.3492
 4410SOL    HW125109   1.445   0.769   3.024 -0.1565 -0.8545  0.3415
 4410SOL    HW225110   1.398   0.912   3.005  1.1642 -0.6016 -1.0863
 4411SOL     OW25111   0.316   4.687   8.384 -0.1499 -0.4707 -0.3900
 4411SOL    HW125112   0.392   4.731   8.422  0.2172 -1.6226  0.1982
 4411SOL    HW225113   0.243   4.747   8.401  0.5047  0.3089 -0.3452
 4412SOL     OW25114   2.463   4.075  20.143 -0.3110  0.1289  0.9076
 4412SOL    HW125115   2.396   4.012  20.167 -0.5058 -0.5449 -1.3512
 4412SOL    HW225116   2.415   4.154  20.118 -0.2324  0.0429  0.4685
 4413SOL     OW25117   3.200   1.084  20.611 -0.1648  0.0811 -0.5941
 4413SOL    HW125118   3.203   1.029  20.689 -1.3444  1.4044  0.3724
 4413SOL    HW225119   3.128   1.049  20.559  0.2679 -0.4471 -0.8451
 4414SOL     OW25120   4.695   3.859   3.719 -0.0431  0.0594  0.3860
 4414SOL    HW125121   4.668   3.767   3.707  0.6036  0.0914 -1.2786
 4414SOL    HW225122   0.014   3.856   3.719 -0.0240  0.8155 -0.2565
 4415SOL     OW25123   3.565   3.913   4.874  0.5012 -0.8483  0.1101
 4415SOL    HW125124   3.547   3.993   4.924  2.2348 -0.6396  0.4219
 4415SOL    HW225125   3.577   3.845   4.941 -1.0266 -1.3682 -0.1577
 4416SOL     OW25126   1.322   3.144  21.064  0.0698  0.1906  0.0177
 4416SOL    HW125127   1.334   3.238  21.079 -3.0627  0.7804 -1.1772
 4416SOL    HW225128   1.278   3.113  21.144  1.0952 -0.2415  0.4077
 4417SOL     OW25129   4.496   2.420   5.444  0.1234 -0.4931 -0.1483
 4417SOL    HW125130   4.584   2.457   5.440  1.3196 -3.2370  0.3915
 4417SOL    HW225131   4.467   2.417   5.353  0.1396  1.5151 -0.2109
 4418SOL     OW25132   0.691   4.305  16.536  0.0590  0.4504  0.0582
 4418SOL    HW125133   0.687   4.233  16.599 -4.2596  0.3949 -0.2775
 4418SOL    HW225134   0.732   4.266  16.458  1.0353 -0.7152  1.1580
 4419SOL     OW25135   3.395   4.484   9.563 -0.2027 -0.0686 -0.3703
 4419SOL    HW125136   3.354   4.564   9.595  1.7425  0.4652  0.8009
 4419SOL    HW225137   3.378   4.419   9.631  2.7057  0.6992  1.1018
 4420SOL     OW25138   1.025   0.282   0.712  0.1262 -0.2581  0.0093
 4420SOL    HW125139   1.079   0.203   0.720 -0.0289 -0.4325 -0.6363
 4420SOL    HW225140   1.029   0.303   0.619 -0.3260  0.1498  0.0849
 4421SOL     OW25141   1.670   2.937   0.393  0.2218 -0.2170  0.0679
 4421SOL    HW125142   1.759   2.903   0.403  0.6789  1.1388  0.7066
 4421SOL    HW225143   1.621   2.866   0.352  1.2523 -1.5019  1.0647
 4422SOL     OW25144   2.799   2.650  10.572  0.0649 -0.1443  0.0485
 4422SOL    HW125145   2.805   2.739  10.607 -0.3847  0.0995 -0.4960
 4422SOL    HW225146   2.881   2.636  10.527 -0.4619  0.5274 -1.1241
 4423SOL     OW25147   4.536   3.382   7.621 -0.2012 -0.3038 -0.5274
 4423SOL    HW125148   4.466   3.382   7.555  0.5667 -0.5827 -1.3412
 4423SOL    HW225149   4.490   3.367   7.704 -1.0746 -0.7761 -1.0909
 4424SOL     OW25150   3.725   3.759   3.482 -0.2374 -0.4705  0.5395
 4424SOL    HW125151   3.651   3.698   3.484 -0.0512 -0.7105  0.0314
 4424SOL    HW225152   3.775   3.737   3.562  0.1367 -1.3727  0.0645
 4425SOL     OW25153   3.894   3.581  17.107 -0.1839 -0.1852  0.3340
 4425SOL    HW125154   3.862   3.630  17.031 -2.7798 -2.0100  0.2509
 4425SOL    HW225155   3.972   3.629  17.135 -2.1767  3.4684 -0.3180
 4426SOL     OW25156   1.532   4.339   7.225  0.3055 -0.2369  0.1580
 4426SOL    HW125157   1.505   4.414   7.171  2.2167 -0.8792 -1.7024
 4426SOL    HW225158   1.485   4.265   7.187  1.1339 -0.5727 -0.2156
 4427SOL     OW25159   0.918   0.707  14.165 -0.3268  0.0457 -0.0923
 4427SOL    HW125160   0.869   0.788  14.149  0.4693  0.6072  0.3274
 4427SOL    HW225161   1.004   0.723  14.128  0.0936 -0.3089  0.7392
 4428SOL     OW25162   3.674   2.820  13.452 -0.4588  1.0570  0.5060
 4428SOL    HW125163   3.597   2.846  13.503 -1.0138 -1.4623  0.9125
 4428SOL    HW225164   3.737   2.789  13.516 -0.9864 -1.6805 -0.3180
 4429SOL     OW25165   4.334   2.121  16.152 -0.2770 -0.2457 -0.2187
 4429SOL    HW125166   4.307   2.213  16.158  0.5352 -0.1368  1.9334
 4429SOL    HW225167   4.251   2.072  16.152 -0.7321  0.5577 -2.4258
 4430SOL     OW25168   3.044   2.319   0.985 -0.3780  0.4214  0.7086
 4430SOL    HW125169   2.991   2.259   1.038 -0.3533 -1.5376 -1.4393
 4430SOL    HW225170   3.124   2.332   1.035 -0.4516 -1.2506  1.2519
 4431SOL     OW25171   3.557   1.180  18.252 -0.2189 -0.8001 -0.3286
 4431SOL    HW125172   3.548   1.147  18.341  1.2069 -0.4374 -0.0506
 4431SOL    HW225173   3.631   1.133  18.215 -0.8275 -0.9788 -1.3389
 4432SOL     OW25174   3.810   1.891  16.125  0.1824  0.1017  0.0695
 4432SOL    HW125175   3.744   1.835  16.166 -0.8509  0.1959 -1.4695
 4432SOL    HW225176   3.774   1.979  16.133  2.8723  0.7847  4.5524
 4433SOL     OW25177   2.367   1.399  15.297 -0.1638 -0.3767 -0.1065
 4433SOL    HW125178   2.379   1.481  15.345  0.6299  0.3637 -1.5534
 4433SOL    HW225179   2.420   1.335  15.345 -0.0411  0.1650  0.4834
 4434SOL     OW25180   1.921   1.481   6.158 -0.0850 -0.6998 -0.0681
 4434SOL    HW125181   1.988   1.434   6.207  0.0558 -0.8598 -0.4103
 4434SOL    HW225182   1.969   1.546   6.108 -0.1705 -0.8898 -0.4015
 4435SOL     OW25183   3.830   0.636   0.469 -0.5291 -0.0915  0.6711
 4435SOL    HW125184   3.881   0.590   0.535 -1.0101 -0.7660  0.5718
 4435SOL    HW225185   3.881   0.715   0.450  1.0494 -1.3261 -0.2559
 4436SOL     OW25186   2.568   2.700   6.000 -0.0497  0.0973  0.7213
 4436SOL    HW125187   2.496   2.753   5.965 -0.2203 -0.4118  0.2882
 4436SOL    HW225188   2.558   2.615   5.956  0.7009 -0.0337  0.8039
 4437SOL     OW25189   0.901   2.479   0.995 -0.2266 -0.1391  0.3333
 4437SOL    HW125190   0.983   2.525   0.979 -0.6144  1.4130  2.7008
 4437SOL    HW225191   0.920   2.420   1.067 -1.1721  0.2454  0.9067
 4438SOL     OW25192   4.219   1.035  19.008  0.1589 -0.0441 -0.3814
 4438SOL    HW125193   4.241   1.048  18.916  0.9880  0.8276 -0.0563
 4438SOL    HW225194   4.170   0.953  19.009  0.4533 -0.2391 -1.5552
 4439SOL     OW25195   3.721   0.275   2.772 -0.7085 -0.1663 -0.2822
 4439SOL    HW125196   3.673   0.251   2.693  0.4686 -0.2628 -0.9695
 4439SOL    HW225197   3.785   0.204   2.784 -0.7279 -0.0349  0.6179
 4440SOL     OW25198   0.561   4.732  11.470 -0.6692 -0.0847  0.5163
 4440SOL    HW125199   0.591   4.775  11.550 -0.0168 -1.9892  1.3121
 4440SOL    HW225200   0.574   4.639  11.488 -0.3042 -0.4897 -1.8970
 4441SOL     OW25201   0.219   3.664   0.944 -0.4364 -0.1437  0.4480
 4441SOL    HW125202   0.269   3.740   0.915  0.2130 -0.2032  1.4294
 4441SOL    HW225203   0.281   3.612   0.996 -1.1801 -0.7975  0.6896
 4442SOL     OW25204   0.097   1.710  18.862 -0.2838  0.1046 -0.7367
 4442SOL    HW125205   0.013   1.739  18.898  1.2969  4.4902 -0.6204
 4442SOL    HW225206   0.163   1.752  18.918  2.0274 -0.9025 -2.7161
 4443SOL     OW25207   1.240   0.757   5.238  0.6789 -0.6696 -0.6327
 4443SOL    HW125208   1.150   0.740   5.267  0.7545  0.0116  0.0196
 4443SOL    HW225209   1.295   0.711   5.303  0.8803  2.0715  1.1318
 4444SOL     OW25210   0.949   0.316  20.442  0.4859 -0.4391 -0.6921
 4444SOL    HW125211   0.908   0.230  20.451 -1.2814  0.3874 -0.7837
 4444SOL    HW225212   0.882   0.377  20.473  1.5224  0.9427 -1.2045
 4445SOL     OW25213   3.661   0.880   8.661  0.3749 -0.1863  0.1951
 4445SOL    HW125214   3.621   0.825   8.595  2.4150  0.3570 -1.4904
 4445SOL    HW225215   3.753   0.855   8.662  0.9716  2.0070  0.6176
 4446SOL     OW25216   0.217   2.214   2.845 -0.5736  0.1194 -0.0872
 4446SOL    HW125217   0.162   2.148   2.888  0.0081 -0.3069  0.0067
 4446SOL    HW225218   0.254   2.266   2.916 -2.1418  1.4268 -0.2358
 4447SOL     OW25219   1.894   1.308   3.922 -0.0066  0.5266  0.2743
 4447SOL    HW125220   1.825   1.334   3.983 -0.5036  1.2494 -0.5904
 4447SOL    HW225221   1.940   1.389   3.902 -0.8249  0.5615 -1.5122
 4448SOL     OW25222   2.492   1.466  16.408 -0.3336 -0.4251  0.0223
 4448SOL    HW125223   2.529   1.411  16.477  0.1016 -1.3007 -0.9184
 4448SOL    HW225224   2.557   1.534  16.393 -0.3375 -0.3541  0.3266
 4449SOL     OW25225   3.304   2.661   4.716  0.0058  0.5037  0.1837
 4449SOL    HW125226   3.225   2.714   4.726  0.8332  1.9973 -1.3682
 4449SOL    HW225227   3.359   2.710   4.655  1.8773 -0.8419  0.7885
 4450SOL     OW25228   1.739   1.773   5.556 -0.0414 -0.1001 -0.0818
 4450SOL    HW125229   1.743   1.734   5.644 -0.2557  2.2165  0.9416
 4450SOL    HW225230   1.778   1.859   5.566 -2.6921  1.2830 -1.6331
 4451SOL     OW25231   0.869   4.175  16.365  0.2681  0.5940 -0.0465
 4451SOL    HW125232   0.909   4.250  16.319 -1.0851  0.2095 -1.8468
 4451SOL    HW225233   0.871   4.104  16.300 -0.8158 -0.1987  0.8009
 4452SOL     OW25234   4.023   2.195   3.469 -0.0656  0.0788 -0.2591
 4452SOL    HW125235   4.046   2.110   3.507 -1.4556  0.3039  1.0836
 4452SOL    HW225236   4.103   2.247   3.475  1.1040 -1.4751 -2.0385
 4453SOL     OW25237   2.535   2.439   4.126  0.0602 -0.3696  0.9472
 4453SOL    HW125238   2.502   2.445   4.036  1.2123  2.4893  0.7081
 4453SOL    HW225239   2.596   2.366   4.125 -2.5196 -2.4864  0.1875
 4454SOL     OW25240   2.728   2.280  18.288  0.4759  0.4399 -0.2510
 4454SOL    HW125241   2.686   2.214  18.233  1.0286 -0.5883  0.5814
 4454SOL    HW225242   2.793   2.320  18.230  0.3050  0.1037 -0.6804
 4455SOL     OW25243   4.256   1.893   7.415  0.1426  0.5672 -0.3197
 4455SOL    HW125244   4.171   1.852   7.399  0.7740 -1.6550  1.9770
 4455SOL    HW225245   4.318   1.839   7.367  0.8588 -0.6730  1.9708
 4456SOL     OW25246   0.695   3.389   9.134  0.4998  0.3032  0.0339
 4456SOL    HW125247   0.684   3.371   9.228 -1.0552  1.6664  0.1212
 4456SOL    HW225248   0.671   3.308   9.091 -3.5338  1.2406  0.5688
 4457SOL     OW25249   2.072   2.122   1.711 -0.4200 -0.4185 -0.0548
 4457SOL    HW125250   2.131   2.193   1.687  0.0374 -0.5054  0.8077
 4457SOL    HW225251   2.129   2.046   1.720 -0.7242 -0.6061  0.2894
 4458SOL     OW25252   3.758   4.146   1.030  0.1057  0.4947 -0.1061
 4458SOL    HW125253   3.751   4.057   0.994  0.7388 -0.2983  1.7562
 4458SOL    HW225254   3.840   4.179   0.994  0.0322  0.2204 -0.5413
 4459SOL     OW25255   4.355   2.184   0.520 -0.1297  1.1005  0.2708
 4459SOL    HW125256   4.290   2.254   0.513  1.4643  2.8878  3.6362
 4459SOL    HW225257   4.359   2.163   0.613 -0.2204 -3.1201 -0.6660
 4460SOL     OW25258   2.210   1.098  16.014 -0.1333 -0.7171  0.5452
 4460SOL    HW125259   2.188   1.053  15.932 -0.2532  1.2184 -0.5132
 4460SOL    HW225260   2.125   1.118  16.053 -0.0729 -1.7214  1.1642
 4461SOL     OW25261   1.905   2.665  18.307  0.4085  0.1633  0.4342
 4461SOL    HW125262   1.823   2.660  18.258  0.1024  1.0448  0.8458
 4461SOL    HW225263   1.910   2.757  18.335  3.0560  0.8058 -2.2193
 4462SOL     OW25264   1.231   0.401  20.433 -0.4392 -0.2430  0.6215
 4462SOL    HW125265   1.149   0.353  20.448 -1.0959  0.9063  0.7063
 4462SOL    HW225266   1.221   0.437  20.345  0.4731 -1.1093  0.1735
 4463SOL     OW25267   1.255   3.563   5.822 -0.5179  0.1827 -0.4001
 4463SOL    HW125268   1.343   3.600   5.812  0.4740 -1.9823  0.3708
 4463SOL    HW225269   1.251   3.492   5.758 -1.1913 -0.6826  0.6082
 4464SOL     OW25270   2.728   0.796  16.680  0.1388  0.1374 -0.2240
 4464SOL    HW125271   2.744   0.713  16.637  1.5935  0.4197 -0.2254
 4464SOL    HW225272   2.722   0.775  16.773 -0.0090 -0.0389 -0.2742
 4465SOL     OW25273   2.560   3.945  15.284  0.2324 -0.0180 -0.2522
 4465SOL    HW125274   2.536   4.037  15.277  0.6520  0.1261  0.1902
 4465SOL    HW225275   2.654   3.943  15.265  0.5749 -0.1331  1.5036
 4466SOL     OW25276   2.715   1.129   0.463  0.4533 -0.1675  0.1690
 4466SOL    HW125277   2.664   1.209   0.446  0.4305  0.2685  2.2672
 4466SOL    HW225278   2.650   1.060   0.470  0.0863  0.4634  3.2981
 4467SOL     OW25279   1.623   4.486   1.022 -0.1719 -0.0219  0.6541
 4467SOL    HW125280   1.662   4.486   1.109  0.4632 -0.3567  0.3691
 4467SOL    HW225281   1.547   4.544   1.030  0.0362  0.1571  1.3604
 4468SOL     OW25282   3.688   4.275  16.219  0.5577  0.6173 -0.9117
 4468SOL    HW125283   3.736   4.244  16.142  0.8529  1.8252 -1.2176
 4468SOL    HW225284   3.744   4.254  16.293  0.1872 -0.7237 -1.0073
 4469SOL     OW25285   2.432   3.337  19.909 -0.0584  0.1113 -0.3699
 4469SOL    HW125286   2.500   3.401  19.891 -0.2760  0.1287 -1.1303
 4469SOL    HW225287   2.406   3.304  19.823 -2.2587  1.3985 -0.1905
 4470SOL     OW25288   1.593   4.577   3.076  0.8577 -0.8444  0.1903
 4470SOL    HW125289   1.655   4.649   3.060 -0.3370 -0.2258 -1.6076
 4470SOL    HW225290   1.509   4.621   3.092 -0.3996 -1.9924 -3.5063
 4471SOL     OW25291   4.699   4.020  17.807  0.2970 -0.6798  0.2167
 4471SOL    HW125292   4.772   4.082  17.804  1.4626 -2.0048  1.2047
 4471SOL    HW225293   4.710   3.966  17.728  0.0038 -0.4355  0.0106
 4472SOL     OW25294   1.970   3.812   0.842 -0.0955  0.3626  0.2477
 4472SOL    HW125295   1.933   3.872   0.777  0.8920  0.3764 -0.3002
 4472SOL    HW225296   1.943   3.849   0.927  0.3812  1.4897 -0.0881
 4473SOL     OW25297   2.079   2.287  17.932 -0.2395  0.1007  0.2043
 4473SOL    HW125298   2.085   2.382  17.925  2.3126 -0.1083 -0.5780
 4473SOL    HW225299   2.062   2.271  18.025 -1.8501  1.3805  0.1227
 4474SOL     OW25300   3.900   4.652  19.643  0.6043  0.2281 -0.1501
 4474SOL    HW125301   3.968   4.585  19.644  2.5070  2.1440 -1.3727
 4474SOL    HW225302   3.944   4.730  19.610 -2.2562  1.3842 -1.1867
 4475SOL     OW25303   4.558   1.721   3.037 -0.3953 -0.5355  0.2651
 4475SOL    HW125304   4.511   1.787   3.088  1.1064  0.6413  0.1326
 4475SOL    HW225305   4.569   1.760   2.950 -0.1471 -1.2411 -0.0271
 4476SOL     OW25306   2.435   4.085  19.171  0.2998  0.2690 -0.3729
 4476SOL    HW125307   2.508   4.028  19.150 -1.1002 -0.9895 -1.7572
 4476SOL    HW225308   2.358   4.029  19.168 -0.8790  1.8547 -0.0726
 4477SOL     OW25309   3.112   3.232  20.825  0.0484 -0.5482 -0.2203
 4477SOL    HW125310   3.084   3.146  20.855 -1.2361 -0.3629 -0.9025
 4477SOL    HW225311   3.130   3.220  20.732 -2.8115  0.6052 -0.9092
 4478SOL     OW25312   2.808   1.747   4.194 -0.2518  0.0751 -0.3417
 4478SOL    HW125313   2.810   1.768   4.287  0.1225 -0.9755 -0.1112
 4478SOL    HW225314   2.862   1.668   4.186 -0.5328 -0.0094 -1.3998
 4479SOL     OW25315   4.076   4.628  17.309 -0.3347  0.3749 -0.0641
 4479SOL    HW125316   4.168   4.606  17.322 -0.1321  0.1338 -1.9233
 4479SOL    HW225317   4.065   4.630  17.214 -2.0561  1.1885  0.1513
 4480SOL     OW25318   1.876   1.769   8.971  0.3507 -0.4694 -0.1037
 4480SOL    HW125319   1.961   1.808   8.950 -0.6014  1.7347  0.1373
 4480SOL    HW225320   1.822   1.788   8.895  0.0803 -1.8752 -0.2509
 4481SOL     OW25321   0.897   0.944  16.153  0.1922 -0.1283  0.5657
 4481SOL    HW125322   0.916   0.898  16.072  0.4663  0.9163  0.0372
 4481SOL    HW225323   0.947   0.897  16.220 -0.4932 -1.3401  0.2238
 4482SOL     OW25324   1.750   2.828   3.705 -0.1960 -0.0900  0.9867
 4482SOL    HW125325   1.838   2.866   3.707 -0.3407  0.3224 -0.2646
 4482SOL    HW225326   1.765   2.734   3.697  0.0897  0.3449 -3.6671
 4483SOL     OW25327   4.401   3.535   3.961  0.6515 -0.2028 -0.0138
 4483SOL    HW125328   4.450   3.453   3.967  0.2305 -0.5098 -0.7193
 4483SOL    HW225329   4.349   3.526   3.880  1.0045  0.9650 -0.3739
 4484SOL     OW25330   1.064   3.525  12.215 -0.3374 -0.4954  0.2491
 4484SOL    HW125331   1.151   3.562  12.233  0.0980 -1.8339  0.9272
 4484SOL    HW225332   1.005   3.576  12.270 -0.1863  1.4955 -1.4374
 4485SOL     OW25333   1.082   2.700   1.062 -0.4594 -0.2685 -0.6445
 4485SOL    HW125334   1.116   2.706   1.152 -0.3973 -1.8441 -0.5522
 4485SOL    HW225335   1.153   2.735   1.008  0.3956 -1.3821 -0.2558
 4486SOL     OW25336   1.000   0.343   0.975  0.3301 -0.2745  0.3824
 4486SOL    HW125337   0.952   0.278   1.026 -1.4221  1.0728  0.4852
 4486SOL    HW225338   0.991   0.315   0.884  0.5611 -0.8176  0.5307
 4487SOL     OW25339   4.095   4.417   5.174  0.3317  0.3839  0.3630
 4487SOL    HW125340   4.076   4.323   5.185  0.0615  0.4471  0.4279
 4487SOL    HW225341   4.186   4.426   5.202  0.1657  0.2495  0.9614
 4488SOL     OW25342   2.098   4.228   0.165  0.4915 -0.1353 -0.6182
 4488SOL    HW125343   2.101   4.317   0.131  0.6589 -1.2563 -3.5636
 4488SOL    HW225344   2.023   4.227   0.225  0.0826  1.8031 -1.1064
 4489SOL     OW25345   3.626   4.398   4.312 -0.0170  0.1113  0.1877
 4489SOL    HW125346   3.623   4.489   4.281  2.4448  0.0224 -0.3637
 4489SOL    HW225347   3.674   4.351   4.244 -1.8421 -1.7278  0.1807
 4490SOL     OW25348   0.794   3.078   5.262  0.3535  0.3948 -0.1762
 4490SOL    HW125349   0.800   3.116   5.174 -0.9324  1.9342  0.4162
 4490SOL    HW225350   0.730   3.132   5.307  0.3929 -0.9341  1.4493
 4491SOL     OW25351   0.939   3.182  16.306  0.3031 -0.1507  0.6967
 4491SOL    HW125352   1.004   3.240  16.345  0.5371 -0.9611  1.5311
 4491SOL    HW225353   0.955   3.187  16.212  0.7341  0.6454  0.8168
 4492SOL     OW25354   1.632   3.261  15.192 -0.3029  0.0722 -0.1103
 4492SOL    HW125355   1.598   3.347  15.214 -0.3452  0.2532 -0.9018
 4492SOL    HW225356   1.712   3.253  15.245 -0.1104  0.7327 -0.3096
 4493SOL     OW25357   3.500   1.886   0.191 -0.0495 -0.2967 -0.7851
 4493SOL    HW125358   3.512   1.980   0.179 -1.1570 -0.1811 -0.9985
 4493SOL    HW225359   3.526   1.847   0.108 -1.7603 -0.0017 -1.4468
 4494SOL     OW25360   1.234   4.602  12.362  0.4122  0.4189 -0.2391
 4494SOL    HW125361   1.180   4.625  12.286 -1.5557 -1.3260  0.6632
 4494SOL    HW225362   1.272   4.686  12.390 -2.1587  1.6977 -0.5780
 4495SOL     OW25363   1.246   2.472  15.486 -0.3974  0.2240  0.4112
 4495SOL    HW125364   1.178   2.439  15.545 -2.4439 -1.0644 -2.6331
 4495SOL    HW225365   1.295   2.394  15.459  0.1840  0.7291  0.0160
 4496SOL     OW25366   1.959   3.835   0.440 -0.6766 -0.1267 -0.7370
 4496SOL    HW125367   1.948   3.909   0.500  0.8232  0.5814 -1.3373
 4496SOL    HW225368   1.951   3.873   0.352  1.1215 -0.5236 -1.0622
 4497SOL     OW25369   1.743   4.201   5.932  0.1872 -0.1331 -0.3387
 4497SOL    HW125370   1.657   4.176   5.964 -0.0524  1.6139  0.3595
 4497SOL    HW225371   1.728   4.230   5.842  0.4231 -2.1962 -1.0562
 4498SOL     OW25372   0.035   1.667   0.607  0.1222 -0.6208  0.4217
 4498SOL    HW125373   4.767   1.584   0.627 -1.8121  0.1137 -0.8264
 4498SOL    HW225374   4.752   1.735   0.640 -0.5593  0.4123 -2.8703
 4499SOL     OW25375   4.185   4.517   2.160  0.0913 -0.3477 -0.0712
 4499SOL    HW125376   4.198   4.429   2.123 -0.0926 -0.2196 -0.4439
 4499SOL    HW225377   4.259   4.568   2.127 -0.5383 -0.0120 -0.9557
 4500SOL     OW25378   2.183   3.002  16.477 -0.1967  0.6668 -0.1345
 4500SOL    HW125379   2.230   2.963  16.551  0.1610  0.0329 -0.7000
 4500SOL    HW225380   2.239   2.986  16.402 -0.3604  1.6990 -0.4799
 4501SOL     OW25381   4.220   0.396   7.986  0.2064  0.4972 -0.1908
 4501SOL    HW125382   4.312   0.388   7.964 -0.0810 -0.0931 -1.1497
 4501SOL    HW225383   4.219   0.405   8.082  1.2491  0.4621 -0.1824
 4502SOL     OW25384   2.409   2.261   5.614 -0.2512 -0.1401  0.6623
 4502SOL    HW125385   2.414   2.241   5.521 -0.2362 -0.1353  0.6621
 4502SOL    HW225386   2.338   2.205   5.647 -1.8583  1.6462  0.1928
 4503SOL     OW25387   2.558   3.666  12.534  0.1288 -0.2556 -0.6772
 4503SOL    HW125388   2.636   3.657  12.589  0.8822  1.4919 -1.4313
 4503SOL    HW225389   2.514   3.744  12.569 -1.4322 -1.4167 -0.0615
 4504SOL     OW25390   2.962   2.105   1.222 -0.2525  0.9947  0.1675
 4504SOL    HW125391   2.989   2.159   1.296  1.1757 -0.1323  0.4659
 4504SOL    HW225392   2.979   2.015   1.251  1.0947  0.6108 -1.8693
 4505SOL     OW25393   0.172   2.712  17.674 -0.0079  0.1805 -0.2388
 4505SOL    HW125394   0.231   2.638  17.687  0.7568  0.6087 -1.2394
 4505SOL    HW225395   0.175   2.760  17.757  0.9043  0.1024 -0.2274
 4506SOL     OW25396   4.447   2.926   9.084 -0.0341  0.1713 -0.0166
 4506SOL    HW125397   4.484   2.892   9.003 -0.6451 -1.5372  0.4303
 4506SOL    HW225398   4.353   2.935   9.065  0.0805  1.3698 -0.0486
 4507SOL     OW25399   2.520   1.626   0.115  0.6244 -0.7620  0.1393
 4507SOL    HW125400   2.595   1.566   0.111  0.3382 -1.1988  1.3270
 4507SOL    HW225401   2.447   1.577   0.076  0.4074 -1.1507  1.0452
 4508SOL     OW25402   0.122   3.036   2.059 -0.0462  0.3307 -0.2168
 4508SOL    HW125403   0.047   3.008   2.112 -1.1915 -0.0597 -2.0073
 4508SOL    HW225404   0.194   2.981   2.088 -0.8414 -0.3674  0.4363
 4509SOL     OW25405   0.105   1.389   4.783 -0.4089 -0.1172 -0.7257
 4509SOL    HW125406   0.163   1.319   4.750 -0.2166  0.7991 -2.3394
 4509SOL    HW225407   0.033   1.342   4.825 -0.7554 -1.3084 -2.6197
 4510SOL     OW25408   2.418   3.772  16.175  0.0079 -0.0354  0.1713
 4510SOL    HW125409   2.484   3.835  16.206 -0.7793  0.9578 -0.1796
 4510SOL    HW225410   2.382   3.734  16.256  0.3861  0.0652  0.3881
 4511SOL     OW25411   0.636   3.242   0.673  0.0669 -0.0211  0.4252
 4511SOL    HW125412   0.577   3.215   0.603  0.7156  1.9732 -0.9056
 4511SOL    HW225413   0.669   3.160   0.710  0.5817 -1.0713 -2.3411
 4512SOL     OW25414   2.513   1.575  19.328  0.0311 -0.2411  0.0612
 4512SOL    HW125415   2.492   1.518  19.402 -0.2467 -1.9147 -1.2914
 4512SOL    HW225416   2.601   1.609  19.347  0.0482 -0.8484  1.0396
 4513SOL     OW25417   2.562   3.344  18.317  0.0415 -0.0353 -0.0452
 4513SOL    HW125418   2.595   3.408  18.254  0.6961 -1.6768 -1.3706
 4513SOL    HW225419   2.494   3.296  18.270 -0.3681 -0.4082  0.9153
 4514SOL     OW25420   2.220   3.934  17.016  0.3540 -0.7479  0.2347
 4514SOL    HW125421   2.246   4.017  16.976 -0.5159 -0.1516  0.9068
 4514SOL    HW225422   2.202   3.876  16.942  3.7012 -1.2129 -0.2518
 4515SOL     OW25423   3.038   1.691  20.956 -0.6441 -0.1564 -0.2689
 4515SOL    HW125424   3.096   1.765  20.976 -0.9106  0.7777 -2.9192
 4515SOL    HW225425   3.066   1.621  21.015  1.8414  0.9605 -0.1374
 4516SOL     OW25426   2.557   0.938   1.949  0.1779 -0.1720 -0.4808
 4516SOL    HW125427   2.599   0.897   2.024  0.1667 -0.3683 -0.5821
 4516SOL    HW225428   2.604   1.021   1.937 -1.4718  1.0199  1.3084
 4517SOL     OW25429   4.376   1.136   7.001  0.8550 -0.6848 -0.2992
 4517SOL    HW125430   4.452   1.083   6.976  0.4562 -1.3738 -0.0490
 4517SOL    HW225431   4.346   1.097   7.082  0.1540 -0.4771 -0.4623
 4518SOL     OW25432   2.318   2.863  18.563 -0.1822 -0.4554 -0.1106
 4518SOL    HW125433   2.238   2.816  18.536 -0.6212  0.0598  0.2919
 4518SOL    HW225434   2.370   2.870  18.483 -1.8092  1.7300 -0.9634
 4519SOL     OW25435   2.214   1.029   7.393  0.5364  0.4550  0.2234
 4519SOL    HW125436   2.167   0.964   7.446 -2.0147  1.2141 -1.1394
 4519SOL    HW225437   2.169   1.111   7.410  2.8338  1.6151  0.7438
 4520SOL     OW25438   0.639   2.187   3.811 -0.5011  0.2411 -0.5436
 4520SOL    HW125439   0.571   2.253   3.818 -0.0378  0.8157 -1.4642
 4520SOL    HW225440   0.698   2.220   3.743  2.0664  0.9875  2.0171
 4521SOL     OW25441   1.392   0.362   4.641 -0.0886 -0.4203  0.3074
 4521SOL    HW125442   1.354   0.428   4.699  0.4377 -0.0864  0.2735
 4521SOL    HW225443   1.353   0.280   4.670  0.2500 -0.2641  1.2021
 4522SOL     OW25444   4.572   3.276  15.899 -0.3541 -0.4379 -0.5263
 4522SOL    HW125445   4.519   3.233  15.966  0.6989 -1.3281 -0.2523
 4522SOL    HW225446   4.511   3.293  15.827 -1.2641 -0.3786  0.2673
 4523SOL     OW25447   3.948   4.264  21.059 -0.0747 -0.0291 -0.0705
 4523SOL    HW125448   4.029   4.262  21.110  0.0775  1.8166 -0.2402
 4523SOL    HW225449   3.925   4.356  21.055 -2.8498 -0.6916  1.0069
 4524SOL     OW25450   1.339   2.628   3.081 -0.0318  0.1511 -0.2895
 4524SOL    HW125451   1.424   2.590   3.103 -0.5133 -0.9270 -0.2848
 4524SOL    HW225452   1.344   2.718   3.113  1.8117  0.6671 -2.0297
 4525SOL     OW25453   2.991   0.348   0.453 -0.0552 -0.1962  0.2606
 4525SOL    HW125454   3.047   0.271   0.445  1.3780  0.9957 -1.0816
 4525SOL    HW225455   2.979   0.380   0.363 -0.5862  1.1966  0.8108
 4526SOL     OW25456   0.281   3.114   4.462 -0.0773 -0.0903  0.5625
 4526SOL    HW125457   0.301   3.189   4.407  2.2275 -1.0481  0.0879
 4526SOL    HW225458   0.321   3.135   4.547  0.2605 -0.6200  0.5357
 4527SOL     OW25459   1.214   2.379   4.630  0.3751 -0.9119  0.0578
 4527SOL    HW125460   1.267   2.312   4.673  0.0547  0.3665  2.4106
 4527SOL    HW225461   1.124   2.360   4.659  0.0954 -0.4039 -0.4888
 4528SOL     OW25462   1.294   4.306   0.994 -0.3780 -0.2082  0.6785
 4528SOL    HW125463   1.310   4.372   1.061 -0.4535 -1.4581  1.9167
 4528SOL    HW225464   1.339   4.340   0.916  2.6215 -0.4555  2.3101
 4529SOL     OW25465   2.248   3.536  16.659 -0.3675  0.1554  0.5809
 4529SOL    HW125466   2.188   3.462  16.669  0.0842 -0.4240 -1.0571
 4529SOL    HW225467   2.334   3.499  16.679 -0.6046  1.0853  3.3522
 4530SOL     OW25468   0.239   2.022  18.543 -1.2725  0.2083 -0.2580
 4530SOL    HW125469   0.277   1.995  18.459 -0.4809 -0.7801  0.4135
 4530SOL    HW225470   0.165   1.962  18.555  0.1361 -1.3213  0.9544
 4531SOL     OW25471   3.758   3.282   5.261 -0.0965  0.3146  0.0078
 4531SOL    HW125472   3.763   3.373   5.230 -2.8749  1.1030  1.9066
 4531SOL    HW225473   3.805   3.283   5.344 -0.7839  0.1341  0.3865
 4532SOL     OW25474   2.442   1.758  11.075  0.1105 -0.0520  0.5634
 4532SOL    HW125475   2.348   1.776  11.084  0.3405  0.2563  2.3838
 4532SOL    HW225476   2.474   1.828  11.018 -0.5425  0.5406  0.9169
 4533SOL     OW25477   0.241   1.908   1.033 -0.4070 -0.0535 -0.3138
 4533SOL    HW125478   0.329   1.938   1.009 -0.8324 -0.2817 -2.1743
 4533SOL    HW225479   0.189   1.988   1.036 -0.6992 -0.1889 -1.6565
 4534SOL     OW25480   3.249   1.562  14.672  0.0581  0.0539  0.4082
 4534SOL    HW125481   3.305   1.484  14.677  0.7546  0.4260 -1.7703
 4534SOL    HW225482   3.299   1.630  14.718  1.5866  0.5027 -1.9250
 4535SOL     OW25483   2.100   4.342   8.979  0.2120  0.3186  0.3648
 4535SOL    HW125484   2.111   4.374   9.069 -1.7625 -1.0866  1.0843
 4535SOL    HW225485   2.114   4.420   8.925  0.9096  1.2703  1.9073
 4536SOL     OW25486   1.208   4.312   4.033 -0.0617 -0.5258 -0.0516
 4536SOL    HW125487   1.218   4.270   4.119 -1.2250  0.5700  0.6203
 4536SOL    HW225488   1.284   4.282   3.983 -0.1606 -2.3585  0.8731
 4537SOL     OW25489   3.015   1.889   6.831 -0.9762 -0.1952  0.3248
 4537SOL    HW125490   3.075   1.903   6.758 -1.3991 -1.0966 -0.2052
 4537SOL    HW225491   2.951   1.826   6.797 -3.0114  1.8096  0.4174
 4538SOL     OW25492   2.310   2.680   5.445 -0.0700 -0.1049 -0.4443
 4538SOL    HW125493   2.342   2.701   5.357  2.0946 -0.5939  0.2133
 4538SOL    HW225494   2.389   2.680   5.499 -1.3562 -0.2068  1.4151
 4539SOL     OW25495   0.719   2.349   4.226 -0.0588 -0.4690  0.4299
 4539SOL    HW125496   0.670   2.277   4.266  1.0796 -1.9571 -0.8264
 4539SOL    HW225497   0.810   2.333   4.253 -0.1041  1.6061  1.7760
 4540SOL     OW25498   0.738   2.503  15.387  0.6762 -0.0169  0.1484
 4540SOL    HW125499   0.750   2.414  15.352  1.3684  0.3871 -0.6484
 4540SOL    HW225500   0.720   2.556  15.309  0.7261  0.6269  0.5844
 4541SOL     OW25501   4.724   0.554   4.285  0.0400 -0.1125  0.1362
 4541SOL    HW125502   4.741   0.472   4.239 -0.5112 -0.1642  0.0318
 4541SOL    HW225503   0.033   0.578   4.323  0.2434 -0.6266 -0.0000
 4542SOL     OW25504   1.784   0.232  20.443 -0.1630  0.4065  0.1818
 4542SOL    HW125505   1.863   0.279  20.470 -1.1868  1.7280  0.8801
 4542SOL    HW225506   1.713   0.292  20.464 -1.1950  0.1108 -2.5005
 4543SOL     OW25507   0.173   3.772   1.683  0.0268 -0.0778  0.5968
 4543SOL    HW125508   0.245   3.724   1.642  0.4966  0.0909  1.2212
 4543SOL    HW225509   0.201   3.863   1.683 -0.4733  0.0769  0.2375
 4544SOL     OW25510   4.040   3.670  18.813  0.5680 -0.5409  0.5796
 4544SOL    HW125511   4.014   3.761  18.798  0.3722 -0.6339  0.3622
 4544SOL    HW225512   4.106   3.653  18.747  2.4888  0.2627  2.2710
 4545SOL     OW25513   3.174   4.670  17.175  0.2615 -0.0831  0.0327
 4545SOL    HW125514   3.262   4.650  17.208 -0.8684 -2.3293  1.6847
 4545SOL    HW225515   3.185   4.679  17.080  1.8062 -2.8920 -0.0459
 4546SOL     OW25516   0.818   1.504   5.397  0.0793  0.1499 -0.3153
 4546SOL    HW125517   0.874   1.537   5.468  1.7581 -1.4653 -0.8763
 4546SOL    HW225518   0.781   1.423   5.432  1.1724 -0.8243 -1.3872
 4547SOL     OW25519   4.250   2.368  18.110 -0.7397  0.8753 -0.2063
 4547SOL    HW125520   4.170   2.413  18.137 -1.6785 -0.9798  0.0485
 4547SOL    HW225521   4.221   2.286  18.072  0.8199  1.7400 -3.3210
 4548SOL     OW25522   4.247   3.432   8.103  0.0590  0.7276  1.0296
 4548SOL    HW125523   4.200   3.408   8.182  0.4125 -2.0033  0.4223
 4548SOL    HW225524   4.183   3.421   8.032 -0.1252  2.7151  0.8727
 4549SOL     OW25525   3.167   1.262   3.033  1.0036  0.1471 -0.1857
 4549SOL    HW125526   3.111   1.266   3.110  0.7317 -1.5189 -0.3098
 4549SOL    HW225527   3.225   1.338   3.043  0.6052  0.2608  1.3659
 4550SOL     OW25528   0.096   2.317   6.159 -0.5716  0.7143  1.0629
 4550SOL    HW125529   0.138   2.236   6.188  0.8369  1.4546  1.1329
 4550SOL    HW225530   0.089   2.308   6.064 -0.5820  0.4268  1.0917
 4551SOL     OW25531   4.705   2.678  11.402  0.0427  0.4452 -0.3160
 4551SOL    HW125532   4.758   2.612  11.356 -0.7292 -0.9307  0.7931
 4551SOL    HW225533   4.617   2.641  11.404 -0.4297  1.6136  0.1005
 4552SOL     OW25534   3.274   0.513   2.976 -0.2640 -0.5427 -0.4205
 4552SOL    HW125535   3.239   0.565   3.048 -2.6047  0.6239 -2.4034
 4552SOL    HW225536   3.346   0.566   2.941 -0.4777 -0.1655 -0.2867
 4553SOL     OW25537   0.955   0.065  12.513  0.5675  0.0790  0.4888
 4553SOL    HW125538   0.992   0.012  12.584 -1.5022 -1.1754  0.6306
 4553SOL    HW225539   0.878   0.016  12.485 -0.2387  2.0466 -0.6885
 4554SOL     OW25540   2.045   1.542  19.607  0.0792 -0.0881 -0.3711
 4554SOL    HW125541   2.025   1.456  19.569  0.5839 -0.4464  0.1886
 4554SOL    HW225542   2.105   1.583  19.544 -1.0675  0.3087 -1.2080
 4555SOL     OW25543   4.122   2.872  18.753  0.9103  0.0336 -0.3495
 4555SOL    HW125544   4.128   2.786  18.711  0.3681 -0.7292  1.1221
 4555SOL    HW225545   4.048   2.914  18.710  0.8642 -0.4261 -0.7253
 4556SOL     OW25546   2.822   0.473   1.647 -0.2576 -0.2653 -0.8782
 4556SOL    HW125547   2.806   0.563   1.620  0.8758 -0.1812 -1.2691
 4556SOL    HW225548   2.897   0.478   1.706 -0.5355 -0.8892 -0.4605
 4557SOL     OW25549   1.325   3.648  12.063  0.6280 -0.0018 -0.6531
 4557SOL    HW125550   1.407   3.661  12.111  0.0330  0.8979  0.1161
 4557SOL    HW225551   1.286   3.735  12.059  0.5729 -0.1102 -2.5790
 4558SOL     OW25552   4.200   2.771  16.722  0.3104 -0.2717  0.1394
 4558SOL    HW125553   4.292   2.792  16.708  0.1587  0.2828 -0.0476
 4558SOL    HW225554   4.159   2.856  16.741 -0.4318 -0.3265 -1.2649
 4559SOL     OW25555   1.015   2.937  16.709 -0.5642  0.4290 -0.0266
 4559SOL    HW125556   1.087   2.975  16.759 -0.3740  0.6201 -0.4413
 4559SOL    HW225557   0.937   2.957  16.760 -0.2324 -0.5083  0.8465
 4560SOL     OW25558   1.459   1.839   5.492  0.6665 -0.3749  0.4618
 4560SOL    HW125559   1.432   1.904   5.557  1.6094  0.6944 -0.2219
 4560SOL    HW225560   1.540   1.801   5.528  0.6677 -0.4646  0.3656
 4561SOL     OW25561   3.577   1.212  15.597 -0.2756 -0.1058  0.0255
 4561SOL    HW125562   3.653   1.156  15.588 -0.3709 -0.2853  0.3303
 4561SOL    HW225563   3.592   1.259  15.679 -0.7834 -0.5860  0.3938
 4562SOL     OW25564   3.732   4.354   8.287 -0.1130  0.4690 -0.0487
 4562SOL    HW125565   3.802   4.343   8.222  0.8428  3.1203  0.5067
 4562SOL    HW225566   3.652   4.361   8.235  0.5785  1.9506 -0.9111
 4563SOL     OW25567   4.298   3.769   2.920 -0.3494 -0.2370 -0.1688
 4563SOL    HW125568   4.228   3.764   2.984  0.1493  1.7206  0.5270
 4563SOL    HW225569   4.378   3.774   2.972  0.0573  1.2617 -0.9299
 4564SOL     OW25570   3.000   2.178   6.794  0.4952 -0.7212 -0.3147
 4564SOL    HW125571   2.941   2.136   6.733 -0.3778  0.1122 -0.0420
 4564SOL    HW225572   3.029   2.107   6.852 -0.8930 -0.9771  0.0796
 4565SOL     OW25573   4.367   1.225   0.645  0.4517 -0.0387 -0.8658
 4565SOL    HW125574   4.438   1.176   0.688 -1.2381 -1.8032 -0.0994
 4565SOL    HW225575   4.323   1.160   0.590 -1.1717  0.8272 -0.5830
 4566SOL     OW25576   4.337   4.558   4.404 -0.1628 -0.4524 -0.2040
 4566SOL    HW125577   4.307   4.550   4.495  0.2546 -0.9797 -0.1099
 4566SOL    HW225578   4.325   4.470   4.368 -0.6905 -0.1459 -0.7727
 4567SOL     OW25579   0.296   0.652   4.599 -0.4958  0.5294  0.8859
 4567SOL    HW125580   0.381   0.683   4.567  0.8824 -2.1094  1.9853
 4567SOL    HW225581   0.253   0.616   4.521  0.3347 -0.2704  0.8052
 4568SOL     OW25582   3.256   1.694  18.384  0.1903 -0.0488  0.0069
 4568SOL    HW125583   3.280   1.660  18.470 -1.7880 -0.5050  0.3944
 4568SOL    HW225584   3.255   1.789  18.396  0.3799 -0.0914  0.3664
 4569SOL     OW25585   1.083   4.504   1.348  0.1608  0.3943  0.1315
 4569SOL    HW125586   1.086   4.561   1.271  0.0006 -1.0979 -0.9839
 4569SOL    HW225587   1.155   4.443   1.335  0.9453  0.9576  1.8139
 4570SOL     OW25588   0.758   2.947  19.017 -0.0005 -0.2992 -1.1082
 4570SOL    HW125589   0.730   2.907  19.100 -1.0826 -0.8462 -1.7312
 4570SOL    HW225590   0.822   2.885  18.981  0.9503  0.2558 -0.3658
 4571SOL     OW25591   0.470   2.290   5.871 -0.0775  0.3558 -0.5486
 4571SOL    HW125592   0.432   2.208   5.839 -1.7983  0.8653  0.2450
 4571SOL    HW225593   0.538   2.311   5.806  1.4964 -2.5696  0.1215
 4572SOL     OW25594   3.837   1.695  15.937 -0.3922 -0.4347 -0.4763
 4572SOL    HW125595   3.834   1.767  15.999 -1.1799 -2.1678  1.5176
 4572SOL    HW225596   3.928   1.668  15.936  0.0271  1.0249 -1.7323
 4573SOL     OW25597   3.214   3.733   1.194 -0.1181  0.1777 -0.3011
 4573SOL    HW125598   3.215   3.661   1.130 -0.1944  1.4891 -1.7789
 4573SOL    HW225599   3.129   3.776   1.179  0.3938  1.2341 -0.1447
 4574SOL     OW25600   3.424   2.491   7.959  0.2633  0.1126 -0.0059
 4574SOL    HW125601   3.391   2.476   7.870 -1.5339 -0.6686  0.7860
 4574SOL    HW225602   3.479   2.568   7.952 -1.4545  1.1962 -1.4185
 4575SOL     OW25603   4.282   3.285   2.532  0.6344  0.1893  0.3376
 4575SOL    HW125604   4.327   3.340   2.468 -0.5232  0.8134  0.0602
 4575SOL    HW225605   4.275   3.199   2.491 -2.4524  1.2683 -1.4380
 4576SOL     OW25606   3.897   1.440  15.353  0.2286 -0.1282  0.0841
 4576SOL    HW125607   3.826   1.376  15.360  0.7412 -0.5091  1.6327
 4576SOL    HW225608   3.887   1.476  15.264 -0.4041 -1.9165 -0.5670
 4577SOL     OW25609   0.425   1.506  21.108 -0.0795  0.4403 -0.9039
 4577SOL    HW125610   0.449   1.441  21.174 -1.4951  0.3885 -0.4208
 4577SOL    HW225611   0.455   1.589  21.144 -1.1422  0.4531 -0.0305
 4578SOL     OW25612   1.262   1.372  17.392  0.1122  0.3569 -0.0524
 4578SOL    HW125613   1.298   1.429  17.460  0.9619 -1.0790  0.6804
 4578SOL    HW225614   1.261   1.427  17.314 -0.3500  1.8329  0.9838
 4579SOL     OW25615   4.438   1.229   3.457 -0.1384  0.6478 -0.6950
 4579SOL    HW125616   4.426   1.136   3.440 -2.4612  1.1637 -1.7296
 4579SOL    HW225617   4.486   1.261   3.381  1.4097  0.1381  0.0499
 4580SOL     OW25618   1.414   0.820  17.981 -0.1825  0.4353 -0.0874
 4580SOL    HW125619   1.336   0.765  17.971  0.0756 -0.1692  1.2359
 4580SOL    HW225620   1.466   0.802  17.903  0.1647 -1.6030  0.6140
 4581SOL     OW25621   1.413   3.319   7.316 -0.0619  0.2546  0.0808
 4581SOL    HW125622   1.414   3.229   7.350 -0.5614 -0.1513 -0.9778
 4581SOL    HW225623   1.505   3.339   7.298  0.1017  0.1236  0.7622
 4582SOL     OW25624   3.603   1.645   1.465 -0.1859 -0.0796  0.2354
 4582SOL    HW125625   3.677   1.654   1.405 -0.4124 -0.5895 -0.1274
 4582SOL    HW225626   3.597   1.551   1.482 -1.6020 -0.2009 -0.8355
 4583SOL     OW25627   2.444   1.769  11.686 -0.5104 -0.1970 -0.2524
 4583SOL    HW125628   2.415   1.829  11.617 -0.0502 -0.7462 -0.9220
 4583SOL    HW225629   2.391   1.690  11.674 -0.1692 -0.4336 -0.2117
 4584SOL     OW25630   2.925   0.560   4.209 -0.5299 -0.5435  0.2725
 4584SOL    HW125631   2.921   0.535   4.117  1.9705 -2.3242  0.6228
 4584SOL    HW225632   2.864   0.632   4.218  0.8524  1.0314 -3.2590
 4585SOL     OW25633   4.315   3.364   5.300 -0.7007 -0.1277  0.0801
 4585SOL    HW125634   4.261   3.347   5.377  0.7944 -0.9003  0.9548
 4585SOL    HW225635   4.405   3.363   5.333 -0.0658 -0.3355 -1.6488
 4586SOL     OW25636   3.235   2.079  18.168  0.0308 -1.0854 -0.0155
 4586SOL    HW125637   3.320   2.097  18.208  0.0980 -1.0648 -0.1667
 4586SOL    HW225638   3.222   2.152  18.107 -0.7789 -0.2888  1.1161
 4587SOL     OW25639   1.205   3.668  20.128 -0.5317 -0.3290 -0.1043
 4587SOL    HW125640   1.169   3.673  20.216  0.8695 -1.8707  0.5676
 4587SOL    HW225641   1.197   3.576  20.104 -0.3219 -0.0275 -1.3323
 4588SOL     OW25642   4.400   3.252  12.463  0.2415 -0.3868 -0.2190
 4588SOL    HW125643   4.441   3.299  12.390 -2.7294 -0.8289 -2.1747
 4588SOL    HW225644   4.319   3.299  12.479 -0.1924 -1.6699  1.3037
 4589SOL     OW25645   2.612   2.153  15.819  0.7133 -0.1278  0.8234
 4589SOL    HW125646   2.572   2.233  15.853  0.9515  0.7579 -0.9639
 4589SOL    HW225647   2.705   2.163  15.838  0.8177  0.2694  0.0976
 4590SOL     OW25648   3.879   1.332   8.877  0.0194 -0.3429 -0.0771
 4590SOL    HW125649   3.856   1.246   8.911 -2.5708 -0.0922 -1.1582
 4590SOL    HW225650   3.861   1.392   8.950  0.9489 -0.6292  0.3768
 4591SOL     OW25651   4.203   3.142  19.700  0.1942  0.1110 -0.0065
 4591SOL    HW125652   4.166   3.160  19.614 -0.0052  0.2305  0.1046
 4591SOL    HW225653   4.287   3.189  19.700  0.8831 -1.1063 -0.6867
 4592SOL     OW25654   2.959   3.477  19.000  0.1292 -0.1739  0.3554
 4592SOL    HW125655   2.915   3.548  19.048 -0.6975 -0.4182 -0.0512
 4592SOL    HW225656   2.903   3.401  19.012 -1.0625  0.2359 -2.6465
 4593SOL     OW25657   1.084   3.514  16.952  0.8247 -0.0567 -0.5339
 4593SOL    HW125658   0.991   3.507  16.927  0.6125  0.6250  0.0665
 4593SOL    HW225659   1.089   3.596  17.001  1.1974 -1.5259  1.8606
 4594SOL     OW25660   4.618   2.426   4.174  0.2246  0.3911  0.0258
 4594SOL    HW125661   4.636   2.461   4.262 -3.1074 -0.1804  0.9238
 4594SOL    HW225662   4.615   2.503   4.118  1.0333  0.8684  0.6386
 4595SOL     OW25663   0.908   3.197   2.267  0.7584  0.4739 -0.4991
 4595SOL    HW125664   0.839   3.181   2.330 -0.7454  2.0590 -1.7401
 4595SOL    HW225665   0.987   3.208   2.320  0.1308 -1.8251  0.8666
 4596SOL     OW25666   3.046   1.092   6.470  0.3592  0.3230 -0.2349
 4596SOL    HW125667   3.038   1.060   6.380  2.5553 -0.9827  0.0471
 4596SOL    HW225668   3.139   1.113   6.480  0.1269  0.3743  1.7604
 4597SOL     OW25669   2.804   1.769  18.994  0.2907 -0.0753  0.2944
 4597SOL    HW125670   2.823   1.716  19.071  0.6624  2.2860  1.8099
 4597SOL    HW225671   2.869   1.740  18.929  2.5309  0.7655  2.1492
 4598SOL     OW25672   0.629   3.535   8.461  0.0441 -0.6613 -0.1647
 4598SOL    HW125673   0.615   3.593   8.536 -0.4514 -0.8646 -0.1036
 4598SOL    HW225674   0.719   3.503   8.473  0.0546 -0.4952  0.2036
 4599SOL     OW25675   2.702   2.149  17.352  0.3214 -0.0308 -0.2707
 4599SOL    HW125676   2.694   2.208  17.427  0.6423 -1.2648  0.7331
 4599SOL    HW225677   2.654   2.193  17.282  2.2744  2.3886 -0.0920
 4600SOL     OW25678   1.345   0.170   2.948 -0.0371  0.0163 -0.0869
 4600SOL    HW125679   1.334   0.264   2.932  0.4589  0.1686  0.4687
 4600SOL    HW225680   1.406   0.141   2.881 -1.2246 -0.1748 -1.0969
 4601SOL     OW25681   1.020   2.748   4.329  0.3654 -0.1750 -0.5074
 4601SOL    HW125682   1.029   2.838   4.299  0.3351 -0.4788 -1.4402
 4601SOL    HW225683   0.948   2.750   4.392  2.2960  0.9885  1.6469
 4602SOL     OW25684   1.766   0.010  19.693  0.3862 -0.1961 -0.0340
 4602SOL    HW125685   1.780   0.082  19.631 -0.3387  0.6539  0.7762
 4602SOL    HW225686   1.811   0.039  19.773 -0.4109 -0.3883  0.4806
 4603SOL     OW25687   1.477   4.560  18.886  0.6917  0.0034  0.2586
 4603SOL    HW125688   1.558   4.512  18.871  0.8155  0.7480 -1.4443
 4603SOL    HW225689   1.410   4.509  18.841  0.9703  1.9466 -2.3336
 4604SOL     OW25690   4.210   2.984   0.022 -0.0713 -0.0089  0.3031
 4604SOL    HW125691   4.289   2.974  21.165 -0.0719 -1.1131  0.4901
 4604SOL    HW225692   4.242   2.986   0.112 -0.1864  0.4111  0.3344
 4605SOL     OW25693   2.848   3.803   3.286  0.1138 -0.3056  0.4679
 4605SOL    HW125694   2.809   3.862   3.351  0.4127 -1.1008  1.3644
 4605SOL    HW225695   2.859   3.858   3.208  1.4657  1.1388  1.6612
 4606SOL     OW25696   2.873   0.012  12.992  0.2403  1.1017  0.2210
 4606SOL    HW125697   2.841   4.705  13.028 -1.3520  0.9516 -1.5849
 4606SOL    HW225698   2.809   0.077  13.021 -0.1157  1.2463 -0.8932
 4607SOL     OW25699   2.483   2.126   3.600  0.3825  0.1379  0.4051
 4607SOL    HW125700   2.513   2.081   3.521 -2.0449  0.9436 -0.9801
 4607SOL    HW225701   2.411   2.072   3.633  0.0659  0.8882  0.9506
 4608SOL     OW25702   0.716   4.121  18.966  0.1524  0.3105 -0.1699
 4608SOL    HW125703   0.670   4.146  18.885 -0.6143  0.4715  0.3177
 4608SOL    HW225704   0.723   4.203  19.016  0.8879  0.2677 -0.2023
 4609SOL     OW25705   3.718   3.843   3.838  0.4177 -0.1447 -0.4538
 4609SOL    HW125706   3.717   3.774   3.771  0.1740 -0.2111 -0.3812
 4609SOL    HW225707   3.786   3.815   3.899  0.2509 -0.3714 -0.3707
 4610SOL     OW25708   0.827   3.204   9.420  0.2623  0.2675  0.0119
 4610SOL    HW125709   0.738   3.224   9.392 -0.4407 -1.1229  1.2960
 4610SOL    HW225710   0.871   3.175   9.340 -0.8098 -0.3347 -0.3627
 4611SOL     OW25711   4.759   2.218  16.965 -0.2222 -0.5125  0.6260
 4611SOL    HW125712   4.683   2.199  17.020 -1.7837  1.1113 -0.9603
 4611SOL    HW225713   0.057   2.219  17.026 -1.5154 -1.7390  2.2244
 4612SOL     OW25714   2.480   2.275  17.069  0.2859  0.3542  0.0233
 4612SOL    HW125715   2.467   2.324  17.150 -0.3598  0.0953  0.0747
 4612SOL    HW225716   2.430   2.195  17.081  2.2942 -0.8521  0.4104
 4613SOL     OW25717   4.098   2.077   4.454 -0.1667 -0.0923  0.1464
 4613SOL    HW125718   4.151   2.138   4.404  0.7815 -1.2091 -0.2154
 4613SOL    HW225719   4.012   2.081   4.414 -0.3741  1.7567  0.7570
 4614SOL     OW25720   4.299   1.371  21.123 -0.0106  0.1178  0.2033
 4614SOL    HW125721   4.362   1.370  21.051 -0.2666 -0.1307 -0.0155
 4614SOL    HW225722   4.321   1.294  21.176 -0.7698 -0.5294 -0.4211
 4615SOL     OW25723   2.383   1.733  12.057  0.7586  0.5133 -0.4318
 4615SOL    HW125724   2.294   1.758  12.080  0.6255 -0.1393 -0.2406
 4615SOL    HW225725   2.372   1.656  12.001  1.2446 -0.1044  0.3264
 4616SOL     OW25726   3.483   1.066  14.952  0.8055  0.7378  0.1966
 4616SOL    HW125727   3.542   1.111  14.892  0.7992 -1.1506 -1.2335
 4616SOL    HW225728   3.530   1.065  15.036  1.0101  2.9634  0.0944
 4617SOL     OW25729   1.623   3.885   9.646  0.6890 -0.0540  0.0114
 4617SOL    HW125730   1.538   3.906   9.685  0.1381 -0.7106 -0.8328
 4617SOL    HW225731   1.602   3.835   9.568  1.7896  1.2117 -1.1080
 4618SOL     OW25732   0.311   4.140   0.576  0.4804 -0.2841  0.1817
 4618SOL    HW125733   0.260   4.108   0.502  0.2598 -0.0165  0.2151
 4618SOL    HW225734   0.249   4.192   0.627  0.9214  0.5043 -0.0700
 4619SOL     OW25735   0.185   3.230  17.542 -0.1211  0.9275 -0.2601
 4619SOL    HW125736   0.184   3.148  17.493 -0.4085 -0.4624  2.0577
 4619SOL    HW225737   0.278   3.256  17.544 -0.1121  0.9752 -1.5303
 4620SOL     OW25738   3.730   1.965   8.065  0.5011 -0.0385  0.1340
 4620SOL    HW125739   3.651   1.987   8.114  0.0464  0.3257 -0.7647
 4620SOL    HW225740   3.763   2.049   8.033  0.8412 -0.2660 -0.1185
 4621SOL     OW25741   4.241   3.402  19.363 -0.0596 -0.2344 -0.7171
 4621SOL    HW125742   4.199   3.441  19.287 -0.8687  0.0914 -0.0958
 4621SOL    HW225743   4.172   3.355  19.408  0.1316  0.7017  0.5610
 4622SOL     OW25744   3.032   3.774   2.128 -0.2319  0.1140 -0.1296
 4622SOL    HW125745   3.067   3.782   2.039 -0.8196 -0.1508 -0.3904
 4622SOL    HW225746   3.006   3.863   2.152 -0.3315  0.1397 -0.3318
 4623SOL     OW25747   4.736   0.887   2.878  0.4449 -0.2320 -0.1098
 4623SOL    HW125748   0.008   0.844   2.808  0.4222  0.2790 -0.4414
 4623SOL    HW225749   4.720   0.818   2.942  1.2178 -0.5076 -0.2114
 4624SOL     OW25750   4.441   0.427  17.134  0.0581  0.5893 -0.2586
 4624SOL    HW125751   4.386   0.411  17.210  2.3214 -1.0364  1.0446
 4624SOL    HW225752   4.431   0.521  17.116 -1.7826  0.6352  1.0132
 4625SOL     OW25753   1.009   3.230  15.013 -0.8752 -0.0617 -0.0940
 4625SOL    HW125754   1.083   3.287  15.029 -1.3522  0.7483 -0.7851
 4625SOL    HW225755   1.017   3.161  15.079 -0.4982  0.9755  0.9361
 4626SOL     OW25756   4.443   1.731  17.168 -0.0379 -0.2389  0.0283
 4626SOL    HW125757   4.447   1.686  17.084  0.8853 -1.8286  0.8993
 4626SOL    HW225758   4.369   1.791  17.161  0.5581  0.2237 -2.2017
 4627SOL     OW25759   3.253   4.703  18.070 -0.6251  0.0062  0.5609
 4627SOL    HW125760   3.338   4.738  18.095 -0.0245 -2.0905  1.4455
 4627SOL    HW225761   3.267   4.668  17.982 -0.4318 -0.8942  0.9557
 4628SOL     OW25762   0.957   2.996   2.524  0.1943  0.0127  0.2944
 4628SOL    HW125763   1.026   3.047   2.483 -1.4870  0.1394 -2.3844
 4628SOL    HW225764   0.961   3.020   2.617  1.5424  2.5380 -0.4178
 4629SOL     OW25765   1.982   0.265   1.841  1.2435 -0.1536  0.0754
 4629SOL    HW125766   1.959   0.187   1.893  1.1223 -0.8767 -1.0780
 4629SOL    HW225767   2.077   0.265   1.840  1.2498 -0.0111  0.4887
 4630SOL     OW25768   3.685   1.133   2.140 -0.4109 -0.1594 -0.3458
 4630SOL    HW125769   3.684   1.192   2.064  0.2893 -1.2712 -1.2118
 4630SOL    HW225770   3.657   1.049   2.105 -0.6463 -0.5328  0.7542
 4631SOL     OW25771   1.729   1.077   5.154  0.2377  0.2698 -0.4112
 4631SOL    HW125772   1.760   0.991   5.183  0.8134  0.4730 -0.4324
 4631SOL    HW225773   1.687   1.114   5.232  0.9100  0.4028 -0.1119
 4632SOL     OW25774   0.804   4.688   7.291  0.3409 -0.1499 -0.1850
 4632SOL    HW125775   0.740   4.633   7.337  0.8187 -0.8221 -0.3246
 4632SOL    HW225776   0.884   4.680   7.343  0.3835  0.5034 -0.1456
 4633SOL     OW25777   3.850   4.016  16.215  0.0639 -0.4175  1.2467
 4633SOL    HW125778   3.868   4.053  16.128 -0.4276  0.0414  1.3418
 4633SOL    HW225779   3.785   3.948  16.198 -1.4611  0.9923  1.5316
 4634SOL     OW25780   0.952   3.652  20.302  0.0762 -0.3392  0.0469
 4634SOL    HW125781   0.909   3.667  20.387  0.4640  2.3721 -0.2279
 4634SOL    HW225782   1.027   3.595  20.323 -0.8384 -1.1010  1.2599
 4635SOL     OW25783   2.947   1.517   7.029 -0.0952  0.1926 -0.9839
 4635SOL    HW125784   2.968   1.433   7.068 -1.0499  0.3530 -0.1152
 4635SOL    HW225785   3.031   1.562   7.021 -0.0691  0.6959  2.1152
 4636SOL     OW25786   2.428   4.719   3.933 -0.5115 -0.7205 -0.1560
 4636SOL    HW125787   2.340   4.686   3.948 -0.4710  0.2048  2.1193
 4636SOL    HW225788   2.473   4.707   4.017  0.5105  1.9156 -0.3228
 4637SOL     OW25789   2.054   3.839  16.575  0.4025 -0.2571 -0.1439
 4637SOL    HW125790   2.076   3.932  16.586  1.0427 -0.4177 -0.0811
 4637SOL    HW225791   2.061   3.823  16.481  0.4212 -0.2722 -0.1401
 4638SOL     OW25792   0.832   1.585  20.206 -0.4500  0.2780  0.3720
 4638SOL    HW125793   0.765   1.649  20.179 -0.2636 -0.0782 -0.9307
 4638SOL    HW225794   0.904   1.599  20.145 -0.4621 -1.2730  0.0120
 4639SOL     OW25795   3.811   3.314  17.093 -0.0098 -0.1900 -0.1031
 4639SOL    HW125796   3.851   3.269  17.018  3.4539 -0.3100  1.8175
 4639SOL    HW225797   3.841   3.405  17.084 -1.2098  0.2086  0.0067
 4640SOL     OW25798   2.259   1.179   7.150  0.2768  0.1286 -0.0632
 4640SOL    HW125799   2.248   1.165   7.244  1.8179 -0.7905 -0.0111
 4640SOL    HW225800   2.341   1.134   7.128 -0.1678  0.1747 -1.8802
 4641SOL     OW25801   3.172   4.391  17.323  0.1461  0.2787 -0.0787
 4641SOL    HW125802   3.261   4.365  17.298  0.8640  0.3873  2.4069
 4641SOL    HW225803   3.141   4.443  17.249  3.2174  2.7021  0.3379
 4642SOL     OW25804   2.015   1.130   0.917  0.1383  0.7167  0.1021
 4642SOL    HW125805   1.988   1.101   0.829  0.9248 -1.9132  0.7093
 4642SOL    HW225806   2.062   1.212   0.903 -0.7076  0.8652 -1.8315
 4643SOL     OW25807   3.403   3.434   4.337  0.0785  0.2287 -0.0232
 4643SOL    HW125808   3.343   3.420   4.411  1.1720 -2.0324  0.4292
 4643SOL    HW225809   3.486   3.459   4.378  0.3692  0.0853 -0.5278
 4644SOL     OW25810   4.386   2.660   2.732 -0.3315  0.1123 -0.1747
 4644SOL    HW125811   4.377   2.746   2.690  1.0400  0.9081  1.1623
 4644SOL    HW225812   4.475   2.632   2.712 -0.2194 -0.2471  0.7996
 4645SOL     OW25813   1.939   1.956   3.454  1.2310 -0.1837 -0.1472
 4645SOL    HW125814   1.976   2.009   3.384 -0.2133  1.1836  0.1104
 4645SOL    HW225815   1.847   1.944   3.429  0.2921  1.7488  2.3620
 4646SOL     OW25816   0.789   4.008   4.595 -0.3278  0.0547 -0.5641
 4646SOL    HW125817   0.811   3.938   4.656  0.1178  0.8917  0.2528
 4646SOL    HW225818   0.759   3.964   4.516  2.2680 -1.0813 -0.9126
 4647SOL     OW25819   2.567   0.264  16.160 -0.7364  0.1244  0.3307
 4647SOL    HW125820   2.527   0.345  16.127 -1.0376 -0.4740 -0.7573
 4647SOL    HW225821   2.539   0.197  16.098  1.0225 -0.5007  0.2352
 4648SOL     OW25822   3.122   1.605   5.583 -0.8353  0.1033 -0.1214
 4648SOL    HW125823   3.185   1.566   5.523 -0.4006  1.0117 -0.2498
 4648SOL    HW225824   3.060   1.534   5.602  0.4351 -0.8935  0.2986
 4649SOL     OW25825   3.814   1.251  12.327 -0.0513 -0.1583  0.2642
 4649SOL    HW125826   3.904   1.222  12.345  0.0104  0.1055  0.3898
 4649SOL    HW225827   3.760   1.174  12.346  0.1834 -0.4252 -0.1675
 4650SOL     OW25828   1.620   1.888   7.899 -0.1419  0.1742  0.1400
 4650SOL    HW125829   1.646   1.813   7.953 -0.5441 -0.8378 -1.0870
 4650SOL    HW225830   1.702   1.935   7.882  0.3922 -1.1147 -0.8256
 4651SOL     OW25831   2.293   2.460   1.013  0.1509  0.2652 -0.5176
 4651SOL    HW125832   2.320   2.445   0.922 -1.2391  3.0917 -1.3884
 4651SOL    HW225833   2.200   2.479   1.007 -0.4212 -1.8552  1.7492
 4652SOL     OW25834   3.650   3.206   6.947  0.2816 -0.0531 -0.3875
 4652SOL    HW125835   3.713   3.135   6.958  0.5021  0.4100  1.3666
 4652SOL    HW225836   3.606   3.187   6.865  0.3766 -2.1862  0.0563
 4653SOL     OW25837   4.470   2.884   2.530 -0.4844  0.8007  0.0175
 4653SOL    HW125838   4.552   2.852   2.493  0.9105  1.7900  2.2474
 4653SOL    HW225839   4.436   2.946   2.465  0.0674 -0.3070 -1.3239
 4654SOL     OW25840   1.480   0.289  20.512 -0.3588 -0.4735  0.3145
 4654SOL    HW125841   1.460   0.199  20.536 -0.0061 -0.8590 -0.8325
 4654SOL    HW225842   1.407   0.316  20.457 -0.4917 -0.0444  0.7027
 4655SOL     OW25843   3.314   0.226   4.186 -0.0987  0.5185  0.8239
 4655SOL    HW125844   3.293   0.205   4.095  0.5808 -1.5800  1.1658
 4655SOL    HW225845   3.337   0.319   4.184  0.1877  0.4082 -1.2028
 4656SOL     OW25846   3.822   1.008  13.576 -0.1280 -0.6258 -0.5521
 4656SOL    HW125847   3.865   1.047  13.652  0.4593 -2.0912 -0.1428
 4656SOL    HW225848   3.732   0.994  13.603 -0.4352  0.7675 -0.8161
 4657SOL     OW25849   0.809   4.156   2.959  0.4580 -0.3025 -0.1995
 4657SOL    HW125850   0.799   4.200   3.043 -0.3187  0.8131 -0.8775
 4657SOL    HW225851   0.807   4.063   2.980  0.2252 -0.0173  1.0131
 4658SOL     OW25852   3.801   3.678  18.423  0.0587 -0.0602  0.0010
 4658SOL    HW125853   3.800   3.748  18.489  1.4846  0.3546 -0.4408
 4658SOL    HW225854   3.708   3.667  18.400 -0.4188  0.0069  1.8501
 4659SOL     OW25855   2.654   2.883   3.822  0.4453 -0.4137 -0.1556
 4659SOL    HW125856   2.663   2.950   3.890  0.3868 -0.0965 -0.4579
 4659SOL    HW225857   2.724   2.821   3.840  0.4878 -0.2819  0.1409
 4660SOL     OW25858   2.650   1.373   9.117  0.4148 -0.1133  0.2000
 4660SOL    HW125859   2.730   1.337   9.077 -0.1601 -1.5508  0.3475
 4660SOL    HW225860   2.589   1.299   9.119  0.0100  0.2748  2.5719
 4661SOL     OW25861   0.441   0.779   1.016 -0.0172 -0.4203  0.1214
 4661SOL    HW125862   0.461   0.840   1.086  1.7476 -1.3771  0.4495
 4661SOL    HW225863   0.349   0.757   1.030 -0.0575  0.4748  1.2982
 4662SOL     OW25864   1.982   1.019  14.120  0.1883  0.2133  0.6034
 4662SOL    HW125865   1.970   0.993  14.212 -0.6529  1.6046  0.8906
 4662SOL    HW225866   2.047   1.090  14.124 -1.2976  1.5820  0.3058
 4663SOL     OW25867   4.678   4.370  17.828  0.1350  0.0868 -0.0962
 4663SOL    HW125868   4.683   4.425  17.750 -1.3678 -0.4601 -0.5771
 4663SOL    HW225869   4.724   4.290  17.804  0.8569  0.4533  0.0449
 4664SOL     OW25870   3.881   4.335   1.963 -0.1045  0.1242 -0.5991
 4664SOL    HW125871   3.950   4.294   1.910 -0.4674 -0.1163 -0.8831
 4664SOL    HW225872   3.815   4.267   1.974  0.3098 -0.0642  0.7962
 4665SOL     OW25873   1.995   3.992  17.522 -0.0571 -0.0947  0.5532
 4665SOL    HW125874   2.072   3.986  17.465 -0.4955 -1.2265  0.0940
 4665SOL    HW225875   1.920   3.989  17.462 -0.4315  2.7200  0.8566
 4666SOL     OW25876   1.492   2.623  19.516 -0.5860  0.2741  0.1322
 4666SOL    HW125877   1.459   2.686  19.452 -1.0489  0.6022  0.6880
 4666SOL    HW225878   1.511   2.676  19.594  0.9217  0.0307 -0.0713
 4667SOL     OW25879   4.278   1.617   4.924 -0.2630 -0.4822  0.4067
 4667SOL    HW125880   4.238   1.615   4.837  3.4497 -1.5181 -1.2920
 4667SOL    HW225881   4.267   1.707   4.954  1.8400  0.8323 -2.7488
 4668SOL     OW25882   2.230   0.523   1.737  0.0392  0.1032 -0.0372
 4668SOL    HW125883   2.198   0.479   1.658 -1.5131  0.1094  0.5948
 4668SOL    HW225884   2.186   0.608   1.736  0.2439  0.2162  0.6856
 4669SOL     OW25885   3.320   1.472  15.033  0.5071 -0.4623  0.4641
 4669SOL    HW125886   3.333   1.431  15.118 -2.2844 -0.4482  0.9258
 4669SOL    HW225887   3.293   1.562  15.054  1.1824 -0.0522 -0.4349
 4670SOL     OW25888   1.911   1.098   5.705 -0.5180  0.0914 -0.2293
 4670SOL    HW125889   1.905   1.180   5.655  0.5134 -0.1426 -0.7495
 4670SOL    HW225890   1.836   1.100   5.764 -0.9203  1.0627 -0.7709
 4671SOL     OW25891   0.181   2.926   9.037  0.4081 -0.1916  0.5796
 4671SOL    HW125892   0.231   3.006   9.023 -1.3609  0.8663  0.2235
 4671SOL    HW225893   0.141   2.908   8.952 -0.2495 -0.7238  1.0021
 4672SOL     OW25894   1.704   3.266   0.610 -0.0470  0.2852 -0.1718
 4672SOL    HW125895   1.738   3.289   0.696 -0.5667  1.8152 -0.3643
 4672SOL    HW225896   1.780   3.237   0.560  0.0560 -1.7821  1.1944
 4673SOL     OW25897   3.784   2.452  17.549 -0.6663 -0.4339  0.5066
 4673SOL    HW125898   3.764   2.486  17.461  0.2414 -1.5076 -0.1176
 4673SOL    HW225899   3.866   2.495  17.573  0.8694 -2.7409 -0.5897
 4674SOL     OW25900   3.429   0.348  11.443  0.3342  0.0990 -0.2759
 4674SOL    HW125901   3.388   0.348  11.529 -0.4637 -0.6871 -0.6572
 4674SOL    HW225902   3.499   0.413  11.450 -0.0979  0.4517  0.7850
 4675SOL     OW25903   4.243   2.234   5.080  0.1554  0.1239 -0.4062
 4675SOL    HW125904   4.229   2.229   5.174  0.3634 -1.0639 -0.4314
 4675SOL    HW225905   4.163   2.273   5.045 -0.1594  0.0106  0.1952
 4676SOL     OW25906   3.195   3.926  20.852 -0.3257  0.1177 -0.1509
 4676SOL    HW125907   3.182   3.869  20.776  2.0483 -0.9589  0.2732
 4676SOL    HW225908   3.269   3.982  20.828 -1.4761  1.8113  0.1769
 4677SOL     OW25909   4.519   0.853   1.431  0.3511 -0.1078 -0.1571
 4677SOL    HW125910   4.510   0.783   1.367  1.5453  0.7637 -1.2698
 4677SOL    HW225911   4.467   0.925   1.396 -0.5185 -0.2872  0.7695
 4678SOL     OW25912   4.362   4.303  17.519  0.5145 -0.1491  0.0691
 4678SOL    HW125913   4.304   4.227  17.518  1.4947 -0.8940  0.4914
 4678SOL    HW225914   4.358   4.338  17.430 -0.2747 -0.4298 -0.0035
 4679SOL     OW25915   0.241   0.025   3.512  0.2677 -0.7443  0.0427
 4679SOL    HW125916   0.146   0.033   3.519  0.7622  0.9718  4.5559
 4679SOL    HW225917   0.268   0.103   3.463 -0.4018 -0.1182  0.6706
 4680SOL     OW25918   0.503   3.284  13.830 -1.0997  0.2767 -0.3577
 4680SOL    HW125919   0.579   3.240  13.870 -2.0931 -0.9005  0.2476
 4680SOL    HW225920   0.541   3.350  13.773  0.3085  2.6636  3.3620
 4681SOL     OW25921   0.797   1.188  15.989  0.4677 -0.3406  0.0425
 4681SOL    HW125922   0.771   1.243  16.062  1.5713 -0.1480  0.2858
 4681SOL    HW225923   0.870   1.136  16.022  0.6595 -0.5940 -0.7639
 4682SOL     OW25924   0.039   0.921  20.135  0.3718  0.1382  0.0455
 4682SOL    HW125925   4.768   0.882  20.061  0.4338 -1.0024  0.6107
 4682SOL    HW225926   0.131   0.914  20.111  0.3134  1.3357 -0.5450
 4683SOL     OW25927   0.932   2.869  10.003 -0.1038 -0.0174 -0.7724
 4683SOL    HW125928   1.021   2.882   9.969  0.9926 -5.2682  0.0468
 4683SOL    HW225929   0.946   2.828  10.089 -3.2727  1.2686  0.3503
 4684SOL     OW25930   2.590   2.065   1.313 -0.5124  0.5165  0.2736
 4684SOL    HW125931   2.536   2.114   1.376  0.1550  1.2739  0.2528
 4684SOL    HW225932   2.567   2.104   1.229 -0.1482  0.6378  0.2332
 4685SOL     OW25933   4.198   4.419  12.835  0.3870 -0.1796 -0.7019
 4685SOL    HW125934   4.118   4.368  12.845  1.3748 -1.8283 -1.0509
 4685SOL    HW225935   4.263   4.371  12.887  1.5399  0.2257 -1.7614
 4686SOL     OW25936   0.429   0.934  21.025 -0.0739 -0.6450  0.5039
 4686SOL    HW125937   0.360   0.943  20.959  0.6882 -2.1691 -0.4877
 4686SOL    HW225938   0.414   1.008  21.084 -0.4581  1.0124 -1.6518
 4687SOL     OW25939   0.314   3.043  10.204 -0.2254 -0.5644 -0.4367
 4687SOL    HW125940   0.295   3.082  10.119 -1.0965  0.6185  0.3015
 4687SOL    HW225941   0.375   2.972  10.185  0.5984  0.5312 -1.8979
 4688SOL     OW25942   0.806   3.530  10.422 -0.0022 -0.2198 -0.2498
 4688SOL    HW125943   0.823   3.593  10.351 -4.3620 -0.7456 -1.7465
 4688SOL    HW225944   0.823   3.444  10.383 -2.9479 -0.5470 -0.8456
 4689SOL     OW25945   0.326   2.651   3.009  0.0303 -0.2643  0.4457
 4689SOL    HW125946   0.333   2.677   2.917 -1.2610  0.8314  0.6580
 4689SOL    HW225947   0.388   2.579   3.018  0.8569  0.2565 -1.0577
 4690SOL     OW25948   3.170   0.648   4.258  0.1123  0.4952  0.1405
 4690SOL    HW125949   3.132   0.702   4.327 -1.0487 -0.5936  0.3431
 4690SOL    HW225950   3.095   0.606   4.216  0.7264  2.1348 -2.5906
 4691SOL     OW25951   4.215   4.242  19.282  0.4408 -0.7634 -0.3008
 4691SOL    HW125952   4.147   4.223  19.346 -0.8164  0.2830 -1.3283
 4691SOL    HW225953   4.235   4.335  19.296  1.3964 -0.9691 -0.2576
 4692SOL     OW25954   4.635   0.485   6.088 -0.9632 -0.1539 -0.2458
 4692SOL    HW125955   4.632   0.410   6.029  0.7781 -0.5827  0.2021
 4692SOL    HW225956   4.728   0.495   6.108 -1.5190  0.2366  2.0907
 4693SOL     OW25957   2.949   2.818  13.421 -0.5145  0.7421 -0.3205
 4693SOL    HW125958   2.942   2.744  13.361  1.7112  2.5935 -2.8399
 4693SOL    HW225959   2.892   2.795  13.494 -2.7097 -1.7916 -2.8414
 4694SOL     OW25960   3.873   0.837   0.978 -0.2667  0.1153 -0.0853
 4694SOL    HW125961   3.874   0.931   0.958  1.2189  0.0178 -0.4517
 4694SOL    HW225962   3.815   0.829   1.054  1.5215  1.6100  1.4277
 4695SOL     OW25963   2.109   2.681  18.494 -0.4627 -0.9049  0.5317
 4695SOL    HW125964   2.089   2.620  18.565 -1.2185  1.0178  1.9701
 4695SOL    HW225965   2.047   2.657  18.424  0.2377 -2.7410  0.5302
 4696SOL     OW25966   1.049   2.639   8.424 -0.2661 -0.2468 -0.4951
 4696SOL    HW125967   0.981   2.573   8.412 -0.6381  0.1900 -0.7681
 4696SOL    HW225968   1.121   2.592   8.467 -0.0740 -1.1078 -1.7700
 4697SOL     OW25969   3.845   3.952   5.441  0.1627  0.1618 -0.1568
 4697SOL    HW125970   3.778   4.019   5.431  0.2741  0.7499  3.0325
 4697SOL    HW225971   3.911   3.991   5.499  2.4899 -0.9933 -1.9894
 4698SOL     OW25972   4.742   2.271   8.461  0.3901  0.4049 -0.2029
 4698SOL    HW125973   4.733   2.348   8.518 -0.2345 -0.0899  0.3701
 4698SOL    HW225974   4.657   2.265   8.416  0.7738  0.6103 -0.9477
 4699SOL     OW25975   1.025   2.731  17.211 -0.5497  0.5016  0.7166
 4699SOL    HW125976   1.111   2.716  17.171 -1.1130  1.7621 -0.9804
 4699SOL    HW225977   0.984   2.645  17.212  0.1602  0.1513  0.1674
 4700SOL     OW25978   2.380   4.660   2.291  0.1264  0.2046  0.3213
 4700SOL    HW125979   2.458   4.612   2.263 -0.4479 -0.0922 -0.8236
 4700SOL    HW225980   2.334   4.599   2.349 -0.4958 -0.5866 -0.9680
 4701SOL     OW25981   0.909   3.852   0.359 -0.2592  0.3630 -0.0891
 4701SOL    HW125982   0.833   3.821   0.408  0.3291  0.0599  0.6341
 4701SOL    HW225983   0.896   3.819   0.270 -1.4768  1.1580 -0.2134
 4702SOL     OW25984   1.201   0.163  12.406 -0.1730 -0.3996 -0.1014
 4702SOL    HW125985   1.197   0.255  12.381 -1.3298 -0.6494 -0.8775
 4702SOL    HW225986   1.115   0.145  12.443  0.6280 -0.7385  1.5627
 4703SOL     OW25987   3.978   3.787   1.492  0.2356 -0.6678  0.2689
 4703SOL    HW125988   3.884   3.806   1.488  0.0237 -1.9544 -1.0026
 4703SOL    HW225989   4.020   3.869   1.466 -0.5205  0.0654  1.3395
 4704SOL     OW25990   4.003   1.265  16.645  0.1514 -0.0095  0.2747
 4704SOL    HW125991   4.049   1.185  16.671  0.5998  0.6192  1.4188
 4704SOL    HW225992   4.058   1.303  16.576  1.0899  0.4832  1.2961
 4705SOL     OW25993   3.095   4.761   1.947  0.2588 -0.2258 -0.4257
 4705SOL    HW125994   3.146   4.699   1.999  0.4653 -0.4265 -0.8718
 4705SOL    HW225995   3.021   4.710   1.914 -0.8517  0.3510  1.1842
 4706SOL     OW25996   1.987   4.204  18.534 -0.1049 -0.2231  0.1136
 4706SOL    HW125997   1.963   4.297  18.525  0.0230 -0.0317  1.8086
 4706SOL    HW225998   2.070   4.205  18.581  0.1053 -1.1918 -0.2370
 4707SOL     OW25999   0.399   3.202   0.531  0.3714 -0.3630  0.4042
 4707SOL    HW126000   0.459   3.186   0.458 -1.2829 -1.8270 -0.6215
 4707SOL    HW226001   0.343   3.273   0.501 -0.3099 -0.9654  0.2471
 4708SOL     OW26002   3.094   1.916   1.559  0.0669 -0.2339 -0.5344
 4708SOL    HW126003   3.063   1.904   1.469  1.5182 -1.6198 -0.8549
 4708SOL    HW226004   3.173   1.861   1.564  1.6904  2.2466  0.6582
 4709SOL     OW26005   1.665   1.787   2.998 -0.2069  0.2458 -0.3048
 4709SOL    HW126006   1.674   1.695   2.973 -0.0903  0.0663  0.3766
 4709SOL    HW226007   1.604   1.824   2.935  1.2845  0.1829 -1.7957
 4710SOL     OW26008   2.441   1.407  12.116 -0.6044 -0.4919  0.3496
 4710SOL    HW126009   2.373   1.431  12.053 -0.3099  2.0448  1.0205
 4710SOL    HW226010   2.393   1.376  12.193 -0.9744 -1.4293 -0.2520
 4711SOL     OW26011   4.556   1.171  14.536  0.1514  0.8760 -0.2866
 4711SOL    HW126012   4.503   1.176  14.457 -2.1987 -0.5452  1.1678
 4711SOL    HW226013   4.542   1.255  14.580  1.1239  1.4997 -1.1816
 4712SOL     OW26014   4.081   0.355   1.915  0.6425 -0.4432  0.0060
 4712SOL    HW126015   4.010   0.410   1.884 -0.7724 -2.2539 -0.0115
 4712SOL    HW226016   4.135   0.412   1.969  0.1681  1.3880 -1.4833
 4713SOL     OW26017   1.341   2.852  16.239  0.3289  0.0722  0.0589
 4713SOL    HW126018   1.287   2.901  16.178 -0.4801 -1.8711 -0.7646
 4713SOL    HW226019   1.310   2.879  16.326 -1.2602 -0.2750 -0.4062
 4714SOL     OW26020   2.914   0.856   3.416  0.3551  0.5094 -0.5080
 4714SOL    HW126021   2.986   0.901   3.372 -1.4102  2.6115 -1.1989
 4714SOL    HW226022   2.838   0.869   3.360 -0.7616 -1.0800  0.6107
 4715SOL     OW26023   2.474   3.402  15.509  0.8010 -0.0609 -0.3753
 4715SOL    HW126024   2.422   3.441  15.580 -1.7463  0.5371 -2.5725
 4715SOL    HW226025   2.488   3.311  15.537  0.4232  0.3772  1.2496
 4716SOL     OW26026   3.535   2.881  13.929  0.5530  0.1961  0.2702
 4716SOL    HW126027   3.584   2.799  13.942 -0.4754 -0.3768  0.5397
 4716SOL    HW226028   3.443   2.855  13.938  0.2927  1.6245  1.5992
 4717SOL     OW26029   4.436   0.169   7.867 -0.3236 -0.1091 -0.6436
 4717SOL    HW126030   4.469   0.166   7.957 -1.3618 -0.6830 -0.2876
 4717SOL    HW226031   4.441   0.262   7.843  0.6673 -0.0624 -0.2629
 4718SOL     OW26032   3.221   2.764  18.284 -0.2943 -0.3263  0.9117
 4718SOL    HW126033   3.290   2.830  18.289  1.3847 -1.9342 -1.5808
 4718SOL    HW226034   3.157   2.802  18.223  0.5979 -0.9273 -0.4020
 4719SOL     OW26035   1.185   3.137   5.102  0.1638  0.1596  0.3718
 4719SOL    HW126036   1.132   3.058   5.107 -1.0585  0.9978  0.5019
 4719SOL    HW226037   1.124   3.209   5.118  0.9781  1.2313 -1.2905
 4720SOL     OW26038   3.735   2.773   8.666 -0.3120  0.0042  0.4995
 4720SOL    HW126039   3.735   2.750   8.759  0.2434 -0.9187  0.2678
 4720SOL    HW226040   3.647   2.749   8.636 -0.2154 -0.4599  0.5924
 4721SOL     OW26041   2.231   2.151  11.028  0.5593 -0.2217  0.2770
 4721SOL    HW126042   2.239   2.182  10.938 -0.4593 -0.9458 -0.0573
 4721SOL    HW226043   2.285   2.212  11.079 -1.2490  1.9579 -0.4039
 4722SOL     OW26044   3.442   1.503   4.365 -0.0730  0.3144 -0.0663
 4722SOL    HW126045   3.356   1.468   4.389  1.7113 -2.6959  1.8596
 4722SOL    HW226046   3.479   1.437   4.307  0.5888  2.0133 -1.5681
 4723SOL     OW26047   3.148   3.279  18.240  0.0324  0.1390 -0.2915
 4723SOL    HW126048   3.230   3.311  18.278  0.9846 -0.2648 -2.0200
 4723SOL    HW226049   3.088   3.274  18.314  1.6911  0.0682  1.0488
 4724SOL     OW26050   0.343   3.197  16.831 -0.0399 -0.3309 -0.9226
 4724SOL    HW126051   0.386   3.263  16.776  0.5760 -1.8578 -2.2742
 4724SOL    HW226052   0.275   3.160  16.776  0.9050 -2.2225 -0.8207
 4725SOL     OW26053   0.925   3.942  20.533 -0.1570  0.6477 -0.7328
 4725SOL    HW126054   0.903   3.849  20.536 -0.8841  0.8750  0.8409
 4725SOL    HW226055   0.969   3.954  20.449  0.0619 -1.1524 -0.8658
 4726SOL     OW26056   4.157   2.452   0.765  0.2025  0.6375  0.3998
 4726SOL    HW126057   4.067   2.451   0.733  0.4594 -0.6304 -0.2922
 4726SOL    HW226058   4.210   2.439   0.686  0.9303  0.0640  0.9873
 4727SOL     OW26059   2.988   1.037  20.207 -0.1236 -0.3977 -0.3437
 4727SOL    HW126060   2.894   1.033  20.223 -0.2449  0.1348 -0.8999
 4727SOL    HW226061   3.008   0.957  20.158 -0.2872 -0.5199 -0.2079
 4728SOL     OW26062   1.957   2.445   4.434 -0.2011  0.2319  0.0965
 4728SOL    HW126063   1.895   2.476   4.500  0.8235  1.1601  0.6435
 4728SOL    HW226064   1.963   2.517   4.371 -0.1492 -0.1016 -0.2799
 4729SOL     OW26065   3.564   4.037  17.188  0.0927 -0.1770 -0.0895
 4729SOL    HW126066   3.614   4.024  17.107  0.7468 -0.8695  0.4241
 4729SOL    HW226067   3.615   4.101  17.237 -0.6752  0.7738 -0.5409
 4730SOL     OW26068   0.830   4.386  14.948  0.4778 -0.8609 -0.5519
 4730SOL    HW126069   0.788   4.351  14.869  0.5801  0.3731 -1.1523
 4730SOL    HW226070   0.909   4.428  14.916 -0.1767  0.8295  0.0572
 4731SOL     OW26071   3.011   1.792  18.234  0.2004 -0.0764  0.3662
 4731SOL    HW126072   2.967   1.775  18.151  1.0002  0.9604 -0.2591
 4731SOL    HW226073   3.103   1.801  18.211  0.4363  0.0707  1.3803
 4732SOL     OW26074   3.180   2.113   5.062 -0.2563 -0.2825  0.0715
 4732SOL    HW126075   3.244   2.121   4.992 -0.7418  2.3651 -0.0634
 4732SOL    HW226076   3.103   2.076   5.020  0.3589 -1.2088 -0.2465
 4733SOL     OW26077   2.353   1.795  21.095  0.2928 -0.7371 -0.1585
 4733SOL    HW126078   2.277   1.772  21.148  0.7701  0.9268  1.2449
 4733SOL    HW226079   2.427   1.757  21.142  0.6652  0.3595  0.1472
 4734SOL     OW26080   1.838   1.498  16.657 -0.4880  0.2354 -0.3061
 4734SOL    HW126081   1.746   1.492  16.630 -0.6845  2.3761 -0.1355
 4734SOL    HW226082   1.886   1.517  16.576 -0.5702  2.2659  0.1123
 4735SOL     OW26083   3.171   1.256  13.561 -0.7548  0.3833  0.3383
 4735SOL    HW126084   3.092   1.239  13.611 -1.4669  0.9129 -0.6134
 4735SOL    HW226085   3.161   1.346  13.530  0.0819  0.3525 -0.0248
 4736SOL     OW26086   3.302   1.155   3.503  0.0036  0.1539 -0.1106
 4736SOL    HW126087   3.386   1.184   3.468  0.8366 -1.6075  0.4171
 4736SOL    HW226088   3.299   1.192   3.591  0.2693  0.1546 -0.1016
 4737SOL     OW26089   0.788   2.539   5.158 -0.1860  0.1446 -0.8950
 4737SOL    HW126090   0.870   2.489   5.155 -0.0540  0.2855  0.3792
 4737SOL    HW226091   0.793   2.598   5.082  1.6999  1.4128  0.2118
 4738SOL     OW26092   2.806   0.432  12.200 -0.0901 -0.0132  0.5916
 4738SOL    HW126093   2.785   0.371  12.129 -0.4685  1.0783 -0.2372
 4738SOL    HW226094   2.864   0.497  12.159 -0.6754  0.8691  1.1674
 4739SOL     OW26095   0.791   2.027   2.113 -0.1200 -0.2139 -0.1835
 4739SOL    HW126096   0.716   2.027   2.173 -0.2564 -1.2846 -0.3540
 4739SOL    HW226097   0.773   1.954   2.053  0.6595  0.0445 -0.7247
 4740SOL     OW26098   0.841   3.771  18.634 -0.3782 -0.3062 -0.1501
 4740SOL    HW126099   0.866   3.860  18.658 -2.1342 -0.1815  1.2353
 4740SOL    HW226100   0.868   3.762  18.543 -1.6230  2.1683 -0.7535
 4741SOL     OW26101   2.956   4.594  19.657  0.0371 -0.0803 -0.0858
 4741SOL    HW126102   2.968   4.661  19.724  1.5178 -1.2104  0.7732
 4741SOL    HW226103   2.887   4.537  19.693  0.9655 -0.7953  0.5523
 4742SOL     OW26104   3.264   4.554   2.345  0.5436  0.7881 -1.0023
 4742SOL    HW126105   3.266   4.461   2.324 -0.7077  0.9490 -1.7946
 4742SOL    HW226106   3.210   4.560   2.423  2.3498  0.6046  0.2743
 4743SOL     OW26107   1.105   3.334   4.611  0.1837 -0.3557 -0.1361
 4743SOL    HW126108   1.055   3.298   4.537  0.4761 -3.8892  1.3751
 4743SOL    HW226109   1.195   3.306   4.595  0.6329  0.7860  0.3831
 4744SOL     OW26110   2.609   0.364   3.130  0.3801 -0.2352 -0.1977
 4744SOL    HW126111   2.675   0.303   3.098  1.1745  0.6811 -0.2769
 4744SOL    HW226112   2.630   0.447   3.090  0.8356  0.6981  1.9648
 4745SOL     OW26113   3.367   3.918   3.393  0.0427 -0.3160 -0.1673
 4745SOL    HW126114   3.402   3.964   3.469 -1.3751 -3.0863  2.1234
 4745SOL    HW226115   3.304   3.980   3.355  0.9630  1.1741  0.7108
 4746SOL     OW26116   1.987   2.940   1.805  0.1528  0.1854 -0.0913
 4746SOL    HW126117   1.902   2.981   1.791 -0.4357 -1.0250 -0.0671
 4746SOL    HW226118   1.997   2.880   1.732  0.8157  0.0304  0.1241
 4747SOL     OW26119   3.131   3.685  16.141  0.0618  0.3291  0.4215
 4747SOL    HW126120   3.107   3.726  16.224 -1.8471 -1.1553  0.5965
 4747SOL    HW226121   3.121   3.754  16.076 -0.0855  1.0220  1.1909
 4748SOL     OW26122   0.440   4.559   2.009  0.3225 -0.7343 -0.8373
 4748SOL    HW126123   0.394   4.625   1.957  0.0209 -1.0507 -0.9684
 4748SOL    HW226124   0.373   4.522   2.066  0.2314 -1.8435 -1.6782
 4749SOL     OW26125   4.371   4.160  19.682  0.2432 -0.0334  0.3094
 4749SOL    HW126126   4.300   4.158  19.746 -0.8215 -1.1337 -0.9006
 4749SOL    HW226127   4.437   4.218  19.720 -2.4722  3.1126  0.2004
 4750SOL     OW26128   1.792   4.420  16.029 -0.1106 -0.7205 -0.1384
 4750SOL    HW126129   1.722   4.377  15.979  0.4528 -0.2241 -1.3641
 4750SOL    HW226130   1.831   4.349  16.080 -1.2575 -1.0718  0.2561
 4751SOL     OW26131   1.439   4.705  11.948  0.3151  0.2266 -0.1030
 4751SOL    HW126132   1.450   4.613  11.969  1.0205  0.3888  0.2367
 4751SOL    HW226133   1.419   4.746  12.033 -2.1533  0.0481 -0.5817
 4752SOL     OW26134   0.835   0.871  19.670 -0.1527  0.3901 -0.3044
 4752SOL    HW126135   0.829   0.879  19.575 -0.1501 -0.0673 -0.3436
 4752SOL    HW226136   0.831   0.961  19.702  2.0956  0.6665 -0.8495
 4753SOL     OW26137   0.346   1.293  15.827 -0.4287 -0.4002 -0.0600
 4753SOL    HW126138   0.421   1.234  15.838 -1.5013 -1.6917  0.3368
 4753SOL    HW226139   0.299   1.288  15.910 -1.8506 -0.8502 -0.8790
 4754SOL     OW26140   0.999   0.429   1.275 -0.4590  0.1776  0.3431
 4754SOL    HW126141   1.023   0.473   1.193  0.7123 -1.5228 -0.2344
 4754SOL    HW226142   0.915   0.388   1.257 -0.6848  0.6465  0.3170
 4755SOL     OW26143   3.883   1.764   3.721  0.4782 -0.0381 -0.8389
 4755SOL    HW126144   3.894   1.681   3.769 -1.0297  0.1600 -0.1557
 4755SOL    HW226145   3.910   1.831   3.783 -1.3523  0.2102 -0.3102
 4756SOL     OW26146   2.909   2.988  21.111 -0.2361 -0.0384 -0.8536
 4756SOL    HW126147   2.909   3.047  21.186  0.5232 -0.0537 -0.8495
 4756SOL    HW226148   2.846   2.920  21.134  1.2241 -0.9416  0.4542
 4757SOL     OW26149   3.460   2.618  19.794 -0.1229 -0.0939  0.0261
 4757SOL    HW126150   3.366   2.638  19.796  0.1427  1.3574 -1.4690
 4757SOL    HW226151   3.473   2.556  19.866 -2.2943 -0.5988 -0.0043
 4758SOL     OW26152   2.699   1.275   1.396  0.0233 -0.2344  0.2234
 4758SOL    HW126153   2.708   1.368   1.416  0.1836 -0.2980  0.4481
 4758SOL    HW226154   2.604   1.261   1.388  0.0684  0.2471 -1.2538
 4759SOL     OW26155   1.822   0.084   3.551  0.2267  0.3542 -0.4212
 4759SOL    HW126156   1.823   0.107   3.458 -0.1656 -1.0799 -0.7741
 4759SOL    HW226157   1.738   0.117   3.583  0.7470  1.6594 -0.3613
 4760SOL     OW26158   2.750   3.030  15.703  0.1063 -1.3226 -0.1194
 4760SOL    HW126159   2.825   2.988  15.744  1.4013  1.0551 -0.0653
 4760SOL    HW226160   2.787   3.103  15.654 -2.2248  0.1249  0.2787
 4761SOL     OW26161   0.817   1.341  13.382  0.5174  0.4783  0.7576
 4761SOL    HW126162   0.809   1.264  13.439  0.9741  0.4808  0.8228
 4761SOL    HW226163   0.727   1.372  13.373  0.0926 -1.2044 -0.8636
 4762SOL     OW26164   4.166   3.019  19.202  0.0455 -0.4418 -0.1413
 4762SOL    HW126165   4.221   2.957  19.249 -0.2213  0.0344  0.8168
 4762SOL    HW226166   4.201   3.021  19.113  0.6298 -1.2610  0.0746
 4763SOL     OW26167   2.849   1.801  20.362 -0.0632  0.0726 -0.3704
 4763SOL    HW126168   2.789   1.775  20.432 -1.2557 -0.7620 -1.7080
 4763SOL    HW226169   2.860   1.895  20.373 -1.1389  0.1230  0.2411
 4764SOL     OW26170   1.176   4.734  18.018  0.9230  0.1124 -0.3861
 4764SOL    HW126171   1.193   4.640  18.014  1.2431  0.1895 -0.7596
 4764SOL    HW226172   1.256   4.775  17.986  0.8457  0.5162 -0.0661
 4765SOL     OW26173   4.044   4.729  18.922  0.2537  0.0447  0.7388
 4765SOL    HW126174   4.113   4.669  18.895 -0.3069 -0.5613  0.6606
 4765SOL    HW226175   4.020   4.701  19.010  0.7455  0.8233  1.1176
 4766SOL     OW26176   1.492   0.085  12.515 -0.5496  0.3444  0.1288
 4766SOL    HW126177   1.522   0.003  12.475 -0.4877 -0.2733  1.4411
 4766SOL    HW226178   1.441   0.128  12.446 -1.6597 -1.3929 -0.1252
 4767SOL     OW26179   0.866   3.477   3.038  0.1497  0.0604  0.0139
 4767SOL    HW126180   0.834   3.557   2.995 -1.7883 -1.2597 -0.9860
 4767SOL    HW226181   0.794   3.451   3.096 -0.1117 -2.1828 -1.2904
 4768SOL     OW26182   0.315   0.108   4.029 -0.7911 -0.2269 -0.0117
 4768SOL    HW126183   0.344   0.192   4.064 -1.0235  0.3824 -1.2678
 4768SOL    HW226184   0.395   0.064   4.000 -0.7085 -0.2695  0.2863
 4769SOL     OW26185   3.922   3.503   1.123  0.1049  0.3956  0.0781
 4769SOL    HW126186   3.941   3.597   1.121  0.9063  0.2262 -0.4991
 4769SOL    HW226187   4.008   3.461   1.119 -0.2538 -0.3623  0.3193
 4770SOL     OW26188   1.113   1.518  15.141  0.3638 -0.4399  0.1815
 4770SOL    HW126189   1.116   1.465  15.221  0.2289 -0.2224  0.3303
 4770SOL    HW226190   1.026   1.558  15.142  0.5762  0.0223  0.2197
 4771SOL     OW26191   3.073   2.307  17.086  0.0725  0.2493  0.0030
 4771SOL    HW126192   2.996   2.331  17.137 -0.5728 -0.1213 -0.7896
 4771SOL    HW226193   3.122   2.247  17.143  0.9320  2.2512  1.3944
 4772SOL     OW26194   1.465   3.601  19.963 -0.1180 -0.3973  0.0962
 4772SOL    HW126195   1.403   3.618  19.892 -1.7869 -0.6928  1.4737
 4772SOL    HW226196   1.491   3.688  19.994 -0.2737 -0.2799 -0.1086
 4773SOL     OW26197   4.325   0.449  17.767 -0.1295 -0.1392  0.2184
 4773SOL    HW126198   4.402   0.506  17.760 -0.2278 -0.1572 -1.0222
 4773SOL    HW226199   4.355   0.364  17.734 -1.1654  0.3116 -1.8743
 4774SOL     OW26200   2.938   3.457   4.525  0.6075  0.0761 -0.1880
 4774SOL    HW126201   2.911   3.538   4.481 -0.6304  0.3174  1.0093
 4774SOL    HW226202   2.906   3.467   4.615  2.5541 -0.7032  0.5784
 4775SOL     OW26203   0.562   3.192   3.907  0.2264  0.3573  0.2334
 4775SOL    HW126204   0.565   3.241   3.824 -1.4167  0.5188  0.2539
 4775SOL    HW226205   0.497   3.123   3.891  2.4876 -1.7471  0.2395
 4776SOL     OW26206   1.202   3.982   8.708  0.3606 -0.0984 -0.2613
 4776SOL    HW126207   1.175   3.992   8.617  1.5198 -0.6520 -0.6711
 4776SOL    HW226208   1.297   3.969   8.704  0.4778  0.2825  1.0517
 4777SOL     OW26209   4.522   2.465  20.974 -0.4890  0.7437 -0.0575
 4777SOL    HW126210   4.480   2.405  21.036  0.6280  0.4433  0.4137
 4777SOL    HW226211   4.528   2.547  21.022  1.2910  0.2353  0.5899
 4778SOL     OW26212   3.602   1.057  15.187  0.1979 -0.2062  0.4346
 4778SOL    HW126213   3.577   0.970  15.221  0.8434 -1.6385 -2.7440
 4778SOL    HW226214   3.685   1.076  15.231 -0.4672 -0.7228  1.9447
 4779SOL     OW26215   3.466   4.382  15.491 -0.2048 -0.3012  0.3418
 4779SOL    HW126216   3.494   4.407  15.403  0.2029 -0.3881  0.4472
 4779SOL    HW226217   3.429   4.462  15.528  0.7796  0.0561  0.5525
 4780SOL     OW26218   1.967   1.953  17.891 -0.2540  0.5109 -0.4500
 4780SOL    HW126219   1.876   1.961  17.922  0.4100  2.2095  1.0701
 4780SOL    HW226220   1.992   2.043  17.869  1.8202  0.3587  1.2872
 4781SOL     OW26221   0.597   0.072   6.151  0.0332  0.1277 -0.3564
 4781SOL    HW126222   0.670   0.122   6.188 -0.6780  0.7644  0.1747
 4781SOL    HW226223   0.564   0.019   6.223 -0.0645 -0.1254 -0.5840
 4782SOL     OW26224   1.892   2.925   7.786  0.1821 -0.6979  0.0317
 4782SOL    HW126225   1.942   2.853   7.827  2.9430  1.7451  0.9521
 4782SOL    HW226226   1.905   2.999   7.845 -1.3882  0.9843 -1.7760
 4783SOL     OW26227   3.891   2.379   5.142 -0.1970  0.3556  0.0249
 4783SOL    HW126228   3.825   2.326   5.097  0.6147  0.1713 -0.9443
 4783SOL    HW226229   3.896   2.460   5.091 -1.3582  1.3070  1.4472
 4784SOL     OW26230   3.650   2.371   2.566 -0.1158 -0.0117  0.0540
 4784SOL    HW126231   3.716   2.338   2.626  0.5257 -0.1128 -0.7011
 4784SOL    HW226232   3.695   2.441   2.517 -0.3830 -0.4928 -0.8736
 4785SOL     OW26233   4.738   3.484  18.993  0.6022 -0.3084 -0.4491
 4785SOL    HW126234   4.727   3.527  19.078 -2.0106  0.7664 -1.3310
 4785SOL    HW226235   0.044   3.521  18.959  1.6135 -0.6925  1.5732
 4786SOL     OW26236   1.163   1.658  16.725 -0.0084  0.0784  0.4509
 4786SOL    HW126237   1.127   1.570  16.740  2.2298 -0.7229  1.1141
 4786SOL    HW226238   1.221   1.648  16.650  2.8942  0.2856  2.6933
 4787SOL     OW26239   2.035   0.225  15.973 -0.4727  0.6855  0.4088
 4787SOL    HW126240   1.988   0.240  15.892 -0.1978  0.1017  0.1399
 4787SOL    HW226241   2.101   0.159  15.951 -0.9215 -0.0685  1.2982
 4788SOL     OW26242   4.109   1.295   4.016  0.2949  0.0024 -0.4012
 4788SOL    HW126243   4.151   1.370   3.974  1.6084  0.3324  1.4670
 4788SOL    HW226244   4.056   1.333   4.086  1.0257 -0.8104  0.5955
 4789SOL     OW26245   2.770   1.534  12.475  0.1166  0.1296  0.3934
 4789SOL    HW126246   2.693   1.550  12.420  0.9398  3.6501  0.2235
 4789SOL    HW226247   2.843   1.529  12.413  1.1566  4.8889  1.2333
 4790SOL     OW26248   2.919   2.685   9.337 -0.4358  0.0594 -0.0955
 4790SOL    HW126249   2.848   2.671   9.273  1.4197 -1.4910 -1.8147
 4790SOL    HW226250   2.966   2.602   9.339  1.7819  1.3368  0.5330
 4791SOL     OW26251   4.257   0.261  16.133  0.1271  0.3007 -0.1282
 4791SOL    HW126252   4.257   0.166  16.146  0.4018  0.4507  1.0514
 4791SOL    HW226253   4.349   0.286  16.142 -0.2008  0.9342  1.6413
 4792SOL     OW26254   4.324   1.487  19.785 -0.0207 -0.2231  0.7711
 4792SOL    HW126255   4.243   1.530  19.813 -0.0041  0.2857  0.0321
 4792SOL    HW226256   4.299   1.395  19.772 -0.2457 -0.2667  1.5393
 4793SOL     OW26257   3.904   3.352  20.123 -0.3980  0.3010  0.3536
 4793SOL    HW126258   3.983   3.371  20.073 -0.9485  2.0745  0.1386
 4793SOL    HW226259   3.871   3.438  20.148 -1.6653 -0.4815  1.3581
 4794SOL     OW26260   3.830   1.233   5.095  0.1585 -0.3094  0.2566
 4794SOL    HW126261   3.854   1.315   5.052  0.2331 -0.7949 -0.6255
 4794SOL    HW226262   3.746   1.210   5.056  0.5634 -1.1170 -0.1225
 4795SOL     OW26263   0.604   1.301   2.006  0.2046  0.5067  0.4500
 4795SOL    HW126264   0.530   1.344   1.963 -0.0175  0.7951  1.1094
 4795SOL    HW226265   0.670   1.370   2.014  0.3833  0.3590  0.2398
 4796SOL     OW26266   4.179   4.740   0.193 -0.6771 -0.2186 -0.3323
 4796SOL    HW126267   4.183   0.057   0.170  1.7900 -0.3400 -0.4602
 4796SOL    HW226268   4.105   4.733   0.253 -0.5434  1.9240  0.0831
 4797SOL     OW26269   4.472   0.872   5.598 -0.8941 -0.0021  0.1541
 4797SOL    HW126270   4.512   0.785   5.601  1.5381  1.0814 -0.6311
 4797SOL    HW226271   4.530   0.926   5.653 -2.4514  1.0800  0.7104
 4798SOL     OW26272   3.857   1.607   6.366 -0.1906 -0.0086  0.2236
 4798SOL    HW126273   3.844   1.670   6.295 -0.4003  0.4168  0.6382
 4798SOL    HW226274   3.868   1.523   6.322 -1.2424  0.1174 -0.2719
 4799SOL     OW26275   2.510   0.263  19.378 -0.5915 -0.6440 -0.1378
 4799SOL    HW126276   2.446   0.296  19.441  1.0366 -1.4786  1.9344
 4799SOL    HW226277   2.566   0.339  19.358 -1.0369 -0.4119 -0.5298
 4800SOL     OW26278   4.112   3.544  11.000 -0.3175  0.5399 -0.3122
 4800SOL    HW126279   4.025   3.518  11.030  0.4266 -1.3422  0.2163
 4800SOL    HW226280   4.116   3.516  10.909 -0.3933  0.9381 -0.4376
 4801SOL     OW26281   3.683   2.799   2.347 -0.1367 -0.3583 -0.1141
 4801SOL    HW126282   3.609   2.831   2.399 -1.3631 -2.6469 -0.4393
 4801SOL    HW226283   3.653   2.805   2.257  0.0134 -1.3859 -0.2414
 4802SOL     OW26284   0.736   1.762   5.171 -0.2705 -0.7319 -0.1486
 4802SOL    HW126285   0.755   1.674   5.138 -0.7047 -0.8435 -0.1034
 4802SOL    HW226286   0.709   1.811   5.093  1.6671 -0.1575 -0.4672
 4803SOL     OW26287   2.375   0.961  17.711 -0.0544 -0.0189 -0.4625
 4803SOL    HW126288   2.329   1.001  17.637 -0.6626  2.1741  1.0922
 4803SOL    HW226289   2.307   0.950  17.777  0.9674  0.1544  0.6107
 4804SOL     OW26290   3.655   1.908  16.967 -0.3206  0.4095 -0.6411
 4804SOL    HW126291   3.719   1.972  17.000  0.0578 -1.3847  2.1763
 4804SOL    HW226292   3.576   1.926  17.017 -0.5298 -0.5948 -0.6006
 4805SOL     OW26293   3.013   1.799   4.656 -0.0481  0.5480 -0.2604
 4805SOL    HW126294   2.973   1.714   4.673 -1.7046  1.0282 -1.7177
 4805SOL    HW226295   3.107   1.782   4.653 -0.2695 -0.9015  1.3745
 4806SOL     OW26296   4.062   1.367   6.529 -1.0030  0.5902 -0.3843
 4806SOL    HW126297   4.018   1.415   6.600  1.1300 -0.0516  1.3642
 4806SOL    HW226298   4.138   1.420   6.508  0.6302 -1.3808  0.6392
 4807SOL     OW26299   4.287   1.272   6.779  0.0505 -0.1791 -0.0179
 4807SOL    HW126300   4.309   1.206   6.845  1.5430  1.5792  1.2205
 4807SOL    HW226301   4.209   1.316   6.813  0.7065  0.5981  0.4679
 4808SOL     OW26302   2.116   2.215  20.484  0.2487 -0.2795  0.3903
 4808SOL    HW126303   2.094   2.232  20.392  1.1031 -0.4705  0.1458
 4808SOL    HW226304   2.032   2.193  20.525 -0.3300  1.0993 -0.0501
 4809SOL     OW26305   1.668   1.501  10.556 -0.2098 -0.0698 -0.0444
 4809SOL    HW126306   1.633   1.589  10.573 -0.1293 -0.0391 -0.0341
 4809SOL    HW226307   1.625   1.473  10.475 -0.7791 -0.3164  0.3447
 4810SOL     OW26308   0.858   0.642  10.256  0.4686  0.2736 -0.7058
 4810SOL    HW126309   0.943   0.601  10.240  1.1522  2.7469 -3.2534
 4810SOL    HW226310   0.801   0.609  10.186  0.5051  2.1898 -1.6232
 4811SOL     OW26311   3.979   1.491   3.534  0.0006 -0.2710 -0.4257
 4811SOL    HW126312   4.050   1.428   3.521  0.7542  0.6924 -1.0324
 4811SOL    HW226313   4.004   1.537   3.615 -0.9676 -1.3109  0.4650
 4812SOL     OW26314   3.227   0.541   4.794  1.0648  0.1465  0.3823
 4812SOL    HW126315   3.314   0.578   4.781  0.9900  0.3833  0.5455
 4812SOL    HW226316   3.241   0.447   4.798  1.2830  0.1718  0.1614
 4813SOL     OW26317   2.070   1.571   2.491  0.5097  0.2627 -0.1826
 4813SOL    HW126318   2.074   1.570   2.395  1.7445  1.9946 -0.1485
 4813SOL    HW226319   2.007   1.640   2.511 -0.5766 -0.8430  0.2381
 4814SOL     OW26320   2.943   4.387   3.585 -0.6844 -0.1672 -0.2963
 4814SOL    HW126321   2.985   4.344   3.511  1.7404  2.3268 -0.3860
 4814SOL    HW226322   2.942   4.321   3.654  2.0127 -0.7252 -0.7910
 4815SOL     OW26323   3.444   4.169   4.930  0.4131  0.1655 -0.0375
 4815SOL    HW126324   3.520   4.228   4.933 -0.2633  1.1292 -1.6959
 4815SOL    HW226325   3.383   4.206   4.994  0.1993  0.9719 -0.7081
 4816SOL     OW26326   4.402   2.950  15.846  0.0626  0.1251 -0.6791
 4816SOL    HW126327   4.393   3.029  15.899  2.4804 -1.9395  2.7529
 4816SOL    HW226328   4.351   2.884  15.892  0.4901 -1.1303 -2.0044
 4817SOL     OW26329   3.689   1.829   8.484 -0.4350  0.2546 -0.0912
 4817SOL    HW126330   3.616   1.890   8.471  0.8517  1.2250 -2.9699
 4817SOL    HW226331   3.664   1.752   8.433 -0.3867 -0.1986  0.5783
 4818SOL     OW26332   3.970   2.942  16.977  0.5966 -0.0047  0.0926
 4818SOL    HW126333   4.018   3.010  17.023  0.4988  0.9390 -1.1869
 4818SOL    HW226334   4.004   2.945  16.887 -2.9555  1.6992 -1.1943
 4819SOL     OW26335   2.718   3.878   2.481  0.0051  0.0305 -1.0659
 4819SOL    HW126336   2.668   3.906   2.558  1.4947  1.4475 -0.6361
 4819SOL    HW226337   2.759   3.796   2.509  1.1399  0.9243 -0.1109
 4820SOL     OW26338   3.371   3.449  20.230  0.3826 -0.0792  0.3702
 4820SOL    HW126339   3.381   3.539  20.260  1.1775 -0.3923  1.0287
 4820SOL    HW226340   3.449   3.404  20.261 -0.7177 -1.3403  1.3049
 4821SOL     OW26341   4.134   3.060  15.961 -0.0183 -0.2087 -0.5623
 4821SOL    HW126342   4.114   3.154  15.954 -1.1723 -0.3178  1.0406
 4821SOL    HW226343   4.106   3.023  15.877 -2.0712  0.4491 -0.1718
 4822SOL     OW26344   3.023   2.246   4.633 -0.1865 -0.0633 -0.3326
 4822SOL    HW126345   3.052   2.163   4.595  0.9655 -0.5502  1.6333
 4822SOL    HW226346   3.083   2.311   4.598 -0.3172 -0.2310 -0.8725
 4823SOL     OW26347   2.430   3.799  11.880 -0.5336 -0.1129 -0.3268
 4823SOL    HW126348   2.423   3.703  11.880  0.5202 -0.1893  0.1816
 4823SOL    HW226349   2.418   3.823  11.972 -0.6523  0.2388 -0.4337
 4824SOL     OW26350   0.724   3.775   1.131  0.2167  0.0045  0.7013
 4824SOL    HW126351   0.797   3.729   1.090 -0.7025 -0.7897 -0.0401
 4824SOL    HW226352   0.697   3.719   1.203  1.6444  1.2636  2.2264
 4825SOL     OW26353   2.580   1.277  16.003 -0.1997 -0.1852 -0.5318
 4825SOL    HW126354   2.523   1.233  16.066 -1.8423  0.1470 -1.7871
 4825SOL    HW226355   2.542   1.364  15.992  0.8764  0.2324 -0.9175
 4826SOL     OW26356   4.141   1.252   1.780  0.0042 -0.0385  0.2808
 4826SOL    HW126357   4.167   1.165   1.810  2.3228  0.5426 -0.0143
 4826SOL    HW226358   4.220   1.287   1.738 -1.8770  0.9354 -2.4499
 4827SOL     OW26359   2.691   0.508  19.370  0.2115 -0.0896 -0.1663
 4827SOL    HW126360   2.745   0.474  19.441 -0.3776 -0.3351  0.1559
 4827SOL    HW226361   2.753   0.520  19.297  0.7155 -0.3052  0.2274
 4828SOL     OW26362   0.166   2.674   3.249  0.6364  0.1540  0.3467
 4828SOL    HW126363   0.195   2.598   3.300  0.2417  0.1094  0.5062
 4828SOL    HW226364   0.241   2.695   3.194  0.7681 -0.3224  0.3366
 4829SOL     OW26365   2.313   2.258  15.698 -0.3473 -0.5066 -0.1722
 4829SOL    HW126366   2.237   2.316  15.696 -0.0349 -0.0926 -0.0161
 4829SOL    HW226367   2.353   2.274  15.783  0.3883 -0.1185 -0.5942
 4830SOL     OW26368   3.969   1.332   0.245  0.2766 -0.1766  0.4825
 4830SOL    HW126369   4.045   1.273   0.246 -1.3650 -2.2875  0.2710
 4830SOL    HW226370   3.992   1.399   0.180  1.8876 -0.9070  0.2977
 4831SOL     OW26371   3.663   2.989   7.673  0.1896  0.5998 -0.5438
 4831SOL    HW126372   3.683   2.910   7.623 -1.6524 -0.7971  0.9200
 4831SOL    HW226373   3.667   3.060   7.609  0.7632 -0.8131 -2.0770
 4832SOL     OW26374   3.110   3.082   1.901 -0.4798 -0.2636  0.4835
 4832SOL    HW126375   3.186   3.025   1.916 -1.0698 -1.0749  0.4140
 4832SOL    HW226376   3.147   3.169   1.888  0.3066 -0.2726  2.6105
 4833SOL     OW26377   2.432   4.422   3.632 -0.0857 -0.1216 -0.2582
 4833SOL    HW126378   2.493   4.383   3.569  0.6817  1.1615 -0.3096
 4833SOL    HW226379   2.444   4.369   3.712  0.8280 -0.1073 -0.3827
 4834SOL     OW26380   1.453   2.127   4.579 -0.3121  0.2714  0.0994
 4834SOL    HW126381   1.403   2.117   4.499 -0.0237  0.8884 -0.1585
 4834SOL    HW226382   1.409   2.070   4.642  0.0653 -0.9767 -0.7722
 4835SOL     OW26383   2.317   3.145   2.648  0.0011  0.4515 -0.1210
 4835SOL    HW126384   2.399   3.095   2.658  0.3967  1.0711 -0.2617
 4835SOL    HW226385   2.338   3.211   2.582 -0.5678  0.7125 -0.0348
 4836SOL     OW26386   2.123   1.156   3.210  0.1626  0.1156 -0.2043
 4836SOL    HW126387   2.174   1.213   3.153  1.4039 -0.9490 -0.1457
 4836SOL    HW226388   2.125   1.071   3.167 -2.3242  0.2963 -0.6703
 4837SOL     OW26389   3.860   4.500  19.987 -0.3559  0.6487  0.5286
 4837SOL    HW126390   3.902   4.434  20.042 -0.9877  1.8525  2.4781
 4837SOL    HW226391   3.841   4.454  19.905  0.9906 -1.0421  1.1553
 4838SOL     OW26392   0.960   1.260   2.299 -0.1612  0.3330 -0.0690
 4838SOL    HW126393   0.991   1.179   2.339  2.1272  1.1329 -0.1931
 4838SOL    HW226394   0.871   1.272   2.333  0.2387 -1.1769  1.4926
 4839SOL     OW26395   4.671   4.629   5.370 -0.4007  0.5506  0.1365
 4839SOL    HW126396   4.759   4.662   5.389 -0.2647 -0.6223  1.4645
 4839SOL    HW226397   4.613   4.687   5.419 -0.2639  0.0054  0.9362
 4840SOL     OW26398   3.040   4.133  16.631 -0.2488  0.0172  0.2257
 4840SOL    HW126399   3.013   4.220  16.603 -1.1971 -0.4110 -0.1948
 4840SOL    HW226400   3.072   4.091  16.551 -1.6591 -0.7167  0.0495
 4841SOL     OW26401   1.746   0.741   6.045  0.2898 -0.3905 -0.0865
 4841SOL    HW126402   1.671   0.763   5.990  1.3481 -0.2352 -1.4540
 4841SOL    HW226403   1.723   0.656   6.084 -0.6018 -0.3293 -0.4782
 4842SOL     OW26404   1.473   0.498   3.589 -0.5140 -0.0352 -0.1535
 4842SOL    HW126405   1.468   0.547   3.672 -0.5987 -1.1081  0.4715
 4842SOL    HW226406   1.468   0.566   3.522  1.5403  1.0031  0.7356
 4843SOL     OW26407   0.046   2.899   8.805 -0.4060  0.1722  0.3177
 4843SOL    HW126408   4.737   2.862   8.831  0.0147 -2.0401 -1.4718
 4843SOL    HW226409   0.028   2.946   8.724 -0.3243  1.4493  1.0250
 4844SOL     OW26410   4.382   1.449  18.009  0.4469  0.4922 -0.1134
 4844SOL    HW126411   4.475   1.468  17.996  0.2824  0.6401 -1.1127
 4844SOL    HW226412   4.345   1.448  17.920 -0.0350 -1.9485  0.1118
 4845SOL     OW26413   3.652   1.432   0.029 -0.4913  0.2824  0.0410
 4845SOL    HW126414   3.653   1.469   0.118 -0.9121 -0.9706  0.5623
 4845SOL    HW226415   3.743   1.437   0.000 -0.4064  0.9736  0.4233
 4846SOL     OW26416   2.303   3.553  21.172  0.2959 -0.3515  0.0465
 4846SOL    HW126417   2.392   3.568   0.007  0.1532  0.1773  0.1965
 4846SOL    HW226418   2.257   3.635  21.191  0.1476 -0.1197 -1.3139
 4847SOL     OW26419   3.013   1.658   5.258  0.3239 -0.2745  0.3150
 4847SOL    HW126420   3.007   1.568   5.291  1.0592  0.5524  2.7021
 4847SOL    HW226421   2.990   1.713   5.333  1.2479  1.5802 -0.7507
 4848SOL     OW26422   2.536   1.272  18.303 -0.0267 -0.3260  0.1663
 4848SOL    HW126423   2.471   1.312  18.244  0.8099  1.3869  0.3907
 4848SOL    HW226424   2.510   1.301  18.390  0.0820 -0.9833  0.4160
 4849SOL     OW26425   3.811   2.350   3.426  0.3044  0.0091  0.2947
 4849SOL    HW126426   3.891   2.302   3.447  0.0436 -0.9041 -0.7727
 4849SOL    HW226427   3.814   2.428   3.482  1.2058 -0.7666  1.3399
 4850SOL     OW26428   1.709   1.957  17.412 -0.4085 -0.2067 -0.1381
 4850SOL    HW126429   1.659   1.908  17.346  0.4391  1.0940 -1.7409
 4850SOL    HW226430   1.753   2.026  17.362  2.3775 -0.8726  1.3722
 4851SOL     OW26431   1.701   2.049   0.070 -0.3930  0.3174 -0.2963
 4851SOL    HW126432   1.684   1.959   0.098 -3.1550  0.5331 -1.3447
 4851SOL    HW226433   1.736   2.092   0.149  0.9940 -1.6827  0.1876
 4852SOL     OW26434   2.318   2.402  19.417  0.3003 -0.3751  0.1211
 4852SOL    HW126435   2.356   2.484  19.388  0.7059 -0.2206  1.0757
 4852SOL    HW226436   2.393   2.343  19.427  0.2019 -0.3221  1.1787
 4853SOL     OW26437   1.538   0.115   5.388  0.0601  0.5516  0.1071
 4853SOL    HW126438   1.506   0.200   5.359 -0.2208  0.3676 -0.1307
 4853SOL    HW226439   1.462   0.073   5.428 -0.3519 -0.4091 -1.6604
 4854SOL     OW26440   2.595   2.395   0.563  0.0205 -0.2222 -0.0831
 4854SOL    HW126441   2.597   2.404   0.468  1.5688 -1.7230 -0.2037
 4854SOL    HW226442   2.530   2.327   0.579 -0.7513  0.5296 -0.0304
 4855SOL     OW26443   3.231   2.463  21.032  0.3087  0.3007  0.2371
 4855SOL    HW126444   3.311   2.509  21.006 -0.6594  1.6749 -0.3008
 4855SOL    HW226445   3.186   2.525  21.089 -0.9839  0.0049 -0.4689
 4856SOL     OW26446   4.593   0.299  13.506 -0.0319 -0.0337  0.1144
 4856SOL    HW126447   4.655   0.267  13.571 -0.0458 -0.8148 -0.2572
 4856SOL    HW226448   4.509   0.299  13.552  0.5285  2.6757  1.1493
 4857SOL     OW26449   3.445   2.966   7.853  0.1553 -1.1363 -0.0275
 4857SOL    HW126450   3.514   2.971   7.787  0.7044 -0.9916  0.5566
 4857SOL    HW226451   3.479   2.904   7.919 -0.0379 -0.6553  0.5260
 4858SOL     OW26452   0.211   0.542   8.840 -0.0856 -0.1558 -0.2645
 4858SOL    HW126453   0.216   0.557   8.934 -1.7051  2.1041 -0.5317
 4858SOL    HW226454   0.134   0.485   8.829 -0.1241 -0.1010 -0.2756
 4859SOL     OW26455   0.762   0.979   3.158 -0.0985 -0.1172  0.4505
 4859SOL    HW126456   0.757   0.886   3.136  0.0700  0.4187 -1.8031
 4859SOL    HW226457   0.727   1.025   3.082 -1.0419  1.6406  1.9182
 4860SOL     OW26458   0.624   3.760  18.434 -0.6942  0.1338 -0.0039
 4860SOL    HW126459   0.609   3.739  18.526 -0.0493  0.9486  0.2892
 4860SOL    HW226460   0.640   3.854  18.433  1.6456 -0.2625 -0.6437
 4861SOL     OW26461   0.925   1.403  12.365  0.3220  0.1160 -0.2579
 4861SOL    HW126462   0.865   1.348  12.416  2.2995 -2.1519 -0.3722
 4861SOL    HW226463   0.913   1.375  12.275  1.0026  0.2067 -0.3753
 4862SOL     OW26464   2.330   1.811  15.182 -0.0448  0.7978  0.4550
 4862SOL    HW126465   2.305   1.722  15.157 -1.5909  1.5766 -0.7893
 4862SOL    HW226466   2.288   1.825  15.267 -0.7384  0.7479  0.1213
 4863SOL     OW26467   1.705   2.360   6.593 -0.2601  0.7799 -0.3943
 4863SOL    HW126468   1.643   2.430   6.571 -0.7144  1.4618  2.9923
 4863SOL    HW226469   1.791   2.402   6.584 -0.4140  0.8870 -1.4190
 4864SOL     OW26470   1.196   1.228   8.181 -0.2752  0.2103 -0.1479
 4864SOL    HW126471   1.173   1.268   8.265 -0.8418 -1.1789  0.3610
 4864SOL    HW226472   1.154   1.284   8.116 -0.1326  1.0864  0.5142
 4865SOL     OW26473   0.593   0.392  20.261 -0.6590  0.5564 -0.1589
 4865SOL    HW126474   0.534   0.325  20.297  0.7296 -0.5988  0.0060
 4865SOL    HW226475   0.536   0.464  20.235 -2.1194 -0.4863  0.1713
 4866SOL     OW26476   1.509   3.015   2.804 -0.3374 -0.0290  0.2089
 4866SOL    HW126477   1.587   2.964   2.828  1.1715  1.5794 -1.1974
 4866SOL    HW226478   1.444   2.950   2.780  1.8837 -1.2744 -2.4909
 4867SOL     OW26479   2.949   0.400   6.110 -0.2828  0.0368 -0.3456
 4867SOL    HW126480   3.030   0.451   6.111  0.2020 -0.7390  0.2139
 4867SOL    HW226481   2.884   0.459   6.072  0.2457  1.1215  0.4234
 4868SOL     OW26482   3.995   1.243  14.962  0.1663  0.0645  0.4961
 4868SOL    HW126483   4.066   1.253  14.899  0.0150 -0.7498  0.1929
 4868SOL    HW226484   4.033   1.192  15.033 -0.4039 -1.2126 -0.1244
 4869SOL     OW26485   2.706   1.048   0.812  0.3569 -0.1849  0.8060
 4869SOL    HW126486   2.662   1.130   0.788  0.5327 -0.4356 -0.3437
 4869SOL    HW226487   2.671   0.983   0.751  1.5673 -0.6052  0.5755
 4870SOL     OW26488   1.356   1.139   9.309 -0.1081 -0.4045 -0.3628
 4870SOL    HW126489   1.284   1.076   9.310  0.8255 -1.4838 -1.3729
 4870SOL    HW226490   1.377   1.149   9.217  1.0575 -0.0948 -0.0544
 4871SOL     OW26491   3.018   4.739   1.058 -0.8001  0.2695 -0.4732
 4871SOL    HW126492   3.026   4.742   0.962  0.6754 -1.0989 -0.3886
 4871SOL    HW226493   2.950   4.674   1.074 -1.1986  0.6545 -0.6025
 4872SOL     OW26494   0.402   4.298  21.051 -0.1022 -0.0790  0.4157
 4872SOL    HW126495   0.440   4.347  21.124  0.1367 -1.4405  1.2021
 4872SOL    HW226496   0.398   4.208  21.082  1.8923 -1.0120 -2.0034
 4873SOL     OW26497   3.721   0.840   0.237  0.4478  0.6191  0.0623
 4873SOL    HW126498   3.671   0.758   0.232  0.0155  0.9489 -0.9163
 4873SOL    HW226499   3.812   0.812   0.246  0.2387  0.0261  0.3285
 4874SOL     OW26500   2.999   2.142   2.251 -0.3918  0.6243  0.1787
 4874SOL    HW126501   2.912   2.139   2.209  0.1192  2.4448 -1.0436
 4874SOL    HW226502   3.050   2.201   2.195  1.4092  0.1404  1.3209
 4875SOL     OW26503   2.856   2.728   8.358 -0.2296 -0.2822 -0.0142
 4875SOL    HW126504   2.798   2.776   8.418 -0.7932  0.8959 -1.4996
 4875SOL    HW226505   2.939   2.775   8.362 -0.2035 -0.3310  0.0133
 4876SOL     OW26506   0.037   2.893   3.320  0.0011 -0.5048 -0.0461
 4876SOL    HW126507   0.111   2.954   3.315 -1.6383  1.3162 -2.0803
 4876SOL    HW226508   0.074   2.808   3.299  1.5502  0.3961 -0.9621
 4877SOL     OW26509   2.894   4.143  20.619 -0.3559 -0.6014 -0.2658
 4877SOL    HW126510   2.858   4.171  20.534 -0.1791  0.1499 -0.0947
 4877SOL    HW226511   2.933   4.058  20.601 -1.8909 -1.2500 -0.5459
 4878SOL     OW26512   3.836   3.994  20.470 -0.1533  0.1792 -0.5447
 4878SOL    HW126513   3.821   3.993  20.375  0.5862 -0.3501 -0.6594
 4878SOL    HW226514   3.906   4.058  20.482 -1.2193  1.2895 -0.2045
 4879SOL     OW26515   0.949   4.425  13.511  0.1841  0.2267  0.6665
 4879SOL    HW126516   0.956   4.513  13.475 -0.1107 -0.2535 -0.5425
 4879SOL    HW226517   0.868   4.390  13.475 -1.8213  0.9765  4.4201
 4880SOL     OW26518   1.746   1.121   4.844  0.3819  0.5632 -0.5347
 4880SOL    HW126519   1.682   1.060   4.880  1.9710 -1.1181 -0.5584
 4880SOL    HW226520   1.699   1.204   4.836 -0.8356  0.1534  2.5557
 4881SOL     OW26521   1.598   3.455  11.789  0.6488 -0.2306  0.3663
 4881SOL    HW126522   1.637   3.538  11.764  1.0135 -0.0261  1.6343
 4881SOL    HW226523   1.557   3.472  11.874  0.8349 -1.3759  0.6862
 4882SOL     OW26524   1.625   2.786  12.060 -0.0885 -0.3846 -0.2433
 4882SOL    HW126525   1.617   2.786  11.964 -1.8872  0.2610 -0.0910
 4882SOL    HW226526   1.719   2.778  12.076  0.5617  3.5402 -2.0766
 4883SOL     OW26527   1.203   0.102  19.966 -0.2589 -0.0415  0.6571
 4883SOL    HW126528   1.268   0.099  19.895 -2.2813  1.9798 -1.2628
 4883SOL    HW226529   1.233   0.172  20.023  0.5721 -0.7060  1.0395
 4884SOL     OW26530   0.887   4.146  12.333  0.3309  0.8881 -0.3833
 4884SOL    HW126531   0.873   4.052  12.346  0.4606  0.8037 -0.8621
 4884SOL    HW226532   0.815   4.173  12.276  0.5594  0.9917 -0.6190
 4885SOL     OW26533   1.216   3.662  16.649  0.1602  0.2376  0.0996
 4885SOL    HW126534   1.244   3.713  16.724  3.4176 -1.0701 -0.2490
 4885SOL    HW226535   1.184   3.579  16.686 -0.6195  0.6036  0.2502
 4886SOL     OW26536   3.855   3.950   6.383  0.1241  0.3204 -0.5011
 4886SOL    HW126537   3.829   4.033   6.424  0.7069  1.3972 -2.3063
 4886SOL    HW226538   3.772   3.908   6.360 -0.1815  0.2694  0.6569
 4887SOL     OW26539   3.429   4.223   6.091  0.2408 -0.0854  0.0570
 4887SOL    HW126540   3.340   4.188   6.085  0.7929 -1.4147 -0.3827
 4887SOL    HW226541   3.418   4.312   6.125 -1.2686 -0.1868 -0.1862
 4888SOL     OW26542   2.763   0.209   2.961  0.0920  0.7350  0.8907
 4888SOL    HW126543   2.837   0.250   2.917  1.0873 -1.0892  0.8498
 4888SOL    HW226544   2.802   0.141   3.016 -1.7444 -1.8633 -0.9951
 4889SOL     OW26545   0.412   2.847   3.497  0.3609 -0.0563 -0.2721
 4889SOL    HW126546   0.421   2.791   3.574 -2.0545 -0.2704 -0.1329
 4889SOL    HW226547   0.447   2.795   3.425  1.1067 -0.5016  0.4200
 4890SOL     OW26548   4.182   0.641   2.027 -0.5582  0.3159 -0.1668
 4890SOL    HW126549   4.107   0.678   2.073  0.5813  1.9181  0.4081
 4890SOL    HW226550   4.243   0.714   2.018  1.3508 -1.2380  0.2100
 4891SOL     OW26551   2.563   4.034  20.727  0.2322  0.5290 -0.4670
 4891SOL    HW126552   2.504   3.959  20.725  1.0853 -0.0867 -2.1918
 4891SOL    HW226553   2.640   4.003  20.775 -0.9605  1.4093  2.0043
 4892SOL     OW26554   1.697   1.524  20.488  0.0151  0.1135  0.2332
 4892SOL    HW126555   1.669   1.541  20.398 -2.3776  2.5591  1.4476
 4892SOL    HW226556   1.713   1.611  20.525  1.0715 -0.8985  2.1478
 4893SOL     OW26557   0.264   1.036   3.808  0.9605 -0.1652 -0.1967
 4893SOL    HW126558   0.325   1.024   3.735 -0.6190  0.9224 -1.6920
 4893SOL    HW226559   0.184   1.069   3.767  0.2657  0.9809  2.0989
 4894SOL     OW26560   2.180   2.288   4.977 -0.1914 -0.1032 -0.0241
 4894SOL    HW126561   2.237   2.264   4.905  1.6452  1.0593  1.0325
 4894SOL    HW226562   2.153   2.378   4.958 -0.9879 -0.3532 -0.0876
 4895SOL     OW26563   4.237   3.508  10.736  0.4330  0.1060  0.6290
 4895SOL    HW126564   4.294   3.580  10.711  0.0037 -0.5244 -2.1954
 4895SOL    HW226565   4.153   3.528  10.695 -0.3803 -0.7223  1.8921
 4896SOL     OW26566   0.432   2.123  20.551 -0.1642  0.3647 -0.2543
 4896SOL    HW126567   0.401   2.124  20.642  0.6055 -0.3077  0.0149
 4896SOL    HW226568   0.481   2.042  20.544  0.7523  0.9805 -0.9486
 4897SOL     OW26569   3.253   2.595  17.168 -0.2309 -0.1657 -0.1037
 4897SOL    HW126570   3.182   2.587  17.232 -0.2367 -0.9728 -0.2076
 4897SOL    HW226571   3.295   2.509  17.168  0.0697 -0.0208 -0.8330
 4898SOL     OW26572   2.781   1.268  18.934  0.2231 -0.4825 -0.2660
 4898SOL    HW126573   2.712   1.304  18.989  0.5734  1.6827 -1.2488
 4898SOL    HW226574   2.815   1.193  18.984 -1.0723  0.0179  1.3612
 4899SOL     OW26575   3.378   3.932   2.270 -0.1192 -0.4541 -0.4063
 4899SOL    HW126576   3.429   3.959   2.193 -2.5444  0.3968 -1.7085
 4899SOL    HW226577   3.341   3.847   2.245 -0.4297 -0.4435  0.0368
 4900SOL     OW26578   0.625   3.895   4.053 -0.2460 -0.3974 -0.3344
 4900SOL    HW126579   0.543   3.941   4.070 -0.1512 -0.0855 -0.7190
 4900SOL    HW226580   0.693   3.958   4.077 -0.1052  0.1721 -2.2173
 4901SOL     OW26581   0.006   3.683  16.831 -0.5957  0.0674 -0.3341
 4901SOL    HW126582   0.072   3.750  16.851 -1.1989  0.6506 -0.3114
 4901SOL    HW226583   0.012   3.671  16.737  0.1280 -0.4840 -0.2190
 4902SOL     OW26584   1.011   2.988  14.863 -0.1772 -0.4132 -0.0785
 4902SOL    HW126585   0.970   3.069  14.895  1.8381  1.0151 -1.1635
 4902SOL    HW226586   1.010   2.930  14.939  1.3140  1.7478  1.6091
 4903SOL     OW26587   1.611   4.524  15.427  0.5111  0.4451 -0.5198
 4903SOL    HW126588   1.549   4.488  15.490  0.9418 -0.7890 -0.8055
 4903SOL    HW226589   1.563   4.594  15.384 -0.5995 -0.3300 -0.5539
 4904SOL     OW26590   2.326   3.144  21.055 -0.1302  0.3003  0.7767
 4904SOL    HW126591   2.387   3.147  21.128  1.5257 -0.6873 -0.5749
 4904SOL    HW226592   2.333   3.230  21.014 -1.6863  1.1591  2.2705
 4905SOL     OW26593   0.057   0.844   6.947  0.3496  0.1832  0.2773
 4905SOL    HW126594   4.750   0.893   6.942  0.4511  0.1981 -1.4403
 4905SOL    HW226595   0.030   0.752   6.954  0.1789  0.2511  0.5144
 4906SOL     OW26596   2.409   2.393  13.283  0.1730  0.4980  0.3346
 4906SOL    HW126597   2.397   2.487  13.282 -2.4856  0.1306 -1.7598
 4906SOL    HW226598   2.355   2.362  13.355  1.0054  0.5609  0.9898
 4907SOL     OW26599   0.551   1.508  18.810  0.0059 -0.4979 -0.2087
 4907SOL    HW126600   0.473   1.459  18.836 -0.2612  0.2772  0.4721
 4907SOL    HW226601   0.588   1.538  18.893 -0.3373  1.2317 -0.6844
 4908SOL     OW26602   1.535   2.786   1.214 -0.4524 -0.4461 -0.3949
 4908SOL    HW126603   1.573   2.870   1.237 -0.1359 -0.9521  0.9208
 4908SOL    HW226604   1.459   2.777   1.271 -1.7390 -0.0537 -2.0667
 4909SOL     OW26605   3.833   2.190  17.525  0.1990  0.1112 -0.6998
 4909SOL    HW126606   3.834   2.283  17.548 -0.9882 -0.2520  0.8238
 4909SOL    HW226607   3.804   2.188  17.434 -2.1134  1.0657  0.0032
 4910SOL     OW26608   2.146   0.882   4.070  0.0189 -0.8996 -0.2001
 4910SOL    HW126609   2.084   0.911   4.137 -1.1163 -2.2746 -0.6767
 4910SOL    HW226610   2.170   0.962   4.023 -0.7880 -0.2656  0.4798
 4911SOL     OW26611   1.896   1.934  16.767  0.3592 -0.0313 -0.2356
 4911SOL    HW126612   1.947   1.900  16.841  0.9754  1.1496 -0.1081
 4911SOL    HW226613   1.829   1.989  16.808  0.0987 -0.1470 -0.5050
 4912SOL     OW26614   1.858   3.906  15.156 -0.4710 -0.5827  0.1615
 4912SOL    HW126615   1.870   3.990  15.202 -0.6470  0.5961 -1.9810
 4912SOL    HW226616   1.947   3.880  15.132 -0.5087 -0.5885  0.0335
 4913SOL     OW26617   2.887   1.884  14.643  0.1844  0.1342  0.7462
 4913SOL    HW126618   2.828   1.874  14.569 -0.0764  1.6127  0.7378
 4913SOL    HW226619   2.971   1.909  14.605  0.1215  0.6267  0.9224
 4914SOL     OW26620   0.171   0.381  18.209 -0.3437  0.3388 -0.6281
 4914SOL    HW126621   0.251   0.369  18.157 -0.3868  0.9400 -0.8329
 4914SOL    HW226622   0.170   0.474  18.229  0.4934 -0.1790  1.7774
 4915SOL     OW26623   4.050   0.975   6.967 -0.0671 -0.9297  0.6932
 4915SOL    HW126624   3.997   1.054   6.958  1.3089 -0.2999 -2.0832
 4915SOL    HW226625   3.988   0.903   6.959 -0.9303 -0.1600  0.4785
 4916SOL     OW26626   4.459   2.366  11.961 -0.3375  0.2476 -0.2263
 4916SOL    HW126627   4.456   2.341  11.869 -0.7128  1.1474 -0.4615
 4916SOL    HW226628   4.484   2.286  12.007 -0.5036 -0.2902 -1.0719
 4917SOL     OW26629   0.534   0.799   4.598  0.2755 -0.4011 -0.3197
 4917SOL    HW126630   0.597   0.851   4.548  1.2540 -0.3161  0.9985
 4917SOL    HW226631   0.556   0.708   4.578  0.6809 -0.3668 -0.0343
 4918SOL     OW26632   2.501   1.705   2.064  0.1650 -0.1766  0.0195
 4918SOL    HW126633   2.581   1.752   2.086 -0.2002  0.2724  0.4061
 4918SOL    HW226634   2.434   1.773   2.056 -0.2920 -0.5949  0.2349
 4919SOL     OW26635   3.261   4.616  20.105 -0.1551 -0.5497  0.5072
 4919SOL    HW126636   3.312   4.555  20.159 -0.9258 -1.1165  0.5858
 4919SOL    HW226637   3.182   4.568  20.082 -0.4642  0.1906  0.0266
 4920SOL     OW26638   4.536   3.725  16.957 -0.0163 -0.1932 -0.4833
 4920SOL    HW126639   4.625   3.709  16.924 -0.3557  0.5896 -1.7845
 4920SOL    HW226640   4.548   3.746  17.049  1.0473 -1.2536 -0.3789
 4921SOL     OW26641   2.087   0.525   3.249 -0.0089 -0.8196 -0.1602
 4921SOL    HW126642   2.059   0.555   3.335  0.3981  0.8783 -0.6075
 4921SOL    HW226643   2.131   0.601   3.211 -0.7946 -1.3481 -2.1257
 4922SOL     OW26644   1.924   0.061   5.727 -0.2637  0.1246  0.2329
 4922SOL    HW126645   1.849   0.080   5.671 -0.7210 -0.0780  0.7814
 4922SOL    HW226646   1.909   4.748   5.759  0.4950 -0.1336 -0.1167
 4923SOL     OW26647   2.961   2.098   5.254 -0.0082 -0.2329 -0.5157
 4923SOL    HW126648   2.978   2.188   5.282  1.1888 -0.3685 -0.8052
 4923SOL    HW226649   3.032   2.078   5.193 -1.5602 -0.5916 -2.1709
 4924SOL     OW26650   2.973   3.019  15.451  0.6952  0.3002 -0.5298
 4924SOL    HW126651   2.925   3.101  15.445 -3.4539 -2.1482 -0.5545
 4924SOL    HW226652   3.042   3.037  15.515 -1.4284  3.2020  0.9403
 4925SOL     OW26653   1.859   4.039   0.661 -0.2331  0.3457 -0.8282
 4925SOL    HW126654   1.954   4.048   0.657 -0.0969  0.3906  2.9457
 4925SOL    HW226655   1.828   4.123   0.695 -1.5226 -0.1530 -0.7662
 4926SOL     OW26656   3.951   1.701   7.735  0.2472  0.0288 -0.0871
 4926SOL    HW126657   3.859   1.678   7.719  0.8333 -1.8228 -0.7464
 4926SOL    HW226658   3.951   1.738   7.823 -1.0832 -0.2442  0.0300
 4927SOL     OW26659   1.774   4.144   1.507 -0.1893 -0.2187  0.3062
 4927SOL    HW126660   1.772   4.127   1.601  0.4996 -0.9450  0.1999
 4927SOL    HW226661   1.703   4.090   1.471 -0.7348  0.4018  0.4671
 4928SOL     OW26662   1.835   0.750   3.611  0.4602 -0.0722 -0.2522
 4928SOL    HW126663   1.861   0.663   3.641 -0.2316 -0.3090 -0.3325
 4928SOL    HW226664   1.830   0.803   3.690  1.1390 -0.0383 -0.2321
 4929SOL     OW26665   0.636   4.724   5.609 -0.0489  0.0033 -0.1048
 4929SOL    HW126666   0.701   4.701   5.676 -0.4670  2.5100  1.1529
 4929SOL    HW226667   0.678   4.698   5.526  1.3782 -1.0397  0.9361
 4930SOL     OW26668   0.621   3.060   2.244  0.1509 -0.0338 -0.2879
 4930SOL    HW126669   0.610   3.109   2.162  0.1406 -0.6718 -0.6671
 4930SOL    HW226670   0.625   3.127   2.312 -1.2686  0.4106 -0.6635
 4931SOL     OW26671   0.803   0.523   6.079  0.2413  0.2717  0.2578
 4931SOL    HW126672   0.832   0.473   6.003  0.5506 -0.6578  0.9916
 4931SOL    HW226673   0.824   0.614   6.057  0.8295 -0.0605 -0.5370
 4932SOL     OW26674   0.365   3.820  19.768  0.4231 -0.0996  0.0791
 4932SOL    HW126675   0.271   3.825  19.783  0.3886  0.3995 -0.3245
 4932SOL    HW226676   0.403   3.808  19.855  0.2012  2.4702  0.5295
 4933SOL     OW26677   3.619   3.523   3.654  0.3064  0.1092 -0.0375
 4933SOL    HW126678   3.655   3.444   3.695 -0.0887  0.1895  0.4589
 4933SOL    HW226679   3.543   3.546   3.708  1.0007  1.3905  0.4032
 4934SOL     OW26680   0.212   4.354  20.164 -0.4145 -0.2963 -0.0761
 4934SOL    HW126681   0.166   4.308  20.095 -0.3719  0.1233 -0.3848
 4934SOL    HW226682   0.303   4.359  20.134  0.1157 -2.4449  1.2240
 4935SOL     OW26683   0.251   1.206  16.653 -0.2244  0.1626  0.1799
 4935SOL    HW126684   0.210   1.272  16.597  0.1778  0.8304  0.6790
 4935SOL    HW226685   0.320   1.253  16.700  0.7497 -0.8269 -0.2349
 4936SOL     OW26686   2.077   2.371   1.277  0.7543  0.0666 -0.0989
 4936SOL    HW126687   2.003   2.352   1.334  2.0420 -1.4273  1.0767
 4936SOL    HW226688   2.059   2.458   1.242 -1.1678  0.0275  0.7911
 4937SOL     OW26689   2.819   2.572   4.153  0.1366 -0.5047 -0.6450
 4937SOL    HW126690   2.768   2.491   4.160 -1.3663  0.3929 -1.1954
 4937SOL    HW226691   2.888   2.562   4.218 -0.2375 -2.0940 -0.4775
 4938SOL     OW26692   0.377   3.732  12.338 -0.0843  0.4846 -0.2194
 4938SOL    HW126693   0.446   3.792  12.367  0.5179 -0.0314 -0.5970
 4938SOL    HW226694   0.386   3.730  12.243 -1.4608  1.4425 -0.3721
 4939SOL     OW26695   1.362   4.107  20.140 -0.0177  0.1981 -0.3601
 4939SOL    HW126696   1.293   4.167  20.110  0.7000  2.4338  2.4550
 4939SOL    HW226697   1.425   4.163  20.185  1.1226 -2.5666  1.4939
 4940SOL     OW26698   1.655   2.745   3.968  0.0153  0.2869 -0.0642
 4940SOL    HW126699   1.671   2.706   3.882  0.1656 -0.2603  0.2136
 4940SOL    HW226700   1.681   2.678   4.031  0.4782  0.9140  0.4186
 4941SOL     OW26701   3.917   0.311   6.266 -0.1717  0.7868 -0.7717
 4941SOL    HW126702   3.966   0.391   6.280  1.9163 -0.8467  1.2231
 4941SOL    HW226703   3.974   0.241   6.299 -2.0446 -1.4899 -2.3161
 4942SOL     OW26704   4.357   4.145  11.592  0.0713 -0.1761 -0.3400
 4942SOL    HW126705   4.395   4.090  11.661  0.7577  0.1200 -0.4841
 4942SOL    HW226706   4.286   4.192  11.636 -0.6577 -1.3550 -0.2730
 4943SOL     OW26707   3.723   2.363  14.110 -0.0696  0.4435  0.3739
 4943SOL    HW126708   3.673   2.293  14.153  0.1015  0.1186  0.0527
 4943SOL    HW226709   3.804   2.369  14.161  0.1466  0.0372  0.0851
 4944SOL     OW26710   3.852   3.094   3.887 -0.2140  0.3407  0.1227
 4944SOL    HW126711   3.862   3.014   3.836 -0.5242  0.0564  0.5009
 4944SOL    HW226712   3.814   3.064   3.970 -0.5862  0.9138  0.1600
 4945SOL     OW26713   1.439   1.719  14.950 -0.2326 -0.1618  0.2171
 4945SOL    HW126714   1.461   1.643  15.005 -1.5010 -1.2684 -0.7848
 4945SOL    HW226715   1.410   1.680  14.867 -0.3138  1.4438 -0.5005
 4946SOL     OW26716   4.361   3.412  13.055  0.2300 -0.0685  0.5237
 4946SOL    HW126717   4.368   3.322  13.025  2.7671  0.2348  0.2226
 4946SOL    HW226718   4.330   3.460  12.978 -0.0686 -0.4926  0.3777
 4947SOL     OW26719   2.940   4.372   6.978 -0.4989  0.0116 -0.0911
 4947SOL    HW126720   2.908   4.301   6.922  0.2052 -0.7509  0.4760
 4947SOL    HW226721   2.940   4.449   6.921  0.4390 -0.8105 -1.2034
 4948SOL     OW26722   3.149   2.654   5.366 -0.1440 -0.2387  0.6996
 4948SOL    HW126723   3.240   2.629   5.347 -0.2270 -0.8168  1.0732
 4948SOL    HW226724   3.121   2.592   5.433  0.0483  1.6100  2.4845
 4949SOL     OW26725   1.305   0.413  10.399  0.3135  0.1540  0.7502
 4949SOL    HW126726   1.350   0.490  10.434  0.4151  0.0090  0.9389
 4949SOL    HW226727   1.243   0.387  10.467  0.8727 -0.4332  1.0388
 4950SOL     OW26728   4.538   3.268   2.222  0.5306 -0.0121  0.0234
 4950SOL    HW126729   4.604   3.322   2.177 -0.0805  0.5437 -0.2092
 4950SOL    HW226730   4.459   3.322   2.221 -0.0770 -0.9206 -0.2031
 4951SOL     OW26731   1.762   4.712   4.414 -0.0289 -0.4694 -0.7945
 4951SOL    HW126732   1.853   4.693   4.393  0.8663  2.5417  0.3769
 4951SOL    HW226733   1.765   0.017   4.466 -3.3492 -0.3037 -0.8203
 4952SOL     OW26734   3.202   0.828   6.276 -0.4401 -0.0323 -0.0263
 4952SOL    HW126735   3.191   0.741   6.237 -0.7148  0.8023 -1.8105
 4952SOL    HW226736   3.114   0.866   6.276 -0.3573  0.1689  0.9516
 4953SOL     OW26737   3.824   1.372   5.663 -0.3939  0.3990 -0.2132
 4953SOL    HW126738   3.740   1.393   5.704 -0.5621  0.7536 -0.7365
 4953SOL    HW226739   3.890   1.397   5.728 -0.6587  0.9657 -0.1634
 4954SOL     OW26740   1.856   1.852  19.710  0.1184 -0.1562  0.5503
 4954SOL    HW126741   1.832   1.872  19.619  0.3099  0.1654  0.5687
 4954SOL    HW226742   1.951   1.836  19.706  0.1340 -0.0979  0.7008
 4955SOL     OW26743   0.506   4.534   8.794  0.2771  0.1947 -0.1334
 4955SOL    HW126744   0.541   4.531   8.705  1.8751  0.2361  0.4974
 4955SOL    HW226745   0.471   4.622   8.803  3.0656  1.2404  0.4163
 4956SOL     OW26746   4.190   1.193   3.230 -0.3741 -0.5619  0.1183
 4956SOL    HW126747   4.203   1.275   3.278  1.3211 -1.4990  1.2336
 4956SOL    HW226748   4.109   1.157   3.266 -0.7616  0.2952  0.0983
 4957SOL     OW26749   1.854   1.021   2.245  0.0274 -0.3203 -0.3150
 4957SOL    HW126750   1.805   1.018   2.162 -0.0558 -0.7386 -0.2503
 4957SOL    HW226751   1.796   0.978   2.308 -0.1092  0.4229  0.0637
 4958SOL     OW26752   0.792   0.684   6.382  0.0916 -0.9373  0.3765
 4958SOL    HW126753   0.851   0.621   6.340  0.5395  0.3824 -0.9366
 4958SOL    HW226754   0.841   0.715   6.459  1.1998  0.3616 -0.8674
 4959SOL     OW26755   4.343   3.684  10.945 -0.3903 -0.6625 -0.3734
 4959SOL    HW126756   4.319   3.726  10.862 -0.7194 -1.3600 -0.6284
 4959SOL    HW226757   4.269   3.628  10.967 -1.0145  0.7851  1.2516
 4960SOL     OW26758   2.703   2.335  16.024  0.2929 -0.1287 -0.4194
 4960SOL    HW126759   2.726   2.424  15.997  0.6001 -0.2456 -0.5474
 4960SOL    HW226760   2.628   2.346  16.082  1.1984  0.3234  0.6614
 4961SOL     OW26761   2.821   2.715  19.801 -0.1271  0.0732  0.3102
 4961SOL    HW126762   2.909   2.748  19.784 -0.2089 -0.2862 -0.8402
 4961SOL    HW226763   2.825   2.681  19.890  1.2246 -1.0320 -0.1682
 4962SOL     OW26764   3.222   2.257   8.941 -0.7359 -0.2034  0.4362
 4962SOL    HW126765   3.133   2.281   8.964 -0.8653 -0.0064 -0.2718
 4962SOL    HW226766   3.224   2.259   8.845  0.2646  0.6570  0.4770
 4963SOL     OW26767   3.014   3.211  13.384  0.2557 -0.1335 -0.2866
 4963SOL    HW126768   3.103   3.245  13.376  0.0357  0.3231 -0.7501
 4963SOL    HW226769   2.966   3.250  13.311 -0.4648  0.0532  0.2908
 4964SOL     OW26770   4.659   4.381  20.071  0.0932 -0.2118 -0.5566
 4964SOL    HW126771   4.733   4.437  20.047  1.3612 -1.6584 -0.0423
 4964SOL    HW226772   4.677   4.298  20.026 -1.2163 -0.5569 -0.4282
 4965SOL     OW26773   1.692   0.526   0.474  0.2690  0.4265  0.6521
 4965SOL    HW126774   1.731   0.467   0.409 -1.6469 -0.4119  0.2575
 4965SOL    HW226775   1.749   0.603   0.474  2.6457 -1.3205  0.9728
 4966SOL     OW26776   0.654   0.384  17.545  0.2404  0.1623 -0.1673
 4966SOL    HW126777   0.724   0.434  17.501 -0.5354  1.4554  0.0673
 4966SOL    HW226778   0.700   0.312  17.588  1.3555  0.6066 -0.6011
 4967SOL     OW26779   3.756   3.878   0.899 -0.2406  0.6387  0.4157
 4967SOL    HW126780   3.780   3.793   0.937 -2.1666 -0.6525 -1.2358
 4967SOL    HW226781   3.832   3.903   0.847  1.5314  1.3680  3.3774
 4968SOL     OW26782   0.685   2.141  15.976  0.2260  0.5029 -0.4187
 4968SOL    HW126783   0.608   2.193  16.002  0.1772 -0.4097  1.2929
 4968SOL    HW226784   0.760   2.193  16.005  0.1955  0.1553  0.3000
 4969SOL     OW26785   3.796   1.243  18.830 -0.1927  0.1673  0.8811
 4969SOL    HW126786   3.800   1.155  18.868 -0.2164  0.1474  0.8376
 4969SOL    HW226787   3.724   1.239  18.767  0.9274 -0.2710 -0.3529
 4970SOL     OW26788   4.690   4.711  18.977 -0.4814 -0.1756 -0.2715
 4970SOL    HW126789   4.613   4.767  18.990 -1.0166 -1.0260  0.1945
 4970SOL    HW226790   4.740   4.721  19.059  0.2293  0.8896 -0.8357
 4971SOL     OW26791   1.674   4.032  17.661  0.5873  0.3031  0.4880
 4971SOL    HW126792   1.722   4.009  17.581 -0.7590  0.3567 -0.3218
 4971SOL    HW226793   1.681   3.954  17.716  2.6084  0.7212  0.8385
 4972SOL     OW26794   3.920   0.936   2.409  0.0180 -0.5431  0.3411
 4972SOL    HW126795   3.936   0.907   2.499 -0.2786  0.5299  0.7298
 4972SOL    HW226796   4.003   0.920   2.364  0.2314 -0.8865  0.8567
 4973SOL     OW26797   4.655   2.878   1.860 -0.1514 -0.0568  0.7912
 4973SOL    HW126798   4.581   2.846   1.807  0.2811 -0.3980  0.3922
 4973SOL    HW226799   4.639   2.972   1.870  0.0317  0.0976 -0.3690
 4974SOL     OW26800   4.015   1.579  20.248  0.0753 -0.7233 -0.0378
 4974SOL    HW126801   3.950   1.527  20.294 -0.6318  0.4520  0.2949
 4974SOL    HW226802   4.072   1.613  20.318 -2.2553  2.7846  0.1378
 4975SOL     OW26803   0.625   4.323   8.909 -0.5705 -0.4114 -0.5219
 4975SOL    HW126804   0.651   4.304   8.819 -0.2340 -0.0477 -0.5013
 4975SOL    HW226805   0.573   4.403   8.902  2.9506  1.9179  0.1349
 4976SOL     OW26806   2.872   3.431  11.589 -0.2829  0.1415 -0.4719
 4976SOL    HW126807   2.952   3.380  11.575 -0.1928  0.2780 -0.4599
 4976SOL    HW226808   2.845   3.459  11.502 -0.4926 -0.1697 -0.5044
 4977SOL     OW26809   0.145   2.856   1.411  0.0586  0.3696 -0.2258
 4977SOL    HW126810   0.180   2.942   1.432 -1.2077  0.7581  0.2983
 4977SOL    HW226811   0.116   2.863   1.320 -0.8297  0.7542  0.0857
 4978SOL     OW26812   2.974   0.742   5.559 -0.2699 -0.2136 -0.3085
 4978SOL    HW126813   2.995   0.782   5.474  3.2744  1.5747  1.4313
 4978SOL    HW226814   2.957   0.650   5.539  1.5081  0.0046 -2.8041
 4979SOL     OW26815   3.201   1.902  19.942  0.1347 -0.3513 -0.3049
 4979SOL    HW126816   3.154   1.862  20.016 -0.3618  3.9470  1.7169
 4979SOL    HW226817   3.292   1.906  19.972  0.1471  0.2181 -0.4225
 4980SOL     OW26818   1.364   2.246  17.602  0.4786 -0.0301  0.6540
 4980SOL    HW126819   1.336   2.165  17.558  1.1052 -0.0866  0.3522
 4980SOL    HW226820   1.388   2.305  17.530 -1.2712  0.8931  0.8363
 4981SOL     OW26821   3.845   0.869  16.147 -0.0490  0.2867  0.4461
 4981SOL    HW126822   3.900   0.796  16.177  0.1060  0.3524  0.3206
 4981SOL    HW226823   3.889   0.947  16.179  0.6034  0.4027 -0.7235
 4982SOL     OW26824   0.408   0.359   3.840  0.3404 -0.1388 -0.0922
 4982SOL    HW126825   0.436   0.280   3.793  0.6642 -0.9154  1.4222
 4982SOL    HW226826   0.460   0.360   3.920  0.9949  2.1120 -0.5454
 4983SOL     OW26827   1.080   2.323   3.684  0.1578  0.1237  0.6346
 4983SOL    HW126828   1.097   2.361   3.771 -0.1232 -1.1039  1.2345
 4983SOL    HW226829   1.159   2.340   3.634  1.4726 -1.7200  2.0584
 4984SOL     OW26830   0.041   2.014  17.306  0.1358 -0.8673 -0.4492
 4984SOL    HW126831   0.112   1.960  17.273  0.2341 -0.9411 -0.1170
 4984SOL    HW226832   0.042   2.001  17.401 -0.1586 -0.6741 -0.4163
 4985SOL     OW26833   4.704   2.081   2.486  0.3387  0.3573  0.3234
 4985SOL    HW126834   4.743   2.052   2.404 -0.6803  0.6036 -0.2509
 4985SOL    HW226835   4.698   2.001   2.539 -0.7552 -0.1449 -0.5549
 4986SOL     OW26836   0.399   2.377   4.818 -0.2323  0.3773  0.4835
 4986SOL    HW126837   0.448   2.441   4.870  1.1373  0.2517 -0.6360
 4986SOL    HW226838   0.346   2.429   4.758  1.8588  0.4590 -1.3163
 4987SOL     OW26839   1.104   2.798  20.891 -0.0889  0.3941 -1.1994
 4987SOL    HW126840   1.036   2.770  20.829 -0.9482  0.1735 -0.1526
 4987SOL    HW226841   1.106   2.893  20.882  0.4678  0.2843 -2.2788
 4988SOL     OW26842   4.538   0.282  19.722 -0.3283  0.7327  0.5840
 4988SOL    HW126843   4.520   0.364  19.676 -0.6959  0.8286  0.8940
 4988SOL    HW226844   4.465   0.272  19.783 -1.5165 -1.0622 -1.1491
 4989SOL     OW26845   0.397   1.834  18.075  0.0881  0.4645  0.0104
 4989SOL    HW126846   0.319   1.783  18.053  0.0817  1.0449 -1.3540
 4989SOL    HW226847   0.403   1.830  18.170 -0.2828 -1.5496 -0.0386
 4990SOL     OW26848   4.360   2.175  16.945  0.3359 -0.0430 -0.6827
 4990SOL    HW126849   4.320   2.259  16.922 -1.8726 -0.2836  2.2937
 4990SOL    HW226850   4.434   2.198  17.001 -0.1262 -0.0739 -0.0616
 4991SOL     OW26851   2.870   4.678   3.397 -0.0278 -0.0492  0.7467
 4991SOL    HW126852   2.812   4.752   3.414 -2.6234 -2.4448  2.2474
 4991SOL    HW226853   2.918   4.665   3.479  0.6602  0.1547  0.3804
 4992SOL     OW26854   2.015   3.251  20.803 -0.4002  0.0446 -0.4592
 4992SOL    HW126855   2.090   3.279  20.855 -1.9781  0.4329  1.6275
 4992SOL    HW226856   2.053   3.215  20.723  1.9253  2.0601 -0.2780
 4993SOL     OW26857   1.246   0.315   2.269  0.3786 -0.1883 -0.3030
 4993SOL    HW126858   1.322   0.305   2.211 -1.3486 -1.2831 -2.3916
 4993SOL    HW226859   1.215   0.226   2.284  0.9134  0.1066  2.4018
 4994SOL     OW26860   4.014   3.769   1.095 -0.6926 -0.2989  0.2036
 4994SOL    HW126861   3.945   3.812   1.145 -0.7150  1.1157 -1.0671
 4994SOL    HW226862   4.088   3.830   1.098  0.1207 -1.3108  0.6110
 4995SOL     OW26863   4.085   1.807  20.099 -0.0968  0.1438  0.2332
 4995SOL    HW126864   4.046   1.791  20.013  1.6019 -2.0556 -0.1522
 4995SOL    HW226865   4.062   1.729  20.150  2.4136 -0.4228  0.5000
 4996SOL     OW26866   2.189   2.289  19.998  0.3425  0.7661  0.2261
 4996SOL    HW126867   2.122   2.353  20.024  0.6029  0.9193  0.5255
 4996SOL    HW226868   2.243   2.278  20.077 -0.5641 -0.9093  0.6278
 4997SOL     OW26869   4.168   2.218   5.591  0.0814 -0.2383  0.0606
 4997SOL    HW126870   4.142   2.239   5.502 -0.6332 -1.0151  0.0893
 4997SOL    HW226871   4.154   2.123   5.599 -0.7551 -0.0073  1.3049
 4998SOL     OW26872   2.882   4.197  13.720 -0.0214  0.0152  0.2038
 4998SOL    HW126873   2.949   4.265  13.724 -0.4419  0.4273  0.2118
 4998SOL    HW226874   2.877   4.174  13.627  0.3859 -0.2760  0.2490
 4999SOL     OW26875   0.160   1.990  20.544 -0.2935 -0.3819  0.3535
 4999SOL    HW126876   0.190   2.061  20.487 -1.4561  1.1312  1.6715
 4999SOL    HW226877   0.102   1.938  20.488 -0.3560  0.3466 -0.2561
 5000SOL     OW26878   4.665   1.772   2.028  0.5042  0.0020  0.3351
 5000SOL    HW126879   4.686   1.865   2.038  1.1388 -0.1427  0.3153
 5000SOL    HW226880   4.667   1.757   1.934 -1.9853  0.5327  0.1836
 5001SOL     OW26881   1.758   3.296  18.898  0.1052  0.4081 -0.1235
 5001SOL    HW126882   1.819   3.247  18.954  1.0302 -0.0280 -1.5229
 5001SOL    HW226883   1.672   3.257  18.918  0.9064 -2.1311 -1.6114
 5002SOL     OW26884   0.045   1.458   3.547  0.1350  0.0845  0.0599
 5002SOL    HW126885   0.089   1.496   3.624  1.9830 -1.3249 -0.3069
 5002SOL    HW226886   0.097   1.487   3.473 -0.7842  0.1839 -0.5450
 5003SOL     OW26887   2.977   2.519  17.808 -0.4301  0.0114  0.0736
 5003SOL    HW126888   2.915   2.447  17.796 -0.5649 -0.1570  1.7807
 5003SOL    HW226889   3.056   2.491  17.762  0.0028 -1.8358  1.9663
 5004SOL     OW26890   2.217   1.028  16.807  0.4359 -0.3701  1.5795
 5004SOL    HW126891   2.137   1.076  16.791 -0.2830 -2.1020 -0.0501
 5004SOL    HW226892   2.280   1.064  16.744  0.0671 -1.1577  0.7638
 5005SOL     OW26893   1.491   3.727  17.422  0.3876 -0.3307 -0.9421
 5005SOL    HW126894   1.521   3.734  17.331  2.0046  1.2111 -0.2865
 5005SOL    HW226895   1.492   3.817  17.454  1.1046 -1.0529  1.0282
 5006SOL     OW26896   2.811   1.954  17.749  0.5700 -0.6315  0.4530
 5006SOL    HW126897   2.861   1.978  17.828 -0.0597  1.0367  0.3439
 5006SOL    HW226898   2.853   2.002  17.678 -0.3927 -0.2211  0.1578
 5007SOL     OW26899   0.576   3.012   9.986  0.2723 -0.2009 -0.0753
 5007SOL    HW126900   0.540   2.939  10.038  1.8780 -1.7648 -1.1717
 5007SOL    HW226901   0.498   3.057   9.953 -0.7427 -1.3498  0.7016
 5008SOL     OW26902   0.295   0.679  16.888 -0.0557  0.4250 -0.6627
 5008SOL    HW126903   0.234   0.662  16.816 -1.0537  0.0424  0.2788
 5008SOL    HW226904   0.248   0.737  16.947  0.3691 -0.1423  0.2377
 5009SOL     OW26905   2.879   2.959   0.310 -0.3500 -0.0289 -0.2580
 5009SOL    HW126906   2.825   2.919   0.241 -1.1184  1.3984 -0.5010
 5009SOL    HW226907   2.912   2.885   0.361 -1.3435 -0.9985 -1.0071
 5010SOL     OW26908   2.418   4.204   1.639 -0.1434 -0.2777  1.1014
 5010SOL    HW126909   2.329   4.212   1.606 -0.1527  2.1664  1.7198
 5010SOL    HW226910   2.473   4.202   1.561 -0.6158 -0.3206  0.7719
 5011SOL     OW26911   1.071   1.862  20.005 -0.2970 -0.0182  0.2491
 5011SOL    HW126912   0.986   1.857  19.960 -1.3180 -0.6808  2.2504
 5011SOL    HW226913   1.115   1.936  19.963 -2.4890  1.3023  0.2249
 5012SOL     OW26914   0.175   2.196   3.313 -0.1892  0.6407 -0.3372
 5012SOL    HW126915   0.092   2.176   3.271  0.5391 -0.8241 -1.0792
 5012SOL    HW226916   0.178   2.137   3.389 -0.5553  1.8119  0.5871
 5013SOL     OW26917   2.519   2.793  18.744  0.4800 -0.0960  0.3335
 5013SOL    HW126918   2.459   2.815  18.674  1.5610 -0.4019 -0.6816
 5013SOL    HW226919   2.582   2.732  18.705  1.0734 -0.2876  1.5540
 5014SOL     OW26920   1.560   3.216  19.223 -0.0141  0.0674  0.4345
 5014SOL    HW126921   1.508   3.176  19.293  2.1128 -2.8506  0.3469
 5014SOL    HW226922   1.637   3.251  19.267 -0.0847  0.8289 -0.0410
 5015SOL     OW26923   1.542   1.831   1.068 -0.1466  0.1849  0.7759
 5015SOL    HW126924   1.481   1.868   1.132 -0.7524  1.7002 -0.6747
 5015SOL    HW226925   1.628   1.839   1.111 -0.8547 -1.1685  2.4565
 5016SOL     OW26926   1.943   3.626   2.788  0.0126  0.1858  0.2872
 5016SOL    HW126927   1.898   3.653   2.868 -1.8008 -1.5729 -0.1301
 5016SOL    HW226928   2.012   3.566   2.818 -0.8178 -0.6555  0.5075
 5017SOL     OW26929   0.104   1.638   2.139 -0.0754  0.7138 -0.0769
 5017SOL    HW126930   0.091   1.544   2.126 -0.9483  0.8170  0.0747
 5017SOL    HW226931   0.023   1.678   2.108  0.5087  1.4572 -0.6494
 5018SOL     OW26932   0.405   2.160  19.790  0.0325 -0.0384 -0.5974
 5018SOL    HW126933   0.422   2.181  19.882  0.2250  0.3770 -0.7275
 5018SOL    HW226934   0.481   2.109  19.762 -0.8052 -1.5739 -0.0599
 5019SOL     OW26935   2.352   2.408   5.317  0.0068  0.2660  0.4145
 5019SOL    HW126936   2.317   2.479   5.372 -0.7900 -0.4972  0.8969
 5019SOL    HW226937   2.445   2.427   5.311 -0.5150  2.4754 -1.1011
 5020SOL     OW26938   1.114   1.119   1.123 -0.2951 -0.0047  0.2938
 5020SOL    HW126939   1.086   1.056   1.189  1.5857 -1.0335  0.1061
 5020SOL    HW226940   1.115   1.070   1.041  1.1143  0.2862  0.1376
 5021SOL     OW26941   4.295   1.679  18.173 -0.3908 -0.0783  0.2020
 5021SOL    HW126942   4.314   1.587  18.156 -0.5056  0.2102 -1.4163
 5021SOL    HW226943   4.271   1.715  18.088 -0.9204  1.3109  0.9475
 5022SOL     OW26944   2.627   2.785  19.353  0.2354 -0.0225  0.0022
 5022SOL    HW126945   2.705   2.835  19.332  1.1924 -1.1391  0.9188
 5022SOL    HW226946   2.615   2.797  19.447  0.4141 -1.4437  0.2082
 5023SOL     OW26947   1.866   2.108  11.224  0.1145 -0.5021  0.1373
 5023SOL    HW126948   1.815   2.082  11.301 -0.6659 -1.0058 -0.5507
 5023SOL    HW226949   1.893   2.198  11.243 -0.1549 -0.5901  0.9611
 5024SOL     OW26950   2.791   2.678  16.109  0.9127  0.8428  0.1407
 5024SOL    HW126951   2.797   2.774  16.102  2.3731  0.7466 -0.0244
 5024SOL    HW226952   2.832   2.646  16.028  0.2199  0.0814  0.0918
 5025SOL     OW26953   4.373   0.307  21.038 -0.1055 -0.5773 -0.1802
 5025SOL    HW126954   4.390   0.333  20.947 -1.4775 -0.4910 -0.4250
 5025SOL    HW226955   4.338   0.218  21.031 -2.9150  0.5055  0.0445
 5026SOL     OW26956   1.475   2.348  16.405  0.1620 -0.3642  0.4484
 5026SOL    HW126957   1.450   2.436  16.378 -0.3385 -0.2755  1.1941
 5026SOL    HW226958   1.392   2.304  16.423  0.3562 -1.3834 -1.1628
 5027SOL     OW26959   4.627   3.916   3.461  0.5662 -0.4997 -0.1968
 5027SOL    HW126960   4.683   3.988   3.434  1.9371 -2.1442 -1.7567
 5027SOL    HW226961   4.647   3.903   3.554  0.6948  0.7694 -0.0467
 5028SOL     OW26962   3.188   0.278   1.318 -0.2594 -0.5840  0.4285
 5028SOL    HW126963   3.179   0.184   1.307 -2.8899 -0.5794  2.5614
 5028SOL    HW226964   3.164   0.314   1.232 -1.7794 -1.7156  0.3805
 5029SOL     OW26965   1.564   2.966  16.810 -0.8042  0.3308  0.0196
 5029SOL    HW126966   1.535   3.035  16.870 -0.1239 -0.3903  1.1846
 5029SOL    HW226967   1.501   2.896  16.821 -0.2161 -0.1256  0.4913
 5030SOL     OW26968   2.402   3.649   2.695 -0.6987 -0.1256 -0.6650
 5030SOL    HW126969   2.379   3.714   2.760  2.1893 -0.1005  0.3074
 5030SOL    HW226970   2.444   3.579   2.744 -0.3640 -1.0258 -2.2178
 5031SOL     OW26971   1.875   2.228  17.009 -0.7335  0.5798  0.1715
 5031SOL    HW126972   1.810   2.192  16.949 -0.3037 -0.3731  0.2777
 5031SOL    HW226973   1.852   2.321  17.016 -0.4990  0.8005 -1.8404
 5032SOL     OW26974   0.955   2.300  13.310  0.0927  0.1309 -0.2835
 5032SOL    HW126975   0.861   2.304  13.328  0.2103  0.6142  0.2318
 5032SOL    HW226976   0.964   2.232  13.243 -0.4961 -0.8086  0.5935
 5033SOL     OW26977   2.421   4.501   9.244  0.2240  0.7783 -0.1824
 5033SOL    HW126978   2.502   4.549   9.264  0.9820 -0.8594  0.6725
 5033SOL    HW226979   2.442   4.451   9.165 -0.0896  0.6908 -0.2095
 5034SOL     OW26980   2.653   0.742   1.469 -0.1121  0.1621 -0.1927
 5034SOL    HW126981   2.613   0.783   1.392  1.0556  1.8875  0.1325
 5034SOL    HW226982   2.730   0.796   1.488 -0.0386 -0.6467  1.7834
 5035SOL     OW26983   1.645   2.310  13.472 -0.1595 -0.2796  0.3682
 5035SOL    HW126984   1.553   2.312  13.447  0.3756  0.3629 -1.5157
 5035SOL    HW226985   1.648   2.357  13.556 -2.0866 -3.3908  2.1658
 5036SOL     OW26986   3.022   2.330   0.651  0.1249  0.2752 -0.1343
 5036SOL    HW126987   3.077   2.278   0.710 -0.9014 -0.8755 -0.1854
 5036SOL    HW226988   2.990   2.266   0.587 -1.5033  0.9073  0.0684
 5037SOL     OW26989   0.698   2.905  18.660 -0.1582 -0.8682  0.3737
 5037SOL    HW126990   0.604   2.916  18.644  0.1165  0.9390 -0.0529
 5037SOL    HW226991   0.739   2.971  18.604  1.2744 -0.5112  1.8569
 5038SOL     OW26992   2.651   1.575   8.166 -0.4225 -0.3625  0.2461
 5038SOL    HW126993   2.632   1.660   8.204 -0.9754  0.2092 -1.2936
 5038SOL    HW226994   2.575   1.556   8.110  1.5437 -0.0419 -2.5177
 5039SOL     OW26995   2.362   0.375  21.156 -0.4270  0.2370 -0.1220
 5039SOL    HW126996   2.334   0.324  21.081 -0.7679  0.8984 -0.4441
 5039SOL    HW226997   2.442   0.332  21.186  0.5158  0.8543 -1.7545
 5040SOL     OW26998   4.545   2.858  20.340  0.4427 -0.2912  0.4024
 5040SOL    HW126999   4.480   2.928  20.340  0.5648 -0.1787  0.3900
 5040SOL    HW227000   4.559   2.838  20.433  0.2804 -0.4163  0.3993
 5041SOL     OW27001   3.115   1.583  17.138 -0.4332  0.1429 -0.2342
 5041SOL    HW127002   3.139   1.549  17.224  1.0668 -0.1872 -0.7777
 5041SOL    HW227003   3.112   1.506  17.081  2.6321  0.8607 -1.3846
 5042SOL     OW27004   0.337   1.107  17.732  0.3990 -0.8461 -0.4084
 5042SOL    HW127005   0.378   1.145  17.654 -1.5311  0.4299 -0.7998
 5042SOL    HW227006   0.358   1.169  17.803 -0.8137 -0.2088 -0.6030
 5043SOL     OW27007   0.726   0.396   9.446  0.7640 -0.1338  0.1266
 5043SOL    HW127008   0.820   0.378   9.458  0.4271 -1.6927  0.4574
 5043SOL    HW227009   0.687   0.370   9.530 -0.3058 -1.8193 -0.9078
 5044SOL     OW27010   1.132   4.357   3.362 -0.3953  0.1688 -0.5120
 5044SOL    HW127011   1.207   4.391   3.314  0.4120 -1.7064 -0.5716
 5044SOL    HW227012   1.155   4.369   3.454 -1.3396  2.4569 -0.5839
 5045SOL     OW27013   3.712   4.395  14.968  0.3239  0.0198  0.0191
 5045SOL    HW127014   3.686   4.465  14.908  0.1737  0.3818  0.5074
 5045SOL    HW227015   3.802   4.375  14.943  0.7374  1.1558  0.6086
 5046SOL     OW27016   3.847   2.437  17.856  0.2408 -0.7607  0.3291
 5046SOL    HW127017   3.759   2.447  17.820 -0.7982 -3.3234  2.1601
 5046SOL    HW227018   3.875   2.526  17.876 -1.6945  0.1028 -0.8123
 5047SOL     OW27019   4.606   4.714   3.719 -0.4697 -0.6567 -0.3635
 5047SOL    HW127020   4.599   4.672   3.805  0.0350  1.8778  0.9148
 5047SOL    HW227021   4.519   4.751   3.704 -0.0583  0.3955 -0.1682
 5048SOL     OW27022   2.606   2.159  16.719 -0.0846  0.2058  0.2851
 5048SOL    HW127023   2.532   2.101  16.736  0.1017 -0.6279 -1.7397
 5048SOL    HW227024   2.656   2.158  16.801 -3.0015  1.8329  2.0924
 5049SOL     OW27025   1.074   2.499  10.120 -0.5715 -0.1105 -0.5067
 5049SOL    HW127026   1.012   2.566  10.150 -1.0851 -1.0277  0.4646
 5049SOL    HW227027   1.151   2.512  10.176 -0.7951 -0.5573 -0.1021
 5050SOL     OW27028   3.008   1.538  14.541 -0.7957 -0.2251 -0.0376
 5050SOL    HW127029   3.022   1.574  14.454  0.1211  2.2744  1.1419
 5050SOL    HW227030   3.095   1.515  14.572 -1.1171 -1.0889  0.2188
 5051SOL     OW27031   4.405   2.597   3.427  0.6786  0.4686 -0.2176
 5051SOL    HW127032   4.392   2.502   3.423 -1.0239  0.5959  2.0470
 5051SOL    HW227033   4.409   2.624   3.336 -0.0012 -1.6443 -0.8854
 5052SOL     OW27034   3.077   4.164  14.285  0.0055 -0.3794 -0.1818
 5052SOL    HW127035   3.052   4.233  14.346  0.0420  0.5391 -1.2121
 5052SOL    HW227036   3.143   4.205  14.229  1.0329 -1.6561  0.0942
 5053SOL     OW27037   3.938   0.803   1.651  0.4866 -0.2087  0.3330
 5053SOL    HW127038   4.021   0.782   1.608  0.1880 -0.8540  0.0690
 5053SOL    HW227039   3.878   0.734   1.623 -0.1237  0.2211  0.5739
 5054SOL     OW27040   1.887   3.951  15.871 -0.2532  0.9431  0.5132
 5054SOL    HW127041   1.794   3.970  15.879 -0.6621 -1.5964  1.9653
 5054SOL    HW227042   1.930   4.014  15.929 -1.1390  1.5211  0.5427
 5055SOL     OW27043   3.012   4.194  11.599 -0.4755 -0.2583 -0.1825
 5055SOL    HW127044   2.994   4.133  11.527  0.4260  0.8247 -1.3377
 5055SOL    HW227045   2.956   4.269  11.581 -0.5588 -0.1675  0.4693
 5056SOL     OW27046   0.776   3.227  16.743  0.0209 -0.7595  0.3360
 5056SOL    HW127047   0.727   3.233  16.825  0.5533 -0.4253  0.6303
 5056SOL    HW227048   0.867   3.243  16.769  0.1055 -0.0640 -0.4115
 5057SOL     OW27049   0.078   1.158   8.114  0.5516  0.5403  0.2915
 5057SOL    HW127050   0.025   1.115   8.180  0.8760  0.2165  0.3381
 5057SOL    HW227051   0.136   1.089   8.080 -1.0882  0.2045 -1.8217
 5058SOL     OW27052   3.485   1.633  17.344 -0.7055  0.1068 -0.5850
 5058SOL    HW127053   3.564   1.595  17.381 -0.8932  0.2852  0.0050
 5058SOL    HW227054   3.458   1.572  17.275  0.4606  0.5295 -1.4112
 5059SOL     OW27055   0.109   3.649  18.860  0.0489 -0.2088  0.2830
 5059SOL    HW127056   0.118   3.672  18.767  0.2207 -0.0114  0.3492
 5059SOL    HW227057   0.148   3.723  18.907 -1.5378  0.4433  0.5503
 5060SOL     OW27058   2.316   1.519   2.573 -0.1027 -0.2015  0.1780
 5060SOL    HW127059   2.334   1.608   2.543  0.3506 -0.2193  0.3922
 5060SOL    HW227060   2.225   1.503   2.549 -0.1121  0.2343 -0.0730
 5061SOL     OW27061   2.226   4.620  20.789 -0.7011  0.2018  1.4213
 5061SOL    HW127062   2.224   4.691  20.852 -0.8723  0.5117  1.0677
 5061SOL    HW227063   2.145   4.630  20.739 -0.5860 -0.0649  1.1787
 5062SOL     OW27064   3.339   4.130  18.293 -0.0174  0.7629  0.3586
 5062SOL    HW127065   3.292   4.188  18.233  0.7638 -0.4130 -1.3846
 5062SOL    HW227066   3.403   4.085  18.238  1.5704  0.6378  2.3135
 5063SOL     OW27067   2.295   0.340  17.075  0.2297 -0.4793  0.5677
 5063SOL    HW127068   2.325   0.405  17.137 -0.3335  0.3498 -0.0303
 5063SOL    HW227069   2.264   0.391  17.000  0.1951 -1.4426 -0.0720
 5064SOL     OW27070   0.692   3.665  16.584 -0.0857  0.4225  0.3967
 5064SOL    HW127071   0.653   3.643  16.500 -1.3444  2.5242  0.4267
 5064SOL    HW227072   0.769   3.716  16.562 -0.9743  1.8215  0.5691
 5065SOL     OW27073   4.591   3.838   9.183 -0.2973  0.3574  0.5127
 5065SOL    HW127074   4.632   3.896   9.247 -0.0334  0.8763 -0.1278
 5065SOL    HW227075   4.546   3.897   9.123  0.8477 -0.0457 -0.7527
 5066SOL     OW27076   2.619   0.588  12.838  0.3140 -0.0814  0.2972
 5066SOL    HW127077   2.573   0.569  12.756  0.6851  0.2014  0.0207
 5066SOL    HW227078   2.617   0.505  12.886 -1.1845  0.1481  0.6376
 5067SOL     OW27079   1.038   2.788  11.270 -0.1697 -0.8093  0.7448
 5067SOL    HW127080   1.108   2.779  11.336 -1.4529 -0.5482  2.1309
 5067SOL    HW227081   1.079   2.838  11.199  1.6487 -2.3089  0.7177
 5068SOL     OW27082   3.382   0.961  19.649 -0.0617 -0.8396 -0.4783
 5068SOL    HW127083   3.411   0.885  19.699  0.7385  0.2687  0.7510
 5068SOL    HW227084   3.455   0.981  19.590  0.8999  0.7854  1.2750
 5069SOL     OW27085   4.464   4.130   9.430  0.4702  0.1416 -0.0830
 5069SOL    HW127086   4.429   4.042   9.446 -2.1903  1.3412  0.5965
 5069SOL    HW227087   4.414   4.163   9.356  1.5962  1.0504 -0.4468
 5070SOL     OW27088   1.668   3.949  16.020 -0.2198  1.0390  0.1278
 5070SOL    HW127089   1.611   3.872  16.016  1.2282  0.0562 -1.7378
 5070SOL    HW227090   1.648   3.989  16.105 -2.2842 -0.3795  0.3192
 5071SOL     OW27091   1.639   1.858  11.198 -0.0253 -0.0623  0.2697
 5071SOL    HW127092   1.684   1.911  11.133 -0.4671  0.7398  0.6093
 5071SOL    HW227093   1.614   1.778  11.152 -0.4780  0.5747 -0.5798
 5072SOL     OW27094   2.203   2.244   1.955 -0.5335 -0.3928 -0.0031
 5072SOL    HW127095   2.192   2.164   2.006 -2.1268 -1.6135 -2.2626
 5072SOL    HW227096   2.244   2.216   1.874 -1.4861  1.0008 -0.9820
 5073SOL     OW27097   4.485   2.540  13.694 -0.1431  0.1528  0.7070
 5073SOL    HW127098   4.576   2.534  13.722  0.5959 -0.6069 -1.8716
 5073SOL    HW227099   4.482   2.615  13.635 -1.0255 -0.2721  0.1980
 5074SOL     OW27100   1.651   2.438   1.211  0.4710  0.0233 -0.1513
 5074SOL    HW127101   1.717   2.402   1.270  0.9118  0.1002 -0.5980
 5074SOL    HW227102   1.677   2.408   1.124 -0.3152 -0.2905 -0.2767
 5075SOL     OW27103   4.476   3.065   6.430 -0.7672 -0.5265 -0.1995
 5075SOL    HW127104   4.449   3.026   6.347 -2.6855 -0.7444  0.5349
 5075SOL    HW227105   4.400   3.055   6.487  0.5296 -0.2886  1.5506
 5076SOL     OW27106   0.217   2.415   5.742  0.0433  0.2815  0.1096
 5076SOL    HW127107   0.268   2.335   5.731 -0.8642 -0.3416  0.3749
 5076SOL    HW227108   0.278   2.486   5.723  0.5972 -0.5076 -1.0947
 5077SOL     OW27109   4.579   2.901   8.501 -0.5740 -0.0321  0.1335
 5077SOL    HW127110   4.593   2.806   8.499 -1.7921 -0.2123  0.2689
 5077SOL    HW227111   4.633   2.935   8.429 -1.1076 -0.9530 -0.7000
 5078SOL     OW27112   3.453   3.551  16.614  0.5610  0.2724 -0.1096
 5078SOL    HW127113   3.500   3.493  16.554 -0.1228 -0.9653  0.5407
 5078SOL    HW227114   3.361   3.528  16.602  0.4565 -0.1901  1.6567
 5079SOL     OW27115   0.859   2.001   1.722  0.2606  0.3400  0.1891
 5079SOL    HW127116   0.924   2.051   1.772 -0.4787  1.1864  0.3025
 5079SOL    HW227117   0.775   2.032   1.754 -0.2041 -0.4124 -0.3062
 5080SOL     OW27118   2.118   2.382  16.142  0.0457 -0.6884 -0.5683
 5080SOL    HW127119   2.145   2.387  16.233 -0.7825  0.8950 -0.4173
 5080SOL    HW227120   2.125   2.289  16.120 -1.9681 -1.3861  1.7696
 5081SOL     OW27121   2.005   1.722  20.494 -0.4716  0.4954 -0.1241
 5081SOL    HW127122   2.077   1.775  20.460 -0.3805 -0.4710 -1.4362
 5081SOL    HW227123   1.933   1.784  20.505  0.7921  1.6030  1.8968
 5082SOL     OW27124   2.651   0.385   1.892 -0.6487 -0.8516  0.2503
 5082SOL    HW127125   2.683   0.359   1.979  1.4890 -0.8219 -0.5349
 5082SOL    HW227126   2.649   0.480   1.894  0.5254 -0.8145 -0.1309
 5083SOL     OW27127   3.180   4.069  20.234 -0.0856 -0.1630 -0.4247
 5083SOL    HW127128   3.265   4.025  20.232  0.5250  1.0053 -0.0507
 5083SOL    HW227129   3.139   4.041  20.316 -0.9961 -2.4932 -1.6729
 5084SOL     OW27130   0.821   1.416  17.373  0.2422 -0.3069  0.5616
 5084SOL    HW127131   0.874   1.345  17.410  1.9190 -0.2084 -1.6704
 5084SOL    HW227132   0.876   1.493  17.378 -0.4592  0.2182  0.1699
 5085SOL     OW27133   1.147   1.046  15.468 -0.1075  0.1860  0.0206
 5085SOL    HW127134   1.134   0.974  15.407 -2.5041  0.4079  0.2682
 5085SOL    HW227135   1.237   1.036  15.498 -0.2298 -2.3412 -0.4407
 5086SOL     OW27136   0.227   3.386  16.010 -0.0957  0.3064  0.1798
 5086SOL    HW127137   0.186   3.441  15.943 -0.0226 -0.3341 -0.3979
 5086SOL    HW227138   0.172   3.308  16.014 -0.1836  0.4079  0.9748
 5087SOL     OW27139   0.678   1.299   2.361  0.0161 -0.7661 -0.0309
 5087SOL    HW127140   0.628   1.240   2.303 -1.0197 -0.9043  1.0082
 5087SOL    HW227141   0.624   1.306   2.440  0.0798  1.7078 -0.2252
 5088SOL     OW27142   4.663   0.468  16.741  0.4453  0.1970 -0.0961
 5088SOL    HW127143   4.667   0.518  16.660 -0.1649  0.9699  0.3406
 5088SOL    HW227144   4.593   0.404  16.726 -2.4177  2.9921  1.2783
 5089SOL     OW27145   3.247   1.533  13.963 -0.3783 -0.2136  0.0565
 5089SOL    HW127146   3.327   1.481  13.976 -1.3047 -1.5767  0.2250
 5089SOL    HW227147   3.279   1.616  13.927  1.1318 -0.7502  0.1457
 5090SOL     OW27148   3.842   0.474   4.896  0.4309 -0.6002 -0.7500
 5090SOL    HW127149   3.837   0.426   4.813  1.3379 -1.9842 -0.0023
 5090SOL    HW227150   3.876   0.560   4.873 -0.0056 -0.7514 -1.9225
 5091SOL     OW27151   3.614   1.681   7.084 -0.5963  0.1047 -0.7040
 5091SOL    HW127152   3.630   1.775   7.084  1.7683 -0.3129 -1.4836
 5091SOL    HW227153   3.618   1.655   6.992 -0.0652 -0.9781 -0.3819
 5092SOL     OW27154   0.692   3.698  15.802 -0.3520  0.2033 -0.0226
 5092SOL    HW127155   0.640   3.772  15.834  0.3545  0.4208  0.6116
 5092SOL    HW227156   0.698   3.639  15.876 -1.4898 -0.8023 -0.7343
 5093SOL     OW27157   3.832   1.083  10.885 -0.1901 -0.0523 -0.1105
 5093SOL    HW127158   3.911   1.130  10.858 -0.6346  1.5672  1.4435
 5093SOL    HW227159   3.862   1.021  10.951  0.1732 -1.0114 -1.1833
 5094SOL     OW27160   1.418   1.269   5.625  0.4300 -0.4697  0.4207
 5094SOL    HW127161   1.471   1.215   5.685  0.9412  0.2083  0.5803
 5094SOL    HW227162   1.390   1.343   5.678 -1.3281 -1.2206  0.5445
 5095SOL     OW27163   4.507   0.294  18.191  0.2336 -0.2920  0.0157
 5095SOL    HW127164   4.511   0.202  18.218 -1.7254 -0.1475  0.7962
 5095SOL    HW227165   4.563   0.340  18.253  0.7137 -0.8740  0.0126
 5096SOL     OW27166   3.422   1.609   3.832 -0.3263  0.0956 -0.0813
 5096SOL    HW127167   3.410   1.663   3.910 -1.3066  0.4037 -0.4468
 5096SOL    HW227168   3.495   1.651   3.785  0.3637 -0.1852  0.7464
 5097SOL     OW27169   3.313   0.399   3.711  0.6197 -0.0605  0.1972
 5097SOL    HW127170   3.220   0.379   3.716  0.1556  1.2502 -2.9153
 5097SOL    HW227171   3.326   0.469   3.774 -0.7064  0.5045 -0.1568
 5098SOL     OW27172   2.924   1.774   8.290 -0.1504  0.4808 -0.0318
 5098SOL    HW127173   2.890   1.788   8.202  0.9212 -1.9048 -0.8277
 5098SOL    HW227174   2.943   1.862   8.323 -0.0245  1.3226 -2.3884
 5099SOL     OW27175   2.240   3.832   1.154 -0.0117  0.0253  0.6038
 5099SOL    HW127176   2.226   3.924   1.176 -0.3786 -0.5029  2.5296
 5099SOL    HW227177   2.158   3.788   1.179  0.2940 -0.8866  0.0199
 5100SOL     OW27178   1.868   1.883  18.325  1.1325  0.1775 -0.0351
 5100SOL    HW127179   1.804   1.850  18.263  1.7285  1.8763 -1.5638
 5100SOL    HW227180   1.952   1.853  18.291  1.5686  2.1429 -0.7401
 5101SOL     OW27181   0.647   2.502   0.908 -0.1974 -0.1897 -0.0657
 5101SOL    HW127182   0.729   2.498   0.958  0.2899 -0.3550 -0.8834
 5101SOL    HW227183   0.583   2.457   0.964  0.4836 -0.8865  0.1481
 5102SOL     OW27184   0.548   2.473   3.046  0.5310 -0.0869 -0.2584
 5102SOL    HW127185   0.596   2.426   2.978  0.3984 -2.0309  0.9889
 5102SOL    HW227186   0.605   2.467   3.123 -0.3845  0.1255  0.4292
 5103SOL     OW27187   3.888   0.232   9.128 -0.0066  0.1527 -0.0730
 5103SOL    HW127188   3.816   0.189   9.083  0.4748  0.8453 -1.5209
 5103SOL    HW227189   3.914   0.171   9.197 -1.2029 -0.6061 -0.3050
 5104SOL     OW27190   0.692   0.878  15.790  0.5501 -0.5328 -0.4129
 5104SOL    HW127191   0.752   0.952  15.796  2.0271 -1.6584 -1.4664
 5104SOL    HW227192   0.625   0.907  15.728 -0.4850  1.0579  1.4380
 5105SOL     OW27193   2.374   2.729   3.560 -0.4924  0.1981 -0.5435
 5105SOL    HW127194   2.318   2.706   3.486  0.6720 -1.9916 -0.7291
 5105SOL    HW227195   2.444   2.665   3.558  0.9941  1.7756  0.8568
 5106SOL     OW27196   2.469   1.083  14.917  1.0510  0.0306  0.1202
 5106SOL    HW127197   2.551   1.132  14.917  0.4519  1.0213 -0.8068
 5106SOL    HW227198   2.481   1.015  14.851  1.7663 -0.8891  1.1919
 5107SOL     OW27199   4.704   1.373  16.648 -0.7633  0.0218 -0.2561
 5107SOL    HW127200   0.009   1.397  16.601  0.4399  2.4671  3.0075
 5107SOL    HW227201   4.634   1.404  16.592  0.6347  0.2769 -1.8730
 5108SOL     OW27202   2.739   4.016  20.969 -0.4452 -0.0284 -0.2424
 5108SOL    HW127203   2.775   3.933  21.000  0.7241  1.6276  2.8531
 5108SOL    HW227204   2.677   4.043  21.037 -0.2574  2.0208 -0.8617
 5109SOL     OW27205   3.086   0.537  18.878 -0.1703 -0.3596  0.1944
 5109SOL    HW127206   3.006   0.494  18.908  0.8389 -2.2771  0.1847
 5109SOL    HW227207   3.107   0.600  18.947 -0.0619 -1.9428  1.6162
 5110SOL     OW27208   3.034   2.799   2.422 -0.0691  0.5890 -0.4078
 5110SOL    HW127209   3.094   2.726   2.409 -0.3468  0.2189  0.4133
 5110SOL    HW227210   3.047   2.826   2.513  0.3149  1.8153 -0.8274
 5111SOL     OW27211   1.791   3.951   3.904 -0.0396  0.1788  0.2705
 5111SOL    HW127212   1.851   3.950   3.978  0.0808 -1.5243  0.1460
 5111SOL    HW227213   1.728   3.881   3.922 -2.4882  2.5538  0.8208
 5112SOL     OW27214   0.120   3.495  14.016  0.0494  0.5631 -0.1005
 5112SOL    HW127215   0.116   3.472  14.108  0.9920 -0.1103 -0.2356
 5112SOL    HW227216   0.114   3.591  14.015 -1.3882  0.4892  0.5734
 5113SOL     OW27217   1.681   3.742   1.867 -0.1889  0.2287 -0.3082
 5113SOL    HW127218   1.622   3.776   1.800 -0.3108  1.1059  0.2530
 5113SOL    HW227219   1.631   3.748   1.948  0.4156  0.3214  0.0594
 5114SOL     OW27220   1.097   1.466  17.011  0.1356 -0.6713 -0.0348
 5114SOL    HW127221   1.127   1.556  17.025 -1.0910  0.1489 -2.7345
 5114SOL    HW227222   1.006   1.466  17.040  0.1004 -1.0069 -0.1413
 5115SOL     OW27223   1.528   2.827   1.822 -0.0613  0.6866 -0.0536
 5115SOL    HW127224   1.461   2.886   1.859 -2.8797 -2.0039 -0.9005
 5115SOL    HW227225   1.542   2.761   1.889  2.4064  1.7490  0.4839
 5116SOL     OW27226   2.795   0.256  18.700  0.2714 -0.2659  0.2174
 5116SOL    HW127227   2.801   0.214  18.614  0.6914 -0.4887  0.3532
 5116SOL    HW227228   2.826   0.345  18.685  0.6843 -0.4100  0.2103
 5117SOL     OW27229   2.972   0.811  21.019 -0.1587 -0.2291 -0.2596
 5117SOL    HW127230   2.887   0.820  20.976 -0.6964 -0.7757  0.6982
 5117SOL    HW227231   2.974   0.881  21.085 -0.1046 -0.5892  0.1198
 5118SOL     OW27232   1.652   4.141   3.740 -0.5244 -0.2339  0.6956
 5118SOL    HW127233   1.718   4.207   3.724 -0.6808 -0.2099  0.1392
 5118SOL    HW227234   1.698   4.071   3.785  0.2627 -0.9657 -1.2270
 5119SOL     OW27235   1.958   0.305  19.091  0.1680 -0.4714  0.7426
 5119SOL    HW127236   2.051   0.283  19.101 -0.0149 -2.6545 -2.4384
 5119SOL    HW227237   1.912   0.230  19.128 -0.3745 -1.0962 -1.2222
 5120SOL     OW27238   2.640   1.799   3.444  0.3872  0.0922 -0.2817
 5120SOL    HW127239   2.713   1.857   3.466  0.7092 -0.4139 -0.0257
 5120SOL    HW227240   2.654   1.721   3.497 -0.0274 -0.2390 -0.6589
 5121SOL     OW27241   3.916   3.060   7.359  0.0639 -0.3024 -0.6283
 5121SOL    HW127242   3.849   3.123   7.388 -0.8791 -0.6245 -2.0856
 5121SOL    HW227243   3.997   3.092   7.398 -1.0597 -0.3192  1.7679
 5122SOL     OW27244   2.194   2.929   1.354 -0.0635 -0.4672 -0.8234
 5122SOL    HW127245   2.209   2.949   1.262  0.5345  0.1894 -0.5796
 5122SOL    HW227246   2.223   3.007   1.401  1.0332 -1.3955  0.0306
 5123SOL     OW27247   3.033   3.781  16.411 -0.2183  0.4061  0.0269
 5123SOL    HW127248   3.019   3.747  16.500 -1.1821  0.2678 -0.1716
 5123SOL    HW227249   3.088   3.859  16.424 -1.1258  0.9225  0.8392
 5124SOL     OW27250   4.071   0.579  11.786 -0.1395  0.1489 -0.8700
 5124SOL    HW127251   4.005   0.623  11.733 -1.5134  0.0997  0.8021
 5124SOL    HW227252   4.029   0.497  11.814  0.1895  0.6618  1.1552
 5125SOL     OW27253   2.520   4.113   4.795  0.1892  0.3349 -0.1048
 5125SOL    HW127254   2.461   4.156   4.733  0.0425  1.5517  0.8804
 5125SOL    HW227255   2.599   4.093   4.744 -0.7960 -0.6418 -1.2345
 5126SOL     OW27256   3.884   2.403   4.696 -0.1265  0.1214 -0.0912
 5126SOL    HW127257   3.921   2.329   4.649  0.6390  0.3319  0.1844
 5126SOL    HW227258   3.951   2.472   4.689 -0.2626  0.3410  0.8053
 5127SOL     OW27259   3.926   1.005  12.617  0.2355  0.6453 -0.5108
 5127SOL    HW127260   4.016   0.991  12.646 -0.1018  0.9979  0.6881
 5127SOL    HW227261   3.935   1.046  12.531  1.2201  1.0516 -0.2086
 5128SOL     OW27262   0.523   1.403  14.240  0.3930  0.0831 -0.9704
 5128SOL    HW127263   0.589   1.456  14.197  0.1752  0.9264 -0.2537
 5128SOL    HW227264   0.520   1.435  14.330 -0.9589  0.0259 -0.9895
 5129SOL     OW27265   0.197   1.402  19.644  0.0824 -0.0170  0.2839
 5129SOL    HW127266   0.225   1.488  19.612  0.4269  0.0061  0.6468
 5129SOL    HW227267   0.195   1.347  19.565  0.4369  0.1721  0.1418
 5130SOL     OW27268   2.903   3.822   0.178 -0.4758  0.5965 -0.2244
 5130SOL    HW127269   2.912   3.865   0.093 -0.2270  1.5569  0.2833
 5130SOL    HW227270   2.810   3.830   0.199 -0.3941  1.0765 -0.0363
 5131SOL     OW27271   2.549   0.376  11.491 -0.1505  0.5450 -0.0768
 5131SOL    HW127272   2.470   0.431  11.492  1.2988  2.6249 -0.8654
 5131SOL    HW227273   2.541   0.324  11.411 -1.8997 -0.9299  1.0610
 5132SOL     OW27274   1.649   1.206   5.777  0.5014 -0.0188  0.5780
 5132SOL    HW127275   1.637   1.214   5.872  0.1821  0.6347  0.4785
 5132SOL    HW227276   1.694   1.286   5.751  0.9165 -0.3608  0.2268
 5133SOL     OW27277   0.432   4.199  18.381 -0.0414  0.4503  0.0937
 5133SOL    HW127278   0.451   4.147  18.459  0.4279  1.7106  0.8147
 5133SOL    HW227279   0.415   4.134  18.313  4.5819 -0.6950 -0.0122
 5134SOL     OW27280   1.758   0.242   1.208  0.9588  0.1932  0.1674
 5134SOL    HW127281   1.738   0.302   1.135  1.7511  0.3107  0.0524
 5134SOL    HW227282   1.689   0.175   1.202 -0.3846  1.5092  0.7690
 5135SOL     OW27283   0.809   2.012   2.942  0.5833  0.0892 -0.4000
 5135SOL    HW127284   0.784   2.028   2.852  0.0206 -2.0391 -0.6223
 5135SOL    HW227285   0.754   2.071   2.994  0.9743  1.3634 -1.4418
 5136SOL     OW27286   2.882   0.058  16.411  0.0981 -0.6005 -0.7405
 5136SOL    HW127287   2.899   0.053  16.316  1.2558 -4.2926 -0.3521
 5136SOL    HW227288   2.813   0.124  16.420  1.3978  1.2124 -3.9885
 5137SOL     OW27289   1.511   4.411   4.130 -0.3982  0.2221  0.4115
 5137SOL    HW127290   1.514   4.496   4.085 -1.9352 -0.9795 -1.9782
 5137SOL    HW227291   1.479   4.431   4.218  2.5327  2.5781  0.9573
 5138SOL     OW27292   1.959   1.222  20.230 -0.0042 -0.1936 -0.1074
 5138SOL    HW127293   2.019   1.271  20.174  1.8692 -1.5451  0.7442
 5138SOL    HW227294   1.992   1.238  20.319 -2.2177  0.9041  0.5228
 5139SOL     OW27295   4.481   3.269   2.790 -0.5639  0.3029  0.4285
 5139SOL    HW127296   4.400   3.309   2.760 -0.7984 -0.9251 -0.5447
 5139SOL    HW227297   4.494   3.304   2.879 -2.7066 -0.3693  0.9910
 5140SOL     OW27298   2.754   2.823   0.092  0.6360 -0.4128  0.5354
 5140SOL    HW127299   2.675   2.782   0.126  0.2204 -0.8575 -0.9818
 5140SOL    HW227300   2.817   2.752   0.084  0.1095 -0.6600 -1.5097
 5141SOL     OW27301   0.204   4.500  16.932  0.1182 -0.2429  0.6573
 5141SOL    HW127302   0.237   4.587  16.907  2.1081 -1.3396 -0.4508
 5141SOL    HW227303   0.160   4.515  17.016  3.2269  1.2340  2.0102
 5142SOL     OW27304   1.252   3.309  18.642  0.0148  0.0739 -0.3114
 5142SOL    HW127305   1.283   3.249  18.574  1.6953  0.4765  0.1168
 5142SOL    HW227306   1.317   3.303  18.712 -1.0054  0.6835  0.6906
 5143SOL     OW27307   4.058   2.662  11.487 -0.6903 -0.8056  0.0126
 5143SOL    HW127308   4.031   2.661  11.579  0.5079  0.9761  0.3877
 5143SOL    HW227309   4.092   2.574  11.471 -0.0940 -0.8493  1.5067
 5144SOL     OW27310   0.831   3.250  19.879  0.0480  0.1759 -0.4757
 5144SOL    HW127311   0.801   3.198  19.954  1.1535  1.7413  1.0531
 5144SOL    HW227312   0.773   3.325  19.878  0.8277  0.7786 -0.4361
 5145SOL     OW27313   2.843   1.805   5.645 -0.2323 -0.2297 -0.1388
 5145SOL    HW127314   2.761   1.842   5.612 -0.0464 -0.6385 -1.0667
 5145SOL    HW227315   2.909   1.835   5.582 -0.0306 -1.8358 -0.6798
 5146SOL     OW27316   3.122   4.486   4.474 -0.1198  0.0745 -0.6573
 5146SOL    HW127317   3.100   4.432   4.550  0.5370  0.4028 -0.2385
 5146SOL    HW227318   3.128   4.423   4.401 -0.2633 -0.2990 -0.3479
 5147SOL     OW27319   4.636   3.769   0.747  0.2372  0.0424 -0.4465
 5147SOL    HW127320   4.691   3.846   0.759  0.6686 -0.5092  1.2207
 5147SOL    HW227321   4.686   3.698   0.787 -0.4924 -0.9552 -1.2981
 5148SOL     OW27322   3.158   4.035   3.080  0.0842  0.0938 -0.4160
 5148SOL    HW127323   3.187   4.104   3.020 -0.3685 -0.8960 -1.7546
 5148SOL    HW227324   3.188   3.954   3.040 -1.6764 -0.6852 -0.1221
 5149SOL     OW27325   3.230   4.551  20.821 -0.0748 -0.0800 -0.2590
 5149SOL    HW127326   3.143   4.590  20.813  0.7187  1.8232  0.4181
 5149SOL    HW227327   3.215   4.471  20.871 -1.4681  0.1921 -0.2287
 5150SOL     OW27328   2.703   4.272   5.803 -0.4976  0.4157 -0.6436
 5150SOL    HW127329   2.765   4.199   5.802  0.5864  1.3288  1.3341
 5150SOL    HW227330   2.685   4.287   5.896  1.1651  4.3108 -0.9793
 5151SOL     OW27331   4.198   0.828   1.505  0.4129  0.1031 -0.0580
 5151SOL    HW127332   4.133   0.888   1.468  0.8813  0.6872  0.0545
 5151SOL    HW227333   4.240   0.788   1.429  0.3783  0.2312 -0.1452
 5152SOL     OW27334   4.074   2.636  19.255  0.6525 -0.2333  0.3494
 5152SOL    HW127335   4.097   2.611  19.166 -0.1362  0.0724  0.0516
 5152SOL    HW227336   3.978   2.635  19.256  0.6591 -0.2673  1.1998
 5153SOL     OW27337   2.759   1.205   6.965  0.0432  0.0462 -0.2297
 5153SOL    HW127338   2.847   1.217   7.003  0.3318  2.9572 -1.8516
 5153SOL    HW227339   2.776   1.185   6.873 -1.0571  1.2906 -0.6848
 5154SOL     OW27340   0.076   4.641  19.206  0.0609  0.4334 -0.2435
 5154SOL    HW127341   0.110   4.556  19.236 -0.1118  0.6189  0.4680
 5154SOL    HW227342   0.153   4.688  19.175 -0.2517 -1.2113 -3.6284
 5155SOL     OW27343   2.695   3.100   3.075 -0.1264  0.6178  0.4443
 5155SOL    HW127344   2.659   3.186   3.097 -1.0485  0.3615 -0.0613
 5155SOL    HW227345   2.676   3.046   3.152  1.6248  1.2135  1.3040
 5156SOL     OW27346   3.165   4.324  20.944  0.2210 -0.2823 -0.3112
 5156SOL    HW127347   3.180   4.286  21.031 -0.7400  0.1647  0.0456
 5156SOL    HW227348   3.081   4.288  20.916 -0.5016  1.2570 -0.1394
 5157SOL     OW27349   4.612   0.892   1.858  0.5512  0.6847  0.1920
 5157SOL    HW127350   4.683   0.881   1.922  0.0726  0.3904  0.6778
 5157SOL    HW227351   4.655   0.928   1.780  0.8864  2.5039  1.2167
 5158SOL     OW27352   2.678   4.393  19.473  0.3107  0.1728 -0.3934
 5158SOL    HW127353   2.676   4.387  19.377 -0.4436 -1.1651 -0.2884
 5158SOL    HW227354   2.599   4.348  19.502  0.4497  0.7242  0.8625
 5159SOL     OW27355   1.805   1.285  20.586 -0.0160  0.3207  0.6125
 5159SOL    HW127356   1.754   1.353  20.542  0.4530  0.0798 -0.3035
 5159SOL    HW227357   1.894   1.321  20.591  0.3349 -0.3955 -0.2724
 5160SOL     OW27358   0.340   2.309   3.076 -0.0559 -0.7084  0.3903
 5160SOL    HW127359   0.418   2.364   3.075 -0.0923 -0.6622  0.0686
 5160SOL    HW227360   0.280   2.353   3.137 -0.6980  0.4480 -1.0797
 5161SOL     OW27361   1.608   1.891   4.123 -0.5134 -0.4033 -0.2286
 5161SOL    HW127362   1.573   1.832   4.057  0.8461 -0.7982 -0.5882
 5161SOL    HW227363   1.608   1.977   4.081 -2.6423 -0.1034  0.3501
 5162SOL     OW27364   4.619   4.028  21.098 -0.6515 -0.0445  0.3296
 5162SOL    HW127365   4.707   3.995  21.079 -1.5252 -1.4716 -1.2139
 5162SOL    HW227366   4.605   4.008  21.191  0.7256  0.3679  0.6287
 5163SOL     OW27367   3.632   3.477  11.798  0.0320 -0.4300  0.8507
 5163SOL    HW127368   3.657   3.431  11.718  0.8417 -0.0320  0.8723
 5163SOL    HW227369   3.714   3.486  11.847 -0.2475  0.4091  1.1637
 5164SOL     OW27370   0.937   3.291   6.138 -0.0221 -0.4994 -0.0243
 5164SOL    HW127371   0.899   3.366   6.093  2.1260  0.1308 -0.7320
 5164SOL    HW227372   0.946   3.319   6.229  1.0875  0.1823 -0.3580
 5165SOL     OW27373   1.211   0.776   1.087 -0.1176  0.0327 -0.6507
 5165SOL    HW127374   1.216   0.700   1.029  0.0403  1.0384 -1.9260
 5165SOL    HW227375   1.302   0.796   1.109 -0.1591 -0.1213 -0.3259
 5166SOL     OW27376   0.885   0.520  16.628 -0.6165  0.0246 -0.4700
 5166SOL    HW127377   0.949   0.561  16.569  1.7422 -0.2151  1.9625
 5166SOL    HW227378   0.852   0.592  16.682  0.4926 -0.5711  0.9851
 5167SOL     OW27379   1.280   0.668   3.864 -0.2188  0.1376 -0.0329
 5167SOL    HW127380   1.348   0.733   3.882  1.3293 -1.4507 -0.2233
 5167SOL    HW227381   1.219   0.676   3.937  1.1566  0.2284  1.0895
 5168SOL     OW27382   2.623   1.226   4.840  0.6254 -0.4413  0.2741
 5168SOL    HW127383   2.546   1.221   4.783  1.6774  0.6335 -1.2487
 5168SOL    HW227384   2.598   1.288   4.908  0.1891  0.0180 -0.3008
 5169SOL     OW27385   4.061   2.016  20.570 -0.0099  0.0474 -0.1707
 5169SOL    HW127386   4.143   2.057  20.543 -0.2118 -0.1469 -1.0719
 5169SOL    HW227387   3.996   2.051  20.509 -0.6405  0.3906  0.6936
 5170SOL     OW27388   1.456   4.255   3.907 -0.0242  0.0230 -0.7824
 5170SOL    HW127389   1.526   4.207   3.862  0.1480 -0.8977  0.4458
 5170SOL    HW227390   1.502   4.321   3.959 -0.1168  0.0937 -0.7919
 5171SOL     OW27391   3.243   2.532  16.111 -0.0547 -0.1111 -0.2356
 5171SOL    HW127392   3.320   2.573  16.150 -0.8825  0.0187  1.2598
 5171SOL    HW227393   3.221   2.460  16.170 -0.8972 -0.3433 -0.8274
 5172SOL     OW27394   3.674   4.600  10.942  0.3250  0.8921  0.4727
 5172SOL    HW127395   3.635   4.581  10.856 -1.4362 -3.4577  2.2266
 5172SOL    HW227396   3.630   4.680  10.971 -0.7987  1.0357 -1.5827
 5173SOL     OW27397   1.642   0.808  14.403 -0.0938  0.4470 -0.0728
 5173SOL    HW127398   1.637   0.846  14.490  0.8722  1.2270 -0.3500
 5173SOL    HW227399   1.728   0.835  14.370  0.9099 -2.6642  0.0319
 5174SOL     OW27400   0.174   2.584   2.275  0.0262 -0.6649 -0.3810
 5174SOL    HW127401   0.086   2.569   2.239  0.0384 -0.4464 -0.4991
 5174SOL    HW227402   0.228   2.603   2.198 -0.0508  0.3061 -0.1941
 5175SOL     OW27403   3.224   1.844   5.640  0.2981  0.2431 -0.3528
 5175SOL    HW127404   3.314   1.824   5.612 -0.2245  0.1629 -1.9689
 5175SOL    HW227405   3.178   1.760   5.632  0.4607 -0.0646  1.9401
 5176SOL     OW27406   0.035   0.344  17.361  0.0994  0.2978  0.0859
 5176SOL    HW127407   0.070   0.343  17.450  1.9151  1.0226 -0.6271
 5176SOL    HW227408   0.085   0.411  17.315 -2.6914  1.8400 -0.7421
 5177SOL     OW27409   1.558   1.806  20.059  0.1485 -0.4631  0.0196
 5177SOL    HW127410   1.624   1.868  20.027  0.2631 -0.8224 -0.4419
 5177SOL    HW227411   1.530   1.759  19.980  1.6483 -2.5303  0.7409
 5178SOL     OW27412   1.889   1.621  12.019 -0.4879  0.1322 -0.1933
 5178SOL    HW127413   1.907   1.634  12.112 -0.4670  1.3779 -0.3750
 5178SOL    HW227414   1.949   1.680  11.974  0.2195 -1.2223 -1.0377
 5179SOL     OW27415   0.535   0.769  14.782 -0.2609  0.0552  0.0907
 5179SOL    HW127416   0.618   0.721  14.788 -0.2550 -0.0813 -1.1397
 5179SOL    HW227417   0.469   0.701  14.771 -0.3463  0.2826 -0.7676
 5180SOL     OW27418   4.349   0.321   5.796 -0.2168 -0.2282 -0.7303
 5180SOL    HW127419   4.344   0.415   5.813 -0.2513 -0.5022  0.7847
 5180SOL    HW227420   4.431   0.293   5.838 -1.9982 -1.5189  1.9019
 5181SOL     OW27421   1.499   2.203  15.175  0.0823 -0.0112 -0.1074
 5181SOL    HW127422   1.574   2.232  15.227 -1.0590  0.3144  1.3707
 5181SOL    HW227423   1.516   2.110  15.158  1.2101  0.2617 -0.4558
 5182SOL     OW27424   3.006   1.374   5.355  0.6153  0.3047  0.5597
 5182SOL    HW127425   2.977   1.293   5.311 -2.5710  0.9357  1.5435
 5182SOL    HW227426   3.090   1.394   5.314  0.9637 -3.0183 -0.3485
 5183SOL     OW27427   1.998   0.412  20.376 -0.5285 -0.5270 -0.3358
 5183SOL    HW127428   1.956   0.496  20.357 -0.0432 -0.5215 -1.3805
 5183SOL    HW227429   2.002   0.409  20.472 -2.5742 -0.3639 -0.2532
 5184SOL     OW27430   3.179   0.100   5.452  0.5745 -0.3238 -0.4124
 5184SOL    HW127431   3.254   0.082   5.508 -1.2901  0.6782  2.4005
 5184SOL    HW227432   3.138   0.014   5.439  1.0380 -0.5653 -0.2947
 5185SOL     OW27433   2.728   0.461  14.770  0.0919  0.6671  0.5299
 5185SOL    HW127434   2.738   0.374  14.808 -0.5096 -0.4407 -1.8282
 5185SOL    HW227435   2.644   0.492  14.804  0.3762  0.3819  1.4867
 5186SOL     OW27436   3.885   2.595  15.839  0.4516 -0.1450 -0.3970
 5186SOL    HW127437   3.803   2.640  15.854  1.1479  1.2682 -0.8641
 5186SOL    HW227438   3.862   2.521  15.784 -1.0973 -1.7969  2.4451
 5187SOL     OW27439   0.205   4.034   4.939 -0.2324 -0.9857  0.4542
 5187SOL    HW127440   0.144   4.108   4.937  1.3140  0.3375  1.8678
 5187SOL    HW227441   0.172   3.978   5.009 -1.4808 -1.6899 -0.7046
 5188SOL     OW27442   1.649   4.370  13.425  0.2571 -0.2514 -0.3065
 5188SOL    HW127443   1.585   4.354  13.494 -1.7445 -1.1819 -2.3833
 5188SOL    HW227444   1.650   4.290  13.373  2.6055  0.0104 -0.6575
 5189SOL     OW27445   4.555   1.062  11.419  0.1151  0.2347 -0.7165
 5189SOL    HW127446   4.642   1.100  11.423 -0.6366  1.8349  0.5002
 5189SOL    HW227447   4.515   1.100  11.341  0.5954 -0.6825 -1.4069
 5190SOL     OW27448   2.470   0.894   9.037  0.0444 -0.1315  0.4501
 5190SOL    HW127449   2.392   0.913   8.986  0.0758  1.9783  1.1884
 5190SOL    HW227450   2.461   0.802   9.062 -1.4421 -0.3086 -0.7623
 5191SOL     OW27451   3.940   3.961  21.139  0.1970  0.3669  0.4467
 5191SOL    HW127452   3.925   3.894  21.073 -0.6546  0.0122  1.0007
 5191SOL    HW227453   3.947   4.042  21.089 -0.4861  0.1066 -0.0799
 5192SOL     OW27454   1.604   0.473  17.795  0.0955 -0.2618  0.1773
 5192SOL    HW127455   1.680   0.415  17.799 -0.7677 -1.2810  1.8829
 5192SOL    HW227456   1.553   0.451  17.873 -0.5222  2.3973  0.5078
 5193SOL     OW27457   2.787   0.205   0.552  0.2940  0.0392  0.0171
 5193SOL    HW127458   2.797   0.190   0.646 -1.0153  0.8135  0.2776
 5193SOL    HW227459   2.852   0.272   0.531  1.7230 -1.3314  0.0570
 5194SOL     OW27460   2.128   0.340  16.209 -0.2941 -0.2266 -0.3891
 5194SOL    HW127461   2.073   0.277  16.161  0.2084 -0.7735 -0.2546
 5194SOL    HW227462   2.208   0.346  16.157 -0.3786  0.3630 -0.4418
 5195SOL     OW27463   3.264   4.657  12.861 -0.4351  0.4160  0.2671
 5195SOL    HW127464   3.227   4.570  12.848 -0.7819  0.7541 -1.0047
 5195SOL    HW227465   3.345   4.642  12.911  0.3830 -0.7803 -1.4237
 5196SOL     OW27466   1.304   0.598   4.424  0.6302  0.1775  0.4826
 5196SOL    HW127467   1.216   0.628   4.404 -0.0243 -1.9066  0.1840
 5196SOL    HW227468   1.307   0.596   4.520  1.1938  2.7091  0.5030
 5197SOL     OW27469   1.100   2.617   1.949  0.7855 -0.6774 -0.4023
 5197SOL    HW127470   1.074   2.532   1.916 -1.5574 -0.2598  0.3495
 5197SOL    HW227471   1.106   2.673   1.872  0.1354 -0.9411 -0.6353
 5198SOL     OW27472   0.943   3.259   3.815 -0.1247  0.0001 -0.2410
 5198SOL    HW127473   0.955   3.347   3.781  2.8308 -0.3984 -0.2009
 5198SOL    HW227474   0.892   3.214   3.748 -3.1813  2.2710  0.5658
 5199SOL     OW27475   0.937   2.405   1.293 -0.2014 -0.0028  0.5035
 5199SOL    HW127476   0.945   2.396   1.388  0.8127  1.4902  0.5596
 5199SOL    HW227477   1.027   2.398   1.260 -0.5084 -0.1497 -0.3111
 5200SOL     OW27478   1.989   4.570  15.888 -0.0159  0.0202  0.0746
 5200SOL    HW127479   1.933   4.507  15.935 -0.4713  0.2525 -0.1506
 5200SOL    HW227480   1.927   4.627  15.843  0.4616 -0.9279 -1.7581
 5201SOL     OW27481   1.650   1.622  16.302  0.7914  0.3964 -0.2118
 5201SOL    HW127482   1.639   1.712  16.332  2.7735  0.7984 -0.6622
 5201SOL    HW227483   1.600   1.617  16.221 -1.1145  0.4868  0.9775
 5202SOL     OW27484   2.599   4.383  20.337 -0.1517  0.5781  0.8775
 5202SOL    HW127485   2.611   4.341  20.422 -0.0145 -0.9100  0.1248
 5202SOL    HW227486   2.574   4.311  20.278 -1.2365  1.7630 -0.1120
 5203SOL     OW27487   1.926   4.091  20.307 -0.0428 -0.3202  0.2412
 5203SOL    HW127488   1.977   4.156  20.356 -1.6269  0.1247  1.2684
 5203SOL    HW227489   1.873   4.143  20.246  0.9760 -0.8046 -1.0812
 5204SOL     OW27490   0.564   1.070   3.332 -0.6010 -0.1759  0.2614
 5204SOL    HW127491   0.634   1.019   3.292 -0.0744  1.1927 -0.5440
 5204SOL    HW227492   0.523   1.116   3.259 -3.1934 -2.0136  0.5494
 5205SOL     OW27493   1.098   4.612  14.913  0.6640 -0.3403 -0.1238
 5205SOL    HW127494   1.105   4.527  14.870  1.1419  0.3593 -1.4407
 5205SOL    HW227495   1.151   4.670  14.858 -1.0670  1.1650 -0.1853
 5206SOL     OW27496   1.230   0.434  19.611 -0.7063  0.1210  0.6571
 5206SOL    HW127497   1.294   0.489  19.656  0.2307 -0.4878  0.0630
 5206SOL    HW227498   1.200   0.488  19.538 -1.3683  0.6603  1.3196
 5207SOL     OW27499   3.648   0.159   4.158 -0.0338 -0.0185 -0.0728
 5207SOL    HW127500   3.643   0.216   4.082  1.3901  0.7800  0.4308
 5207SOL    HW227501   3.575   0.186   4.214  0.3782  1.0078 -0.0377
 5208SOL     OW27502   2.934   4.693  21.150 -0.3137 -0.6160  0.7034
 5208SOL    HW127503   3.023   4.663  21.169 -0.3499 -1.0005  0.2630
 5208SOL    HW227504   2.902   4.632  21.083 -0.4804  0.2393  0.0048
 5209SOL     OW27505   2.111   0.919  15.545 -0.2182  0.1584  0.2437
 5209SOL    HW127506   2.123   0.999  15.494  1.3479  0.2724  0.8097
 5209SOL    HW227507   2.082   0.854  15.480  1.4043  0.4057 -0.7450
 5210SOL     OW27508   2.944   2.573  13.277 -0.0412  0.4096 -0.2680
 5210SOL    HW127509   2.998   2.519  13.220  1.4444  0.8347  0.7456
 5210SOL    HW227510   2.860   2.580  13.231  0.3630 -1.2424 -1.2505
 5211SOL     OW27511   3.423   1.360  18.508  0.0790  0.3191 -0.2011
 5211SOL    HW127512   3.378   1.423  18.564  0.6644  0.8415 -0.3192
 5211SOL    HW227513   3.355   1.300  18.479 -0.1991 -0.0427  1.2014
 5212SOL     OW27514   3.692   2.883   1.482  0.1800  0.0139 -0.4309
 5212SOL    HW127515   3.609   2.917   1.516 -0.4816 -0.7912 -1.2317
 5212SOL    HW227516   3.683   2.788   1.487  1.3800 -0.0739  0.2509
 5213SOL     OW27517   2.896   2.446   5.134 -0.7202  0.0720 -0.2334
 5213SOL    HW127518   2.866   2.384   5.068  1.0834  0.2294 -1.2126
 5213SOL    HW227519   2.943   2.513   5.084  0.1520  0.4989  1.1424
 5214SOL     OW27520   0.879   3.281   2.722 -0.7524  0.0682 -0.1539
 5214SOL    HW127521   0.851   3.355   2.776  2.1053  0.4570  0.7660
 5214SOL    HW227522   0.897   3.211   2.784 -0.4998 -0.4658 -0.8231
 5215SOL     OW27523   4.415   0.875  11.988  0.3105 -0.5420 -0.4702
 5215SOL    HW127524   4.440   0.798  12.039  0.1280 -0.4147 -0.1868
 5215SOL    HW227525   4.363   0.928  12.049 -0.2752 -0.5948 -0.9183
 5216SOL     OW27526   2.472   1.466  14.139 -0.0076 -0.2013 -0.7574
 5216SOL    HW127527   2.507   1.388  14.096 -0.1106 -0.7324  0.1081
 5216SOL    HW227528   2.543   1.497  14.195 -0.0928  0.1112 -0.8213
 5217SOL     OW27529   3.749   3.638  10.454  0.2115  0.2933  0.6380
 5217SOL    HW127530   3.689   3.683  10.396  0.7608 -0.5544 -0.5930
 5217SOL    HW227531   3.830   3.690  10.451  0.0153  0.6352  1.1860
 5218SOL     OW27532   0.344   4.432   5.150  0.0483  0.0550  0.5548
 5218SOL    HW127533   0.384   4.361   5.099  1.1658  1.0815  0.0087
 5218SOL    HW227534   0.314   4.495   5.085  1.1138  1.1797  1.1493
 5219SOL     OW27535   1.321   2.527   2.280 -0.1097 -0.3544  0.7019
 5219SOL    HW127536   1.256   2.480   2.228 -1.3742  0.2316  1.7503
 5219SOL    HW227537   1.404   2.483   2.259 -0.6896 -0.4916 -1.3559
 5220SOL     OW27538   2.748   0.470  20.626 -0.0965 -0.3899 -0.0447
 5220SOL    HW127539   2.714   0.546  20.578  3.0843  0.3931 -1.0038
 5220SOL    HW227540   2.799   0.422  20.561  2.3732 -0.4858  1.9925
 5221SOL     OW27541   4.649   0.557   4.982 -0.6328 -0.1119  0.5265
 5221SOL    HW127542   4.649   0.640   5.030 -0.9638 -2.0714  3.9103
 5221SOL    HW227543   4.582   0.568   4.915  1.0304  3.2654 -0.6089
 5222SOL     OW27544   0.408   4.003  18.200  0.0720  0.6596 -0.4278
 5222SOL    HW127545   0.350   3.929  18.217 -0.9692  1.2350 -1.4743
 5222SOL    HW227546   0.497   3.966  18.207 -0.4135 -0.2986  0.7771
 5223SOL     OW27547   4.490   3.183   0.931 -0.1832 -0.1272  0.1078
 5223SOL    HW127548   4.481   3.120   0.859 -0.3543  1.1748 -0.9974
 5223SOL    HW227549   4.411   3.170   0.984 -1.1290  0.4957 -1.1577
 5224SOL     OW27550   0.497   1.320   5.804  0.3520 -0.1308  0.1088
 5224SOL    HW127551   0.405   1.298   5.818  0.2567 -0.5070 -1.1506
 5224SOL    HW227552   0.510   1.401   5.854 -0.6827 -0.0182  0.1967
 5225SOL     OW27553   3.088   1.403  20.452  0.5015  0.3341  0.0586
 5225SOL    HW127554   3.089   1.495  20.477 -0.5966  0.4267 -0.2186
 5225SOL    HW227555   3.012   1.396  20.393  1.0689 -0.5694 -0.5493
 5226SOL     OW27556   2.057   4.178  16.760 -0.2964 -0.1806 -0.6271
 5226SOL    HW127557   2.147   4.166  16.792 -0.0848  0.5858 -0.9286
 5226SOL    HW227558   2.068   4.206  16.669 -0.7856  3.4634  0.4508
 5227SOL     OW27559   2.787   0.103   4.171  0.2518 -0.1018  0.1636
 5227SOL    HW127560   2.777   0.136   4.081 -1.4257 -0.3145  0.2767
 5227SOL    HW227561   2.835   0.173   4.216 -1.2707  1.1877 -0.2046
 5228SOL     OW27562   3.508   0.094   3.899 -0.5260  0.4997  0.2005
 5228SOL    HW127563   3.415   0.115   3.908  0.0755  3.3175 -0.3793
 5228SOL    HW227564   3.532   0.128   3.813  0.5879 -1.9250 -0.4623
 5229SOL     OW27565   4.007   0.437   2.416 -0.3057  0.3294  0.0049
 5229SOL    HW127566   3.965   0.494   2.352 -1.4591 -0.3400  0.1485
 5229SOL    HW227567   3.965   0.461   2.499 -0.3102 -0.2473  0.1684
 5230SOL     OW27568   1.296   1.518   7.023 -0.2976  0.3528  0.5479
 5230SOL    HW127569   1.391   1.511   7.019 -0.4733 -0.5576 -2.0562
 5230SOL    HW227570   1.266   1.427   7.019 -1.3762  0.7829 -0.9679
 5231SOL     OW27571   3.602   1.138   1.692  0.4592 -0.1422 -0.7701
 5231SOL    HW127572   3.575   1.202   1.757 -0.8813  0.1573 -1.6137
 5231SOL    HW227573   3.650   1.071   1.741  1.6658  1.3948  0.1270
 5232SOL     OW27574   2.755   1.818   2.115  0.2644  0.0401  0.5381
 5232SOL    HW127575   2.745   1.777   2.200 -0.3673  0.5099  0.6865
 5232SOL    HW227576   2.838   1.866   2.121 -0.1419  0.6630  1.1224
 5233SOL     OW27577   4.157   2.111  17.241  0.1714 -0.6858  0.3071
 5233SOL    HW127578   4.162   2.029  17.193  0.0122 -0.7085  0.3281
 5233SOL    HW227579   4.235   2.111  17.297  0.5136 -0.5125 -0.1792
 5234SOL     OW27580   4.746   1.080  19.607  0.2163  0.0784  0.0245
 5234SOL    HW127581   4.698   1.018  19.551  0.4428 -0.2259  0.1681
 5234SOL    HW227582   0.061   1.071  19.580 -0.0050  1.7847 -1.3203
 5235SOL     OW27583   0.017   4.377   3.283  0.1097 -0.6804  0.6811
 5235SOL    HW127584   0.056   4.374   3.370 -3.1170  0.5510  2.1862
 5235SOL    HW227585   4.765   4.468   3.273 -1.4288 -1.3101 -0.7710
 5236SOL     OW27586   1.778   0.565   0.809  0.3776  0.1745 -0.0516
 5236SOL    HW127587   1.832   0.617   0.750 -0.0186  0.3267 -0.2767
 5236SOL    HW227588   1.690   0.601   0.800  0.2989  0.1399  0.5597
 5237SOL     OW27589   4.369   0.494  18.106 -0.5825 -0.1076 -0.1577
 5237SOL    HW127590   4.350   0.487  18.013 -2.5656 -0.1996  0.2484
 5237SOL    HW227591   4.409   0.410  18.129 -1.4371 -0.6453 -0.6156
 5238SOL     OW27592   0.712   4.520  16.708  0.5086  0.3992  0.8871
 5238SOL    HW127593   0.724   4.456  16.777  1.2067  0.6498  0.9934
 5238SOL    HW227594   0.702   4.468  16.628 -4.2622 -0.0166  1.7653
 5239SOL     OW27595   4.151   2.260  14.779  0.3030 -0.1415  0.1120
 5239SOL    HW127596   4.172   2.292  14.867  0.4687 -1.8111  0.6836
 5239SOL    HW227597   4.083   2.194  14.794 -0.2660  0.1826 -1.0880
 5240SOL     OW27598   1.621   2.466   4.339 -0.2283  0.3889  0.2951
 5240SOL    HW127599   1.629   2.370   4.337 -3.2982  0.1360 -0.7303
 5240SOL    HW227600   1.628   2.488   4.432 -0.5334 -0.9356  0.6430
 5241SOL     OW27601   1.767   4.629  17.501  0.1191 -0.0154 -0.6277
 5241SOL    HW127602   1.855   4.652  17.471  0.2903 -1.6064 -1.3088
 5241SOL    HW227603   1.781   4.588  17.586  0.0120 -0.0564 -0.6307
 5242SOL     OW27604   2.929   2.505   5.548 -0.1553 -0.1165 -0.5029
 5242SOL    HW127605   2.870   2.574   5.520 -0.5066 -0.8853 -1.6593
 5242SOL    HW227606   2.873   2.429   5.564  0.2310 -0.1439  0.7277
 5243SOL     OW27607   2.589   4.702  18.311 -0.1042  0.3323  0.6114
 5243SOL    HW127608   2.555   4.716  18.400  0.2964  0.1562  0.7919
 5243SOL    HW227609   2.599   0.014  18.276 -0.2310  0.4046  0.7555
 5244SOL     OW27610   2.571   2.168   0.217  0.3514  0.0690  0.2971
 5244SOL    HW127611   2.613   2.082   0.212  2.9066  1.3674 -0.5809
 5244SOL    HW227612   2.501   2.165   0.152 -0.3628 -1.8090  1.1695
 5245SOL     OW27613   3.815   3.858  20.851  0.3535 -0.2772  0.4227
 5245SOL    HW127614   3.730   3.869  20.892  0.1971 -2.2141  0.6175
 5245SOL    HW227615   3.814   3.917  20.776 -0.7232  0.5485  1.1070
 5246SOL     OW27616   2.952   0.730  20.520 -0.0503  0.2447  0.0249
 5246SOL    HW127617   2.862   0.704  20.542  0.2168 -0.7010 -0.0110
 5246SOL    HW227618   2.949   0.826  20.517 -0.9602  0.2298  0.4516
 5247SOL     OW27619   3.756   0.111  12.255 -0.1680  0.7985 -0.1981
 5247SOL    HW127620   3.789   0.072  12.174  2.0044  2.3416 -0.0537
 5247SOL    HW227621   3.668   0.142  12.232 -0.9394 -1.9594 -0.9909
 5248SOL     OW27622   0.050   1.911  14.727  0.1372  0.1126 -0.3592
 5248SOL    HW127623   0.075   1.950  14.643 -1.3009  0.0809 -0.8153
 5248SOL    HW227624   0.108   1.836  14.738  0.2542  0.0573 -1.3780
 5249SOL     OW27625   0.431   4.636   6.382  0.0583 -0.8681 -0.2623
 5249SOL    HW127626   0.388   4.562   6.339 -1.0778  0.4321 -1.3994
 5249SOL    HW227627   0.451   4.605   6.470 -1.9767 -1.9440 -0.1769
 5250SOL     OW27628   2.038   4.319   4.416  0.0605 -0.2520  0.0661
 5250SOL    HW127629   1.943   4.317   4.410  0.0266 -0.5302  0.7217
 5250SOL    HW227630   2.061   4.410   4.398 -0.3667 -0.0524  0.5354
 5251SOL     OW27631   1.870   0.784  20.819 -0.1151 -0.1323  0.2933
 5251SOL    HW127632   1.888   0.866  20.772  0.5735 -0.6212 -0.2973
 5251SOL    HW227633   1.889   0.804  20.910 -0.1827  0.4360  0.1838
 5252SOL     OW27634   4.681   2.327  19.359  0.1424  0.2673 -0.5127
 5252SOL    HW127635   4.673   2.322  19.264  2.4865  0.1203 -0.7033
 5252SOL    HW227636   4.688   2.236  19.387 -0.3026  0.3225 -0.2308
 5253SOL     OW27637   2.601   0.048  18.670  0.9961  0.5926 -0.1229
 5253SOL    HW127638   2.556   0.133  18.663  1.7982  1.0170 -0.1037
 5253SOL    HW227639   2.689   0.065  18.638  0.7594 -0.5580 -1.3408
 5254SOL     OW27640   0.985   0.272  20.751 -0.2442 -0.0103  0.2488
 5254SOL    HW127641   1.079   0.257  20.761 -0.2397  0.5194  0.9999
 5254SOL    HW227642   0.953   0.194  20.706  0.4333 -0.5282  0.6602
 5255SOL     OW27643   4.090   2.218  17.846  0.2330 -0.2868  0.0719
 5255SOL    HW127644   4.053   2.306  17.839  0.1097 -0.2853  0.8246
 5255SOL    HW227645   4.109   2.194  17.755  1.7778  1.1796 -0.0198
 5256SOL     OW27646   4.439   3.028   5.248  0.4433 -0.1073  0.0578
 5256SOL    HW127647   4.386   2.974   5.190 -0.9650  0.2200  1.0450
 5256SOL    HW227648   4.488   3.086   5.188  0.0993 -0.7787 -0.8712
 5257SOL     OW27649   0.358   4.477  18.806 -0.0819 -0.2834  0.2366
 5257SOL    HW127650   0.336   4.424  18.729 -1.3010 -0.0995  0.4675
 5257SOL    HW227651   0.276   4.519  18.830  0.8500  1.5163  0.2154
 5258SOL     OW27652   4.547   1.348  19.918  0.4559 -0.6524 -0.1627
 5258SOL    HW127653   4.490   1.401  19.862 -1.4550 -1.6545  0.8362
 5258SOL    HW227654   4.635   1.372  19.891 -0.4502 -0.4179 -2.9770
 5259SOL     OW27655   3.950   2.634   1.810  0.4386  0.0679  0.0970
 5259SOL    HW127656   3.931   2.723   1.780  0.2346 -0.3005 -0.8841
 5259SOL    HW227657   3.873   2.583   1.784  0.0393 -0.1535  1.7168
 5260SOL     OW27658   0.386   2.738  20.439 -0.1576 -0.0423 -0.0601
 5260SOL    HW127659   0.341   2.765  20.519  0.6831  1.5294 -0.1018
 5260SOL    HW227660   0.432   2.658  20.463 -1.3106 -0.5278  0.5494
 5261SOL     OW27661   1.506   4.309   2.931 -0.2230 -0.1291  0.9907
 5261SOL    HW127662   1.564   4.269   2.866 -0.2956  0.0415  0.8210
 5261SOL    HW227663   1.542   4.396   2.946 -1.1784  0.4383 -0.0674
 5262SOL     OW27664   2.067   1.432  17.653  0.0018  0.7189  0.0945
 5262SOL    HW127665   2.004   1.466  17.716 -0.2976 -1.3382  0.9048
 5262SOL    HW227666   2.070   1.338  17.670  0.8261  0.3348 -2.1473
 5263SOL     OW27667   0.395   1.790   0.306 -0.1517 -0.0567 -0.5284
 5263SOL    HW127668   0.463   1.731   0.337  0.7500  1.2319 -0.0840
 5263SOL    HW227669   0.324   1.782   0.370 -0.3376 -1.2493 -0.8900
 5264SOL     OW27670   1.437   3.479   0.207 -0.1765 -0.1238 -0.1994
 5264SOL    HW127671   1.526   3.495   0.239 -0.7501  0.6376  1.0114
 5264SOL    HW227672   1.381   3.533   0.262 -1.2389  0.6859 -2.0390
 5265SOL     OW27673   0.423   2.138   1.024 -0.0285  0.2308  0.7879
 5265SOL    HW127674   0.492   2.081   1.056  1.1008  1.7003  0.9880
 5265SOL    HW227675   0.454   2.227   1.044 -0.0109  1.0869 -3.0093
 5266SOL     OW27676   0.654   3.237   4.644 -0.9400 -0.4157  0.0792
 5266SOL    HW127677   0.664   3.151   4.603 -0.0831 -0.7767  1.0485
 5266SOL    HW227678   0.684   3.299   4.577 -0.7320 -0.9255 -0.3033
 5267SOL     OW27679   1.351   1.665   4.381  0.9767 -0.0161  0.9589
 5267SOL    HW127680   1.444   1.647   4.370  0.5378 -1.3380 -0.5931
 5267SOL    HW227681   1.309   1.579   4.371 -0.7331  1.1653 -1.9709
 5268SOL     OW27682   0.586   0.010   1.881  0.3365  0.0039 -0.7905
 5268SOL    HW127683   0.515   4.726   1.859 -0.1485 -0.2720  1.5333
 5268SOL    HW227684   0.543   0.084   1.925  1.1667  1.0843 -1.7711
 5269SOL     OW27685   4.489   1.430  10.489 -0.4728 -0.3210 -0.5449
 5269SOL    HW127686   4.561   1.462  10.436 -2.5053  1.2962 -2.3295
 5269SOL    HW227687   4.463   1.348  10.447 -0.3711 -0.3629 -0.5260
 5270SOL     OW27688   0.323   0.078   6.239  0.5442 -0.0350 -0.2198
 5270SOL    HW127689   0.381   0.015   6.283 -1.2838 -0.9488  0.8994
 5270SOL    HW227690   0.240   0.068   6.284  0.1432  2.9142 -0.3500
 5271SOL     OW27691   0.510   3.865  20.534  0.4145  0.2241  0.1410
 5271SOL    HW127692   0.522   3.884  20.627 -2.0541 -1.0850  0.7235
 5271SOL    HW227693   0.479   3.947  20.496 -1.4821 -0.0828  1.0195
 5272SOL     OW27694   3.685   1.079   2.946 -0.0623  0.4382  0.1185
 5272SOL    HW127695   3.591   1.086   2.929  0.0855  1.1475 -0.3997
 5272SOL    HW227696   3.694   1.096   3.040 -0.3550  1.2532 -0.0017
 5273SOL     OW27697   0.365   0.408  20.650  0.0781  0.6027  0.6189
 5273SOL    HW127698   0.376   0.367  20.736 -2.3442 -2.5834 -0.5768
 5273SOL    HW227699   0.451   0.403  20.610 -0.2071 -3.3103  0.4920
 5274SOL     OW27700   0.374   0.533   9.596  0.4114 -0.0206  0.1161
 5274SOL    HW127701   0.280   0.545   9.610  0.2786 -1.3151  0.4109
 5274SOL    HW227702   0.405   0.617   9.564 -1.0870  0.0494 -1.1912
 5275SOL     OW27703   2.035   1.457  11.118  0.2950 -1.1079  0.0046
 5275SOL    HW127704   2.003   1.481  11.031  0.5225 -2.5821 -0.4847
 5275SOL    HW227705   2.091   1.380  11.103  2.3423  0.1518  1.1268
 5276SOL     OW27706   1.588   0.383   3.138 -0.5571 -0.7950 -0.0177
 5276SOL    HW127707   1.581   0.289   3.119 -3.5135 -0.3578 -1.0061
 5276SOL    HW227708   1.634   0.419   3.062  0.9147 -1.4989  0.5350
 5277SOL     OW27709   1.668   1.811   0.649 -0.0130 -0.2026  0.5296
 5277SOL    HW127710   1.573   1.822   0.649 -0.0226 -0.2583 -0.7526
 5277SOL    HW227711   1.682   1.727   0.604  0.7641  0.9066 -1.3005
 5278SOL     OW27712   3.239   0.169   3.935  0.3763 -0.3590 -0.5077
 5278SOL    HW127713   3.170   0.112   3.969  0.0756 -0.0453 -0.5965
 5278SOL    HW227714   3.197   0.220   3.866  0.0531  1.6084  1.1358
 5279SOL     OW27715   1.233   3.460   1.410 -0.4571 -0.0999  0.0281
 5279SOL    HW127716   1.241   3.480   1.317 -3.2699  0.5512 -0.0831
 5279SOL    HW227717   1.191   3.537   1.448  0.3637 -0.5108  1.7682
 5280SOL     OW27718   3.792   4.770  16.828  0.5541 -0.1699 -0.4442
 5280SOL    HW127719   3.705   4.764  16.866  0.1450 -1.0381 -1.4918
 5280SOL    HW227720   3.782   0.054  16.754  1.1708  0.9135  0.3626
 5281SOL     OW27721   2.897   1.399  17.416 -0.1397 -0.3690 -0.1129
 5281SOL    HW127722   2.873   1.310  17.443 -0.5474 -0.3742 -0.4909
 5281SOL    HW227723   2.985   1.390  17.381  0.2833 -0.4118  0.9594
 5282SOL     OW27724   4.605   1.133  12.307 -0.1001 -0.0204  0.3057
 5282SOL    HW127725   4.673   1.122  12.241  0.3389 -2.1546  1.1136
 5282SOL    HW227726   4.653   1.162  12.385 -0.3732  0.5700  0.2506
 5283SOL     OW27727   4.554   1.633   1.027 -0.0742  0.2645 -0.2993
 5283SOL    HW127728   4.600   1.681   1.097 -1.5965  0.4703  0.5659
 5283SOL    HW227729   4.529   1.701   0.964 -1.9009  0.5643  0.7426
 5284SOL     OW27730   3.982   1.035   2.021  0.0452 -0.0686 -0.1053
 5284SOL    HW127731   4.039   1.016   1.947 -1.0347 -1.4939 -0.5780
 5284SOL    HW227732   4.011   1.120   2.053  1.5140 -0.1582 -1.2141
 5285SOL     OW27733   3.211   0.509  17.720  0.2658 -0.2610  0.2546
 5285SOL    HW127734   3.188   0.420  17.692  0.0591 -0.0312 -0.3010
 5285SOL    HW227735   3.143   0.565  17.682  0.9291  0.2439 -0.1887
 5286SOL     OW27736   1.204   3.702  17.478 -0.0951 -0.3639 -0.4493
 5286SOL    HW127737   1.183   3.625  17.425  0.0836  0.3229 -1.5299
 5286SOL    HW227738   1.298   3.715  17.463 -0.2379  0.3742 -0.6824
 5287SOL     OW27739   1.363   3.029  17.868  0.2647 -0.0034 -0.1669
 5287SOL    HW127740   1.407   3.000  17.788 -1.0372 -3.8555  0.5070
 5287SOL    HW227741   1.426   3.088  17.910  1.4428  1.0292 -3.4050
 5288SOL     OW27742   3.129   0.848  16.931  0.5890 -0.8808 -0.1630
 5288SOL    HW127743   3.152   0.925  16.879  1.9259 -1.1463  0.0305
 5288SOL    HW227744   3.213   0.819  16.968  0.0497 -2.3275 -0.1027
 5289SOL     OW27745   3.691   4.590   4.567  0.1520 -0.6782  0.1083
 5289SOL    HW127746   3.610   4.540   4.576 -0.2215  0.0023  0.5323
 5289SOL    HW227747   3.676   4.669   4.618  1.1369 -0.6144  0.2975
 5290SOL     OW27748   0.020   4.291   4.106 -0.5645 -0.2648 -0.3048
 5290SOL    HW127749   0.013   4.385   4.124  1.1062 -0.4429  1.2473
 5290SOL    HW227750   4.706   4.259   4.116 -0.3529  0.3547  3.7262
 5291SOL     OW27751   3.625   3.918   2.156  0.1972  0.2989 -0.1706
 5291SOL    HW127752   3.639   3.838   2.207  0.8206  0.6650  0.2252
 5291SOL    HW227753   3.660   3.988   2.210  2.5922  0.4566 -1.9056
 5292SOL     OW27754   3.994   0.610  20.236 -0.3042  0.2354 -0.2314
 5292SOL    HW127755   4.064   0.643  20.292  0.0716 -0.0364 -0.5346
 5292SOL    HW227756   3.924   0.584  20.296 -0.6853  1.7899 -0.0127
 5293SOL     OW27757   2.586   1.621   4.067  0.0349 -0.2057  0.2722
 5293SOL    HW127758   2.509   1.669   4.038 -1.3817 -1.1686  2.4391
 5293SOL    HW227759   2.646   1.688   4.099 -0.0929  0.4942 -0.9463
 5294SOL     OW27760   0.399   2.446  12.094  0.4423  0.0790  0.3281
 5294SOL    HW127761   0.364   2.472  12.008 -0.1317 -1.8739 -0.0391
 5294SOL    HW227762   0.344   2.372  12.120  1.9793 -0.6567  1.4381
 5295SOL     OW27763   2.909   3.079  17.372  0.1253 -0.1320 -0.2344
 5295SOL    HW127764   2.996   3.039  17.366  1.0824  2.1549 -1.7767
 5295SOL    HW227765   2.858   3.036  17.303  0.5730 -0.1843 -0.5377
 5296SOL     OW27766   1.561   0.061   2.477  0.4721  0.0525  0.1229
 5296SOL    HW127767   1.648   0.032   2.452  0.8042 -0.7019  2.1162
 5296SOL    HW227768   1.560   0.053   2.573 -1.6055  0.5281  0.1444
 5297SOL     OW27769   2.018   4.195  20.554  0.9872 -0.1824  0.3321
 5297SOL    HW127770   2.062   4.141  20.619 -0.1965 -0.3177  1.0135
 5297SOL    HW227771   1.955   4.247  20.604  0.1560 -0.2052 -0.6826
 5298SOL     OW27772   1.825   2.478  16.928  0.1076  0.1126  0.3593
 5298SOL    HW127773   1.832   2.430  16.846  0.9277  0.1382  0.4201
 5298SOL    HW227774   1.803   2.567  16.902 -0.5539 -0.0931  0.2092
 5299SOL     OW27775   2.990   4.288  18.968 -0.3681 -0.3321  0.0354
 5299SOL    HW127776   3.083   4.308  18.980 -0.1598 -0.6754 -0.9748
 5299SOL    HW227777   2.946   4.371  18.985  0.0719 -0.3525  1.2486
 5300SOL     OW27778   4.341   1.024  17.620 -0.5480  0.1869  0.1360
 5300SOL    HW127779   4.378   1.095  17.672 -2.0022  1.7912 -1.0395
 5300SOL    HW227780   4.264   0.996  17.669  0.6392 -1.3289  1.1648
 5301SOL     OW27781   4.631   0.049   8.940 -0.0184  0.1463  0.0610
 5301SOL    HW127782   4.674   0.075   9.021 -0.0979 -1.4943  0.6161
 5301SOL    HW227783   4.626   4.730   8.944 -0.9327  0.1272 -1.4029
 5302SOL     OW27784   4.065   3.792   3.054  0.3236 -0.6645 -0.0665
 5302SOL    HW127785   3.983   3.842   3.064  1.3910  1.0989 -0.1386
 5302SOL    HW227786   4.065   3.730   3.127 -0.1636  0.6090  1.0129
 5303SOL     OW27787   2.591   4.348  15.739  0.0723 -0.0170 -0.1065
 5303SOL    HW127788   2.624   4.367  15.651 -0.6298  0.1009 -0.3434
 5303SOL    HW227789   2.531   4.420  15.758 -1.9473 -1.5669 -0.6685
 5304SOL     OW27790   3.725   0.381   2.089  0.0194 -0.2958  0.1862
 5304SOL    HW127791   3.722   0.370   1.994  0.9775  1.6260 -0.0859
 5304SOL    HW227792   3.653   0.329   2.123  0.1627 -1.6002 -1.5550
 5305SOL     OW27793   1.016   0.475  17.670  0.1807 -0.1799 -0.0012
 5305SOL    HW127794   1.109   0.487  17.648  0.8643 -3.6943  0.8646
 5305SOL    HW227795   0.975   0.451  17.586  0.2543  0.3046 -0.1760
 5306SOL     OW27796   2.744   3.824  20.372  0.6112 -0.0700 -0.1255
 5306SOL    HW127797   2.792   3.872  20.304 -1.0260  1.2934 -0.3164
 5306SOL    HW227798   2.663   3.873  20.383  0.1885 -1.1937  1.7104
 5307SOL     OW27799   1.038   2.449   6.731 -0.0741  0.3457  0.0181
 5307SOL    HW127800   0.971   2.504   6.690 -0.3620  0.9050  1.2163
 5307SOL    HW227801   0.992   2.407   6.804  0.2535 -1.1876 -0.6738
 5308SOL     OW27802   3.660   2.771  20.683 -0.4589  0.5604  0.1565
 5308SOL    HW127803   3.727   2.732  20.739 -0.6431  0.1838  0.1130
 5308SOL    HW227804   3.657   2.863  20.710  1.6155  1.0629 -1.3429
 5309SOL     OW27805   2.490   2.984   3.633  1.0219 -0.1837  0.3947
 5309SOL    HW127806   2.552   2.952   3.698  0.5821 -1.6230  0.1088
 5309SOL    HW227807   2.467   2.906   3.582  0.4735  0.7232 -0.7277
 5310SOL     OW27808   1.556   1.387   5.266  1.0765  0.0597 -0.3974
 5310SOL    HW127809   1.614   1.436   5.324  2.0654 -0.2527 -1.1251
 5310SOL    HW227810   1.608   1.370   5.188  0.3502 -1.1318 -0.6279
 5311SOL     OW27811   0.329   0.519  19.723  0.3107 -0.2112  0.0377
 5311SOL    HW127812   0.308   0.442  19.776  2.1257 -0.2241  0.7550
 5311SOL    HW227813   0.422   0.535  19.740  0.4785  0.8130 -1.8317
 5312SOL     OW27814   3.249   0.102   0.602  0.2436  0.3333 -0.5126
 5312SOL    HW127815   3.293   0.020   0.579  1.9810  0.9453  0.6386
 5312SOL    HW227816   3.187   0.117   0.530  0.9714 -1.2241 -1.4566
 5313SOL     OW27817   0.850   4.156   3.708  0.0798 -0.4324 -0.0457
 5313SOL    HW127818   0.937   4.184   3.738  0.0131 -1.5868  1.2178
 5313SOL    HW227819   0.796   4.156   3.787 -1.2607  1.0048 -0.9687
 5314SOL     OW27820   1.707   1.114  16.597 -0.3102 -0.2797  0.6748
 5314SOL    HW127821   1.727   1.021  16.608 -0.7643 -0.1548  2.5577
 5314SOL    HW227822   1.670   1.120  16.508 -0.0212 -1.8437  0.4474
 5315SOL     OW27823   4.374   1.896   8.911  0.1972 -0.0038 -0.1585
 5315SOL    HW127824   4.444   1.924   8.970  0.1855 -1.4423  0.5465
 5315SOL    HW227825   4.336   1.820   8.955 -0.6835 -0.2543 -1.3796
 5316SOL     OW27826   2.962   3.550  19.363  0.0472  0.1221 -0.0686
 5316SOL    HW127827   2.913   3.564  19.281  1.6933 -1.0631 -1.2500
 5316SOL    HW227828   3.046   3.594  19.348 -0.2191  1.1781  1.5466
 5317SOL     OW27829   3.164   0.638   3.179 -0.4886 -0.3432 -0.0470
 5317SOL    HW127830   3.157   0.733   3.168  1.4969 -0.2253 -0.2331
 5317SOL    HW227831   3.076   0.606   3.159 -1.4990  1.5753  1.2494
 5318SOL     OW27832   3.204   2.276  15.612 -0.3677 -0.0173  0.0142
 5318SOL    HW127833   3.216   2.311  15.700  0.4818  2.2410 -1.0038
 5318SOL    HW227834   3.293   2.260  15.580 -0.7015 -1.6252 -0.1165
 5319SOL     OW27835   2.784   2.344  11.465 -0.3968 -0.3830 -0.4031
 5319SOL    HW127836   2.826   2.260  11.444 -0.2884 -0.1320 -1.1953
 5319SOL    HW227837   2.758   2.379  11.380  2.2813  1.8171 -0.2881
 5320SOL     OW27838   0.491   0.256  13.787 -0.0844  0.1253  0.4034
 5320SOL    HW127839   0.450   0.278  13.871 -0.1759  1.4000  0.0302
 5320SOL    HW227840   0.580   0.231  13.810 -0.4431 -0.6014  1.0011
 5321SOL     OW27841   3.843   0.573  19.368  0.2381 -0.4592 -0.0193
 5321SOL    HW127842   3.781   0.518  19.321  0.4552 -0.1214 -0.7048
 5321SOL    HW227843   3.925   0.522  19.368  0.5011 -0.0391 -0.8527
 5322SOL     OW27844   4.561   1.239  21.141  0.1338 -0.1195 -0.5269
 5322SOL    HW127845   4.560   1.196   0.030 -0.1819 -0.2369 -0.5902
 5322SOL    HW227846   4.591   1.172  21.080 -1.6631 -0.6415 -0.8390
 5323SOL     OW27847   1.776   3.476  10.539 -0.2070 -0.6665 -0.0083
 5323SOL    HW127848   1.773   3.458  10.633 -0.1119  0.1433  0.1436
 5323SOL    HW227849   1.777   3.389  10.498  0.8157 -1.0067  0.7668
 5324SOL     OW27850   1.403   3.268   3.422  0.0790  0.0808  0.1833
 5324SOL    HW127851   1.347   3.202   3.464  0.1974  0.0697  0.3236
 5324SOL    HW227852   1.407   3.340   3.485  2.5082 -1.0918  1.3702
 5325SOL     OW27853   2.805   1.656   7.294  0.2449 -0.3930 -0.2680
 5325SOL    HW127854   2.892   1.684   7.265 -0.6573  2.2793 -0.4613
 5325SOL    HW227855   2.821   1.603   7.372  2.0465  0.1936 -0.2432
 5326SOL     OW27856   1.654   0.950   1.480 -0.0799  0.6554 -0.1062
 5326SOL    HW127857   1.604   0.881   1.524 -0.3307 -0.0655 -1.5344
 5326SOL    HW227858   1.599   1.028   1.487 -0.2126  0.4909  0.6834
 5327SOL     OW27859   3.574   2.532   4.064 -0.0638 -1.1268  0.0933
 5327SOL    HW127860   3.657   2.486   4.057  0.1438 -0.7832  0.2638
 5327SOL    HW227861   3.515   2.486   4.005  0.9396  0.1557 -1.8885
 5328SOL     OW27862   4.248   0.490  19.748 -0.4263  0.5526 -0.0873
 5328SOL    HW127863   4.173   0.531  19.790  1.1872  0.6874  2.6198
 5328SOL    HW227864   4.267   0.414  19.803  1.0419  0.1675 -1.1419
 5329SOL     OW27865   1.434   2.383   1.388  0.1771  0.0819 -0.3500
 5329SOL    HW127866   1.503   2.421   1.333  0.6761 -0.9359 -0.4285
 5329SOL    HW227867   1.476   2.308   1.431 -0.7827 -0.3329 -0.1329
 5330SOL     OW27868   4.186   2.195  15.790 -0.2049 -0.0452 -0.3911
 5330SOL    HW127869   4.149   2.223  15.706 -0.4953  0.4686 -0.0879
 5330SOL    HW227870   4.219   2.276  15.829 -0.7585 -0.1821  0.3421
 5331SOL     OW27871   3.066   1.679  20.496 -0.4035  0.0085 -0.2414
 5331SOL    HW127872   2.997   1.708  20.436 -0.9325 -0.6419  0.0464
 5331SOL    HW227873   3.067   1.746  20.564 -2.4949 -1.3145  1.0922
 5332SOL     OW27874   4.091   3.342  13.991  0.0032 -0.0331 -0.5004
 5332SOL    HW127875   4.163   3.398  14.019 -1.0849  0.9277  0.3652
 5332SOL    HW227876   4.050   3.313  14.072 -1.4781  0.5747 -1.0386
 5333SOL     OW27877   1.190   1.554  20.198  0.4439 -0.2093  0.5960
 5333SOL    HW127878   1.255   1.544  20.267  0.1011 -0.4858  0.8767
 5333SOL    HW227879   1.154   1.642  20.212 -0.3675 -0.6749  1.4027
 5334SOL     OW27880   1.903   0.906  18.248 -0.2375  0.3120  0.2748
 5334SOL    HW127881   1.904   0.971  18.319  3.0585 -1.2605  1.6454
 5334SOL    HW227882   1.969   0.936  18.186 -2.1620  0.9401 -1.4627
 5335SOL     OW27883   4.045   4.722   1.989 -0.2547  0.1570 -1.1741
 5335SOL    HW127884   4.049   4.674   2.072 -0.4341 -1.2517 -1.9821
 5335SOL    HW227885   3.952   4.737   1.975  0.0277  3.7858  0.8320
 5336SOL     OW27886   3.883   3.187  17.931  0.3074  0.7056 -0.2775
 5336SOL    HW127887   3.925   3.105  17.956  0.9013  1.5360  1.4242
 5336SOL    HW227888   3.954   3.252  17.934 -0.2480  1.3596 -1.2233
 5337SOL     OW27889   3.694   1.654  17.048  0.2389  0.6099 -0.2261
 5337SOL    HW127890   3.705   1.726  16.985  1.2340 -0.1464 -0.9259
 5337SOL    HW227891   3.716   1.693  17.132  2.0973  0.7812 -0.7867
 5338SOL     OW27892   3.920   0.239   3.184 -0.5369 -0.3658  0.0266
 5338SOL    HW127893   3.973   0.257   3.262  0.9664 -1.4064 -0.7384
 5338SOL    HW227894   3.859   0.312   3.179  1.2331  1.1642  0.5961
 5339SOL     OW27895   2.766   2.754   6.177  0.2038 -0.1959  0.3211
 5339SOL    HW127896   2.703   2.725   6.111 -1.7913  1.7989  1.3775
 5339SOL    HW227897   2.758   2.691   6.248  0.1407 -0.5208  0.0264
 5340SOL     OW27898   3.927   3.210  12.088 -0.3460  0.0028 -0.2762
 5340SOL    HW127899   4.016   3.222  12.055 -0.0122 -2.8434 -0.3905
 5340SOL    HW227900   3.937   3.195  12.182 -0.6749 -0.6618 -0.3441
 5341SOL     OW27901   1.408   0.402  16.912 -0.5262  0.1992  0.1993
 5341SOL    HW127902   1.439   0.371  16.826  0.4921  0.8860  0.3139
 5341SOL    HW227903   1.324   0.444  16.893  0.6031  2.0465 -0.7530
 5342SOL     OW27904   4.248   0.154  20.769 -0.1891  0.3815 -0.0256
 5342SOL    HW127905   4.238   0.152  20.674  0.8034  0.3277 -0.1276
 5342SOL    HW227906   4.343   0.160  20.784 -0.2205 -1.8570  0.9932
 5343SOL     OW27907   1.016   3.339   5.181 -0.3081  0.3387 -0.1966
 5343SOL    HW127908   1.043   3.419   5.226 -0.4865  0.5483 -0.4629
 5343SOL    HW227909   0.932   3.361   5.140 -0.7431 -0.2276  0.3873
 5344SOL     OW27910   0.429   4.071   2.659 -0.0996 -0.2375  0.5459
 5344SOL    HW127911   0.357   4.126   2.689 -0.4157 -1.0967  1.3494
 5344SOL    HW227912   0.451   4.106   2.572 -1.8390 -0.3101  0.0704
 5345SOL     OW27913   0.198   4.602  20.280  0.1380  0.1793  0.5432
 5345SOL    HW127914   0.167   4.511  20.286  0.4087 -0.0252 -1.1701
 5345SOL    HW227915   0.293   4.595  20.291  0.3151  0.1101 -1.0833
 5346SOL     OW27916   3.860   2.897   4.367 -0.3241  0.8502  0.3587
 5346SOL    HW127917   3.847   2.968   4.431 -1.3025  1.0883 -0.1084
 5346SOL    HW227918   3.955   2.887   4.363 -0.1787  2.1176  0.4524
 5347SOL     OW27919   2.439   0.389  10.334 -0.2845  0.1755 -0.3314
 5347SOL    HW127920   2.533   0.391  10.351 -0.0736 -0.3038 -1.4140
 5347SOL    HW227921   2.398   0.393  10.420  0.7130  2.0092  0.0524
 5348SOL     OW27922   1.282   0.497   1.693  0.2077  0.4523  0.1154
 5348SOL    HW127923   1.299   0.403   1.687 -1.7984  0.0784  0.3947
 5348SOL    HW227924   1.230   0.517   1.615 -1.5874  0.8570  1.4197
 5349SOL     OW27925   1.169   4.331   9.547 -0.1759  0.4234 -0.8195
 5349SOL    HW127926   1.191   4.270   9.476  1.0161  2.8932 -2.5509
 5349SOL    HW227927   1.168   4.417   9.505 -1.6728  1.6167  1.6936
 5350SOL     OW27928   0.997   3.657   2.120  0.2412 -0.2207 -0.4840
 5350SOL    HW127929   0.993   3.622   2.209 -2.3654 -0.4391 -0.7051
 5350SOL    HW227930   1.005   3.579   2.064 -0.3572 -0.1898 -0.6090
 5351SOL     OW27931   4.741   3.615   9.159 -0.5144  0.0116 -0.0709
 5351SOL    HW127932   4.714   3.706   9.146  2.8400  1.0116 -0.0726
 5351SOL    HW227933   4.690   3.586   9.235 -0.6848  2.2660  0.6697
 5352SOL     OW27934   2.824   2.393   4.518  0.7171 -0.0766 -0.4067
 5352SOL    HW127935   2.895   2.428   4.464  1.8997 -0.2418  1.0309
 5352SOL    HW227936   2.862   2.315   4.559 -0.9939 -1.4081 -1.3482
 5353SOL     OW27937   1.650   0.732   0.233 -0.7186 -0.1264 -0.2728
 5353SOL    HW127938   1.585   0.795   0.264  1.1325  0.5563  2.2241
 5353SOL    HW227939   1.730   0.783   0.222 -0.0311 -1.4063 -1.2391
 5354SOL     OW27940   2.300   1.962   4.166  0.8042  0.8319 -0.0112
 5354SOL    HW127941   2.345   2.041   4.198 -0.4540  1.0670  1.1378
 5354SOL    HW227942   2.229   1.996   4.111  1.1292  0.4676 -0.6644
 5355SOL     OW27943   2.698   0.594   3.017 -0.8364  0.1446  0.0765
 5355SOL    HW127944   2.636   0.663   2.994 -0.3317  0.4565 -0.3668
 5355SOL    HW227945   2.760   0.592   2.943  1.0705  1.4646  1.6494
 5356SOL     OW27946   3.193   1.662   0.820  0.9022  0.2401  0.1210
 5356SOL    HW127947   3.158   1.647   0.732 -0.0755  2.1240  0.1712
 5356SOL    HW227948   3.188   1.757   0.831  1.1753  0.0157  2.1546
 5357SOL     OW27949   4.512   1.036  14.759 -0.0078  0.0450 -0.2352
 5357SOL    HW127950   4.584   1.077  14.806  0.2493 -0.7890  0.0943
 5357SOL    HW227951   4.520   1.070  14.669  0.0433  0.9186  0.1000
 5358SOL     OW27952   2.162   0.369  11.738 -0.0252 -0.2768  0.1872
 5358SOL    HW127953   2.237   0.311  11.723  0.8627  0.7712  0.6140
 5358SOL    HW227954   2.200   0.454  11.757 -1.2957 -0.0834  1.8745
 5359SOL     OW27955   4.123   1.232  15.549 -0.1165  0.0144  0.4469
 5359SOL    HW127956   4.078   1.282  15.617 -0.5605  0.6894 -0.3408
 5359SOL    HW227957   4.053   1.206  15.489  0.4261  0.3073 -0.3032
 5360SOL     OW27958   3.813   2.960   7.921 -0.2430 -0.0438 -0.2734
 5360SOL    HW127959   3.766   2.891   7.968 -1.7444  2.2661  1.5911
 5360SOL    HW227960   3.768   2.967   7.837 -1.2696  0.0315  0.2926
 5361SOL     OW27961   2.571   0.725   2.580 -0.3044  0.4048 -0.1931
 5361SOL    HW127962   2.521   0.772   2.513  1.7299  1.0402 -1.2584
 5361SOL    HW227963   2.657   0.710   2.541  0.3394 -0.7536  1.6236
 5362SOL     OW27964   0.683   4.648   5.960 -0.5898  0.4748  0.4067
 5362SOL    HW127965   0.748   4.715   5.937  0.3025  0.1127  1.8740
 5362SOL    HW227966   0.622   4.692   6.018  1.4979 -0.7105  3.4961
 5363SOL     OW27967   3.010   2.630   6.045 -0.0751 -0.4964 -0.1383
 5363SOL    HW127968   2.956   2.702   6.078  0.5065  0.1644 -0.6011
 5363SOL    HW227969   2.949   2.574   5.997 -0.7901 -1.0872  1.4791
 5364SOL     OW27970   0.773   0.665  10.603 -0.3674 -0.2179  0.5475
 5364SOL    HW127971   0.813   0.747  10.575 -1.5148  0.7081  1.6364
 5364SOL    HW227972   0.831   0.597  10.568  2.6904  1.1575  2.9980
 5365SOL     OW27973   1.159   2.251  11.467  0.3665 -0.6261  0.1079
 5365SOL    HW127974   1.078   2.303  11.467  1.1936  0.6584 -0.1840
 5365SOL    HW227975   1.143   2.182  11.531 -0.9111 -0.2713  0.1658
 5366SOL     OW27976   3.428   1.365   7.377  0.0381 -0.0515 -0.2810
 5366SOL    HW127977   3.470   1.287   7.340 -0.7639 -1.6219  2.0781
 5366SOL    HW227978   3.355   1.330   7.430 -1.1142  2.3606 -0.2603
 5367SOL     OW27979   2.555   4.757   4.169  0.0243  0.0135  0.2854
 5367SOL    HW127980   2.553   4.722   4.258 -1.1440 -0.2643  0.1515
 5367SOL    HW227981   2.637   0.031   4.164 -0.1750  0.4601  1.6760
 5368SOL     OW27982   2.418   2.443  17.943 -0.0235  0.4094 -0.2654
 5368SOL    HW127983   2.513   2.449  17.950  0.0484 -0.7072 -0.2284
 5368SOL    HW227984   2.403   2.387  17.866 -0.6181 -1.5350  1.2578
 5369SOL     OW27985   3.664   0.137   8.995 -0.1748  0.8847  0.0827
 5369SOL    HW127986   3.625   0.218   9.026 -0.5304  1.3306 -1.5577
 5369SOL    HW227987   3.589   0.083   8.968  0.0588  0.0296  1.1155
 5370SOL     OW27988   1.795   2.061  13.866 -0.3139 -0.2945 -0.2245
 5370SOL    HW127989   1.712   2.108  13.854  0.2549  0.6344 -0.5817
 5370SOL    HW227990   1.816   2.073  13.958 -0.3296 -0.1026 -0.2445
 5371SOL     OW27991   2.899   1.071  19.891  0.1661  0.0659 -0.2421
 5371SOL    HW127992   2.994   1.084  19.897  0.1884 -0.0317 -0.3790
 5371SOL    HW227993   2.885   0.982  19.923 -0.0524  0.6429  1.2619
 5372SOL     OW27994   3.616   2.910  14.675 -0.2835 -0.2504  0.5270
 5372SOL    HW127995   3.577   2.835  14.718  1.4142 -0.5844  1.4919
 5372SOL    HW227996   3.704   2.880  14.650 -0.1130  0.9498 -0.3200
 5373SOL     OW27997   4.395   1.331   9.815 -0.5954  0.0751 -0.6027
 5373SOL    HW127998   4.475   1.289   9.848 -0.1341  2.1322  0.8847
 5373SOL    HW227999   4.330   1.318   9.884 -0.9051  0.3753 -0.8347
 5374SOL     OW28000   3.427   1.950  20.084  0.4356  0.3379  0.3146
 5374SOL    HW128001   3.393   1.870  20.126  1.9748 -0.8007 -0.6207
 5374SOL    HW228002   3.521   1.948  20.102  0.3909  2.2467  0.7800
 5375SOL     OW28003   4.376   1.070  19.631  0.2017  0.3260 -0.0988
 5375SOL    HW128004   4.389   1.102  19.542 -1.0237 -1.5507 -0.9460
 5375SOL    HW228005   4.451   1.013  19.647 -0.7499 -1.0871 -0.7138
 5376SOL     OW28006   3.265   0.407   2.573 -0.7064  0.2589 -0.6091
 5376SOL    HW128007   3.269   0.322   2.528 -1.0013  0.1228 -0.3805
 5376SOL    HW228008   3.353   0.442   2.564 -0.5227 -0.1710 -0.5269
 5377SOL     OW28009   0.759   1.008  15.381 -0.0430 -0.0247  0.3106
 5377SOL    HW128010   0.807   1.049  15.453 -0.2556  2.1477 -0.7856
 5377SOL    HW228011   0.771   1.068  15.307  0.1857 -2.2685 -1.4449
 5378SOL     OW28012   1.872   0.686  11.874  0.1572 -0.1204 -0.0536
 5378SOL    HW128013   1.848   0.717  11.787 -2.6778 -1.2061  0.3189
 5378SOL    HW228014   1.887   0.765  11.925  0.1844  0.5425 -1.1001
 5379SOL     OW28015   3.478   3.308   2.434  0.0744 -0.5013  0.5363
 5379SOL    HW128016   3.393   3.348   2.454  0.1942 -0.5040  1.0570
 5379SOL    HW228017   3.542   3.374   2.457  0.1226  0.1883 -1.6707
 5380SOL     OW28018   1.364   2.288  18.098  0.1641 -0.3788  0.3148
 5380SOL    HW128019   1.376   2.345  18.022 -1.5046  0.4375  0.6517
 5380SOL    HW228020   1.368   2.347  18.173 -0.7516 -0.8146  0.7102
 5381SOL     OW28021   4.578   1.883   7.854  0.5189  0.1473  0.2154
 5381SOL    HW128022   4.557   1.934   7.933  0.1475 -1.1410  0.9567
 5381SOL    HW228023   4.530   1.926   7.784  1.2030  1.5727  0.6331
 5382SOL     OW28024   1.850   0.661  15.650  0.2455 -0.0109 -0.4721
 5382SOL    HW128025   1.922   0.697  15.702 -0.9264 -1.4848  2.1912
 5382SOL    HW228026   1.829   0.731  15.588  3.1907  0.8714 -0.4658
 5383SOL     OW28027   0.743   0.641  11.841 -0.8949 -0.4507 -0.2557
 5383SOL    HW128028   0.660   0.599  11.865 -0.7698  0.5276  1.9321
 5383SOL    HW228029   0.722   0.734  11.837  0.4022 -0.0662  1.6265
 5384SOL     OW28030   2.535   0.653  10.988 -0.9937  0.2629  0.1971
 5384SOL    HW128031   2.594   0.579  11.003 -4.8767 -3.0949 -0.9104
 5384SOL    HW228032   2.517   0.687  11.075 -1.6954 -2.0750  0.9771
 5385SOL     OW28033   4.399   4.519  13.587  0.5188 -0.4223  0.0327
 5385SOL    HW128034   4.379   4.427  13.608  0.1111 -0.1942  0.6207
 5385SOL    HW228035   4.442   4.553  13.666  0.3152  0.0070 -0.0436
 5386SOL     OW28036   4.510   1.941   8.110  0.2891 -0.2702 -0.2279
 5386SOL    HW128037   4.496   1.871   8.175  1.1450 -1.9661 -1.8615
 5386SOL    HW228038   4.423   1.954   8.071 -0.0452  0.1305  0.6706
 5387SOL     OW28039   4.576   0.515   2.277 -0.2208 -0.1666 -0.0587
 5387SOL    HW128040   4.614   0.512   2.364 -1.8319  0.3098  0.6677
 5387SOL    HW228041   4.489   0.476   2.288 -0.5088  0.1070 -1.3933
 5388SOL     OW28042   1.709   1.138   5.409 -0.0847 -0.2839 -0.0097
 5388SOL    HW128043   1.637   1.197   5.431  0.7529  0.3463  1.0881
 5388SOL    HW228044   1.782   1.197   5.388 -0.1517 -0.9169 -1.9305
 5389SOL     OW28045   1.122   1.833  20.264  0.3946  0.2818  0.2576
 5389SOL    HW128046   1.103   1.842  20.171  1.1041 -2.5119 -0.1834
 5389SOL    HW228047   1.217   1.844  20.270  0.5777 -1.2928  0.4014
 5390SOL     OW28048   3.247   2.494   6.029  0.0941 -0.7373 -0.3579
 5390SOL    HW128049   3.263   2.520   5.938  2.4539  1.8795  0.8405
 5390SOL    HW228050   3.167   2.540   6.054 -0.6011 -1.5234 -1.1451
 5391SOL     OW28051   4.466   4.753  18.096 -0.0466  0.4964  0.2850
 5391SOL    HW128052   4.514   4.725  18.175  2.2491  0.7991 -1.0149
 5391SOL    HW228053   4.530   0.027  18.046 -1.7429  0.8932 -1.4520
 5392SOL     OW28054   4.499   3.640  17.845  0.2785  0.1140  0.6849
 5392SOL    HW128055   4.493   3.550  17.876  2.9620 -1.0468 -2.1604
 5392SOL    HW228056   4.438   3.644  17.772  1.9069 -0.0098 -0.6717
 5393SOL     OW28057   0.210   3.868   3.727 -0.6203 -0.6828  0.1437
 5393SOL    HW128058   0.229   3.857   3.634  1.8302  0.8306  0.4711
 5393SOL    HW228059   0.295   3.883   3.768 -1.7304 -0.9166  2.5814
 5394SOL     OW28060   1.636   4.686   2.127 -0.4537  0.3965  0.7406
 5394SOL    HW128061   1.546   4.655   2.123 -0.6571  0.9599  1.0987
 5394SOL    HW228062   1.681   4.623   2.183 -0.0263 -1.4061 -1.6195
 5395SOL     OW28063   1.401   3.892   2.334 -0.0921 -0.1960 -0.0443
 5395SOL    HW128064   1.423   3.833   2.406  0.3737  0.2714  0.1961
 5395SOL    HW228065   1.322   3.937   2.363  0.0170 -0.1089  0.1179
 5396SOL     OW28066   2.835   0.618   2.799 -0.2927  0.4102 -0.1424
 5396SOL    HW128067   2.911   0.580   2.755 -1.1227  0.3808 -1.5746
 5396SOL    HW228068   2.841   0.712   2.780  0.7564  0.7397  1.8497
 5397SOL     OW28069   3.297   1.623  15.849 -0.2181  0.0551  0.1812
 5397SOL    HW128070   3.271   1.692  15.911 -1.2191 -0.2187  0.0732
 5397SOL    HW228071   3.291   1.542  15.900 -0.8895 -0.1539 -0.2272
 5398SOL     OW28072   0.314   3.737  18.394 -0.0966 -0.2418  0.3386
 5398SOL    HW128073   0.274   3.718  18.309 -0.9971 -0.8154  0.8813
 5398SOL    HW228074   0.407   3.746  18.376 -0.4084  0.4965 -0.8484
 5399SOL     OW28075   3.842   1.579   6.015 -0.3560  0.5171  0.1272
 5399SOL    HW128076   3.768   1.535   6.056 -0.2776 -0.6148 -0.9340
 5399SOL    HW228077   3.893   1.508   5.974  0.2031  1.4969 -0.8957
 5400SOL     OW28078   1.893   0.007   4.727  0.4296  0.1420  0.1989
 5400SOL    HW128079   1.965   0.012   4.664 -0.6471 -1.5379 -1.1577
 5400SOL    HW228080   1.834   0.077   4.701  1.0397  0.8276  0.6533
 5401SOL     OW28081   1.849   4.505   1.512 -0.1382 -0.2124 -0.7085
 5401SOL    HW128082   1.855   4.410   1.499  1.5302 -0.1195 -0.5984
 5401SOL    HW228083   1.767   4.517   1.560 -0.3114 -1.6168 -0.6519
 5402SOL     OW28084   2.857   1.996  15.808 -0.2214  0.6884  1.0539
 5402SOL    HW128085   2.949   2.010  15.831  0.1639 -1.9699  1.1235
 5402SOL    HW228086   2.855   2.008  15.713  0.1177  1.1798  1.1073
 5403SOL     OW28087   1.086   2.912   9.364 -0.2359  0.0815  1.0916
 5403SOL    HW128088   1.162   2.899   9.307 -1.4621 -1.9354 -0.0762
 5403SOL    HW228089   1.062   3.004   9.351  1.3107  0.4092  0.5763
 5404SOL     OW28090   1.004   4.233   0.035 -0.0014  0.4772 -0.1400
 5404SOL    HW128091   1.089   4.264   0.064  1.1794 -2.7948 -0.1454
 5404SOL    HW228092   0.983   4.159   0.093 -2.6031  0.9809 -0.4160
 5405SOL     OW28093   1.435   4.151   4.901  0.2680 -0.2889 -0.1746
 5405SOL    HW128094   1.500   4.113   4.960  0.5979 -2.5908 -1.9938
 5405SOL    HW228095   1.394   4.075   4.859 -2.3705  1.2225 -0.3029
 5406SOL     OW28096   3.347   2.187   6.003 -0.4921 -0.0500  0.5556
 5406SOL    HW128097   3.339   2.275   6.039 -1.4621 -0.2800  0.9142
 5406SOL    HW228098   3.391   2.199   5.919  1.6702  0.5081  1.7576
 5407SOL     OW28099   3.788   3.043   5.012 -0.0922  0.3162  0.6292
 5407SOL    HW128100   3.717   3.050   4.948 -1.4548  2.7793  2.4020
 5407SOL    HW228101   3.839   3.123   4.999  2.7728 -1.7850 -1.1209
 5408SOL     OW28102   1.722   1.646  15.179 -0.0010 -0.0324 -0.7658
 5408SOL    HW128103   1.648   1.598  15.144  0.1911  0.3492 -1.6940
 5408SOL    HW228104   1.785   1.651  15.107  1.5332 -1.6125  0.4668
 5409SOL     OW28105   2.748   1.023   3.668 -0.1626 -0.6949 -0.1301
 5409SOL    HW128106   2.773   0.971   3.591  2.6174  0.5619 -0.0802
 5409SOL    HW228107   2.767   0.965   3.742  0.4536 -0.5967 -0.2103
 5410SOL     OW28108   4.746   0.023  20.388  0.2308 -0.5185 -0.3780
 5410SOL    HW128109   4.731   4.718  20.436  1.5533 -0.7644 -0.3952
 5410SOL    HW228110   0.057   0.014  20.351 -0.3791  0.1135 -1.9818
 5411SOL     OW28111   1.313   4.198   5.644  0.0173 -0.2869  0.0774
 5411SOL    HW128112   1.314   4.214   5.550 -0.4241 -0.3938  0.0553
 5411SOL    HW228113   1.394   4.239   5.676 -0.6598  1.1844 -0.1094
 5412SOL     OW28114   4.711   0.597  13.440  0.4988  0.4466  0.0105
 5412SOL    HW128115   4.713   0.505  13.467  0.0734  0.4638  0.1035
 5412SOL    HW228116   4.775   0.603  13.369  0.0437 -0.0637 -0.4380
 5413SOL     OW28117   4.281   1.685  20.775 -0.1476  0.0698 -0.1924
 5413SOL    HW128118   4.334   1.626  20.828 -0.6460  1.8404  2.2824
 5413SOL    HW228119   4.336   1.707  20.700  0.9861 -1.4792  0.1773
 5414SOL     OW28120   0.275   3.946  15.875 -0.1379  0.4686 -0.1034
 5414SOL    HW128121   0.215   3.965  15.804 -0.9214  3.0125  1.2417
 5414SOL    HW228122   0.221   3.950  15.954  1.4622  1.1206  0.9503
 5415SOL     OW28123   4.606   2.955  16.216  0.6562 -0.2187 -0.2776
 5415SOL    HW128124   4.608   2.859  16.216  1.3608 -0.2072  0.4765
 5415SOL    HW228125   4.566   2.978  16.300  0.3248  0.1468 -0.5347
 5416SOL     OW28126   3.756   0.653   1.513  0.4306  0.3762 -0.0808
 5416SOL    HW128127   3.677   0.618   1.555  0.5787  2.4158  1.8901
 5416SOL    HW228128   3.773   0.592   1.441 -2.0819 -0.9187  0.3946
 5417SOL     OW28129   3.701   3.731   8.991 -0.2224  0.2363  0.3978
 5417SOL    HW128130   3.774   3.786   9.020 -0.2714  0.4215  0.1701
 5417SOL    HW228131   3.625   3.765   9.037 -0.0041 -0.5397  1.3344
 5418SOL     OW28132   0.429   2.439  19.091 -0.5889 -0.4694 -0.1637
 5418SOL    HW128133   0.358   2.491  19.053 -1.4993  0.3193  2.6490
 5418SOL    HW228134   0.448   2.373  19.024 -2.1335  0.9783 -2.0569
 5419SOL     OW28135   0.009   3.483   0.395 -0.1642  0.5516  0.2142
 5419SOL    HW128136   4.763   3.570   0.360  0.8178  0.3203 -0.9709
 5419SOL    HW228137   0.104   3.477   0.384 -0.2698 -0.7605  0.0976
 5420SOL     OW28138   0.736   2.610  16.302  0.4714 -0.4278  0.0526
 5420SOL    HW128139   0.643   2.626  16.312  0.3801  1.7660 -3.9886
 5420SOL    HW228140   0.778   2.686  16.342  0.4550  0.1135 -0.9553
 5421SOL     OW28141   4.201   3.497   4.253  0.1420 -0.0170 -0.2302
 5421SOL    HW128142   4.249   3.526   4.175  3.4088 -0.1455  1.7544
 5421SOL    HW228143   4.248   3.419   4.283 -1.7600 -0.6080  1.2575
 5422SOL     OW28144   0.662   2.665  18.823 -0.5324 -0.2332 -0.7541
 5422SOL    HW128145   0.684   2.755  18.799 -1.7670  0.1145 -0.5873
 5422SOL    HW228146   0.618   2.629  18.745 -0.1621 -0.6393 -0.7736
 5423SOL     OW28147   1.633   3.529  15.799  0.3535  0.4231  0.1131
 5423SOL    HW128148   1.595   3.591  15.861 -1.8498 -1.6865  0.8508
 5423SOL    HW228149   1.661   3.584  15.726 -3.8521  1.9734 -0.3318
 5424SOL     OW28150   1.528   1.869   4.692 -0.2483 -0.0026 -0.2672
 5424SOL    HW128151   1.595   1.913   4.744 -1.8482  1.3429  0.6742
 5424SOL    HW228152   1.538   1.905   4.604 -1.4494  2.1161  0.4706
 5425SOL     OW28153   3.395   2.449   3.834 -0.0481 -0.3291  0.0255
 5425SOL    HW128154   3.311   2.463   3.876  0.2396 -0.2874  0.5813
 5425SOL    HW228155   3.388   2.496   3.751 -0.1149  0.7321  0.6339
 5426SOL     OW28156   3.035   2.592  10.006 -0.1062  0.9573  0.1447
 5426SOL    HW128157   2.968   2.591  10.073  0.5866  1.1374  0.8424
 5426SOL    HW228158   3.023   2.509   9.958 -0.1321  0.4976  0.9499
 5427SOL     OW28159   0.944   2.010   5.488 -0.1892  0.0366 -0.1455
 5427SOL    HW128160   0.978   1.926   5.519  0.0014  0.2601  0.2531
 5427SOL    HW228161   1.022   2.063   5.471 -0.3966  1.2499  2.7588
 5428SOL     OW28162   1.977   3.553  14.779  0.1821  0.1869  0.4984
 5428SOL    HW128163   1.895   3.527  14.822 -0.3654 -0.6222 -1.0109
 5428SOL    HW228164   2.037   3.571  14.851 -1.0363 -0.1629  1.6132
 5429SOL     OW28165   3.916   3.550   9.940  0.5852  0.5379  0.0304
 5429SOL    HW128166   3.991   3.557   9.999  1.0212  1.4748 -0.6317
 5429SOL    HW228167   3.851   3.610   9.976  0.5571  0.5284 -0.0042
 5430SOL     OW28168   1.344   3.560   0.727  0.0477  0.2591 -0.2514
 5430SOL    HW128169   1.432   3.562   0.690  0.1662 -0.5575 -0.0040
 5430SOL    HW228170   1.299   3.493   0.677 -1.4568  3.1016 -2.7276
 5431SOL     OW28171   0.247   0.025  18.026 -0.2913  0.3978  0.0932
 5431SOL    HW128172   0.178   4.736  18.023  0.3422 -0.3607  2.1157
 5431SOL    HW228173   0.275   0.028  18.118  1.9206  1.1373 -0.5817
 5432SOL     OW28174   4.061   3.306  15.956  0.1501  0.1928  0.2059
 5432SOL    HW128175   3.966   3.309  15.946 -0.0988 -0.8277  2.0898
 5432SOL    HW228176   4.077   3.351  16.039  1.2392 -0.4096  0.3205
 5433SOL     OW28177   1.568   1.320   3.092  0.2998  0.0930  0.2851
 5433SOL    HW128178   1.529   1.235   3.113  0.2753  0.2137  0.7150
 5433SOL    HW228179   1.499   1.384   3.111  0.4494  0.2438  0.3200
 5434SOL     OW28180   2.617   2.919  20.995 -0.4451  0.0653 -0.3292
 5434SOL    HW128181   2.642   2.893  21.084  0.3164 -1.5790 -1.0152
 5434SOL    HW228182   2.603   3.013  21.000  1.9891  0.3591  0.9856
 5435SOL     OW28183   2.552   2.272   2.097 -0.5115 -0.2980 -1.2039
 5435SOL    HW128184   2.497   2.222   2.157  0.5963 -0.0249  0.0498
 5435SOL    HW228185   2.555   2.360   2.136  2.1760 -0.7564 -0.3745
 5436SOL     OW28186   4.651   2.353  19.090  0.1521 -0.6017 -0.2649
 5436SOL    HW128187   4.625   2.426  19.035  2.2116  0.7015  0.4974
 5436SOL    HW228188   4.648   2.277  19.032  1.1236  0.5863 -1.8589
 5437SOL     OW28189   3.668   2.059  19.369  0.5981 -0.4929  0.2530
 5437SOL    HW128190   3.701   2.109  19.294 -1.8273 -1.6000 -1.5661
 5437SOL    HW228191   3.679   1.968  19.343 -2.1920 -0.8707  0.4049
 5438SOL     OW28192   2.299   1.922  14.915 -1.0647  0.3923  0.1707
 5438SOL    HW128193   2.323   1.830  14.913  1.0687  0.9471  0.5447
 5438SOL    HW228194   2.253   1.934  14.998 -1.4783 -0.3682  0.0461
 5439SOL     OW28195   1.315   3.592   8.249  0.4478  0.5071 -0.0840
 5439SOL    HW128196   1.306   3.662   8.313 -0.2385 -1.7922  2.3599
 5439SOL    HW228197   1.399   3.551   8.270  0.6163  0.2925 -1.1800
 5440SOL     OW28198   2.417   2.190  20.462 -0.3164  0.3110 -0.1016
 5440SOL    HW128199   2.329   2.225  20.452 -0.1121  0.8601  0.0244
 5440SOL    HW228200   2.405   2.108  20.511 -0.8803 -0.2502 -1.2028
 5441SOL     OW28201   2.126   2.394  20.751 -0.1770 -0.7141  0.0542
 5441SOL    HW128202   2.038   2.431  20.752  0.4375  0.7851 -0.4447
 5441SOL    HW228203   2.137   2.360  20.663  0.3709  0.6591 -0.4181
 5442SOL     OW28204   0.531   4.349   5.337 -0.3137 -0.1563  0.1909
 5442SOL    HW128205   0.478   4.369   5.261  1.6151 -0.3728 -1.2165
 5442SOL    HW228206   0.505   4.413   5.403 -0.0950  1.6863 -1.5289
 5443SOL     OW28207   4.396   2.221  15.345 -0.3709  0.0696 -0.2733
 5443SOL    HW128208   4.408   2.297  15.401 -2.9634  0.2948 -0.0532
 5443SOL    HW228209   4.441   2.244  15.263 -0.0947  1.3435  0.2398
 5444SOL     OW28210   4.720   0.813  19.911  0.3681  0.8628 -0.1312
 5444SOL    HW128211   4.674   0.859  19.840 -1.7436 -1.6700 -0.4034
 5444SOL    HW228212   4.747   0.730  19.873  2.0873  0.8778  1.0724
 5445SOL     OW28213   3.637   1.689   5.340 -0.2635 -0.3682  0.4525
 5445SOL    HW128214   3.582   1.716   5.413  0.1777  1.5603  0.0785
 5445SOL    HW228215   3.710   1.642   5.381  0.2915  1.2243  1.2806
 5446SOL     OW28216   4.504   0.300  13.089  0.3767  0.0475  0.3900
 5446SOL    HW128217   4.512   0.390  13.121  1.1364 -0.2423  1.0275
 5446SOL    HW228218   4.559   0.249  13.149  0.0450 -0.8171 -0.0507
 5447SOL     OW28219   4.228   0.546   6.220 -0.4133  0.1807 -0.0788
 5447SOL    HW128220   4.141   0.542   6.261 -0.0382  0.9026  0.7733
 5447SOL    HW228221   4.279   0.480   6.268 -0.1644  0.5647  0.1853
 5448SOL     OW28222   0.387   0.233   2.060 -0.1030  0.2486  0.4697
 5448SOL    HW128223   0.309   0.239   2.005  0.8236 -2.5324 -1.1395
 5448SOL    HW228224   0.456   0.276   2.009  0.5132 -1.4363 -0.1392
 5449SOL     OW28225   1.767   4.194  18.321 -0.0320  0.2688 -0.0613
 5449SOL    HW128226   1.802   4.133  18.385  1.5413 -0.8936 -2.0555
 5449SOL    HW228227   1.835   4.260  18.310  0.0730 -0.0425 -1.2547
 5450SOL     OW28228   4.748   4.377   2.412  0.2132  0.1440 -0.0173
 5450SOL    HW128229   0.014   4.292   2.425  0.2404  0.0043 -0.9531
 5450SOL    HW228230   0.014   4.436   2.474  1.4142 -0.1243 -0.5853
 5451SOL     OW28231   1.156   4.574   6.005 -0.2363 -0.1773  0.3169
 5451SOL    HW128232   1.135   4.481   5.992 -0.2960 -0.1116 -0.0573
 5451SOL    HW228233   1.125   4.594   6.093  0.2946 -0.6668  0.6152
 5452SOL     OW28234   3.688   2.241  19.833  0.1416  0.3265 -0.3856
 5452SOL    HW128235   3.731   2.157  19.816  0.4926  0.2928  0.6607
 5452SOL    HW228236   3.598   2.218  19.854  0.3769  0.1612  0.4647
 5453SOL     OW28237   2.995   0.083  10.179 -0.1428 -0.1148  0.2746
 5453SOL    HW128238   2.993   0.119  10.268 -3.7065 -2.7809  1.2788
 5453SOL    HW228239   3.055   0.008  10.186 -0.0984 -0.0727  0.3464
 5454SOL     OW28240   0.315   1.416  17.786 -0.2777 -0.0314  0.9011
 5454SOL    HW128241   0.399   1.437  17.827  1.4054 -1.8506 -1.6580
 5454SOL    HW228242   0.296   1.492  17.730  0.8893 -0.7581 -0.4822
 5455SOL     OW28243   3.513   4.322  19.324 -0.3282 -0.7887 -0.3832
 5455SOL    HW128244   3.434   4.368  19.296 -0.4046  0.1486  1.3219
 5455SOL    HW228245   3.484   4.263  19.394  0.2795 -1.2478 -0.5133
 5456SOL     OW28246   4.674   1.431  18.635  0.0799 -0.1950  0.2661
 5456SOL    HW128247   4.699   1.339  18.629 -0.7301 -0.3814 -0.3111
 5456SOL    HW228248   4.613   1.444  18.562  0.3066  0.8356  0.2546
 5457SOL     OW28249   1.205   3.609  17.760 -0.5341  0.1896  0.7847
 5457SOL    HW128250   1.211   3.525  17.714 -2.9476  0.3089  0.2837
 5457SOL    HW228251   1.216   3.675  17.691  0.6778  0.3012  1.0803
 5458SOL     OW28252   4.335   0.980   4.437 -0.0784 -0.2173  0.5147
 5458SOL    HW128253   4.272   0.991   4.508 -0.8152 -2.0222  0.1437
 5458SOL    HW228254   4.319   0.891   4.404  1.0564  0.1850 -1.1258
 5459SOL     OW28255   4.216   0.311  12.958 -0.3787 -0.6413  0.1188
 5459SOL    HW128256   4.310   0.324  12.967 -0.6292  2.2102 -1.5371
 5459SOL    HW228257   4.190   0.267  13.039  2.6178 -2.7068 -0.0537
 5460SOL     OW28258   3.512   2.902  13.649 -0.0348 -0.0388 -0.3497
 5460SOL    HW128259   3.558   2.837  13.703 -0.6935 -1.3811 -1.4016
 5460SOL    HW228260   3.480   2.967  13.712 -1.2879 -1.8817  0.9446
 5461SOL     OW28261   1.726   2.189   6.996 -0.7432  0.5423  0.5344
 5461SOL    HW128262   1.708   2.269   6.946 -1.4420 -0.1388 -0.2897
 5461SOL    HW228263   1.647   2.136   6.986 -1.0331  0.5716  2.6571
 5462SOL     OW28264   1.364   2.311   0.610 -0.3453  0.3940 -0.2783
 5462SOL    HW128265   1.315   2.229   0.603  0.8686 -0.3969  0.5000
 5462SOL    HW228266   1.308   2.376   0.567 -1.1011 -0.9285 -1.2869
 5463SOL     OW28267   3.765   0.006   6.219 -0.0672  1.0253 -0.2014
 5463SOL    HW128268   3.734   0.004   6.310 -0.9038  0.2878 -0.5049
 5463SOL    HW228269   3.730   0.087   6.184 -4.1130 -1.2454 -1.4173
 5464SOL     OW28270   3.319   3.312   7.982  0.0456 -0.1025 -0.3923
 5464SOL    HW128271   3.295   3.306   7.890  0.3351 -1.1032 -0.4080
 5464SOL    HW228272   3.403   3.266   7.988 -0.7695 -1.4471  0.6620
 5465SOL     OW28273   0.671   4.202   2.723  0.2477  0.0753  0.1924
 5465SOL    HW128274   0.597   4.142   2.726  1.2727 -1.1174  2.1907
 5465SOL    HW228275   0.712   4.194   2.810  2.9732  0.3638 -1.0614
 5466SOL     OW28276   3.101   2.672   2.084 -0.0300 -0.0597  0.6862
 5466SOL    HW128277   3.075   2.587   2.119  1.0925 -0.4347  0.6160
 5466SOL    HW228278   3.087   2.665   1.989  0.3660 -0.2810  0.6423
 5467SOL     OW28279   1.618   1.514  14.067 -0.3005  0.2764  0.3595
 5467SOL    HW128280   1.707   1.504  14.035  0.0923  0.2231  1.4786
 5467SOL    HW228281   1.574   1.568  14.000  1.1242  2.0400  0.8483
 5468SOL     OW28282   4.770   4.604  18.285  0.3201  0.3401  0.1632
 5468SOL    HW128283   0.079   4.635  18.316  0.8746 -0.5234 -0.4786
 5468SOL    HW228284   4.776   4.611  18.189 -0.5828  0.9440  0.1537
 5469SOL     OW28285   0.680   3.537   1.879 -0.4829 -0.6187  0.1838
 5469SOL    HW128286   0.646   3.522   1.967  0.1971 -0.4838  0.4680
 5469SOL    HW228287   0.636   3.471   1.825 -0.8984 -0.7020  0.6235
 5470SOL     OW28288   1.714   1.702   0.117 -0.2251  0.0403  0.2115
 5470SOL    HW128289   1.652   1.660   0.058 -0.3318 -1.0768  1.1099
 5470SOL    HW228290   1.784   1.734   0.060  0.1581 -1.8905 -0.4113
 5471SOL     OW28291   2.741   1.733  20.942 -0.3607  0.3070 -0.4295
 5471SOL    HW128292   2.828   1.695  20.950 -0.9088 -1.1008 -1.1490
 5471SOL    HW228293   2.719   1.763  21.030  1.3998  1.8833 -0.5188
 5472SOL     OW28294   0.478   0.652   5.093  0.4886  0.4151 -0.1562
 5472SOL    HW128295   0.550   0.592   5.077 -2.3661 -2.4171 -2.2869
 5472SOL    HW228296   0.481   0.714   5.020 -2.6953 -3.0293 -3.1992
 5473SOL     OW28297   4.543   0.600   5.586 -0.6383 -0.3136 -0.4728
 5473SOL    HW128298   4.610   0.542   5.623 -0.2481 -0.0244 -0.7245
 5473SOL    HW228299   4.532   0.570   5.496  0.2159  0.5836 -0.8729
 5474SOL     OW28300   0.665   1.322   3.137  0.3857  0.1689  0.5232
 5474SOL    HW128301   0.706   1.347   3.054  0.9448 -0.2998  0.6640
 5474SOL    HW228302   0.656   1.405   3.184  0.6121  0.3531  0.2437
 5475SOL     OW28303   4.178   0.662   1.747  0.0518  0.2387 -0.0279
 5475SOL    HW128304   4.267   0.687   1.719  0.4585  0.7681  1.7297
 5475SOL    HW228305   4.184   0.658   1.842 -1.2129 -2.0586 -0.0458
 5476SOL     OW28306   2.872   3.942  16.182 -0.4171 -0.4069  0.4632
 5476SOL    HW128307   2.871   4.030  16.220 -0.9635 -0.3232  0.2575
 5476SOL    HW228308   2.919   3.889  16.246  1.4014  0.3983 -0.2158
 5477SOL     OW28309   0.731   3.334   1.622  0.1659  0.3367 -0.3077
 5477SOL    HW128310   0.751   3.300   1.709 -0.1855 -0.8254 -0.6675
 5477SOL    HW228311   0.635   3.339   1.620  0.0697 -1.5951 -1.3378
 5478SOL     OW28312   1.529   3.576   5.535  0.2292 -0.0514  0.2124
 5478SOL    HW128313   1.519   3.659   5.580 -1.0163 -0.3602  0.5071
 5478SOL    HW228314   1.482   3.513   5.589 -0.6707 -0.5480 -1.1201
 5479SOL     OW28315   2.493   2.204   1.531 -0.2112  0.6163  0.0783
 5479SOL    HW128316   2.530   2.291   1.550 -1.6091  1.3414 -0.4972
 5479SOL    HW228317   2.449   2.178   1.612  1.0480  0.0245  0.5648
 5480SOL     OW28318   2.869   2.821  16.512  0.1490  0.1550 -0.6911
 5480SOL    HW128319   2.898   2.733  16.533 -0.6246 -0.2976 -1.5080
 5480SOL    HW228320   2.799   2.839  16.575  1.7109  0.9589  0.7904
 5481SOL     OW28321   3.785   4.462  17.286  0.0659 -0.5110  0.0131
 5481SOL    HW128322   3.874   4.463  17.322  0.4945 -1.2770 -1.0557
 5481SOL    HW228323   3.734   4.514  17.349  1.4581  0.7289  0.1314
 5482SOL     OW28324   0.156   0.772  18.490 -0.0332 -0.4504 -0.6265
 5482SOL    HW128325   0.079   0.814  18.452  0.2663  0.5111 -0.1825
 5482SOL    HW228326   0.128   0.743  18.576 -0.9112 -3.2491 -1.8475
 5483SOL     OW28327   3.271   1.701   6.258 -0.2583  0.6033  0.6356
 5483SOL    HW128328   3.344   1.658   6.304 -0.0682 -0.6034 -0.8045
 5483SOL    HW228329   3.256   1.782   6.308  0.0476 -0.6303  2.7461
 5484SOL     OW28330   1.627   4.711  10.835  0.0042 -0.0855 -0.3222
 5484SOL    HW128331   1.715   4.704  10.872  0.7369  0.9240 -1.8438
 5484SOL    HW228332   1.587   4.626  10.852  1.4979 -0.7626 -0.1535
 5485SOL     OW28333   0.589   3.428  15.828 -0.4590 -0.1069  0.6801
 5485SOL    HW128334   0.511   3.463  15.785  0.5316  0.4246 -0.6784
 5485SOL    HW228335   0.652   3.417  15.758  1.2905  1.1206  2.0522
 5486SOL     OW28336   0.178   4.401   8.075  0.4244 -0.1610 -0.8774
 5486SOL    HW128337   0.233   4.478   8.085  0.8250 -0.5259 -0.2932
 5486SOL    HW228338   0.119   4.423   8.003 -1.0609  1.6454  0.8806
 5487SOL     OW28339   2.585   1.769   4.508  0.2683 -0.7210  0.3444
 5487SOL    HW128340   2.519   1.800   4.445 -0.8335 -1.7627  0.9837
 5487SOL    HW228341   2.563   1.815   4.589 -0.2242 -1.7509  0.7964
 5488SOL     OW28342   1.345   4.319   4.668 -0.4504 -0.0804  0.2150
 5488SOL    HW128343   1.407   4.276   4.728 -2.8373 -2.6725  0.7750
 5488SOL    HW228344   1.401   4.372   4.611  2.1923 -1.1720  1.7769
 5489SOL     OW28345   1.196   2.914  18.119  0.2700  0.8612  0.1852
 5489SOL    HW128346   1.142   2.851  18.166  0.4027  1.0256  0.5581
 5489SOL    HW228347   1.162   2.999  18.147  0.9680  0.9644  0.6885
 5490SOL     OW28348   2.793   0.438  18.464 -0.8866  0.2806  0.2088
 5490SOL    HW128349   2.859   0.396  18.410 -0.9358 -1.0862  1.1923
 5490SOL    HW228350   2.820   0.529  18.470  0.4135 -0.0892 -0.1461
 5491SOL     OW28351   0.551   4.056   0.408 -0.1497  0.6651  0.3738
 5491SOL    HW128352   0.459   4.081   0.410  0.1879  1.9227  0.7103
 5491SOL    HW228353   0.590   4.103   0.483  0.8313  0.4762 -0.0128
 5492SOL     OW28354   1.658   3.681  18.159 -0.4334 -0.0682  0.0867
 5492SOL    HW128355   1.703   3.646  18.082 -0.8432  0.7820 -0.5557
 5492SOL    HW228356   1.648   3.607  18.218  1.0730 -0.4301 -0.1228
 5493SOL     OW28357   1.185   3.359   9.279  0.0071  0.2135  0.3626
 5493SOL    HW128358   1.138   3.365   9.362 -0.3610  1.9080  0.0269
 5493SOL    HW228359   1.174   3.445   9.239  1.4061 -0.1439 -0.7840
 5494SOL     OW28360   1.911   4.175  15.261  0.1344  0.0295 -0.0687
 5494SOL    HW128361   2.000   4.181  15.226 -0.2427  1.2517 -0.8139
 5494SOL    HW228362   1.895   4.259  15.303  0.0167 -0.8829  1.7047
 5495SOL     OW28363   1.076   0.211   3.787  0.3399  0.7684 -0.1645
 5495SOL    HW128364   1.162   0.170   3.799 -0.9751 -1.8294  0.3778
 5495SOL    HW228365   1.062   0.210   3.693 -0.3670 -1.4159 -0.0358
 5496SOL     OW28366   2.499   3.246   4.147 -0.3074  0.0982  0.2361
 5496SOL    HW128367   2.489   3.310   4.218 -0.7665  0.6275 -0.2997
 5496SOL    HW228368   2.485   3.297   4.067 -0.7737 -0.6978 -0.1919
 5497SOL     OW28369   0.495   3.845   0.140 -0.1080 -0.7949 -0.2485
 5497SOL    HW128370   0.583   3.817   0.115 -0.2525  0.9715 -2.7141
 5497SOL    HW228371   0.504   3.877   0.230  2.2999  2.0933 -1.5529
 5498SOL     OW28372   0.180   0.305  20.302  0.3373 -0.1942 -0.2491
 5498SOL    HW128373   0.259   0.280  20.350  1.8251 -0.5190 -2.8609
 5498SOL    HW228374   0.198   0.280  20.211 -2.3157  0.7621 -1.0443
 5499SOL     OW28375   1.449   1.742  19.704 -0.2354 -0.6723  0.2058
 5499SOL    HW128376   1.397   1.822  19.703 -0.8066 -1.0564 -0.3897
 5499SOL    HW228377   1.433   1.701  19.619  0.4427 -1.1673  0.3168
 5500SOL     OW28378   0.131   3.090   3.889 -0.1995 -0.6647  0.0505
 5500SOL    HW128379   0.077   3.013   3.908  0.0831 -0.4098  1.9699
 5500SOL    HW228380   0.149   3.128   3.976  0.5332  0.9574 -0.8118
 5501SOL     OW28381   0.350   2.549   1.303  0.0445  0.3267 -0.0508
 5501SOL    HW128382   0.301   2.519   1.379  1.8584 -1.1873  0.5032
 5501SOL    HW228383   0.407   2.618   1.337 -0.9890  1.4266 -0.5228
 5502SOL     OW28384   0.187   0.484  18.701 -0.4458 -0.0013  0.3234
 5502SOL    HW128385   0.243   0.496  18.624  0.0057  1.6957  0.9193
 5502SOL    HW228386   0.182   0.389  18.712  0.9077 -0.2013 -0.7644
 5503SOL     OW28387   3.633   3.566  11.429 -0.6176  0.1821  0.3169
 5503SOL    HW128388   3.669   3.652  11.407 -1.9336  0.8928  0.9347
 5503SOL    HW228389   3.696   3.528  11.490  0.0932  0.6190 -0.1576
 5504SOL     OW28390   0.688   2.329   5.680  0.5355  0.0940 -0.1689
 5504SOL    HW128391   0.750   2.373   5.738  1.7099  0.1474 -1.4494
 5504SOL    HW228392   0.723   2.346   5.592 -2.3160  1.6863 -0.9868
 5505SOL     OW28393   1.308   1.104  17.728  0.3425  0.7369  0.0590
 5505SOL    HW128394   1.399   1.074  17.723  0.7587  1.9145  0.5602
 5505SOL    HW228395   1.262   1.052  17.662  1.6881  1.2707 -1.3080
 5506SOL     OW28396   1.340   4.686   8.234  0.0298  0.0693 -0.5589
 5506SOL    HW128397   1.261   4.739   8.231 -0.2683 -0.3371  0.0924
 5506SOL    HW228398   1.408   4.747   8.263 -0.1640  0.2796 -0.5470
 5507SOL     OW28399   2.059   3.683   9.882  0.3586  0.1142  0.2720
 5507SOL    HW128400   1.971   3.678   9.918 -0.0835  1.0294 -0.6711
 5507SOL    HW228401   2.094   3.594   9.890 -0.7454 -0.3032  0.3779
 5508SOL     OW28402   3.991   4.243  12.898  0.9150 -0.7298  0.1307
 5508SOL    HW128403   3.993   4.192  12.978 -0.2810  0.1833  0.7368
 5508SOL    HW228404   3.953   4.184  12.833  0.2948 -0.8898  0.6398
 5509SOL     OW28405   2.863   3.026   4.197  0.1947  0.2959  0.2922
 5509SOL    HW128406   2.815   3.074   4.129  0.4132 -1.7022 -1.2809
 5509SOL    HW228407   2.805   3.029   4.273 -1.1471  0.4247 -0.7186
 5510SOL     OW28408   0.465   1.571  10.081 -0.3220 -0.1500  0.2449
 5510SOL    HW128409   0.438   1.622  10.157 -0.8334 -0.1175  0.0416
 5510SOL    HW228410   0.498   1.637  10.019 -3.3711  0.1791 -1.0289
 5511SOL     OW28411   3.579   0.462  19.297  0.2682 -0.1378  0.4152
 5511SOL    HW128412   3.527   0.411  19.359 -0.9110 -0.8152 -1.1465
 5511SOL    HW228413   3.580   0.410  19.217 -1.0507  2.3578 -1.2207
 5512SOL     OW28414   1.899   3.937  14.278  0.5163  0.2493  0.6372
 5512SOL    HW128415   1.846   3.898  14.208  1.5159 -0.3493  0.2179
 5512SOL    HW228416   1.952   4.003  14.234  0.1418  0.8273  1.0549
 5513SOL     OW28417   3.335   2.960   2.053 -0.4950 -0.4661 -0.1812
 5513SOL    HW128418   3.346   2.870   2.085 -0.7470 -0.1824  0.6862
 5513SOL    HW228419   3.348   3.015   2.130 -1.0653  0.2159 -0.5730
 5514SOL     OW28420   3.340   3.122  19.669  0.1583  0.3496  0.2498
 5514SOL    HW128421   3.385   3.074  19.599  2.0528  1.9377  0.3817
 5514SOL    HW228422   3.255   3.146  19.631  0.3131 -0.7177 -0.7633
 5515SOL     OW28423   1.569   3.244   0.950 -0.0916 -0.0750 -0.1230
 5515SOL    HW128424   1.644   3.301   0.965 -1.4062  1.8517 -0.8611
 5515SOL    HW228425   1.529   3.233   1.036 -0.3171  0.8124 -0.1100
 5516SOL     OW28426   1.077   4.046   4.796 -0.9597  0.2459  0.0257
 5516SOL    HW128427   1.092   3.979   4.862  0.0877 -0.3140 -0.7837
 5516SOL    HW228428   1.145   4.031   4.730 -2.0326  0.7740 -1.2009
 5517SOL     OW28429   1.751   2.065   6.661 -0.3130 -0.1819  0.0538
 5517SOL    HW128430   1.720   2.154   6.646  1.8182  0.1824 -2.1987
 5517SOL    HW228431   1.845   2.075   6.677 -0.0410 -2.0523 -0.4059
 5518SOL     OW28432   3.985   0.909  11.067  0.1907 -0.4066  0.1111
 5518SOL    HW128433   4.072   0.903  11.027  0.1295 -0.0265 -0.0734
 5518SOL    HW228434   3.995   0.974  11.137 -0.1178  0.1130 -0.3393
 5519SOL     OW28435   0.598   2.652   4.178 -0.3859  0.1920  0.1876
 5519SOL    HW128436   0.534   2.664   4.108  0.7574 -2.7757 -1.3929
 5519SOL    HW228437   0.674   2.702   4.150  0.0513 -0.9507 -0.6363
 5520SOL     OW28438   1.011   1.778  18.304 -0.0398 -0.4367 -0.4224
 5520SOL    HW128439   1.066   1.839  18.354 -0.6779  1.3022 -1.8333
 5520SOL    HW228440   1.037   1.791  18.213 -2.5501  0.1470 -1.0640
 5521SOL     OW28441   3.346   1.173   0.719 -0.1335  0.5825  0.6220
 5521SOL    HW128442   3.365   1.134   0.804 -1.8835 -0.6714  0.4441
 5521SOL    HW228443   3.254   1.152   0.703  0.0325  1.3133 -1.3091
 5522SOL     OW28444   3.497   0.164  12.182  0.0304 -0.6484  0.2537
 5522SOL    HW128445   3.464   0.235  12.128  0.5905 -1.7572 -1.5794
 5522SOL    HW228446   3.421   0.134  12.232 -0.3871  0.7055  0.4169
 5523SOL     OW28447   3.398   4.020   0.217 -0.1816 -0.0335 -0.0914
 5523SOL    HW128448   3.445   4.089   0.170  0.5848 -0.5782 -0.1356
 5523SOL    HW228449   3.371   3.959   0.148  0.0464 -0.3075  0.0624
 5524SOL     OW28450   2.437   1.653  16.167 -0.1163 -0.1811  0.0696
 5524SOL    HW128451   2.430   1.576  16.110 -0.0324 -0.5784  0.5987
 5524SOL    HW228452   2.506   1.631  16.229  0.5880  0.7240 -0.4040
 5525SOL     OW28453   2.661   3.407  14.716 -0.1945 -0.0927 -0.0907
 5525SOL    HW128454   2.724   3.406  14.788  0.5181  0.2573 -0.7176
 5525SOL    HW228455   2.638   3.314  14.704 -0.7196 -0.1019  0.9414
 5526SOL     OW28456   2.335   4.479  13.649  0.6156 -0.1958  0.1019
 5526SOL    HW128457   2.258   4.453  13.598  0.1110 -0.4714  0.9928
 5526SOL    HW228458   2.385   4.399  13.659  1.2795  0.0917 -0.9197
 5527SOL     OW28459   3.282   1.297  18.846  0.2985  0.0673 -0.0549
 5527SOL    HW128460   3.248   1.242  18.916 -1.0235 -1.0596 -1.5743
 5527SOL    HW228461   3.205   1.341  18.810  0.7970 -0.3385 -1.6332
 5528SOL     OW28462   0.987   3.726   4.470  0.1956  0.3974  0.4403
 5528SOL    HW128463   0.910   3.763   4.429 -2.4880 -1.4702  3.7548
 5528SOL    HW228464   0.997   3.640   4.429  0.5029  0.6341  0.0202
 5529SOL     OW28465   2.058   3.628   2.227  0.2443  0.4492  0.2843
 5529SOL    HW128466   1.996   3.671   2.286 -0.4216 -1.7690  1.1891
 5529SOL    HW228467   2.069   3.540   2.262 -0.6899 -1.1137 -3.2752
 5530SOL     OW28468   1.735   4.310   0.710  0.5905 -0.0077 -0.2813
 5530SOL    HW128469   1.661   4.322   0.651  0.9309 -1.9827 -1.0912
 5530SOL    HW228470   1.694   4.287   0.794  0.3462 -2.3399 -1.0430
 5531SOL     OW28471   4.005   2.587   3.493 -0.0325  0.0339  0.2146
 5531SOL    HW128472   4.058   2.665   3.508  0.4879 -0.1264 -0.7683
 5531SOL    HW228473   4.054   2.517   3.537  1.5332 -0.4499 -2.2489
 5532SOL     OW28474   1.642   3.092   4.027 -0.2655  0.4139 -0.2574
 5532SOL    HW128475   1.621   3.120   3.938  0.0191  2.8250  0.4387
 5532SOL    HW228476   1.737   3.078   4.027 -0.4772 -1.0407 -0.7377
 5533SOL     OW28477   3.591   0.118   2.082 -0.1635 -0.0638  0.1078
 5533SOL    HW128478   3.573   0.104   1.989 -0.1211  1.9889 -0.2242
 5533SOL    HW228479   3.668   0.064   2.101 -0.0445 -0.3029 -1.1046
 5534SOL     OW28480   4.749   3.092   0.024 -0.5907 -0.1712  0.2754
 5534SOL    HW128481   4.677   3.100   0.087 -0.7501  0.1676  0.0522
 5534SOL    HW228482   0.020   3.012   0.050 -1.6566 -0.9446 -0.2101
 5535SOL     OW28483   0.718   1.924   2.495 -0.1999  0.4767  0.0815
 5535SOL    HW128484   0.689   1.999   2.442 -0.2641 -1.2380 -2.3492
 5535SOL    HW228485   0.798   1.895   2.452 -0.5328 -1.2468  0.6387
 5536SOL     OW28486   0.870   4.614  17.169  0.3077  0.2088  0.0874
 5536SOL    HW128487   0.927   4.622  17.092 -2.2600  1.6202 -1.6495
 5536SOL    HW228488   0.830   4.700  17.179 -0.5936 -0.4371  2.0322
 5537SOL     OW28489   1.859   1.028   4.576  0.3223  0.4463 -0.1243
 5537SOL    HW128490   1.839   0.995   4.664  1.9544  0.4532  0.2382
 5537SOL    HW228491   1.802   1.105   4.567 -0.7947 -0.3118  0.4257
 5538SOL     OW28492   0.134   0.413   2.621 -0.0611 -0.5045 -0.1195
 5538SOL    HW128493   0.167   0.403   2.532 -0.5091 -0.3107 -0.3104
 5538SOL    HW228494   0.185   0.486   2.657 -0.1995 -0.2849 -0.3708
 5539SOL     OW28495   0.095   1.431  19.366  0.0938 -0.1528  0.2950
 5539SOL    HW128496   0.187   1.457  19.370  0.0490 -0.1989  1.7273
 5539SOL    HW228497   0.094   1.353  19.310  0.8902 -0.0109  0.0900
 5540SOL     OW28498   2.826   3.270   1.266 -0.4262  0.4977  0.7670
 5540SOL    HW128499   2.915   3.303   1.252  0.1004 -0.7134  1.2889
 5540SOL    HW228500   2.830   3.224   1.350 -1.7395  1.1527  1.1904
 5541SOL     OW28501   2.469   0.097   2.100 -0.3023  0.1123  0.0879
 5541SOL    HW128502   2.558   0.130   2.108  0.1911 -1.2815  0.5146
 5541SOL    HW228503   2.467   0.053   2.015 -0.3366 -0.5475  0.4234
 5542SOL     OW28504   1.743   1.991  19.931 -0.3644  0.5406 -0.2693
 5542SOL    HW128505   1.791   2.073  19.942 -2.3996  1.8149 -0.9586
 5542SOL    HW228506   1.771   1.957  19.846 -1.8464  2.0314 -1.3359
 5543SOL     OW28507   0.766   2.518  18.020 -0.4443  0.0725  1.1156
 5543SOL    HW128508   0.726   2.528  18.106  0.3961  1.1734  1.3793
 5543SOL    HW228509   0.807   2.432  18.023 -0.2985  0.1635  1.8757
 5544SOL     OW28510   1.938   3.206  10.123 -0.1483 -0.5672  0.3815
 5544SOL    HW128511   2.001   3.259  10.172 -0.0709 -0.7685  0.5002
 5544SOL    HW228512   1.868   3.268  10.100  0.0427 -0.3664  0.3349
 5545SOL     OW28513   3.789   1.390  14.618 -0.3758 -0.1338  0.1928
 5545SOL    HW128514   3.836   1.307  14.606  1.7241  0.8413  1.5788
 5545SOL    HW228515   3.712   1.382  14.563 -0.1541 -3.0223  0.2828
 5546SOL     OW28516   2.983   1.476   0.755 -0.4990  0.3235  0.3176
 5546SOL    HW128517   3.066   1.492   0.800  0.8892  0.4869 -2.3346
 5546SOL    HW228518   2.930   1.555   0.772  0.4017  0.8139  0.8186
 5547SOL     OW28519   3.190   1.480  17.367 -0.4485  0.5532 -0.4266
 5547SOL    HW128520   3.236   1.495  17.450 -1.3299 -1.0503  0.3531
 5547SOL    HW228521   3.198   1.386  17.352  2.4664  1.3564 -3.7856
 5548SOL     OW28522   1.198   1.057   4.434  0.0497  0.7695 -0.8204
 5548SOL    HW128523   1.252   0.990   4.392  0.2065  0.4865 -0.1663
 5548SOL    HW228524   1.250   1.087   4.508 -0.6201  0.6215 -0.2911
 5549SOL     OW28525   3.113   4.038  17.883  0.7404  0.3303 -0.3146
 5549SOL    HW128526   3.086   3.980  17.812  0.3075 -1.8513  1.6354
 5549SOL    HW228527   3.050   4.022  17.953  1.7736  1.7420  0.9436
 5550SOL     OW28528   1.196   3.998  16.175  0.2041 -0.0989 -0.0025
 5550SOL    HW128529   1.171   3.940  16.248  1.5114 -2.0699 -1.1302
 5550SOL    HW228530   1.116   4.005  16.122 -0.5449  0.7734  1.2404
 5551SOL     OW28531   4.686   2.045  12.459  0.2370 -0.1168  0.2032
 5551SOL    HW128532   4.620   2.069  12.395 -0.7190 -0.5120  1.0475
 5551SOL    HW228533   4.668   2.102  12.534  1.8029  0.8599 -0.1566
 5552SOL     OW28534   0.688   1.314  19.989  0.0693 -0.0293 -0.5349
 5552SOL    HW128535   0.598   1.291  19.968  0.0348 -1.9870  1.8432
 5552SOL    HW228536   0.680   1.382  20.056  0.3557 -0.1303 -0.3990
 5553SOL     OW28537   0.489   3.062  20.521 -0.3248 -0.0727 -0.5379
 5553SOL    HW128538   0.477   3.029  20.610  1.9453  1.1973  0.2205
 5553SOL    HW228539   0.427   3.135  20.514  0.6530  0.8395  0.4985
 5554SOL     OW28540   4.593   2.677  17.710 -0.8019 -0.1688  0.3271
 5554SOL    HW128541   4.543   2.757  17.724 -0.2912  0.4564 -1.4789
 5554SOL    HW228542   4.665   2.682  17.773 -0.7310  0.8260  0.1544
 5555SOL     OW28543   4.452   1.310   3.718  0.1112  0.7635  0.1204
 5555SOL    HW128544   4.430   1.275   3.631 -1.9997  1.1322  0.5094
 5555SOL    HW228545   4.479   1.233   3.768 -1.7722  0.0905  0.1040
 5556SOL     OW28546   4.059   1.257  20.927 -0.0949 -0.2848  0.3939
 5556SOL    HW128547   3.967   1.238  20.946  0.0824 -1.8622 -0.3384
 5556SOL    HW228548   4.066   1.352  20.937 -1.9493 -0.0869 -0.1368
 5557SOL     OW28549   4.277   4.092   3.188  0.3642 -0.7515 -0.0504
 5557SOL    HW128550   4.318   4.006   3.196  0.6754 -0.6773 -0.8775
 5557SOL    HW228551   4.351   4.153   3.190  0.3320 -0.6511 -2.2138
 5558SOL     OW28552   1.777   2.752   4.368  0.2983 -0.2180 -0.6125
 5558SOL    HW128553   1.845   2.710   4.316 -0.2362 -0.9407 -0.7330
 5558SOL    HW228554   1.731   2.679   4.410 -0.2849  0.2787 -0.3914
 5559SOL     OW28555   1.242   3.094   3.126  0.1115 -0.0392 -0.2037
 5559SOL    HW128556   1.238   3.169   3.067  0.9211  0.3847  0.2824
 5559SOL    HW228557   1.334   3.087   3.150  0.1422 -1.5641 -0.7352
 5560SOL     OW28558   1.643   3.995  17.025  0.3338 -0.2149 -0.0625
 5560SOL    HW128559   1.635   4.057  17.097 -1.4537 -1.5682  0.9199
 5560SOL    HW228560   1.710   4.032  16.968  1.8442  0.7850  2.3642
 5561SOL     OW28561   0.275   1.068  19.542 -0.1441  0.1563  0.4391
 5561SOL    HW128562   0.287   0.974  19.533  0.1524  0.2157  0.2324
 5561SOL    HW228563   0.352   1.098  19.591  0.5271  0.5209 -0.8276
 5562SOL     OW28564   1.282   3.457  10.346  0.4309  0.2340  0.2691
 5562SOL    HW128565   1.336   3.535  10.356  0.1875  0.6256 -1.3438
 5562SOL    HW228566   1.344   3.387  10.326  0.4823  0.4044 -0.1815
 5563SOL     OW28567   2.209   3.334   2.368  0.0694  0.1901 -0.0836
 5563SOL    HW128568   2.115   3.320   2.379  0.3096 -0.7174  0.8403
 5563SOL    HW228569   2.233   3.397   2.435 -0.3080  2.1681 -1.8089
 5564SOL     OW28570   0.160   2.664   2.666  0.5283  0.2735  0.8629
 5564SOL    HW128571   0.070   2.698   2.675  0.4783  0.7686 -1.5500
 5564SOL    HW228572   0.149   2.569   2.659 -0.0975  0.7018 -3.8457
 5565SOL     OW28573   2.047   4.647   8.901 -0.2569  0.4793  0.4941
 5565SOL    HW128574   2.026   4.728   8.855  1.8749  0.4467 -0.5483
 5565SOL    HW228575   2.129   4.665   8.947  0.3670 -1.1526  0.0408
 5566SOL     OW28576   4.165   1.023   1.170 -0.6681 -0.3006  0.4497
 5566SOL    HW128577   4.224   0.997   1.099 -0.2515  0.0215  0.6769
 5566SOL    HW228578   4.099   1.079   1.127 -1.5832 -1.7572 -0.0407
 5567SOL     OW28579   1.818   3.941  19.546  0.0207 -0.4501 -0.1691
 5567SOL    HW128580   1.783   3.945  19.457 -1.2690 -0.2188  0.3527
 5567SOL    HW228581   1.815   3.849  19.570 -1.9041 -0.1944  0.5536
 5568SOL     OW28582   3.762   0.746   5.251 -0.3627  0.1746  0.1577
 5568SOL    HW128583   3.779   0.720   5.342 -2.4236  1.4259  0.8969
 5568SOL    HW228584   3.699   0.681   5.219 -0.4503  0.3694 -0.0640
 5569SOL     OW28585   1.090   4.180   5.778  0.0868  0.1790 -0.2763
 5569SOL    HW128586   1.164   4.199   5.721 -0.4398  1.1900 -0.6220
 5569SOL    HW228587   1.019   4.235   5.745 -0.1882  0.8477  1.4403
 5570SOL     OW28588   0.050   3.271  20.327  0.4056  0.1143  0.0030
 5570SOL    HW128589   0.011   3.213  20.392 -0.3216 -0.3731 -0.8800
 5570SOL    HW228590   4.758   3.334  20.307  1.2895  1.4559  1.1746
 5571SOL     OW28591   1.505   0.667  17.509  0.0634 -0.0632 -0.5005
 5571SOL    HW128592   1.439   0.737  17.501 -0.5999 -0.4534  1.6380
 5571SOL    HW228593   1.556   0.673  17.428 -0.3964  2.5015 -0.5992
 5572SOL     OW28594   1.321   4.102   1.148 -0.1225 -0.2173  0.4807
 5572SOL    HW128595   1.306   4.151   1.229  0.4114 -1.0643  1.0891
 5572SOL    HW228596   1.311   4.167   1.079 -2.3266  0.1562  1.1327
 5573SOL     OW28597   3.154   2.570   1.123  0.1140 -0.0132  0.0414
 5573SOL    HW128598   3.087   2.566   1.055  1.4325 -0.5801 -1.2247
 5573SOL    HW228599   3.159   2.662   1.146 -1.4069 -0.0276  0.4352
 5574SOL     OW28600   2.426   4.497  21.043  0.0992 -0.7756  0.1587
 5574SOL    HW128601   2.478   4.529  20.969  0.8076 -2.1461  0.0639
 5574SOL    HW228602   2.353   4.451  21.003 -1.3141  1.3794  0.2943
 5575SOL     OW28603   4.514   0.811  19.429  0.7387  0.1524  0.6293
 5575SOL    HW128604   4.568   0.768  19.363  0.8555  0.3219  0.6117
 5575SOL    HW228605   4.449   0.860  19.379  0.2074 -0.5156  0.6655
 5576SOL     OW28606   4.518   2.751   4.639 -0.8047  0.0226 -0.3279
 5576SOL    HW128607   4.588   2.792   4.690 -0.3194 -0.6530 -0.4573
 5576SOL    HW228608   4.511   2.805   4.560 -1.3916  0.9252  0.3381
 5577SOL     OW28609   2.046   3.343   9.621  0.4382  0.2063 -0.2511
 5577SOL    HW128610   2.032   3.286   9.697 -0.8667  1.4871  0.4729
 5577SOL    HW228611   1.959   3.350   9.580  0.8271  0.7873 -0.9691
 5578SOL     OW28612   4.595   3.817  15.486 -0.5956  0.6904  0.5747
 5578SOL    HW128613   4.595   3.725  15.462  0.7851  0.9432 -0.3817
 5578SOL    HW228614   4.543   3.860  15.418  1.6948  1.1286 -0.8845
 5579SOL     OW28615   3.061   3.997   0.539  0.1730  0.2824 -0.7632
 5579SOL    HW128616   3.027   3.918   0.581  1.6596 -0.2434 -0.5731
 5579SOL    HW228617   2.982   4.047   0.515 -0.6948 -0.2986  0.9328
 5580SOL     OW28618   3.943   3.285  17.326 -0.5539 -0.8003 -0.5687
 5580SOL    HW128619   3.910   3.288  17.237  1.1463 -1.4911 -1.2206
 5580SOL    HW228620   4.014   3.220  17.324  1.3176  1.1750  0.6496
 5581SOL     OW28621   4.493   3.385   4.334  0.3149  0.2604  1.2339
 5581SOL    HW128622   4.416   3.330   4.344 -0.5765  1.2687 -0.1592
 5581SOL    HW228623   4.503   3.428   4.419 -0.7111  0.2100  1.3749
 5582SOL     OW28624   0.213   1.382   7.762  0.5633 -0.0264 -0.2843
 5582SOL    HW128625   0.232   1.288   7.751 -0.8068 -0.5497  1.7646
 5582SOL    HW228626   0.285   1.414   7.816  0.3330 -0.1692  0.1073
 5583SOL     OW28627   2.566   1.987  17.852 -0.5161 -0.3476 -0.7994
 5583SOL    HW128628   2.658   1.989  17.825 -0.9843 -0.4599 -2.3850
 5583SOL    HW228629   2.543   1.894  17.854  0.2565 -0.4908  2.4948
 5584SOL     OW28630   0.694   4.254   7.381  0.4316  0.2918 -0.4139
 5584SOL    HW128631   0.673   4.193   7.452 -0.0550  0.8106 -0.1178
 5584SOL    HW228632   0.789   4.259   7.381  0.4809 -0.4959 -0.4549
 5585SOL     OW28633   3.291   2.659  17.855 -0.6406 -0.4156 -0.3496
 5585SOL    HW128634   3.212   2.705  17.825 -1.7594 -1.3418  1.1560
 5585SOL    HW228635   3.286   2.573  17.813 -1.4633 -1.1912  1.3150
 5586SOL     OW28636   4.647   2.506   2.401 -0.2789  0.3155  1.0150
 5586SOL    HW128637   4.705   2.476   2.331 -0.2716  0.8263  0.8016
 5586SOL    HW228638   4.585   2.564   2.357  0.8349  2.0607  1.7522
 5587SOL     OW28639   0.385   3.882   5.255 -0.1323 -0.1774 -0.5377
 5587SOL    HW128640   0.372   3.967   5.297 -0.2687 -0.0496 -0.8297
 5587SOL    HW228641   0.455   3.897   5.191  1.3053 -0.8255  0.9043
 5588SOL     OW28642   0.953   2.628   0.464 -0.6550  0.1703 -0.2677
 5588SOL    HW128643   0.891   2.594   0.528 -0.7510 -0.0900 -0.4969
 5588SOL    HW228644   0.906   2.626   0.381 -0.5271  0.4936 -0.3464
 5589SOL     OW28645   2.569   4.329  19.042  0.2731  0.2679 -0.0785
 5589SOL    HW128646   2.584   4.235  19.042  1.2797  0.4268 -0.4691
 5589SOL    HW228647   2.539   4.349  18.954  0.9637  0.4581 -0.2691
 5590SOL     OW28648   1.145   0.575   5.854  0.5055 -0.4850  0.1164
 5590SOL    HW128649   1.071   0.517   5.874 -1.1724  1.6855  0.1760
 5590SOL    HW228650   1.205   0.563   5.929 -1.9279  1.3091  2.3328
 5591SOL     OW28651   1.932   0.303  20.032 -0.3943 -0.2941 -0.0170
 5591SOL    HW128652   1.964   0.263  20.113  0.1661 -0.1680 -0.1756
 5591SOL    HW228653   1.872   0.372  20.061  0.6813  0.5039  0.3138
 5592SOL     OW28654   0.307   0.758   6.901 -0.0235 -0.1961  0.8046
 5592SOL    HW128655   0.238   0.796   6.955 -1.0895  0.4468 -1.0232
 5592SOL    HW228656   0.265   0.739   6.817  1.3341 -2.3195  0.5983
 5593SOL     OW28657   1.887   2.404  16.664 -0.0226  0.9494  0.3518
 5593SOL    HW128658   1.935   2.472  16.616 -0.5801  0.3800 -1.0122
 5593SOL    HW228659   1.933   2.323  16.642 -0.8624  0.5650  0.0402
 5594SOL     OW28660   4.284   3.630   5.900 -0.8649 -0.0959  0.4558
 5594SOL    HW128661   4.305   3.574   5.975 -0.3236 -0.2650  0.1804
 5594SOL    HW228662   4.195   3.605   5.875 -0.2245 -1.5815 -0.3451
 5595SOL     OW28663   1.151   2.958  11.104  0.0098 -0.1351 -0.0839
 5595SOL    HW128664   1.105   3.030  11.061  0.9350 -0.6685 -1.9868
 5595SOL    HW228665   1.242   2.989  11.112  0.3380 -0.9412 -0.6179
 5596SOL     OW28666   2.381   3.880   2.897  0.7706 -0.0844  0.0066
 5596SOL    HW128667   2.373   3.972   2.921 -1.1245 -0.1419 -0.3791
 5596SOL    HW228668   2.382   3.833   2.981 -0.4500  0.1208  0.1355
 5597SOL     OW28669   3.789   1.842  11.591  0.4921  0.2268 -0.7934
 5597SOL    HW128670   3.844   1.769  11.620  0.6971 -0.1724 -2.2367
 5597SOL    HW228671   3.726   1.854  11.663 -0.5470 -2.3927 -1.2530
 5598SOL     OW28672   2.154   3.814   2.498 -0.3440 -0.3185  0.1908
 5598SOL    HW128673   2.072   3.801   2.450 -0.8025 -1.3353  1.2594
 5598SOL    HW228674   2.142   3.897   2.545 -0.3085  0.1276 -0.5905
 5599SOL     OW28675   3.688   1.699   8.147  1.1119  0.3104  0.1387
 5599SOL    HW128676   3.701   1.782   8.101  1.4554  0.7749  1.0762
 5599SOL    HW228677   3.765   1.647   8.125  0.9187  0.2526 -0.4114
 5600SOL     OW28678   1.163   4.737   2.576 -0.4369  0.1958  0.1806
 5600SOL    HW128679   1.115   0.041   2.597 -2.8108 -1.5523  1.4036
 5600SOL    HW228680   1.113   4.696   2.506  1.0668  0.0421 -0.8106
 5601SOL     OW28681   4.666   0.345  20.707  0.3894  0.1202 -0.0908
 5601SOL    HW128682   4.707   0.259  20.713  1.7834  0.8394  0.8326
 5601SOL    HW228683   4.739   0.406  20.715 -0.6672  1.3906 -0.1869
 5602SOL     OW28684   4.033   0.127  18.414 -0.4456  0.7109  0.1405
 5602SOL    HW128685   4.039   0.051  18.472 -1.4845 -0.1665 -0.9036
 5602SOL    HW228686   4.109   0.119  18.356 -0.6671  0.3591 -0.1013
 5603SOL     OW28687   2.132   3.026  14.043  0.1679 -0.2615  0.3997
 5603SOL    HW128688   2.065   3.095  14.047  1.5512  0.8701  3.5761
 5603SOL    HW228689   2.179   3.044  13.961 -2.8637 -0.5394 -1.4136
 5604SOL     OW28690   2.092   3.389   4.969 -0.5533 -0.3534  0.8302
 5604SOL    HW128691   2.135   3.355   5.048 -0.8776 -1.6422  0.4566
 5604SOL    HW228692   2.006   3.347   4.969 -0.4941 -0.4640 -0.2794
 5605SOL     OW28693   3.340   1.700  15.321  0.4309  0.1484  0.3294
 5605SOL    HW128694   3.433   1.678  15.328  0.7972  1.8204  0.6853
 5605SOL    HW228695   3.306   1.691  15.410  0.6694  1.4348  0.5490
 5606SOL     OW28696   1.217   3.445   3.898 -1.2102 -0.3433 -0.0784
 5606SOL    HW128697   1.179   3.443   3.811 -0.5725  1.5067 -0.3863
 5606SOL    HW228698   1.146   3.477   3.955 -0.7896  1.0354 -0.3270
 5607SOL     OW28699   0.079   3.031  16.753  0.1145 -0.1315  0.2167
 5607SOL    HW128700   0.077   2.978  16.674 -3.6169  0.3924 -0.0504
 5607SOL    HW228701   0.061   3.120  16.723 -0.9645  0.1213  1.6062
 5608SOL     OW28702   0.365   3.717  15.310  0.1836  0.2596 -1.4418
 5608SOL    HW128703   0.431   3.648  15.317  1.0141  1.1851 -0.2990
 5608SOL    HW228704   0.283   3.674  15.334  0.7987 -0.1751 -0.1567
 5609SOL     OW28705   4.166   4.281   1.351 -0.5216  0.0546  0.0056
 5609SOL    HW128706   4.254   4.273   1.316 -0.0012  0.1525  1.2923
 5609SOL    HW228707   4.141   4.371   1.333  0.0563  0.3374  0.6394
 5610SOL     OW28708   4.518   2.315   5.112  0.0453 -0.0801 -0.8051
 5610SOL    HW128709   4.590   2.252   5.117 -1.0709 -1.3330 -0.5631
 5610SOL    HW228710   4.442   2.263   5.086 -0.6374  1.3457 -1.6840
 5611SOL     OW28711   4.098   3.328   5.991 -0.4653 -0.2388  0.0378
 5611SOL    HW128712   4.190   3.351   6.008 -0.4824  1.1505 -1.8421
 5611SOL    HW228713   4.049   3.406   6.013 -0.9524 -0.0820 -1.6073
 5612SOL     OW28714   2.899   1.284  20.269  0.9479 -0.3652 -0.0658
 5612SOL    HW128715   2.927   1.193  20.267 -1.1223 -0.9741 -0.8627
 5612SOL    HW228716   2.896   1.311  20.177  1.2406  0.4067  0.1452
 5613SOL     OW28717   1.753   3.514   5.644 -0.3352 -0.2295 -0.2452
 5613SOL    HW128718   1.676   3.570   5.653  0.2299  0.2366  1.9021
 5613SOL    HW228719   1.744   3.450   5.715  0.3085 -1.3075 -1.1370
 5614SOL     OW28720   1.036   2.016   0.440  0.1801  0.4895  0.0367
 5614SOL    HW128721   1.112   1.963   0.464  0.8575  0.8638 -1.2596
 5614SOL    HW228722   1.031   2.083   0.509  1.1550  0.5988 -0.0028
 5615SOL     OW28723   1.888   0.334   7.421 -0.1998  0.0541 -0.1021
 5615SOL    HW128724   1.979   0.307   7.409 -1.2971 -2.7510 -2.0709
 5615SOL    HW228725   1.887   0.425   7.391  2.2482  0.5381  1.2241
 5616SOL     OW28726   0.514   2.870   3.999  0.2958  0.0626 -0.5731
 5616SOL    HW128727   0.498   2.926   4.075 -2.4012 -1.9558  0.3549
 5616SOL    HW228728   0.432   2.875   3.949  0.7101 -1.6685 -1.4026
 5617SOL     OW28729   3.263   3.060  19.916 -0.0195 -0.2123  0.3041
 5617SOL    HW128730   3.320   3.090  19.987 -0.1380  0.0774  0.2757
 5617SOL    HW228731   3.301   3.097  19.837  0.8866 -1.6468  0.0684
 5618SOL     OW28732   2.183   1.892  10.987 -0.1373  0.1453  0.1037
 5618SOL    HW128733   2.209   1.891  10.895  2.0065 -0.2413  0.6918
 5618SOL    HW228734   2.182   1.985  11.011 -2.1380  0.3270 -0.7085
 5619SOL     OW28735   2.093   0.197   5.541  0.7008 -0.1809  0.0343
 5619SOL    HW128736   2.140   0.144   5.605  0.0539 -1.1553 -0.2871
 5619SOL    HW228737   2.003   0.164   5.545  0.2739  0.9846 -0.0768
 5620SOL     OW28738   2.818   3.744   9.656  0.1292 -0.2413  0.0426
 5620SOL    HW128739   2.895   3.688   9.642  1.2882  1.1307  0.8727
 5620SOL    HW228740   2.776   3.708   9.734 -0.3036 -1.2395 -0.6443
 5621SOL     OW28741   4.583   3.823  11.028 -0.5495  0.4353 -0.3926
 5621SOL    HW128742   4.619   3.849  10.943  1.5060 -0.5421  0.1669
 5621SOL    HW228743   4.514   3.761  11.008  0.0320  0.1022 -1.3456
 5622SOL     OW28744   3.892   3.261   2.482  0.1289  0.1156 -0.2335
 5622SOL    HW128745   3.820   3.201   2.499  1.3974 -0.8018  2.0092
 5622SOL    HW228746   3.897   3.268   2.387 -2.1575 -0.7310 -0.4104
 5623SOL     OW28747   4.525   4.545   1.701  0.1010 -0.1678  0.1493
 5623SOL    HW128748   4.483   4.622   1.739 -1.7966 -1.4596  0.6835
 5623SOL    HW228749   4.552   4.493   1.777 -3.1166 -2.4444 -0.2623
 5624SOL     OW28750   4.458   3.840   7.407  0.7537 -0.5630 -0.3564
 5624SOL    HW128751   4.552   3.845   7.424  1.2637 -1.3064 -2.9502
 5624SOL    HW228752   4.431   3.931   7.395  1.1158 -0.3394  0.4986
 5625SOL     OW28753   4.418   3.061   6.705  0.3094  0.1748 -0.6008
 5625SOL    HW128754   4.483   3.020   6.762  0.4627  0.2533 -0.7185
 5625SOL    HW228755   4.440   3.154   6.707 -0.2497  0.2900 -0.0651
 5626SOL     OW28756   2.769   3.404   3.626 -0.0557 -0.2593 -0.9578
 5626SOL    HW128757   2.838   3.469   3.613  1.4498 -1.9856 -1.5997
 5626SOL    HW228758   2.778   3.344   3.552 -0.0989 -2.4040  0.7649
 5627SOL     OW28759   4.631   2.113  18.937  0.3167 -0.0926  0.1581
 5627SOL    HW128760   4.705   2.087  18.883  0.6179 -1.3694  1.2073
 5627SOL    HW228761   4.576   2.035  18.942 -0.5886  0.5493  0.2298
 5628SOL     OW28762   4.165   4.650   1.554 -0.7533 -0.2524  0.3277
 5628SOL    HW128763   4.165   4.601   1.636 -1.1556 -3.1624 -1.4379
 5628SOL    HW228764   4.149   4.585   1.486  0.8238  1.9850 -2.1935
 5629SOL     OW28765   2.371   1.929  12.588 -0.4525 -0.0227  0.0566
 5629SOL    HW128766   2.402   1.916  12.498  0.5311 -2.6381  0.8054
 5629SOL    HW228767   2.312   1.856  12.604 -1.2141  0.8665  1.2900
 5630SOL     OW28768   1.567   0.810  15.442 -0.2756 -0.3201 -0.1781
 5630SOL    HW128769   1.567   0.852  15.529  0.9250 -0.5013 -0.0908
 5630SOL    HW228770   1.475   0.810  15.415 -0.3296  2.0293  0.0076
 5631SOL     OW28771   0.647   0.397  19.975  0.5969 -0.2143 -0.3002
 5631SOL    HW128772   0.622   0.388  20.067 -0.4831 -0.2157 -0.5914
 5631SOL    HW228773   0.708   0.325  19.960 -0.2001 -0.9786  0.0812
 5632SOL     OW28774   3.527   0.595   0.851  0.1506  0.0351  0.0575
 5632SOL    HW128775   3.480   0.656   0.908 -2.6937 -1.3389 -0.8626
 5632SOL    HW228776   3.578   0.651   0.793  0.9509  1.4863  2.1563
 5633SOL     OW28777   0.720   1.643   4.442 -0.4208 -0.1264  0.0124
 5633SOL    HW128778   0.691   1.666   4.353  0.6222 -0.3733 -0.3992
 5633SOL    HW228779   0.680   1.557   4.458  0.1115 -0.4903 -0.5727
 5634SOL     OW28780   1.293   4.740   4.103  0.4804 -0.5948 -0.0397
 5634SOL    HW128781   1.378   4.772   4.134 -0.1366  0.4297  0.5859
 5634SOL    HW228782   1.232   0.035   4.122 -0.8157 -1.9775  0.9769
 5635SOL     OW28783   2.268   4.527  20.495  0.0687 -0.0962 -0.2551
 5635SOL    HW128784   2.349   4.550  20.449  0.7785  1.1341  1.6083
 5635SOL    HW228785   2.294   4.520  20.587 -2.1158  1.2166  0.4531
 5636SOL     OW28786   4.260   2.229  20.512  0.8662 -0.5579  0.6136
 5636SOL    HW128787   4.266   2.211  20.418  0.8028 -0.5251  0.6031
 5636SOL    HW228788   4.234   2.321  20.517 -0.1938 -0.8599  0.6514
 5637SOL     OW28789   1.075   3.878   6.430 -0.0529 -0.6469  0.2133
 5637SOL    HW128790   1.119   3.813   6.375 -0.8805 -1.1631  0.1633
 5637SOL    HW228791   1.088   3.961   6.384 -0.8916 -1.1042 -0.8473
 5638SOL     OW28792   1.824   2.557  17.701 -0.4951 -0.3957  0.2923
 5638SOL    HW128793   1.793   2.491  17.763 -0.4093  0.8078  1.6123
 5638SOL    HW228794   1.856   2.629  17.756 -2.5106  1.6268 -1.1677
 5639SOL     OW28795   2.683   2.714  18.512  0.0559  0.3964 -0.2077
 5639SOL    HW128796   2.639   2.652  18.454 -1.7327 -0.1646  1.7320
 5639SOL    HW228797   2.775   2.689  18.509 -0.3567 -1.0142 -1.0856
 5640SOL     OW28798   1.505   1.946  18.484 -0.4495  0.2044  0.6751
 5640SOL    HW128799   1.511   1.855  18.513  0.1661  0.3808  1.0976
 5640SOL    HW228800   1.531   1.943  18.392 -1.0529 -0.1438  0.5163
 5641SOL     OW28801   1.943   2.170   4.280 -0.7762  0.0584 -0.4861
 5641SOL    HW128802   1.930   2.155   4.186 -0.0396 -0.5760 -0.4842
 5641SOL    HW228803   1.955   2.265   4.287  0.6945 -0.0708 -1.2126
 5642SOL     OW28804   0.285   1.131  20.549 -0.2069  0.1170 -0.1919
 5642SOL    HW128805   0.208   1.167  20.507  0.2703  1.2380 -0.0965
 5642SOL    HW228806   0.320   1.069  20.484  0.3926  1.6617 -1.3591
 5643SOL     OW28807   3.193   2.085  19.349 -0.6272  0.2432 -0.1829
 5643SOL    HW128808   3.177   2.015  19.412 -1.3885 -0.4809 -1.1875
 5643SOL    HW228809   3.208   2.040  19.266  0.6729  1.1846 -0.4645
 5644SOL     OW28810   4.189   2.597  21.175 -0.1950 -0.0448  0.4117
 5644SOL    HW128811   4.169   2.505  21.194 -0.8069  0.2063  0.9845
 5644SOL    HW228812   4.272   2.613   0.023  1.5542 -1.2640 -2.4827
 5645SOL     OW28813   4.662   3.702   2.264  0.0031 -0.0761 -0.2066
 5645SOL    HW128814   4.676   3.792   2.293  2.1145 -0.2822 -0.5970
 5645SOL    HW228815   4.692   3.649   2.338  0.2018 -0.4975 -0.5942
 5646SOL     OW28816   2.059   2.969   4.681  0.1819 -0.3549  1.0887
 5646SOL    HW128817   2.048   2.975   4.776 -0.0355 -0.1446  1.0502
 5646SOL    HW228818   1.979   3.007   4.645 -0.2762 -1.5355  0.8278
 5647SOL     OW28819   1.527   1.435  13.491 -0.0016 -0.5469  0.6484
 5647SOL    HW128820   1.434   1.447  13.511 -0.1562 -1.9160  0.7603
 5647SOL    HW228821   1.571   1.444  13.576 -0.0683 -0.2482  0.6512
 5648SOL     OW28822   1.550   0.482   4.147  0.3709  0.3757  0.0940
 5648SOL    HW128823   1.492   0.460   4.220  0.9543 -0.5625  0.2676
 5648SOL    HW228824   1.584   0.568   4.169 -0.4066  0.6236  0.3427
 5649SOL     OW28825   0.900   1.885  20.922  0.0711 -0.0908  0.0242
 5649SOL    HW128826   0.937   1.868  20.835 -0.0222  0.2695 -0.0891
 5649SOL    HW228827   0.825   1.826  20.928 -0.2232  0.2396 -0.3437
 5650SOL     OW28828   1.714   2.085  18.030  0.1391 -0.0973 -0.1556
 5650SOL    HW128829   1.646   2.101  17.964 -0.4433  1.5500  0.8640
 5650SOL    HW228830   1.732   2.171  18.067 -0.5755 -1.2728  2.8762
 5651SOL     OW28831   4.272   1.477  10.328  0.5407  0.4636 -0.2519
 5651SOL    HW128832   4.365   1.493  10.343  0.4825  0.5945 -0.0336
 5651SOL    HW228833   4.230   1.562  10.341  0.2475  0.1526  0.8159
 5652SOL     OW28834   2.250   1.081   1.080 -0.2977  0.2704  0.3281
 5652SOL    HW128835   2.195   1.078   1.158 -0.9268 -2.1012 -0.1916
 5652SOL    HW228836   2.191   1.104   1.009 -0.0996  0.4433  0.2182
 5653SOL     OW28837   2.573   1.599   8.700  0.2914 -0.7956  0.4807
 5653SOL    HW128838   2.630   1.575   8.627  0.2764 -1.1886  0.6007
 5653SOL    HW228839   2.581   1.527   8.762 -1.8720 -1.7677 -0.3811
 5654SOL     OW28840   3.296   0.154   2.477 -0.5791  0.2597 -0.0387
 5654SOL    HW128841   3.211   0.166   2.435 -0.0396 -0.9932 -1.4971
 5654SOL    HW228842   3.338   0.084   2.426  1.4041  1.0220  0.5457
 5655SOL     OW28843   3.821   4.314   7.818  0.3011 -0.3328 -0.3673
 5655SOL    HW128844   3.735   4.280   7.790  1.3263 -1.7510 -1.8008
 5655SOL    HW228845   3.874   4.312   7.738  1.1887  2.0477  0.1759
 5656SOL     OW28846   0.319   4.293   2.739 -0.0565 -0.8077  0.4284
 5656SOL    HW128847   0.253   4.258   2.799 -0.2864  0.1240  0.7198
 5656SOL    HW228848   0.393   4.314   2.795 -0.4022  0.3999  0.4407
 5657SOL     OW28849   4.004   0.405   0.248  0.4765  0.9186 -0.1709
 5657SOL    HW128850   4.033   0.465   0.317  0.7395  0.7365 -0.1240
 5657SOL    HW228851   3.917   0.437   0.223  0.1689  0.6631  0.6041
 5658SOL     OW28852   3.649   3.207  14.650  0.5421  0.1339 -0.0919
 5658SOL    HW128853   3.605   3.123  14.655  1.3963 -0.2000  1.6277
 5658SOL    HW228854   3.643   3.243  14.739  1.8496  1.0453 -0.3792
 5659SOL     OW28855   2.842   4.628  17.569  0.2399 -0.4866 -0.3834
 5659SOL    HW128856   2.868   4.688  17.638 -2.1649 -0.8014  0.7940
 5659SOL    HW228857   2.915   4.628  17.508  1.5125  1.3078  1.1616
 5660SOL     OW28858   0.690   3.520   2.438 -0.0746  0.0438  0.6397
 5660SOL    HW128859   0.777   3.537   2.401 -1.3157  1.2939 -1.6793
 5660SOL    HW228860   0.679   3.425   2.431 -0.7563  0.3979 -3.1569
 5661SOL     OW28861   2.060   4.697  18.786 -0.6405  0.0461  0.0170
 5661SOL    HW128862   2.143   4.675  18.744 -1.5944 -0.1192 -1.7505
 5661SOL    HW228863   2.044   4.624  18.846  0.5028  0.1002  0.4059
 5662SOL     OW28864   1.658   4.389  17.437  0.4244  0.1171  0.6778
 5662SOL    HW128865   1.661   4.482  17.459 -0.3226  0.4130 -0.5029
 5662SOL    HW228866   1.746   4.370  17.404  1.2934 -0.1296  3.0903
 5663SOL     OW28867   1.564   0.686  11.019  0.1150  0.6904  0.1303
 5663SOL    HW128868   1.651   0.667  10.982 -0.0258 -0.4532  0.3595
 5663SOL    HW228869   1.518   0.731  10.949 -0.0658 -1.2438 -1.0115
 5664SOL     OW28870   1.381   1.767   6.027 -0.2403 -0.3101  0.3746
 5664SOL    HW128871   1.387   1.821   5.948  0.3594  0.2246  0.7843
 5664SOL    HW228872   1.466   1.777   6.069 -0.3938 -0.9773  0.8441
 5665SOL     OW28873   1.769   2.165  20.872  0.4506  0.2355  0.2765
 5665SOL    HW128874   1.852   2.202  20.903  1.3644 -1.3099 -0.3175
 5665SOL    HW228875   1.751   2.211  20.790  0.3036  1.1458  0.8167
 5666SOL     OW28876   3.667   0.518   6.899 -0.2380 -0.1567  0.1933
 5666SOL    HW128877   3.607   0.505   6.825 -0.9891  3.6241  0.1466
 5666SOL    HW228878   3.744   0.560   6.861 -0.3530  1.1856  1.4474
 5667SOL     OW28879   1.277   2.447  17.395  0.0638 -0.0396 -0.5468
 5667SOL    HW128880   1.256   2.535  17.363 -0.5929  0.2096  0.5840
 5667SOL    HW228881   1.213   2.390  17.352 -0.4604  0.2209 -0.1011
 5668SOL     OW28882   3.337   1.486   5.863  0.0663 -0.2634  0.2088
 5668SOL    HW128883   3.269   1.439   5.814  0.2977  1.6444 -1.9400
 5668SOL    HW228884   3.290   1.557   5.906  0.7675  1.1703 -1.4311
 5669SOL     OW28885   3.374   3.321  12.259  0.8951  0.0533 -0.2187
 5669SOL    HW128886   3.366   3.242  12.205  0.2506  0.4738 -0.7443
 5669SOL    HW228887   3.402   3.389  12.197 -1.8972  1.0222 -0.4193
 5670SOL     OW28888   1.710   0.529   3.354  0.3352 -0.1935 -0.3881
 5670SOL    HW128889   1.711   0.463   3.423  1.9951 -0.9866 -1.1668
 5670SOL    HW228890   1.662   0.488   3.282 -0.6949  0.3385 -0.0184
 5671SOL     OW28891   3.468   1.354  17.903 -0.0730 -0.1026 -0.2900
 5671SOL    HW128892   3.460   1.383  17.812 -1.5658 -1.3220 -0.5510
 5671SOL    HW228893   3.454   1.259  17.899 -0.4901 -0.1044  1.2579
 5672SOL     OW28894   0.800   0.913   4.865 -0.4577  0.0069  0.0262
 5672SOL    HW128895   0.732   0.936   4.801 -0.0752 -0.6309 -0.6076
 5672SOL    HW228896   0.876   0.964   4.839  0.0229 -1.0707 -0.6603
 5673SOL     OW28897   1.112   4.108   0.883  0.4673 -0.3340  0.2983
 5673SOL    HW128898   1.120   4.129   0.790 -0.7666  0.7206  0.4267
 5673SOL    HW228899   1.195   4.135   0.922  0.4239  0.5535 -0.2428
 5674SOL     OW28900   0.168   0.673   1.004  0.1251  0.0052  0.5669
 5674SOL    HW128901   0.200   0.583   0.993  1.1005  0.1452  2.3199
 5674SOL    HW228902   0.109   0.668   1.079 -1.1276  0.4924 -0.3793
 5675SOL     OW28903   4.380   4.190  18.641  0.4638  0.0402 -0.6889
 5675SOL    HW128904   4.392   4.285  18.642  0.6030  0.0102  1.5447
 5675SOL    HW228905   4.457   4.156  18.597  1.7448  0.7684  1.0107
 5676SOL     OW28906   3.678   0.180  17.631 -0.4933 -0.6979  0.3025
 5676SOL    HW128907   3.767   0.151  17.652 -0.9390 -2.9896 -0.9831
 5676SOL    HW228908   3.626   0.153  17.706 -0.1749  0.3951  0.9289
 5677SOL     OW28909   1.605   4.428  14.797  0.3099 -0.0957 -0.4376
 5677SOL    HW128910   1.634   4.441  14.888 -0.6400 -0.9125 -0.0217
 5677SOL    HW228911   1.684   4.401  14.751  0.7578  0.1410  0.1852
 5678SOL     OW28912   2.689   2.487   7.986 -0.6211  0.0657 -0.6694
 5678SOL    HW128913   2.616   2.435   8.021 -0.6324 -1.2780 -2.6435
 5678SOL    HW228914   2.716   2.439   7.907 -0.3841  2.8629 -2.2768
 5679SOL     OW28915   1.080   2.675  11.549  0.5018 -0.2270  0.6315
 5679SOL    HW128916   1.000   2.725  11.531  1.0887 -0.0317 -1.4684
 5679SOL    HW228917   1.125   2.725  11.617 -0.7212  0.1347  1.1830
 5680SOL     OW28918   2.528   4.669   0.612  0.2523 -0.1746  0.1092
 5680SOL    HW128919   2.475   4.594   0.637 -1.0780  0.6792 -0.1409
 5680SOL    HW228920   2.612   4.655   0.655 -0.5775 -0.9130  1.4779
 5681SOL     OW28921   1.124   3.188   2.437  0.4406  0.1622 -0.5315
 5681SOL    HW128922   1.154   3.196   2.527 -0.1058  2.3173 -0.5559
 5681SOL    HW228923   1.202   3.197   2.384  0.3959  1.2727 -0.3945
 5682SOL     OW28924   4.580   0.570  11.208  0.0879  0.4657 -0.6987
 5682SOL    HW128925   4.545   0.535  11.290  0.1602 -0.1281 -0.9179
 5682SOL    HW228926   4.591   0.664  11.224  1.4618  0.1148  0.4622
 5683SOL     OW28927   1.894   0.130   3.286  0.6092 -0.6044  0.3561
 5683SOL    HW128928   1.944   0.054   3.255 -0.3271 -1.6605  1.4478
 5683SOL    HW228929   1.925   0.202   3.232  0.1193 -2.1366 -1.9672
 5684SOL     OW28930   1.524   4.208  17.918 -0.1772  0.3554 -0.1569
 5684SOL    HW128931   1.513   4.240  17.829 -0.8545  1.5766  0.3679
 5684SOL    HW228932   1.450   4.149  17.932  0.6041 -0.7797 -0.8295
 5685SOL     OW28933   2.384   1.253   4.719  0.0525 -0.2029 -0.5863
 5685SOL    HW128934   2.382   1.228   4.627 -0.7701 -0.3359 -0.5400
 5685SOL    HW228935   2.377   1.348   4.719 -1.8085 -0.3392 -0.6007
 5686SOL     OW28936   0.682   0.088  18.881 -0.6035  0.2235  0.2412
 5686SOL    HW128937   0.622   0.130  18.943 -1.5025  0.0648 -0.5194
 5686SOL    HW228938   0.766   0.086  18.926 -0.8442  1.7538  0.7394
 5687SOL     OW28939   3.046   2.205   1.560  0.5121  0.3164  0.0118
 5687SOL    HW128940   3.040   2.124   1.610  1.6929  0.6408  0.6908
 5687SOL    HW228941   2.962   2.212   1.516 -1.0684  0.7226  3.0458
 5688SOL     OW28942   2.114   1.416   3.355 -0.2281 -0.3802 -0.1357
 5688SOL    HW128943   2.125   1.451   3.266  0.1925 -0.0445  0.0472
 5688SOL    HW228944   2.114   1.321   3.344 -0.0598 -0.3387 -0.4814
 5689SOL     OW28945   1.060   4.735  12.184 -0.2355  0.4713 -0.8686
 5689SOL    HW128946   1.041   0.028  12.248 -1.2991 -0.3871 -0.2550
 5689SOL    HW228947   0.974   4.703  12.157  0.2650 -0.9224 -0.8086
 5690SOL     OW28948   2.196   4.201  15.222 -0.3762  0.0972  0.5603
 5690SOL    HW128949   2.210   4.128  15.162  0.3320 -0.8852  1.9312
 5690SOL    HW228950   2.232   4.171  15.306  1.4560  2.6537  0.6909
 5691SOL     OW28951   1.445   2.632  16.411  0.1329 -0.1009  0.0172
 5691SOL    HW128952   1.514   2.690  16.444 -0.8989  0.0903  1.8300
 5691SOL    HW228953   1.414   2.674  16.331  1.7478  0.0965 -0.5015
 5692SOL     OW28954   1.934   1.533  16.931 -0.1970  0.6220 -0.4636
 5692SOL    HW128955   1.934   1.518  16.837 -0.9424 -0.3893 -0.3013
 5692SOL    HW228956   2.008   1.480  16.963 -0.1348  0.7211 -0.4437
 5693SOL     OW28957   1.795   3.467  18.025 -0.3973 -0.1148 -0.0540
 5693SOL    HW128958   1.778   3.394  18.085 -1.8214  0.6216  0.4197
 5693SOL    HW228959   1.888   3.487  18.039 -0.8700  0.4298  2.2876
 5694SOL     OW28960   1.995   3.188  16.377 -0.1844  0.7519 -0.4713
 5694SOL    HW128961   2.057   3.125  16.414  1.0751  2.0862 -0.3279
 5694SOL    HW228962   1.983   3.159  16.287  0.4815  0.3678 -0.4386
 5695SOL     OW28963   0.798   4.024   8.420  0.1379 -0.0393 -0.0518
 5695SOL    HW128964   0.865   3.957   8.410 -0.8904 -1.0216 -0.3546
 5695SOL    HW228965   0.813   4.085   8.348 -0.6129 -1.3703 -1.3090
 5696SOL     OW28966   3.011   1.937   7.138 -0.3246 -0.0091  0.1971
 5696SOL    HW128967   2.977   1.938   7.048 -2.0095  0.2369  0.8394
 5696SOL    HW228968   3.076   2.008   7.139 -1.6119  1.1896 -0.3335
 5697SOL     OW28969   4.495   2.512  18.022  0.1077  0.2999 -0.3572
 5697SOL    HW128970   4.427   2.469  18.073  1.9341 -0.4333  1.4278
 5697SOL    HW228971   4.507   2.456  17.945 -0.2854 -0.3122  0.0340
 5698SOL     OW28972   3.322   0.078   2.959  0.2358 -0.8522 -0.2232
 5698SOL    HW128973   3.407   0.052   2.925  0.0053  0.4105 -1.7840
 5698SOL    HW228974   3.299   0.156   2.908 -1.9325 -1.3030  0.0662
 5699SOL     OW28975   0.332   1.727   4.652  0.4866  0.8095  0.2402
 5699SOL    HW128976   0.318   1.633   4.666 -1.1793  1.3060  1.9252
 5699SOL    HW228977   0.315   1.741   4.559  0.2163 -0.4546  0.1006
 5700SOL     OW28978   3.755   4.664  20.613  0.8563 -0.5314  0.2453
 5700SOL    HW128979   3.787   4.754  20.600  1.0873 -1.1313 -3.4802
 5700SOL    HW228980   3.660   4.671  20.601  0.5748 -0.2607  2.7686
 5701SOL     OW28981   2.157   1.570   0.622  0.1774 -0.1092 -0.4345
 5701SOL    HW128982   2.238   1.621   0.621 -0.3142  0.6558 -1.2106
 5701SOL    HW228983   2.143   1.545   0.531 -1.7167  1.7529 -0.6659
 5702SOL     OW28984   1.228   4.689   6.840  0.1633  0.1149  0.5648
 5702SOL    HW128985   1.136   4.715   6.847  0.5698  1.5697  0.4483
 5702SOL    HW228986   1.277   4.770   6.850  1.4258 -0.5903  0.1237
 5703SOL     OW28987   3.341   3.317   8.544 -0.3748  0.4442 -0.0091
 5703SOL    HW128988   3.372   3.278   8.462 -1.2051  1.3356 -0.7480
 5703SOL    HW228989   3.257   3.358   8.521  0.3986  2.4880  0.8146
 5704SOL     OW28990   4.406   2.757  17.912  0.1613 -0.2431 -0.4513
 5704SOL    HW128991   4.423   2.678  17.963 -0.6993  0.4543  0.9147
 5704SOL    HW228992   4.381   2.823  17.977 -0.9763  0.6354 -1.7678
 5705SOL     OW28993   3.116   4.563   4.854  0.3425 -0.6233 -0.7821
 5705SOL    HW128994   3.100   4.477   4.816  1.8866 -0.6800 -1.2966
 5705SOL    HW228995   3.211   4.568   4.864  0.2897  1.1930 -1.1915
 5706SOL     OW28996   3.048   2.860   4.828 -0.4648  0.1730 -0.3429
 5706SOL    HW128997   3.102   2.939   4.830 -0.9705  0.5126 -0.0820
 5706SOL    HW228998   2.966   2.888   4.787 -0.3340 -0.4088 -0.9936
 5707SOL     OW28999   0.405   0.269  19.859  0.0583 -0.0359  0.3037
 5707SOL    HW129000   0.421   0.176  19.840  1.0318  0.0042  0.9181
 5707SOL    HW229001   0.488   0.300  19.896 -0.0528  1.2467 -0.5470
 5708SOL     OW29002   1.762   1.179  19.890  0.1257 -0.5581  0.5517
 5708SOL    HW129003   1.854   1.206  19.885 -0.3732  0.4771 -3.1218
 5708SOL    HW229004   1.763   1.086  19.867  0.0260 -0.1424 -1.0956
 5709SOL     OW29005   0.375   4.057  20.406 -0.2597  0.0612  0.4601
 5709SOL    HW129006   0.315   4.131  20.415  1.7407  1.5147  1.6945
 5709SOL    HW229007   0.361   4.026  20.317 -1.9267  1.2010  0.3206
 5710SOL     OW29008   1.237   3.556  12.641  0.1774 -0.6015  0.3950
 5710SOL    HW129009   1.249   3.587  12.552  0.2176  0.8474  0.9040
 5710SOL    HW229010   1.177   3.619  12.681 -0.3855 -1.6252  1.1856
 5711SOL     OW29011   3.483   0.102  15.968  0.2951 -0.6982  0.5474
 5711SOL    HW129012   3.445   0.036  16.026  0.1603 -1.4954 -0.4467
 5711SOL    HW229013   3.422   0.176  15.973 -0.6438 -1.4379  0.0575
 5712SOL     OW29014   2.247   1.075  19.906  0.2727 -0.2450 -0.0445
 5712SOL    HW129015   2.300   1.020  19.848  0.5885  0.1223 -0.1025
 5712SOL    HW229016   2.295   1.077  19.989  0.2707 -0.0420 -0.0484
 5713SOL     OW29017   2.750   0.669  13.446 -0.2242  0.2031 -0.1488
 5713SOL    HW129018   2.686   0.611  13.403  0.2281 -0.3237 -0.1172
 5713SOL    HW229019   2.787   0.615  13.517  0.3653  0.4528 -0.2660
 5714SOL     OW29020   2.565   1.042  19.371 -0.3596  0.3249  0.3682
 5714SOL    HW129021   2.623   1.103  19.415  0.6587  0.5775 -1.3598
 5714SOL    HW229022   2.607   0.956  19.382  0.8169  0.6471 -1.7476
 5715SOL     OW29023   0.468   3.726  19.544  0.1395 -0.0414 -0.4765
 5715SOL    HW129024   0.452   3.779  19.622  0.1248  0.4977 -0.8462
 5715SOL    HW229025   0.386   3.678  19.531  0.8977 -1.7638  1.1038
 5716SOL     OW29026   4.186   3.003   2.803  0.0795 -0.0618  0.4574
 5716SOL    HW129027   4.201   2.951   2.724 -0.3675 -0.0469  0.3627
 5716SOL    HW229028   4.126   3.073   2.775  0.0687  0.0526  0.7630
 5717SOL     OW29029   0.391   1.866  15.854  0.4079  0.5026 -0.1019
 5717SOL    HW129030   0.485   1.881  15.856  0.2316  1.6552 -1.0763
 5717SOL    HW229031   0.365   1.865  15.947  1.1957  1.2825  0.1236
 5718SOL     OW29032   3.101   2.979  20.914 -0.0635  0.3355  0.2988
 5718SOL    HW129033   3.055   2.910  20.867  1.4028 -0.0448 -0.5752
 5718SOL    HW229034   3.050   2.991  20.995 -1.0295 -0.8795 -0.1271
 5719SOL     OW29035   2.336   2.350   2.971 -0.4055 -0.7564  0.3971
 5719SOL    HW129036   2.418   2.320   3.010 -0.1040  0.9361  1.0439
 5719SOL    HW229037   2.362   2.392   2.889 -0.5474  0.5835  1.0418
 5720SOL     OW29038   4.217   3.916   1.180  0.1707  0.0962 -0.2702
 5720SOL    HW129039   4.191   3.958   1.262  1.2792 -1.2059  0.7348
 5720SOL    HW229040   4.226   3.989   1.118  0.7007  1.2082  1.1142
 5721SOL     OW29041   1.071   4.644   2.302  0.5009 -0.4505  0.0966
 5721SOL    HW129042   1.047   4.688   2.220  1.6790 -1.9007 -1.0240
 5721SOL    HW229043   0.995   4.589   2.322  0.1275  0.0579  0.0947
 5722SOL     OW29044   3.675   1.425   4.499  0.5846 -0.0207  0.5351
 5722SOL    HW129045   3.588   1.449   4.469  1.1527  0.3350 -0.8348
 5722SOL    HW229046   3.732   1.495   4.466  1.5853 -0.9772  0.2338
 5723SOL     OW29047   0.276   0.359  20.944  0.0516 -0.2777 -0.1945
 5723SOL    HW129048   0.314   0.409  21.017 -0.7974  0.0474  0.0389
 5723SOL    HW229049   0.181   0.372  20.955 -0.0124  0.8291 -2.1168
 5724SOL     OW29050   0.484   0.041  12.331 -0.3427 -0.1504 -0.5216
 5724SOL    HW129051   0.509   0.023  12.422 -1.0250 -1.9992 -0.6911
 5724SOL    HW229052   0.451   4.733  12.298 -1.5416  0.8875 -2.0044
 5725SOL     OW29053   4.582   3.892   4.822 -0.7580 -0.0694  0.2558
 5725SOL    HW129054   4.518   3.831   4.785 -0.6115 -0.4068  0.5573
 5725SOL    HW229055   4.601   3.953   4.750 -0.9333 -0.3562 -0.0361
 5726SOL     OW29056   0.889   0.017   4.339 -0.1759  0.3779  0.5670
 5726SOL    HW129057   0.896   4.697   4.348 -1.0903  0.2471 -0.1144
 5726SOL    HW229058   0.979   0.047   4.337  0.1265 -0.5728 -0.2920
 5727SOL     OW29059   3.929   2.501  11.766  0.3144 -0.1846  0.3838
 5727SOL    HW129060   4.018   2.468  11.778  0.1752 -0.1644  1.5658
 5727SOL    HW229061   3.940   2.596  11.761  0.4123 -0.2139  0.0852
 5728SOL     OW29062   2.427   0.831  16.351 -0.1683  0.1380 -0.2419
 5728SOL    HW129063   2.468   0.913  16.380 -1.1329  0.6168 -0.2178
 5728SOL    HW229064   2.430   0.836  16.255 -0.2416  0.2169 -0.2408
 5729SOL     OW29065   2.831   4.133   3.372  0.1664 -0.0146  0.0193
 5729SOL    HW129066   2.849   4.224   3.353 -1.8805  0.6847  1.3535
 5729SOL    HW229067   2.753   4.112   3.320 -0.2191 -0.5926  0.8194
 5730SOL     OW29068   0.256   2.427   4.339 -0.0742 -0.3347  0.4604
 5730SOL    HW129069   0.345   2.460   4.353  0.2568 -0.1051 -2.1665
 5730SOL    HW229070   0.199   2.500   4.364  0.4988 -0.2670  1.5551
 5731SOL     OW29071   4.521   2.536   0.499  0.0327  0.3837 -0.1443
 5731SOL    HW129072   4.551   2.450   0.472 -1.6209 -0.6538  1.3708
 5731SOL    HW229073   4.451   2.558   0.438 -0.6317 -0.0214  0.4775
 5732SOL     OW29074   4.139   1.379  20.484  0.6205  0.0961 -0.0243
 5732SOL    HW129075   4.224   1.416  20.462  0.1053  1.4829  0.3450
 5732SOL    HW229076   4.122   1.314  20.416  1.9191 -0.0895 -0.1604
 5733SOL     OW29077   2.527   0.605  15.754 -0.3555 -0.4330 -0.1743
 5733SOL    HW129078   2.587   0.672  15.721 -1.0364  0.8387  1.1430
 5733SOL    HW229079   2.461   0.655  15.803  0.6402 -2.3089  3.0613
 5734SOL     OW29080   0.929   2.722   0.800 -0.1823 -0.5607 -0.1675
 5734SOL    HW129081   0.984   2.734   0.877  0.5608  0.8560 -0.9333
 5734SOL    HW229082   0.914   2.628   0.796  0.0279 -0.6680  1.5367
 5735SOL     OW29083   2.358   0.914   0.481  0.0168 -0.1212  0.2310
 5735SOL    HW129084   2.344   1.003   0.449  0.7714  0.0658  0.4158
 5735SOL    HW229085   2.270   0.879   0.496 -0.3160 -0.0322 -1.5536
 5736SOL     OW29086   2.114   3.475  15.457 -0.6569 -0.0603 -0.3010
 5736SOL    HW129087   2.179   3.505  15.521 -1.1530  1.0116 -0.2992
 5736SOL    HW229088   2.068   3.403  15.501  0.2008 -0.5005 -0.1195
 5737SOL     OW29089   3.019   0.370  14.805  0.0633  0.4708 -0.4534
 5737SOL    HW129090   2.971   0.299  14.762  0.0718 -1.5600  2.8150
 5737SOL    HW229091   2.950   0.429  14.837 -0.0939 -0.1367  0.3317
 5738SOL     OW29092   0.339   3.397   0.982 -0.0227 -0.2406  0.0813
 5738SOL    HW129093   0.380   3.366   1.063 -2.1883 -1.9939  0.5045
 5738SOL    HW229094   0.250   3.361   0.985 -0.9638  1.9169 -1.7836
 5739SOL     OW29095   1.268   1.857   1.909 -0.0422  0.0788  0.0917
 5739SOL    HW129096   1.260   1.860   1.814  0.2506 -0.4894  0.0468
 5739SOL    HW229097   1.359   1.830   1.924 -0.6027 -1.5964  0.5174
 5740SOL     OW29098   2.943   2.926  10.969 -0.0342 -0.2514  0.0656
 5740SOL    HW129099   2.959   3.010  11.012  2.4116 -0.2805 -0.8187
 5740SOL    HW229100   3.003   2.865  11.012 -0.8343 -1.2717 -0.2445
 5741SOL     OW29101   0.916   0.853   3.725 -0.3509 -0.3647  0.6090
 5741SOL    HW129102   0.866   0.915   3.672 -0.1999  0.7201  1.7503
 5741SOL    HW229103   0.977   0.813   3.663 -1.3204 -0.3053 -0.3886
 5742SOL     OW29104   2.012   4.189   5.751  0.0147  0.0980 -0.7272
 5742SOL    HW129105   1.919   4.185   5.729 -0.0041  1.0528 -0.8269
 5742SOL    HW229106   2.041   4.272   5.715  0.9450 -0.2782 -0.8304
 5743SOL     OW29107   1.095   1.210  19.310 -0.2842  0.0991  0.2629
 5743SOL    HW129108   1.079   1.226  19.404 -0.0671  0.0419  0.3089
 5743SOL    HW229109   1.160   1.276  19.286 -1.1249  0.8019 -0.0957
 5744SOL     OW29110   3.405   3.367  18.858 -0.1406 -0.1529  0.2867
 5744SOL    HW129111   3.384   3.275  18.871 -0.7335 -0.3836 -2.1959
 5744SOL    HW229112   3.460   3.368  18.780 -1.0808  1.6986 -0.3705
 5745SOL     OW29113   0.494   1.483   3.497  0.2022 -0.1156  0.2190
 5745SOL    HW129114   0.501   1.560   3.552  1.6566 -0.2893  0.2609
 5745SOL    HW229115   0.495   1.409   3.558 -0.1242 -0.2263  0.0951
 5746SOL     OW29116   0.730   0.905   2.463  0.4473 -0.3340  0.0322
 5746SOL    HW129117   0.797   0.836   2.459 -0.9174 -1.6139 -0.8469
 5746SOL    HW229118   0.695   0.909   2.374 -1.2334 -0.2459  0.6950
 5747SOL     OW29119   3.266   2.373  15.881 -0.3655  0.2280  0.0947
 5747SOL    HW129120   3.361   2.379  15.869 -0.2822  0.2576  0.7736
 5747SOL    HW229121   3.239   2.463  15.901 -0.4579  0.1127  0.4837
 5748SOL     OW29122   1.008   3.460  15.259 -0.2314  0.3933 -0.1703
 5748SOL    HW129123   1.013   3.484  15.352  0.1599  1.8272 -0.5646
 5748SOL    HW229124   1.089   3.411  15.243 -0.0978  0.5125  0.1414
 5749SOL     OW29125   0.219   2.735   4.682  0.0275 -0.5532 -0.7095
 5749SOL    HW129126   0.306   2.704   4.656 -0.2558 -0.9456 -1.1899
 5749SOL    HW229127   0.206   2.699   4.770  1.0844  0.9725  0.0667
 5750SOL     OW29128   3.352   2.757   4.126 -0.3782  0.4170  0.4078
 5750SOL    HW129129   3.320   2.734   4.213 -1.5201  0.6964  0.0717
 5750SOL    HW229130   3.439   2.718   4.121 -0.2902  0.4437  1.6917
 5751SOL     OW29131   0.016   0.262   1.514 -0.6709 -0.0903  0.8962
 5751SOL    HW129132   4.717   0.288   1.568 -1.6241  0.6985 -0.8043
 5751SOL    HW229133   0.011   0.320   1.437  0.6768 -1.2284 -0.0401
 5752SOL     OW29134   3.575   2.435  16.956  0.4265 -0.3442 -0.7304
 5752SOL    HW129135   3.568   2.472  16.868 -0.3649  2.3270  0.4609
 5752SOL    HW229136   3.669   2.432  16.973  0.5114  0.6949 -1.0115
 5753SOL     OW29137   3.574   2.987  13.016 -0.5671  0.3166  0.1218
 5753SOL    HW129138   3.636   2.916  12.999 -0.0282  0.1925  2.6027
 5753SOL    HW229139   3.493   2.943  13.043 -0.3071  0.6393  1.4326
 5754SOL     OW29140   0.650   1.297  16.204 -0.8163  0.6366  0.0091
 5754SOL    HW129141   0.560   1.275  16.227  0.0569 -1.1141  1.8399
 5754SOL    HW229142   0.688   1.331  16.286  0.3513  0.7845 -0.5911
 5755SOL     OW29143   4.679   0.302   2.822  0.0623  0.7888  0.2655
 5755SOL    HW129144   4.716   0.383   2.788  0.1012  1.2429  1.3794
 5755SOL    HW229145   4.586   0.306   2.800 -0.0307  1.3699  0.7518
 5756SOL     OW29146   0.049   3.169   3.472  0.1487 -0.1400 -0.2206
 5756SOL    HW129147   4.764   3.196   3.403  1.3896  1.3391 -0.7238
 5756SOL    HW229148   0.109   3.109   3.428  1.1121  1.0228 -0.4954
 5757SOL     OW29149   1.955   2.644  17.425  0.3201  0.1998 -0.2495
 5757SOL    HW129150   1.868   2.654  17.388  0.6592  2.3243 -0.4854
 5757SOL    HW229151   1.941   2.651  17.520  0.2534  0.7905 -0.2990
 5758SOL     OW29152   4.492   4.349   4.050  0.6022 -0.1858  0.5240
 5758SOL    HW129153   4.522   4.355   4.140  0.2033  0.4120  0.6238
 5758SOL    HW229154   4.403   4.313   4.056 -0.2320  1.8481  0.5309
 5759SOL     OW29155   0.965   1.867  18.879 -0.2687  0.4960 -0.3813
 5759SOL    HW129156   1.050   1.906  18.857  0.3213  0.3034  1.6455
 5759SOL    HW229157   0.908   1.942  18.898 -0.3144  0.5786 -0.8399
 5760SOL     OW29158   3.916   3.985  18.774  0.2415  0.5318 -0.1586
 5760SOL    HW129159   3.859   3.963  18.700 -0.5855 -0.3051  0.7263
 5760SOL    HW229160   3.857   4.018  18.841  1.2696  3.5766 -0.7609
 5761SOL     OW29161   4.604   1.811   4.692  0.0721 -0.3757  0.9437
 5761SOL    HW129162   4.642   1.762   4.765 -0.8550 -1.4716  0.7079
 5761SOL    HW229163   4.539   1.868   4.733  0.3733 -0.1526  1.1063
 5762SOL     OW29164   0.561   2.673  17.835  0.2216 -0.2260  0.6921
 5762SOL    HW129165   0.523   2.707  17.917  0.6869 -1.4566  1.4092
 5762SOL    HW229166   0.627   2.610  17.863 -0.7507 -1.8403 -0.6759
 5763SOL     OW29167   4.124   1.953   3.596 -0.0246  0.1939 -0.2248
 5763SOL    HW129168   4.143   1.913   3.681  0.6514  0.8164 -0.0877
 5763SOL    HW229169   4.083   1.882   3.546  1.7193 -0.8477 -0.1836
 5764SOL     OW29170   3.450   0.324  16.487  0.1080 -0.1868 -0.3008
 5764SOL    HW129171   3.529   0.375  16.506 -0.7898  1.9323 -2.2242
 5764SOL    HW229172   3.469   0.279  16.405 -0.3831 -0.3017 -0.3547
 5765SOL     OW29173   1.657   1.616  12.378 -0.6475 -0.2686 -0.2238
 5765SOL    HW129174   1.671   1.696  12.326 -0.7765 -0.5696 -0.7255
 5765SOL    HW229175   1.562   1.603  12.377 -0.6578 -0.2243  0.1673
 5766SOL     OW29176   1.052   3.504   4.338  0.3754 -0.7059  0.2597
 5766SOL    HW129177   1.004   3.434   4.382 -0.7952 -0.4038 -0.5190
 5766SOL    HW229178   1.044   3.484   4.245  1.3352 -0.3700  0.1000
 5767SOL     OW29179   4.265   0.727   0.103 -0.0261 -0.4718  0.2898
 5767SOL    HW129180   4.330   0.797   0.098 -2.4224  1.7352  0.2007
 5767SOL    HW229181   4.310   0.650   0.068  1.9157  1.5139 -1.5635
 5768SOL     OW29182   4.072   3.087   4.038 -0.3851 -0.2500  0.8756
 5768SOL    HW129183   3.994   3.113   3.989  0.1076 -0.5993 -0.1038
 5768SOL    HW229184   4.069   3.140   4.118 -0.4730  1.3148 -0.1579
 5769SOL     OW29185   4.230   0.001   7.767 -0.0378  0.0955  0.0752
 5769SOL    HW129186   4.171   0.070   7.737 -1.6562 -0.3311  2.2991
 5769SOL    HW229187   4.306   0.048   7.802  0.1607  0.6682 -1.1068
 5770SOL     OW29188   3.788   3.361  15.957  0.1215 -0.3140 -0.2938
 5770SOL    HW129189   3.731   3.348  16.033 -0.7714  1.2814 -0.7187
 5770SOL    HW229190   3.761   3.293  15.896  0.2280 -1.0228  0.4350
 5771SOL     OW29191   3.087   1.769  20.142  0.8960 -0.3197 -0.3086
 5771SOL    HW129192   3.176   1.757  20.175  0.8254 -0.8501 -0.3126
 5771SOL    HW229193   3.032   1.723  20.206  0.4979  1.3511  0.5339
 5772SOL     OW29194   2.341   3.913  15.867 -0.1555  0.0415 -0.4140
 5772SOL    HW129195   2.370   3.985  15.922 -3.7382  0.7173  0.6365
 5772SOL    HW229196   2.282   3.953  15.803 -2.0613 -1.9082  0.0968
 5773SOL     OW29197   3.799   0.493  16.211 -0.2408  0.0082 -0.0601
 5773SOL    HW129198   3.757   0.577  16.232  0.0177  0.1459 -0.0941
 5773SOL    HW229199   3.728   0.440  16.174 -0.4430  0.1518  0.1190
 5774SOL     OW29200   0.846   2.333  16.126 -0.3172 -0.4060  0.5400
 5774SOL    HW129201   0.869   2.382  16.205 -0.1486  0.1440  0.1489
 5774SOL    HW229202   0.823   2.400  16.062  0.0498 -0.8291 -0.0386
 5775SOL     OW29203   4.589   1.898   2.808 -0.0725  1.0694  0.1836
 5775SOL    HW129204   4.599   1.867   2.718  0.7932  2.4945 -0.2224
 5775SOL    HW229205   4.525   1.969   2.802 -0.3633  0.8540  0.7603
 5776SOL     OW29206   3.641   2.629  14.053 -0.1035  0.7316  0.3099
 5776SOL    HW129207   3.664   2.536  14.054 -1.7471  0.3292 -1.1292
 5776SOL    HW229208   3.653   2.658  14.144  2.8337 -0.2996  0.2548
 5777SOL     OW29209   4.311   2.431  16.932 -0.3275  0.0352 -0.0525
 5777SOL    HW129210   4.280   2.466  16.849 -1.8556 -0.1577  0.4372
 5777SOL    HW229211   4.347   2.507  16.978 -1.8521  0.6244  0.1931
 5778SOL     OW29212   4.549   3.764  20.508  0.3143 -0.6546 -0.0675
 5778SOL    HW129213   4.501   3.731  20.432 -0.1690 -0.1653  0.0264
 5778SOL    HW229214   4.640   3.741  20.491  0.4294  1.0091 -1.5953
 5779SOL     OW29215   1.788   2.119   0.963 -0.0987 -1.0457  0.2388
 5779SOL    HW129216   1.737   2.079   1.033 -0.2863 -0.6252  0.3416
 5779SOL    HW229217   1.744   2.091   0.883 -1.0779  0.1077  0.3583
 5780SOL     OW29218   0.775   0.949  16.852  0.0821  0.5662  0.2762
 5780SOL    HW129219   0.682   0.926  16.858  0.5568 -1.4345  0.0408
 5780SOL    HW229220   0.778   1.043  16.872 -2.0670  0.7756 -0.3412
 5781SOL     OW29221   1.993   4.431   7.136  0.0473  0.2057 -0.0148
 5781SOL    HW129222   1.973   4.493   7.065 -0.8086  0.2222  0.2493
 5781SOL    HW229223   1.909   4.394   7.160  0.7013 -1.8038 -0.8532
 5782SOL     OW29224   1.735   3.107   5.128 -0.0848 -0.1583  0.7451
 5782SOL    HW129225   1.766   3.046   5.195 -1.1449 -1.7121 -0.1669
 5782SOL    HW229226   1.640   3.094   5.126 -0.0075 -0.4052 -1.3278
 5783SOL     OW29227   2.352   4.027   2.219  0.6513 -0.0239 -0.9601
 5783SOL    HW129228   2.281   3.980   2.175  0.2040 -0.6076  0.4159
 5783SOL    HW229229   2.421   3.961   2.232 -0.4771 -0.5860  2.1133
 5784SOL     OW29230   0.465   0.070  14.205 -0.1514 -0.2249  0.4289
 5784SOL    HW129231   0.541   0.014  14.190  0.3241  0.9354 -1.4770
 5784SOL    HW229232   0.499   0.159  14.199 -2.0049  0.3103 -2.1726
 5785SOL     OW29233   0.692   2.177   2.399 -0.5750 -0.3704 -0.0947
 5785SOL    HW129234   0.671   2.233   2.473  0.4071 -0.1679  0.0253
 5785SOL    HW229235   0.779   2.204   2.371 -0.5205 -1.1302 -0.6823
 5786SOL     OW29236   2.960   2.681  17.079  0.0545 -0.2769 -0.5013
 5786SOL    HW129237   2.932   2.665  16.989  0.0705  0.1319 -0.5772
 5786SOL    HW229238   3.054   2.696  17.073 -0.1067  0.7217 -0.5345
 5787SOL     OW29239   1.097   0.365   8.231  0.3565 -0.1597  0.1980
 5787SOL    HW129240   1.120   0.274   8.209 -1.2939 -0.4086 -0.4523
 5787SOL    HW229241   1.006   0.361   8.259 -0.3046  1.6100 -1.7434
 5788SOL     OW29242   2.819   4.149  20.347  0.1571  0.0945 -1.0317
 5788SOL    HW129243   2.834   4.101  20.266  1.0842  1.0424 -1.4247
 5788SOL    HW229244   2.727   4.135  20.368 -0.2129  0.3509 -2.5556
 5789SOL     OW29245   1.853   2.059  18.531  0.2960  0.0130  0.0345
 5789SOL    HW129246   1.928   2.043  18.588  0.2443  0.5997  0.2697
 5789SOL    HW229247   1.856   1.988  18.467  0.7509 -0.2580  0.3553
 5790SOL     OW29248   2.380   0.967   3.346 -0.2899  0.0264 -0.3858
 5790SOL    HW129249   2.341   0.974   3.260  0.3234 -0.4386 -0.7052
 5790SOL    HW229250   2.316   0.917   3.397 -0.3227 -0.3333 -0.7774
 5791SOL     OW29251   1.289   4.156  11.780 -0.2242 -0.1944  0.1045
 5791SOL    HW129252   1.383   4.162  11.764 -0.1198 -1.1307  0.3395
 5791SOL    HW229253   1.251   4.140  11.693  0.0205 -1.7744  0.2778
 5792SOL     OW29254   2.887   2.229   0.366  0.4427 -0.0418  0.3528
 5792SOL    HW129255   2.860   2.232   0.274  0.5222 -1.7495  0.2785
 5792SOL    HW229256   2.951   2.300   0.374 -0.0332  0.5181 -0.7596
 5793SOL     OW29257   2.967   4.172   4.969  0.2809  0.2944 -0.0664
 5793SOL    HW129258   2.978   4.192   5.062 -0.6946  0.5564 -0.0106
 5793SOL    HW229259   2.886   4.217   4.943  0.3857 -0.0214 -0.9669
 5794SOL     OW29260   2.531   0.635   3.511  0.0803 -0.4670  0.2413
 5794SOL    HW129261   2.502   0.693   3.582 -0.3746  0.8285 -1.0048
 5794SOL    HW229262   2.450   0.609   3.467  0.6357  1.4350 -1.9107
 5795SOL     OW29263   2.752   2.292   4.223  0.4717 -0.2485 -0.0751
 5795SOL    HW129264   2.755   2.292   4.319  1.8929 -0.5800 -0.1178
 5795SOL    HW229265   2.767   2.200   4.199  1.7487  0.1195 -0.6655
 5796SOL     OW29266   3.050   4.182  14.785 -0.1742  0.1368 -0.1563
 5796SOL    HW129267   3.134   4.202  14.827  0.3648  2.3867 -2.2837
 5796SOL    HW229268   3.016   4.106  14.832  1.5789  1.1882  2.7745
 5797SOL     OW29269   2.287   0.991  20.383  0.5727 -0.2186 -0.0989
 5797SOL    HW129270   2.248   0.906  20.401 -0.6738  0.5905  0.9983
 5797SOL    HW229271   2.381   0.977  20.397  0.2082 -1.0093  1.6265
 5798SOL     OW29272   1.525   0.421  15.836 -0.2244  0.2152 -0.3800
 5798SOL    HW129273   1.607   0.373  15.831 -0.1918  0.2891 -0.5566
 5798SOL    HW229274   1.460   0.354  15.858 -0.4944 -0.2633 -2.5679
 5799SOL     OW29275   2.770   0.502  21.195  0.6217 -0.2808 -0.2491
 5799SOL    HW129276   2.737   0.585   0.033 -1.8395 -0.5695 -1.8520
 5799SOL    HW229277   2.766   0.513  21.099  2.7910 -1.2655 -0.4485
 5800SOL     OW29278   2.833   1.403   8.261 -0.0025 -0.2347 -0.3446
 5800SOL    HW129279   2.783   1.468   8.212  0.4533 -0.2428 -0.8253
 5800SOL    HW229280   2.913   1.449   8.287 -0.4534 -0.1015  0.7716
 5801SOL     OW29281   2.231   3.841  13.082  0.5582 -0.3597 -0.2270
 5801SOL    HW129282   2.258   3.916  13.134 -0.4810  2.0350 -3.1074
 5801SOL    HW229283   2.303   3.780  13.089  1.8360  1.3257  1.3275
 5802SOL     OW29284   0.820   0.615   9.314  0.0186 -0.0266  0.1509
 5802SOL    HW129285   0.783   0.554   9.377  1.2879 -0.9983 -0.0435
 5802SOL    HW229286   0.822   0.567   9.231  0.8358  0.3309 -0.0408
 5803SOL     OW29287   4.366   0.280   3.331  0.1653 -0.6236 -0.2384
 5803SOL    HW129288   4.443   0.271   3.387 -1.1610  1.6080  1.9718
 5803SOL    HW229289   4.316   0.200   3.347  0.0278 -0.2099  1.4247
 5804SOL     OW29290   1.391   4.083  16.903  0.3359  0.3534 -0.1528
 5804SOL    HW129291   1.435   4.014  16.953 -0.4540  0.9109  1.3101
 5804SOL    HW229292   1.320   4.038  16.858 -0.6359  0.3263  1.3835
 5805SOL     OW29293   2.506   0.792  13.498  0.2212 -0.3513 -0.2094
 5805SOL    HW129294   2.596   0.775  13.471  0.3072  0.9620 -0.7557
 5805SOL    HW229295   2.458   0.806  13.416  0.1218  1.8661  0.2205
 5806SOL     OW29296   3.755   3.457   3.107  0.4632  0.2624  0.5404
 5806SOL    HW129297   3.685   3.459   3.173 -1.1656 -0.4917 -1.1818
 5806SOL    HW229298   3.826   3.408   3.150 -0.6542 -0.3581  1.6898
 5807SOL     OW29299   2.065   2.557   5.740 -0.0786 -0.2871  0.1323
 5807SOL    HW129300   2.132   2.624   5.755  0.0659 -0.6749  1.1896
 5807SOL    HW229301   2.108   2.475   5.762 -0.8414 -0.5533  0.6208
 5808SOL     OW29302   0.176   0.834  17.053  0.1818 -0.3578  0.4596
 5808SOL    HW129303   0.114   0.902  17.025  1.6196  0.6645 -0.2679
 5808SOL    HW229304   0.194   0.854  17.145  1.2450  0.7543  0.0194
 5809SOL     OW29305   3.310   3.978  10.358 -0.4750 -1.3020 -0.0151
 5809SOL    HW129306   3.355   3.997  10.440  0.8779  0.3879 -1.1399
 5809SOL    HW229307   3.282   4.063  10.325 -1.7992 -2.0538 -0.8739
 5810SOL     OW29308   1.942   1.741  18.802 -0.5793  0.1546  0.0963
 5810SOL    HW129309   1.996   1.821  18.799 -1.6570  0.9394  1.2358
 5810SOL    HW229310   1.883   1.756  18.876 -0.3202 -2.0015  0.7294
 5811SOL     OW29311   2.200   0.178  19.140  0.0230  0.2836 -0.4867
 5811SOL    HW129312   2.295   0.176  19.122  0.0494  0.0900 -0.3191
 5811SOL    HW229313   2.181   0.092  19.177 -0.2105  0.3426 -0.4732
 5812SOL     OW29314   3.580   0.372  16.111  0.4100 -0.2330 -0.2708
 5812SOL    HW129315   3.500   0.420  16.133  0.2370 -0.3436 -0.6720
 5812SOL    HW229316   3.550   0.287  16.081  0.5282  0.8020 -3.3404
 5813SOL     OW29317   1.519   2.816  19.734  0.0126  0.2376 -0.1945
 5813SOL    HW129318   1.501   2.897  19.687 -1.8352 -0.6533 -1.0243
 5813SOL    HW229319   1.522   2.841  19.826  0.5497  1.4284 -0.5382
 5814SOL     OW29320   4.615   0.784  18.654 -0.3838 -0.2396 -0.0778
 5814SOL    HW129321   4.586   0.706  18.607 -0.2483  1.3376 -2.8018
 5814SOL    HW229322   4.706   0.766  18.677 -0.4745 -1.0457 -0.3663
 5815SOL     OW29323   3.087   3.097  19.213  0.4135  0.0839  0.6363
 5815SOL    HW129324   3.124   3.185  19.225  0.2954  0.2031  0.1448
 5815SOL    HW229325   2.996   3.113  19.190  0.7056 -0.1261 -0.6711
 5816SOL     OW29326   1.575   3.156  14.053  0.4129  0.0485  0.6802
 5816SOL    HW129327   1.505   3.150  14.119 -0.7577 -0.2167 -0.5739
 5816SOL    HW229328   1.558   3.239  14.008  0.9449  0.0050  0.4022
 5817SOL     OW29329   3.016   4.192   7.498 -0.0841  0.0126  0.1384
 5817SOL    HW129330   2.995   4.109   7.457  1.7489  0.9175 -2.6110
 5817SOL    HW229331   2.937   4.246   7.486  0.0057 -0.1364 -1.1076
 5818SOL     OW29332   0.777   3.872   4.369 -0.4451  0.0538  0.5448
 5818SOL    HW129333   0.708   3.821   4.326 -1.3624  0.9068  1.0097
 5818SOL    HW229334   0.836   3.897   4.298 -1.5928  0.8703 -0.1047
 5819SOL     OW29335   0.506   2.416   1.128  0.4061 -0.5161  0.3954
 5819SOL    HW129336   0.425   2.449   1.167  0.8304 -1.2896  1.9198
 5819SOL    HW229337   0.575   2.466   1.170  0.6710  0.9413 -1.7262
 5820SOL     OW29338   1.009   0.924   4.572 -0.4717 -0.1110 -0.1256
 5820SOL    HW129339   1.063   0.996   4.540 -2.4655  0.4724 -2.2041
 5820SOL    HW229340   1.011   0.933   4.667  0.7882  1.5789 -0.3084
 5821SOL     OW29341   3.674   2.049  20.681 -0.0744  0.6501  0.0373
 5821SOL    HW129342   3.627   2.088  20.607 -0.7478  0.6540  0.4737
 5821SOL    HW229343   3.615   2.058  20.755 -0.4217 -1.6130  0.0473
 5822SOL     OW29344   1.792   1.616   5.188 -0.0008 -0.5787 -0.1329
 5822SOL    HW129345   1.810   1.531   5.147  0.7401  0.0922 -1.1783
 5822SOL    HW229346   1.725   1.656   5.133 -2.2906 -1.6416  1.8817
 5823SOL     OW29347   1.072   2.678   5.499 -0.2138  0.1579 -0.1547
 5823SOL    HW129348   1.008   2.749   5.491 -0.2919  0.4545  2.9707
 5823SOL    HW229349   1.044   2.631   5.578  0.9904 -2.1763 -1.1402
 5824SOL     OW29350   3.708   4.486  12.073  0.2536 -0.0131  0.6655
 5824SOL    HW129351   3.760   4.566  12.062  0.7058 -0.4375 -0.2857
 5824SOL    HW229352   3.633   4.514  12.125 -0.3213  1.3430 -0.8882
 5825SOL     OW29353   3.931   3.357   2.149  0.1225  0.8672  0.0443
 5825SOL    HW129354   3.970   3.373   2.063  0.5566  0.3345  0.1417
 5825SOL    HW229355   3.947   3.264   2.166  0.5799  1.1036  0.9603
 5826SOL     OW29356   4.328   1.734   5.541  0.2571 -0.5489 -0.3029
 5826SOL    HW129357   4.392   1.720   5.471  0.0862  1.8543 -0.9352
 5826SOL    HW229358   4.378   1.777   5.611 -0.0473 -1.1324  0.2762
 5827SOL     OW29359   3.840   0.307   5.379  0.2288 -0.3772  0.1014
 5827SOL    HW129360   3.788   0.360   5.320 -0.4591 -2.1622 -0.8832
 5827SOL    HW229361   3.866   0.367   5.449 -0.3985  1.2861 -1.1073
 5828SOL     OW29362   0.929   0.715  17.096 -0.3759  0.3391  0.0040
 5828SOL    HW129363   0.938   0.628  17.058 -1.1533 -0.5106  1.7504
 5828SOL    HW229364   0.982   0.772  17.040  2.3570 -1.7363  0.5278
 5829SOL     OW29365   2.989   2.738  20.837 -0.3928  0.3351 -0.9171
 5829SOL    HW129366   2.962   2.667  20.896 -1.3408 -0.2781 -2.0716
 5829SOL    HW229367   3.016   2.693  20.757  2.9381  1.0398 -0.1683
 5830SOL     OW29368   3.795   3.515  19.464 -0.6729  0.2805  0.2925
 5830SOL    HW129369   3.823   3.554  19.547 -0.3819  0.0091  0.3232
 5830SOL    HW229370   3.845   3.433  19.458  0.0424  0.7841 -0.6243
 5831SOL     OW29371   3.749   1.717  19.651 -0.4099  0.3350 -0.0061
 5831SOL    HW129372   3.762   1.628  19.617 -1.4717  0.0413  0.3572
 5831SOL    HW229373   3.813   1.725  19.722  0.7758  0.4181 -1.0848
 5832SOL     OW29374   3.795   0.939  20.357 -0.3370 -0.4323 -0.2361
 5832SOL    HW129375   3.747   1.014  20.393  2.1773  0.4709  1.2777
 5832SOL    HW229376   3.757   0.863  20.402 -1.1376  0.1783  0.1250
 5833SOL     OW29377   2.669   1.411   7.131  0.3167 -0.3373 -0.0614
 5833SOL    HW129378   2.716   1.493   7.113  1.4822 -1.0914 -0.4201
 5833SOL    HW229379   2.701   1.350   7.065 -0.9925 -0.9253 -0.1610
 5834SOL     OW29380   3.973   1.700   1.942  0.1963 -0.2078 -0.2237
 5834SOL    HW129381   4.004   1.708   1.851 -0.3006 -0.6016 -0.4296
 5834SOL    HW229382   3.891   1.651   1.935  0.6413 -1.0597  0.5334
 5835SOL     OW29383   0.238   1.344   2.884 -0.1190 -0.4669  0.1831
 5835SOL    HW129384   0.144   1.332   2.891 -0.2707  0.3899 -0.3691
 5835SOL    HW229385   0.249   1.406   2.812  0.8787 -0.8202  0.0296
 5836SOL     OW29386   4.716   1.207   2.285  0.5293  0.4268 -0.3697
 5836SOL    HW129387   4.771   1.133   2.309  1.5794  1.3911  0.1871
 5836SOL    HW229388   4.657   1.220   2.360  1.2866  1.0519  0.1126
 5837SOL     OW29389   2.421   1.903  16.566 -0.4765 -0.2369  0.4322
 5837SOL    HW129390   2.347   1.936  16.516  0.6962  1.5699 -0.0931
 5837SOL    HW229391   2.400   1.923  16.657 -0.8602 -0.1878  0.3326
 5838SOL     OW29392   0.209   3.826   0.165  0.5581  0.2387  0.2158
 5838SOL    HW129393   0.301   3.802   0.156  0.1725 -1.1820  0.0720
 5838SOL    HW229394   0.183   3.854   0.077  0.4520 -0.7758 -0.0769
 5839SOL     OW29395   2.046   2.241  18.208 -1.0287 -0.0475  0.4656
 5839SOL    HW129396   1.981   2.241  18.278 -0.1017  0.7515  1.3085
 5839SOL    HW229397   2.073   2.149  18.201 -1.8844 -0.2965  0.4530
 5840SOL     OW29398   0.882   2.779   2.289 -0.1407  0.4607 -0.5837
 5840SOL    HW129399   0.809   2.723   2.316  0.9519 -0.2973  0.7836
 5840SOL    HW229400   0.860   2.865   2.323 -0.8552  0.4373 -0.9788
 5841SOL     OW29401   2.517   0.487  18.551 -0.3659 -0.4913 -0.3959
 5841SOL    HW129402   2.471   0.468  18.469 -0.8900 -0.2698 -0.1525
 5841SOL    HW229403   2.610   0.476  18.529 -0.5740 -1.6576 -0.7035
 5842SOL     OW29404   4.064   2.884  20.943  0.2537  0.4443 -0.1755
 5842SOL    HW129405   4.097   2.903  21.031  0.5382  1.7476 -0.5649
 5842SOL    HW229406   4.024   2.966  20.914  2.7369  0.8675 -2.4206
 5843SOL     OW29407   3.927   2.428  20.471 -0.0431  0.4594  0.0267
 5843SOL    HW129408   3.946   2.503  20.526 -0.0494 -0.6624  1.5512
 5843SOL    HW229409   3.833   2.435  20.453  0.3831  2.0436 -1.6744
 5844SOL     OW29410   1.254   3.101  16.800 -0.1618 -0.4511 -0.1968
 5844SOL    HW129411   1.326   3.144  16.753 -0.7665  0.0449 -0.6827
 5844SOL    HW229412   1.287   3.014  16.822  0.8254  0.0285  0.1744
 5845SOL     OW29413   1.371   1.278  14.961 -0.7676 -0.0805  0.6828
 5845SOL    HW129414   1.374   1.183  14.950  0.7355  0.2077 -1.4007
 5845SOL    HW229415   1.284   1.302  14.928  0.1803 -0.3159 -1.9499
 5846SOL     OW29416   2.736   2.837   3.567  0.0446  0.9156 -0.3459
 5846SOL    HW129417   2.723   2.869   3.656 -3.7793  2.8876 -1.6213
 5846SOL    HW229418   2.723   2.742   3.574  2.2920  0.7727  1.6948
 5847SOL     OW29419   3.173   3.116   4.902  0.5628  0.3650  0.0912
 5847SOL    HW129420   3.171   3.210   4.886 -0.5328  0.1623 -0.9512
 5847SOL    HW229421   3.122   3.104   4.982  0.0876  0.5652 -0.1866
 5848SOL     OW29422   4.745   1.893   3.995  0.2716  0.0889 -0.4952
 5848SOL    HW129423   0.033   1.936   3.938  0.1551  2.3343  1.0841
 5848SOL    HW229424   0.021   1.854   4.065  0.1959 -0.7889 -0.9199
 5849SOL     OW29425   0.452   3.690  10.247  0.0080 -0.4050 -0.5061
 5849SOL    HW129426   0.485   3.706  10.336  0.8701 -0.0721 -0.8945
 5849SOL    HW229427   0.482   3.601  10.226  0.9258  0.0320 -0.9950
 5850SOL     OW29428   4.726   3.882   5.662  0.0827 -0.2274  0.1210
 5850SOL    HW129429   4.740   3.897   5.569  0.1826  0.1825  0.2018
 5850SOL    HW229430   4.641   3.838   5.667 -1.4412  2.7201  0.0951
 5851SOL     OW29431   3.973   2.141  18.659 -0.1968 -0.2324 -0.1602
 5851SOL    HW129432   4.044   2.206  18.658  1.1739 -1.7066 -0.0181
 5851SOL    HW229433   3.894   2.191  18.641  0.8924  1.4374 -0.3346
 5852SOL     OW29434   0.385   3.009   1.265  0.1522 -0.0488  0.0081
 5852SOL    HW129435   0.417   3.026   1.354 -0.4152 -0.6555  0.3320
 5852SOL    HW229436   0.351   3.093   1.236 -0.7608 -0.1284  0.8281
 5853SOL     OW29437   1.971   1.633  19.889  0.4001  0.0416  0.3361
 5853SOL    HW129438   1.891   1.582  19.898  0.7220 -0.4599  0.3465
 5853SOL    HW229439   2.006   1.607  19.803 -0.4764  1.7020 -0.5164
 5854SOL     OW29440   3.615   4.562  14.789 -0.8654  0.0020 -0.3522
 5854SOL    HW129441   3.608   4.657  14.799 -1.9128 -0.0875 -0.2674
 5854SOL    HW229442   3.670   4.551  14.711 -0.2232  0.6726  0.0033
 5855SOL     OW29443   4.303   3.612   2.476  0.2881 -0.3912  0.1707
 5855SOL    HW129444   4.278   3.697   2.511  2.3572  0.0499  0.5575
 5855SOL    HW229445   4.335   3.564   2.552  1.9786 -0.4701 -0.5994
 5856SOL     OW29446   3.639   4.469  11.602  0.0608 -0.1502 -0.1237
 5856SOL    HW129447   3.654   4.421  11.684 -0.5171  0.6645  0.4630
 5856SOL    HW229448   3.694   4.547  11.609  0.2199 -0.2181 -0.6307
 5857SOL     OW29449   0.306   3.570  16.732 -0.0386 -0.2889  0.1216
 5857SOL    HW129450   0.377   3.514  16.702  0.7776 -0.3159  2.0672
 5857SOL    HW229451   0.292   3.633  16.661  1.4971 -0.6850 -0.5239
 5858SOL     OW29452   0.425   0.524   1.624  0.3256  0.0875  0.1145
 5858SOL    HW129453   0.465   0.437   1.628 -1.4415 -0.7075  0.4843
 5858SOL    HW229454   0.410   0.539   1.531 -0.5810 -0.5394  0.1693
 5859SOL     OW29455   4.019   1.382   3.081  0.5411  0.4287 -0.0135
 5859SOL    HW129456   4.070   1.314   3.124  1.0627  0.8325  0.0102
 5859SOL    HW229457   3.980   1.339   3.005  2.7919  0.7210 -1.3070
 5860SOL     OW29458   1.303   0.589   2.277 -0.8462 -0.2799  0.0150
 5860SOL    HW129459   1.264   0.504   2.296  0.1330 -0.7339 -0.0427
 5860SOL    HW229460   1.390   0.585   2.315 -1.1978  1.0907  0.9684
 5861SOL     OW29461   2.818   0.462  16.265  0.2872 -0.3893  1.0834
 5861SOL    HW129462   2.796   0.374  16.234 -0.4506  0.5069 -0.9620
 5861SOL    HW229463   2.878   0.447  16.338  0.6152 -2.5846  0.3900
 5862SOL     OW29464   3.576   4.743  18.665 -0.7016 -0.1299  0.0746
 5862SOL    HW129465   3.623   4.743  18.748 -0.6905 -0.2021  0.0682
 5862SOL    HW229466   3.590   4.656  18.629  1.0630  0.6221 -1.0205
 5863SOL     OW29467   4.400   1.127  10.728  0.4823  0.2206 -0.1411
 5863SOL    HW129468   4.326   1.170  10.685  2.0721  1.5388 -1.5296
 5863SOL    HW229469   4.452   1.091  10.657  0.2212 -2.3147  0.9283
 5864SOL     OW29470   4.765   1.735   4.221  0.0355  0.1634 -0.1643
 5864SOL    HW129471   4.705   1.691   4.161  0.7985 -0.0026 -0.8005
 5864SOL    HW229472   0.033   1.663   4.268 -1.1000  0.3008  1.1250
 5865SOL     OW29473   1.494   0.514  15.560 -0.1946 -0.5710 -0.3683
 5865SOL    HW129474   1.501   0.498  15.654 -0.1065 -2.1190 -0.6356
 5865SOL    HW229475   1.547   0.592  15.545  0.5920 -0.8988  0.7047
 5866SOL     OW29476   1.132   3.183   4.080 -0.1149  0.0495 -0.1200
 5866SOL    HW129477   1.175   3.129   4.013  1.5191  0.6494  0.4377
 5866SOL    HW229478   1.100   3.259   4.031  0.1293 -0.0292 -0.4090
 5867SOL     OW29479   1.689   1.459   2.505  0.2781 -0.6927 -0.0495
 5867SOL    HW129480   1.751   1.428   2.572  1.2828  1.1191 -0.1578
 5867SOL    HW229481   1.613   1.401   2.514  0.1026  0.0908  3.1713
 5868SOL     OW29482   3.652   0.695   3.774  0.6482 -0.5116  0.0317
 5868SOL    HW129483   3.730   0.709   3.721  0.1542  1.4071 -0.1682
 5868SOL    HW229484   3.638   0.600   3.771  1.6201 -0.5987 -1.8363
 5869SOL     OW29485   3.435   0.447   8.525  0.2401  0.2506  0.3203
 5869SOL    HW129486   3.486   0.366   8.520  1.6374  1.2129 -0.8718
 5869SOL    HW229487   3.362   0.433   8.464 -0.0771 -0.5008  0.8638
 5870SOL     OW29488   4.461   1.672   3.476  0.3908 -0.0945 -0.4912
 5870SOL    HW129489   4.372   1.656   3.443  0.6619 -1.2869 -0.6459
 5870SOL    HW229490   4.515   1.606   3.432  1.4179  0.8530 -0.6712
 5871SOL     OW29491   2.304   0.429   6.315  0.2484  0.2009 -0.5693
 5871SOL    HW129492   2.341   0.487   6.382  0.0308  2.0922 -2.1032
 5871SOL    HW229493   2.323   0.341   6.347  2.3145  1.1391  0.7691
 5872SOL     OW29494   3.784   2.911  15.557  0.1452  0.1480  0.5567
 5872SOL    HW129495   3.830   2.891  15.476 -0.6219  1.0705 -0.1220
 5872SOL    HW229496   3.748   2.827  15.586  0.8074 -0.2627  0.1753
 5873SOL     OW29497   1.598   2.404  18.464  0.3444  0.5492  0.1375
 5873SOL    HW129498   1.505   2.382  18.459  0.0903  1.5071  0.6694
 5873SOL    HW229499   1.602   2.495  18.435  1.0854  0.5947  0.4025
 5874SOL     OW29500   3.700   1.276   3.205  0.0940 -0.2926  0.0790
 5874SOL    HW129501   3.698   1.355   3.259 -1.7535 -1.2056  1.3218
 5874SOL    HW229502   3.652   1.300   3.126 -2.2075 -0.8514  1.3354
 5875SOL     OW29503   3.987   2.081  16.465 -0.5504  0.1075 -0.0079
 5875SOL    HW129504   4.013   1.991  16.484 -1.0435 -0.0417 -0.0562
 5875SOL    HW229505   4.035   2.134  16.528 -0.9634 -0.2600  0.6112
 5876SOL     OW29506   0.338   2.823   1.837 -0.1325  0.2901 -1.2446
 5876SOL    HW129507   0.303   2.895   1.785  0.7140  0.9329 -0.9252
 5876SOL    HW229508   0.430   2.845   1.850 -0.5408  0.5137  1.1810
 5877SOL     OW29509   2.702   3.570  13.983 -0.2867  0.1464  0.2630
 5877SOL    HW129510   2.686   3.660  14.010 -0.7772  0.2399 -0.3292
 5877SOL    HW229511   2.616   3.528  13.988  0.2657 -0.7575  2.2794
 5878SOL     OW29512   1.523   3.565   0.524 -0.1500 -0.8473 -0.0669
 5878SOL    HW129513   1.506   3.650   0.484  1.4180  0.0932  1.2525
 5878SOL    HW229514   1.601   3.533   0.479 -0.3563 -1.2940 -0.1056
 5879SOL     OW29515   2.173   3.521  14.611 -0.1470 -0.3967  0.0587
 5879SOL    HW129516   2.085   3.535  14.646  0.8859 -0.3828  2.6497
 5879SOL    HW229517   2.160   3.461  14.537 -2.2316 -0.8927  0.8339
 5880SOL     OW29518   1.574   4.326  20.779  0.5988 -0.2645 -0.2125
 5880SOL    HW129519   1.561   4.269  20.704  1.4215 -2.1298  1.0732
 5880SOL    HW229520   1.621   4.402  20.744  3.4633 -2.4068 -1.0364
 5881SOL     OW29521   0.847   4.361   0.778  0.0999 -0.3997  0.3717
 5881SOL    HW129522   0.931   4.396   0.748 -0.4421  1.7097  1.3253
 5881SOL    HW229523   0.835   4.400   0.865 -1.4662 -1.3574  0.5765
 5882SOL     OW29524   2.390   0.592   3.289  0.0673  0.1424 -0.3258
 5882SOL    HW129525   2.360   0.504   3.269  0.7076  0.1294 -1.2221
 5882SOL    HW229526   2.365   0.644   3.213 -0.1625  0.7054  0.1306
 5883SOL     OW29527   3.704   0.485   0.271  0.2291  0.1003 -0.0953
 5883SOL    HW129528   3.734   0.547   0.337 -1.8722  0.5465  0.4596
 5883SOL    HW229529   3.680   0.407   0.321 -1.3144  0.4187 -0.3133
 5884SOL     OW29530   0.934   4.165   5.171  0.2113  0.2683  0.1086
 5884SOL    HW129531   0.974   4.204   5.093  1.9231 -1.2099  0.2430
 5884SOL    HW229532   0.945   4.071   5.159 -2.3703 -0.1083  0.6258
 5885SOL     OW29533   3.725   3.549   2.844 -0.3151 -0.3448 -0.0453
 5885SOL    HW129534   3.809   3.589   2.818 -0.0321 -0.0882  1.2709
 5885SOL    HW229535   3.732   3.538   2.939 -1.7764 -0.3365  0.0590
 5886SOL     OW29536   1.145   2.941  16.062 -0.4283 -0.8238 -0.0943
 5886SOL    HW129537   1.164   2.938  15.969 -1.9936 -0.9143 -0.4088
 5886SOL    HW229538   1.065   2.994  16.069 -0.2661 -0.7463  1.1896
 5887SOL     OW29539   0.529   3.568   9.430 -0.0013  0.0885 -0.0898
 5887SOL    HW129540   0.469   3.641   9.414 -0.2837 -0.1939 -0.2974
 5887SOL    HW229541   0.506   3.503   9.365  1.6766  0.6808 -1.2721
 5888SOL     OW29542   1.536   2.786   3.478  0.0841 -0.3330 -0.1633
 5888SOL    HW129543   1.500   2.703   3.445  0.4020 -0.1011 -1.0952
 5888SOL    HW229544   1.544   2.773   3.573 -1.1679 -0.8696 -0.1422
 5889SOL     OW29545   4.001   2.812   2.896  0.2431 -0.1914 -0.4479
 5889SOL    HW129546   4.040   2.847   2.816  1.1603  0.9796  0.5191
 5889SOL    HW229547   4.067   2.826   2.964 -1.5099  1.0252  1.0109
 5890SOL     OW29548   2.364   0.790  12.474 -0.5484 -0.3290  0.3233
 5890SOL    HW129549   2.367   0.880  12.504  0.0852  0.6135 -2.5064
 5890SOL    HW229550   2.403   0.739  12.544  1.9268  1.9559  0.6087
 5891SOL     OW29551   4.750   1.426   1.401  0.4985  0.1064  0.0645
 5891SOL    HW129552   4.677   1.363   1.401  1.2816 -0.8019 -0.1049
 5891SOL    HW229553   4.758   1.453   1.492 -0.7637  1.0341 -0.0951
 5892SOL     OW29554   0.013   0.228   5.482  0.5843 -0.7042 -0.2316
 5892SOL    HW129555   4.706   0.246   5.436  0.4834  2.3652  1.1557
 5892SOL    HW229556   4.768   0.158   5.543 -1.0356  0.1788  0.2256
 5893SOL     OW29557   1.476   4.604   0.389 -0.3686  0.6969  0.1273
 5893SOL    HW129558   1.487   4.608   0.294 -2.9964 -0.6384 -0.2506
 5893SOL    HW229559   1.412   4.673   0.408 -1.3417 -0.3533  0.6760
 5894SOL     OW29560   2.597   1.945   5.507  0.0369  0.1368 -0.0998
 5894SOL    HW129561   2.605   2.030   5.463 -0.9086  0.7237  0.8739
 5894SOL    HW229562   2.592   1.882   5.435  0.1754  0.9574 -0.8290
 5895SOL     OW29563   1.972   0.766   1.975 -0.4619  0.0356 -0.2221
 5895SOL    HW129564   1.962   0.678   2.011  0.9342  0.1386  0.3978
 5895SOL    HW229565   2.044   0.758   1.912  0.1253  0.8833  0.3396
 5896SOL     OW29566   0.388   4.150  13.407  0.8417  0.4803 -0.2219
 5896SOL    HW129567   0.366   4.142  13.314 -1.3844 -1.7486  0.4821
 5896SOL    HW229568   0.315   4.200  13.444  1.3516  0.7175  0.4517
 5897SOL     OW29569   2.712   3.429   4.838 -0.2194 -0.8699  0.0517
 5897SOL    HW129570   2.642   3.380   4.882 -2.0940  1.8205  0.0260
 5897SOL    HW229571   2.719   3.510   4.888  3.9902 -1.8509  1.0400
 5898SOL     OW29572   4.204   4.386   6.060  0.0281 -0.2555  0.1837
 5898SOL    HW129573   4.158   4.304   6.076  0.0887 -0.3867 -0.3257
 5898SOL    HW229574   4.150   4.432   5.996 -1.2876  1.1695  2.2888
 5899SOL     OW29575   0.039   4.617  18.004  0.1968  0.2009 -0.1910
 5899SOL    HW129576   4.740   4.592  17.950  0.3088 -1.7649  0.5579
 5899SOL    HW229577   0.084   4.535  18.023  1.3350  1.1196  1.1483
 5900SOL     OW29578   4.048   3.109  19.476 -0.0110 -0.1071  0.1504
 5900SOL    HW129579   4.096   3.063  19.408  0.1721  1.1628 -0.5880
 5900SOL    HW229580   3.980   3.048  19.504 -1.5416  0.2269 -2.8054
 5901SOL     OW29581   1.183   0.330   3.203 -0.0813 -0.0167 -0.3870
 5901SOL    HW129582   1.240   0.284   3.140  0.7410 -1.8233  1.6880
 5901SOL    HW229583   1.139   0.260   3.251 -0.6449  1.3737  1.1188
 5902SOL     OW29584   3.969   0.584  17.446  0.2801  0.0388 -0.2241
 5902SOL    HW129585   4.028   0.516  17.479  0.6545  0.6382  0.3493
 5902SOL    HW229586   3.882   0.555  17.472  0.3717 -0.6311 -0.6902
 5903SOL     OW29587   0.240   1.225   5.893  0.0393  0.1591  0.5148
 5903SOL    HW129588   0.165   1.219   5.833 -0.0392  0.7551  0.5492
 5903SOL    HW229589   0.206   1.272   5.969 -0.4896 -2.6458  2.0255
 5904SOL     OW29590   1.827   3.661  18.532 -0.1472  0.0869 -0.4523
 5904SOL    HW129591   1.849   3.739  18.482 -1.0754  0.1458 -0.7744
 5904SOL    HW229592   1.734   3.672  18.554  0.1022 -0.2281  0.7535
 5905SOL     OW29593   0.728   0.624   0.758 -0.0117 -0.1558 -0.0892
 5905SOL    HW129594   0.677   0.704   0.754  0.8136  0.2756 -2.0982
 5905SOL    HW229595   0.716   0.584   0.672 -1.0390 -2.5451  1.1710
 5906SOL     OW29596   1.297   4.035   2.039  0.3153  0.5023 -0.2011
 5906SOL    HW129597   1.390   4.044   2.058  0.4534 -1.5757  0.1775
 5906SOL    HW229598   1.290   4.051   1.945  1.4786 -2.2613 -0.7734
 5907SOL     OW29599   3.592   0.380   3.245  0.1842  0.1465 -0.3539
 5907SOL    HW129600   3.627   0.421   3.166 -1.4796  1.3724 -0.4385
 5907SOL    HW229601   3.510   0.339   3.217  1.1922 -2.1460  0.0097
 5908SOL     OW29602   0.110   1.334  20.920 -0.3850 -0.2618  0.3464
 5908SOL    HW129603   0.162   1.413  20.930 -2.1429  0.5238  3.1788
 5908SOL    HW229604   0.042   1.358  20.856  1.6157 -0.7327 -1.9376
 5909SOL     OW29605   0.479   2.261  11.165 -0.3100  0.1058  0.1800
 5909SOL    HW129606   0.517   2.329  11.220 -1.1934 -0.8554  2.0091
 5909SOL    HW229607   0.536   2.185  11.179 -1.0468 -0.3981  0.4793
 5910SOL     OW29608   3.952   2.497  15.507 -0.4511 -0.4876  0.3161
 5910SOL    HW129609   3.897   2.570  15.478 -1.0554 -2.5444 -3.6874
 5910SOL    HW229610   3.890   2.429  15.533  0.1289 -0.5594  1.4886
 5911SOL     OW29611   4.221   1.687   8.993  0.0923 -0.1389  0.0939
 5911SOL    HW129612   4.149   1.726   8.943 -1.2600  3.0993  4.6130
 5911SOL    HW229613   4.191   1.598   9.013 -1.1033 -0.0237 -1.2243
 5912SOL     OW29614   0.459   4.425   7.629  0.4329  0.4499 -0.3404
 5912SOL    HW129615   0.391   4.423   7.562  0.8095  1.9679 -0.7879
 5912SOL    HW229616   0.434   4.359   7.693 -1.7676  1.4230 -0.2032
 5913SOL     OW29617   0.450   3.264  20.915 -0.1252  0.3897  0.1368
 5913SOL    HW129618   0.367   3.241  20.874  0.6305 -0.4858 -0.9061
 5913SOL    HW229619   0.438   3.353  20.946 -0.8622  0.8906 -1.5958
 5914SOL     OW29620   4.645   1.254   5.978 -0.3059  0.2460 -0.1737
 5914SOL    HW129621   4.716   1.192   5.992  0.3600  1.0300 -0.0768
 5914SOL    HW229622   4.566   1.204   5.995  0.2141 -0.6853 -0.4885
 5915SOL     OW29623   2.213   4.301  18.242 -0.4328  0.2954 -0.0729
 5915SOL    HW129624   2.247   4.390  18.243 -0.5243  0.3232  1.6617
 5915SOL    HW229625   2.173   4.291  18.156 -0.3294  1.8979 -0.3051
 5916SOL     OW29626   4.580   4.133  19.963 -0.0162  0.6406  0.2613
 5916SOL    HW129627   4.486   4.116  19.967 -0.0342  0.8891  0.8329
 5916SOL    HW229628   4.620   4.058  20.008  0.1009  0.1147 -0.7151
 5917SOL     OW29629   1.324   3.097  10.318 -0.1433 -0.4800  0.0236
 5917SOL    HW129630   1.390   3.157  10.283 -0.3765 -0.2469 -0.0057
 5917SOL    HW229631   1.241   3.142  10.307 -0.1353 -0.1072  1.5512
 5918SOL     OW29632   0.706   0.437   6.824 -0.1743 -0.5899 -0.1666
 5918SOL    HW129633   0.629   0.475   6.781  0.7544  1.0652 -0.3629
 5918SOL    HW229634   0.675   0.414   6.911 -1.3507 -1.4744 -0.8202
 5919SOL     OW29635   3.287   4.279  19.066 -0.7667  0.2727 -0.4511
 5919SOL    HW129636   3.356   4.320  19.015 -0.2772  0.4940  0.3821
 5919SOL    HW229637   3.308   4.185  19.064  1.5793  0.7463  2.8443
 5920SOL     OW29638   2.874   0.902   5.827 -0.3870  0.5081  0.1859
 5920SOL    HW129639   2.779   0.918   5.831 -0.3438  0.7032  0.4207
 5920SOL    HW229640   2.881   0.812   5.793 -0.6541  0.5182  0.1003
 5921SOL     OW29641   3.314   2.621   2.717 -0.3331  1.2322 -0.2007
 5921SOL    HW129642   3.390   2.664   2.758 -0.0978  0.2250  0.4303
 5921SOL    HW229643   3.321   2.530   2.746 -0.6516  0.7116 -1.7929
 5922SOL     OW29644   0.753   0.398  19.185 -0.6420  0.1027 -0.3015
 5922SOL    HW129645   0.768   0.433  19.273 -0.7896  0.6798 -0.5054
 5922SOL    HW229646   0.833   0.350  19.164  0.0599  1.3882 -0.5352
 5923SOL     OW29647   3.671   0.875  12.611 -0.4286  0.2286 -0.7021
 5923SOL    HW129648   3.632   0.871  12.698 -0.3495 -0.1476 -0.6839
 5923SOL    HW229649   3.755   0.920  12.624  0.1477 -0.9526 -0.3826
 5924SOL     OW29650   0.475   0.258  18.584 -0.4508  0.2268  0.0063
 5924SOL    HW129651   0.384   0.272  18.607 -0.8454 -1.4913 -0.5050
 5924SOL    HW229652   0.486   0.163  18.586  1.2345  0.4168 -0.2469
 5925SOL     OW29653   4.298   4.320   4.713 -0.2406  0.2273 -0.3214
 5925SOL    HW129654   4.279   4.402   4.757  0.5778 -0.2367  0.8988
 5925SOL    HW229655   4.222   4.265   4.730  0.1471 -0.0086  0.6489
 5926SOL     OW29656   1.808   3.943  20.488 -0.5741  0.1939  0.5906
 5926SOL    HW129657   1.816   3.862  20.439 -0.3882  0.8322 -0.4283
 5926SOL    HW229658   1.848   4.009  20.432  0.8095  0.6835  2.1596
 5927SOL     OW29659   0.456   4.368   4.753 -0.6055 -0.2408 -0.0557
 5927SOL    HW129660   0.370   4.345   4.718 -0.4567  0.0367 -0.6003
 5927SOL    HW229661   0.456   4.464   4.756 -0.4236 -0.2478  0.2199
 5928SOL     OW29662   0.428   0.717  20.592  0.6404 -0.4619  0.6598
 5928SOL    HW129663   0.430   0.626  20.621  1.3316 -0.5324  0.3888
 5928SOL    HW229664   0.496   0.761  20.643  0.9245 -0.2965  0.1480
 5929SOL     OW29665   2.430   3.566  14.597  0.3782  0.2739 -0.0781
 5929SOL    HW129666   2.479   3.510  14.657 -1.3944 -2.2172 -0.9728
 5929SOL    HW229667   2.338   3.549  14.619 -0.2128  0.5516 -2.4370
 5930SOL     OW29668   1.273   0.326   9.898  0.0846  0.4601 -0.1045
 5930SOL    HW129669   1.221   0.252   9.928 -0.3539  1.0822  0.6766
 5930SOL    HW229670   1.341   0.336   9.965 -0.2901  1.2139  0.1662
 5931SOL     OW29671   4.596   0.297   3.476  0.1065  0.1422  0.1424
 5931SOL    HW129672   4.637   0.354   3.540 -0.2659 -1.0646  1.4366
 5931SOL    HW229673   4.642   0.213   3.484  0.2666  0.0793 -1.3583
 5932SOL     OW29674   2.523   4.018   0.971  0.4383  0.6116  0.5425
 5932SOL    HW129675   2.523   3.947   1.035  0.8466  0.7568  0.7022
 5932SOL    HW229676   2.615   4.029   0.947  0.2841  0.5587 -0.0659
 5933SOL     OW29677   3.645   3.335   3.935  0.4049 -0.2522 -0.4841
 5933SOL    HW129678   3.648   3.298   3.847 -1.5343  1.8554 -1.4139
 5933SOL    HW229679   3.587   3.410   3.928 -0.0844 -0.3404  2.6859
 5934SOL     OW29680   3.453   0.632   2.549  0.0314  0.4955 -0.1652
 5934SOL    HW129681   3.524   0.673   2.499 -0.5282  1.4863 -0.1567
 5934SOL    HW229682   3.376   0.685   2.528 -0.4523  0.1773  0.8079
 5935SOL     OW29683   2.159   4.282  17.329  0.7259  0.0025 -0.1987
 5935SOL    HW129684   2.232   4.336  17.299 -1.3193  2.4570 -0.7849
 5935SOL    HW229685   2.135   4.231  17.252  0.3237  0.8774 -0.6546
 5936SOL     OW29686   1.123   0.052   8.196  0.3096 -0.2303  0.0713
 5936SOL    HW129687   1.044   0.015   8.235  0.4468 -1.5290 -0.8668
 5936SOL    HW229688   1.097   0.075   8.107  0.1417  2.2280  0.7668
 5937SOL     OW29689   4.666   0.792  17.940  0.5449 -0.1866 -0.3410
 5937SOL    HW129690   4.689   0.749  17.858 -1.0077  0.5330 -1.1736
 5937SOL    HW229691   4.747   0.831  17.971  1.0756 -0.2201 -1.6946
 5938SOL     OW29692   1.028   3.970   0.573  0.1090  0.0479  0.0932
 5938SOL    HW129693   1.076   3.899   0.616  1.5184  0.5563 -0.6377
 5938SOL    HW229694   1.002   3.933   0.488 -0.0229  0.0795  0.1196
 5939SOL     OW29695   3.059   3.698   3.416 -0.0634  0.5480 -0.6203
 5939SOL    HW129696   2.980   3.719   3.367  0.4386  2.2551 -0.7015
 5939SOL    HW229697   3.087   3.781   3.454  1.3057 -0.1767 -0.0213
 5940SOL     OW29698   0.073   0.529   5.231  0.5782 -0.3975 -1.0346
 5940SOL    HW129699   0.129   0.451   5.235 -1.4545 -1.7979  0.6639
 5940SOL    HW229700   0.033   0.526   5.144  0.7425 -1.0967 -1.0886
 5941SOL     OW29701   4.471   1.413  12.259 -0.6556 -0.3640  0.0636
 5941SOL    HW129702   4.376   1.406  12.251 -0.6259 -0.3565 -0.2938
 5941SOL    HW229703   4.500   1.324  12.276 -0.8462 -0.1651  1.3892
 5942SOL     OW29704   3.428   4.693  19.080  0.1107 -0.1530  0.0601
 5942SOL    HW129705   3.516   4.664  19.058 -0.7554 -3.2160  0.5860
 5942SOL    HW229706   3.435   4.727  19.169  0.4302 -1.9342  0.7240
 5943SOL     OW29707   1.576   1.050  20.468 -0.1095 -0.3505 -0.1982
 5943SOL    HW129708   1.629   1.067  20.390 -0.4510 -0.5675 -0.4781
 5943SOL    HW229709   1.544   1.136  20.495  0.1565 -0.2532 -0.1936
 5944SOL     OW29710   2.615   1.122   3.152 -0.2881 -0.3091  0.3766
 5944SOL    HW129711   2.558   1.121   3.228 -0.5390  2.6294  0.2110
 5944SOL    HW229712   2.613   1.213   3.121  1.4645 -1.0324 -1.8658
 5945SOL     OW29713   0.277   2.218  10.294  0.4281  0.2162  0.0700
 5945SOL    HW129714   0.266   2.259  10.208  0.2770  1.4555  0.6846
 5945SOL    HW229715   0.336   2.277  10.341  0.5391 -0.4899  0.8062
 5946SOL     OW29716   0.855   0.095   5.439  0.3314  0.3985 -0.2218
 5946SOL    HW129717   0.799   0.017   5.450  0.6973  0.3487  1.3160
 5946SOL    HW229718   0.855   0.111   5.345 -0.9854 -0.5665 -0.3970
 5947SOL     OW29719   4.004   1.398  18.192  0.8632  0.0426  0.0077
 5947SOL    HW129720   4.019   1.468  18.129  0.9002  0.5944  0.6193
 5947SOL    HW229721   3.912   1.407  18.217  0.3770 -1.3388 -1.3625
 5948SOL     OW29722   1.426   1.535  18.940  0.2900  0.6921 -0.2220
 5948SOL    HW129723   1.334   1.520  18.922  0.2223  0.9469 -0.0878
 5948SOL    HW229724   1.442   1.626  18.916  0.7673  0.3349 -1.2765
 5949SOL     OW29725   0.332   3.815   8.487 -0.2087  0.2321  0.7580
 5949SOL    HW129726   0.347   3.752   8.558  1.1757  0.9248  1.0804
 5949SOL    HW229727   0.417   3.858   8.474 -0.3487 -0.2098 -1.6363
 5950SOL     OW29728   0.124   0.746  21.111 -0.0171 -0.4114 -0.6146
 5950SOL    HW129729   0.117   0.724   0.007  0.4556 -0.4678 -0.5914
 5950SOL    HW229730   0.135   0.841  21.109  1.1240 -0.5413 -0.5545
 5951SOL     OW29731   0.301   1.456  15.602  0.0989 -0.0657 -0.0556
 5951SOL    HW129732   0.287   1.413  15.687  0.9225  0.5070  0.3730
 5951SOL    HW229733   0.241   1.412  15.542 -1.6460  0.6155  1.1939
 5952SOL     OW29734   0.576   0.341   0.702  0.3388  0.2967  0.8897
 5952SOL    HW129735   0.570   0.356   0.607  1.8075  0.0574  0.7623
 5952SOL    HW229736   0.485   0.348   0.733 -0.5610 -2.6446 -1.0084
 5953SOL     OW29737   3.885   1.809   3.455 -0.1964  0.4447 -0.2442
 5953SOL    HW129738   3.895   1.784   3.547  0.0915  1.2725 -0.0532
 5953SOL    HW229739   3.835   1.890   3.458  1.0258  1.2079 -0.7549
 5954SOL     OW29740   2.425   2.347  15.148  0.5864 -0.3200 -0.0971
 5954SOL    HW129741   2.397   2.433  15.179  1.2092 -0.3062  0.4300
 5954SOL    HW229742   2.386   2.285  15.209  1.9277 -0.2851  0.7938
 5955SOL     OW29743   1.272   3.202   5.437  0.0242 -0.3474  0.3342
 5955SOL    HW129744   1.191   3.173   5.479 -0.5042  0.2437 -0.2779
 5955SOL    HW229745   1.250   3.208   5.344  1.1210 -1.4157  0.0002
 5956SOL     OW29746   3.548   1.745  14.996  0.6082  0.0502  0.1256
 5956SOL    HW129747   3.583   1.805  14.930 -1.3137  0.1403 -0.8203
 5956SOL    HW229748   3.453   1.750  14.985  0.2702  0.1610  2.9970
 5957SOL     OW29749   0.348   2.831  20.694  0.0104  0.1857 -0.3876
 5957SOL    HW129750   0.391   2.751  20.723  2.4593  1.6457 -0.0213
 5957SOL    HW229751   0.356   2.892  20.767  2.1576  2.3116 -2.3896
 5958SOL     OW29752   1.680   1.684   4.945  0.1857 -0.5798 -0.0451
 5958SOL    HW129753   1.738   1.619   4.906  0.9807  0.0432  0.1063
 5958SOL    HW229754   1.696   1.764   4.895  0.6713  0.0268  1.0868
 5959SOL     OW29755   1.255   0.404   0.126 -0.3912 -0.4124  0.0775
 5959SOL    HW129756   1.274   0.489   0.087 -2.0956  0.4591  1.1645
 5959SOL    HW229757   1.339   0.375   0.163  0.1041  0.9295  0.0003
 5960SOL     OW29758   3.021   2.031   8.302 -0.3525 -0.3499 -0.0234
 5960SOL    HW129759   3.098   1.994   8.345  1.5197 -0.3887 -3.4176
 5960SOL    HW229760   3.048   2.119   8.277 -1.8333  0.0812 -0.0989
 5961SOL     OW29761   1.822   1.003  15.172  0.2308  0.5068  0.0258
 5961SOL    HW129762   1.767   0.927  15.156 -0.1415  0.6565  0.5999
 5961SOL    HW229763   1.907   0.979  15.134  0.6297 -0.9104  1.8007
 5962SOL     OW29764   2.625   0.440   0.558 -0.1331 -0.6717  0.3769
 5962SOL    HW129765   2.689   0.378   0.523 -1.5136 -1.7026 -0.3154
 5962SOL    HW229766   2.569   0.387   0.614 -2.4050 -0.3693 -1.6164
 5963SOL     OW29767   3.913   0.229   3.973 -0.1878  0.4793 -0.2940
 5963SOL    HW129768   3.870   0.296   4.027 -1.0067 -0.5069  0.2890
 5963SOL    HW229769   3.891   0.146   4.017 -0.6654 -0.3030 -2.0208
 5964SOL     OW29770   0.411   4.529   5.502  0.5394  0.1589 -0.5711
 5964SOL    HW129771   0.339   4.592   5.496 -0.0886 -0.5107 -0.0272
 5964SOL    HW229772   0.476   4.574   5.556  0.1031  0.3608 -0.2078
 5965SOL     OW29773   1.620   2.327  16.639  0.2267 -0.1637  0.4337
 5965SOL    HW129774   1.711   2.354  16.647  1.3706 -3.5824 -1.1335
 5965SOL    HW229775   1.594   2.355  16.551 -0.5351  1.7828  1.2907
 5966SOL     OW29776   1.145   4.210  15.496 -0.4244 -0.0185  0.2470
 5966SOL    HW129777   1.128   4.118  15.517 -1.3740  0.2322  0.5770
 5966SOL    HW229778   1.064   4.241  15.456  0.2052  0.4326 -0.6868
 5967SOL     OW29779   4.733   3.787   3.261 -0.2063 -0.1838  0.5529
 5967SOL    HW129780   0.011   3.714   3.291  0.1240 -0.2411 -0.1838
 5967SOL    HW229781   4.696   3.824   3.342  2.1424  0.7928  1.1777
 5968SOL     OW29782   2.985   3.856   9.058  0.1743  0.4108 -0.5316
 5968SOL    HW129783   2.976   3.776   9.006  0.6271  0.0456 -0.0472
 5968SOL    HW229784   2.960   3.829   9.147 -1.0721  1.1449 -0.6632
 5969SOL     OW29785   2.031   3.950  20.043 -0.0823  0.6531  0.4671
 5969SOL    HW129786   1.983   3.871  20.017  1.0221  0.6947 -1.6696
 5969SOL    HW229787   1.969   3.998  20.100 -1.3847 -0.8750  0.3350
 5970SOL     OW29788   4.407   1.527  20.127  0.0582  0.0794 -0.0901
 5970SOL    HW129789   4.410   1.550  20.034  0.5410 -1.7374 -0.5218
 5970SOL    HW229790   4.438   1.437  20.130  0.7854  0.4102  1.9266
 5971SOL     OW29791   0.885   0.092  11.871 -0.3016  0.8978 -0.6134
 5971SOL    HW129792   0.879   0.115  11.964  0.6087 -1.0824 -0.0552
 5971SOL    HW229793   0.968   0.045  11.864 -0.6811  0.5078 -2.3140
 5972SOL     OW29794   2.765   4.575   1.369 -0.4518 -0.2954  0.5241
 5972SOL    HW129795   2.792   4.665   1.389 -0.2454  0.1326 -1.5992
 5972SOL    HW229796   2.702   4.553   1.437 -0.2949  1.3828  1.2137
 5973SOL     OW29797   0.671   1.576  17.660  0.2065  0.1218  0.3948
 5973SOL    HW129798   0.625   1.612  17.737 -0.2445 -1.1595  0.7235
 5973SOL    HW229799   0.639   1.486  17.653  1.0222 -0.0817 -0.6926
 5974SOL     OW29800   4.408   0.928  16.187  0.3426 -0.1921 -0.2921
 5974SOL    HW129801   4.475   0.864  16.209  0.3360 -0.0124  0.2444
 5974SOL    HW229802   4.350   0.882  16.126  0.0687 -0.8495  0.4656
 5975SOL     OW29803   1.419   0.113  10.786 -0.3557 -0.7612  0.0522
 5975SOL    HW129804   1.506   0.075  10.796 -0.7122 -1.6321 -0.2070
 5975SOL    HW229805   1.360   0.038  10.779 -1.1325 -0.1745  0.2574
 5976SOL     OW29806   4.740   3.185  18.231 -0.4611 -0.0668  0.0341
 5976SOL    HW129807   4.731   3.094  18.206 -2.5474  0.2854 -0.4884
 5976SOL    HW229808   0.004   3.228  18.155  0.0092 -0.4370  0.0754
 5977SOL     OW29809   1.886   3.669  10.375 -0.0993  0.0723  0.1118
 5977SOL    HW129810   1.872   3.597  10.436  0.9509  0.5450  0.9156
 5977SOL    HW229811   1.848   3.745  10.420 -1.7753 -0.1082 -1.0102
 5978SOL     OW29812   0.938   4.321  16.164  0.1779 -0.0760  0.6487
 5978SOL    HW129813   0.898   4.408  16.153  0.0163 -0.3898 -1.3199
 5978SOL    HW229814   1.024   4.329  16.124 -0.6479 -1.4191 -1.4213
 5979SOL     OW29815   3.670   3.946   0.413  0.2376  0.0250 -0.0996
 5979SOL    HW129816   3.669   3.918   0.321  0.4780 -0.8342  0.1627
 5979SOL    HW229817   3.744   3.900   0.451 -1.2323 -1.3326  1.0753
 5980SOL     OW29818   1.920   2.200  15.820 -0.6586  0.3366  0.2475
 5980SOL    HW129819   1.898   2.171  15.909 -1.7474  2.2936  0.6176
 5980SOL    HW229820   1.837   2.196  15.773  0.4314 -3.1603 -1.3584
 5981SOL     OW29821   4.065   3.532   1.482 -0.1911  0.3636 -0.0220
 5981SOL    HW129822   4.022   3.617   1.480 -0.3928  0.1292 -4.1797
 5981SOL    HW229823   4.159   3.553   1.483 -0.2560  0.6620 -0.2522
 5982SOL     OW29824   4.712   3.381  21.162  0.2202 -0.0577 -0.1149
 5982SOL    HW129825   4.674   3.434   0.036  0.2863 -1.6352  1.1185
 5982SOL    HW229826   4.677   3.293  21.177  0.4235 -0.4517 -1.9222
 5983SOL     OW29827   3.272   4.110  13.634  0.0079  0.4545  0.4343
 5983SOL    HW129828   3.268   4.103  13.729 -0.7996 -0.2019  0.3465
 5983SOL    HW229829   3.266   4.020  13.602 -2.3127  0.8680 -0.3373
 5984SOL     OW29830   3.591   3.319  20.381 -0.0256  0.3191 -0.1017
 5984SOL    HW129831   3.593   3.231  20.419 -0.1986  1.4964  2.6339
 5984SOL    HW229832   3.677   3.355  20.400 -0.1564  0.9598 -0.7380
 5985SOL     OW29833   2.338   2.129  15.250  0.3714 -0.1100 -0.5113
 5985SOL    HW129834   2.380   2.046  15.227  1.4171  0.1630  0.3817
 5985SOL    HW229835   2.248   2.105  15.272  0.0189 -0.6849 -2.5624
 5986SOL     OW29836   2.945   2.231  13.233 -0.4530 -0.3968  0.4468
 5986SOL    HW129837   2.852   2.253  13.230 -0.9121 -2.5861 -2.3298
 5986SOL    HW229838   2.982   2.272  13.155  0.6812 -0.4797  0.9384
 5987SOL     OW29839   4.526   0.148  20.254 -0.4199  0.1275  0.3639
 5987SOL    HW129840   4.601   0.100  20.287 -0.9557 -0.7156  0.3503
 5987SOL    HW229841   4.561   0.203  20.184  0.2343 -0.0471  0.5618
 5988SOL     OW29842   2.856   3.854  18.951  0.1525 -0.1574 -0.5228
 5988SOL    HW129843   2.883   3.801  18.876 -0.4695 -0.4107 -0.5653
 5988SOL    HW229844   2.850   3.943  18.917 -0.7568 -0.3740 -0.9219
 5989SOL     OW29845   1.092   0.997   2.234  0.0538  0.3281  0.2764
 5989SOL    HW129846   1.134   0.946   2.304 -0.3194  1.4372  1.3207
 5989SOL    HW229847   1.139   0.972   2.155  0.7685 -0.6193  0.9929
 5990SOL     OW29848   2.364   3.452   3.025  0.3204 -0.0514  0.1432
 5990SOL    HW129849   2.411   3.414   3.100  0.6893  2.0904  0.9822
 5990SOL    HW229850   2.426   3.444   2.952  0.9865  0.3309  0.6638
 5991SOL     OW29851   0.937   3.795   8.922 -0.0441 -0.1563  0.1790
 5991SOL    HW129852   0.941   3.889   8.903 -1.4233 -0.1576 -0.0780
 5991SOL    HW229853   0.948   3.790   9.017  1.9949  0.1418 -0.0275
 5992SOL     OW29854   3.300   4.260   1.191 -0.5980 -0.1465  0.3260
 5992SOL    HW129855   3.303   4.241   1.285 -3.3450  2.2278  0.8921
 5992SOL    HW229856   3.249   4.187   1.154  0.4655 -1.0727  0.6880
 5993SOL     OW29857   0.203   1.918  16.979 -0.1561  0.2388  0.5449
 5993SOL    HW129858   0.229   1.826  16.971  0.4849  0.3246  1.6018
 5993SOL    HW229859   0.108   1.917  16.981 -0.1142 -0.5048  1.8303
 5994SOL     OW29860   2.651   1.890   1.808  0.2985 -0.1454 -0.5325
 5994SOL    HW129861   2.652   1.858   1.899 -0.0337 -0.2146 -0.5558
 5994SOL    HW229862   2.646   1.810   1.755  0.8638 -0.1267 -0.6224
 5995SOL     OW29863   1.714   2.038  13.535  0.2092  0.6168  0.0398
 5995SOL    HW129864   1.657   2.072  13.604 -0.8309  1.2936 -1.1652
 5995SOL    HW229865   1.745   2.115  13.488  1.5433  0.2030  0.2221
 5996SOL     OW29866   0.150   2.153   1.136  0.4060 -0.2398  0.4567
 5996SOL    HW129867   0.137   2.199   1.219  0.1039 -2.2797  1.5348
 5996SOL    HW229868   0.244   2.160   1.120 -0.1169  3.5895 -1.0286
 5997SOL     OW29869   3.522   3.481   3.275 -0.5105 -0.2791 -0.5095
 5997SOL    HW129870   3.514   3.504   3.368 -0.4994  3.4589 -1.4721
 5997SOL    HW229871   3.432   3.480   3.242 -0.2791  1.0632 -1.1531
 5998SOL     OW29872   4.513   3.148   1.489  0.0406  0.0571  0.0310
 5998SOL    HW129873   4.436   3.162   1.543  0.2424  0.1949  0.2856
 5998SOL    HW229874   4.528   3.054   1.490 -0.1731  0.0231 -0.0850
 5999SOL     OW29875   0.729   1.809  16.540  0.3168  0.1237 -0.2389
 5999SOL    HW129876   0.722   1.782  16.631  1.1505 -1.8655 -0.7580
 5999SOL    HW229877   0.820   1.790  16.516  0.5506  2.1880 -0.9775
 6000SOL     OW29878   0.950   1.540  19.900  0.1533  0.2942 -0.2452
 6000SOL    HW129879   1.030   1.587  19.876  0.2933  0.5676  0.7391
 6000SOL    HW229880   0.968   1.449  19.876  1.8536 -0.1288  2.5761
 6001SOL     OW29881   0.658   4.593  17.636 -0.5573  0.8332 -0.0980
 6001SOL    HW129882   0.710   4.643  17.573 -0.3659  0.2307 -0.4253
 6001SOL    HW229883   0.568   4.622  17.620 -0.7658 -0.8984 -2.1538
 6002SOL     OW29884   0.375   3.219   2.561 -0.1097  0.2409 -0.2222
 6002SOL    HW129885   0.337   3.306   2.573  1.6626  0.9968 -0.1824
 6002SOL    HW229886   0.347   3.193   2.473 -0.7764  0.7658 -0.1651
 6003SOL     OW29887   1.304   3.288   2.270 -0.1312 -0.0859 -0.5298
 6003SOL    HW129888   1.395   3.291   2.301 -0.3979 -0.9659  0.3385
 6003SOL    HW229889   1.307   3.327   2.183  1.1810 -0.6359 -0.7331
 6004SOL     OW29890   1.665   0.209   4.977 -0.0348 -0.2293  0.5067
 6004SOL    HW129891   1.630   0.142   4.919  1.7114  0.1297 -0.9411
 6004SOL    HW229892   1.611   0.286   4.961  0.2840 -0.2068 -0.4720
 6005SOL     OW29893   1.867   4.071   4.996 -0.0622 -0.4905  0.0045
 6005SOL    HW129894   1.943   4.088   5.050 -0.0824  0.5985 -0.3239
 6005SOL    HW229895   1.890   4.105   4.910 -0.6786 -0.7167 -0.2513
 6006SOL     OW29896   3.719   4.568   8.878 -0.4481  0.2425 -0.3233
 6006SOL    HW129897   3.757   4.562   8.965  0.7997 -2.5329 -1.0489
 6006SOL    HW229898   3.785   4.615   8.827  0.3972 -1.2933 -0.6549
 6007SOL     OW29899   3.966   2.847  19.894 -0.2600  0.1112 -0.1953
 6007SOL    HW129900   3.963   2.770  19.837  2.9106 -1.0098  1.2062
 6007SOL    HW229901   3.905   2.827  19.965  1.7288 -1.7133  0.9782
 6008SOL     OW29902   0.985   1.957   5.063 -0.0107 -0.4117  0.0682
 6008SOL    HW129903   1.041   1.894   5.108 -1.1805  0.7148  3.0959
 6008SOL    HW229904   0.902   1.911   5.051  0.3537 -0.7660 -1.0271
 6009SOL     OW29905   1.956   0.789  13.943 -0.1852  0.0652  0.1585
 6009SOL    HW129906   1.970   0.852  14.013 -1.1486  0.9436 -0.4353
 6009SOL    HW229907   2.041   0.748  13.929 -0.0838 -0.3645  2.0856
 6010SOL     OW29908   4.700   2.134  20.613  0.2138 -0.2883 -0.2776
 6010SOL    HW129909   4.767   2.080  20.570 -1.4242 -0.7761 -2.2694
 6010SOL    HW229910   4.618   2.091  20.590 -0.8134  0.7066  1.5884
 6011SOL     OW29911   0.938   3.976  17.577 -0.2474  0.1591 -0.7045
 6011SOL    HW129912   0.949   3.957  17.484 -0.7975 -1.7198 -0.3833
 6011SOL    HW229913   0.879   3.908  17.609 -0.4675  1.0986  0.9095
 6012SOL     OW29914   0.150   2.759   5.199 -0.0848  0.5862  0.0977
 6012SOL    HW129915   0.165   2.850   5.174 -0.9762  0.8153  0.4179
 6012SOL    HW229916   0.060   2.757   5.231 -0.1319 -0.4469 -0.0941
 6013SOL     OW29917   1.489   0.174   4.142 -0.1673  0.3256 -0.4683
 6013SOL    HW129918   1.519   0.226   4.067  0.4362  0.7137  0.0397
 6013SOL    HW229919   1.463   0.239   4.207 -0.8849 -0.0115 -0.4209
 6014SOL     OW29920   0.438   2.767   9.148 -0.6015 -0.1506  0.2107
 6014SOL    HW129921   0.402   2.790   9.233  0.0967  1.7635 -0.0179
 6014SOL    HW229922   0.390   2.821   9.086 -0.4634 -0.8707 -0.5208
 6015SOL     OW29923   1.913   0.962   4.298 -0.0581 -0.2160  0.5608
 6015SOL    HW129924   1.921   0.867   4.291  2.0037 -0.1535  2.0757
 6015SOL    HW229925   1.894   0.978   4.391 -0.4983  0.8393  0.2921
 6016SOL     OW29926   3.655   3.497   5.092 -0.1319 -0.3987 -0.5110
 6016SOL    HW129927   3.617   3.480   5.006  2.5254  0.0340 -1.7446
 6016SOL    HW229928   3.624   3.585   5.115 -1.0729 -0.6275 -0.8837
 6017SOL     OW29929   4.278   1.103   6.255 -0.0986 -0.4602  0.3025
 6017SOL    HW129930   4.286   1.124   6.348  0.0535 -1.2255  0.4661
 6017SOL    HW229931   4.252   1.185   6.214 -0.3251 -0.1596  1.0447
 6018SOL     OW29932   4.087   2.983  17.408  0.4711  0.1607  0.1003
 6018SOL    HW129933   4.137   3.065  17.412 -0.3531  0.6536  0.2598
 6018SOL    HW229934   4.018   2.994  17.474  0.1246 -0.5075 -0.1551
 6019SOL     OW29935   2.873   0.116   5.056  0.1113  0.4071  0.0555
 6019SOL    HW129936   2.794   0.124   5.109 -0.3280  1.2989 -0.7254
 6019SOL    HW229937   2.945   0.141   5.115 -0.3169  0.8260  0.3953
 6020SOL     OW29938   2.629   1.549   0.762  0.1449  0.4286 -0.3272
 6020SOL    HW129939   2.544   1.513   0.787 -0.4177  1.3439 -0.9374
 6020SOL    HW229940   2.658   1.494   0.689  0.2247 -0.0817  0.0873
 6021SOL     OW29941   0.727   3.424  19.442  0.0091 -0.6343 -0.5998
 6021SOL    HW129942   0.728   3.480  19.364 -0.7740 -0.9792 -0.8603
 6021SOL    HW229943   0.643   3.378  19.437 -0.2175 -0.3437  0.6675
 6022SOL     OW29944   2.659   2.658  17.857 -0.1245  0.2617  0.9316
 6022SOL    HW129945   2.726   2.618  17.912 -0.8737 -0.9964  0.9252
 6022SOL    HW229946   2.699   2.662  17.770 -0.2574 -0.9776  0.8117
 6023SOL     OW29947   3.673   4.341   4.750 -0.4807  0.3608  0.0257
 6023SOL    HW129948   3.685   4.251   4.720  4.2734  1.5914 -1.8322
 6023SOL    HW229949   3.668   4.393   4.669 -0.5261  2.0443  1.1083
 6024SOL     OW29950   0.674   4.317  18.306 -0.6217  0.4500 -0.3560
 6024SOL    HW129951   0.583   4.293  18.289  0.1979 -2.0995 -1.0469
 6024SOL    HW229952   0.687   4.398  18.256 -1.9671 -0.1466 -1.6556
 6025SOL     OW29953   2.551   3.483  17.700  0.2219  0.0302  0.1402
 6025SOL    HW129954   2.608   3.489  17.623 -0.8535  0.2058 -0.6448
 6025SOL    HW229955   2.609   3.453  17.770  1.7109  2.1212 -0.1898
 6026SOL     OW29956   3.489   0.453   7.113  0.1519 -0.1767 -0.6891
 6026SOL    HW129957   3.534   0.403   7.181  2.3257  1.2154 -1.1365
 6026SOL    HW229958   3.553   0.465   7.044 -1.0285  1.3817 -1.5285
 6027SOL     OW29959   0.884   4.514  19.461  0.3234  0.0097 -0.5635
 6027SOL    HW129960   0.913   4.495  19.371 -0.8674  0.0639 -0.9600
 6027SOL    HW229961   0.789   4.516  19.455  0.3320  2.6150  0.1902
 6028SOL     OW29962   3.668   3.650  21.127  0.4412 -0.2865  0.1235
 6028SOL    HW129963   3.762   3.648  21.141  0.4379  1.5785  0.3634
 6028SOL    HW229964   3.646   3.561  21.099  2.5475 -0.1815 -1.8281
 6029SOL     OW29965   4.675   0.415   1.316 -0.3965 -0.5016  0.1834
 6029SOL    HW129966   4.608   0.352   1.342 -1.3666  0.2193 -0.5814
 6029SOL    HW229967   4.630   0.499   1.317  0.5566  0.0040 -0.1210
 6030SOL     OW29968   0.650   3.558  16.057  0.4883 -0.2353 -0.0810
 6030SOL    HW129969   0.725   3.499  16.067  1.1411  0.4859 -0.7768
 6030SOL    HW229970   0.594   3.515  15.993  0.0730 -1.0222  0.8174
 6031SOL     OW29971   1.190   0.774   2.093  0.6151 -0.3912  0.0530
 6031SOL    HW129972   1.225   0.727   2.168 -0.4725 -1.2985 -0.0114
 6031SOL    HW229973   1.246   0.749   2.020 -0.1088 -1.7457 -0.0250
 6032SOL     OW29974   0.456   4.281   0.786 -0.6066 -0.1657 -0.1179
 6032SOL    HW129975   0.397   4.252   0.717  0.9654  0.6722 -1.8225
 6032SOL    HW229976   0.536   4.231   0.771 -0.1988  0.1552  0.9858
 6033SOL     OW29977   3.915   4.651   8.676  0.4225  0.1943 -0.6771
 6033SOL    HW129978   4.000   4.692   8.691  1.2231 -1.9891  0.7291
 6033SOL    HW229979   3.928   4.596   8.598  0.3550 -0.3071 -0.3352
 6034SOL     OW29980   0.635   0.287   1.568 -0.2454  0.9817 -0.0570
 6034SOL    HW129981   0.633   0.201   1.527 -2.7053 -0.0234  2.1149
 6034SOL    HW229982   0.725   0.316   1.560  0.1663 -0.9811 -2.5060
 6035SOL     OW29983   2.684   0.248  16.399 -0.4305  0.5208  0.0451
 6035SOL    HW129984   2.614   0.253  16.464  0.4202  0.3363  0.9853
 6035SOL    HW229985   2.641   0.267  16.315 -2.0019 -1.7746  0.3318
 6036SOL     OW29986   3.145   2.237  21.154  0.1025 -0.0083  0.3766
 6036SOL    HW129987   3.183   2.316  21.114  0.3371 -0.0160  0.5857
 6036SOL    HW229988   3.055   2.262  21.173  0.3355  0.3893  0.9519
 6037SOL     OW29989   0.049   3.739   4.849 -0.0399  0.3458  0.2837
 6037SOL    HW129990   0.042   3.753   4.755 -0.2430 -1.0130  0.1002
 6037SOL    HW229991   4.756   3.794   4.887 -0.8220 -0.1454 -0.4414
 6038SOL     OW29992   3.286   0.011   8.611 -0.0056 -0.1004 -0.1759
 6038SOL    HW129993   3.295   4.716   8.674  0.8982  0.6702  0.5659
 6038SOL    HW229994   3.359   0.070   8.630 -0.5092  0.8149 -1.0520
 6039SOL     OW29995   2.848   2.477  20.312 -0.0489 -0.2192 -0.5020
 6039SOL    HW129996   2.848   2.385  20.287 -1.7352 -0.2855 -0.2566
 6039SOL    HW229997   2.888   2.478  20.399  2.0083 -0.4582 -1.4281
 6040SOL     OW29998   0.684   1.785  12.485  0.0963 -0.3971  0.2250
 6040SOL    HW129999   0.695   1.698  12.522 -3.7333 -1.7691 -1.8809
 6040SOL    HW230000   0.730   1.782  12.401 -3.0540 -1.4226 -1.4455
 6041SOL     OW30001   3.770   2.948   1.796  0.0018  0.2078  0.2005
 6041SOL    HW130002   3.675   2.938   1.797 -0.0389  0.7458  1.5276
 6041SOL    HW230003   3.784   3.041   1.812  0.6695  0.5722 -2.5534
 6042SOL     OW30004   3.319   4.242   4.617  0.6467 -0.6114 -0.0935
 6042SOL    HW130005   3.278   4.265   4.700  0.2088 -1.7537  0.0034
 6042SOL    HW230006   3.355   4.155   4.631  1.1257 -0.5461 -0.9032
 6043SOL     OW30007   3.229   4.131  12.325  0.2126  0.2492 -0.2218
 6043SOL    HW130008   3.239   4.201  12.260 -1.6129  0.7924  0.0922
 6043SOL    HW230009   3.153   4.081  12.294  0.4390 -0.5540  0.5234
 6044SOL     OW30010   1.459   0.931   4.138 -0.1958  0.4140  0.1871
 6044SOL    HW130011   1.468   0.986   4.216  3.5484  0.9342 -0.5818
 6044SOL    HW230012   1.449   0.993   4.066 -2.9033 -0.0528  0.1603
 6045SOL     OW30013   4.626   1.032   5.774  0.2135  0.0652  0.0413
 6045SOL    HW130014   4.721   1.034   5.760 -0.1166 -0.1488 -2.2038
 6045SOL    HW230015   4.614   1.065   5.863  2.4575 -0.6096  0.5902
 6046SOL     OW30016   2.945   4.009   2.377  0.6526 -0.0587 -0.2225
 6046SOL    HW130017   2.897   3.931   2.402 -1.3202  1.5271  0.9748
 6046SOL    HW230018   3.006   4.025   2.450 -0.1765  0.5214  0.3486
 6047SOL     OW30019   0.228   1.595   4.907 -0.0228 -0.2026 -0.2165
 6047SOL    HW130020   0.202   1.509   4.873  0.3297 -0.5733  0.4630
 6047SOL    HW230021   0.298   1.576   4.969 -1.1629  0.4346  1.2521
 6048SOL     OW30022   3.162   4.305  17.881 -0.3247 -0.0516  0.2372
 6048SOL    HW130023   3.077   4.341  17.854  1.1620  2.4785 -1.0261
 6048SOL    HW230024   3.148   4.210  17.882 -2.5578  0.2558 -2.0239
 6049SOL     OW30025   1.361   1.142   9.060  0.0845  0.1860  0.0880
 6049SOL    HW130026   1.437   1.143   9.002 -0.9627 -2.3068 -1.3293
 6049SOL    HW230027   1.299   1.204   9.020  0.6324  0.8218  0.2340
 6050SOL     OW30028   0.676   2.400  10.343  0.4474 -0.2808 -0.0486
 6050SOL    HW130029   0.700   2.333  10.280 -0.0094 -0.3232 -0.1738
 6050SOL    HW230030   0.582   2.411  10.333  0.4009 -0.1568  0.4939
 6051SOL     OW30031   0.474   3.857  16.689  0.0203 -0.5301  0.0147
 6051SOL    HW130032   0.510   3.783  16.640  0.7571 -1.1861  1.5733
 6051SOL    HW230033   0.462   3.824  16.778 -1.3943  0.6581  0.2620
 6052SOL     OW30034   0.243   1.466  11.071  0.4397 -0.2127 -0.7983
 6052SOL    HW130035   0.209   1.539  11.020  0.5661 -0.6317 -1.4770
 6052SOL    HW230036   0.289   1.411  11.008  3.6031  1.0950  0.3858
 6053SOL     OW30037   1.291   4.756  18.808  0.6599  0.6887 -0.0422
 6053SOL    HW130038   1.361   4.693  18.828 -1.1238 -1.0678  0.6848
 6053SOL    HW230039   1.247   4.769  18.892 -0.8443  0.6293 -0.8372
 6054SOL     OW30040   4.154   1.609  18.611 -0.0869  0.6889  0.7349
 6054SOL    HW130041   4.237   1.650  18.637  0.1089  1.3681 -0.9381
 6054SOL    HW230042   4.177   1.555  18.535 -1.2526  1.1798  0.0399
 6055SOL     OW30043   2.363   2.145   0.882  0.2086 -0.2419 -0.1132
 6055SOL    HW130044   2.364   2.228   0.833 -2.3340  0.8751  1.7479
 6055SOL    HW230045   2.296   2.092   0.839 -2.3027  0.8935  2.4623
 6056SOL     OW30046   1.991   2.808   2.092  0.2450 -0.1675  0.3540
 6056SOL    HW130047   1.972   2.824   2.000 -2.6425 -0.3479  0.9089
 6056SOL    HW230048   2.086   2.798   2.096  0.4794  1.1159 -2.3964
 6057SOL     OW30049   1.346   0.973  16.356 -0.1643  0.0300 -0.3817
 6057SOL    HW130050   1.321   1.027  16.431  0.5535 -0.2421  0.0475
 6057SOL    HW230051   1.341   1.033  16.281 -1.4232  0.1582 -0.1914
 6058SOL     OW30052   2.247   1.970   3.875  0.0763  0.0755  0.1185
 6058SOL    HW130053   2.155   1.956   3.894  0.5008 -1.6216  0.8756
 6058SOL    HW230054   2.262   1.924   3.792  0.3852 -0.1319  0.2899
 6059SOL     OW30055   4.117   0.202  18.830 -0.0260 -0.1798 -0.1429
 6059SOL    HW130056   4.114   0.153  18.748 -0.1655 -0.4872  0.0454
 6059SOL    HW230057   4.081   0.142  18.895  0.9709 -0.2805  0.3125
 6060SOL     OW30058   4.023   4.057   2.517  0.3775  0.3406  0.4359
 6060SOL    HW130059   3.998   4.146   2.492  1.2945  0.4152 -0.2361
 6060SOL    HW230060   3.948   4.003   2.492  0.7853  0.5960 -1.3627
 6061SOL     OW30061   2.409   3.264  20.629 -0.2111  0.4133 -0.1257
 6061SOL    HW130062   2.442   3.181  20.595 -1.3765 -0.0276 -0.1857
 6061SOL    HW230063   2.315   3.250  20.638 -0.4348  1.8165 -0.3797
 6062SOL     OW30064   1.040   1.764   5.599 -0.4014 -1.2333  0.2075
 6062SOL    HW130065   0.997   1.690   5.641 -0.7959 -1.9157 -1.3924
 6062SOL    HW230066   1.089   1.725   5.527  0.8541 -0.1533  0.4868
 6063SOL     OW30067   4.372   1.844  18.600 -0.3811  0.2208  0.2753
 6063SOL    HW130068   4.294   1.885  18.636  0.3270  1.7138  0.1006
 6063SOL    HW230069   4.363   1.856  18.505  0.5819  1.3316  0.3228
 6064SOL     OW30070   3.516   0.652   2.846  0.6205 -0.4286  0.1663
 6064SOL    HW130071   3.508   0.633   2.753 -0.5866 -0.7089  0.3313
 6064SOL    HW230072   3.539   0.745   2.849 -0.8280 -0.0526 -0.3567
 6065SOL     OW30073   4.308   3.225  20.650  0.0097 -0.7032 -0.2762
 6065SOL    HW130074   4.340   3.200  20.737 -0.6589  0.1394  0.2113
 6065SOL    HW230075   4.240   3.290  20.668 -0.4335 -0.8684 -1.4137
 6066SOL     OW30076   2.483   2.440  13.682 -0.6500 -0.2611 -0.9209
 6066SOL    HW130077   2.548   2.403  13.623 -1.0754  0.8724 -2.0867
 6066SOL    HW230078   2.420   2.369  13.696  0.6585 -1.2439 -0.0577
 6067SOL     OW30079   1.752   3.886  12.195  0.4530 -0.7439  0.5423
 6067SOL    HW130080   1.769   3.914  12.285 -0.0215 -0.8483  0.6644
 6067SOL    HW230081   1.839   3.864  12.160  1.0680  2.8159 -0.2234
 6068SOL     OW30082   0.546   3.630  20.703  0.3994  0.2629  0.6079
 6068SOL    HW130083   0.496   3.551  20.726 -0.1423  0.3130 -0.3468
 6068SOL    HW230084   0.502   3.663  20.624  0.5653  1.5734  1.0657
 6069SOL     OW30085   2.916   3.702   4.384 -0.3338 -0.1765 -0.0307
 6069SOL    HW130086   2.823   3.708   4.364 -0.0329  0.2885 -1.3407
 6069SOL    HW230087   2.950   3.790   4.363  0.3096 -0.2105  0.8657
 6070SOL     OW30088   2.849   2.033  19.058  0.3327  0.1916  0.1075
 6070SOL    HW130089   2.807   1.949  19.037  0.2698  0.3471 -0.3857
 6070SOL    HW230090   2.821   2.052  19.148 -0.5402  0.2285 -0.1721
 6071SOL     OW30091   4.224   3.059  17.746 -0.1365 -0.2822 -0.5455
 6071SOL    HW130092   4.303   3.112  17.750  0.2137 -0.6701 -2.2031
 6071SOL    HW230093   4.165   3.109  17.688 -1.5907  0.6791  1.7855
 6072SOL     OW30094   0.633   0.366   2.803  0.5088 -0.1383 -0.1202
 6072SOL    HW130095   0.591   0.387   2.719  0.8254  2.6481  0.4203
 6072SOL    HW230096   0.563   0.330   2.857  0.3652 -2.2237 -1.6912
 6073SOL     OW30097   2.200   4.274  20.350  0.1293  0.4026  0.3028
 6073SOL    HW130098   2.123   4.242  20.398  0.1828  0.8447  0.6868
 6073SOL    HW230099   2.258   4.309  20.418 -0.2504  1.9768 -0.1800
 6074SOL     OW30100   2.015   4.698   1.052  0.0570  0.4644 -0.2024
 6074SOL    HW130101   2.086   4.761   1.052  1.3365 -0.9804 -0.6576
 6074SOL    HW230102   1.999   4.679   1.144  1.2421 -0.3249 -0.1592
 6075SOL     OW30103   3.815   0.961  20.738 -0.1485 -0.1304 -0.5529
 6075SOL    HW130104   3.834   0.928  20.650 -0.7697 -3.4158  0.5255
 6075SOL    HW230105   3.900   0.957  20.783 -0.2194 -0.2420 -0.4297
 6076SOL     OW30106   2.611   0.724   1.162 -0.0576  0.3884 -0.1251
 6076SOL    HW130107   2.590   0.814   1.135 -0.7070 -0.1764 -1.4693
 6076SOL    HW230108   2.580   0.669   1.090  1.9616 -0.7804 -0.1011
 6077SOL     OW30109   0.661   3.812  17.647 -0.2553 -0.0819 -0.3030
 6077SOL    HW130110   0.615   3.733  17.619 -2.5078  1.2525 -0.4463
 6077SOL    HW230111   0.702   3.788  17.730  1.0132 -2.1091 -1.5360
 6078SOL     OW30112   0.495   2.257   3.471  0.2309 -0.0793  0.1164
 6078SOL    HW130113   0.556   2.186   3.454 -0.4304 -1.1057  2.0547
 6078SOL    HW230114   0.408   2.216   3.462 -0.1679  0.9476 -0.7746
 6079SOL     OW30115   2.499   3.016  18.400 -0.2523  0.2406 -0.6247
 6079SOL    HW130116   2.552   3.047  18.474 -0.1677  2.2062 -1.5049
 6079SOL    HW230117   2.554   2.952  18.356  0.2637  0.1157  0.1938
 6080SOL     OW30118   0.821   4.484   0.082  0.4075 -0.2276 -0.6661
 6080SOL    HW130119   0.908   4.450   0.104  0.7042  0.0504 -1.4036
 6080SOL    HW230120   0.830   4.516  21.188  0.1881  1.9340  0.0797
 6081SOL     OW30121   1.370   2.632   4.216 -0.6203 -0.1481  0.0016
 6081SOL    HW130122   1.320   2.575   4.274 -2.2110 -0.6072 -1.8024
 6081SOL    HW230123   1.461   2.622   4.243 -0.8277 -4.1025 -0.8102
 6082SOL     OW30124   3.097   0.313  17.948  0.1975 -0.7923  0.4191
 6082SOL    HW130125   3.108   0.295  17.854  1.2886  0.3647  0.3084
 6082SOL    HW230126   3.187   0.318  17.981 -0.2026 -1.6914  1.6231
 6083SOL     OW30127   3.466   1.019   6.997 -0.4285  0.5781  0.3548
 6083SOL    HW130128   3.534   1.069   7.042  0.7615  0.7508 -1.6230
 6083SOL    HW230129   3.384   1.062   7.023  0.4151  2.0039  0.6592
 6084SOL     OW30130   4.077   1.312   4.497  0.1032  0.1254 -0.0894
 6084SOL    HW130131   4.014   1.336   4.565  0.0520  2.0564 -0.8103
 6084SOL    HW230132   4.158   1.293   4.546 -0.0183  1.2104  0.5329
 6085SOL     OW30133   4.143   1.116  14.675 -0.0645 -0.1013  0.1758
 6085SOL    HW130134   4.155   1.200  14.719 -2.7113 -1.0723  2.7275
 6085SOL    HW230135   4.226   1.070  14.687  1.2892  2.0602 -1.0023
 6086SOL     OW30136   1.373   3.937   9.774  0.0586  0.0289 -0.3847
 6086SOL    HW130137   1.282   3.964   9.760  0.1376  0.4482 -0.0891
 6086SOL    HW230138   1.393   3.966   9.863 -0.0401 -1.4859  0.1329
 6087SOL     OW30139   0.395   2.647  18.334  0.0482  0.5636 -0.3592
 6087SOL    HW130140   0.350   2.574  18.376  1.9708 -0.7404 -0.5896
 6087SOL    HW230141   0.324   2.707  18.309 -1.5949 -1.6602 -1.0707
 6088SOL     OW30142   2.669   0.467   1.240  0.0552 -0.0267  0.0599
 6088SOL    HW130143   2.658   0.561   1.229 -1.0494 -0.1786 -0.1180
 6088SOL    HW230144   2.653   0.430   1.153  1.2988 -0.3005 -0.0487
 6089SOL     OW30145   3.498   0.191   5.816 -0.3568 -0.4698 -0.4188
 6089SOL    HW130146   3.486   0.250   5.890 -1.0080 -1.8437  0.5663
 6089SOL    HW230147   3.585   0.153   5.830 -0.5822 -0.9129 -0.2430
 6090SOL     OW30148   4.440   3.477   0.895  0.0000  0.3012 -0.0076
 6090SOL    HW130149   4.422   3.515   0.980  1.5730  0.7260  0.1372
 6090SOL    HW230150   4.498   3.403   0.913 -1.5146 -1.0062 -0.4715
 6091SOL     OW30151   2.718   1.025   4.993 -0.4779  0.0891 -0.0688
 6091SOL    HW130152   2.684   1.097   4.941  0.1173  1.5672  1.5712
 6091SOL    HW230153   2.807   1.011   4.961  0.6384  2.4032  1.9753
 6092SOL     OW30154   3.147   2.754   3.929 -0.3245 -0.0248 -0.5969
 6092SOL    HW130155   3.222   2.758   3.988 -0.7769 -0.5241  0.0011
 6092SOL    HW230156   3.174   2.808   3.854  0.0885  0.9158  0.2313
 6093SOL     OW30157   3.154   0.566   6.119  0.1354  0.2064  0.2209
 6093SOL    HW130158   3.205   0.519   6.186 -0.0685  0.3418  0.4688
 6093SOL    HW230159   3.220   0.598   6.058  0.3438  0.2936  0.4901
 6094SOL     OW30160   4.115   3.220   7.915 -0.5124 -0.0727 -0.3075
 6094SOL    HW130161   4.072   3.240   7.832  0.8272  0.8101 -0.7911
 6094SOL    HW230162   4.208   3.239   7.899 -0.1057 -0.8865  1.0737
 6095SOL     OW30163   1.217   0.395   5.086 -0.0483 -0.4210 -0.3830
 6095SOL    HW130164   1.154   0.466   5.075  0.6284  0.2699  0.2144
 6095SOL    HW230165   1.226   0.385   5.180 -0.2838 -1.4287 -0.4657
 6096SOL     OW30166   2.709   4.247  17.773 -0.1498  0.5551 -0.1061
 6096SOL    HW130167   2.687   4.170  17.826  0.9941 -0.1984 -0.7192
 6096SOL    HW230168   2.661   4.234  17.691  0.3755  0.2821 -0.3721
 6097SOL     OW30169   2.382   0.558  20.670 -0.0705 -0.3620  0.5549
 6097SOL    HW130170   2.350   0.468  20.669  0.3841 -0.5337  1.1049
 6097SOL    HW230171   2.303   0.612  20.664 -0.3561 -0.7974  0.4472
 6098SOL     OW30172   2.091   4.260   0.851 -0.1502  0.0858 -0.2714
 6098SOL    HW130173   2.035   4.229   0.922  0.1465 -2.1058 -1.0132
 6098SOL    HW230174   2.174   4.215   0.864  0.9685  2.2131 -0.0482
 6099SOL     OW30175   2.987   1.541   4.729  0.2407  0.9092  0.2907
 6099SOL    HW130176   2.949   1.471   4.677  0.0851 -0.0640  1.7151
 6099SOL    HW230177   2.940   1.537   4.812  1.0477  1.9332  0.7938
 6100SOL     OW30178   2.619   3.518  19.888  0.2557  0.1593 -0.2262
 6100SOL    HW130179   2.678   3.524  19.963  0.1232  2.7702 -0.3453
 6100SOL    HW230180   2.641   3.594  19.834 -2.9771  0.9332 -0.4512
 6101SOL     OW30181   3.628   2.718  18.831 -0.4543 -0.4976 -0.2158
 6101SOL    HW130182   3.532   2.720  18.827 -0.3771  0.5413 -1.4515
 6101SOL    HW230183   3.654   2.810  18.835  0.5903 -0.7012 -2.2078
 6102SOL     OW30184   0.193   4.770   4.689 -0.4293 -0.3877 -0.1561
 6102SOL    HW130185   0.116   4.721   4.717 -0.5358  0.0464  0.3110
 6102SOL    HW230186   0.161   0.052   4.620 -0.7002  0.4248  0.6517
 6103SOL     OW30187   2.439   0.395  11.988  0.1326 -0.1040  0.1165
 6103SOL    HW130188   2.375   0.458  12.023  0.0262 -2.1436  3.5141
 6103SOL    HW230189   2.386   0.331  11.940 -0.0250  0.5199 -0.5478
 6104SOL     OW30190   0.309   2.176  16.010  1.0714  0.4625  0.2843
 6104SOL    HW130191   0.316   2.087  16.045 -2.1118  0.2114  0.2373
 6104SOL    HW230192   0.246   2.220  16.068 -0.5937  1.4377 -2.2884
 6105SOL     OW30193   2.048   3.784   4.697  0.2920 -0.3602  0.6014
 6105SOL    HW130194   1.956   3.761   4.686 -0.0533  1.0977  0.4474
 6105SOL    HW230195   2.069   3.755   4.786 -1.0485  1.7415  1.6010
 6106SOL     OW30196   2.462   2.574   4.678  0.1555  0.1999  0.5240
 6106SOL    HW130197   2.398   2.597   4.745  0.7597  0.6547  0.9478
 6106SOL    HW230198   2.410   2.557   4.600 -0.5363 -0.1889  1.0716
 6107SOL     OW30199   2.972   1.848  12.637 -0.2047  0.1332 -0.1585
 6107SOL    HW130200   2.878   1.858  12.649 -0.3718 -1.9438  0.2964
 6107SOL    HW230201   3.011   1.925  12.679 -1.7208  1.1444 -0.6292
 6108SOL     OW30202   0.001   1.614   2.678  0.3134  0.4263 -0.4264
 6108SOL    HW130203   4.760   1.645   2.767  1.0530  0.4607 -0.2964
 6108SOL    HW230204   4.691   1.615   2.636  0.4056  3.0984 -0.5631
 6109SOL     OW30205   2.028   0.526  17.508 -0.0853 -0.8712 -0.0937
 6109SOL    HW130206   2.036   0.467  17.583 -0.7256 -2.3990 -1.2374
 6109SOL    HW230207   1.936   0.551  17.507  0.0238 -0.4788 -0.0793
 6110SOL     OW30208   4.073   4.530   1.315  0.2881 -0.1216 -0.3750
 6110SOL    HW130209   3.988   4.561   1.346  0.2692 -0.7603  0.2182
 6110SOL    HW230210   4.084   4.570   1.229  0.2630  1.5316  0.3930
 6111SOL     OW30211   0.966   0.074  15.339 -0.2290 -0.5251  0.2163
 6111SOL    HW130212   0.971   4.755  15.348  0.7294 -0.3177  1.7321
 6111SOL    HW230213   0.873   0.092  15.328 -0.3559 -1.6920 -0.6057
 6112SOL     OW30214   1.291   4.077   3.290 -0.6046  0.2151  0.3125
 6112SOL    HW130215   1.357   4.131   3.248  1.0256 -1.3369  0.8779
 6112SOL    HW230216   1.324   4.063   3.379 -1.9750 -0.0612  0.7823
 6113SOL     OW30217   0.917   0.391  15.050  0.8110  0.3315 -0.4084
 6113SOL    HW130218   0.942   0.385  14.957 -0.7635 -0.9722 -0.7515
 6113SOL    HW230219   0.985   0.341  15.096  0.7811 -0.2489 -0.9957
 6114SOL     OW30220   1.212   2.613   3.949 -0.9699  0.0637 -0.1070
 6114SOL    HW130221   1.164   2.535   3.977 -0.1754  0.3151  1.9473
 6114SOL    HW230222   1.265   2.637   4.025  0.3148  1.4155 -1.4371
 6115SOL     OW30223   0.047   4.341  17.416 -0.1382 -0.2285 -0.0330
 6115SOL    HW130224   0.044   4.413  17.478 -0.5128  1.0582 -1.5276
 6115SOL    HW230225   4.755   4.280  17.446 -0.3884  0.4362  0.7451
 6116SOL     OW30226   3.872   0.623   8.400 -0.2829  0.0124 -0.0610
 6116SOL    HW130227   3.963   0.603   8.424 -0.4623  1.0217  1.4855
 6116SOL    HW230228   3.835   0.538   8.376  1.3064 -0.2733 -1.4731
 6117SOL     OW30229   4.568   1.935   3.536 -0.3308  0.6122 -0.0683
 6117SOL    HW130230   4.662   1.923   3.551 -0.5443  1.4425  1.9683
 6117SOL    HW230231   4.535   1.848   3.516  1.1873  0.5965 -2.4160
 6118SOL     OW30232   3.792   3.647   6.739  0.1866 -0.1687 -0.3784
 6118SOL    HW130233   3.733   3.602   6.799  0.4486  0.4724  0.3509
 6118SOL    HW230234   3.771   3.609   6.653 -0.2498 -1.0057  0.0926
 6119SOL     OW30235   4.478   1.176   4.519  0.5319 -0.6315  0.2728
 6119SOL    HW130236   4.456   1.093   4.477  1.8609 -0.0694 -1.5589
 6119SOL    HW230237   4.393   1.216   4.540 -0.1478 -0.6003 -2.5150
 6120SOL     OW30238   0.543   1.897   0.981 -0.0961 -0.0131 -0.0452
 6120SOL    HW130239   0.619   1.876   1.035 -0.5982 -2.2623 -0.2101
 6120SOL    HW230240   0.502   1.812   0.963 -2.1731  1.1192 -0.6436
 6121SOL     OW30241   4.237   4.217   4.080  0.0339 -0.1625 -0.2430
 6121SOL    HW130242   4.183   4.147   4.117  0.4183  0.2649  1.1421
 6121SOL    HW230243   4.202   4.297   4.119  1.2296  0.1735  0.1437
 6122SOL     OW30244   4.619   4.137  15.734 -0.2593  0.1191 -0.0824
 6122SOL    HW130245   4.592   4.045  15.740 -0.7153  0.2874  0.3862
 6122SOL    HW230246   4.680   4.149  15.806  0.2127  0.0415 -0.4669
 6123SOL     OW30247   2.298   2.653   5.023  0.2689 -0.4325 -0.1580
 6123SOL    HW130248   2.214   2.607   5.032  0.9653 -1.5134  0.7955
 6123SOL    HW230249   2.306   2.703   5.104 -0.6251  1.5966 -1.3206
 6124SOL     OW30250   1.475   3.098  19.637  0.1746 -0.2385  0.0651
 6124SOL    HW130251   1.388   3.097  19.596  0.9538 -1.5278 -1.5591
 6124SOL    HW230252   1.480   3.184  19.679 -1.7919 -0.0534 -0.0576
 6125SOL     OW30253   3.119   3.641   4.765  0.5588 -0.0737  0.3714
 6125SOL    HW130254   3.163   3.725   4.776 -0.0727  0.5602 -1.9372
 6125SOL    HW230255   3.033   3.663   4.730  0.4760 -1.6904 -0.4430
 6126SOL     OW30256   2.873   3.865  12.523  0.3523 -0.1185  0.2084
 6126SOL    HW130257   2.955   3.869  12.572 -0.7913 -1.1249  2.2062
 6126SOL    HW230258   2.856   3.771  12.513 -0.4640  0.0861 -0.3275
 6127SOL     OW30259   0.070   1.216  20.376  0.7211 -0.5088 -0.4001
 6127SOL    HW130260   0.007   1.168  20.322  2.3362  0.1461 -2.8938
 6127SOL    HW230261   0.021   1.241  20.454 -1.7539 -1.1036 -1.7696
 6128SOL     OW30262   2.695   0.978   6.147 -0.3076  0.0664  0.0191
 6128SOL    HW130263   2.640   1.012   6.217  0.3557  0.1280  0.4994
 6128SOL    HW230264   2.634   0.928   6.092 -0.7987 -0.0950  0.7063
 6129SOL     OW30265   3.335   0.780   4.574 -0.4691 -0.5010  0.4354
 6129SOL    HW130266   3.362   0.797   4.665 -0.0516 -0.0828  0.2338
 6129SOL    HW230267   3.366   0.691   4.557 -0.6869 -0.6397  0.7557
 6130SOL     OW30268   3.667   4.184   2.041  0.2421 -0.2591 -0.3515
 6130SOL    HW130269   3.731   4.125   2.082  0.0386  0.5619  1.1407
 6130SOL    HW230270   3.596   4.125   2.014  1.1286 -1.0258 -1.0292
 6131SOL     OW30271   3.277   4.323   2.211  0.1927  0.6721  0.1610
 6131SOL    HW130272   3.351   4.277   2.174  0.0364  0.5101  0.0497
 6131SOL    HW230273   3.200   4.281   2.172 -0.0341 -0.8355  2.2201
 6132SOL     OW30274   2.021   1.206  13.808 -0.5986  0.5931  0.6247
 6132SOL    HW130275   1.942   1.151  13.809 -0.8286  0.9151 -0.2345
 6132SOL    HW230276   2.038   1.223  13.901  0.1237 -1.8442  0.9434
 6133SOL     OW30277   1.621   1.559  12.060 -0.3713  0.4457 -0.0769
 6133SOL    HW130278   1.694   1.556  11.998 -0.4120  2.1298 -0.1912
 6133SOL    HW230279   1.662   1.559  12.146 -0.2588  1.0312 -0.1350
 6134SOL     OW30280   0.949   1.797   4.786 -0.1637 -0.3993  0.1601
 6134SOL    HW130281   0.865   1.763   4.754  0.8121 -2.1612 -0.5627
 6134SOL    HW230282   0.979   1.732   4.849  0.1226  0.7946  1.2559
 6135SOL     OW30283   2.339   1.997  13.996 -0.2202  0.2976 -0.4178
 6135SOL    HW130284   2.316   2.021  13.907  2.3343 -2.1028 -1.7328
 6135SOL    HW230285   2.374   1.908  13.989 -1.2230 -0.4009  3.1373
 6136SOL     OW30286   1.619   0.303   7.525 -0.0344 -0.1168 -0.0497
 6136SOL    HW130287   1.601   0.387   7.484 -1.3281 -0.8997 -1.0906
 6136SOL    HW230288   1.714   0.293   7.519  0.1347  1.3602  0.2460
 6137SOL     OW30289   3.492   2.462  20.130  0.5990  0.0973  0.4095
 6137SOL    HW130290   3.472   2.369  20.122 -0.4195  0.2890  0.7924
 6137SOL    HW230291   3.408   2.504  20.148  0.9396  1.1901 -0.5730
 6138SOL     OW30292   2.913   4.752   8.044 -0.0959  0.0564  0.2335
 6138SOL    HW130293   2.994   4.732   7.997  0.4479  2.8194 -0.0072
 6138SOL    HW230294   2.921   4.705   8.127  1.5817 -0.0060  0.0454
 6139SOL     OW30295   4.285   3.364  15.786  0.6298  0.2893 -0.1292
 6139SOL    HW130296   4.251   3.353  15.697 -0.3370 -1.2166  0.4289
 6139SOL    HW230297   4.212   3.342  15.843  2.0088 -1.2762  1.0640
 6140SOL     OW30298   1.660   1.665   5.806 -0.0811 -0.5450  0.4013
 6140SOL    HW130299   1.590   1.600   5.798  0.4924 -1.1618  0.4044
 6140SOL    HW230300   1.691   1.656   5.896  0.3249 -0.6008  0.2560
 6141SOL     OW30301   0.431   0.838  18.470 -0.0902 -0.6284 -0.4798
 6141SOL    HW130302   0.459   0.819  18.380  0.9445 -1.7831  0.0877
 6141SOL    HW230303   0.348   0.790  18.479  0.5070 -1.6403 -0.3619
 6142SOL     OW30304   2.547   2.166  18.479  0.2989  0.6513 -0.0221
 6142SOL    HW130305   2.583   2.223  18.411  0.7984 -0.2082 -0.4771
 6142SOL    HW230306   2.504   2.226  18.541  0.5369  1.4890 -0.6747
 6143SOL     OW30307   4.268   1.989  15.329 -0.3301 -0.2728  0.7510
 6143SOL    HW130308   4.315   2.072  15.319 -0.0257 -0.2835  2.0609
 6143SOL    HW230309   4.206   2.006  15.400 -0.9207 -0.8709  0.3679
 6144SOL     OW30310   4.360   2.695  16.463 -0.0018  0.3690  0.0842
 6144SOL    HW130311   4.343   2.610  16.421 -1.3492  0.4448  0.4784
 6144SOL    HW230312   4.455   2.697  16.476 -0.1346 -1.6526  1.3203
 6145SOL     OW30313   0.474   0.418   2.581  0.7135  0.1717  0.1009
 6145SOL    HW130314   0.548   0.416   2.520  1.5569  0.0937  1.1281
 6145SOL    HW230315   0.401   0.379   2.533  1.2831  0.4792 -0.9957
 6146SOL     OW30316   2.126   1.659  13.768  0.3643 -0.2213 -0.7183
 6146SOL    HW130317   2.087   1.742  13.795  0.1141 -0.5968  0.0569
 6146SOL    HW230318   2.081   1.638  13.685 -0.3560 -0.1382 -0.3508
 6147SOL     OW30319   1.692   1.682   0.396  0.0464 -0.4303  0.2250
 6147SOL    HW130320   1.785   1.705   0.404  0.2303 -0.8576 -0.6243
 6147SOL    HW230321   1.679   1.670   0.302 -1.3194  1.4577  0.1890
 6148SOL     OW30322   2.543   0.655  18.776 -0.3111 -0.0354 -0.1037
 6148SOL    HW130323   2.632   0.674  18.745 -0.0763 -0.2407  0.4578
 6148SOL    HW230324   2.506   0.598  18.709 -0.1864  0.4469 -0.5839
 6149SOL     OW30325   3.959   3.512  17.493 -0.4433  0.3107 -0.3290
 6149SOL    HW130326   3.931   3.424  17.469  0.9408  0.0161 -0.8295
 6149SOL    HW230327   3.958   3.561  17.411 -0.0899  0.4644 -0.2438
 6150SOL     OW30328   0.663   2.530   7.460 -0.1547  0.1134 -0.3251
 6150SOL    HW130329   0.610   2.566   7.389 -1.6675  1.1249  1.3285
 6150SOL    HW230330   0.600   2.502   7.526  1.3366  0.7025  1.3539
 6151SOL     OW30331   2.186   4.765   2.094 -0.4166 -0.0834 -0.8648
 6151SOL    HW130332   2.179   4.773   1.998 -0.3817  1.1808 -0.7669
 6151SOL    HW230333   2.122   4.697   2.116 -0.5369 -0.2758 -1.7747
 6152SOL     OW30334   0.106   0.932  11.467 -1.2492  0.2257  0.8424
 6152SOL    HW130335   0.167   0.929  11.541 -0.4932 -1.1304  0.1631
 6152SOL    HW230336   0.111   1.022  11.436  1.9326 -0.3964 -0.4660
 6153SOL     OW30337   2.814   0.643  17.756 -0.7091 -0.5885 -0.0384
 6153SOL    HW130338   2.805   0.582  17.829 -0.5219 -0.4516  0.0982
 6153SOL    HW230339   2.787   0.727  17.792 -2.1485 -0.8252 -0.5625
 6154SOL     OW30340   2.399   1.072  16.597 -0.2655  0.1593 -0.3774
 6154SOL    HW130341   2.470   1.041  16.541  0.6710  2.4554 -0.4680
 6154SOL    HW230342   2.348   1.130  16.541 -1.4537 -0.4425  0.0807
 6155SOL     OW30343   2.073   2.769   9.857 -0.1946 -0.5971  0.0682
 6155SOL    HW130344   2.152   2.747   9.906  1.0058  1.1958 -1.0299
 6155SOL    HW230345   2.076   2.713   9.780 -0.9668 -1.8760  0.9712
 6156SOL     OW30346   4.259   4.020   4.759  0.6950 -0.3919  0.4397
 6156SOL    HW130347   4.211   4.057   4.686 -0.3503 -1.9707  0.3206
 6156SOL    HW230348   4.334   3.976   4.718  0.9626  0.0776  0.4334
 6157SOL     OW30349   0.107   1.963   0.760 -0.0517  0.0863  0.3417
 6157SOL    HW130350   0.090   2.048   0.801  0.1281 -0.5932  1.8496
 6157SOL    HW230351   0.201   1.951   0.769 -0.1852 -0.6120  0.7885
 6158SOL     OW30352   3.094   4.581  17.509 -0.3040  0.0710 -0.4561
 6158SOL    HW130353   3.102   4.534  17.426 -2.5493 -2.9024  0.9844
 6158SOL    HW230354   3.183   4.605  17.533  0.5703 -1.1918 -2.5148
 6159SOL     OW30355   3.957   1.175  16.229 -0.3899  0.3331 -0.0440
 6159SOL    HW130356   3.987   1.157  16.140 -3.0140 -1.0504 -0.6741
 6159SOL    HW230357   3.867   1.206  16.218 -0.6612  0.3288  2.1069
 6160SOL     OW30358   1.049   3.719   0.111 -0.1260  0.1795  0.0050
 6160SOL    HW130359   1.084   3.692   0.196  0.6800  1.0012 -0.0607
 6160SOL    HW230360   1.026   3.638   0.067 -2.7896 -0.1142  1.9973
 6161SOL     OW30361   2.623   3.228  15.909  0.0712  0.0886  0.1276
 6161SOL    HW130362   2.692   3.276  15.954  0.9151 -1.2868  0.2794
 6161SOL    HW230363   2.669   3.166  15.853 -1.0585 -2.1465  1.6688
 6162SOL     OW30364   2.013   1.377  20.875 -0.2553 -0.4152  0.2410
 6162SOL    HW130365   2.010   1.410  20.785 -1.5789 -2.2935 -0.3999
 6162SOL    HW230366   1.924   1.347  20.892  0.4299 -1.6275  1.5950
 6163SOL     OW30367   3.150   2.017   4.153  0.6851  0.3188  0.1293
 6163SOL    HW130368   3.198   2.075   4.094  1.1858 -0.1625  0.0608
 6163SOL    HW230369   3.174   1.929   4.123 -1.5822  0.0950 -0.9888
 6164SOL     OW30370   3.292   0.837   5.105 -0.5996 -0.3772 -0.6345
 6164SOL    HW130371   3.208   0.881   5.100 -0.0169  0.5405 -2.3958
 6164SOL    HW230372   3.313   0.835   5.198 -2.2444 -0.0117 -0.2598
 6165SOL     OW30373   3.903   3.237   0.942  0.0495 -0.6707  0.4500
 6165SOL    HW130374   3.880   3.274   1.027 -1.0418 -1.7626  0.6254
 6165SOL    HW230375   3.892   3.310   0.881  1.0114  0.1577  1.2751
 6166SOL     OW30376   4.322   1.049  10.206  0.6218  0.4317 -0.3085
 6166SOL    HW130377   4.335   0.999  10.125  0.5613 -0.9450  0.5349
 6166SOL    HW230378   4.292   0.985  10.270  0.2638  1.5961  0.7084
 6167SOL     OW30379   3.103   2.049  16.435 -0.0676  0.1532  0.3633
 6167SOL    HW130380   3.051   1.985  16.483  1.0091 -0.0445  1.2597
 6167SOL    HW230381   3.109   2.125  16.494  0.4089  0.2907  0.1390
 6168SOL     OW30382   4.242   3.274  18.902 -0.2086 -0.2000 -0.0880
 6168SOL    HW130383   4.315   3.335  18.909  1.1799 -1.9704  0.9818
 6168SOL    HW230384   4.276   3.192  18.938 -2.5061 -1.2104 -0.2079
 6169SOL     OW30385   2.839   0.429  17.929  0.2975  0.0499  0.2059
 6169SOL    HW130386   2.934   0.432  17.923  0.0967  2.0218 -1.9227
 6169SOL    HW230387   2.812   0.368  17.861 -0.0519  0.6095 -0.1601
 6170SOL     OW30388   1.748   3.404   0.248 -0.0905 -0.2252 -0.0903
 6170SOL    HW130389   1.767   3.310   0.251  0.7016 -0.0690 -0.4839
 6170SOL    HW230390   1.790   3.440   0.325  2.3561  0.3397 -1.6986
 6171SOL     OW30391   3.199   2.864   1.157  0.3651 -0.3647  0.3763
 6171SOL    HW130392   3.133   2.907   1.102  1.2825 -0.6186 -0.9222
 6171SOL    HW230393   3.175   2.887   1.247  0.6448  2.5492 -0.3068
 6172SOL     OW30394   4.189   3.352   4.660 -0.0645 -0.1669 -0.0160
 6172SOL    HW130395   4.271   3.305   4.642  0.3522  1.2529 -1.8170
 6172SOL    HW230396   4.124   3.308   4.606 -0.5499 -1.5488  1.7215
 6173SOL     OW30397   2.573   0.877   0.644 -0.2178 -0.1442  0.2349
 6173SOL    HW130398   2.494   0.870   0.591  0.0381 -0.0701 -0.1503
 6173SOL    HW230399   2.631   0.809   0.612 -0.3619 -0.5904  0.9228
 6174SOL     OW30400   3.524   0.096   5.383  0.3269 -1.3155  0.2550
 6174SOL    HW130401   3.459   0.027   5.377  0.8477 -1.6848 -1.1603
 6174SOL    HW230402   3.556   0.108   5.294  0.0307  0.9527  0.4381
 6175SOL     OW30403   3.577   4.147   8.888  0.4700  0.1798  1.6407
 6175SOL    HW130404   3.532   4.202   8.952 -4.0080  0.3008 -1.6866
 6175SOL    HW230405   3.614   4.209   8.825 -0.3667 -0.3231  0.6576
 6176SOL     OW30406   3.039   3.879   5.468 -0.1866 -0.0411 -0.5578
 6176SOL    HW130407   3.081   3.815   5.412 -0.9361 -0.1713 -0.9679
 6176SOL    HW230408   3.103   3.896   5.537  0.5416 -0.2272 -1.1890
 6177SOL     OW30409   2.406   4.426   8.790 -0.6823  0.0690 -0.2001
 6177SOL    HW130410   2.462   4.471   8.853  0.8921 -0.6610 -1.0851
 6177SOL    HW230411   2.393   4.339   8.827 -0.2683 -0.1518 -0.5705
 6178SOL     OW30412   2.332   0.330   3.136 -0.1780 -0.1022  0.0833
 6178SOL    HW130413   2.422   0.351   3.112  0.0850  1.6221  2.5364
 6178SOL    HW230414   2.280   0.401   3.097 -0.1907  0.4515  1.1270
 6179SOL     OW30415   0.377   3.447   1.993  0.2017 -0.1708 -0.2960
 6179SOL    HW130416   0.321   3.524   1.993  1.4179  0.7178 -1.7080
 6179SOL    HW230417   0.454   3.473   2.045 -0.2085 -1.0386  0.7593
 6180SOL     OW30418   0.008   0.340   4.955 -0.2149  0.4880 -0.5162
 6180SOL    HW130419   4.712   0.290   4.994  2.1773 -1.5023  1.3719
 6180SOL    HW230420   4.754   0.430   4.957 -1.0508  0.1428  3.9281
 6181SOL     OW30421   3.292   4.541  15.270  0.5093  0.3767 -0.1980
 6181SOL    HW130422   3.324   4.612  15.327  0.7972 -1.0899  1.4498
 6181SOL    HW230423   3.370   4.506  15.229  0.4844  0.1996 -0.0924
 6182SOL     OW30424   0.766   3.902  20.746  0.3113  0.3209  0.0985
 6182SOL    HW130425   0.809   3.939  20.670 -0.4736  1.1884  0.0830
 6182SOL    HW230426   0.674   3.897  20.722 -0.0991  1.6252  1.4171
 6183SOL     OW30427   2.158   1.462  16.137 -0.5190  0.0660  0.0844
 6183SOL    HW130428   2.237   1.408  16.141 -0.7439 -0.2593  0.1961
 6183SOL    HW230429   2.086   1.399  16.148 -0.8551  0.1506 -1.6377
 6184SOL     OW30430   0.165   1.071  19.921 -0.1810 -0.1051  0.0267
 6184SOL    HW130431   0.077   1.039  19.901  0.1410 -1.4054  0.6828
 6184SOL    HW230432   0.224   1.006  19.882  0.4894  0.6121 -0.1629
 6185SOL     OW30433   1.157   2.010  18.337 -0.1736 -0.0785  0.0100
 6185SOL    HW130434   1.163   2.089  18.390  1.9907 -0.6092  0.5612
 6185SOL    HW230435   1.240   2.006  18.290 -0.6964 -1.4557 -0.8043
 6186SOL     OW30436   0.786   4.642  18.425 -0.4337  0.2726  0.0967
 6186SOL    HW130437   0.807   4.721  18.475 -1.6945  1.6160 -1.4979
 6186SOL    HW230438   0.691   4.635  18.432 -0.6300  0.5544 -2.2624
 6187SOL     OW30439   4.585   2.636   8.514  0.0667 -0.0421  0.2973
 6187SOL    HW130440   4.519   2.612   8.450  0.6021  0.5145 -0.4609
 6187SOL    HW230441   4.540   2.630   8.598 -1.0312  0.6217 -0.2379
 6188SOL     OW30442   0.630   0.510   3.457  0.2488 -0.3552 -0.1019
 6188SOL    HW130443   0.561   0.478   3.398 -0.8586 -0.5968  1.3355
 6188SOL    HW230444   0.588   0.577   3.510  1.7257  1.1614 -0.8121
 6189SOL     OW30445   0.109   2.264  18.532 -0.3298  0.4790  0.3806
 6189SOL    HW130446   0.138   2.174  18.546  0.3584  0.6785  0.2621
 6189SOL    HW230447   0.037   2.276  18.594  0.0216  0.0564  0.8742
 6190SOL     OW30448   2.834   1.829   4.454  0.4121 -0.3918 -0.3144
 6190SOL    HW130449   2.749   1.806   4.492 -0.1750 -0.6371 -1.7859
 6190SOL    HW230450   2.896   1.815   4.525 -1.0093  1.5745  1.3288
 6191SOL     OW30451   2.661   0.110   3.484 -0.7128 -0.1112  0.2045
 6191SOL    HW130452   2.625   0.192   3.449  0.9876  0.7810  0.5163
 6191SOL    HW230453   2.597   0.081   3.548 -1.0914  1.2317  0.4359
 6192SOL     OW30454   3.463   1.797  19.096 -0.7864  0.2256 -0.1546
 6192SOL    HW130455   3.535   1.734  19.097 -2.9198 -2.2341 -0.6296
 6192SOL    HW230456   3.501   1.878  19.061  1.4309 -1.4268 -1.5189
 6193SOL     OW30457   1.127   3.917  18.779 -0.1653 -0.0687 -0.2728
 6193SOL    HW130458   1.061   3.956  18.722 -2.1105 -1.9616  0.6789
 6193SOL    HW230459   1.200   3.896  18.722 -0.7023  1.3132 -1.4600
 6194SOL     OW30460   3.924   4.478  17.920 -0.0497  0.3892  0.2789
 6194SOL    HW130461   3.975   4.438  17.991 -0.7706 -1.0077 -0.0021
 6194SOL    HW230462   3.854   4.526  17.965 -0.0833  0.0957  0.5377
 6195SOL     OW30463   1.981   2.362  14.560  0.1249  0.4083  0.1776
 6195SOL    HW130464   2.026   2.346  14.477  0.0376  0.4896  0.1156
 6195SOL    HW230465   2.045   2.408  14.614  0.0426  0.7136  0.0144
 6196SOL     OW30466   1.165   3.793  16.403  0.2643  0.2658 -0.3544
 6196SOL    HW130467   1.238   3.763  16.349 -0.4414 -0.0801 -1.1175
 6196SOL    HW230468   1.192   3.773  16.493  0.0310 -2.1859 -0.8207
 6197SOL     OW30469   4.278   2.947  20.583  0.1818  0.2274 -0.6506
 6197SOL    HW130470   4.291   3.042  20.591 -0.0311  0.1121  0.9951
 6197SOL    HW230471   4.213   2.938  20.513 -0.6273  1.3435 -0.0493
 6198SOL     OW30472   3.908   2.560   2.947  0.3133  0.1853 -0.0547
 6198SOL    HW130473   3.936   2.541   2.857 -2.2932  1.5781 -1.1797
 6198SOL    HW230474   3.903   2.656   2.950 -2.2037  0.0241  0.7809
 6199SOL     OW30475   0.045   1.113   1.680  0.4724 -0.2557  0.0269
 6199SOL    HW130476   0.139   1.094   1.689  0.3596  0.3496  2.4832
 6199SOL    HW230477   0.035   1.200   1.719 -1.0455 -0.1912 -0.5372
 6200SOL     OW30478   2.789   0.066  18.469 -0.1944 -0.2502  0.3408
 6200SOL    HW130479   2.750   0.124  18.403  2.5988  0.5505 -0.5858
 6200SOL    HW230480   2.798   4.758  18.425  0.7835  0.0344 -0.0049
 6201SOL     OW30481   0.858   4.715   4.958  0.3864 -0.0133  0.3080
 6201SOL    HW130482   0.794   0.005   4.935  0.1474  0.1448  1.4045
 6201SOL    HW230483   0.888   4.679   4.875  0.9364  1.8745 -0.2956
 6202SOL     OW30484   2.534   1.593  19.949 -0.8018  0.4740  0.8805
 6202SOL    HW130485   2.543   1.666  20.011  0.1382  0.5131  0.6912
 6202SOL    HW230486   2.618   1.590  19.903 -0.6394 -1.0810  1.2733
 6203SOL     OW30487   2.911   3.373  21.030  0.1968  0.2889 -0.0858
 6203SOL    HW130488   2.911   3.435  21.103 -1.1137  2.8645 -2.2453
 6203SOL    HW230489   3.002   3.343  21.023  0.3677  0.2809  2.4163
 6204SOL     OW30490   3.934   2.705  17.950 -0.0829  0.0077 -0.0001
 6204SOL    HW130491   3.969   2.783  17.993 -0.0551 -0.0159  0.0208
 6204SOL    HW230492   3.850   2.732  17.914  0.3037  0.2683 -0.7089
 6205SOL     OW30493   3.323   2.607  13.642 -0.3706 -0.2625 -0.2696
 6205SOL    HW130494   3.316   2.512  13.632 -0.7382 -0.4198  1.4423
 6205SOL    HW230495   3.411   2.621  13.677 -1.0553 -0.1195  1.3830
 6206SOL     OW30496   2.442   2.901  20.005  0.1462 -0.2254 -0.0910
 6206SOL    HW130497   2.504   2.970  20.029 -0.7623  0.5065  0.1058
 6206SOL    HW230498   2.498   2.828  19.978  1.1131  0.1837  0.8043
 6207SOL     OW30499   0.362   3.777  18.997 -0.2233 -0.3650 -0.5049
 6207SOL    HW130500   0.336   3.819  19.079  1.1405  0.4714 -0.4917
 6207SOL    HW230501   0.458   3.782  18.997 -0.2563  0.1925 -2.4401
 6208SOL     OW30502   0.830   0.116  11.507 -0.0534  0.1271 -0.2891
 6208SOL    HW130503   0.795   0.202  11.529  3.1382  1.2832  0.2230
 6208SOL    HW230504   0.917   0.133  11.471  0.8560 -2.9263  0.4241
 6209SOL     OW30505   2.587   1.378   3.035  0.3248  0.1000  0.2176
 6209SOL    HW130506   2.569   1.425   2.954  0.4235  0.0999  0.1958
 6209SOL    HW230507   2.653   1.431   3.079 -0.0684  0.3423  0.5148
 6210SOL     OW30508   2.659   4.111  16.524  0.2096 -0.5369 -0.4137
 6210SOL    HW130509   2.645   4.206  16.528  1.7451 -0.2929 -1.0865
 6210SOL    HW230510   2.674   4.085  16.615  4.0480  0.4851 -0.7745
 6211SOL     OW30511   2.223   2.984  11.063  0.2677 -0.3088 -0.1942
 6211SOL    HW130512   2.246   2.943  11.146  1.5755 -0.9913 -0.8816
 6211SOL    HW230513   2.147   3.039  11.083  1.2057  0.3233  1.6662
 6212SOL     OW30514   2.714   1.824  16.629  0.3052  0.2416  0.3558
 6212SOL    HW130515   2.701   1.780  16.713  0.3630  0.9882  0.7559
 6212SOL    HW230516   2.628   1.859  16.606  0.1518 -0.5023 -0.2002
 6213SOL     OW30517   3.391   2.374  18.686  0.2158 -0.5807  0.3674
 6213SOL    HW130518   3.416   2.344  18.599 -1.9373  0.5611 -0.6297
 6213SOL    HW230519   3.465   2.425  18.717  0.1973  0.5714 -1.5324
 6214SOL     OW30520   2.981   3.481   5.430  0.2017 -0.2309  0.1214
 6214SOL    HW130521   2.925   3.515   5.361  1.5859  0.3302 -0.7289
 6214SOL    HW230522   2.940   3.510   5.512 -1.3608 -0.7965 -0.4619
 6215SOL     OW30523   1.430   3.902   0.984  0.1276  0.0739 -0.0780
 6215SOL    HW130524   1.491   3.833   1.007 -0.6193 -0.5144  0.1207
 6215SOL    HW230525   1.416   3.950   1.066  0.0453 -0.0085 -0.0438
 6216SOL     OW30526   1.468   4.012  17.418 -0.2659  0.0771 -0.1582
 6216SOL    HW130527   1.482   4.068  17.495 -0.1379 -0.8498  0.4992
 6216SOL    HW230528   1.522   4.051  17.350 -2.8861  2.7407 -0.6733
 6217SOL     OW30529   1.429   2.300  18.818  0.0794  0.1108  0.5920
 6217SOL    HW130530   1.425   2.301  18.723 -0.3583  0.5288  0.6087
 6217SOL    HW230531   1.471   2.217  18.841  1.4374  0.6387 -0.0055
 6218SOL     OW30532   4.189   2.391   6.575  0.3289 -0.7880  0.4919
 6218SOL    HW130533   4.253   2.323   6.596  2.0933  0.9295  0.6747
 6218SOL    HW230534   4.105   2.345   6.571  1.4864 -2.9189  0.9164
 6219SOL     OW30535   2.029   4.713  15.305  0.2599 -0.3212  1.0001
 6219SOL    HW130536   2.072   4.628  15.310  1.1725  0.1508  1.0937
 6219SOL    HW230537   2.066   4.755  15.228 -0.6954 -0.2825  0.5561
 6220SOL     OW30538   0.965   3.690  21.006  0.0290  0.1535  0.8007
 6220SOL    HW130539   0.874   3.706  20.979  0.2668  1.8971  1.0265
 6220SOL    HW230540   0.976   3.595  20.997 -1.9906 -0.1404  1.3058
 6221SOL     OW30541   1.943   3.487  15.779  0.3094  0.2235  0.7030
 6221SOL    HW130542   1.983   3.569  15.807 -0.8480  0.8872  0.4255
 6221SOL    HW230543   1.851   3.495  15.805  0.1692 -0.9309  0.5687
 6222SOL     OW30544   1.271   2.606  16.142  0.2229  0.3230 -0.4312
 6222SOL    HW130545   1.293   2.689  16.183  0.0036 -0.3013  0.9523
 6222SOL    HW230546   1.202   2.568  16.198  0.3822 -0.8213 -0.9974
 6223SOL     OW30547   3.832   2.582   3.829  0.1688  0.0993 -0.0993
 6223SOL    HW130548   3.787   2.499   3.811 -1.3930  1.3040 -1.8253
 6223SOL    HW230549   3.770   2.631   3.882  0.8034  0.4496  0.3097
 6224SOL     OW30550   4.551   4.358  19.767  0.2556  0.0379 -0.2491
 6224SOL    HW130551   4.634   4.382  19.809 -0.6659  0.2544  1.4332
 6224SOL    HW230552   4.530   4.433  19.711  0.9442  0.1850 -0.3220
 6225SOL     OW30553   4.192   2.404   3.609 -0.1011 -0.0926 -0.0553
 6225SOL    HW130554   4.242   2.331   3.646 -0.3138 -0.0982  0.2293
 6225SOL    HW230555   4.213   2.478   3.666 -0.1420 -0.0118 -0.1456
 6226SOL     OW30556   0.904   4.258   1.723  0.4573  0.0460  0.1136
 6226SOL    HW130557   0.876   4.322   1.658  3.1843  0.1059 -0.9774
 6226SOL    HW230558   0.884   4.173   1.684 -1.5193  0.1891  0.8220
 6227SOL     OW30559   2.591   0.555   7.683 -0.4891 -0.4666 -0.1281
 6227SOL    HW130560   2.586   0.606   7.602  0.1119 -0.1346  0.0417
 6227SOL    HW230561   2.647   0.480   7.661  0.3646  0.0689  0.2137
 6228SOL     OW30562   0.467   0.158   5.282  0.7887 -0.8967  0.3461
 6228SOL    HW130563   0.556   0.125   5.272  1.6597  1.1526  1.3750
 6228SOL    HW230564   0.426   0.144   5.197  2.4894 -0.6358 -0.5167
 6229SOL     OW30565   0.702   2.697  11.051  0.1001 -0.5020  0.1875
 6229SOL    HW130566   0.736   2.656  11.131  0.6359 -0.5159 -0.0468
 6229SOL    HW230567   0.715   2.791  11.066  3.5493 -0.7115 -1.4085
 6230SOL     OW30568   2.313   0.051   3.069 -0.2932 -0.3489 -0.4807
 6230SOL    HW130569   2.284   0.142   3.060 -0.2774 -0.2579  0.4274
 6230SOL    HW230570   2.252   0.012   3.132 -0.1108 -0.8909 -0.6360
 6231SOL     OW30571   1.174   2.376  13.803 -0.7294  0.0137  0.8128
 6231SOL    HW130572   1.145   2.310  13.739 -0.1707  1.1004 -0.5472
 6231SOL    HW230573   1.129   2.456  13.777  0.3827  0.7353  1.1104
 6232SOL     OW30574   1.057   0.923   4.062  0.5944  0.0500 -0.1915
 6232SOL    HW130575   1.015   0.877   3.990  0.8871  0.2525 -0.4925
 6232SOL    HW230576   1.031   1.014   4.052  1.8449  0.3324 -0.9171
 6233SOL     OW30577   0.582   2.638  16.719  0.9403  0.1615  0.4997
 6233SOL    HW130578   0.555   2.729  16.732  0.9390  0.2416 -0.0719
 6233SOL    HW230579   0.580   2.600  16.807 -0.2621  0.3857  0.5800
 6234SOL     OW30580   0.266   0.455   0.010 -0.3308 -0.1321  0.4588
 6234SOL    HW130581   0.255   0.540  21.165 -1.2090 -0.2553  0.4505
 6234SOL    HW230582   0.283   0.475   0.103 -0.4559  0.0464  0.4410
 6235SOL     OW30583   2.835   4.727  16.645  0.2228 -0.0144  0.2987
 6235SOL    HW130584   2.838   4.761  16.556  2.3354 -0.5296  0.1761
 6235SOL    HW230585   2.744   4.739  16.672 -0.0282  1.7164 -1.3071
 6236SOL     OW30586   0.854   0.815  20.284 -0.1449  0.3278  0.1532
 6236SOL    HW130587   0.805   0.879  20.335 -1.1418 -0.0733 -0.3064
 6236SOL    HW230588   0.825   0.828  20.194 -0.5962 -1.0080  0.1141
 6237SOL     OW30589   4.463   2.342  18.335  0.2163 -0.3183  0.3271
 6237SOL    HW130590   4.541   2.286  18.326  0.7950  0.8019 -1.6364
 6237SOL    HW230591   4.422   2.340  18.248 -1.3598 -0.0430  1.0708
 6238SOL     OW30592   1.371   1.252  18.212 -0.5494  0.1538 -0.6088
 6238SOL    HW130593   1.301   1.316  18.223 -1.3096 -0.2941 -3.0177
 6238SOL    HW230594   1.345   1.199  18.137  1.3645 -1.3248 -0.2449
 6239SOL     OW30595   1.253   3.354  15.033 -0.5424  0.2380  0.0566
 6239SOL    HW130596   1.336   3.393  15.007 -0.8344  1.4843  0.9390
 6239SOL    HW230597   1.265   3.260  15.023  1.0577  0.4135  0.4380
 6240SOL     OW30598   3.780   4.187  12.159  0.4599 -0.0203 -0.5345
 6240SOL    HW130599   3.872   4.173  12.182  0.7197  0.4656 -1.3050
 6240SOL    HW230600   3.771   4.282  12.154 -0.2365 -0.0485  0.1848
 6241SOL     OW30601   2.853   0.108  18.066  0.3819 -0.4111  0.2750
 6241SOL    HW130602   2.821   0.154  18.143 -0.0454  0.8709 -0.6781
 6241SOL    HW230603   2.878   0.177  18.004  0.3553 -1.4343 -0.8888
 6242SOL     OW30604   3.112   0.245   3.101  0.2966 -0.5394  0.1961
 6242SOL    HW130605   3.132   0.292   3.020  0.8841 -0.0555  0.6201
 6242SOL    HW230606   3.059   0.306   3.152 -2.6392 -1.9793 -1.1052
 6243SOL     OW30607   2.162   1.406   4.100 -0.5705  0.4687 -0.6589
 6243SOL    HW130608   2.096   1.359   4.150 -1.4085  0.6649 -1.5816
 6243SOL    HW230609   2.112   1.462   4.041  0.4532  2.6219  0.5595
 6244SOL     OW30610   2.162   4.072   8.147 -0.1622  0.1482 -0.3883
 6244SOL    HW130611   2.095   4.115   8.093  1.4526  2.4491 -0.5242
 6244SOL    HW230612   2.213   4.020   8.085  0.0926  0.7870 -0.7123
 6245SOL     OW30613   2.161   1.088  21.174  0.4844  0.1493 -0.2130
 6245SOL    HW130614   2.125   1.085  21.085  2.2868  0.5459 -0.9723
 6245SOL    HW230615   2.247   1.046  21.166  0.7935  0.5135  1.2644
 6246SOL     OW30616   0.548   1.998  17.585 -0.0802 -0.2622 -0.5657
 6246SOL    HW130617   0.480   2.045  17.633  0.9369 -0.0297  0.6298
 6246SOL    HW230618   0.626   2.006  17.639  0.7925 -0.9248 -1.7253
 6247SOL     OW30619   4.482   0.384  11.727 -0.4984 -0.8438  0.0686
 6247SOL    HW130620   4.438   0.447  11.784  1.4539  1.6146 -1.1359
 6247SOL    HW230621   4.566   0.367  11.769  0.3793 -0.0602 -1.3433
 6248SOL     OW30622   0.861   0.948  18.354 -0.1149 -0.4436  0.0833
 6248SOL    HW130623   0.855   0.998  18.273  2.6053 -1.5491 -0.7836
 6248SOL    HW230624   0.810   0.868  18.337  0.0434 -0.4469 -0.3632
 6249SOL     OW30625   4.412   4.514  20.874  0.6264 -0.2346  0.2266
 6249SOL    HW130626   4.479   4.583  20.873 -0.7613  1.0985 -0.0083
 6249SOL    HW230627   4.427   4.466  20.792  0.2349  1.0765 -0.6225
 6250SOL     OW30628   4.300   1.230  20.751 -0.1319  0.6481 -0.0057
 6250SOL    HW130629   4.307   1.169  20.679 -0.1868  1.0649 -0.3632
 6250SOL    HW230630   4.211   1.218  20.784  0.6064 -1.0682  1.3528
 6251SOL     OW30631   0.262   4.046   0.334 -0.2297 -0.1770  0.1225
 6251SOL    HW130632   0.230   3.967   0.292 -0.9090  0.4080 -0.4736
 6251SOL    HW230633   0.229   4.118   0.279 -0.9513  0.5762  1.5208
 6252SOL     OW30634   0.042   1.125  15.300 -0.5247  0.3698 -0.0388
 6252SOL    HW130635   0.042   1.063  15.227  3.2439 -0.4166  0.6052
 6252SOL    HW230636   4.729   1.122  15.335 -1.3818 -1.8357 -2.4505
 6253SOL     OW30637   3.070   0.961  18.093  0.6667 -0.3350 -0.8479
 6253SOL    HW130638   3.053   1.011  18.173  0.7824 -0.3363 -0.8233
 6253SOL    HW230639   3.064   1.026  18.023 -3.5851 -1.0939 -1.2205
 6254SOL     OW30640   2.214   3.426  18.464  0.2933  0.1258  0.1889
 6254SOL    HW130641   2.272   3.365  18.510  1.0043 -0.6923 -1.8217
 6254SOL    HW230642   2.273   3.480  18.411 -0.6949 -0.0935 -1.1308
 6255SOL     OW30643   2.471   4.639  20.345 -0.9463 -0.3776 -0.2643
 6255SOL    HW130644   2.511   4.723  20.370 -0.6473 -0.5773 -0.0790
 6255SOL    HW230645   2.544   4.580  20.332 -1.2225 -1.0359  1.1247
 6256SOL     OW30646   3.470   2.925   0.387  0.6250  0.5564 -0.4617
 6256SOL    HW130647   3.446   2.873   0.463  0.8219  0.1429 -0.6798
 6256SOL    HW230648   3.396   2.984   0.374  0.2593  0.1147 -0.4060
 6257SOL     OW30649   3.866   4.233  18.635  0.1284  0.2647 -0.1392
 6257SOL    HW130650   3.797   4.222  18.570 -0.6932  0.3931  0.7146
 6257SOL    HW230651   3.931   4.167  18.612 -0.3424  0.0485 -0.8570
 6258SOL     OW30652   4.113   0.372  20.428 -0.2540  0.1194 -0.0556
 6258SOL    HW130653   4.167   0.395  20.504 -2.3569 -0.5860  1.6838
 6258SOL    HW230654   4.035   0.427  20.437 -0.4514  0.1150 -1.7756
 6259SOL     OW30655   3.920   1.269  19.183 -0.1924 -0.0285  0.5111
 6259SOL    HW130656   3.889   1.184  19.153 -0.3101  0.4678 -0.7645
 6259SOL    HW230657   3.997   1.249  19.237  0.0713 -0.8937 -0.1935
 6260SOL     OW30658   1.660   0.318   3.583  0.5032 -0.1794  0.4373
 6260SOL    HW130659   1.687   0.327   3.674  1.5331 -0.5862  0.1618
 6260SOL    HW230660   1.590   0.383   3.573 -1.3693 -1.9229  2.2196
 6261SOL     OW30661   4.045   3.605  20.902  0.4565 -0.3670 -0.0688
 6261SOL    HW130662   4.135   3.592  20.934  0.3803  2.3710  1.2976
 6261SOL    HW230663   3.999   3.645  20.975 -1.2672  0.4418 -1.5833
 6262SOL     OW30664   2.580   3.980  16.765  0.0596 -0.0140 -0.5851
 6262SOL    HW130665   2.529   3.953  16.689 -1.1314  0.6494 -0.0274
 6262SOL    HW230666   2.544   3.929  16.838  0.2691  0.3629 -0.2158
 6263SOL     OW30667   2.974   1.169  16.072  0.1585 -0.1971 -0.2372
 6263SOL    HW130668   3.035   1.135  16.137  0.5481 -0.2827 -0.6430
 6263SOL    HW230669   3.027   1.226  16.016 -0.2829  0.2946 -0.1624
 6264SOL     OW30670   1.173   4.128  16.420 -0.3014 -0.1349 -0.1885
 6264SOL    HW130671   1.150   4.093  16.334 -2.8235  3.4805 -0.9654
 6264SOL    HW230672   1.241   4.194  16.402 -1.0528  0.8511  0.5630
 6265SOL     OW30673   1.654   0.380   6.045  0.0851 -0.2096 -0.1115
 6265SOL    HW130674   1.712   0.320   6.092 -1.0351 -1.5231 -0.3853
 6265SOL    HW230675   1.704   0.405   5.967  1.6318  1.3670  1.3908
 6266SOL     OW30676   3.241   2.645  20.066  0.3661  0.0112 -0.6017
 6266SOL    HW130677   3.165   2.609  20.020 -1.0260 -0.3881  2.0380
 6266SOL    HW230678   3.274   2.713  20.007 -0.3673 -1.7190 -3.0243
 6267SOL     OW30679   0.695   0.384   1.237  0.0059  0.5278 -0.5556
 6267SOL    HW130680   0.671   0.443   1.166  3.6545  1.4938 -1.0017
 6267SOL    HW230681   0.652   0.421   1.314 -1.0772  1.4673 -1.6137
 6268SOL     OW30682   4.202   0.327   4.469  0.4705  0.0781  0.3498
 6268SOL    HW130683   4.178   0.352   4.380  0.1168 -2.3447 -0.2391
 6268SOL    HW230684   4.260   0.251   4.457  0.5242 -0.1556  2.1673
 6269SOL     OW30685   3.773   0.911   3.370  0.1246  0.2914  0.1425
 6269SOL    HW130686   3.715   0.838   3.348  0.3074  0.1275  0.2018
 6269SOL    HW230687   3.728   0.957   3.441  0.6448 -0.5453  1.0128
 6270SOL     OW30688   3.639   1.949   1.104 -0.0027 -0.4561 -0.0844
 6270SOL    HW130689   3.590   1.994   1.035  0.6616 -0.8661 -0.8199
 6270SOL    HW230690   3.571   1.902   1.153 -0.9495  3.3025  2.1579
 6271SOL     OW30691   4.238   1.093   9.134 -0.1459 -0.1751 -0.0497
 6271SOL    HW130692   4.204   1.126   9.051  1.3466 -0.7922 -0.8998
 6271SOL    HW230693   4.187   1.014   9.151  0.8227 -1.0648 -1.2970
 6272SOL     OW30694   0.965   3.873  18.412 -0.0008  0.0156  0.4261
 6272SOL    HW130695   0.982   3.878  18.318  1.6916  0.6512  0.7612
 6272SOL    HW230696   0.967   3.964  18.441  0.5885 -0.2718  1.2683
 6273SOL     OW30697   1.597   2.353   5.830  0.4998  0.4339 -0.4437
 6273SOL    HW130698   1.558   2.424   5.881  0.4479  1.0537 -1.3399
 6273SOL    HW230699   1.531   2.333   5.763  0.1642 -1.0143  0.3089
 6274SOL     OW30700   3.708   1.548  15.116  0.1961 -0.3676 -0.0919
 6274SOL    HW130701   3.657   1.617  15.073  0.7703  0.2010  0.1450
 6274SOL    HW230702   3.715   1.479  15.049 -0.1258 -0.0773 -0.4257
 6275SOL     OW30703   1.326   3.565  20.784 -0.0855 -0.1924 -0.3644
 6275SOL    HW130704   1.318   3.642  20.841 -0.0073 -0.4592 -0.0008
 6275SOL    HW230705   1.383   3.505  20.831  0.6680 -0.0571 -1.0965
 6276SOL     OW30706   2.046   3.230   0.652 -0.7602  0.1381  0.3845
 6276SOL    HW130707   2.010   3.142   0.661  1.0223 -0.5684  0.7160
 6276SOL    HW230708   2.004   3.266   0.574 -1.0620 -1.2164 -0.0705
 6277SOL     OW30709   0.342   2.610  20.205  0.3625 -0.1286 -0.1337
 6277SOL    HW130710   0.351   2.654  20.289 -0.7499  0.6655 -0.4308
 6277SOL    HW230711   0.317   2.520  20.228  0.8340 -0.1198  0.4116
 6278SOL     OW30712   0.823   2.849   1.481  0.4263  0.0893 -0.3593
 6278SOL    HW130713   0.854   2.911   1.415 -0.4196  0.1990 -0.6463
 6278SOL    HW230714   0.891   2.782   1.485  0.8091  0.4476 -0.8388
 6279SOL     OW30715   2.281   1.984  20.213  0.2664  0.0102 -0.0231
 6279SOL    HW130716   2.242   1.933  20.141  1.7442  0.0697 -0.8663
 6279SOL    HW230717   2.258   1.935  20.292 -0.1492 -0.8183 -0.6557
 6280SOL     OW30718   1.630   4.743   8.759  0.2855 -0.2037  0.2621
 6280SOL    HW130719   1.604   4.762   8.849  1.2293  0.2720  0.4323
 6280SOL    HW230720   1.702   4.680   8.767  0.3836 -0.1460 -0.1490
 6281SOL     OW30721   0.624   3.863  19.010 -0.1975  0.1800 -0.1078
 6281SOL    HW130722   0.662   3.947  18.988 -0.0478 -0.0943 -0.8982
 6281SOL    HW230723   0.696   3.800  19.000 -0.3921 -0.0858  0.1431
 6282SOL     OW30724   3.337   4.499  19.526 -0.0352 -0.4227  0.2479
 6282SOL    HW130725   3.287   4.578  19.545  0.5212 -0.5528  2.3416
 6282SOL    HW230726   3.429   4.526  19.536  0.2183 -0.8754 -0.8173
 6283SOL     OW30727   4.440   4.250   1.240 -0.1850 -0.6864  0.7579
 6283SOL    HW130728   4.428   4.318   1.174 -0.0759 -0.8378  0.5834
 6283SOL    HW230729   4.501   4.188   1.201 -0.5713 -1.0797  0.7704
 6284SOL     OW30730   3.935   3.832  13.513 -0.0663 -0.0488  0.0365
 6284SOL    HW130731   3.898   3.879  13.587 -0.0530 -0.1549  0.1112
 6284SOL    HW230732   3.873   3.761  13.496 -0.3194  0.2682 -0.3682
 6285SOL     OW30733   1.772   3.730   3.632 -0.5984  0.0735  0.0400
 6285SOL    HW130734   1.852   3.717   3.683 -0.3320 -0.8129 -0.6170
 6285SOL    HW230735   1.794   3.799   3.570 -0.4962  0.1659  0.1778
 6286SOL     OW30736   3.367   3.037  17.102  0.4140 -0.0422 -0.1559
 6286SOL    HW130737   3.354   3.065  17.192 -1.9162  2.0161 -1.1413
 6286SOL    HW230738   3.420   3.107  17.063 -2.4802  1.2932 -1.6632
 6287SOL     OW30739   0.922   2.553  13.991 -0.3065 -0.1238  0.1050
 6287SOL    HW130740   0.988   2.597  13.938  0.1594 -0.4048  0.4471
 6287SOL    HW230741   0.843   2.605  13.979 -0.2712 -0.3300 -1.0715
 6288SOL     OW30742   1.319   2.685   0.252  0.3023  0.0855  0.6846
 6288SOL    HW130743   1.315   2.774   0.287  2.6400  0.2225  0.5590
 6288SOL    HW230744   1.288   2.694   0.161 -0.2808  0.6202  0.9342
 6289SOL     OW30745   2.014   1.272  19.875 -0.4093  0.0076 -0.2409
 6289SOL    HW130746   2.047   1.349  19.830 -0.4655  1.0115  1.4290
 6289SOL    HW230747   2.091   1.217  19.890 -0.4603 -0.5383 -1.9549
 6290SOL     OW30748   2.857   1.697  15.587 -0.6913  0.3343 -0.2389
 6290SOL    HW130749   2.845   1.603  15.574 -0.8864  0.3720 -0.3460
 6290SOL    HW230750   2.893   1.728  15.504  1.2281  0.0373  0.4983
 6291SOL     OW30751   0.850   0.205  14.424  0.4277 -0.1360 -0.5385
 6291SOL    HW130752   0.864   0.146  14.498  0.4091  0.1766 -0.2834
 6291SOL    HW230753   0.755   0.215  14.418  0.4536  0.4093 -0.1445
 6292SOL     OW30754   0.333   0.028  17.600  0.9163 -0.1491 -0.0046
 6292SOL    HW130755   0.344   0.097  17.665 -0.3778 -0.4169  0.4894
 6292SOL    HW230756   0.420   0.018  17.561  1.4037  0.8478  0.8352
 6293SOL     OW30757   2.942   3.125   2.949 -0.1975 -0.4632 -0.2704
 6293SOL    HW130758   2.987   3.199   2.988 -1.7401  0.2725  0.1265
 6293SOL    HW230759   2.855   3.125   2.989 -0.8119 -1.4161 -1.5763
 6294SOL     OW30760   3.618   0.724  15.971  0.0039  0.1209 -0.5633
 6294SOL    HW130761   3.654   0.809  15.996  0.9784 -0.7900  1.1499
 6294SOL    HW230762   3.561   0.700  16.044 -0.8596 -0.3440 -1.3944
 6295SOL     OW30763   3.454   0.966   2.546 -0.0220 -0.9665  0.3362
 6295SOL    HW130764   3.483   1.033   2.485 -0.1643 -0.9333  0.3055
 6295SOL    HW230765   3.383   0.921   2.501 -0.0631 -1.0045  0.4388
 6296SOL     OW30766   2.142   3.871  14.033  0.0042  0.2453  0.3222
 6296SOL    HW130767   2.142   3.966  14.040  0.2391  0.2964 -0.3859
 6296SOL    HW230768   2.169   3.841  14.119  0.1736  0.8276  0.4733
 6297SOL     OW30769   4.180   3.247  17.514 -0.5186  0.0283 -0.4574
 6297SOL    HW130770   4.188   3.312  17.444 -0.9592 -0.4918 -0.9962
 6297SOL    HW230771   4.192   3.297  17.594 -0.5711  0.7302 -0.8838
 6298SOL     OW30772   0.087   3.830  19.800  0.0405  0.4816  0.0192
 6298SOL    HW130773   0.087   3.735  19.787  0.4374  0.3857  0.6964
 6298SOL    HW230774   4.770   3.855  19.800  0.0107  0.3147 -1.7576
 6299SOL     OW30775   1.529   2.967   9.540  0.1879 -0.2101 -0.2860
 6299SOL    HW130776   1.596   2.900   9.549 -0.3929 -0.3294  3.1017
 6299SOL    HW230777   1.453   2.931   9.585 -0.7373  1.8679 -0.1729
 6300SOL     OW30778   1.579   1.894  16.371 -0.5687 -0.6533 -0.3244
 6300SOL    HW130779   1.623   1.900  16.286 -0.6706 -0.1694 -0.3430
 6300SOL    HW230780   1.651   1.891  16.435 -0.5251  1.5214 -0.2698
 6301SOL     OW30781   2.178   3.632   5.629 -0.2246 -0.0700  0.3417
 6301SOL    HW130782   2.272   3.619   5.619 -0.1419 -0.0789  1.1333
 6301SOL    HW230783   2.165   3.725   5.609 -0.0003  0.0139  0.5865
 6302SOL     OW30784   1.898   3.112   8.918  0.2326  0.2313  0.1771
 6302SOL    HW130785   1.836   3.169   8.873  0.5420  0.1590 -0.3437
 6302SOL    HW230786   1.854   3.088   8.999  1.2703  3.5436  1.7136
 6303SOL     OW30787   3.416   2.004   2.916 -0.0449 -0.5845 -0.1999
 6303SOL    HW130788   3.439   1.947   2.990  0.1911  0.8475  0.8305
 6303SOL    HW230789   3.375   2.080   2.957 -1.1974 -0.4276 -1.6389
 6304SOL     OW30790   0.941   1.067   1.505  0.1344 -0.4547  0.4355
 6304SOL    HW130791   0.891   1.012   1.565  3.0128 -0.4615  2.8218
 6304SOL    HW230792   0.993   1.005   1.454 -0.3927 -0.2908 -0.2940
 6305SOL     OW30793   2.968   1.070   0.800  0.1077 -0.1891  1.0596
 6305SOL    HW130794   2.874   1.066   0.820 -0.3424  0.1641 -0.9200
 6305SOL    HW230795   3.006   0.999   0.851 -1.5754 -1.7411  0.1883
 6306SOL     OW30796   1.844   1.919  20.587 -0.2344  0.4166  0.2095
 6306SOL    HW130797   1.847   1.963  20.502  0.4165 -0.8872 -0.4330
 6306SOL    HW230798   1.755   1.936  20.619 -1.0671 -0.6354 -1.5402
 6307SOL     OW30799   1.927   1.618  10.465 -0.2794  0.0253 -0.4888
 6307SOL    HW130800   1.977   1.637  10.545 -1.6715  1.3495  0.0643
 6307SOL    HW230801   1.851   1.567  10.495  0.4003 -1.4424 -1.2488
 6308SOL     OW30802   4.158   0.888   2.290 -0.3381 -0.0833 -0.3489
 6308SOL    HW130803   4.212   0.936   2.227  1.1568 -3.0132 -1.2842
 6308SOL    HW230804   4.220   0.829   2.334 -1.8825  0.0325  1.9577
 6309SOL     OW30805   0.442   0.616   1.343 -0.0845  0.4340 -0.2272
 6309SOL    HW130806   0.351   0.595   1.327  0.3088 -0.7520 -0.9195
 6309SOL    HW230807   0.467   0.674   1.270 -0.7522  2.0975  0.8722
 6310SOL     OW30808   1.195   0.527   3.398 -0.2194 -0.1267 -0.9903
 6310SOL    HW130809   1.199   0.610   3.351  0.4750 -0.9348 -2.3572
 6310SOL    HW230810   1.180   0.461   3.330  1.8990 -1.4085 -0.2169
 6311SOL     OW30811   0.603   0.183   3.726  0.3588 -0.1796 -0.0210
 6311SOL    HW130812   0.661   0.239   3.778  1.1444 -0.7218 -0.3238
 6311SOL    HW230813   0.592   0.104   3.780 -0.1956 -0.0208  0.0957
 6312SOL     OW30814   2.785   3.169  16.242 -0.2337  0.3134  0.3040
 6312SOL    HW130815   2.766   3.235  16.175  2.8614  0.1055 -0.8014
 6312SOL    HW230816   2.869   3.197  16.279 -0.1544 -1.6048  1.5512
 6313SOL     OW30817   0.521   0.656   6.709  0.4822  0.1218 -0.0116
 6313SOL    HW130818   0.555   0.714   6.641 -1.0791  0.0366 -0.8451
 6313SOL    HW230819   0.489   0.715   6.777 -0.9089  0.2139 -0.7632
 6314SOL     OW30820   0.733   1.616   4.862 -0.0389  0.1605  0.3963
 6314SOL    HW130821   0.741   1.576   4.948  0.0888 -1.9856 -0.6072
 6314SOL    HW230822   0.789   1.563   4.805 -1.3243  0.6326 -1.3289
 6315SOL     OW30823   2.512   0.219   4.919  0.0207  0.5765 -0.2006
 6315SOL    HW130824   2.565   0.206   4.840  0.4545  0.0858  0.1732
 6315SOL    HW230825   2.424   0.241   4.886  0.3182  0.8355 -0.8164
 6316SOL     OW30826   4.646   0.072   4.597  0.0905 -0.6056 -0.5954
 6316SOL    HW130827   4.557   0.104   4.584  0.1033 -0.7024 -0.9408
 6316SOL    HW230828   4.694   0.147   4.633 -0.7875 -1.3982  2.1643
 6317SOL     OW30829   0.060   2.021  17.781 -0.2772  0.0463 -0.7721
 6317SOL    HW130830   0.040   1.928  17.775  0.4466 -0.0199 -2.1052
 6317SOL    HW230831   0.057   2.040  17.875 -0.1589 -1.3791 -0.4823
 6318SOL     OW30832   2.048   0.873   1.196  0.2668  0.2821 -0.3734
 6318SOL    HW130833   2.125   0.829   1.232  1.0588  1.3357 -0.7838
 6318SOL    HW230834   2.035   0.832   1.110 -0.9857 -1.4806  0.6475
 6319SOL     OW30835   4.046   4.042   1.445  0.0086  0.0578 -0.2291
 6319SOL    HW130836   4.090   4.118   1.406  0.6360 -0.0833  0.2068
 6319SOL    HW230837   3.963   4.077   1.479 -0.6697  0.1285 -1.9380
 6320SOL     OW30838   2.359   4.125  17.800  0.0597 -0.3341  0.2871
 6320SOL    HW130839   2.367   4.148  17.708  1.7391 -0.4959  0.3840
 6320SOL    HW230840   2.312   4.198  17.840  1.7887  1.0495 -0.1732
 6321SOL     OW30841   0.842   2.939  11.154  0.2566 -0.1419  0.3718
 6321SOL    HW130842   0.911   3.005  11.144 -1.0165  1.6545  3.2338
 6321SOL    HW230843   0.883   2.868  11.203 -0.6107  1.9826  4.1801
 6322SOL     OW30844   0.849   1.018   6.043  1.0215 -0.2720 -0.5033
 6322SOL    HW130845   0.762   1.036   6.007  1.0217 -0.3200 -0.5272
 6322SOL    HW230846   0.909   1.069   5.989  1.2431 -2.1005 -1.9517
 6323SOL     OW30847   1.503   1.630  21.160 -0.0770  0.3807 -0.4468
 6323SOL    HW130848   1.449   1.701  21.194 -2.8993 -1.5795 -0.8024
 6323SOL    HW230849   1.477   1.621  21.069  0.0127 -1.3297 -0.3103
 6324SOL     OW30850   2.775   2.867  10.766  0.3726  0.3845 -0.2597
 6324SOL    HW130851   2.828   2.885  10.844  0.7677  0.9246 -0.6542
 6324SOL    HW230852   2.720   2.945  10.756  0.5282  0.4428 -0.6852
 6325SOL     OW30853   1.832   4.551   6.130  0.2936  0.3922 -0.2216
 6325SOL    HW130854   1.776   4.607   6.183  0.8563 -1.1769  2.0256
 6325SOL    HW230855   1.780   4.472   6.117  1.1564 -0.2296  0.1191
 6326SOL     OW30856   3.343   2.044   6.247 -0.2378  0.1756 -0.4646
 6326SOL    HW130857   3.320   2.041   6.154 -0.0185  0.3514 -0.5252
 6326SOL    HW230858   3.421   2.099   6.250 -1.1377  1.4197  0.0054
 6327SOL     OW30859   4.157   3.303  10.310 -0.3516 -0.3553  0.2223
 6327SOL    HW130860   4.210   3.375  10.277 -0.4920 -0.3907 -0.0865
 6327SOL    HW230861   4.097   3.344  10.372  1.2341 -0.5964  1.9223
 6328SOL     OW30862   4.340   2.064   3.431  0.1704 -0.2924 -0.3411
 6328SOL    HW130863   4.292   2.020   3.501 -0.5641  2.5276  0.9110
 6328SOL    HW230864   4.432   2.047   3.451 -0.0503  0.4003  1.2028
 6329SOL     OW30865   3.807   3.644  15.307  0.2512  0.1328  0.3311
 6329SOL    HW130866   3.804   3.740  15.304  1.0100  0.0703 -2.8569
 6329SOL    HW230867   3.900   3.623  15.313  0.1825 -0.4393 -0.6131
 6330SOL     OW30868   0.171   1.892   7.705 -0.2982 -0.1410  0.2453
 6330SOL    HW130869   0.146   1.968   7.653 -0.5107  0.4162  1.1637
 6330SOL    HW230870   0.176   1.820   7.642 -1.3704  0.3625 -0.4114
 6331SOL     OW30871   1.564   2.103   2.749  0.7997 -0.0656 -0.4788
 6331SOL    HW130872   1.502   2.032   2.765  1.3295 -0.5404 -0.5250
 6331SOL    HW230873   1.639   2.081   2.804  0.5135  1.0457  0.3634
 6332SOL     OW30874   3.234   1.427   9.431  0.2764 -0.7010 -0.6953
 6332SOL    HW130875   3.308   1.436   9.370  0.4489  1.5207 -0.1658
 6332SOL    HW230876   3.156   1.431   9.376  0.4955 -0.7809 -1.0082
 6333SOL     OW30877   4.678   2.655  18.167  0.0783  0.5301 -0.0107
 6333SOL    HW130878   4.680   2.620  18.257 -0.4098 -0.1929 -0.2738
 6333SOL    HW230879   4.603   2.610  18.127  0.7349  0.3331 -0.9919
 6334SOL     OW30880   1.053   1.749   5.238 -0.3652 -0.0270 -0.4678
 6334SOL    HW130881   1.139   1.787   5.258 -1.5944  2.2229  0.5034
 6334SOL    HW230882   1.024   1.709   5.319 -1.2606  1.1971 -0.1810
 6335SOL     OW30883   4.743   1.545  17.621 -0.0746 -0.3522  0.4895
 6335SOL    HW130884   4.729   1.540  17.527 -2.0552  0.5321  0.7360
 6335SOL    HW230885   4.708   1.463  17.655 -0.5136 -0.1118  0.6094
 6336SOL     OW30886   3.996   4.105   2.789 -0.0689  0.0428 -0.2243
 6336SOL    HW130887   4.083   4.127   2.822 -0.7758  1.6929  0.5239
 6336SOL    HW230888   4.013   4.063   2.704  1.5270 -0.8931  0.5420
 6337SOL     OW30889   1.395   2.759  20.512 -0.1134 -0.0450 -0.3259
 6337SOL    HW130890   1.393   2.778  20.606  0.0648  1.5712 -0.6436
 6337SOL    HW230891   1.487   2.767  20.487 -0.1371 -0.6321 -0.5968
 6338SOL     OW30892   4.301   0.395  17.372 -0.3090 -0.3007 -0.0836
 6338SOL    HW130893   4.265   0.483  17.369  1.0995  0.1777 -2.6269
 6338SOL    HW230894   4.257   0.353  17.446 -1.4792  2.3062  0.6693
 6339SOL     OW30895   4.413   4.726   5.424 -0.3611  0.2003  0.2775
 6339SOL    HW130896   4.394   4.713   5.331  0.0353  0.6809  0.1318
 6339SOL    HW230897   4.332   4.703   5.468 -0.4485 -0.3534 -0.1646
 6340SOL     OW30898   0.037   2.016   9.218  0.6650  0.5491  0.2501
 6340SOL    HW130899   0.112   2.061   9.178  1.5908 -0.9678  0.2684
 6340SOL    HW230900   0.016   2.068   9.296  1.1549  1.4680 -0.2363
 6341SOL     OW30901   0.244   1.652   2.837 -0.2444  0.7422 -0.2518
 6341SOL    HW130902   0.168   1.650   2.896  0.2772  2.7898  0.4912
 6341SOL    HW230903   0.215   1.705   2.763 -0.0776  0.1864 -0.7135
 6342SOL     OW30904   3.581   4.146   3.130 -0.4701  0.0735  0.1549
 6342SOL    HW130905   3.669   4.150   3.094 -0.8315  1.3682 -0.5708
 6342SOL    HW230906   3.589   4.091   3.208  1.0995  0.7600  0.4684
 6343SOL     OW30907   3.200   1.025  19.430 -0.2407 -0.1939  0.0830
 6343SOL    HW130908   3.250   0.985  19.501 -0.4628 -0.1520  0.2642
 6343SOL    HW230909   3.199   1.118  19.451  1.3688  0.0749 -1.0192
 6344SOL     OW30910   4.367   3.694   9.423 -0.1005 -0.3632 -0.3457
 6344SOL    HW130911   4.336   3.648   9.501  3.0455 -1.1796  0.4242
 6344SOL    HW230912   4.448   3.649   9.398 -0.1756  0.9627 -3.0794
 6345SOL     OW30913   3.902   0.060   1.540  0.4379  0.1038  0.0878
 6345SOL    HW130914   3.970   0.043   1.606  1.6741  0.6381 -1.0646
 6345SOL    HW230915   3.921   4.775   1.469  0.0011  0.6151 -0.4654
 6346SOL     OW30916   1.232   2.526  19.343 -0.1229 -0.1569 -0.3164
 6346SOL    HW130917   1.200   2.606  19.303 -0.4346 -0.6967 -1.1404
 6346SOL    HW230918   1.198   2.529  19.433  1.6237  1.6412  0.2659
 6347SOL     OW30919   1.095   1.541   1.214  0.0766  0.0359  0.3268
 6347SOL    HW130920   1.016   1.592   1.192 -0.5538 -1.5932 -1.2049
 6347SOL    HW230921   1.063   1.471   1.271  0.2784 -1.1610 -1.0391
 6348SOL     OW30922   2.592   1.985  12.887  0.3423  0.0621 -0.6733
 6348SOL    HW130923   2.584   2.021  12.975 -1.4920  0.3789 -0.9528
 6348SOL    HW230924   2.594   2.061  12.830 -2.5000 -0.2527 -1.1928
 6349SOL     OW30925   0.025   1.757   9.284 -0.3826 -0.3667  0.4052
 6349SOL    HW130926   0.031   1.853   9.280  0.3912 -0.5110 -1.7417
 6349SOL    HW230927   0.033   1.729   9.193 -1.1016 -2.4479  0.9938
 6350SOL     OW30928   0.661   4.002  18.264 -0.3246 -0.0615 -0.2155
 6350SOL    HW130929   0.724   4.009  18.192  2.4350  0.1006  2.1812
 6350SOL    HW230930   0.696   4.060  18.331 -2.3774 -0.9601  1.6137
 6351SOL     OW30931   1.929   2.366   3.232 -0.1767 -0.5209  0.0132
 6351SOL    HW130932   1.981   2.424   3.177 -3.0229  0.5617 -1.5111
 6351SOL    HW230933   1.887   2.425   3.295 -1.9172 -1.0761 -0.6292
 6352SOL     OW30934   4.727   2.427   0.188 -0.1309 -0.1747  0.3658
 6352SOL    HW130935   4.769   2.423   0.102 -3.0850 -0.4724 -1.0817
 6352SOL    HW230936   4.634   2.442   0.168 -0.7076  0.3748  3.5164
 6353SOL     OW30937   4.415   1.391  11.379 -0.1021 -0.4093  0.3628
 6353SOL    HW130938   4.471   1.341  11.320  0.9905  0.3743  0.7344
 6353SOL    HW230939   4.445   1.481  11.371  0.5527 -0.4275  2.6942
 6354SOL     OW30940   2.973   0.224  16.901 -0.6639 -0.0105  0.4446
 6354SOL    HW130941   2.989   0.300  16.846 -1.0936  0.0496  0.4013
 6354SOL    HW230942   2.888   0.241  16.941 -0.5970 -0.3026  0.7088
 6355SOL     OW30943   0.203   2.222  14.181  0.0522 -0.1971 -0.0245
 6355SOL    HW130944   0.166   2.261  14.260  0.4648 -0.5434  0.3354
 6355SOL    HW230945   0.182   2.129  14.187  0.0437 -0.2164 -0.3424
 6356SOL     OW30946   3.840   0.855   2.159  0.0196 -0.3976 -0.2601
 6356SOL    HW130947   3.884   0.923   2.109  0.5701 -1.3660 -1.0888
 6356SOL    HW230948   3.821   0.896   2.244 -1.3400  1.3816 -1.4271
 6357SOL     OW30949   1.878   4.609  11.034  0.5874 -0.3806 -0.0980
 6357SOL    HW130950   1.915   4.631  11.120  0.1717 -0.8240  0.1953
 6357SOL    HW230951   1.796   4.564  11.054  0.5955 -0.6754 -0.7208
 6358SOL     OW30952   0.972   4.743  13.446 -0.0355 -0.0251 -0.0579
 6358SOL    HW130953   1.062   4.754  13.477 -0.4190  1.0593  0.6696
 6358SOL    HW230954   0.980   4.738  13.351  0.9786 -1.7601  0.1299
 6359SOL     OW30955   3.135   0.501  17.060 -0.5768 -0.3044  0.0194
 6359SOL    HW130956   3.162   0.413  17.088 -0.3526  0.0002  0.7628
 6359SOL    HW230957   3.039   0.495  17.053 -0.6650 -0.2653  1.2524
 6360SOL     OW30958   2.939   1.540   3.586  0.4778 -0.2485 -0.4497
 6360SOL    HW130959   2.893   1.583   3.658  1.4673  0.1289 -0.0430
 6360SOL    HW230960   2.945   1.449   3.612  0.7327 -0.1339 -0.1104
 6361SOL     OW30961   1.963   4.215   3.108 -0.1378 -0.0899 -0.3929
 6361SOL    HW130962   1.882   4.165   3.092 -0.3297 -0.3748  1.5520
 6361SOL    HW230963   2.011   4.163   3.172  0.5397  1.2782  0.1945
 6362SOL     OW30964   2.702   3.863   2.212 -0.5807 -0.2351  0.2085
 6362SOL    HW130965   2.707   3.887   2.304  0.0784  0.9197 -0.1243
 6362SOL    HW230966   2.705   3.768   2.212 -0.5895 -0.2389  1.3841
 6363SOL     OW30967   1.685   1.008   2.767 -0.2551 -0.4025 -0.1300
 6363SOL    HW130968   1.709   1.100   2.772 -0.8636 -0.3033  1.0375
 6363SOL    HW230969   1.675   0.981   2.859 -1.2733 -1.3068 -0.5078
 6364SOL     OW30970   1.938   0.342  20.663  0.1687  0.0375  0.3157
 6364SOL    HW130971   1.878   0.409  20.697  0.7882  0.3900  0.6974
 6364SOL    HW230972   1.916   0.263  20.712 -0.8559 -0.1506 -0.4329
 6365SOL     OW30973   0.141   4.038  15.656  0.2763 -0.4712  0.4547
 6365SOL    HW130974   0.214   4.101  15.653 -0.1552 -0.0967 -1.8438
 6365SOL    HW230975   0.130   4.009  15.566 -0.8213 -2.3964  1.2049
 6366SOL     OW30976   4.639   3.956  19.740  0.3466 -0.2612 -0.2912
 6366SOL    HW130977   4.608   4.041  19.770 -0.8191  0.0041 -2.1955
 6366SOL    HW230978   4.579   3.893  19.780  1.0056 -0.1405  0.8562
 6367SOL     OW30979   2.500   2.583   3.132  0.3669  0.4538  0.1964
 6367SOL    HW130980   2.439   2.536   3.189  0.1642 -0.6663 -0.9328
 6367SOL    HW230981   2.452   2.662   3.106  0.3947  0.8694  1.4336
 6368SOL     OW30982   2.491   3.373  14.031  0.4682 -0.1663  0.1538
 6368SOL    HW130983   2.460   3.386  14.120  0.5828  0.7257  0.0595
 6368SOL    HW230984   2.413   3.378  13.976  0.3534 -1.0353  0.2355
 6369SOL     OW30985   0.459   1.825   1.550  0.4093 -0.5705  0.3536
 6369SOL    HW130986   0.435   1.916   1.537 -0.8924 -1.0946 -0.9178
 6369SOL    HW230987   0.377   1.776   1.539  1.1595 -1.9149  0.6814
 6370SOL     OW30988   4.311   3.548  20.925 -0.7514  0.1894 -0.3035
 6370SOL    HW130989   4.360   3.600  20.861  2.3219 -0.5564  1.4255
 6370SOL    HW230990   4.314   3.459  20.889 -0.7189  0.1238 -0.1374
 6371SOL     OW30991   3.854   1.432   0.495 -0.3132  0.0117 -0.3741
 6371SOL    HW130992   3.852   1.417   0.400  0.2673 -1.7222 -0.1237
 6371SOL    HW230993   3.931   1.487   0.510  0.0325 -0.3401 -0.8423
 6372SOL     OW30994   4.465   1.405   5.755 -0.2159 -0.2822 -0.4050
 6372SOL    HW130995   4.380   1.379   5.790 -0.3298 -0.2671 -0.6697
 6372SOL    HW230996   4.480   1.344   5.683  0.3288 -0.7489  0.1060
 6373SOL     OW30997   3.308   1.345   2.270  0.2866 -0.3826  0.0684
 6373SOL    HW130998   3.295   1.383   2.356 -0.3015 -0.7904  0.1616
 6373SOL    HW230999   3.344   1.416   2.217 -4.5052  1.3980 -0.8210
 6374SOL     OW31000   3.820   3.830   4.223 -0.5794  0.0202 -0.1236
 6374SOL    HW131001   3.757   3.859   4.289  0.6807  1.2989  0.5160
 6374SOL    HW231002   3.864   3.755   4.264 -1.7112 -0.8969 -0.5862
 6375SOL     OW31003   1.740   3.337  16.020  0.2655 -0.3699 -0.2329
 6375SOL    HW131004   1.730   3.405  15.954 -0.8604 -1.6662 -1.4039
 6375SOL    HW231005   1.653   3.295  16.025  0.7768 -1.3059  0.9093
 6376SOL     OW31006   3.931   1.661  18.744 -0.7911 -0.0339 -1.1638
 6376SOL    HW131007   3.966   1.659  18.833  0.8059  0.6630 -1.7737
 6376SOL    HW231008   3.999   1.619  18.691 -0.9420  1.2016 -2.3321
 6377SOL     OW31009   2.071   3.077  20.141 -0.4681 -0.5926  0.4968
 6377SOL    HW131010   2.152   3.080  20.192 -0.9995 -0.8034  1.3549
 6377SOL    HW231011   2.068   2.988  20.106 -0.0773 -0.4324  0.0483
 6378SOL     OW31012   3.459   1.077  17.953 -0.1547  0.0919 -0.3410
 6378SOL    HW131013   3.547   1.041  17.940  0.7022  2.7642 -1.7537
 6378SOL    HW231014   3.444   1.068  18.047  1.9243  0.3837  0.0265
 6379SOL     OW31015   1.825   3.186  17.919  0.3528 -0.3043  0.4345
 6379SOL    HW131016   1.833   3.179  18.014  1.2931 -3.1777  0.1539
 6379SOL    HW231017   1.893   3.248  17.894  0.3034  0.2304  1.6013
 6380SOL     OW31018   4.123   2.052   1.693  0.0895  0.7176 -0.6738
 6380SOL    HW131019   4.109   2.001   1.772  0.8165  1.0819 -0.3162
 6380SOL    HW231020   4.047   2.111   1.689 -0.7482 -0.3714 -1.0852
 6381SOL     OW31021   2.347   2.439   3.360 -0.3229  0.2743  0.0784
 6381SOL    HW131022   2.284   2.508   3.340 -0.0870  0.2437 -0.7560
 6381SOL    HW231023   2.373   2.456   3.451 -1.4749  0.3357  0.3968
 6382SOL     OW31024   2.259   1.209   3.640 -0.0937  0.1726  0.1485
 6382SOL    HW131025   2.320   1.166   3.700 -0.1275 -0.3507 -0.1910
 6382SOL    HW231026   2.315   1.257   3.579 -0.0134 -0.5399 -0.3374
 6383SOL     OW31027   3.342   4.417  20.577 -0.5902 -0.0763  0.3581
 6383SOL    HW131028   3.277   4.482  20.602 -1.1003 -0.9369  1.2309
 6383SOL    HW231029   3.301   4.332  20.595 -0.5059 -0.6611 -2.2069
 6384SOL     OW31030   4.107   0.364  17.587 -0.4039 -0.2907 -0.5199
 6384SOL    HW131031   4.037   0.317  17.631  1.0127 -2.4546 -0.5464
 6384SOL    HW231032   4.140   0.425  17.652 -1.0910 -0.5672  0.0820
 6385SOL     OW31033   1.748   3.490  17.747 -0.3411  0.3030  0.0805
 6385SOL    HW131034   1.770   3.478  17.839 -0.4549 -0.3050  0.0291
 6385SOL    HW231035   1.828   3.525  17.707 -1.0723  2.9116  0.8977
 6386SOL     OW31036   4.534   1.953  17.305  0.1004  0.7295 -0.1692
 6386SOL    HW131037   4.543   1.879  17.245  1.1603  0.2100  0.6241
 6386SOL    HW231038   4.617   2.000  17.297 -0.8901  2.2726 -1.2709
 6387SOL     OW31039   4.336   0.841   9.625 -0.1093 -0.0382  0.0890
 6387SOL    HW131040   4.319   0.786   9.549 -0.1013 -1.3820  1.0619
 6387SOL    HW231041   4.254   0.888   9.639  0.0018  0.4753 -0.9636
 6388SOL     OW31042   3.398   0.926   4.151  0.6986 -0.4954  0.1127
 6388SOL    HW131043   3.378   0.975   4.071  1.2494 -0.8871 -0.2621
 6388SOL    HW231044   3.460   0.982   4.198  0.4570 -0.3143  0.2179
 6389SOL     OW31045   2.671   2.385  17.541  0.2866  0.4024  0.4151
 6389SOL    HW131046   2.583   2.395  17.576  0.9943  0.9912  2.0185
 6389SOL    HW231047   2.676   2.450  17.471 -0.5123  0.4647  0.4200
 6390SOL     OW31048   3.517   2.124   0.955 -0.4424 -0.2323  0.1446
 6390SOL    HW131049   3.544   2.096   0.868 -2.8860 -0.7845 -0.4245
 6390SOL    HW231050   3.453   2.194   0.940 -0.9890 -0.4342  1.4902
 6391SOL     OW31051   0.398   3.885   9.267  0.4958 -0.6663  0.5808
 6391SOL    HW131052   0.364   3.833   9.339  0.8227 -0.4840  0.8656
 6391SOL    HW231053   0.369   3.974   9.285 -1.4267 -1.0263 -0.7486
 6392SOL     OW31054   1.129   0.245  15.202 -0.0553  0.2026 -0.2416
 6392SOL    HW131055   1.104   0.155  15.221  0.1188  0.3164  0.5497
 6392SOL    HW231056   1.177   0.274  15.280  1.7142  0.2984 -1.3625
 6393SOL     OW31057   2.563   3.721  16.938  0.0282 -0.6625 -0.4003
 6393SOL    HW131058   2.656   3.737  16.922 -0.1194 -0.0519 -0.6855
 6393SOL    HW231059   2.532   3.678  16.859  0.0809 -0.9182 -0.2816
 6394SOL     OW31060   4.119   1.152   4.841 -0.7014 -0.1420 -0.5325
 6394SOL    HW131061   4.133   1.136   4.934  1.6321  1.2849 -0.6518
 6394SOL    HW231062   4.051   1.219   4.839 -2.0543 -1.4627  0.0976
 6395SOL     OW31063   2.071   2.450   8.479 -0.0692 -0.5352 -0.1539
 6395SOL    HW131064   2.055   2.469   8.572  0.6972 -0.7159  0.0071
 6395SOL    HW231065   2.083   2.536   8.439 -1.1222 -0.4110 -0.2166
 6396SOL     OW31066   3.525   0.556   6.658 -0.4406  0.4567 -0.2687
 6396SOL    HW131067   3.601   0.537   6.602 -1.7416 -1.9298 -1.2176
 6396SOL    HW231068   3.465   0.604   6.601 -0.7168  0.1519 -0.2359
 6397SOL     OW31069   2.082   1.558   2.184 -0.6311 -0.8185  0.0887
 6397SOL    HW131070   2.109   1.542   2.094 -0.8541 -0.7074  0.0035
 6397SOL    HW231071   1.987   1.547   2.184 -0.7737  0.4748  0.0412
 6398SOL     OW31072   0.218   3.757  20.732  0.6845 -0.4167  0.6133
 6398SOL    HW131073   0.240   3.670  20.697 -2.3762 -1.4285  1.1925
 6398SOL    HW231074   0.193   3.808  20.655  1.4668 -0.3617  0.3966
 6399SOL     OW31075   3.046   1.735   2.359  0.5279  0.0437  0.1545
 6399SOL    HW131076   3.134   1.762   2.384 -0.1661  1.8946  0.5665
 6399SOL    HW231077   3.042   1.752   2.264  0.8161 -0.5917  0.0284
 6400SOL     OW31078   1.461   3.320  20.470 -0.4155 -0.0709  0.0118
 6400SOL    HW131079   1.387   3.271  20.433 -0.8018  1.6659 -1.5488
 6400SOL    HW231080   1.465   3.400  20.416  2.6979 -0.2538  0.0156
 6401SOL     OW31081   1.993   1.517  15.396  0.2970  0.3518 -0.0373
 6401SOL    HW131082   2.041   1.524  15.478 -1.6218 -0.6245  1.1569
 6401SOL    HW231083   2.031   1.440  15.352 -0.3880 -0.5936  1.0369
 6402SOL     OW31084   4.744   1.812   1.334  0.4251 -0.1276 -0.0457
 6402SOL    HW131085   4.701   1.887   1.292  0.7577 -0.6517 -1.3285
 6402SOL    HW231086   4.673   1.749   1.347  0.4185 -0.1810 -0.3244
 6403SOL     OW31087   1.424   3.541   4.546  0.8531 -0.0168  0.4914
 6403SOL    HW131088   1.342   3.559   4.592  0.3091  0.2753 -0.5768
 6403SOL    HW231089   1.430   3.445   4.546 -0.7754 -0.1359 -1.6330
 6404SOL     OW31090   4.323   3.617   1.483 -0.4130 -0.1351 -0.3455
 6404SOL    HW131091   4.340   3.711   1.485  1.5783 -0.5626  2.5479
 6404SOL    HW231092   4.409   3.576   1.483 -1.2622 -1.9635 -1.6398
 6405SOL     OW31093   0.468   3.326   1.772 -0.0249  0.2094  0.1523
 6405SOL    HW131094   0.389   3.349   1.820 -0.6758 -1.9041  0.1140
 6405SOL    HW231095   0.472   3.230   1.777  1.4313  0.1752 -1.5729
 6406SOL     OW31096   4.336   0.605  11.845  0.2369  0.0503  0.3581
 6406SOL    HW131097   4.359   0.680  11.789 -1.6452 -0.0310 -0.5025
 6406SOL    HW231098   4.243   0.590  11.829 -0.0304 -0.7181  2.6389
 6407SOL     OW31099   1.111   2.235   8.462 -0.8121  0.0863 -0.1535
 6407SOL    HW131100   1.128   2.263   8.552 -0.5546  1.6466 -0.6901
 6407SOL    HW231101   1.036   2.289   8.434 -1.7198 -1.3065 -0.4301
 6408SOL     OW31102   4.246   3.055   3.823  0.6107 -0.0894  0.3248
 6408SOL    HW131103   4.187   3.070   3.898  0.5560  0.7449  0.1110
 6408SOL    HW231104   4.317   3.117   3.836  1.4984 -1.1619  0.6277
 6409SOL     OW31105   2.801   0.604   3.528  0.3473  0.6678 -0.8710
 6409SOL    HW131106   2.829   0.692   3.504  0.5337  1.0952  0.9384
 6409SOL    HW231107   2.705   0.610   3.531  0.4455  1.2184  0.9081
 6410SOL     OW31108   2.572   0.359   3.393  0.4060  0.0803  0.1154
 6410SOL    HW131109   2.594   0.355   3.301 -1.4237 -0.9774 -0.2852
 6410SOL    HW231110   2.553   0.452   3.410 -3.1224 -0.3458 -1.4843
 6411SOL     OW31111   2.547   3.409   3.232  1.0478 -0.2540 -0.8146
 6411SOL    HW131112   2.545   3.342   3.301 -1.3111 -0.9155 -1.5145
 6411SOL    HW231113   2.538   3.492   3.279  0.4887 -0.6454 -0.2284
 6412SOL     OW31114   1.259   0.392   3.883  0.1710 -0.5545  0.1217
 6412SOL    HW131115   1.257   0.488   3.882  2.3702 -0.5280 -1.8068
 6412SOL    HW231116   1.178   0.366   3.839 -0.3939  0.4405  0.5812
 6413SOL     OW31117   0.752   0.998   1.322  0.0311  0.1339 -0.4809
 6413SOL    HW131118   0.754   0.908   1.291 -1.1427 -0.4955  1.2884
 6413SOL    HW231119   0.838   1.012   1.362  1.1491  0.6043 -3.0469
 6414SOL     OW31120   0.330   2.112   1.951 -0.5499 -0.1900 -0.3221
 6414SOL    HW131121   0.286   2.048   2.006 -1.1123 -0.1130 -0.6840
 6414SOL    HW231122   0.271   2.125   1.877 -0.6636  1.1179  0.0030
 6415SOL     OW31123   4.543   1.760   2.574 -0.0772  0.3416  0.2102
 6415SOL    HW131124   4.607   1.765   2.503 -0.0035  0.3635  0.2791
 6415SOL    HW231125   4.468   1.809   2.541  0.2333  0.9738  0.4408
 6416SOL     OW31126   2.860   1.734   0.068 -0.3132 -0.0749  0.0677
 6416SOL    HW131127   2.909   1.654   0.049 -0.4374 -0.0569 -0.3342
 6416SOL    HW231128   2.897   1.799   0.007  0.0664  0.2744  0.6692
 6417SOL     OW31129   3.625   1.778   0.716 -0.4270  0.0374  0.2891
 6417SOL    HW131130   3.626   1.760   0.622  0.5044  1.8812 -0.0491
 6417SOL    HW231131   3.580   1.862   0.725 -1.5721 -0.7182  1.5834
 6418SOL     OW31132   0.108   4.036   4.049  0.4337 -0.0513 -0.7133
 6418SOL    HW131133   0.105   4.131   4.036 -1.6517 -0.1257 -0.8384
 6418SOL    HW231134   0.132   4.025   4.141 -0.5982  0.6170 -0.3562
 6419SOL     OW31135   2.335   4.517  19.454 -0.1533  0.4318  0.0853
 6419SOL    HW131136   2.381   4.600  19.438  0.9368  0.2710  2.3740
 6419SOL    HW231137   2.362   4.461  19.381  1.1849  1.2312 -0.0426
 6420SOL     OW31138   0.779   4.371  11.485 -0.5101  0.1413 -0.9207
 6420SOL    HW131139   0.683   4.374  11.474 -0.6381 -0.7430  0.0044
 6420SOL    HW231140   0.802   4.459  11.517 -1.1440  0.0086 -0.0850
 6421SOL     OW31141   3.963   3.193  18.844 -0.6701 -0.1229 -0.1643
 6421SOL    HW131142   4.056   3.210  18.854 -0.9780  1.3127  0.2748
 6421SOL    HW231143   3.956   3.141  18.764  0.7811 -2.5788  1.3053
 6422SOL     OW31144   2.376   1.323  13.712 -0.3360 -0.3892  0.6135
 6422SOL    HW131145   2.323   1.243  13.716 -0.6178 -0.2597 -0.4661
 6422SOL    HW231146   2.353   1.363  13.628  0.1612  0.5795  0.9392
 6423SOL     OW31147   0.353   3.707  16.981  0.7707  0.5006  0.8178
 6423SOL    HW131148   0.292   3.781  16.972  0.2003 -0.2381 -1.5767
 6423SOL    HW231149   0.322   3.644  16.916  2.7942 -0.7810  1.1206
 6424SOL     OW31150   2.876   1.319   5.048 -0.3076  0.1865  0.0905
 6424SOL    HW131151   2.806   1.383   5.062  1.2584  1.8704  0.2319
 6424SOL    HW231152   2.873   1.263   5.126 -1.2034  0.5412  0.3121
 6425SOL     OW31153   2.025   3.194  17.496  0.6628 -0.1044  0.3166
 6425SOL    HW131154   1.932   3.215  17.502  0.4296 -0.9819 -0.1649
 6425SOL    HW231155   2.030   3.100  17.516  1.4540 -0.0330  0.4558
 6426SOL     OW31156   1.202   2.027   2.116  0.1148  0.1686  0.2589
 6426SOL    HW131157   1.249   1.975   2.181  0.2202  0.3591  0.3343
 6426SOL    HW231158   1.217   1.982   2.033 -0.7295 -0.5637  0.4941
 6427SOL     OW31159   1.788   1.675   0.882  0.5660 -0.2564 -0.2659
 6427SOL    HW131160   1.801   1.717   0.967 -1.1203 -1.7438  0.7315
 6427SOL    HW231161   1.731   1.735   0.834 -0.4098 -0.5730  0.5108
 6428SOL     OW31162   3.250   3.897   3.806  0.7618 -0.0532 -0.3439
 6428SOL    HW131163   3.328   3.844   3.822  1.4788  0.9934 -0.3846
 6428SOL    HW231164   3.209   3.906   3.893  0.9029 -0.2486 -0.2571
 6429SOL     OW31165   4.380   2.489  20.523 -0.1690  0.2226  0.9417
 6429SOL    HW131166   4.460   2.440  20.540  1.0842  1.7333 -0.6190
 6429SOL    HW231167   4.360   2.530  20.608  0.0754 -1.0902  1.6335
 6430SOL     OW31168   1.082   3.459  13.559  0.1889  0.0827 -0.4888
 6430SOL    HW131169   1.129   3.497  13.485  2.5687  1.0261  1.5237
 6430SOL    HW231170   1.019   3.526  13.585 -1.2451 -0.5884 -2.2086
 6431SOL     OW31171   2.098   3.405   0.091  0.6129 -0.1788 -0.1064
 6431SOL    HW131172   2.142   3.449   0.018  0.7852  0.8611  0.6294
 6431SOL    HW231173   2.030   3.352   0.050 -0.0365  1.2948 -0.9269
 6432SOL     OW31174   2.789   0.261  17.729 -1.1433  0.2394 -0.4621
 6432SOL    HW131175   2.835   0.196  17.675 -1.9557 -0.6671 -0.0734
 6432SOL    HW231176   2.700   0.263  17.694 -1.3011  0.6464 -0.0386
 6433SOL     OW31177   3.246   1.504   2.670 -0.1921  0.8634  0.7857
 6433SOL    HW131178   3.318   1.445   2.693 -0.4853  0.9057  1.7988
 6433SOL    HW231179   3.223   1.548   2.752 -2.7815 -0.7063  0.9428
 6434SOL     OW31180   3.170   0.120   1.729  0.9869  0.0918  0.6696
 6434SOL    HW131181   3.127   0.102   1.812  1.1530  1.5546  1.0778
 6434SOL    HW231182   3.150   0.212   1.711  1.7462  0.0504 -0.4380
 6435SOL     OW31183   4.452   2.252  18.736  0.0417  0.2086 -0.2553
 6435SOL    HW131184   4.502   2.221  18.661 -0.1494  1.0795 -0.7456
 6435SOL    HW231185   4.503   2.223  18.812  1.3448  1.1847 -0.7560
 6436SOL     OW31186   1.753   2.801  20.867  0.4768 -0.0707  0.3942
 6436SOL    HW131187   1.762   2.841  20.954  1.9440 -0.0134  0.2211
 6436SOL    HW231188   1.773   2.873  20.806  1.7644 -0.7261  0.0526
 6437SOL     OW31189   1.783   3.977  17.378 -0.1505  0.1872  0.0345
 6437SOL    HW131190   1.732   3.904  17.343 -0.9551  0.9667 -0.4157
 6437SOL    HW231191   1.764   4.050  17.319  1.3574  0.5171 -0.0286
 6438SOL     OW31192   2.835   0.689   2.447  0.6261  0.7274  0.6740
 6438SOL    HW131193   2.876   0.774   2.431  2.0102 -0.0042  0.3617
 6438SOL    HW231194   2.832   0.648   2.361  0.8336  0.0624  0.9853
 6439SOL     OW31195   0.951   2.594  15.883  0.1112  0.1857  0.1157
 6439SOL    HW131196   0.981   2.685  15.893  2.1196 -0.7186  2.3772
 6439SOL    HW231197   0.892   2.580  15.958 -0.3994 -0.3012 -0.3793
 6440SOL     OW31198   2.185   4.461  15.258  0.4586  0.1938  0.3527
 6440SOL    HW131199   2.187   4.365  15.257  1.9604  0.2656 -2.3220
 6440SOL    HW231200   2.234   4.485  15.336  0.6972 -1.1841  0.6355
 6441SOL     OW31201   0.902   1.375  12.099 -0.2984 -0.1760 -0.2711
 6441SOL    HW131202   0.843   1.380  12.024 -1.4098  1.1606  0.7055
 6441SOL    HW231203   0.990   1.387  12.062 -0.6558 -1.9789 -1.6905
 6442SOL     OW31204   2.763   2.067   4.982  0.0428 -0.1500  0.0927
 6442SOL    HW131205   2.804   2.000   5.037  0.5363 -0.9056 -1.1921
 6442SOL    HW231206   2.833   2.130   4.966 -0.3072  0.4583  0.9548
 6443SOL     OW31207   2.404   1.514   4.791 -0.2600  0.5910 -0.4431
 6443SOL    HW131208   2.499   1.519   4.805  0.0538 -2.6240 -1.4677
 6443SOL    HW231209   2.382   1.597   4.749  2.3110  0.7720 -1.4423
 6444SOL     OW31210   1.398   0.101  17.899 -0.4009 -0.9521  0.3680
 6444SOL    HW131211   1.478   0.059  17.929  2.0365  1.9227 -2.1058
 6444SOL    HW231212   1.413   0.194  17.914 -3.4906 -0.4657  0.4231
 6445SOL     OW31213   4.754   1.258   5.200 -0.4583 -0.0180  0.4378
 6445SOL    HW131214   0.003   1.193   5.134 -0.2401  1.2848 -0.7688
 6445SOL    HW231215   4.750   1.209   5.282 -1.1693 -1.7372 -0.6271
 6446SOL     OW31216   4.606   0.831   1.009 -0.3788 -0.1198 -0.3021
 6446SOL    HW131217   4.674   0.837   0.942 -2.0937 -0.2962 -2.0731
 6446SOL    HW231218   4.613   0.913   1.058  0.6369  0.1714 -0.9312
 6447SOL     OW31219   2.689   1.327  16.507  0.2073  0.3176 -0.0168
 6447SOL    HW131220   2.758   1.312  16.442  0.6057 -0.1054  0.5008
 6447SOL    HW231221   2.730   1.387  16.570  0.5499 -1.0211  1.0266
 6448SOL     OW31222   3.626   1.664   3.675 -0.1491  0.1009 -1.2701
 6448SOL    HW131223   3.679   1.585   3.678 -0.8957 -0.4257 -1.9574
 6448SOL    HW231224   3.685   1.734   3.703  0.2373 -0.8379  0.2574
 6449SOL     OW31225   1.593   1.379   4.862  0.1757  0.0542 -0.0177
 6449SOL    HW131226   1.505   1.346   4.881  0.0840  0.8348  0.8912
 6449SOL    HW231227   1.578   1.455   4.806  0.2123  0.8903  1.0952
 6450SOL     OW31228   2.917   4.571  17.232 -0.1862 -1.2258 -0.0693
 6450SOL    HW131229   2.895   4.555  17.140 -2.0633  2.7372 -0.3078
 6450SOL    HW231230   2.992   4.630  17.229  0.3168 -1.8076  0.9245
 6451SOL     OW31231   2.562   3.929  12.314  0.1814 -0.1416 -0.1579
 6451SOL    HW131232   2.641   3.902  12.268 -0.4754 -1.3623 -0.5578
 6451SOL    HW231233   2.594   3.979  12.389  1.3733 -1.4900  0.2302
 6452SOL     OW31234   4.548   1.284   8.467  0.7293 -0.4691 -0.0512
 6452SOL    HW131235   4.533   1.367   8.422 -1.3390 -0.4863  0.5813
 6452SOL    HW231236   4.586   1.227   8.400 -3.7325 -0.9712 -2.2077
 6453SOL     OW31237   2.844   2.594  18.153  0.7387 -0.0625 -0.6703
 6453SOL    HW131238   2.898   2.543  18.214 -1.7029  0.7895  2.1987
 6453SOL    HW231239   2.894   2.675  18.139  2.4347 -1.2708 -1.6849
 6454SOL     OW31240   0.331   4.551   3.432  0.7272  0.5365  0.3049
 6454SOL    HW131241   0.300   4.634   3.469  0.8006  0.4308  0.6010
 6454SOL    HW231242   0.286   4.484   3.484 -0.7949  0.4054 -1.1614
 6455SOL     OW31243   1.522   3.089   5.512 -0.5842  0.2560  0.0079
 6455SOL    HW131244   1.519   3.126   5.600 -0.3530 -2.8749  1.3470
 6455SOL    HW231245   1.466   3.146   5.459  1.4314  3.6583  1.6201
 6456SOL     OW31246   4.709   4.657   4.780 -0.5195 -0.5081  0.1314
 6456SOL    HW131247   4.665   4.677   4.863  1.0295  0.2461  0.7566
 6456SOL    HW231248   4.671   4.719   4.717  0.4363  0.8393  0.9036
 6457SOL     OW31249   3.826   1.736  17.286  1.2901  0.3650  0.0576
 6457SOL    HW131250   3.915   1.747  17.319  1.7300 -0.4571 -0.8234
 6457SOL    HW231251   3.802   1.647  17.313  1.2714  0.0658 -0.9351
 6458SOL     OW31252   0.763   3.841  10.541  0.0938 -0.0919 -0.0988
 6458SOL    HW131253   0.840   3.800  10.580 -0.3595  0.3815  1.3217
 6458SOL    HW231254   0.763   3.930  10.577 -1.2988 -0.2025  0.1728
 6459SOL     OW31255   0.694   1.024  17.447 -0.4009  0.1433  0.2561
 6459SOL    HW131256   0.728   1.001  17.360  0.4741  1.0387  0.3572
 6459SOL    HW231257   0.605   0.990  17.448 -0.8143  1.1856 -1.4465
 6460SOL     OW31258   1.083   0.404   4.408  0.8278 -0.3658 -0.4074
 6460SOL    HW131259   1.093   0.406   4.313 -1.0302  1.0894 -0.5565
 6460SOL    HW231260   1.075   0.495   4.434 -1.8074 -0.9581  0.8396
 6461SOL     OW31261   4.674   3.049  20.945 -0.1625  0.7422  0.5325
 6461SOL    HW131262   4.735   3.042  21.018  2.3179  3.3764 -1.2739
 6461SOL    HW231263   4.712   2.994  20.877  0.2833  2.4712 -0.6269
 6462SOL     OW31264   1.241   0.039  17.227  0.1047  0.3955 -0.4107
 6462SOL    HW131265   1.300   0.054  17.301  1.5487 -0.8625 -1.2911
 6462SOL    HW231266   1.186   4.741  17.254 -0.4035  0.9481  0.0378
 6463SOL     OW31267   0.191   3.476  18.098  0.2545 -0.2407  0.0109
 6463SOL    HW131268   0.148   3.460  18.182 -1.2613  0.6119 -0.5922
 6463SOL    HW231269   0.154   3.410  18.039  1.9499 -1.3775  0.2471
 6464SOL     OW31270   1.510   4.143   4.441 -0.4447  0.2676 -0.4713
 6464SOL    HW131271   1.423   4.109   4.420  0.8072 -1.9235 -2.0565
 6464SOL    HW231272   1.552   4.156   4.356  1.1482  0.3705  0.3322
 6465SOL     OW31273   2.949   2.282  20.862 -0.5005 -0.0420 -0.4238
 6465SOL    HW131274   3.044   2.285  20.871 -0.5516 -0.6213  0.3844
 6465SOL    HW231275   2.933   2.209  20.802 -0.4340 -0.0071 -0.4836
 6466SOL     OW31276   0.953   4.071   8.849  0.3843  0.2281 -0.0641
 6466SOL    HW131277   0.930   4.154   8.808  2.2134  1.2425  0.9350
 6466SOL    HW231278   1.035   4.044   8.807  0.3932 -0.4921  0.4016
 6467SOL     OW31279   3.792   1.748  18.537  0.0987 -0.6785 -0.4366
 6467SOL    HW131280   3.835   1.717  18.617 -0.2477 -1.2247 -0.4616
 6467SOL    HW231281   3.850   1.718  18.466  0.4140 -0.1803 -0.3864
 6468SOL     OW31282   2.980   4.730  20.287 -0.3291  0.3904  0.4528
 6468SOL    HW131283   2.993   4.645  20.328  1.3845  0.1372 -0.6365
 6468SOL    HW231284   3.068   4.767  20.278 -0.7584  0.7409 -2.3643
 6469SOL     OW31285   1.203   1.043  20.576 -0.5870  0.0698 -0.3851
 6469SOL    HW131286   1.174   1.020  20.664 -1.0847  0.7020 -0.3814
 6469SOL    HW231287   1.290   1.082  20.589 -0.1441 -0.9673 -0.2992
 6470SOL     OW31288   2.473   3.325   5.378 -0.1524 -0.5540 -0.2102
 6470SOL    HW131289   2.523   3.249   5.408 -1.6625 -1.4576  0.0175
 6470SOL    HW231290   2.457   3.377   5.457 -2.1510 -1.7742  0.1875
 6471SOL     OW31291   2.484   0.935  18.585  0.5508 -0.6535  0.2945
 6471SOL    HW131292   2.504   0.915  18.676 -1.5819 -0.6887  0.7527
 6471SOL    HW231293   2.567   0.925  18.539  1.4140 -1.5606  2.0792
 6472SOL     OW31294   3.026   3.566  12.056 -0.6907  0.3126 -0.4113
 6472SOL    HW131295   3.072   3.565  12.141 -0.5349  1.9531 -0.4770
 6472SOL    HW231296   3.043   3.653  12.021 -0.4422 -0.5122 -2.3163
 6473SOL     OW31297   2.065   2.794   3.074 -0.2363  0.0687  0.3606
 6473SOL    HW131298   2.052   2.703   3.099 -1.1538  0.0134 -0.2794
 6473SOL    HW231299   2.088   2.839   3.155  1.7091 -1.0178  0.3986
 6474SOL     OW31300   4.547   0.851   4.763 -0.2008  0.0962 -0.1168
 6474SOL    HW131301   4.463   0.861   4.806  0.8852  0.4727  1.9001
 6474SOL    HW231302   4.543   0.765   4.722 -2.2976  0.9111 -1.6249
 6475SOL     OW31303   4.022   0.275   3.436 -0.1722  0.0256  0.0185
 6475SOL    HW131304   3.994   0.293   3.526 -0.7841 -1.4672  0.1320
 6475SOL    HW231305   4.051   0.184   3.438 -1.7482 -0.5155 -1.6779
 6476SOL     OW31306   4.181   0.183  15.846 -0.0049 -0.4190  0.0471
 6476SOL    HW131307   4.205   0.106  15.794 -0.5820 -0.4639 -0.1639
 6476SOL    HW231308   4.106   0.153  15.898  1.7930 -0.9356  2.3043
 6477SOL     OW31309   3.316   4.761  20.444 -0.6954  0.8117 -0.1923
 6477SOL    HW131310   3.279   0.058  20.493  0.0827  0.9526  0.1795
 6477SOL    HW231311   3.331   0.020  20.356 -2.9013  0.3139 -0.7845
 6478SOL     OW31312   0.577   2.212  10.127 -0.1168  0.3016 -0.0606
 6478SOL    HW131313   0.490   2.244  10.148 -0.7156 -0.9544 -0.6246
 6478SOL    HW231314   0.590   2.236  10.036  0.2309  0.7199  0.0990
 6479SOL     OW31315   2.414   4.250  11.516  0.2342  0.1955  0.5243
 6479SOL    HW131316   2.492   4.216  11.560  0.6842  0.8242  0.2185
 6479SOL    HW231317   2.389   4.181  11.455 -0.4576 -0.7266  1.8496
 6480SOL     OW31318   2.677   3.950   0.389 -0.1386 -0.1588  0.4251
 6480SOL    HW131319   2.674   3.864   0.431  1.0290 -0.6367 -0.4710
 6480SOL    HW231320   2.622   3.941   0.312 -1.9955  0.6153  1.6590
 6481SOL     OW31321   0.706   3.950   9.240  0.4582 -0.3253  0.3436
 6481SOL    HW131322   0.612   3.966   9.249  0.3868  0.1727 -1.3456
 6481SOL    HW231323   0.741   4.032   9.205  1.4916 -0.5941  0.7510
 6482SOL     OW31324   3.372   3.256   1.550  0.0633  0.4241 -0.8968
 6482SOL    HW131325   3.285   3.261   1.588  1.1877 -0.1996  1.7587
 6482SOL    HW231326   3.383   3.338   1.503 -0.4890  2.0561  1.8538
 6483SOL     OW31327   3.420   2.222  19.997 -0.2966  0.0449 -0.5215
 6483SOL    HW131328   3.419   2.132  20.030 -0.0175  0.1160 -0.3143
 6483SOL    HW231329   3.389   2.215  19.907 -0.5503 -0.2218 -0.4139
 6484SOL     OW31330   3.820   1.225  19.887  0.1995  0.3863 -0.4235
 6484SOL    HW131331   3.866   1.242  19.804 -1.2659  1.7431 -0.9762
 6484SOL    HW231332   3.787   1.136  19.878 -0.3244  0.6836 -1.4751
 6485SOL     OW31333   2.072   4.322  11.089 -0.6190 -0.1509 -0.1066
 6485SOL    HW131334   2.125   4.257  11.134 -1.8984 -1.7275 -0.8631
 6485SOL    HW231335   2.090   4.404  11.135  0.9542 -1.0513  0.8778
 6486SOL     OW31336   3.600   3.360  16.400  0.5036 -0.0602  1.2512
 6486SOL    HW131337   3.546   3.293  16.441  1.4023 -0.7421  1.3182
 6486SOL    HW231338   3.607   3.333  16.308 -0.7281  0.9634  0.8524
 6487SOL     OW31339   0.147   1.422  18.526 -0.3001  0.0049  0.1128
 6487SOL    HW131340   0.064   1.451  18.562 -0.2990 -2.5921  2.2364
 6487SOL    HW231341   0.214   1.457  18.585 -0.1030 -1.1000  0.5588
 6488SOL     OW31342   3.759   3.725  17.345  0.3357 -0.4463 -0.2389
 6488SOL    HW131343   3.783   3.685  17.261  0.2740 -2.3878  0.6481
 6488SOL    HW231344   3.801   3.810  17.345  0.3932 -0.4835 -2.2272
 6489SOL     OW31345   0.171   4.387  10.259 -0.0265  1.0097  0.2265
 6489SOL    HW131346   0.247   4.332  10.242 -0.7738  0.0055  0.1319
 6489SOL    HW231347   0.207   4.474  10.278  1.1807  0.2398  1.3586
 6490SOL     OW31348   3.305   1.451  20.135  0.3395 -0.3807 -0.5576
 6490SOL    HW131349   3.283   1.367  20.175  1.3401 -0.6174 -0.5116
 6490SOL    HW231350   3.223   1.480  20.096 -0.2472 -0.9139  0.2663
 6491SOL     OW31351   2.528   2.047  14.836 -0.1592 -0.0195  0.6040
 6491SOL    HW131352   2.520   2.088  14.750  1.1224  1.0633  1.0006
 6491SOL    HW231353   2.453   1.988  14.841 -0.4425  0.1776 -1.1109
 6492SOL     OW31354   3.749   0.480  16.541 -0.2036  0.6493 -0.0568
 6492SOL    HW131355   3.838   0.467  16.573 -0.0277  0.5709 -0.5745
 6492SOL    HW231356   3.760   0.513  16.452 -0.6811  2.0152  0.3948
 6493SOL     OW31357   0.847   2.958  20.667 -0.1333  0.5108  0.2155
 6493SOL    HW131358   0.846   2.877  20.718 -0.2247 -0.3426 -1.1306
 6493SOL    HW231359   0.876   3.025  20.728  2.9117 -1.1090  0.5086
 6494SOL     OW31360   0.471   4.093   2.154  0.3302 -0.4565  0.3417
 6494SOL    HW131361   0.543   4.037   2.126  0.7289  1.2712 -2.1546
 6494SOL    HW231362   0.431   4.123   2.072 -2.5666 -0.5601  1.7018
 6495SOL     OW31363   4.033   0.639  19.833  0.2577 -0.2044 -0.4369
 6495SOL    HW131364   3.941   0.616  19.837 -0.1396  1.4265 -0.2241
 6495SOL    HW231365   4.036   0.731  19.859  1.8370 -0.0147 -1.2842
 6496SOL     OW31366   0.717   2.710   4.426  0.5990 -0.4279 -0.4916
 6496SOL    HW131367   0.670   2.685   4.347 -0.2441 -0.9456  0.1639
 6496SOL    HW231368   0.740   2.626   4.467  0.1709 -0.1530  0.3115
 6497SOL     OW31369   1.025   4.496   5.323 -0.8693  0.2777  0.4911
 6497SOL    HW131370   1.066   4.446   5.252 -0.6544  1.9609 -0.5580
 6497SOL    HW231371   0.932   4.471   5.318 -0.6219 -0.6560  0.4910
 6498SOL     OW31372   1.781   4.060   1.763 -0.5751 -0.1223 -0.2948
 6498SOL    HW131373   1.817   4.127   1.821  1.7274 -1.6417  0.0217
 6498SOL    HW231374   1.710   4.020   1.814 -0.1847  0.2349  0.5347
 6499SOL     OW31375   2.797   3.584   5.257  0.0068 -0.3324 -0.8489
 6499SOL    HW131376   2.784   3.586   5.162  1.3159  1.7218 -1.0003
 6499SOL    HW231377   2.749   3.660   5.289  2.7335  1.1634 -0.2805
 6500SOL     OW31378   2.369   3.774  16.633 -0.3363 -0.8796 -0.2916
 6500SOL    HW131379   2.441   3.740  16.580 -0.6753 -0.7175 -0.8555
 6500SOL    HW231380   2.324   3.696  16.665  0.4562 -0.9839  0.5531
 6501SOL     OW31381   0.461   0.026  19.805 -0.1457 -0.1256 -0.5879
 6501SOL    HW131382   0.443   4.755  19.886 -1.4961 -0.3278 -1.0046
 6501SOL    HW231383   0.543   4.764  19.773 -0.6934 -1.4827 -0.3802
 6502SOL     OW31384   4.636   4.105   4.634 -0.7878 -0.1712 -0.1122
 6502SOL    HW131385   4.701   4.085   4.566  1.8183  1.8160  1.7704
 6502SOL    HW231386   4.622   4.199   4.627 -1.9079 -0.2596  0.8749
 6503SOL     OW31387   4.642   2.179  12.069 -0.0315  0.7812 -0.3060
 6503SOL    HW131388   4.682   2.101  12.031 -1.4435 -0.1473  0.1403
 6503SOL    HW231389   4.688   2.252  12.027  0.7767 -0.2730 -1.2592
 6504SOL     OW31390   2.393   0.249  11.737 -0.0217 -0.6847  0.4354
 6504SOL    HW131391   2.467   0.307  11.755 -0.8675  0.7696 -0.8047
 6504SOL    HW231392   2.433   0.170  11.699  0.8299  0.3049 -0.7133
 6505SOL     OW31393   2.740   0.689   0.540  0.2284  0.7378  0.2273
 6505SOL    HW131394   2.699   0.603   0.531 -1.4776  1.5312  0.2014
 6505SOL    HW231395   2.834   0.672   0.544 -0.0318 -1.0051 -1.2233
 6506SOL     OW31396   1.170   4.653  20.317  0.1456  0.4017  0.2521
 6506SOL    HW131397   1.235   4.723  20.306  0.4538 -0.0866 -1.0861
 6506SOL    HW231398   1.210   4.592  20.379  0.2945  0.9115  0.6579
 6507SOL     OW31399   4.042   3.042   5.722 -0.1224 -0.0861 -0.1029
 6507SOL    HW131400   4.011   3.077   5.805 -1.2071 -1.8739  0.2383
 6507SOL    HW231401   3.990   2.963   5.708  0.5438 -0.1750 -2.1305
 6508SOL     OW31402   1.887   2.824  16.178 -0.0455  0.0280  0.2036
 6508SOL    HW131403   1.884   2.821  16.274  0.0405 -1.3566  0.1627
 6508SOL    HW231404   1.801   2.854  16.152 -1.0638 -2.4889  0.6042
 6509SOL     OW31405   2.812   1.427   2.405  0.2661 -0.1427 -0.3911
 6509SOL    HW131406   2.841   1.336   2.397  0.6685 -0.1368  1.0406
 6509SOL    HW231407   2.842   1.454   2.492 -0.8986  0.9729 -0.3371
 6510SOL     OW31408   4.461   3.711   5.716  0.0762  0.1963 -0.4591
 6510SOL    HW131409   4.418   3.692   5.800  0.3830  0.5902 -0.2119
 6510SOL    HW231410   4.511   3.632   5.696  0.9994  0.5729  0.3500
 6511SOL     OW31411   0.641   0.421  20.612 -0.0128 -0.0494 -0.6187
 6511SOL    HW131412   0.663   0.454  20.525 -0.3584  0.7512 -0.4006
 6511SOL    HW231413   0.720   0.438  20.664  0.3304 -0.8646 -0.8648
 6512SOL     OW31414   0.343   3.486  13.874 -0.3130 -0.2416 -0.7301
 6512SOL    HW131415   0.259   3.460  13.913  0.6219 -0.6985  0.9632
 6512SOL    HW231416   0.394   3.405  13.873  0.5666  0.3121 -0.5934
 6513SOL     OW31417   1.577   3.773  17.175  0.1170 -0.4312 -0.3913
 6513SOL    HW131418   1.596   3.850  17.122  1.1999 -1.4758 -1.4921
 6513SOL    HW231419   1.662   3.737  17.198 -0.3753 -0.8955  0.7194
 6514SOL     OW31420   3.626   2.778  15.930 -0.1694  0.5388 -0.5004
 6514SOL    HW131421   3.566   2.795  15.857 -0.8539  0.8696  0.1374
 6514SOL    HW231422   3.572   2.732  15.995  0.1044  1.4469  0.3652
 6515SOL     OW31423   2.301   3.277   0.801  0.1247  0.4028 -0.3764
 6515SOL    HW131424   2.285   3.358   0.751 -0.1911  0.4064 -0.2697
 6515SOL    HW231425   2.232   3.217   0.773  0.5224  0.0777 -0.6536
 6516SOL     OW31426   2.214   0.704   2.125 -0.1471  0.3260  0.2386
 6516SOL    HW131427   2.122   0.695   2.151 -0.2883  1.1408  0.0266
 6516SOL    HW231428   2.224   0.796   2.103  0.5966  0.1322 -0.2471
 6517SOL     OW31429   4.184   2.192   2.675 -0.7320 -0.4897 -0.0238
 6517SOL    HW131430   4.149   2.278   2.699  0.1150  0.0192 -0.5738
 6517SOL    HW231431   4.107   2.136   2.666 -1.2213 -0.0065  1.2089
 6518SOL     OW31432   4.142   1.429   7.259 -0.2698 -0.4406 -0.7255
 6518SOL    HW131433   4.110   1.481   7.185 -1.1075 -3.3007 -2.3731
 6518SOL    HW231434   4.235   1.418   7.242  0.4264  2.9628  1.0736
 6519SOL     OW31435   3.245   3.875   9.020  0.0785  0.0311  0.3236
 6519SOL    HW131436   3.150   3.888   9.030 -0.1038 -0.6633 -0.4430
 6519SOL    HW231437   3.266   3.806   9.082  0.2335  0.7977  1.1185
 6520SOL     OW31438   2.845   0.955   1.076  0.1695 -0.2792 -0.0183
 6520SOL    HW131439   2.843   0.861   1.057 -0.6721 -0.3603  0.5062
 6520SOL    HW231440   2.779   0.993   1.017 -2.0760 -0.4658  2.3945
 6521SOL     OW31441   3.161   0.770   1.147  0.1435  0.3275  0.2532
 6521SOL    HW131442   3.105   0.743   1.220  0.2348  1.1382  0.6174
 6521SOL    HW231443   3.107   0.756   1.069 -1.3690  3.2238  0.7711
 6522SOL     OW31444   3.481   4.515   6.736 -0.1720  0.5676 -0.1173
 6522SOL    HW131445   3.509   4.600   6.770  0.8126 -0.1942  0.9933
 6522SOL    HW231446   3.387   4.511   6.756  0.1102  0.7131  1.2981
 6523SOL     OW31447   4.418   2.793  15.608  0.6286  0.0120  0.1671
 6523SOL    HW131448   4.386   2.848  15.680 -0.3540  0.3042 -0.4965
 6523SOL    HW231449   4.435   2.708  15.648 -1.7591 -0.3649  0.3270
 6524SOL     OW31450   0.171   0.819  13.670 -0.6629  0.2061 -0.4241
 6524SOL    HW131451   0.188   0.875  13.595 -0.0005 -0.4371 -0.7582
 6524SOL    HW231452   0.081   0.789  13.657 -0.7425  0.5518 -0.6646
 6525SOL     OW31453   1.592   2.848   2.358 -0.1002  0.0636 -0.4694
 6525SOL    HW131454   1.658   2.874   2.294  2.2076 -3.2211  0.5558
 6525SOL    HW231455   1.627   2.767   2.396 -2.0352  1.3794  4.0532
 6526SOL     OW31456   3.921   2.605   5.315  0.1571 -0.1324  0.1525
 6526SOL    HW131457   4.004   2.573   5.349  1.6795  1.8335 -1.7399
 6526SOL    HW231458   3.922   2.580   5.222 -0.4164  1.8725 -0.3790
 6527SOL     OW31459   4.494   0.556   4.745 -0.1823  0.5885 -0.2000
 6527SOL    HW131460   4.418   0.605   4.715 -0.7413 -1.2197 -1.6771
 6527SOL    HW231461   4.557   0.562   4.673  0.2888  0.3276  0.1891
 6528SOL     OW31462   2.122   3.822  10.292 -0.3889 -0.4691 -0.2265
 6528SOL    HW131463   2.066   3.880  10.240 -1.5782 -0.6647  0.8548
 6528SOL    HW231464   2.061   3.760  10.332  0.7774 -1.8031 -0.5234
 6529SOL     OW31465   0.925   0.335  17.165 -0.0099 -0.4151 -0.3076
 6529SOL    HW131466   0.920   0.375  17.078 -0.5645 -1.3797 -0.7360
 6529SOL    HW231467   0.889   0.247  17.152  0.0426 -0.6129  0.8707
 6530SOL     OW31468   3.566   2.064  14.808 -0.3160  0.2657 -0.0739
 6530SOL    HW131469   3.491   2.019  14.769  0.0325 -0.8411  0.5182
 6530SOL    HW231470   3.633   1.995  14.816  0.2510  0.9198  0.7465
 6531SOL     OW31471   2.238   2.421   6.110 -0.0895  0.0181  0.1243
 6531SOL    HW131472   2.192   2.371   6.043 -3.2057 -0.0190  2.2677
 6531SOL    HW231473   2.247   2.360   6.184  1.4992  0.6896  0.4912
 6532SOL     OW31474   0.609   0.084   4.943 -0.5452 -0.4323  0.7506
 6532SOL    HW131475   0.535   0.052   4.994  0.5708 -1.2659  1.8585
 6532SOL    HW231476   0.576   0.160   4.896 -1.5646  0.3360  2.7489
 6533SOL     OW31477   0.335   4.447  14.172 -0.0682 -0.5338 -0.4237
 6533SOL    HW131478   0.388   4.457  14.252 -0.3009 -1.5689 -0.1377
 6533SOL    HW231479   0.396   4.466  14.101  0.8203 -2.1679 -0.1147
 6534SOL     OW31480   1.979   1.809  17.008 -0.0306  0.4764  0.1815
 6534SOL    HW131481   1.965   1.715  16.999 -1.8023  0.8308 -0.8585
 6534SOL    HW231482   1.901   1.840  17.054 -0.1114  1.6577 -0.7556
 6535SOL     OW31483   4.672   1.725   1.752 -0.4374 -0.1528  0.4271
 6535SOL    HW131484   4.736   1.663   1.717 -0.0399  0.6752 -0.2996
 6535SOL    HW231485   4.587   1.686   1.731 -0.1951 -0.0915 -0.6676
 6536SOL     OW31486   1.440   2.742   5.110 -0.0440 -0.2730 -0.4878
 6536SOL    HW131487   1.369   2.684   5.081 -0.9864  0.0348  1.1966
 6536SOL    HW231488   1.457   2.715   5.201  0.5193  1.1087 -0.1854
 6537SOL     OW31489   0.679   3.008   4.528  0.2077  0.3406 -0.2378
 6537SOL    HW131490   0.667   2.925   4.481  1.7665 -0.0491  0.0395
 6537SOL    HW231491   0.774   3.016   4.538 -0.1205  0.4087  2.8587
 6538SOL     OW31492   2.958   3.654   1.033 -0.3916 -0.0572  0.0855
 6538SOL    HW131493   2.869   3.688   1.017  0.3387  1.5414 -0.6257
 6538SOL    HW231494   3.001   3.658   0.948  0.3625 -0.8495  0.4292
 6539SOL     OW31495   3.947   1.638  15.543  0.1083 -0.2518  0.3641
 6539SOL    HW131496   3.863   1.607  15.577 -0.2764  0.3549 -0.0465
 6539SOL    HW231497   3.979   1.566  15.488 -0.2940 -0.3490  0.2593
 6540SOL     OW31498   0.765   3.060   4.016  0.0808 -0.0188  1.0801
 6540SOL    HW131499   0.690   3.109   3.984 -0.9555 -1.9301  0.5758
 6540SOL    HW231500   0.832   3.069   3.948 -0.6040 -0.4843  0.3566
 6541SOL     OW31501   0.866   0.833  14.487  0.2076  0.0284 -0.1963
 6541SOL    HW131502   0.873   0.738  14.500  0.0426  0.3008  1.9060
 6541SOL    HW231503   0.802   0.843  14.417 -2.2429 -1.2787  1.8711
 6542SOL     OW31504   0.040   0.337   8.853  0.2987  0.1347  0.2490
 6542SOL    HW131505   4.727   0.350   8.819  0.0690  0.0290  0.8122
 6542SOL    HW231506   0.064   0.250   8.824  1.4802  1.4554 -2.7376
 6543SOL     OW31507   4.438   4.720   9.518  0.2606 -0.3919 -0.0539
 6543SOL    HW131508   4.497   4.660   9.563 -1.3598 -0.6143  1.7958
 6543SOL    HW231509   4.452   0.028   9.561 -0.9806 -0.5119  0.6070
 6544SOL     OW31510   0.477   1.655  15.550  0.0252 -0.2775 -0.2260
 6544SOL    HW131511   0.426   1.575  15.563 -1.8958  1.1810  1.1730
 6544SOL    HW231512   0.498   1.684  15.639  0.2671  1.0656 -0.7250
 6545SOL     OW31513   1.247   1.496  20.474 -0.3658  0.7994  0.4563
 6545SOL    HW131514   1.286   1.411  20.493 -0.4173  0.8340  0.7160
 6545SOL    HW231515   1.156   1.489  20.504 -0.8506  0.3752 -1.0999
 6546SOL     OW31516   1.441   3.933   3.071 -0.5375 -0.1682 -0.4081
 6546SOL    HW131517   1.410   3.844   3.053 -0.2506 -0.5132  0.7945
 6546SOL    HW231518   1.517   3.921   3.127 -0.7565  0.8606  0.1196
 6547SOL     OW31519   4.248   1.906   7.945 -0.3123 -0.5971  0.4330
 6547SOL    HW131520   4.157   1.877   7.958  0.5046 -2.4635  1.8977
 6547SOL    HW231521   4.263   1.895   7.851 -2.0350  0.9596 -0.0269
 6548SOL     OW31522   4.514   0.098   0.751 -0.3168  0.1654  0.4307
 6548SOL    HW131523   4.593   0.131   0.709 -0.9315 -0.2148 -1.0216
 6548SOL    HW231524   4.459   0.066   0.679 -1.0048 -1.2735  1.5750
 6549SOL     OW31525   0.022   4.015  15.991 -0.0098  0.8193 -0.5614
 6549SOL    HW131526   4.716   3.993  16.035  0.5195 -0.3851 -0.1898
 6549SOL    HW231527   0.034   4.109  16.009 -1.7671  1.2100 -1.3709
 6550SOL     OW31528   1.895   1.141  13.490  0.5788  0.1510 -0.3313
 6550SOL    HW131529   1.896   1.046  13.505  0.0625  0.6408  2.6888
 6550SOL    HW231530   1.979   1.159  13.447  1.7022 -1.3064  1.2431
 6551SOL     OW31531   0.776   0.161  19.916  0.0737 -0.5391  0.2105
 6551SOL    HW131532   0.833   0.161  19.838  0.2620  0.4172  0.3394
 6551SOL    HW231533   0.803   0.084  19.965  0.6638 -0.5814 -0.1689
 6552SOL     OW31534   3.370   2.108   4.406  0.2817  0.1713 -0.1721
 6552SOL    HW131535   3.282   2.071   4.416  1.1120 -1.6893  0.3147
 6552SOL    HW231536   3.396   2.135   4.494  0.5254 -0.0543 -0.1723
 6553SOL     OW31537   0.468   4.304  18.998  0.4807  0.0006 -0.1262
 6553SOL    HW131538   0.402   4.371  18.980 -0.7516 -0.9040  1.1379
 6553SOL    HW231539   0.503   4.281  18.911  0.3506  1.7058 -0.6335
 6554SOL     OW31540   0.182   0.680  16.359 -0.3133 -0.0553  0.4036
 6554SOL    HW131541   0.172   0.685  16.454 -0.9757 -3.6076  0.5452
 6554SOL    HW231542   0.264   0.631  16.347  0.1456  1.0257 -0.8559
 6555SOL     OW31543   1.046   1.603  15.538  0.0379 -0.4256  0.1779
 6555SOL    HW131544   0.955   1.576  15.552 -0.0001 -0.2950  0.1883
 6555SOL    HW231545   1.088   1.528  15.497 -0.9521  0.7683 -3.0476
 6556SOL     OW31546   1.844   2.034  19.099 -0.1273  0.0193  0.4080
 6556SOL    HW131547   1.869   1.948  19.066 -0.3267 -0.1419  0.6741
 6556SOL    HW231548   1.755   2.022  19.131 -1.3523  1.1278 -2.5454
 6557SOL     OW31549   4.652   0.534   0.027  0.2564  0.2987  0.1267
 6557SOL    HW131550   4.722   0.585  21.183 -0.3872  1.2551  0.2331
 6557SOL    HW231551   4.633   0.578   0.109 -0.9825  0.4697 -0.2456
 6558SOL     OW31552   0.346   0.243   6.044  0.1641 -0.3188  0.5445
 6558SOL    HW131553   0.336   0.173   6.109  0.0056  0.1779  1.0491
 6558SOL    HW231554   0.396   0.311   6.089  0.2829 -0.0839  0.0596
 6559SOL     OW31555   2.530   4.433   5.262 -0.4743 -0.5380  0.1692
 6559SOL    HW131556   2.482   4.515   5.250  0.3865  0.0453  0.7306
 6559SOL    HW231557   2.505   4.380   5.187 -1.2206  0.1507 -0.0721
 6560SOL     OW31558   4.463   0.941   5.336  0.0408  0.5711  0.0268
 6560SOL    HW131559   4.387   0.903   5.291 -0.2553  1.6136 -0.3589
 6560SOL    HW231560   4.451   0.918   5.428  0.7521 -1.7512 -0.4666
 6561SOL     OW31561   3.763   4.420  20.442 -0.0142 -0.0140  0.4561
 6561SOL    HW131562   3.787   4.364  20.516  1.2643  0.7149  0.5759
 6561SOL    HW231563   3.771   4.509  20.475  1.5936  0.3391 -0.8826
 6562SOL     OW31564   0.473   2.064   0.167  0.0201  0.6070  0.2834
 6562SOL    HW131565   0.389   2.017   0.174  1.2401 -1.8567 -1.4499
 6562SOL    HW231566   0.537   2.004   0.206  1.6327  0.7297 -2.1712
 6563SOL     OW31567   4.692   3.508  15.245  0.3697 -0.6231  0.1584
 6563SOL    HW131568   4.774   3.460  15.233 -0.4053 -1.6642 -1.0774
 6563SOL    HW231569   4.694   3.576  15.178 -0.5971 -1.7822 -1.0429
 6564SOL     OW31570   4.461   4.111  14.923  0.4288 -0.3153 -0.1056
 6564SOL    HW131571   4.471   4.152  15.009  0.7755 -0.8435  0.1055
 6564SOL    HW231572   4.453   4.017  14.942 -0.0471 -0.3745 -0.6084
 6565SOL     OW31573   2.662   0.093   1.222  0.3611  0.2925  0.4098
 6565SOL    HW131574   2.648   0.121   1.313  0.9638 -0.4729  0.7344
 6565SOL    HW231575   2.589   0.033   1.205  1.5863 -1.4000  1.1486
 6566SOL     OW31576   1.529   3.535  14.719  0.2760  0.1017  0.5768
 6566SOL    HW131577   1.518   3.625  14.689  1.0908 -0.5189 -1.6132
 6566SOL    HW231578   1.553   3.543  14.812  2.1327  2.2097 -0.0703
 6567SOL     OW31579   0.679   0.407  18.264  0.0667  0.1462 -0.3396
 6567SOL    HW131580   0.694   0.418  18.358 -0.0266 -0.7683 -0.2159
 6567SOL    HW231581   0.751   0.351  18.234 -0.4683 -0.3960 -0.6193
 6568SOL     OW31582   1.596   3.245  20.744  0.1409 -0.2688 -0.3471
 6568SOL    HW131583   1.638   3.208  20.666 -1.8130 -2.6927 -0.2371
 6568SOL    HW231584   1.590   3.339  20.725 -1.2306 -0.9895 -3.5363
 6569SOL     OW31585   4.039   3.678  15.462  0.0595 -0.4067 -0.1329
 6569SOL    HW131586   4.074   3.646  15.379  0.4456 -0.3963  0.0259
 6569SOL    HW231587   4.076   3.766  15.471 -0.2042 -0.3001 -0.0832
 6570SOL     OW31588   1.030   3.982  20.279 -0.2615 -0.6874 -0.0730
 6570SOL    HW131589   1.114   4.021  20.306 -0.6938  0.9269 -1.0394
 6570SOL    HW231590   1.047   3.946  20.192 -0.4585 -0.7330 -0.0920
 6571SOL     OW31591   0.201   4.241   4.612 -0.0826  0.8870  0.2738
 6571SOL    HW131592   0.171   4.153   4.587 -0.3753  1.5618 -1.7992
 6571SOL    HW231593   0.137   4.271   4.675 -0.1141 -0.3141  0.8129
 6572SOL     OW31594   1.389   2.440   5.213 -0.4320 -0.2833 -0.5322
 6572SOL    HW131595   1.325   2.500   5.252 -0.8833 -0.9930 -0.1913
 6572SOL    HW231596   1.404   2.373   5.279  0.4623 -0.2739 -0.7212
 6573SOL     OW31597   2.181   4.482   8.660  0.0139  0.5995  0.4729
 6573SOL    HW131598   2.255   4.427   8.683 -0.2847 -0.1445 -0.3514
 6573SOL    HW231599   2.171   4.541   8.734  2.9326  2.2903 -0.5243
 6574SOL     OW31600   1.909   3.635   1.576 -0.3853 -0.1164 -0.3891
 6574SOL    HW131601   1.923   3.652   1.669  0.3647 -1.7783 -0.2025
 6574SOL    HW231602   1.975   3.569   1.553 -0.5853  0.2792 -2.0836
 6575SOL     OW31603   4.550   3.411   6.569  0.2925 -0.0278 -0.3940
 6575SOL    HW131604   4.641   3.436   6.580  0.6173 -0.9323 -1.0879
 6575SOL    HW231605   4.525   3.372   6.653  0.5729  0.1052 -0.2498
 6576SOL     OW31606   2.013   0.300   3.070  0.2189 -0.1000  0.1788
 6576SOL    HW131607   2.085   0.297   3.007  1.4657 -1.4996  1.6682
 6576SOL    HW231608   2.028   0.381   3.120  0.0193  0.2856 -0.3885
 6577SOL     OW31609   2.837   4.161   6.291  0.5695  0.4643  0.4003
 6577SOL    HW131610   2.757   4.162   6.343  0.8868  1.0575  0.8688
 6577SOL    HW231611   2.908   4.175   6.354  1.1467 -1.4851  0.1841
 6578SOL     OW31612   3.969   3.090  10.305 -0.0800 -0.0567  0.2293
 6578SOL    HW131613   4.012   3.026  10.249 -0.1034 -0.3187  0.5065
 6578SOL    HW231614   4.026   3.167  10.303  0.2032 -0.2663  0.2894
 6579SOL     OW31615   0.062   3.994   0.771  0.0745 -0.1827  0.0567
 6579SOL    HW131616   0.125   3.986   0.843  0.5696  0.0218 -0.3502
 6579SOL    HW231617   0.046   4.088   0.764 -0.9005 -0.3085  0.6988
 6580SOL     OW31618   1.584   0.616  13.430 -0.6639  0.3578  0.2479
 6580SOL    HW131619   1.585   0.682  13.362  0.9176 -0.5473 -0.5900
 6580SOL    HW231620   1.538   0.658  13.503 -0.5073  2.0364 -0.6171
 6581SOL     OW31621   1.508   2.528   6.004 -0.2256 -0.0929 -0.0302
 6581SOL    HW131622   1.522   2.592   6.073 -1.3617  0.0785  0.0358
 6581SOL    HW231623   1.479   2.579   5.929 -2.5405 -0.7095  0.4623
 6582SOL     OW31624   4.022   3.197   4.496  0.2409  0.0884  0.3726
 6582SOL    HW131625   3.951   3.140   4.526 -0.9344  2.3925  1.9453
 6582SOL    HW231626   4.007   3.205   4.402 -0.4962 -0.9684  0.3977
 6583SOL     OW31627   2.028   1.719  15.185 -0.1311 -0.0847 -0.2803
 6583SOL    HW131628   1.972   1.673  15.248  1.3539  1.2524  2.0266
 6583SOL    HW231629   2.108   1.668  15.182  0.7861  1.2774  0.8440
 6584SOL     OW31630   1.705   1.849  17.005 -0.0989  0.1936 -0.4239
 6584SOL    HW131631   1.661   1.933  17.021 -1.0398 -0.5838  1.1053
 6584SOL    HW231632   1.663   1.815  16.926 -1.4617 -0.0182  0.3965
 6585SOL     OW31633   4.636   0.286   5.895  0.4016 -0.1853 -0.2389
 6585SOL    HW131634   4.635   0.199   5.935  1.2141  0.0846  0.3611
 6585SOL    HW231635   4.728   0.307   5.887  0.1882  0.7827 -0.0658
 6586SOL     OW31636   3.868   0.161  20.642  0.5175  0.0259  0.4151
 6586SOL    HW131637   3.826   0.237  20.602 -0.7983 -0.4222  0.9754
 6586SOL    HW231638   3.932   0.133  20.576  0.6144  1.2692 -0.0300
 6587SOL     OW31639   0.411   0.980  16.607 -0.5836  0.2481 -0.4864
 6587SOL    HW131640   0.488   1.023  16.570 -1.3280  0.8175 -1.3684
 6587SOL    HW231641   0.350   1.051  16.624 -0.4228 -0.0684  1.4175
 6588SOL     OW31642   3.854   1.649  16.577  0.1993 -0.3487  1.0475
 6588SOL    HW131643   3.801   1.601  16.513  1.5174  0.6605 -0.8117
 6588SOL    HW231644   3.791   1.705  16.623 -0.4840  0.3499 -0.6997
 6589SOL     OW31645   1.858   3.897  18.180 -0.1503  0.3983  0.7599
 6589SOL    HW131646   1.778   3.849  18.199  0.2968 -0.5121  0.3409
 6589SOL    HW231647   1.835   3.955  18.107 -0.2553 -0.3161  0.2268
 6590SOL     OW31648   4.235   1.515   1.004  0.0190  0.1919  0.3931
 6590SOL    HW131649   4.315   1.560   1.033  1.0112 -0.9964 -0.5034
 6590SOL    HW231650   4.255   1.485   0.916 -2.0902  1.5266 -0.5376
 6591SOL     OW31651   4.214   0.339  16.952  0.2529 -0.2403 -0.6106
 6591SOL    HW131652   4.224   0.248  16.923  0.4448 -0.7819  1.1353
 6591SOL    HW231653   4.287   0.352  17.014 -0.8655  0.5265  0.5396
 6592SOL     OW31654   0.315   2.437   3.345 -0.0666  0.4524 -0.3769
 6592SOL    HW131655   0.249   2.369   3.343 -0.1745  0.4490  2.7909
 6592SOL    HW231656   0.387   2.399   3.396  0.1108  2.4653  0.8791
 6593SOL     OW31657   1.458   0.383   0.724  0.0695 -0.4631 -0.3163
 6593SOL    HW131658   1.499   0.308   0.766  0.1826 -0.5675 -0.6159
 6593SOL    HW231659   1.412   0.347   0.648 -0.3252 -0.3063 -0.1527
 6594SOL     OW31660   3.099   2.563   9.597 -0.3065 -0.4275 -0.1710
 6594SOL    HW131661   3.171   2.560   9.534 -0.2854  1.4400 -0.2400
 6594SOL    HW231662   3.116   2.490   9.656  1.1776 -0.5111 -0.6990
 6595SOL     OW31663   0.188   3.175   0.270 -0.0404  0.2825  0.1553
 6595SOL    HW131664   0.117   3.133   0.318 -0.8256  0.8383 -0.5123
 6595SOL    HW231665   0.149   3.255   0.235  0.5066 -0.1842 -1.5091
 6596SOL     OW31666   1.589   2.454   2.316  0.2360 -0.1524 -0.1550
 6596SOL    HW131667   1.651   2.504   2.263  0.5371  1.1824  1.4528
 6596SOL    HW231668   1.596   2.492   2.404  1.7281 -4.1976  1.4486
 6597SOL     OW31669   1.050   2.465   4.286  0.4439 -0.2091  0.4225
 6597SOL    HW131670   1.047   2.557   4.314  2.0217  0.2953 -1.0774
 6597SOL    HW231671   1.122   2.427   4.335  1.3887 -0.0260 -0.8155
 6598SOL     OW31672   0.955   1.740  16.307  0.5088  0.1193  0.4217
 6598SOL    HW131673   0.945   1.666  16.367 -0.9629  0.6867  0.8767
 6598SOL    HW231674   0.953   1.701  16.220  2.3317 -0.6740  0.7299
 6599SOL     OW31675   4.067   2.786   2.632  0.4435 -0.2193 -0.5418
 6599SOL    HW131676   4.055   2.810   2.541  2.5209  0.6230 -0.5793
 6599SOL    HW231677   4.077   2.691   2.631 -2.1859 -0.4869 -0.9307
 6600SOL     OW31678   3.641   2.898   8.112 -0.3270  0.1365 -0.3956
 6600SOL    HW131679   3.688   2.914   8.194 -0.5406  0.5211 -0.3491
 6600SOL    HW231680   3.560   2.854   8.139 -0.9216  1.2878 -0.3017
 6601SOL     OW31681   3.316   2.675  18.516  0.0205 -0.1384  0.3041
 6601SOL    HW131682   3.406   2.673  18.483  0.0093 -0.9524  0.3019
 6601SOL    HW231683   3.269   2.731  18.455  0.7257  1.0019  0.8126
 6602SOL     OW31684   0.137   2.239   8.780 -0.3853 -0.5443  0.0141
 6602SOL    HW131685   0.168   2.237   8.871 -0.8691 -2.2577  0.1449
 6602SOL    HW231686   0.169   2.322   8.746 -0.5449  0.2955  1.8860
 6603SOL     OW31687   0.308   0.126   2.302  0.3075  0.2762 -0.3437
 6603SOL    HW131688   0.382   0.081   2.344 -0.0298  0.2555  0.2213
 6603SOL    HW231689   0.343   0.154   2.217  1.2310  1.0482  0.2902
 6604SOL     OW31690   1.506   3.878   4.060 -0.0533  0.1722  0.1301
 6604SOL    HW131691   1.556   3.816   4.007  0.9687  0.0315  1.2496
 6604SOL    HW231692   1.470   3.824   4.131  1.0608  0.9107  1.2533
 6605SOL     OW31693   3.189   2.994   0.326 -0.0499 -0.1261  0.0099
 6605SOL    HW131694   3.171   3.048   0.404  0.9495 -0.6850  0.6206
 6605SOL    HW231695   3.157   2.907   0.350 -1.6485  0.1865 -0.9744
 6606SOL     OW31696   1.504   0.061   3.452 -0.2832  0.0860 -0.4950
 6606SOL    HW131697   1.533   0.051   3.542  0.4467 -0.0738 -0.7538
 6606SOL    HW231698   1.472   0.152   3.447  0.3435  0.3140 -0.2795
 6607SOL     OW31699   0.437   3.473  20.003 -0.7048 -0.5182  0.1848
 6607SOL    HW131700   0.511   3.468  20.064 -2.2107 -2.4652  1.8322
 6607SOL    HW231701   0.405   3.383  19.996  0.3155 -0.5466 -4.5306
 6608SOL     OW31702   0.197   3.764   2.120  0.2991  0.2570  0.5760
 6608SOL    HW131703   0.260   3.759   2.192  0.1979  0.4528  0.6792
 6608SOL    HW231704   0.189   3.858   2.102  1.4505  0.1172 -0.6798
 6609SOL     OW31705   2.473   3.427   4.352  0.7067  0.2339 -0.0393
 6609SOL    HW131706   2.527   3.379   4.416  1.8040  1.0856 -0.3433
 6609SOL    HW231707   2.409   3.473   4.406  0.0896 -1.0362  0.3034
 6610SOL     OW31708   2.949   3.115   3.680  0.3805 -0.9614 -0.0050
 6610SOL    HW131709   2.959   3.154   3.767  0.9092 -1.4488  0.1519
 6610SOL    HW231710   2.885   3.171   3.636  2.2935  0.9942 -0.3153
 6611SOL     OW31711   0.854   3.440  20.685  0.0721 -0.0359  0.7831
 6611SOL    HW131712   0.854   3.354  20.643 -0.5561  0.3492 -0.0164
 6611SOL    HW231713   0.765   3.449  20.721 -0.0836  0.5714  0.2506
 6612SOL     OW31714   3.960   0.548  17.924  0.3921  0.2371 -0.2476
 6612SOL    HW131715   3.960   0.643  17.915 -0.6599  0.1060 -1.5975
 6612SOL    HW231716   3.881   0.520  17.878 -0.8217 -1.0483  2.5966
 6613SOL     OW31717   1.315   3.781  13.209  0.4836  0.6934 -0.4130
 6613SOL    HW131718   1.297   3.875  13.211  0.0009  0.5299  2.0201
 6613SOL    HW231719   1.395   3.770  13.259 -0.1110 -0.3521  0.3051
 6614SOL     OW31720   1.152   4.624  17.450 -0.1767 -0.2288  0.1970
 6614SOL    HW131721   1.221   4.566  17.416  0.7494  0.3069  1.1590
 6614SOL    HW231722   1.199   4.693  17.496 -1.3124  0.9990 -0.4729
 6615SOL     OW31723   3.874   2.156  14.756 -0.1297 -0.2972 -0.3699
 6615SOL    HW131724   3.922   2.082  14.720  1.3196 -0.5361  2.0575
 6615SOL    HW231725   3.826   2.120  14.831  1.2399  1.3773  1.3283
 6616SOL     OW31726   4.449   2.640  11.305  0.1567 -0.7213 -0.6174
 6616SOL    HW131727   4.465   2.656  11.212 -0.6327 -1.1391 -0.8267
 6616SOL    HW231728   4.375   2.696  11.327  0.4336 -0.5174 -0.2069
 6617SOL     OW31729   1.160   3.546   4.947  0.1903  0.1623 -0.3433
 6617SOL    HW131730   1.222   3.481   4.915 -2.1771 -2.5195  0.4672
 6617SOL    HW231731   1.196   3.575   5.031  0.0183 -1.8533  0.4258
 6618SOL     OW31732   1.808   2.348   5.069 -0.4224 -0.0261  0.5590
 6618SOL    HW131733   1.748   2.411   5.030  0.7730  0.3602 -0.6289
 6618SOL    HW231734   1.865   2.401   5.125 -0.6318 -0.2870  1.0195
 6619SOL     OW31735   4.457   3.574   2.795 -0.5201 -0.1261 -0.4072
 6619SOL    HW131736   4.420   3.655   2.830  0.4997  0.2191 -0.1142
 6619SOL    HW231737   4.381   3.523   2.767 -1.0945  1.3861 -1.5965
 6620SOL     OW31738   3.685   2.575  17.342 -0.1622 -0.1422  0.1614
 6620SOL    HW131739   3.755   2.640  17.335 -0.7552  0.3115 -1.5749
 6620SOL    HW231740   3.620   2.603  17.278 -0.5646 -2.2632 -0.3473
 6621SOL     OW31741   0.933   0.317  18.223 -0.1668  0.5031  0.0218
 6621SOL    HW131742   0.991   0.341  18.152 -0.6981 -0.1737 -0.6419
 6621SOL    HW231743   0.975   0.241  18.264  0.7415  1.6337  1.1673
 6622SOL     OW31744   3.628   4.536   8.500 -0.2942  0.1614  0.1360
 6622SOL    HW131745   3.626   4.620   8.453  1.1287  0.7851  1.1876
 6622SOL    HW231746   3.657   4.473   8.434  1.0833  0.9308 -0.0182
 6623SOL     OW31747   0.422   1.241  13.135 -0.0357  0.4035  0.5739
 6623SOL    HW131748   0.413   1.324  13.088 -0.3280  2.2602  3.9149
 6623SOL    HW231749   0.353   1.185  13.098  0.7123  1.3537 -2.2789
 6624SOL     OW31750   2.466   0.537  14.819  0.1030  0.4390  0.2872
 6624SOL    HW131751   2.461   0.557  14.913  0.4568 -0.9532  0.6072
 6624SOL    HW231752   2.374   0.526  14.793  0.0122  0.6864  0.4967
 6625SOL     OW31753   2.434   2.919   5.819 -0.5148 -0.5878 -0.8265
 6625SOL    HW131754   2.528   2.929   5.835 -0.9104  0.2048  1.0065
 6625SOL    HW231755   2.404   3.007   5.800 -0.9876 -0.7666 -0.8988
 6626SOL     OW31756   3.894   1.979  13.568 -0.7425  0.1415  0.7160
 6626SOL    HW131757   3.928   1.891  13.583 -1.4600 -0.0545  1.1934
 6626SOL    HW231758   3.941   2.033  13.632  0.4728  0.2811 -0.3001
 6627SOL     OW31759   4.388   1.728  17.642 -0.0929 -0.2189 -0.2711
 6627SOL    HW131760   4.344   1.813  17.644  0.3825 -0.0143  1.4272
 6627SOL    HW231761   4.428   1.723  17.554  1.3907  2.0722  0.2829
 6628SOL     OW31762   2.767   3.318   7.032 -0.0867 -0.3999  0.0489
 6628SOL    HW131763   2.802   3.387   7.089 -0.8709  0.5996 -0.6667
 6628SOL    HW231764   2.834   3.309   6.964 -0.8508  0.9588 -0.8838
 6629SOL     OW31765   4.359   0.749  17.186  0.2706 -0.3547 -0.0912
 6629SOL    HW131766   4.351   0.726  17.279  0.5167  1.0478  0.2777
 6629SOL    HW231767   4.312   0.832  17.178  0.1722 -0.5267 -1.2401
 6630SOL     OW31768   0.967   2.281  15.446 -0.4232  0.5982  0.1232
 6630SOL    HW131769   1.001   2.195  15.470  0.1428  0.7330 -0.1947
 6630SOL    HW231770   0.987   2.337  15.521  0.9721  0.9197 -0.4817
 6631SOL     OW31771   2.690   0.123   9.889  0.3437  0.6084 -0.0790
 6631SOL    HW131772   2.674   0.199   9.944  1.4642  1.4036 -0.8580
 6631SOL    HW231773   2.642   0.141   9.808 -0.3323 -0.0273  0.1800
 6632SOL     OW31774   1.546   4.635   0.143 -0.1723  0.1610 -0.4640
 6632SOL    HW131775   1.513   4.703   0.084  0.1501 -0.3620 -1.2409
 6632SOL    HW231776   1.520   4.553   0.103  1.3247 -0.2339 -0.6326
 6633SOL     OW31777   4.215   0.029  10.881  0.4660  0.0195 -0.2332
 6633SOL    HW131778   4.131   4.758  10.884  0.6690 -0.4056 -1.0601
 6633SOL    HW231779   4.281   4.737  10.899  0.6464  0.2951  0.1341
 6634SOL     OW31780   3.326   3.150  18.045 -0.2578 -0.6987  0.0700
 6634SOL    HW131781   3.364   3.233  18.075 -0.2507 -0.3029 -1.0245
 6634SOL    HW231782   3.232   3.163  18.054 -0.2672 -0.4802 -0.3366
 6635SOL     OW31783   4.381   1.297   1.135 -0.5372 -0.6360 -0.1711
 6635SOL    HW131784   4.315   1.229   1.123 -0.6146 -0.2574 -1.8756
 6635SOL    HW231785   4.335   1.379   1.117  0.4196 -0.3800 -1.4282
 6636SOL     OW31786   2.226   3.496  18.949 -0.1264 -0.0907  0.4022
 6636SOL    HW131787   2.310   3.455  18.971 -0.3422  1.0756  3.3417
 6636SOL    HW231788   2.165   3.422  18.941  0.5664 -0.7171  0.9052
 6637SOL     OW31789   3.873   1.419  14.213 -0.9214 -1.0142  0.2496
 6637SOL    HW131790   3.967   1.408  14.222 -0.6213  0.6030 -0.8342
 6637SOL    HW231791   3.849   1.364  14.138 -0.5237  0.1530 -0.7390
 6638SOL     OW31792   1.939   0.059  19.894  0.2663  0.4388 -0.1448
 6638SOL    HW131793   1.955   0.145  19.933 -0.4696 -0.8164  2.8842
 6638SOL    HW231794   2.025   0.028  19.867  0.9684  0.4893  2.0886
 6639SOL     OW31795   0.052   4.040   4.466  0.5686 -0.5351  0.4077
 6639SOL    HW131796   0.126   4.084   4.425  1.3863 -1.9109  0.3975
 6639SOL    HW231797   0.023   3.977   4.401 -0.3123 -0.3129  0.5929
 6640SOL     OW31798   2.105   0.799   1.740  0.4180  0.1086  0.0531
 6640SOL    HW131799   2.076   0.827   1.653 -0.9284 -0.2538  0.3727
 6640SOL    HW231800   2.191   0.838   1.750 -0.0858  1.4726 -0.8135
 6641SOL     OW31801   0.374   1.497  13.019 -0.0077  0.0507 -0.4621
 6641SOL    HW131802   0.311   1.468  12.953 -0.5026  0.5141 -0.1925
 6641SOL    HW231803   0.339   1.580  13.051 -0.1170 -0.4833  0.8487
 6642SOL     OW31804   2.529   0.790  20.764  0.0611  0.0732  0.5833
 6642SOL    HW131805   2.486   0.711  20.730  1.0605 -0.4267  0.4768
 6642SOL    HW231806   2.459   0.839  20.806 -0.7847 -0.3285 -0.3572
 6643SOL     OW31807   4.005   1.809  20.757 -0.2749 -0.7608 -0.3570
 6643SOL    HW131808   4.014   1.877  20.690 -0.8202 -0.9025 -0.5736
 6643SOL    HW231809   4.087   1.760  20.752  0.0043 -0.2899 -0.3882
 6644SOL     OW31810   3.749   1.468  17.953 -0.5843  0.4078  0.0547
 6644SOL    HW131811   3.660   1.436  17.937 -0.1802 -0.2576 -0.8116
 6644SOL    HW231812   3.736   1.543  18.012 -1.6623 -0.1464  0.5287
 6645SOL     OW31813   3.607   1.744   1.823  0.1555  0.4041  0.2048
 6645SOL    HW131814   3.555   1.752   1.743  1.5695 -1.8176 -0.9388
 6645SOL    HW231815   3.680   1.805   1.810  0.0382  0.5193  0.0789
 6646SOL     OW31816   2.771   1.760  19.433  0.2709 -0.3115  0.6204
 6646SOL    HW131817   2.803   1.837  19.385 -0.5543 -1.2079 -1.3396
 6646SOL    HW231818   2.707   1.796  19.495 -0.3675  0.5272 -0.5325
 6647SOL     OW31819   0.104   0.247  17.898 -0.5335 -0.0891 -0.2886
 6647SOL    HW131820   0.135   0.192  17.971  1.1457 -0.4021 -1.2305
 6647SOL    HW231821   0.011   0.227  17.891 -0.6975 -0.0288  1.8112
 6648SOL     OW31822   3.501   4.617  13.003  0.0474 -0.3108  0.4202
 6648SOL    HW131823   3.477   4.615  13.096  2.8221  1.0902  1.1732
 6648SOL    HW231824   3.597   4.625  13.003  0.1301 -1.3213 -2.5612
 6649SOL     OW31825   1.700   0.513  16.967  0.4057 -0.8205  0.4756
 6649SOL    HW131826   1.703   0.493  17.061 -0.1133  0.3538  0.7406
 6649SOL    HW231827   1.616   0.477  16.938  0.0997 -0.2514  0.6667
 6650SOL     OW31828   1.711   4.179  15.016  0.4104  0.0516 -0.2364
 6650SOL    HW131829   1.706   4.100  14.963  1.8231  0.3496 -0.8219
 6650SOL    HW231830   1.799   4.176  15.054 -0.2258  0.3628  1.2484
 6651SOL     OW31831   1.440   4.012   3.508  0.5889  0.2652  0.1138
 6651SOL    HW131832   1.514   4.064   3.542 -1.5745  3.1177  0.4420
 6651SOL    HW231833   1.372   4.022   3.574 -1.5630  1.0345 -2.2265
 6652SOL     OW31834   2.127   4.184   9.851  0.0216 -0.6013  0.1294
 6652SOL    HW131835   2.032   4.180   9.860  0.1081 -1.6131  0.6355
 6652SOL    HW231836   2.142   4.249   9.783 -0.9884  0.4326  0.8893
 6653SOL     OW31837   2.103   2.890  13.084  0.5085  0.2282  0.1672
 6653SOL    HW131838   2.133   2.916  12.997 -2.0100  1.4645 -0.3386
 6653SOL    HW231839   2.041   2.959  13.109 -0.3656 -1.2479  2.0424
 6654SOL     OW31840   0.543   0.301   4.378  0.5093 -0.2008  0.2442
 6654SOL    HW131841   0.558   0.274   4.288  1.2449 -0.9197  0.5849
 6654SOL    HW231842   0.454   0.336   4.379  0.3804 -0.5297 -0.6788
 6655SOL     OW31843   4.460   3.120   5.625 -0.2645 -0.8128  0.2260
 6655SOL    HW131844   4.528   3.136   5.691  1.6074 -1.0491 -1.6610
 6655SOL    HW231845   4.439   3.028   5.635  1.0870 -1.1987 -0.5396
 6656SOL     OW31846   4.567   0.548  17.689 -0.1703  0.5187 -0.4671
 6656SOL    HW131847   4.633   0.616  17.702  1.5929 -1.3161  0.0017
 6656SOL    HW231848   4.569   0.530  17.595  2.2500 -1.8524  0.0315
 6657SOL     OW31849   1.060   3.252  10.402 -0.4188 -0.3845  0.8080
 6657SOL    HW131850   1.006   3.262  10.324 -0.4621  1.3156  1.0548
 6657SOL    HW231851   1.112   3.332  10.405  1.3965 -1.5672  1.1214
 6658SOL     OW31852   2.547   0.605   8.760 -0.2827 -0.2450 -0.0720
 6658SOL    HW131853   2.575   0.696   8.748 -1.1213  0.3918  2.9515
 6658SOL    HW231854   2.609   0.555   8.707  1.0401  1.9650 -0.6545
 6659SOL     OW31855   2.783   1.908  13.075  0.0288  0.2480 -0.4264
 6659SOL    HW131856   2.796   1.980  13.013 -2.7313  0.6991 -0.5020
 6659SOL    HW231857   2.732   1.844  13.027 -1.5109  0.2857  1.1529
 6660SOL     OW31858   3.281   4.282   7.329 -0.2861 -0.4211 -0.5572
 6660SOL    HW131859   3.206   4.332   7.299  0.4386 -0.4737 -2.4697
 6660SOL    HW231860   3.277   4.200   7.279 -0.2961 -1.3956  1.0336
 6661SOL     OW31861   3.702   4.560  15.182  0.1130 -0.2858 -0.3802
 6661SOL    HW131862   3.691   4.493  15.114  0.9713 -1.8685  1.0373
 6661SOL    HW231863   3.637   4.626  15.161 -1.3460 -1.9956 -1.2834
 6662SOL     OW31864   2.380   3.299  15.979 -0.4653  0.1875 -0.2897
 6662SOL    HW131865   2.464   3.259  15.957 -0.9121 -0.3657 -0.9991
 6662SOL    HW231866   2.394   3.393  15.965 -0.2889 -0.0098 -1.4580
 6663SOL     OW31867   3.719   2.155   1.803 -0.2551 -0.4459 -0.0446
 6663SOL    HW131868   3.735   2.200   1.721 -1.2776 -0.6321 -0.3421
 6663SOL    HW231869   3.761   2.069   1.793  1.6928  0.4446  0.5256
 6664SOL     OW31870   0.714   4.380  16.953  0.3483 -0.1353 -0.3390
 6664SOL    HW131871   0.791   4.329  16.927  0.5165 -0.3246  0.5120
 6664SOL    HW231872   0.743   4.429  17.030 -0.8606 -1.4583  0.9696
 6665SOL     OW31873   0.276   1.903  20.143 -0.4311  0.0322 -0.0196
 6665SOL    HW131874   0.197   1.881  20.092 -0.6111  1.1449 -0.2117
 6665SOL    HW231875   0.283   1.832  20.207 -0.9390 -0.6850 -0.7578
 6666SOL     OW31876   3.782   4.701   2.392 -0.3488 -0.0298  0.4619
 6666SOL    HW131877   3.857   4.648   2.365 -1.0872 -0.5628 -0.5325
 6666SOL    HW231878   3.805   0.014   2.365 -0.6885 -0.4166 -1.1117
 6667SOL     OW31879   2.632   0.729  17.256  0.3059 -0.6739 -0.0526
 6667SOL    HW131880   2.616   0.820  17.232 -1.1300 -0.7876  0.4922
 6667SOL    HW231881   2.705   0.732  17.317 -0.6164  0.2280  0.9977
 6668SOL     OW31882   4.056   1.708   1.676 -0.1432  0.1785  0.4172
 6668SOL    HW131883   4.129   1.659   1.712 -0.0668 -0.1194 -0.1494
 6668SOL    HW231884   4.066   1.701   1.581  0.6983  2.4930  0.3241
 6669SOL     OW31885   4.006   1.380   9.256  0.2386 -0.1109  0.4797
 6669SOL    HW131886   3.994   1.411   9.346 -0.6851  0.2355  0.2407
 6669SOL    HW231887   3.938   1.425   9.206 -0.0461 -1.2352 -0.1610
 6670SOL     OW31888   1.911   1.532  18.264 -0.5678  0.0408 -0.4604
 6670SOL    HW131889   1.975   1.603  18.264  0.0462 -0.5116  1.8658
 6670SOL    HW231890   1.856   1.550  18.339 -0.7800 -1.6252 -0.2258
 6671SOL     OW31891   1.076   2.271   0.141  0.1485 -0.0944  0.0880
 6671SOL    HW131892   1.037   2.263   0.228  0.6181  1.2476  0.4168
 6671SOL    HW231893   1.026   2.341   0.099  0.5173 -0.1214 -0.3977
 6672SOL     OW31894   3.595   4.570  20.912  0.6000  0.0827  0.1162
 6672SOL    HW131895   3.542   4.494  20.889  0.0202  0.6933 -0.6177
 6672SOL    HW231896   3.598   4.571  21.007  0.4891 -0.7757  0.1234
 6673SOL     OW31897   3.519   1.469  18.826  0.0384 -0.0136  0.0009
 6673SOL    HW131898   3.448   1.419  18.866 -0.5677  0.5030 -0.4181
 6673SOL    HW231899   3.590   1.406  18.815 -0.9506 -0.9355 -1.1090
 6674SOL     OW31900   4.431   2.050  19.369 -0.3491  0.2523  0.1135
 6674SOL    HW131901   4.442   2.023  19.277 -0.0621  0.8791 -0.0354
 6674SOL    HW231902   4.379   2.130  19.364  1.2764  1.3214  0.3973
 6675SOL     OW31903   4.001   3.045   8.117 -0.4478  0.5703  0.4747
 6675SOL    HW131904   4.029   3.128   8.078 -0.2146  0.0306 -0.5031
 6675SOL    HW231905   3.946   3.005   8.050 -0.7810  0.0592  1.0594
 6676SOL     OW31906   1.335   4.474  15.548  0.1167  0.2138  0.3156
 6676SOL    HW131907   1.312   4.382  15.562 -0.5134  0.0705 -1.6391
 6676SOL    HW231908   1.330   4.486  15.453 -2.2076  2.9220  0.7695
 6677SOL     OW31909   4.010   2.770   1.245 -0.4445  0.4533  0.5743
 6677SOL    HW131910   3.927   2.746   1.205  0.0965 -0.2240 -0.1309
 6677SOL    HW231911   4.057   2.687   1.256  0.4054  0.9034  0.3614
 6678SOL     OW31912   3.179   3.088   4.467  0.5216 -0.2539 -0.2978
 6678SOL    HW131913   3.089   3.075   4.497  0.6612  1.7488  0.9206
 6678SOL    HW231914   3.232   3.041   4.532  0.4864 -0.0419 -0.1176
 6679SOL     OW31915   2.599   3.224   2.625  0.6450  0.0588 -0.8244
 6679SOL    HW131916   2.693   3.225   2.608  0.8242  1.7297  0.2340
 6679SOL    HW231917   2.560   3.263   2.547  1.0102  1.5614 -0.2749
 6680SOL     OW31918   2.214   0.198   0.836  0.1825 -0.0757 -0.3660
 6680SOL    HW131919   2.227   0.228   0.926 -1.8621  0.3409 -0.2066
 6680SOL    HW231920   2.124   0.165   0.835  0.0226  0.4308 -2.4029
 6681SOL     OW31921   1.855   1.509   3.227  0.6215  0.0384 -0.6045
 6681SOL    HW131922   1.806   1.435   3.191 -1.0881 -0.3665  2.5223
 6681SOL    HW231923   1.944   1.476   3.238  0.9935 -0.0372 -3.8350
 6682SOL     OW31924   0.886   1.285  11.596  0.3313  0.4346  0.1737
 6682SOL    HW131925   0.820   1.215  11.591  1.4879 -0.5141 -1.8972
 6682SOL    HW231926   0.968   1.239  11.617  0.9605  1.2473 -0.4986
 6683SOL     OW31927   3.398   0.795   4.858 -0.5125  0.0298 -0.2160
 6683SOL    HW131928   3.490   0.800   4.882 -0.1673  0.8505 -1.7155
 6683SOL    HW231929   3.351   0.790   4.942  1.0351 -2.6372  0.4949
 6684SOL     OW31930   2.306   1.917  13.741 -0.2901 -0.0052 -0.2401
 6684SOL    HW131931   2.380   1.978  13.738 -0.8628  0.6570 -0.9137
 6684SOL    HW231932   2.346   1.831  13.731  0.4247  0.3327 -0.3040
 6685SOL     OW31933   3.702   0.429   5.156  0.2706 -0.0271  0.0957
 6685SOL    HW131934   3.635   0.365   5.132  2.0145 -2.1565  0.9754
 6685SOL    HW231935   3.757   0.438   5.078 -0.9165  1.5879 -0.5655
 6686SOL     OW31936   4.033   1.018  15.183  0.5536  0.1441 -0.3045
 6686SOL    HW131937   4.099   1.086  15.197 -0.4170  0.7146  1.5602
 6686SOL    HW231938   4.057   0.977  15.100  2.8270  0.8473  0.0061
 6687SOL     OW31939   0.790   2.368   3.454 -0.2979  0.2992 -0.0599
 6687SOL    HW131940   0.779   2.273   3.444 -1.3646  0.5992 -1.9878
 6687SOL    HW231941   0.781   2.384   3.548  3.0807 -1.8913  0.6209
 6688SOL     OW31942   1.909   1.351  17.267 -0.2458  0.2041  0.6692
 6688SOL    HW131943   1.962   1.431  17.271 -0.6754  0.5588 -0.7288
 6688SOL    HW231944   1.908   1.327  17.174 -1.7214 -0.3506  0.8232
 6689SOL     OW31945   3.425   0.158   4.646  0.0311 -0.6965 -0.0109
 6689SOL    HW131946   3.361   0.198   4.705  0.9501  1.1931 -0.3116
 6689SOL    HW231947   3.372   0.108   4.584 -1.0226 -1.3154  1.3674
 6690SOL     OW31948   1.096   1.578   9.408 -0.0473 -0.3845  0.5082
 6690SOL    HW131949   1.109   1.608   9.498  1.1004  1.1033 -0.1353
 6690SOL    HW231950   1.154   1.503   9.399 -1.2923 -1.4599  1.4691
 6691SOL     OW31951   0.262   2.430  19.325 -0.7658  0.9103 -0.3576
 6691SOL    HW131952   0.209   2.372  19.271 -0.8710  1.3169 -0.6885
 6691SOL    HW231953   0.336   2.455  19.270 -0.8467  1.2837 -0.2967
 6692SOL     OW31954   1.348   3.463  16.246  0.5695  0.2689  0.4372
 6692SOL    HW131955   1.411   3.524  16.283  1.9124 -0.7383 -0.2143
 6692SOL    HW231956   1.396   3.381  16.234 -0.7891 -0.4458 -0.2377
 6693SOL     OW31957   2.892   2.158  11.779  0.1383  0.7524  0.2100
 6693SOL    HW131958   2.951   2.115  11.841 -0.4375 -0.8587 -0.3612
 6693SOL    HW231959   2.935   2.241  11.760  1.6370  0.1098  0.7486
 6694SOL     OW31960   2.602   1.369  13.889 -0.3028 -0.3920 -0.1112
 6694SOL    HW131961   2.560   1.440  13.839  0.0895 -0.4636 -0.5393
 6694SOL    HW231962   2.577   1.289  13.842  0.1768 -0.4488 -0.2709
 6695SOL     OW31963   2.905   2.578  18.564 -0.9884  0.0524 -0.2781
 6695SOL    HW131964   2.956   2.563  18.484  2.3179  0.9683  1.6416
 6695SOL    HW231965   2.941   2.516  18.627 -2.1960  0.7721  1.1111
 6696SOL     OW31966   1.337   0.832   6.309 -0.3178 -0.4150 -0.0042
 6696SOL    HW131967   1.255   0.800   6.271 -1.2411  1.1271  0.7264
 6696SOL    HW231968   1.360   0.908   6.256  0.2429 -0.3756  0.2964
 6697SOL     OW31969   2.341   0.992   0.800  0.3687  0.6743  0.8332
 6697SOL    HW131970   2.346   0.901   0.770  0.5012  0.8082  0.4437
 6697SOL    HW231971   2.311   0.986   0.890 -1.5263  0.3416  0.1869
 6698SOL     OW31972   1.473   1.414  19.525  0.6025  0.7764  0.2535
 6698SOL    HW131973   1.559   1.428  19.484  0.5358 -1.2729 -0.5601
 6698SOL    HW231974   1.491   1.351  19.595 -0.3094  0.1046 -0.1250
 6699SOL     OW31975   1.484   0.480   4.998  0.5474  0.3553 -0.4648
 6699SOL    HW131976   1.459   0.570   4.978  1.6078  0.9382  0.8863
 6699SOL    HW231977   1.403   0.437   5.025  0.0411  0.8894 -1.1539
 6700SOL     OW31978   1.105   3.431   8.297 -0.0051  0.5029 -0.0716
 6700SOL    HW131979   1.101   3.384   8.214 -2.2167  0.4143  0.0722
 6700SOL    HW231980   1.189   3.475   8.296  0.5266 -0.5484 -1.8022
 6701SOL     OW31981   3.094   2.743  19.517 -0.3479 -0.2197  0.1664
 6701SOL    HW131982   3.093   2.822  19.571  0.1202  0.0625 -0.2383
 6701SOL    HW231983   3.004   2.734  19.486 -0.7125 -0.6376  1.3648
 6702SOL     OW31984   1.498   2.155  19.977  0.3131  0.9264 -0.9931
 6702SOL    HW131985   1.562   2.086  19.993  0.0973  0.9316 -0.1291
 6702SOL    HW231986   1.500   2.168  19.882  2.1481  1.4467 -0.8817
 6703SOL     OW31987   2.034   2.118   3.231  0.4870  0.1199  0.6870
 6703SOL    HW131988   2.121   2.145   3.261  0.3920  0.9025  0.2624
 6703SOL    HW231989   1.988   2.200   3.215 -0.6970 -0.3068  1.9591
 6704SOL     OW31990   2.241   3.258   5.163 -0.0259 -0.2716 -0.3440
 6704SOL    HW131991   2.299   3.334   5.160  1.8745 -1.7737 -1.7472
 6704SOL    HW231992   2.297   3.187   5.194 -1.5068 -1.3548 -0.1796
 6705SOL     OW31993   3.104   0.108  18.202 -0.0522 -0.4513  0.0493
 6705SOL    HW131994   3.040   0.135  18.137  0.1739  0.7704  0.3362
 6705SOL    HW231995   3.149   0.033  18.162 -1.8319 -1.4690 -0.0411
 6706SOL     OW31996   1.162   1.985   4.837  0.1608 -0.3987 -0.1624
 6706SOL    HW131997   1.102   1.931   4.784  0.1548  0.4298 -0.9934
 6706SOL    HW231998   1.150   1.952   4.926  0.0249 -1.6700 -0.6389
 6707SOL     OW31999   0.535   2.166   4.347 -0.1055  0.2691  0.0597
 6707SOL    HW132000   0.495   2.207   4.424 -0.8785 -0.3216 -0.0306
 6707SOL    HW232001   0.537   2.073   4.368 -3.5231 -0.2813 -2.1163
 6708SOL     OW32002   2.285   3.336  15.311 -0.3798  0.1511  0.1380
 6708SOL    HW132003   2.353   3.366  15.372 -0.0799  1.4574 -0.8390
 6708SOL    HW232004   2.208   3.387  15.334 -0.9151 -1.0705  1.0058
 6709SOL     OW32005   1.066   3.840  20.796  0.1133 -0.1169 -0.1512
 6709SOL    HW132006   1.020   3.810  20.874 -0.9573  0.7500 -0.4493
 6709SOL    HW232007   1.017   3.918  20.767  1.6650  0.7209 -0.5416
 6710SOL     OW32008   1.260   0.047  15.687  0.2876  0.2446  0.3133
 6710SOL    HW132009   1.215   4.738  15.688  2.3258 -0.8873 -1.0650
 6710SOL    HW232010   1.228   0.090  15.608 -0.0151  0.3232  0.4825
 6711SOL     OW32011   3.485   4.188   1.588 -0.2058 -0.3742 -0.0212
 6711SOL    HW132012   3.525   4.238   1.517  0.1162 -3.5112 -2.0774
 6711SOL    HW232013   3.559   4.158   1.640 -0.2324 -0.8760 -0.2675
 6712SOL     OW32014   0.046   3.185  15.999 -0.4311  0.3273 -0.6577
 6712SOL    HW132015   4.747   3.192  15.940 -0.0206  2.1129 -0.9876
 6712SOL    HW232016   0.029   3.106  16.050 -2.8726  1.0910 -0.2750
 6713SOL     OW32017   0.144   1.089   6.319 -0.3182 -0.1197  0.4170
 6713SOL    HW132018   0.210   1.093   6.388 -0.3669  1.0777  0.4010
 6713SOL    HW232019   0.060   1.092   6.366 -0.3524  3.4254  0.1748
 6714SOL     OW32020   1.564   3.366   4.226 -0.1868  0.4405  1.2072
 6714SOL    HW132021   1.482   3.320   4.210 -0.0879  0.1446  1.5477
 6714SOL    HW232022   1.588   3.342   4.316 -0.1703  1.2031  1.4072
 6715SOL     OW32023   3.257   0.607  13.379  0.0168 -0.2652 -0.8769
 6715SOL    HW132024   3.299   0.624  13.294 -0.8070  2.4518 -0.7478
 6715SOL    HW232025   3.187   0.672  13.385  1.3179  0.8459  2.7412
 6716SOL     OW32026   1.555   3.529   2.813  0.4977 -0.0768  0.0613
 6716SOL    HW132027   1.516   3.442   2.822  1.1700 -0.3724  0.1343
 6716SOL    HW232028   1.535   3.573   2.895 -2.5760  0.9336 -1.2405
 6717SOL     OW32029   4.187   2.872   9.475  0.0702  0.2355 -0.0649
 6717SOL    HW132030   4.210   2.954   9.519  0.1733 -0.1927  0.6787
 6717SOL    HW232031   4.106   2.844   9.518 -0.4884  0.4529 -0.9830
 6718SOL     OW32032   4.179   4.033  11.903  1.1090 -0.1360  0.0711
 6718SOL    HW132033   4.258   4.016  11.851  1.0915  0.9656 -0.3198
 6718SOL    HW232034   4.146   4.116  11.869  1.0751  0.5592  1.8388
 6719SOL     OW32035   4.362   2.329  16.569  0.0583  0.8735  0.2247
 6719SOL    HW132036   4.437   2.380  16.600  0.3821 -0.4046  1.5721
 6719SOL    HW232037   4.338   2.369  16.486  0.9703  2.5576  0.7722
 6720SOL     OW32038   3.679   3.112  17.379  0.0677 -0.1362  0.8255
 6720SOL    HW132039   3.752   3.173  17.391  1.7438 -1.9583 -0.1498
 6720SOL    HW232040   3.630   3.148  17.305  1.1161  0.0062  0.1875
 6721SOL     OW32041   0.218   1.977   6.572 -0.2139 -0.2803 -0.1121
 6721SOL    HW132042   0.233   1.885   6.596  0.7533 -0.0754  0.0718
 6721SOL    HW232043   0.291   1.998   6.513 -0.1444  0.5272  0.2657
 6722SOL     OW32044   2.876   4.520  20.958 -0.2550 -0.1240 -0.2689
 6722SOL    HW132045   2.859   4.428  20.934  0.3132 -0.3241  0.1109
 6722SOL    HW232046   2.915   4.558  20.879  0.7291 -0.5446  0.0153
 6723SOL     OW32047   2.214   2.554  13.429 -0.5300 -0.0873  0.2259
 6723SOL    HW132048   2.205   2.559  13.334 -0.3866 -0.4673  0.1939
 6723SOL    HW232049   2.238   2.643  13.455 -0.2494 -0.0584 -0.1285
 6724SOL     OW32050   1.250   3.044   3.767 -0.4888 -0.0383  0.2325
 6724SOL    HW132051   1.180   2.984   3.793 -0.1543 -0.4581  0.1625
 6724SOL    HW232052   1.326   2.988   3.756 -0.7227  0.0952 -2.0169
 6725SOL     OW32053   0.751   1.081   3.638  0.2796 -0.1810 -0.4010
 6725SOL    HW132054   0.742   1.113   3.548  2.1097 -1.8259 -1.1642
 6725SOL    HW232055   0.824   1.131   3.675 -1.0360  1.1206  0.4550
 6726SOL     OW32056   3.261   4.616   0.794  0.5469 -0.8038 -0.3030
 6726SOL    HW132057   3.257   4.525   0.823 -0.4440 -1.0790 -1.2913
 6726SOL    HW232058   3.311   4.613   0.713  2.6080 -0.1430  0.9451
 6727SOL     OW32059   2.318   3.511  15.745 -0.5125  0.3958 -0.4612
 6727SOL    HW132060   2.318   3.578  15.677  1.2440 -0.5490 -1.3861
 6727SOL    HW232061   2.395   3.530  15.798  0.2022 -1.1156 -0.9516
 6728SOL     OW32062   3.706   0.555   1.237  0.4775  0.1550 -0.0500
 6728SOL    HW132063   3.687   0.646   1.214  4.2241  1.1854  0.8851
 6728SOL    HW232064   3.717   0.510   1.153  2.5247  1.4027 -0.4486
 6729SOL     OW32065   4.134   0.943   4.629 -0.3492  0.0833 -0.2461
 6729SOL    HW132066   4.065   0.880   4.650 -1.1336  1.2719  0.7590
 6729SOL    HW232067   4.149   0.991   4.711  1.1212  0.3529 -0.6709
 6730SOL     OW32068   2.259   4.450  11.597 -0.4452 -0.4056  0.2572
 6730SOL    HW132069   2.304   4.493  11.670 -0.8080  1.2048 -0.4649
 6730SOL    HW232070   2.314   4.374  11.577  1.6427  1.1914 -0.1875
 6731SOL     OW32071   1.408   1.560  16.027 -0.0471 -0.0310  0.4456
 6731SOL    HW132072   1.443   1.641  15.990 -1.2342  0.6232  0.7862
 6731SOL    HW232073   1.445   1.491  15.972 -0.4545  0.8474 -0.9189
 6732SOL     OW32074   1.396   4.739   3.243 -1.1034 -0.2515 -0.0124
 6732SOL    HW132075   1.312   0.009   3.236  0.2239  1.9867 -1.3625
 6732SOL    HW232076   1.425   4.758   3.332  0.3690  3.1668 -1.2008
 6733SOL     OW32077   0.441   0.294  16.339  0.3481  0.4182 -0.2111
 6733SOL    HW132078   0.425   0.289  16.433  2.2088  0.0451  0.0848
 6733SOL    HW232079   0.466   0.385  16.323 -3.0282  1.2371 -0.8244
 6734SOL     OW32080   4.385   3.284   7.428  0.3718 -0.1776 -0.3367
 6734SOL    HW132081   4.331   3.205   7.419  0.1070 -0.2349  1.6327
 6734SOL    HW232082   4.325   3.357   7.412  0.3814 -0.3500 -1.1369
 6735SOL     OW32083   3.569   3.856  20.954  0.0291  0.5837 -0.1446
 6735SOL    HW132084   3.521   3.902  21.023 -0.3286 -0.8469  0.5691
 6735SOL    HW232085   3.612   3.784  20.999 -0.1290 -0.3021 -1.4039
 6736SOL     OW32086   1.046   4.370   2.763  0.8399 -0.4184 -0.6843
 6736SOL    HW132087   1.120   4.337   2.814 -0.0345 -1.2013  0.0764
 6736SOL    HW232088   0.995   4.423   2.824  0.4294 -0.4024 -1.0345
 6737SOL     OW32089   0.978   3.642  10.711  0.6485 -0.4852  0.1417
 6737SOL    HW132090   1.015   3.688  10.635  0.2392  0.5439  0.5653
 6737SOL    HW232091   1.039   3.662  10.782 -0.7119  1.2042  0.8360
 6738SOL     OW32092   2.185   3.728   1.486  0.2289  0.2784  0.0509
 6738SOL    HW132093   2.115   3.777   1.530  2.6378  3.0619  0.7900
 6738SOL    HW232094   2.214   3.665   1.552 -2.9166 -2.1739 -0.9152
 6739SOL     OW32095   2.683   4.616  17.860  0.1086  0.3954 -0.3110
 6739SOL    HW132096   2.742   4.546  17.834 -0.4510  1.0316 -3.2288
 6739SOL    HW232097   2.741   4.687  17.887  0.6741 -0.6659  1.3077
 6740SOL     OW32098   2.540   3.938  16.351  0.1657  0.0696  0.3283
 6740SOL    HW132099   2.555   3.861  16.406  1.0611  0.9926  1.3636
 6740SOL    HW232100   2.575   4.011  16.402  0.5365  0.9784 -1.2486
 6741SOL     OW32101   2.748   0.022   8.996 -0.2898 -0.4289 -0.2107
 6741SOL    HW132102   2.713   0.093   8.943 -0.3620  1.8319  2.8913
 6741SOL    HW232103   2.819   4.761   8.943 -0.0549  2.1514 -1.6739
 6742SOL     OW32104   3.511   3.072   4.937  0.2560  0.1443 -0.3792
 6742SOL    HW132105   3.422   3.096   4.913  0.0740  0.4218  0.5916
 6742SOL    HW232106   3.530   3.123   5.016  0.7201 -1.0735  0.2981
 6743SOL     OW32107   2.068   1.270  15.243 -0.6228 -0.0365 -0.3448
 6743SOL    HW132108   2.110   1.235  15.164 -1.1783 -0.2715 -0.5304
 6743SOL    HW232109   1.980   1.234  15.242 -1.2112  1.3942 -0.5530
 6744SOL     OW32110   2.673   1.116   4.443  0.5552  0.0145 -0.1688
 6744SOL    HW132111   2.691   1.104   4.536 -0.1308  2.3009  0.2497
 6744SOL    HW232112   2.592   1.166   4.440  0.5794 -0.0619 -2.0013
 6745SOL     OW32113   3.256   0.290  16.266  0.1891  0.5927 -0.0861
 6745SOL    HW132114   3.292   0.252  16.346 -1.4189 -0.8389 -0.0647
 6745SOL    HW232115   3.269   0.223  16.199 -0.5833  0.8757 -0.5211
 6746SOL     OW32116   4.694   3.262   8.432 -0.5893  0.1216 -0.1174
 6746SOL    HW132117   4.748   3.334   8.399 -1.6626 -0.2336 -2.5999
 6746SOL    HW232118   4.604   3.294   8.424 -0.8237  0.1968  2.8222
 6747SOL     OW32119   2.851   4.407   2.596  0.2221  0.1287  0.1617
 6747SOL    HW132120   2.864   4.490   2.641 -0.1204 -0.2066  0.8702
 6747SOL    HW232121   2.757   4.401   2.582  0.0236 -1.1378  2.0046
 6748SOL     OW32122   3.161   2.249  16.219 -0.2048  0.4076  0.2579
 6748SOL    HW132123   3.094   2.256  16.151  0.0363 -0.6779 -0.0953
 6748SOL    HW232124   3.118   2.202  16.290  0.3430 -0.7662 -0.1829
 6749SOL     OW32125   2.351   1.964  13.285  0.0789  0.3468  0.2782
 6749SOL    HW132126   2.296   1.908  13.339  0.9262  0.1673  0.9587
 6749SOL    HW232127   2.358   2.046  13.334  2.2392 -0.4183  1.2479
 6750SOL     OW32128   2.520   1.739  19.072 -0.0127 -0.5478 -0.5155
 6750SOL    HW132129   2.528   1.680  19.147 -1.4177  0.1978  0.2170
 6750SOL    HW232130   2.594   1.716  19.016 -0.2071 -2.6151  0.0493
 6751SOL     OW32131   3.600   2.857  18.232  0.0694  0.0953 -0.0609
 6751SOL    HW132132   3.541   2.924  18.267 -0.7352  0.3827 -1.9004
 6751SOL    HW232133   3.542   2.800  18.180  1.2937 -0.0029 -1.3294
 6752SOL     OW32134   3.618   1.188   5.294  0.3959  0.0801  0.3058
 6752SOL    HW132135   3.664   1.144   5.365  0.0870  0.3705  0.6822
 6752SOL    HW232136   3.688   1.213   5.232  0.6321 -0.3877  0.3877
 6753SOL     OW32137   4.487   2.178   5.562  0.1721  0.3186 -0.3256
 6753SOL    HW132138   4.466   2.137   5.478  0.1673  0.0777 -0.2069
 6753SOL    HW232139   4.461   2.269   5.551  0.8557  0.4526 -0.8356
 6754SOL     OW32140   2.158   0.729  19.947 -0.4578  0.0252 -0.5094
 6754SOL    HW132141   2.205   0.751  19.867  1.4081 -1.5951  0.1236
 6754SOL    HW232142   2.178   0.800  20.007 -1.8335  1.2247 -1.4966
 6755SOL     OW32143   1.440   3.268  16.712  0.0734  0.1898  0.2393
 6755SOL    HW132144   1.420   3.361  16.704 -0.7491  0.0035  0.1794
 6755SOL    HW232145   1.496   3.262  16.789  0.6909  0.8247 -0.1635
 6756SOL     OW32146   1.923   4.234  19.291 -0.3588 -0.1545 -0.0582
 6756SOL    HW132147   1.841   4.264  19.251 -0.3792 -1.7581 -1.2311
 6756SOL    HW232148   1.964   4.182  19.222  0.9220 -0.6141  1.0794
 6757SOL     OW32149   2.011   0.010   5.104 -0.5126 -0.2482 -0.2180
 6757SOL    HW132150   1.928   0.050   5.132  0.4857  0.6409  1.5114
 6757SOL    HW232151   2.077   0.076   5.125  0.8420 -1.7390  0.1941
 6758SOL     OW32152   4.323   1.614   0.058 -0.9409 -0.3650 -0.0194
 6758SOL    HW132153   4.265   1.597   0.133 -0.6793 -0.8422  0.0789
 6758SOL    HW232154   4.303   1.543  21.193  0.7281 -1.5068  0.7297
 6759SOL     OW32155   0.048   0.579   6.478 -0.0797 -0.2093  0.2801
 6759SOL    HW132156   0.108   0.595   6.551 -0.0560  1.0528 -0.0214
 6759SOL    HW232157   0.055   0.657   6.423 -1.8392 -0.1460  0.1364
 6760SOL     OW32158   0.639   4.762  18.151  0.4331 -0.0273 -0.9044
 6760SOL    HW132159   0.701   0.027  18.091  1.3232  0.5869  0.4415
 6760SOL    HW232160   0.685   4.684  18.183  0.9339  1.0275  0.9435
 6761SOL     OW32161   1.918   2.420   0.047 -0.2377  0.0361  0.2219
 6761SOL    HW132162   1.864   2.499   0.042 -0.3747 -0.1182 -0.6858
 6761SOL    HW232163   1.941   2.401  21.153  2.4687  0.8868  0.7277
 6762SOL     OW32164   0.773   2.971   2.872 -0.1671  0.0294 -0.4191
 6762SOL    HW132165   0.712   2.905   2.903 -1.3420  0.4991 -1.7026
 6762SOL    HW232166   0.789   3.028   2.948  0.4280 -1.4105  0.5260
 6763SOL     OW32167   0.778   3.974   1.839  0.4644 -0.4005  0.1673
 6763SOL    HW132168   0.703   3.937   1.884  0.2565  0.0627  0.2033
 6763SOL    HW232169   0.835   4.007   1.908 -0.2649  1.0943  0.0581
 6764SOL     OW32170   3.373   4.221  10.193  0.5904 -0.0631 -0.3436
 6764SOL    HW132171   3.333   4.267  10.120  1.1307  1.7500  0.5004
 6764SOL    HW232172   3.437   4.282  10.229  3.5355 -2.6632 -1.1642
 6765SOL     OW32173   1.243   0.255  20.803  0.1027  0.1878  0.1717
 6765SOL    HW132174   1.269   0.339  20.767 -2.0011  0.1006 -1.5182
 6765SOL    HW232175   1.216   0.275  20.893 -2.2350  1.6180 -0.8472
 6766SOL     OW32176   0.387   1.530   1.957 -0.4918 -0.0822  0.3359
 6766SOL    HW132177   0.394   1.542   2.051 -0.6519 -0.1371  0.3536
 6766SOL    HW232178   0.417   1.613   1.919 -0.9432  0.1247  0.4426
 6767SOL     OW32179   2.905   3.617   0.499  0.3343 -0.0128 -0.2581
 6767SOL    HW132180   2.823   3.621   0.450 -1.8728  0.0081  3.4097
 6767SOL    HW232181   2.911   3.526   0.528  1.9465 -0.1733 -1.0809
 6768SOL     OW32182   4.253   0.913  18.661 -0.2653  0.3916 -0.5504
 6768SOL    HW132183   4.210   0.966  18.594 -1.9482  3.0618  2.5951
 6768SOL    HW232184   4.339   0.953  18.671  0.5634 -0.9691 -2.2308
 6769SOL     OW32185   4.599   2.405  15.997 -1.2432  0.1715  0.0018
 6769SOL    HW132186   4.583   2.383  15.905  0.8608 -0.7064 -0.1590
 6769SOL    HW232187   4.604   2.321  16.042  0.6609  0.5018  0.4173
 6770SOL     OW32188   0.236   2.936   0.903 -0.4642  0.0537 -0.1991
 6770SOL    HW132189   0.326   2.927   0.932 -0.8328  0.4495  1.0798
 6770SOL    HW232190   0.237   3.012   0.846 -0.1532  0.5832  0.5081
 6771SOL     OW32191   3.331   1.563   0.096  0.1302 -0.0536  0.4498
 6771SOL    HW132192   3.401   1.607   0.049 -0.9938  0.1929 -0.9946
 6771SOL    HW232193   3.352   1.470   0.090 -0.1017 -0.0301 -0.6677
 6772SOL     OW32194   3.281   0.273  15.975 -0.5433  0.2397  0.0185
 6772SOL    HW132195   3.236   0.249  15.894  0.8396  2.4054 -1.4294
 6772SOL    HW232196   3.237   0.353  16.004 -0.3961  0.0113  0.8618
 6773SOL     OW32197   0.733   3.770  16.965 -0.0726  0.2924 -0.9411
 6773SOL    HW132198   0.774   3.803  16.885  0.1819  0.3689 -0.7780
 6773SOL    HW232199   0.695   3.848  17.006  0.2476  0.3332 -0.7213
 6774SOL     OW32200   3.256   1.802   4.489 -0.4221  0.2656 -0.1239
 6774SOL    HW132201   3.227   1.728   4.436 -0.4419 -0.3765  0.7747
 6774SOL    HW232202   3.346   1.818   4.462 -0.0119 -0.8841  0.5641
 6775SOL     OW32203   0.999   0.126  20.139 -0.5567 -0.3932  0.0798
 6775SOL    HW132204   0.976   0.219  20.140  1.3267  0.0756  0.4713
 6775SOL    HW232205   1.065   0.118  20.071  0.1580 -1.2389  0.8623
 6776SOL     OW32206   4.467   2.493  17.205 -0.1707 -0.2263 -0.3932
 6776SOL    HW132207   4.377   2.524  17.214 -0.1814 -0.0840 -0.9841
 6776SOL    HW232208   4.513   2.528  17.281 -0.3027  0.7948 -0.7863
 6777SOL     OW32209   4.384   0.571  10.964 -0.4268 -0.1438 -0.2899
 6777SOL    HW132210   4.353   0.482  10.979  1.8932 -1.0011 -0.5312
 6777SOL    HW232211   4.403   0.606  11.051  1.5046 -0.9146 -0.4078
 6778SOL     OW32212   4.745   2.509   5.771  0.6980 -0.0056 -0.1163
 6778SOL    HW132213   0.063   2.495   5.756  0.8027 -0.2125  0.7374
 6778SOL    HW232214   4.711   2.422   5.791  0.3659  0.1078 -0.1959
 6779SOL     OW32215   4.655   3.814   9.537 -0.4142 -0.1199 -0.4738
 6779SOL    HW132216   4.585   3.831   9.600 -1.4092 -0.6965 -1.4252
 6779SOL    HW232217   4.662   3.719   9.533  0.3522 -0.0670 -0.4667
 6780SOL     OW32218   0.476   2.934  20.908  0.1117 -0.1586  0.1325
 6780SOL    HW132219   0.480   3.025  20.938  0.1066  0.3714 -1.4694
 6780SOL    HW232220   0.559   2.895  20.936  0.7570  0.7486 -0.5217
 6781SOL     OW32221   1.823   1.006  20.660  0.2038  0.4572  0.1965
 6781SOL    HW132222   1.730   1.014  20.637  0.0772 -1.3101  0.1255
 6781SOL    HW232223   1.859   1.093  20.642 -0.9081  0.4482 -2.0952
 6782SOL     OW32224   1.308   3.320  18.292 -0.1830  0.1481  0.4243
 6782SOL    HW132225   1.331   3.367  18.212  1.8508 -0.1598  0.8277
 6782SOL    HW232226   1.216   3.298  18.281 -0.5351  2.2777 -0.7439
 6783SOL     OW32227   1.352   3.900  12.932  0.0331  0.3743 -0.1480
 6783SOL    HW132228   1.285   3.964  12.958  0.0115 -0.4107  1.6997
 6783SOL    HW232229   1.424   3.915  12.993  0.5605 -0.4533 -0.5755
 6784SOL     OW32230   2.282   3.991  16.477  0.5946  0.6424  0.0824
 6784SOL    HW132231   2.359   3.989  16.420  0.4450  1.3308 -0.1465
 6784SOL    HW232232   2.304   3.933  16.550  1.1452  0.4794 -0.2134
 6785SOL     OW32233   0.442   0.378   5.458 -0.0981 -0.1376 -1.0083
 6785SOL    HW132234   0.429   0.294   5.414 -1.3478  0.5382 -1.9451
 6785SOL    HW232235   0.418   0.444   5.392 -1.9735  0.8642  0.6776
 6786SOL     OW32236   0.548   0.035   1.463 -0.2595  0.1514 -0.1796
 6786SOL    HW132237   0.543   4.722   1.497  0.0416  0.2478  0.1141
 6786SOL    HW232238   0.472   0.042   1.405 -0.9920  0.1155  0.7694
 6787SOL     OW32239   0.543   0.157   3.443 -0.1322  0.1979 -0.3396
 6787SOL    HW132240   0.462   0.200   3.415  0.0575  0.1923 -0.9031
 6787SOL    HW232241   0.537   0.152   3.538 -1.4571 -1.0834 -0.4892
 6788SOL     OW32242   2.389   2.216  14.159  0.1335 -0.0352  0.1152
 6788SOL    HW132243   2.323   2.218  14.228 -0.8294  1.1820 -0.8270
 6788SOL    HW232244   2.361   2.144  14.101 -0.4904  0.6199 -0.4007
 6789SOL     OW32245   3.521   1.658  20.843  0.9614 -0.2032 -0.1388
 6789SOL    HW132246   3.567   1.727  20.795  1.0815 -0.1186  0.0990
 6789SOL    HW232247   3.584   1.587  20.851  1.2184  0.1219  0.6519
 6790SOL     OW32248   1.461   4.194  16.506 -0.6298 -0.2251 -0.5694
 6790SOL    HW132249   1.444   4.103  16.481  1.4703 -0.5245 -0.9073
 6790SOL    HW232250   1.499   4.188  16.593 -1.0891  0.3617 -0.3330
 6791SOL     OW32251   1.503   0.703  13.675  0.0526 -0.1029  0.1564
 6791SOL    HW132252   1.434   0.764  13.698 -0.0598 -0.0572 -0.3183
 6791SOL    HW232253   1.583   0.742  13.711 -0.0288  0.2897 -0.0959
 6792SOL     OW32254   2.098   0.364   0.058 -0.2178 -0.3668  0.5064
 6792SOL    HW132255   2.192   0.353   0.045 -0.2410 -0.5283  0.4768
 6792SOL    HW232256   2.078   0.313   0.136 -0.1187  0.4219  1.0576
 6793SOL     OW32257   2.527   2.514   1.876  0.2906  0.5526  0.3046
 6793SOL    HW132258   2.596   2.473   1.823 -0.7308 -1.7655  0.7731
 6793SOL    HW232259   2.569   2.532   1.960  0.7576  0.5280  0.0801
 6794SOL     OW32260   3.081   4.370  19.511  0.2493 -0.0911  0.2736
 6794SOL    HW132261   3.014   4.438  19.522 -0.4140 -0.3078 -2.5987
 6794SOL    HW232262   3.159   4.407  19.553 -0.4918  1.8897 -0.1012
 6795SOL     OW32263   3.893   1.938  12.430 -0.1587 -0.3819 -0.4815
 6795SOL    HW132264   3.856   1.852  12.409 -1.4661  0.1385 -0.3350
 6795SOL    HW232265   3.956   1.955  12.361 -0.5954 -1.0460 -1.0443
 6796SOL     OW32266   1.442   2.498   3.388 -0.9798 -0.2947  0.9494
 6796SOL    HW132267   1.391   2.480   3.309  2.6096 -1.1247 -1.1730
 6796SOL    HW232268   1.432   2.420   3.442  1.6027 -2.1811 -1.3384
 6797SOL     OW32269   4.286   0.104  19.151  0.0725 -0.2773 -0.9597
 6797SOL    HW132270   4.303   0.162  19.226 -1.2059 -1.2239  0.0562
 6797SOL    HW232271   4.208   0.056  19.175  0.9417 -2.1968 -1.9904
 6798SOL     OW32272   0.747   3.190  20.986 -0.1473  0.5283  0.1678
 6798SOL    HW132273   0.763   3.115  21.044  0.8830 -1.2058 -2.3818
 6798SOL    HW232274   0.652   3.192  20.974 -0.4053  1.1641  2.2795
 6799SOL     OW32275   4.545   0.380   1.718  0.2464 -0.1845 -0.2196
 6799SOL    HW132276   4.480   0.393   1.649 -0.4520 -0.2256  0.4326
 6799SOL    HW232277   4.508   0.425   1.794  2.1500  1.9561 -0.5578
 6800SOL     OW32278   0.093   0.882   9.765  0.2181 -0.0048 -0.0167
 6800SOL    HW132279   0.134   0.965   9.741 -1.0943  0.0249 -2.1230
 6800SOL    HW232280   0.048   0.901   9.848  0.8037  1.1064  0.0462
 6801SOL     OW32281   0.328   0.909  19.790 -0.1489 -0.5259  0.8642
 6801SOL    HW132282   0.415   0.881  19.764 -0.7760  1.0262 -3.0386
 6801SOL    HW232283   0.270   0.841  19.756 -0.8199  0.6628 -0.4016
 6802SOL     OW32284   0.264   0.272   3.399 -0.1319 -0.5241 -1.1660
 6802SOL    HW132285   0.219   0.294   3.318 -1.2360 -0.8587 -0.6463
 6802SOL    HW232286   0.227   0.332   3.464  1.1837  0.1592 -1.0341
 6803SOL     OW32287   4.631   1.892   0.887 -0.3050  0.5515 -0.1025
 6803SOL    HW132288   4.669   1.910   0.973 -1.8860 -1.0565  0.9440
 6803SOL    HW232289   4.692   1.931   0.825  1.8033  0.0872  1.6758
 6804SOL     OW32290   1.209   2.238  19.310  0.0067 -0.5510 -0.3885
 6804SOL    HW132291   1.225   2.328  19.340 -2.1816 -0.6473  1.0050
 6804SOL    HW232292   1.208   2.185  19.389  1.3449 -1.8214 -1.2164
 6805SOL     OW32293   1.235   0.632  17.958  0.0899  0.1159  0.1571
 6805SOL    HW132294   1.235   0.594  17.870  0.1898  1.0099 -0.2283
 6805SOL    HW232295   1.177   0.575  18.008 -0.7114  0.1481 -0.7261
 6806SOL     OW32296   1.822   4.724  18.590  0.0750 -0.0174  0.7429
 6806SOL    HW132297   1.892   0.000  18.630 -1.1203  0.9582  1.5506
 6806SOL    HW232298   1.813   4.648  18.648 -0.7436  0.7320  1.5963
 6807SOL     OW32299   0.770   3.569   9.334  0.3388  0.1872 -0.0238
 6807SOL    HW132300   0.747   3.536   9.247 -0.8679  0.8408  0.0479
 6807SOL    HW232301   0.686   3.583   9.377  0.9362 -0.1688  1.2618
 6808SOL     OW32302   0.627   4.240  17.907 -0.1387  0.6202  0.2837
 6808SOL    HW132303   0.714   4.202  17.897 -0.6084 -0.9931  2.5617
 6808SOL    HW232304   0.575   4.201  17.836  0.4310  0.0602  0.1817
 6809SOL     OW32305   0.366   3.760  16.245  0.6533 -0.0179  0.7481
 6809SOL    HW132306   0.327   3.808  16.318  0.2955  0.9319 -0.0613
 6809SOL    HW232307   0.294   3.745  16.185  1.4453  1.3288 -0.5374
 6810SOL     OW32308   1.787   0.537  20.752  0.3681  0.7962  0.1533
 6810SOL    HW132309   1.729   0.564  20.681 -0.2373 -0.8783 -0.0081
 6810SOL    HW232310   1.832   0.616  20.779  0.1673  1.5332 -1.7195
 6811SOL     OW32311   3.364   4.740   4.266 -0.3157  0.7103  0.4021
 6811SOL    HW132312   3.298   4.688   4.220  0.5388  0.3547 -0.4196
 6811SOL    HW232313   3.355   0.052   4.231 -0.8320  0.8122  0.7961
 6812SOL     OW32314   4.067   2.967  10.540 -0.1978 -0.2065 -0.0577
 6812SOL    HW132315   4.066   2.919  10.457 -1.6076 -1.1249  0.4913
 6812SOL    HW232316   3.988   3.021  10.537  0.4586  0.7603  0.1006
 6813SOL     OW32317   4.401   0.385  20.791  0.3530 -0.3133  0.2040
 6813SOL    HW132318   4.339   0.384  20.718  0.6344  1.7047 -0.0479
 6813SOL    HW232319   4.484   0.358  20.752  0.1107 -0.9297  0.1164
 6814SOL     OW32320   0.205   0.215  18.695  0.1950  0.1112  0.3836
 6814SOL    HW132321   0.173   0.148  18.633  1.4053 -0.2261  0.1177
 6814SOL    HW232322   0.210   0.169  18.779 -2.1923  0.7814  0.8841
 6815SOL     OW32323   4.422   4.035   2.406 -0.1170  0.2521 -0.1581
 6815SOL    HW132324   4.428   3.958   2.463 -0.6448 -0.3889 -0.9573
 6815SOL    HW232325   4.507   4.039   2.362  0.2682  0.7109  0.6338
 6816SOL     OW32326   0.129   3.910  20.526 -0.0420 -0.0640 -0.5031
 6816SOL    HW132327   0.080   3.989  20.548  0.6565  0.2813 -0.2135
 6816SOL    HW232328   0.209   3.942  20.485 -0.0020 -0.6359 -0.8724
 6817SOL     OW32329   2.189   2.886   4.314  0.2262  0.9392 -0.1383
 6817SOL    HW132330   2.207   2.884   4.220  0.3558  0.4574 -0.1031
 6817SOL    HW232331   2.104   2.928   4.321  0.0800  0.7064 -0.4946
 6818SOL     OW32332   2.430   4.389  17.284 -0.0981 -0.2438  0.1149
 6818SOL    HW132333   2.505   4.448  17.286 -0.3541  0.0519  1.3438
 6818SOL    HW232334   2.464   4.307  17.320 -0.0383 -0.4779 -0.4902
 6819SOL     OW32335   3.818   2.009  16.654 -0.0934 -0.4900 -0.2966
 6819SOL    HW132336   3.859   2.030  16.570 -1.6785  0.3809 -0.8499
 6819SOL    HW232337   3.861   2.066  16.717 -0.4254  0.4012 -0.8754
 6820SOL     OW32338   0.463   4.451  16.509 -0.1407 -0.3727  0.1724
 6820SOL    HW132339   0.453   4.451  16.604 -0.1034  1.2491  0.1865
 6820SOL    HW232340   0.537   4.392  16.493  0.0454 -0.4154  1.1702
 6821SOL     OW32341   0.544   2.484  11.316 -0.3134 -0.2119  0.3166
 6821SOL    HW132342   0.474   2.526  11.367 -0.3215 -0.0623  0.1821
 6821SOL    HW232343   0.616   2.546  11.319 -0.1311 -0.4356  0.5838
 6822SOL     OW32344   3.160   2.823   2.663  0.3931 -0.1390  0.1901
 6822SOL    HW132345   3.088   2.833   2.725  0.0094 -0.0351 -0.2717
 6822SOL    HW232346   3.198   2.738   2.684 -0.8093 -0.8691 -0.5407
 6823SOL     OW32347   3.056   3.556   2.278 -0.4442  0.4986 -0.5384
 6823SOL    HW132348   3.141   3.537   2.237  1.5035 -0.4058  3.9415
 6823SOL    HW232349   3.029   3.639   2.239  3.1733  1.4849 -0.9357
 6824SOL     OW32350   1.205   1.970   3.112  0.3205  0.1955  0.1882
 6824SOL    HW132351   1.151   2.020   3.051  0.4482  0.1096  0.0029
 6824SOL    HW232352   1.280   2.027   3.129 -1.0394  1.2922  2.3304
 6825SOL     OW32353   2.223   3.901  19.127 -0.1613 -0.2234 -0.7483
 6825SOL    HW132354   2.237   3.869  19.037  0.2766 -0.2655 -0.6676
 6825SOL    HW232355   2.153   3.846  19.161  0.7719 -1.2730 -0.5226
 6826SOL     OW32356   4.338   2.253   1.259  0.1083  0.0611 -0.1668
 6826SOL    HW132357   4.303   2.327   1.310  0.1241 -0.7759  1.0530
 6826SOL    HW232358   4.264   2.223   1.207 -0.1268  0.3747 -0.0155
 6827SOL     OW32359   2.713   2.404   3.299 -0.0631 -0.0985 -0.4589
 6827SOL    HW132360   2.629   2.413   3.253 -0.6747  3.3485  1.3659
 6827SOL    HW232361   2.764   2.479   3.270  1.7861 -1.2698 -0.2175
 6828SOL     OW32362   3.168   3.699   5.261 -0.5646  0.4075 -0.1178
 6828SOL    HW132363   3.094   3.734   5.212 -0.2868 -1.2887 -1.7629
 6828SOL    HW232364   3.245   3.734   5.217 -0.3150 -1.0619 -0.8436
 6829SOL     OW32365   4.331   3.249  10.756 -0.3127  0.1199 -0.1788
 6829SOL    HW132366   4.393   3.241  10.827  0.2640  0.0822 -0.6895
 6829SOL    HW232367   4.280   3.328  10.777  0.5211  0.6698 -0.2459
 6830SOL     OW32368   0.772   4.178   4.006 -0.3379  0.2124  0.3117
 6830SOL    HW132369   0.854   4.164   4.053 -0.9577  0.2110  1.3928
 6830SOL    HW232370   0.707   4.192   4.075 -1.4547 -0.9428 -0.5027
 6831SOL     OW32371   1.795   1.774  19.039  0.4420  0.4547 -0.1828
 6831SOL    HW132372   1.703   1.803  19.041  0.6397  1.0252  0.4899
 6831SOL    HW232373   1.806   1.726  19.121  0.9487  0.9856  0.0527
 6832SOL     OW32374   1.085   0.744   6.253 -0.2849  0.0486  0.3914
 6832SOL    HW132375   1.033   0.761   6.174 -0.3335  0.5708  0.5361
 6832SOL    HW232376   1.044   0.798   6.321 -1.0900 -1.4521  1.1086
 6833SOL     OW32377   1.259   1.414   4.472  0.0580  0.1583  0.4887
 6833SOL    HW132378   1.330   1.352   4.483  0.7129  0.5684 -1.3159
 6833SOL    HW232379   1.181   1.360   4.461  0.3779 -0.3283  0.6322
 6834SOL     OW32380   3.842   1.192   6.995  0.0839  0.3871 -0.4775
 6834SOL    HW132381   3.877   1.281   7.000  2.1264 -0.3965 -0.8170
 6834SOL    HW232382   3.757   1.202   6.951 -0.0305  2.2553  0.1606
 6835SOL     OW32383   0.444   1.654  12.409 -0.4302 -0.3976  0.1449
 6835SOL    HW132384   0.481   1.583  12.357 -1.1787  0.1704 -1.1773
 6835SOL    HW232385   0.520   1.705  12.438 -0.0215 -0.6257 -0.5345
 6836SOL     OW32386   3.213   1.460   3.494 -0.5843 -0.2868  0.7433
 6836SOL    HW132387   3.242   1.389   3.436  0.3896  0.3763  0.4016
 6836SOL    HW232388   3.189   1.417   3.576  0.3560 -0.9815  0.6549
 6837SOL     OW32389   2.396   0.821  16.900  0.4842  0.2359  0.0713
 6837SOL    HW132390   2.350   0.861  16.974  0.5375 -0.5924  0.5581
 6837SOL    HW232391   2.346   0.849  16.823 -1.2678 -1.2491  0.6640
 6838SOL     OW32392   0.950   3.688   1.003  0.3770  0.7805  0.1854
 6838SOL    HW132393   0.952   3.660   0.912 -1.8452  0.4343  0.2355
 6838SOL    HW232394   1.019   3.754   1.010 -1.0090  2.4901 -2.2822
 6839SOL     OW32395   4.488   4.567  10.585 -0.1131 -0.1234 -0.1621
 6839SOL    HW132396   4.436   4.495  10.621 -0.4336 -1.1997 -2.8118
 6839SOL    HW232397   4.428   4.643  10.589  1.0721  0.5651  4.9428
 6840SOL     OW32398   1.735   3.453   3.077 -0.5692  0.1792  0.3362
 6840SOL    HW132399   1.642   3.472   3.089 -0.5949  0.4835 -0.3467
 6840SOL    HW232400   1.739   3.400   2.996 -0.3649 -1.5854  1.4937
 6841SOL     OW32401   4.687   1.979  18.355  0.6715  0.1023 -0.1474
 6841SOL    HW132402   4.753   1.914  18.330  1.8359  1.1880  0.1127
 6841SOL    HW232403   4.604   1.936  18.337  1.4629 -0.6689 -2.0070
 6842SOL     OW32404   2.624   2.857   5.453 -0.0633 -0.0824 -0.0684
 6842SOL    HW132405   2.661   2.850   5.365 -0.1000 -0.0292 -0.0885
 6842SOL    HW232406   2.698   2.880   5.509  0.0204 -0.4486 -0.0315
 6843SOL     OW32407   1.290   4.279   5.385 -0.3034 -0.6910 -0.1064
 6843SOL    HW132408   1.325   4.368   5.380  0.5964 -0.9830  1.2637
 6843SOL    HW232409   1.261   4.261   5.296  1.1798  0.2871 -0.7926
 6844SOL     OW32410   3.501   0.372  20.285 -0.5887 -0.3633  0.1956
 6844SOL    HW132411   3.573   0.320  20.250 -0.9066 -0.2272 -0.6549
 6844SOL    HW232412   3.514   0.371  20.380  0.8947  0.2257 -0.0134
 6845SOL     OW32413   4.576   4.180  17.065  0.5705  0.2933 -0.3957
 6845SOL    HW132414   4.560   4.274  17.066 -0.8842  0.0210  1.5529
 6845SOL    HW232415   4.654   4.169  17.120  0.2382  0.2703  0.0729
 6846SOL     OW32416   4.157   1.195   5.697 -0.1156 -0.2775 -0.3283
 6846SOL    HW132417   4.181   1.274   5.648  1.1476 -0.8667 -0.6670
 6846SOL    HW232418   4.169   1.124   5.635  1.2056 -0.9936  0.7602
 6847SOL     OW32419   1.349   4.457  17.645  0.0139 -0.0043 -0.0460
 6847SOL    HW132420   1.383   4.371  17.671  0.7114  0.1965 -0.2714
 6847SOL    HW232421   1.351   4.456  17.550  1.5921  0.8595 -0.0453
 6848SOL     OW32422   1.584   2.010   3.655  0.1756  0.2283  0.0380
 6848SOL    HW132423   1.662   2.059   3.678 -0.3658  0.8400  0.5440
 6848SOL    HW232424   1.567   2.033   3.564  0.5977  0.0821 -0.0759
 6849SOL     OW32425   4.684   0.620   0.513 -0.3471  0.0668  0.3871
 6849SOL    HW132426   4.760   0.564   0.497 -0.2536  0.3455 -0.1458
 6849SOL    HW232427   4.611   0.558   0.523 -0.2675 -0.1497 -0.3232
 6850SOL     OW32428   3.809   3.904  12.186  0.1261  0.4356  0.1848
 6850SOL    HW132429   3.802   3.935  12.096  0.5772  1.9924  0.6865
 6850SOL    HW232430   3.762   3.969  12.238 -1.9300 -1.5722  0.8333
 6851SOL     OW32431   2.308   3.134   1.476 -0.1777  0.0463  0.3003
 6851SOL    HW132432   2.400   3.119   1.497  0.1516  1.4474 -0.1839
 6851SOL    HW232433   2.262   3.118   1.559  0.4545 -1.0114  0.4536
 6852SOL     OW32434   1.692   1.139  20.220  0.3214 -0.6932  0.2610
 6852SOL    HW132435   1.779   1.173  20.197  0.3300 -0.9731 -0.1174
 6852SOL    HW232436   1.637   1.217  20.227  0.6636 -0.4969  0.7462
 6853SOL     OW32437   2.953   2.757   5.775 -0.5709 -0.2722  0.0970
 6853SOL    HW132438   2.911   2.673   5.760 -0.9991 -0.0348 -0.0204
 6853SOL    HW232439   3.030   2.736   5.829 -0.6276 -0.7461 -0.0063
 6854SOL     OW32440   2.083   4.214   2.152 -0.5405  0.1883  0.0288
 6854SOL    HW132441   2.120   4.227   2.240 -0.7845 -0.2924  0.2040
 6854SOL    HW232442   2.093   4.120   2.135 -1.5177  0.0839  0.0075
 6855SOL     OW32443   3.692   3.075  20.587  0.2436 -0.2200 -0.3067
 6855SOL    HW132444   3.663   3.004  20.530 -0.0898 -0.0067 -0.3989
 6855SOL    HW232445   3.619   3.089  20.647 -0.2017  0.9319 -1.1240
 6856SOL     OW32446   2.381   0.889  10.949 -0.0473  0.2892 -0.2808
 6856SOL    HW132447   2.385   0.929  11.036 -1.2191  0.8567 -0.4770
 6856SOL    HW232448   2.431   0.808  10.957 -1.3549 -0.3744  1.3309
 6857SOL     OW32449   4.489   3.394  16.999  0.6702  0.1505  0.3330
 6857SOL    HW132450   4.420   3.360  16.941  1.7492 -0.5895 -0.5135
 6857SOL    HW232451   4.465   3.486  17.013 -0.7436 -0.2275  0.4164
 6858SOL     OW32452   1.239   4.404  18.790  0.4245 -0.2306  0.2601
 6858SOL    HW132453   1.246   4.355  18.709 -0.6785 -1.3245  0.8299
 6858SOL    HW232454   1.182   4.351  18.846  0.2823  1.0525  1.3417
 6859SOL     OW32455   2.325   4.309   2.049  0.5637  0.2493  0.2185
 6859SOL    HW132456   2.359   4.233   2.003  1.4374  0.0303  1.2372
 6859SOL    HW232457   2.235   4.285   2.072  0.8982 -0.5270  0.6942
 6860SOL     OW32458   2.487   4.529  20.787  0.3929  0.8600 -0.5752
 6860SOL    HW132459   2.539   4.609  20.778  0.3317  0.9286 -0.3094
 6860SOL    HW232460   2.399   4.554  20.760  0.3827  0.8699 -0.5316
 6861SOL     OW32461   4.493   2.792  20.897 -0.3955 -0.1268  0.2598
 6861SOL    HW132462   4.514   2.750  20.980 -0.4475 -0.1907  0.2414
 6861SOL    HW232463   4.433   2.863  20.920 -2.2140 -1.5702  0.0275
 6862SOL     OW32464   4.428   3.035  21.050  0.3363 -0.0174  0.0464
 6862SOL    HW132465   4.522   3.017  21.054  0.4969  0.7312 -0.2407
 6862SOL    HW232466   4.418   3.095  20.976  0.0786  2.5544  2.1250
 6863SOL     OW32467   2.632   2.407  12.560  0.4582 -0.2625  0.1249
 6863SOL    HW132468   2.707   2.465  12.571 -0.5811  1.0612  0.2872
 6863SOL    HW232469   2.581   2.446  12.488 -2.3660  1.3158  2.9481
 6864SOL     OW32470   1.629   1.770  16.714  0.0299 -0.4616 -0.1505
 6864SOL    HW132471   1.688   1.780  16.639  0.7989 -0.5470  0.4454
 6864SOL    HW232472   1.546   1.810  16.685  0.3590 -0.4072 -1.0061
 6865SOL     OW32473   4.604   1.005   9.340 -0.0686 -0.1084 -0.0960
 6865SOL    HW132474   4.548   1.082   9.336 -0.3054 -0.3018 -0.5414
 6865SOL    HW232475   4.564   0.943   9.279 -1.0121 -1.3349  1.7878
 6866SOL     OW32476   2.071   2.953   4.951  0.0689 -0.2217 -0.2485
 6866SOL    HW132477   2.095   3.000   5.031 -1.7083 -0.4107  0.3848
 6866SOL    HW232478   2.019   2.879   4.981 -0.3641 -0.4519 -1.5541
 6867SOL     OW32479   0.491   1.541  19.631 -0.0299 -0.2624 -0.2481
 6867SOL    HW132480   0.432   1.538  19.555 -0.2576  1.2579 -0.1511
 6867SOL    HW232481   0.579   1.544  19.593 -0.2249  2.6802 -0.5116
 6868SOL     OW32482   0.322   2.170   5.624 -0.0715  0.2022 -0.5586
 6868SOL    HW132483   0.409   2.176   5.583 -0.4367  0.1038 -1.3506
 6868SOL    HW232484   0.265   2.138   5.554 -0.1453 -2.6157  0.7773
 6869SOL     OW32485   0.855   1.132   5.669  0.1423  0.0568  0.3038
 6869SOL    HW132486   0.806   1.055   5.640 -0.1733  0.3348  0.0906
 6869SOL    HW232487   0.806   1.206   5.633  3.0537  0.1984 -3.3535
 6870SOL     OW32488   3.632   2.384  20.894 -0.0861 -0.0643 -0.2694
 6870SOL    HW132489   3.600   2.299  20.864  3.2779 -1.2829 -0.3977
 6870SOL    HW232490   3.723   2.387  20.864  0.5159  2.5618  1.8503
 6871SOL     OW32491   2.663   4.024  12.581 -0.7784  0.1743  0.1739
 6871SOL    HW132492   2.677   4.060  12.669 -1.1647 -0.8371  0.6523
 6871SOL    HW232493   2.736   3.963  12.568 -0.3999  0.7603 -0.4356
 6872SOL     OW32494   3.822   3.694   0.615  0.1685 -0.2704 -0.5104
 6872SOL    HW132495   3.884   3.664   0.548 -0.1815 -1.1796 -0.4336
 6872SOL    HW232496   3.873   3.697   0.696  0.2180 -0.6008 -0.5307
 6873SOL     OW32497   3.613   4.033  17.605 -0.6025 -0.7554 -0.3346
 6873SOL    HW132498   3.657   4.056  17.524 -1.2258  0.3080 -0.3749
 6873SOL    HW232499   3.627   4.108  17.662 -0.6218 -1.2754  0.3632
 6874SOL     OW32500   4.101   4.197   1.852  0.0075 -0.6030 -0.3778
 6874SOL    HW132501   4.170   4.159   1.798 -0.5034 -0.5580 -1.0571
 6874SOL    HW232502   4.145   4.222   1.933  0.6923 -1.0255 -0.6210
 6875SOL     OW32503   4.049   2.741   0.615 -0.1948 -0.0267  0.4922
 6875SOL    HW132504   4.116   2.807   0.599 -0.1911 -0.1292  0.0819
 6875SOL    HW232505   4.066   2.711   0.705  0.3615 -0.1085  0.3631
 6876SOL     OW32506   0.989   0.098   5.128  0.0419  0.4892 -0.2571
 6876SOL    HW132507   0.949   0.039   5.065 -2.0223  0.7347  0.8402
 6876SOL    HW232508   0.928   0.171   5.136  2.2614  2.4313 -1.0739
 6877SOL     OW32509   3.746   3.019   4.148 -0.8443 -0.0586  0.4311
 6877SOL    HW132510   3.756   3.111   4.170  2.1932  0.0238 -1.4173
 6877SOL    HW232511   3.772   2.972   4.227  1.1343  0.5273  0.1083
 6878SOL     OW32512   2.932   1.169   1.450  0.1081  0.1444  0.1911
 6878SOL    HW132513   2.843   1.203   1.444  0.8747  2.0020 -0.9288
 6878SOL    HW232514   2.968   1.210   1.528  0.1714 -0.1271  0.3032
 6879SOL     OW32515   0.278   2.192  13.003 -0.2854  0.1559 -0.8535
 6879SOL    HW132516   0.313   2.170  12.916  1.6419  1.2995 -0.3731
 6879SOL    HW232517   0.214   2.261  12.985 -0.8394 -0.5159 -1.5048
 6880SOL     OW32518   0.624   4.233  15.701 -0.1662 -0.4991 -0.0125
 6880SOL    HW132519   0.680   4.272  15.634 -0.9617  0.5633 -0.0601
 6880SOL    HW232520   0.673   4.244  15.782  0.4587 -1.1002 -0.3101
 6881SOL     OW32521   0.611   4.269  20.145 -0.1172 -0.0270 -0.2500
 6881SOL    HW132522   0.699   4.303  20.158 -0.7314  0.4823  2.6236
 6881SOL    HW232523   0.625   4.178  20.119  1.2241 -0.2213  1.1312
 6882SOL     OW32524   3.693   3.561   5.825  0.6828 -0.5805  0.1186
 6882SOL    HW132525   3.767   3.605   5.783 -0.1741 -0.0029 -0.7744
 6882SOL    HW232526   3.715   3.467   5.820  2.8553 -0.2241  2.6842
 6883SOL     OW32527   1.552   4.441   2.638  0.1395  0.6946 -0.3414
 6883SOL    HW132528   1.457   4.450   2.630  0.1869  0.8974 -0.6448
 6883SOL    HW232529   1.588   4.494   2.567  0.4726  0.3103 -0.4604
 6884SOL     OW32530   0.318   2.683   5.988 -0.1056 -0.9571 -0.8783
 6884SOL    HW132531   0.362   2.611   6.034  1.1021  2.0954  2.7358
 6884SOL    HW232532   0.226   2.671   6.009  0.3733  0.0746  1.8782
 6885SOL     OW32533   4.675   3.771  17.218 -0.5772 -0.0795 -0.0778
 6885SOL    HW132534   4.767   3.744  17.220 -0.9154 -1.2037  0.5671
 6885SOL    HW232535   4.675   3.862  17.247  0.2840 -0.2180  0.3327
 6886SOL     OW32536   3.646   4.053   4.031  0.3113  0.5232  0.3105
 6886SOL    HW132537   3.644   3.991   4.104 -1.1722  0.1768 -0.0250
 6886SOL    HW232538   3.683   4.002   3.958  0.0797  0.3345  0.3238
 6887SOL     OW32539   4.290   3.858   9.245  0.1780 -0.4388  0.5387
 6887SOL    HW132540   4.372   3.878   9.200 -0.1980  1.5575  0.7751
 6887SOL    HW232541   4.316   3.801   9.317  1.2300 -0.6157  0.0243
 6888SOL     OW32542   1.081   2.825   3.844  0.2195 -0.3046  0.2077
 6888SOL    HW132543   1.126   2.752   3.886  1.4919  0.0488 -0.5466
 6888SOL    HW232544   1.033   2.786   3.772 -1.1685 -0.7721  1.3934
 6889SOL     OW32545   3.667   0.306  18.070  0.4562 -0.2990  0.5816
 6889SOL    HW132546   3.607   0.342  18.135  0.2965  0.3948  0.0504
 6889SOL    HW232547   3.751   0.301  18.116  0.1688 -0.5591  1.0877
 6890SOL     OW32548   3.300   0.382  12.461 -0.3144 -0.1865  0.6074
 6890SOL    HW132549   3.268   0.407  12.375  1.6805  1.0315  0.2133
 6890SOL    HW232550   3.308   0.286  12.457 -0.0678 -0.1068 -0.6086
 6891SOL     OW32551   3.727   0.210  20.280 -0.1499 -0.4264  0.4208
 6891SOL    HW132552   3.814   0.246  20.296 -0.4434  0.8812 -0.9563
 6891SOL    HW232553   3.736   0.116  20.299  2.4158 -0.8568 -3.0711
 6892SOL     OW32554   0.324   2.934  18.407 -0.0787  0.4339 -0.2757
 6892SOL    HW132555   0.381   2.970  18.339 -0.1746  1.1653  0.0233
 6892SOL    HW232556   0.377   2.936  18.487  0.1234 -0.6690 -0.3826
 6893SOL     OW32557   0.462   4.288   1.448  0.0945  0.4260 -0.0918
 6893SOL    HW132558   0.377   4.248   1.427  0.1604 -0.8061  1.9866
 6893SOL    HW232559   0.526   4.235   1.399 -0.3642  1.5609 -1.9207
 6894SOL     OW32560   2.236   3.256  16.889  0.5304 -0.3289  0.1632
 6894SOL    HW132561   2.290   3.248  16.811  0.2319 -0.4632 -0.0292
 6894SOL    HW232562   2.218   3.165  16.915 -1.5057 -0.2854 -1.0859
 6895SOL     OW32563   4.618   0.997  20.550 -0.0207 -0.2996 -0.5615
 6895SOL    HW132564   4.653   0.919  20.505 -0.7698 -0.9257 -0.0536
 6895SOL    HW232565   4.599   1.059  20.479  1.5037 -0.2132 -0.8908
 6896SOL     OW32566   1.671   1.847   4.400  0.0985  0.1968 -0.0348
 6896SOL    HW132567   1.637   1.863   4.311 -1.3171 -0.0492  0.4584
 6896SOL    HW232568   1.761   1.878   4.397 -0.1031  0.6660 -1.4249
 6897SOL     OW32569   0.441   1.136  18.032  0.1087  0.0737  0.2908
 6897SOL    HW132570   0.354   1.174  18.023  0.5190  1.3877  1.7407
 6897SOL    HW232571   0.436   1.079  18.109  1.0035  1.5399  1.4452
 6898SOL     OW32572   2.337   3.859  13.831 -0.0360  0.1613  0.4442
 6898SOL    HW132573   2.424   3.870  13.871 -0.6106  1.2603  1.3818
 6898SOL    HW232574   2.276   3.867  13.904 -0.9751  0.0092 -0.3235
 6899SOL     OW32575   2.618   3.656   3.640 -0.1599 -0.0577 -0.5376
 6899SOL    HW132576   2.658   3.570   3.651 -0.8564 -0.2833  0.1964
 6899SOL    HW232577   2.685   3.708   3.596  1.0175 -0.3764  0.8755
 6900SOL     OW32578   3.533   1.273   4.242  0.9042  0.0047  0.5109
 6900SOL    HW132579   3.557   1.244   4.154 -2.2503 -1.6988  0.2061
 6900SOL    HW232580   3.582   1.215   4.300 -0.7539 -2.0640 -0.1257
 6901SOL     OW32581   1.855   1.993   5.663  0.1629  1.0270 -0.5385
 6901SOL    HW132582   1.945   1.973   5.689 -0.2922 -0.6093 -0.1784
 6901SOL    HW232583   1.817   2.036   5.739 -0.3552 -1.3075  0.5257
 6902SOL     OW32584   1.576   1.302  15.489 -0.2090 -0.3980 -0.3683
 6902SOL    HW132585   1.520   1.284  15.413 -0.3583 -1.8775  0.0988
 6902SOL    HW232586   1.639   1.365  15.457 -1.0347 -0.0943 -1.4038
 6903SOL     OW32587   1.210   3.234   2.674 -0.4171  0.3845 -0.0154
 6903SOL    HW132588   1.234   3.274   2.757  0.7340 -0.7574  0.1980
 6903SOL    HW232589   1.136   3.177   2.695  0.5354 -0.6832  0.3922
 6904SOL     OW32590   2.252   3.895   4.184 -0.0591  0.7758 -0.3390
 6904SOL    HW132591   2.299   3.841   4.247  0.1583 -0.1162 -1.2633
 6904SOL    HW232592   2.236   3.977   4.230  0.1534  0.1509  0.8571
 6905SOL     OW32593   2.598   1.958   0.765 -0.1282  0.1217 -0.5401
 6905SOL    HW132594   2.649   2.014   0.706  0.4245  1.4250  1.1776
 6905SOL    HW232595   2.507   1.973   0.739  0.0968  0.8946 -0.8920
 6906SOL     OW32596   1.125   1.976  11.310  0.4580 -0.0736  0.2143
 6906SOL    HW132597   1.113   2.067  11.283  0.9381  0.3804  1.5292
 6906SOL    HW232598   1.134   1.980  11.406  2.1834 -1.3130  0.1141
 6907SOL     OW32599   1.301   4.308  18.144 -0.4009 -0.0250  0.3587
 6907SOL    HW132600   1.334   4.378  18.201 -0.0170  0.8814 -0.9772
 6907SOL    HW232601   1.349   4.230  18.172  1.3685  0.8618 -0.1863
 6908SOL     OW32602   4.634   2.954   6.114  0.4508 -0.4970 -0.2171
 6908SOL    HW132603   4.612   2.887   6.179 -1.2527 -0.0661 -0.3554
 6908SOL    HW232604   4.561   3.016   6.118  1.7079  0.9904 -0.5699
 6909SOL     OW32605   0.704   4.666   8.317 -0.1868  0.1876 -0.3880
 6909SOL    HW132606   0.763   4.735   8.348  0.5897 -0.4915 -0.3691
 6909SOL    HW232607   0.761   4.601   8.278 -0.9575 -0.2826 -0.7280
 6910SOL     OW32608   2.560   0.901  15.734 -0.0023 -0.0287  0.7678
 6910SOL    HW132609   2.508   0.968  15.689  0.1805 -0.7113 -0.4769
 6910SOL    HW232610   2.637   0.949  15.766  0.4604  0.2401 -0.7000
 6911SOL     OW32611   0.565   4.181   9.358  0.4279  0.3200  0.3827
 6911SOL    HW132612   0.489   4.223   9.317  0.5396  2.3352  2.1952
 6911SOL    HW232613   0.635   4.246   9.349  1.6410 -1.1106 -0.3455
 6912SOL     OW32614   0.890   0.742   5.961 -0.3750 -0.5652 -0.0997
 6912SOL    HW132615   0.870   0.834   5.974 -0.7696 -0.8003  0.9637
 6912SOL    HW232616   0.909   0.734   5.868  0.8191  0.8065  0.0414
 6913SOL     OW32617   0.211   0.698   1.681 -0.2221  0.5448  0.0658
 6913SOL    HW132618   0.134   0.673   1.732  0.6613  1.2967  1.7337
 6913SOL    HW232619   0.256   0.615   1.663 -1.3238  0.1257 -0.7570
 6914SOL     OW32620   3.916   4.704  14.804 -0.1341  0.4254 -0.2813
 6914SOL    HW132621   3.982   4.648  14.845 -0.0265  0.9452  0.2522
 6914SOL    HW232622   3.866   4.644  14.749  0.7082  0.0066 -0.6040
 6915SOL     OW32623   1.083   2.851   0.513 -0.0035 -0.0065  1.0353
 6915SOL    HW132624   1.032   2.892   0.582  1.0469 -3.6042  3.9543
 6915SOL    HW232625   1.034   2.772   0.491  1.9495 -1.1104  0.6749
 6916SOL     OW32626   3.919   0.001   3.658  0.1317 -0.3756 -0.1718
 6916SOL    HW132627   3.880   0.028   3.575 -0.6997  0.3010  0.4400
 6916SOL    HW232628   3.884   4.690   3.674 -0.4802 -0.1061 -0.0376
 6917SOL     OW32629   1.403   1.182  11.480 -0.6122  0.5046  0.1919
 6917SOL    HW132630   1.364   1.096  11.499  0.9181 -0.2780 -0.2168
 6917SOL    HW232631   1.493   1.162  11.453 -1.3988  1.9450 -3.5351
 6918SOL     OW32632   0.256   1.107   7.702  0.5129 -0.1752  0.0048
 6918SOL    HW132633   0.216   1.034   7.655  2.3307 -1.0623 -0.1565
 6918SOL    HW232634   0.320   1.067   7.760 -0.3135  1.0951  1.7740
 6919SOL     OW32635   4.062   2.070   0.647  0.2719 -0.5784 -0.0209
 6919SOL    HW132636   4.140   2.107   0.688  0.9423 -0.2986 -1.5329
 6919SOL    HW232637   4.095   1.997   0.595 -0.4554 -0.3121 -0.8469
 6920SOL     OW32638   2.723   0.760   9.100  0.1251 -0.0849  0.7339
 6920SOL    HW132639   2.674   0.787   9.178  0.6318 -1.0430  1.3884
 6920SOL    HW232640   2.672   0.794   9.027 -0.3358  0.8541  1.4842
 6921SOL     OW32641   2.077   0.006  21.011  0.1471  0.1413  0.0692
 6921SOL    HW132642   2.036   0.090  20.988  1.7217  0.3114 -2.1822
 6921SOL    HW232643   2.146   0.029  21.073  1.2349  0.6330 -1.3188
 6922SOL     OW32644   0.745   1.254   4.062  0.5093  0.2211 -0.1735
 6922SOL    HW132645   0.785   1.266   4.148  0.4776  1.7110 -0.3656
 6922SOL    HW232646   0.735   1.159   4.053  0.6063  0.0655  1.4206
 6923SOL     OW32647   2.760   3.186  17.567 -0.4784 -0.2506 -0.3771
 6923SOL    HW132648   2.756   3.281  17.559 -0.1127 -0.2604 -0.6623
 6923SOL    HW232649   2.820   3.158  17.498 -1.0239 -0.7362 -0.6609
 6924SOL     OW32650   2.805   1.276   4.163 -0.4651 -0.0255 -0.2149
 6924SOL    HW132651   2.782   1.203   4.220 -0.2851  0.8384  0.9690
 6924SOL    HW232652   2.874   1.322   4.210  0.7798 -0.2308 -1.8640
 6925SOL     OW32653   3.825   1.955  18.818  0.1180 -0.2794  0.1382
 6925SOL    HW132654   3.859   1.885  18.874 -1.3129 -0.2135  1.0853
 6925SOL    HW232655   3.903   2.005  18.793  1.0026 -1.5144  0.4076
 6926SOL     OW32656   1.021   2.545   2.215 -0.5331 -0.5341 -0.4755
 6926SOL    HW132657   1.025   2.555   2.120 -0.3704 -1.3517 -0.5571
 6926SOL    HW232658   0.956   2.610   2.243 -0.3646 -0.0905 -1.1095
 6927SOL     OW32659   0.698   4.314  17.503  0.0871  0.0141 -0.0163
 6927SOL    HW132660   0.770   4.335  17.444 -0.7507 -0.8397 -1.3378
 6927SOL    HW232661   0.713   4.368  17.580  1.3637  0.8706 -0.8816
 6928SOL     OW32662   2.102   1.888  16.177  0.2799 -0.1787 -0.3537
 6928SOL    HW132663   2.119   1.855  16.089  2.3263 -1.3406  0.4691
 6928SOL    HW232664   2.125   1.814  16.235  1.1101  1.3340  1.2582
 6929SOL     OW32665   2.478   4.462  18.248 -0.1290 -0.1262  0.0709
 6929SOL    HW132666   2.507   4.553  18.241  1.1052 -0.4363  1.1413
 6929SOL    HW232667   2.490   4.426  18.160 -0.6099  0.7490 -0.3491
 6930SOL     OW32668   3.946   3.802  17.620  0.3286  0.3355  0.2905
 6930SOL    HW132669   3.972   3.853  17.544 -0.3861  0.7531  0.3277
 6930SOL    HW232670   3.912   3.720  17.584 -1.1546  1.0344  0.1105
 6931SOL     OW32671   1.217   3.960  17.339 -1.1380 -0.4658  0.3492
 6931SOL    HW132672   1.184   3.880  17.381 -2.2924  1.1187  2.4581
 6931SOL    HW232673   1.308   3.967  17.369 -1.5808 -0.0230  1.6177
 6932SOL     OW32674   2.846   2.274  19.299  0.2846 -0.6460  0.0398
 6932SOL    HW132675   2.827   2.347  19.357 -0.5984 -0.5690 -0.3439
 6932SOL    HW232676   2.909   2.308  19.235  0.0386 -0.2915 -0.0075
 6933SOL     OW32677   3.834   2.860  18.576  0.2378 -0.7213 -0.0029
 6933SOL    HW132678   3.804   2.888  18.662  1.6139 -0.6823  0.4622
 6933SOL    HW232679   3.889   2.931  18.544  0.0458 -0.9021 -0.7521
 6934SOL     OW32680   1.448   4.100   0.803  0.2788  0.4447  0.2743
 6934SOL    HW132681   1.447   4.015   0.846 -2.0123 -0.0873 -0.8311
 6934SOL    HW232682   1.508   4.153   0.856  1.4772 -1.7542  1.1166
 6935SOL     OW32683   0.047   4.129   2.498  0.3571 -0.4384 -0.4876
 6935SOL    HW132684   0.091   4.044   2.499  1.0854 -0.0622 -1.3945
 6935SOL    HW232685   0.030   4.147   2.591  0.8338 -1.2427 -0.2373
 6936SOL     OW32686   3.444   0.877   9.142  0.5656  0.1696  0.3394
 6936SOL    HW132687   3.397   0.877   9.059 -0.8730  0.1806  1.1562
 6936SOL    HW232688   3.386   0.831   9.203  0.3379  2.7438  2.0660
 6937SOL     OW32689   0.127   4.573  16.535  0.5413 -0.3220 -0.4239
 6937SOL    HW132690   0.087   4.615  16.459 -0.0606 -0.2193 -0.0500
 6937SOL    HW232691   0.216   4.609  16.538  0.9300 -1.1622 -1.7257
 6938SOL     OW32692   2.804   4.346  18.090 -0.4580  0.0768 -0.0829
 6938SOL    HW132693   2.742   4.325  18.020 -0.2811 -1.5270  0.2280
 6938SOL    HW232694   2.860   4.415  18.054 -1.0974  0.0572 -1.1027
 6939SOL     OW32695   4.274   1.282   4.671 -0.0742 -0.8094 -0.0490
 6939SOL    HW132696   4.354   1.315   4.712 -1.3186  1.3752  0.6110
 6939SOL    HW232697   4.240   1.218   4.733 -0.1765  0.0646  0.7942
 6940SOL     OW32698   2.416   3.747   2.417 -0.1378 -0.2629 -0.2175
 6940SOL    HW132699   2.323   3.771   2.418  0.1457  0.8842 -1.6851
 6940SOL    HW232700   2.434   3.719   2.507 -1.8797 -0.3655  0.0984
 6941SOL     OW32701   2.927   4.726  19.920 -0.3328  0.5077  0.1214
 6941SOL    HW132702   2.841   4.762  19.944 -0.3868 -0.2172  1.0536
 6941SOL    HW232703   2.961   4.689  20.002  0.1770 -0.6137 -0.5857
 6942SOL     OW32704   1.700   4.317   6.417 -0.1992 -0.1725  0.2181
 6942SOL    HW132705   1.623   4.353   6.461 -0.0991  0.3039  0.0112
 6942SOL    HW232706   1.773   4.372   6.449  0.4205 -2.2680  2.3963
 6943SOL     OW32707   4.422   3.638   0.679  0.1191 -0.3924  0.1411
 6943SOL    HW132708   4.506   3.681   0.695 -1.0328  1.1952  1.8718
 6943SOL    HW232709   4.414   3.574   0.749 -0.5813  0.1546  0.5637
 6944SOL     OW32710   0.038   2.827   0.715  0.1261  0.5100 -0.7842
 6944SOL    HW132711   0.094   2.863   0.785  0.5628  1.4897 -1.6379
 6944SOL    HW232712   4.727   2.862   0.735  0.8684  3.3565 -2.5414
 6945SOL     OW32713   0.273   2.592  18.927  0.0685  0.1177  0.1421
 6945SOL    HW132714   0.211   2.593  18.854 -0.3667 -2.1166  0.4867
 6945SOL    HW232715   0.245   2.665  18.982 -1.4233 -0.0167 -0.4170
 6946SOL     OW32716   1.007   1.215  16.284 -0.1949 -0.5136  0.1943
 6946SOL    HW132717   0.951   1.138  16.275  1.2381 -1.3843 -1.1853
 6946SOL    HW232718   1.038   1.233  16.195 -0.1155  1.3240  0.6036
 6947SOL     OW32719   2.454   4.569  12.993  0.6043  0.4339  0.0790
 6947SOL    HW132720   2.453   4.659  13.025  2.3972  0.6873 -0.5721
 6947SOL    HW232721   2.462   4.577  12.898  0.3601 -0.4001 -0.0141
 6948SOL     OW32722   4.309   1.885   1.902 -0.1410  0.2159  0.4986
 6948SOL    HW132723   4.263   1.881   1.986 -0.9723  0.4475  0.0517
 6948SOL    HW232724   4.307   1.795   1.870  1.0163 -0.0539  1.1798
 6949SOL     OW32725   2.235   0.437  20.022 -0.2015 -0.3230  0.2067
 6949SOL    HW132726   2.198   0.388  19.948  2.6653  0.3808 -1.7111
 6949SOL    HW232727   2.202   0.526  20.011  0.1603 -0.2369 -0.2130
 6950SOL     OW32728   0.187   4.172  17.077  0.7694 -0.0751  0.0172
 6950SOL    HW132729   0.268   4.177  17.129 -0.3378  0.5023  1.6997
 6950SOL    HW232730   0.142   4.254  17.097  0.0772 -0.1130 -1.4361
 6951SOL     OW32731   3.808   3.276  20.718 -0.6640  0.5708 -0.2029
 6951SOL    HW132732   3.829   3.347  20.657  0.3278  0.1513 -0.3531
 6951SOL    HW232733   3.790   3.201  20.662 -2.3568  0.8705 -0.0622
 6952SOL     OW32734   3.768   2.494   7.661 -0.1348 -0.1645  0.5444
 6952SOL    HW132735   3.758   2.523   7.752 -1.8668  0.6680  0.0916
 6952SOL    HW232736   3.811   2.568   7.617 -2.1146  0.6426 -0.0130
 6953SOL     OW32737   2.008   0.474  18.877  0.0551 -0.2816  0.6700
 6953SOL    HW132738   2.012   0.425  18.795  0.1577  2.1786 -0.7802
 6953SOL    HW232739   1.975   0.410  18.941 -0.9780 -1.8951 -1.4753
 6954SOL     OW32740   2.624   1.767  10.802 -0.0477  0.7246  0.8390
 6954SOL    HW132741   2.654   1.697  10.860  2.8889  1.7770  0.6000
 6954SOL    HW232742   2.642   1.735  10.714 -0.9847  0.7542  0.6299
 6955SOL     OW32743   1.515   2.036   3.391  0.0262 -0.2281  0.2119
 6955SOL    HW132744   1.461   2.064   3.317 -1.7657 -2.2687  0.7404
 6955SOL    HW232745   1.595   2.003   3.351 -1.5270 -2.6803 -0.9079
 6956SOL     OW32746   3.959   0.476   6.616  0.0606  0.4423 -0.2904
 6956SOL    HW132747   4.034   0.445   6.668 -1.2353 -0.4497  1.0248
 6956SOL    HW232748   3.915   0.538   6.673 -0.8730  0.0924 -0.6367
 6957SOL     OW32749   4.482   1.040  18.680  0.0261  0.7264 -0.6195
 6957SOL    HW132750   4.520   0.952  18.678 -1.9696 -0.1588  0.8665
 6957SOL    HW232751   4.553   1.096  18.708  0.8181 -0.6745  0.1889
 6958SOL     OW32752   0.246   1.436   3.373 -0.1133 -0.4832  0.3854
 6958SOL    HW132753   0.239   1.482   3.289  0.9004 -1.6799 -0.3646
 6958SOL    HW232754   0.339   1.439   3.394 -0.2040 -1.1784  0.8962
 6959SOL     OW32755   3.748   1.974  19.814 -0.2572  0.2810 -0.0514
 6959SOL    HW132756   3.685   1.923  19.763  2.7267 -2.2200 -1.2562
 6959SOL    HW232757   3.733   1.946  19.905 -1.3219  0.1687 -0.2606
 6960SOL     OW32758   0.378   2.026   0.761 -0.2997 -0.1652  0.5526
 6960SOL    HW132759   0.451   1.969   0.739 -1.8592 -1.9195 -0.1011
 6960SOL    HW232760   0.409   2.078   0.835  2.0538  0.0053 -0.5772
 6961SOL     OW32761   0.446   2.965  20.283 -0.0349 -0.2373 -0.3010
 6961SOL    HW132762   0.424   2.880  20.320 -0.1954 -0.0769 -0.0227
 6961SOL    HW232763   0.485   3.014  20.356  0.8735 -0.3860 -0.7014
 6962SOL     OW32764   1.696   1.243  16.330  0.3074 -0.2913 -0.2180
 6962SOL    HW132765   1.760   1.299  16.286  0.0282 -0.1178 -0.4079
 6962SOL    HW232766   1.662   1.298  16.401  1.4300 -0.8965  0.7886
 6963SOL     OW32767   1.722   2.063   5.180 -0.1993  0.4816  0.2080
 6963SOL    HW132768   1.759   2.133   5.126 -0.7357 -0.2280 -1.0773
 6963SOL    HW232769   1.756   2.080   5.268 -0.9579  2.8186  0.0524
 6964SOL     OW32770   2.869   0.204   1.751  0.1227  0.5258  0.0360
 6964SOL    HW132771   2.881   0.257   1.830  0.1379  0.9429 -0.2468
 6964SOL    HW232772   2.815   0.259   1.694 -0.0463  0.1455 -0.1651
 6965SOL     OW32773   4.166   4.522  19.941  0.3100  0.7538 -0.2215
 6965SOL    HW132774   4.100   4.570  19.991  0.2285 -1.0774  1.4192
 6965SOL    HW232775   4.249   4.541  19.986  0.3865  0.0002 -0.0398
 6966SOL     OW32776   0.565   3.501   0.047 -0.1612  0.2164  0.2697
 6966SOL    HW132777   0.552   3.572   0.110  3.1016  2.6586 -1.7882
 6966SOL    HW232778   0.480   3.491   0.004 -0.4937  3.2808  0.1817
 6967SOL     OW32779   4.378   0.091  13.709 -0.2397  0.3943  0.1204
 6967SOL    HW132780   4.362   0.177  13.669 -0.8661  0.8122  1.2879
 6967SOL    HW232781   4.458   0.103  13.760 -0.4624  0.3446  0.4774
 6968SOL     OW32782   1.377   3.710   1.659 -0.0374 -0.6038 -0.0844
 6968SOL    HW132783   1.406   3.677   1.574  0.5700  2.1062 -0.9170
 6968SOL    HW232784   1.283   3.723   1.648  0.3437  1.4614 -0.8958
 6969SOL     OW32785   3.036   4.581  16.113  0.3748  0.4570  0.5205
 6969SOL    HW132786   2.975   4.654  16.127  0.7463  0.5834  1.4383
 6969SOL    HW232787   3.048   4.578  16.018 -1.5361  0.0583  0.2853
 6970SOL     OW32788   2.316   3.869  18.131 -0.5261  0.1032  0.1269
 6970SOL    HW132789   2.271   3.897  18.211  0.8516  1.0830  0.5738
 6970SOL    HW232790   2.306   3.942  18.071  1.1402  0.6649  0.5115
 6971SOL     OW32791   1.980   0.122   0.253 -0.6443 -0.1350  0.3180
 6971SOL    HW132792   2.065   0.088   0.225 -1.2354 -0.3181 -1.2547
 6971SOL    HW232793   1.920   0.049   0.240 -0.8768 -0.2844  2.2762
 6972SOL     OW32794   0.102   0.222  20.584 -0.6746  0.0803  0.4376
 6972SOL    HW132795   0.102   0.316  20.565 -1.0704  0.0439  0.2648
 6972SOL    HW232796   0.065   0.182  20.505  0.2070 -0.2768  0.2028
 6973SOL     OW32797   3.025   1.666   9.862 -0.0514 -0.6923  0.5187
 6973SOL    HW132798   3.004   1.758   9.845  0.3451 -0.3738  1.7295
 6973SOL    HW232799   2.987   1.618   9.788  0.0062  0.4771 -0.2592
 6974SOL     OW32800   1.340   4.620   1.035 -0.3360 -0.0643 -0.2163
 6974SOL    HW132801   1.252   4.659   1.034  0.4046  1.6445 -0.2370
 6974SOL    HW232802   1.380   4.656   1.114 -0.6701 -3.1409  1.3388
 6975SOL     OW32803   3.044   2.536   7.481  0.1483 -0.2323  0.0482
 6975SOL    HW132804   3.094   2.609   7.516  1.3564 -1.1282  0.2108
 6975SOL    HW232805   3.032   2.557   7.388 -0.5439  0.7445  0.3668
 6976SOL     OW32806   1.240   2.742  10.893 -0.5552  0.7592  0.7989
 6976SOL    HW132807   1.200   2.783  10.816 -0.6507 -0.5187  0.1747
 6976SOL    HW232808   1.232   2.808  10.962 -1.2549  1.5652 -0.0531
 6977SOL     OW32809   4.049   1.955  14.692  0.4723 -0.0155 -0.4462
 6977SOL    HW132810   4.082   1.929  14.606  1.9268  0.4010 -0.0143
 6977SOL    HW232811   4.121   1.934  14.752 -0.7254 -0.7381  0.7195
 6978SOL     OW32812   2.572   2.659  19.961  0.5877  0.5722  0.2142
 6978SOL    HW132813   2.629   2.696  19.894  0.4466  0.5116  0.0601
 6978SOL    HW232814   2.631   2.615  20.022  0.5319 -1.2436 -1.0433
 6979SOL     OW32815   3.338   3.886  19.326  0.3453  0.1132  0.0123
 6979SOL    HW132816   3.364   3.951  19.261  0.1705  0.5024  0.3363
 6979SOL    HW232817   3.417   3.871  19.378 -0.4924  2.3609  1.9123
 6980SOL     OW32818   0.981   0.529   0.226 -0.2171  0.3410 -0.5995
 6980SOL    HW132819   0.926   0.479   0.167 -1.2538 -0.3932  0.9719
 6980SOL    HW232820   1.064   0.481   0.229  0.1142  0.8401 -2.1023
 6981SOL     OW32821   2.912   1.304   3.731  0.2081 -0.6715  0.1797
 6981SOL    HW132822   2.831   1.252   3.736  0.4200 -0.7361  2.8232
 6981SOL    HW232823   2.959   1.282   3.811  1.1866  2.1484  0.3582
 6982SOL     OW32824   0.423   4.023  18.613 -0.3623  0.2245  0.3427
 6982SOL    HW132825   0.371   4.049  18.689 -1.2043  1.4658 -0.6742
 6982SOL    HW232826   0.455   3.935  18.636 -2.9459 -0.5727  0.9426
 6983SOL     OW32827   4.120   0.502   5.308 -0.1937 -0.4953  0.4026
 6983SOL    HW132828   4.172   0.451   5.370 -0.5034 -0.4772  0.6716
 6983SOL    HW232829   4.036   0.516   5.351  0.1207  0.8034  0.5809
 6984SOL     OW32830   3.166   0.171   0.006 -0.2056 -0.0128 -0.4423
 6984SOL    HW132831   3.179   0.093  21.149 -1.7265 -0.0847 -0.7194
 6984SOL    HW232832   3.098   0.221  21.156 -1.3148  0.0650  1.2576
 6985SOL     OW32833   0.509   1.949  20.031 -0.0838  0.0794  0.1002
 6985SOL    HW132834   0.418   1.956  20.060 -0.0372 -0.6771  0.4112
 6985SOL    HW232835   0.503   1.944  19.936 -0.3409  0.4241  0.0942
 6986SOL     OW32836   4.551   3.611  19.804 -0.1115  0.5046 -0.4353
 6986SOL    HW132837   4.571   3.560  19.882  0.3067  0.3162 -0.6659
 6986SOL    HW232838   4.627   3.599  19.747  0.0276  1.4463 -0.4564
 6987SOL     OW32839   2.255   1.577  19.923  0.2997  0.8112 -0.1443
 6987SOL    HW132840   2.253   1.510  19.854  0.0194  2.8017 -2.0612
 6987SOL    HW232841   2.347   1.589  19.943  0.2202 -1.7008  1.6825
 6988SOL     OW32842   2.316   1.152  18.658  0.1478  0.0412 -0.5603
 6988SOL    HW132843   2.361   1.079  18.616 -1.1927 -0.9709 -0.2456
 6988SOL    HW232844   2.262   1.111  18.725 -0.5033  1.3434 -0.2928
 6989SOL     OW32845   1.642   2.646  12.308 -0.6793 -0.1416 -0.8501
 6989SOL    HW132846   1.606   2.696  12.381  1.0574  0.7590 -0.5997
 6989SOL    HW232847   1.629   2.703  12.232  1.0757  0.5819 -0.6060
 6990SOL     OW32848   0.994   0.892  18.596  0.1836 -0.1085  0.4865
 6990SOL    HW132849   0.925   0.923  18.538  0.0238 -0.2559  0.5980
 6990SOL    HW232850   1.055   0.846  18.538  0.3063  0.2241  0.3551
 6991SOL     OW32851   1.854   2.511   0.820 -0.1568 -0.6734 -0.1776
 6991SOL    HW132852   1.918   2.512   0.749 -0.7973  2.4957 -0.6679
 6991SOL    HW232853   1.893   2.453   0.886  2.0364 -0.7858 -1.5771
 6992SOL     OW32854   4.646   1.953   4.436 -0.4152  0.7595 -0.0932
 6992SOL    HW132855   4.737   1.943   4.409 -0.1577  0.3069  0.9445
 6992SOL    HW232856   4.634   1.890   4.507 -1.6546  0.5211 -0.4956
 6993SOL     OW32857   3.566   3.424   0.880 -0.3413 -0.1513  0.7897
 6993SOL    HW132858   3.591   3.457   0.793 -0.1813 -0.2465  0.7981
 6993SOL    HW232859   3.489   3.369   0.864 -0.2055 -0.3112  0.6829
 6994SOL     OW32860   4.017   3.271   4.214 -0.0525  0.7257  0.0525
 6994SOL    HW132861   4.075   3.343   4.240  1.0709 -0.2221  0.1392
 6994SOL    HW232862   3.939   3.315   4.180  0.7687  2.0024 -0.1968
 6995SOL     OW32863   3.079   0.241   3.718  0.4146  0.3277 -0.2802
 6995SOL    HW132864   3.027   0.185   3.776  0.1389  1.0817  0.2076
 6995SOL    HW232865   3.074   0.199   3.633 -1.7523  0.8766 -0.4298
 6996SOL     OW32866   2.892   0.484   7.008  0.6609 -0.5511 -0.4562
 6996SOL    HW132867   2.980   0.474   7.045  0.4590 -0.8561 -0.0481
 6996SOL    HW232868   2.885   0.413   6.944  0.3953 -1.0678  0.1408
 6997SOL     OW32869   1.404   0.811   5.666  0.6127 -0.3411 -0.1965
 6997SOL    HW132870   1.367   0.770   5.587 -0.1225 -1.0297  0.5123
 6997SOL    HW232871   1.460   0.881   5.632 -0.6824  0.1625 -1.2925
 6998SOL     OW32872   0.592   3.542  17.034 -0.4200  0.1972  0.6242
 6998SOL    HW132873   0.500   3.569  17.028 -0.2134  0.6483 -0.5114
 6998SOL    HW232874   0.642   3.618  17.006  0.2901 -0.1794  0.8611
 6999SOL     OW32875   0.881   4.466   5.996  0.0881  0.0174  0.2043
 6999SOL    HW132876   0.818   4.402   5.963  1.2919 -0.1021 -1.8629
 6999SOL    HW232877   0.828   4.543   6.017 -0.4963  0.6156 -3.3703
 7000SOL     OW32878   4.604   3.848  10.470  0.5674 -0.4631 -0.4142
 7000SOL    HW132879   4.596   3.943  10.462  2.8659 -0.2977 -0.8651
 7000SOL    HW232880   4.629   3.834  10.561 -1.8857 -0.7870  0.2228
 7001SOL     OW32881   2.852   0.443  17.079 -0.4616 -0.3458 -0.0025
 7001SOL    HW132882   2.761   0.433  17.052 -1.0191  2.3787  0.8670
 7001SOL    HW232883   2.848   0.449  17.174  0.6949 -0.9685  0.0843
 7002SOL     OW32884   2.422   2.703   8.314 -0.1629 -0.2317  0.4903
 7002SOL    HW132885   2.458   2.732   8.230  0.5370 -0.2688  0.7791
 7002SOL    HW232886   2.487   2.642   8.349  0.4155  1.1803  1.9133
 7003SOL     OW32887   1.060   0.435  10.196  0.1602 -0.0037  0.2195
 7003SOL    HW132888   1.078   0.435  10.291 -0.5977 -1.0393  0.3599
 7003SOL    HW232889   1.139   0.398  10.157  0.1761 -0.2677  0.5027
 7004SOL     OW32890   0.784   1.840  20.394  0.0701  0.0028 -0.3088
 7004SOL    HW132891   0.709   1.886  20.356 -0.6798  0.1164  1.2843
 7004SOL    HW232892   0.803   1.769  20.332  1.1890  2.4269 -2.7340
 7005SOL     OW32893   3.602   2.085  15.436  0.6934  0.2595  0.4131
 7005SOL    HW132894   3.548   2.025  15.488  0.2851  1.3297  1.2098
 7005SOL    HW232895   3.594   2.053  15.347 -1.1549  0.3576  0.5575
 7006SOL     OW32896   2.274   0.155  18.411  0.8303 -0.3208 -0.8379
 7006SOL    HW132897   2.337   0.189  18.347  1.5254 -1.4331 -0.7462
 7006SOL    HW232898   2.314   0.174  18.496 -0.3325  1.6223 -0.7132
 7007SOL     OW32899   0.333   0.512  18.442 -0.0068 -0.0550 -0.3970
 7007SOL    HW132900   0.368   0.427  18.417  2.2133  0.6682  0.3004
 7007SOL    HW232901   0.331   0.562  18.360  1.5236  0.2361 -0.2631
 7008SOL     OW32902   4.504   3.794   3.116 -0.0292 -0.4672  0.1333
 7008SOL    HW132903   4.446   3.769   3.188  0.1689 -0.9560  0.1175
 7008SOL    HW232904   4.592   3.774   3.148  0.0782 -0.4308 -0.1399
 7009SOL     OW32905   2.855   0.426   7.629 -0.1007 -0.0831  0.4187
 7009SOL    HW132906   2.935   0.372   7.631 -0.4455 -0.6249 -0.2283
 7009SOL    HW232907   2.873   0.498   7.690  0.5873 -0.6192  0.8545
 7010SOL     OW32908   4.572   2.948   3.223  0.1359  0.6530  0.2158
 7010SOL    HW132909   4.662   2.957   3.252  0.0644 -0.0803  0.6576
 7010SOL    HW232910   4.570   2.866   3.174 -0.3234  0.5913  0.3350
 7011SOL     OW32911   2.167   4.410   9.232  0.2202 -0.2014  0.0196
 7011SOL    HW132912   2.142   4.379   9.319 -1.3407  0.2511 -0.2617
 7011SOL    HW232913   2.250   4.456   9.245 -0.6890  1.0315  1.5060
 7012SOL     OW32914   1.144   4.541   0.253 -0.1645 -0.0337  0.0074
 7012SOL    HW132915   1.183   4.619   0.214  1.0307 -0.4556  0.3670
 7012SOL    HW232916   1.177   4.468   0.201 -2.0129 -0.2122 -0.8990
 7013SOL     OW32917   4.478   4.248   2.700 -0.1195 -0.0470  0.1262
 7013SOL    HW132918   4.440   4.192   2.632 -0.7388  0.9358 -0.3238
 7013SOL    HW232919   4.500   4.330   2.655 -0.0876  0.4275  1.0084
 7014SOL     OW32920   4.412   0.468  12.055 -0.1609  0.3057  0.2279
 7014SOL    HW132921   4.374   0.524  11.987  0.3569  0.6914  0.2601
 7014SOL    HW232922   4.468   0.526  12.106  1.1059 -0.4574 -0.3046
 7015SOL     OW32923   1.605   1.444  16.515 -0.6756  0.2569  0.2427
 7015SOL    HW132924   1.516   1.423  16.544 -1.4220  0.5694 -1.8071
 7015SOL    HW232925   1.599   1.535  16.486 -0.1801 -0.4023 -1.9227
 7016SOL     OW32926   0.034   1.160   3.940 -0.4281 -1.0401 -0.1333
 7016SOL    HW132927   0.011   1.172   3.848 -1.5574  1.4761  0.4882
 7016SOL    HW232928   4.728   1.138   3.983 -0.2075 -0.4511  0.5906
 7017SOL     OW32929   1.501   4.251  17.616  0.4296 -0.0398  0.0204
 7017SOL    HW132930   1.570   4.185  17.626 -1.5504 -2.3206 -1.6006
 7017SOL    HW232931   1.539   4.317  17.558  1.1741 -1.3574 -0.9714
 7018SOL     OW32932   1.258   1.754  14.644  0.3219  0.4906  0.2382
 7018SOL    HW132933   1.330   1.700  14.675 -0.6171 -0.3221  0.9940
 7018SOL    HW232934   1.239   1.721  14.556  0.3219  0.1616  0.3633
 7019SOL     OW32935   4.230   0.063   4.315 -0.5836 -0.1862 -0.0855
 7019SOL    HW132936   4.258   0.004   4.244 -0.7949  1.2750 -1.3833
 7019SOL    HW232937   4.138   0.079   4.298 -0.1722  1.7062 -0.5700
 7020SOL     OW32938   2.970   1.245  16.747  0.4381  0.6538  0.1244
 7020SOL    HW132939   2.920   1.171  16.712  1.0883  0.2664  0.0158
 7020SOL    HW232940   2.912   1.320  16.738 -0.2384  0.1467  0.2660
 7021SOL     OW32941   3.782   0.036  19.882 -0.0925  0.3621  0.3191
 7021SOL    HW132942   3.849   0.098  19.854  2.1505 -1.6891  1.1145
 7021SOL    HW232943   3.795   4.736  19.824 -3.3480  1.0045 -1.2041
 7022SOL     OW32944   0.070   1.974   1.701  0.4106  0.4730 -0.2448
 7022SOL    HW132945   4.763   1.935   1.730  0.5363 -0.4939 -1.1979
 7022SOL    HW232946   0.118   1.902   1.660  1.9011  0.9340  0.6713
 7023SOL     OW32947   3.091   4.378  16.277 -0.1724 -0.3975  0.5258
 7023SOL    HW132948   3.083   4.453  16.218  2.3925  0.7639  1.6736
 7023SOL    HW232949   3.152   4.319  16.233  0.7798 -0.0862  1.4307
 7024SOL     OW32950   1.051   2.217   0.638 -1.1619  0.2035  0.0247
 7024SOL    HW132951   1.058   2.229   0.733 -0.3201  0.0428 -0.0179
 7024SOL    HW232952   1.007   2.297   0.608 -2.7268 -0.3995  0.7233
 7025SOL     OW32953   2.234   3.369   1.169 -0.0592 -0.3111  0.2416
 7025SOL    HW132954   2.320   3.329   1.173  0.1238  0.1284  0.6581
 7025SOL    HW232955   2.192   3.345   1.251  1.3109  3.2174  1.9574
 7026SOL     OW32956   0.598   4.679  19.588  0.1539  1.2115 -0.1565
 7026SOL    HW132957   0.637   4.712  19.507  0.9493  0.8470  0.0785
 7026SOL    HW232958   0.638   4.593  19.601  0.4982  1.5373  0.9494
 7027SOL     OW32959   1.726   0.186   7.236  0.2034 -0.6360  0.2146
 7027SOL    HW132960   1.783   0.188   7.160 -0.4776 -2.1120 -0.3424
 7027SOL    HW232961   1.764   0.249   7.297  0.5863  0.7503 -1.4640
 7028SOL     OW32962   2.507   3.479  20.754 -0.1743 -0.1604  0.0369
 7028SOL    HW132963   2.483   3.397  20.712  1.7589 -1.1070  0.7699
 7028SOL    HW232964   2.528   3.539  20.682  0.0554 -0.8169 -0.4361
 7029SOL     OW32965   2.008   4.365   8.052 -0.4736  0.3997 -0.9086
 7029SOL    HW132966   1.920   4.355   8.088  0.1492  2.3095  1.1124
 7029SOL    HW232967   2.025   4.459   8.057  2.3232 -0.1788  0.1641
 7030SOL     OW32968   0.518   3.610  19.301 -0.5163  0.1735 -0.3016
 7030SOL    HW132969   0.517   3.622  19.396 -1.5137  1.5954 -0.4885
 7030SOL    HW232970   0.524   3.515  19.288  2.5935  0.1775  1.1807
 7031SOL     OW32971   4.720   3.390   0.677 -0.6073  0.7521 -0.1441
 7031SOL    HW132972   4.760   3.435   0.602 -3.5307 -0.4623 -2.3853
 7031SOL    HW232973   4.711   3.459   0.744  0.8042  2.0996 -1.3379
 7032SOL     OW32974   2.050   0.324  18.404  0.2600  0.2878 -0.2147
 7032SOL    HW132975   2.120   0.259  18.397 -0.0800 -0.2433  1.3590
 7032SOL    HW232976   2.095   0.403  18.434  0.4269  0.3782 -0.6915
 7033SOL     OW32977   1.180   3.499  11.906  0.0718  0.5053  0.2787
 7033SOL    HW132978   1.126   3.461  11.975  1.0801  0.2437  0.9311
 7033SOL    HW232979   1.265   3.514  11.948  0.9664 -0.5007 -1.1596
 7034SOL     OW32980   3.449   4.348   3.249 -0.2579  0.2793  0.2336
 7034SOL    HW132981   3.505   4.422   3.229 -2.1827  1.2886 -1.3965
 7034SOL    HW232982   3.488   4.275   3.201  2.0947  0.0563  2.4829
 7035SOL     OW32983   2.720   1.616  18.188  0.1444  0.0492 -0.0698
 7035SOL    HW132984   2.798   1.575  18.151 -0.1666 -1.3916  0.8915
 7035SOL    HW232985   2.650   1.592  18.128  0.3570  0.9869 -0.6977
 7036SOL     OW32986   1.944   4.617  17.890  0.1016 -0.3710  0.2827
 7036SOL    HW132987   1.878   4.558  17.853 -1.7913  1.2867  1.0561
 7036SOL    HW232988   2.011   4.623  17.822 -0.3638 -2.3368 -0.3505
 7037SOL     OW32989   2.287   3.231   3.229  0.0981  0.2077  0.1213
 7037SOL    HW132990   2.351   3.209   3.297 -1.9531 -1.9221  1.3511
 7037SOL    HW232991   2.223   3.287   3.273 -0.2850  0.2487 -0.4947
 7038SOL     OW32992   0.865   4.731  14.984  0.4407  0.1079  0.2049
 7038SOL    HW132993   0.953   4.707  14.958  1.1304  0.7486  1.9317
 7038SOL    HW232994   0.847   4.677  15.061 -0.8062 -0.2828 -0.3475
 7039SOL     OW32995   3.673   0.051  14.796 -0.7426 -1.1489 -0.4721
 7039SOL    HW132996   3.688   0.134  14.752 -1.2534 -1.0646 -0.4848
 7039SOL    HW232997   3.758   0.006  14.793 -0.2878 -0.3355  0.1487
 7040SOL     OW32998   3.761   0.028  18.386  0.5975  0.4085 -0.5432
 7040SOL    HW132999   3.854   0.039  18.367  0.0271  2.9095 -1.9691
 7040SOL    HW233000   3.744   0.086  18.460  0.3157 -0.5168  0.1155
 7041SOL     OW33001   1.332   1.137  16.572  0.8891 -0.3537  0.3718
 7041SOL    HW133002   1.392   1.169  16.639  0.5196  0.2069  0.4391
 7041SOL    HW233003   1.323   1.210  16.510 -1.6102  0.4611  1.6647
 7042SOL     OW33004   0.316   3.318  19.692 -0.1864  0.1263 -0.2423
 7042SOL    HW133005   0.335   3.281  19.778  0.3347  0.4477 -0.2198
 7042SOL    HW233006   0.370   3.267  19.632 -1.1412 -0.6209 -0.4761
 7043SOL     OW33007   3.051   2.013  13.834 -0.6182  0.2422 -0.3731
 7043SOL    HW133008   3.009   1.928  13.820 -0.4378  0.2652 -1.0866
 7043SOL    HW233009   2.990   2.076  13.796 -1.0146  0.4827  0.6605
 7044SOL     OW33010   0.844   0.051  19.658 -0.4381 -0.2119 -0.8280
 7044SOL    HW133011   0.833   0.114  19.587 -0.7968  0.6397 -0.0193
 7044SOL    HW233012   0.755   0.037  19.691 -0.1279  0.3211  0.2440
 7045SOL     OW33013   3.192   2.891  18.932 -0.1165  0.5385  0.3120
 7045SOL    HW133014   3.141   2.947  18.873 -2.0561 -1.2301  0.3170
 7045SOL    HW233015   3.183   2.804  18.895  2.4541  0.1307  0.6353
 7046SOL     OW33016   1.756   1.186   0.157  0.0637  0.1224 -0.0754
 7046SOL    HW133017   1.739   1.280   0.145 -0.7339 -0.0028  0.0590
 7046SOL    HW233018   1.705   1.144   0.087  0.0061 -0.2448  0.1879
 7047SOL     OW33019   1.904   3.227  21.184  0.0431 -0.4130 -0.0154
 7047SOL    HW133020   1.851   3.191   0.058 -0.2515  0.0157 -0.0173
 7047SOL    HW233021   1.858   3.201  21.104  0.2572 -0.7100 -0.0408
 7048SOL     OW33022   3.577   4.258  17.779  0.3324  0.2585  0.2518
 7048SOL    HW133023   3.649   4.212  17.822 -0.7739 -0.5042  1.3049
 7048SOL    HW233024   3.499   4.234  17.831 -1.2320 -1.9379 -3.0859
 7049SOL     OW33025   2.221   3.157  12.656  0.3696 -0.3336 -0.0073
 7049SOL    HW133026   2.301   3.211  12.658 -1.4453  2.3574 -0.9123
 7049SOL    HW233027   2.211   3.132  12.565 -1.0959  1.1907 -0.2592
 7050SOL     OW33028   1.233   1.898   1.613 -0.4614  0.0389  0.6374
 7050SOL    HW133029   1.311   1.879   1.562 -1.2222  0.9625 -0.8776
 7050SOL    HW233030   1.161   1.862   1.561 -1.0540 -0.7200  1.9741
 7051SOL     OW33031   0.691   4.722   0.200 -0.4166  0.2654  0.5993
 7051SOL    HW133032   0.751   4.662   0.155 -0.7105  0.5393 -0.1533
 7051SOL    HW233033   0.646   4.667   0.264 -0.0046 -0.1239  0.5591
 7052SOL     OW33034   0.748   1.930   4.177 -0.4613 -0.0510  0.1443
 7052SOL    HW133035   0.784   1.960   4.260  1.3320 -0.7948 -0.3817
 7052SOL    HW233036   0.785   1.989   4.111 -1.3467  0.1091 -0.2171
 7053SOL     OW33037   0.572   4.214  13.618 -0.0299 -0.0419 -0.3503
 7053SOL    HW133038   0.634   4.221  13.545  2.2429 -0.4377  1.5067
 7053SOL    HW233039   0.489   4.192  13.577  1.3096 -0.6444 -2.7863
 7054SOL     OW33040   4.678   1.463   0.091 -0.6904 -0.0278 -0.5176
 7054SOL    HW133041   4.629   1.397   0.043 -0.8253 -0.7581  0.6181
 7054SOL    HW233042   4.732   1.414   0.152 -0.8128  0.9045  0.3553
 7055SOL     OW33043   3.480   4.712   8.793 -0.3377 -0.4053  0.3162
 7055SOL    HW133044   3.558   4.674   8.834 -0.3303 -0.0180  0.6657
 7055SOL    HW233045   3.421   4.638   8.780  0.6613 -0.9268 -1.2608
 7056SOL     OW33046   0.860   1.610   3.350 -0.7870  0.6573 -0.0956
 7056SOL    HW133047   0.773   1.571   3.339  0.6990 -2.9546  0.8678
 7056SOL    HW233048   0.906   1.550   3.409  2.1874  2.8261 -0.1834
 7057SOL     OW33049   1.220   3.843  18.522 -0.5454 -0.0080  0.1878
 7057SOL    HW133050   1.133   3.845  18.483 -0.0215 -0.4884 -1.0175
 7057SOL    HW233051   1.261   3.764  18.485  0.7535  0.7663 -0.0214
 7058SOL     OW33052   1.342   1.762   0.773 -0.1071  0.1400 -0.5281
 7058SOL    HW133053   1.414   1.712   0.811  0.5510  0.5380 -1.2376
 7058SOL    HW233054   1.294   1.699   0.720  0.2864  0.0889 -0.8256
 7059SOL     OW33055   4.122   1.804   2.825  0.0594 -0.2313  0.2364
 7059SOL    HW133056   4.190   1.762   2.772 -0.6045 -0.5703 -0.3500
 7059SOL    HW233057   4.062   1.842   2.761  0.9298  2.0380  0.7721
 7060SOL     OW33058   3.430   0.300   2.210  0.4138 -0.3566  0.7704
 7060SOL    HW133059   3.337   0.281   2.204  0.3536  0.9068 -2.1636
 7060SOL    HW233060   3.473   0.219   2.184  0.1521  0.6810 -2.8435
 7061SOL     OW33061   3.588   1.532   5.104 -0.9003  0.3908  0.2636
 7061SOL    HW133062   3.587   1.575   5.190 -1.4162 -0.8344  0.8697
 7061SOL    HW233063   3.528   1.459   5.114 -1.7570  0.8638 -1.4598
 7062SOL     OW33064   1.914   0.742  18.915  0.7094  0.2103 -0.2815
 7062SOL    HW133065   1.908   0.652  18.883  2.9276  0.6542 -1.9028
 7062SOL    HW233066   1.860   0.792  18.854 -1.7486 -0.2574  1.5028
 7063SOL     OW33067   1.733   0.460   5.222 -0.1766  0.3199  0.3402
 7063SOL    HW133068   1.652   0.412   5.240 -0.4224  0.2808 -0.8747
 7063SOL    HW233069   1.735   0.469   5.127  0.6529  1.3617  0.4590
 7064SOL     OW33070   2.351   0.301   5.530  0.0696 -0.2781  0.0367
 7064SOL    HW133071   2.434   0.292   5.578 -0.0318  1.0424  0.4687
 7064SOL    HW233072   2.300   0.224   5.556  0.5278 -0.2437  1.0409
 7065SOL     OW33073   4.744   1.670  16.060  0.3230 -0.6441  0.0900
 7065SOL    HW133074   0.027   1.695  15.989  2.2227 -1.3971  1.3936
 7065SOL    HW233075   4.690   1.600  16.024  0.3653 -0.0860 -1.0469
 7066SOL     OW33076   1.164   3.519  20.389  0.3396  0.0596 -0.0277
 7066SOL    HW133077   1.240   3.576  20.401 -0.3186  0.8141  0.5780
 7066SOL    HW233078   1.160   3.466  20.468 -0.1882  0.5284  0.2642
 7067SOL     OW33079   4.353   2.779  19.089  0.0142 -0.4819 -0.6447
 7067SOL    HW133080   4.408   2.735  19.154  0.3100  1.0416  0.1296
 7067SOL    HW233081   4.276   2.723  19.081 -1.1381  0.6340  2.8202
 7068SOL     OW33082   1.446   3.548  17.078 -0.0625 -0.2668  0.0969
 7068SOL    HW133083   1.470   3.629  17.123  0.3337 -0.5613  0.4227
 7068SOL    HW233084   1.530   3.509  17.054 -0.2300 -1.0795  0.8304
 7069SOL     OW33085   1.333   0.068   2.340  0.1756 -0.2749  0.2901
 7069SOL    HW133086   1.401   0.066   2.406 -0.6361 -1.0689  1.1096
 7069SOL    HW233087   1.273   4.774   2.365 -0.0009 -0.7483 -1.4212
 7070SOL     OW33088   4.219   0.148  18.237  0.2300  0.1023  0.1685
 7070SOL    HW133089   4.233   0.189  18.151 -1.2438 -1.3860 -0.7949
 7070SOL    HW233090   4.306   0.116  18.262  0.3918 -0.7972 -1.4826
 7071SOL     OW33091   1.768   1.703  17.964  0.5293  0.4662  0.2160
 7071SOL    HW133092   1.678   1.713  17.997  0.8725  1.7161  0.7495
 7071SOL    HW233093   1.763   1.729  17.872  0.7285  2.2624  0.7215
 7072SOL     OW33094   4.266   1.802   6.717 -0.0937 -0.1961 -0.1097
 7072SOL    HW133095   4.250   1.816   6.624  0.0590 -0.1160 -0.1237
 7072SOL    HW233096   4.361   1.809   6.726 -0.1435  0.1938  0.1190
 7073SOL     OW33097   0.352   3.402  17.808 -0.2303 -0.0015 -0.1201
 7073SOL    HW133098   0.415   3.443  17.868 -0.1052 -0.4480  0.0562
 7073SOL    HW233099   0.406   3.371  17.735 -0.6259  2.1473 -1.3092
 7074SOL     OW33100   0.478   1.893   2.916  0.0843  0.1563 -0.2598
 7074SOL    HW133101   0.561   1.849   2.934 -0.8087 -1.5298 -0.2630
 7074SOL    HW233102   0.458   1.941   2.996  0.7285  0.0328 -0.0253
 7075SOL     OW33103   1.868   0.284   3.950  0.3126 -0.4931  0.0447
 7075SOL    HW133104   1.841   0.215   4.010 -0.8024 -1.5408 -1.6539
 7075SOL    HW233105   1.883   0.239   3.867  0.9168  1.1017 -0.7088
 7076SOL     OW33106   4.468   1.948  13.720  0.0784  0.2791  0.2109
 7076SOL    HW133107   4.499   1.954  13.630 -0.3812 -1.8923 -0.0955
 7076SOL    HW233108   4.479   2.036  13.755  2.9888  0.4324 -1.0633
 7077SOL     OW33109   2.662   2.414  13.492 -0.0762  0.1631 -0.0283
 7077SOL    HW133110   2.631   2.504  13.506 -2.0425 -0.1198 -2.4831
 7077SOL    HW233111   2.700   2.415  13.405 -0.2408 -1.4495 -0.1135
 7078SOL     OW33112   3.110   3.495  19.745  0.2813 -0.0124 -0.3926
 7078SOL    HW133113   3.038   3.504  19.808 -1.6959 -2.4030 -2.3006
 7078SOL    HW233114   3.108   3.577  19.695 -1.2903 -0.1551 -0.5889
 7079SOL     OW33115   3.088   3.180   1.596  0.1645  0.9502 -0.0676
 7079SOL    HW133116   3.073   3.159   1.688 -0.9951  0.1106 -0.4507
 7079SOL    HW233117   3.028   3.252   1.577 -0.5940  0.1846 -0.5510
 7080SOL     OW33118   2.019   4.598   4.374  0.1230 -0.9568  0.4239
 7080SOL    HW133119   2.049   4.585   4.285  1.3504 -2.3132  1.0373
 7080SOL    HW233120   2.085   4.654   4.414  0.6868 -2.1355  1.1284
 7081SOL     OW33121   4.189   1.916  19.748  0.4737 -0.4739 -0.4815
 7081SOL    HW133122   4.147   1.885  19.668 -1.4365 -0.3702  0.4650
 7081SOL    HW233123   4.283   1.907  19.732  0.0187 -3.0952 -1.6523
 7082SOL     OW33124   2.197   4.124   4.307 -0.2426  0.2680 -0.6056
 7082SOL    HW133125   2.139   4.188   4.348 -0.6600  0.0318 -0.8279
 7082SOL    HW233126   2.214   4.160   4.219  1.3321  1.1954  0.0834
 7083SOL     OW33127   0.780   2.854  16.503  0.7703 -0.0364  0.5866
 7083SOL    HW133128   0.723   2.870  16.578  1.3669  1.9903  0.6026
 7083SOL    HW233129   0.868   2.874  16.535  1.2587 -1.1723 -0.0388
 7084SOL     OW33130   3.004   0.008   3.865  0.3570  0.5577  0.3115
 7084SOL    HW133131   3.004   4.722   3.792 -0.8411  0.4727  0.3922
 7084SOL    HW233132   2.913   0.035   3.875  0.8730  2.3263  0.2870
 7085SOL     OW33133   3.263   3.845   2.557 -0.0393  0.1597 -0.0845
 7085SOL    HW133134   3.317   3.784   2.507 -1.1715 -1.5950  0.8289
 7085SOL    HW233135   3.255   3.922   2.501  0.4222 -0.9902 -1.7185
 7086SOL     OW33136   4.064   3.352  20.804  0.1547  0.3880  0.3540
 7086SOL    HW133137   3.976   3.324  20.776  0.1479 -0.1134  0.8595
 7086SOL    HW233138   4.056   3.447  20.817 -0.0736  0.4807 -0.4743
 7087SOL     OW33139   1.558   3.187  17.971 -0.1788 -0.0489  0.1663
 7087SOL    HW133140   1.647   3.172  17.941 -0.3904  2.1688 -1.5624
 7087SOL    HW233141   1.562   3.174  18.066  1.3069 -3.0195 -0.2999
 7088SOL     OW33142   2.273   1.410  20.490 -0.5082  0.3361  0.6863
 7088SOL    HW133143   2.330   1.453  20.425  0.8704 -0.9529  1.0412
 7088SOL    HW233144   2.319   1.422  20.573 -0.2562 -1.6308  0.8139
 7089SOL     OW33145   3.919   4.230   2.304 -0.0098  0.6633 -0.5102
 7089SOL    HW133146   3.826   4.213   2.321 -0.2455  0.8042 -1.6687
 7089SOL    HW233147   3.944   4.163   2.240  1.5376 -1.4941  2.3489
 7090SOL     OW33148   0.110   2.865  19.793 -0.7070  0.2482  0.3933
 7090SOL    HW133149   0.029   2.857  19.743 -1.1462 -1.9555  1.4646
 7090SOL    HW233150   0.082   2.882  19.883  0.0017 -1.3352  0.9187
 7091SOL     OW33151   3.615   2.976   3.565  0.0881  0.8392  0.3478
 7091SOL    HW133152   3.672   2.901   3.546 -0.6179  0.4892 -0.3543
 7091SOL    HW233153   3.569   2.952   3.645 -0.7735  0.1822 -0.3592
 7092SOL     OW33154   0.938   0.392  14.774 -0.6194 -0.3823 -0.4438
 7092SOL    HW133155   0.851   0.355  14.758  0.5681 -2.8327 -1.2682
 7092SOL    HW233156   0.984   0.381  14.691  0.5095  0.7933  0.0418
 7093SOL     OW33157   1.477   0.527   1.127 -0.1511  0.3110 -0.7560
 7093SOL    HW133158   1.573   0.522   1.123 -0.2064 -0.9257 -0.5356
 7093SOL    HW233159   1.447   0.460   1.065 -0.8696  0.3823 -0.4851
 7094SOL     OW33160   2.279   2.639   4.467 -0.0582  0.1481  0.1742
 7094SOL    HW133161   2.321   2.575   4.409 -0.3375  1.1948 -1.1747
 7094SOL    HW233162   2.235   2.700   4.408 -2.8452 -0.5098  1.5608
 7095SOL     OW33163   1.014   0.606  19.898  0.4983  0.5949 -0.3487
 7095SOL    HW133164   1.001   0.513  19.879  1.2691  0.4048  0.1106
 7095SOL    HW233165   1.049   0.642  19.816  0.1646  0.4911 -0.5385
 7096SOL     OW33166   4.355   0.138  20.450 -0.4317  0.2023 -0.2442
 7096SOL    HW133167   4.394   0.154  20.363  0.2933 -0.2845 -0.0105
 7096SOL    HW233168   4.430   0.127  20.508 -0.9226 -1.4650  0.0776
 7097SOL     OW33169   3.051   1.655  12.907 -0.0906 -0.1771 -0.3080
 7097SOL    HW133170   3.142   1.656  12.876 -0.4465  0.5318 -1.3540
 7097SOL    HW233171   3.003   1.612  12.837 -0.6345 -0.1543  0.0546
 7098SOL     OW33172   1.598   2.368   2.729  0.1766 -0.1226 -0.1841
 7098SOL    HW133173   1.677   2.375   2.784  0.3419  0.8418 -0.5466
 7098SOL    HW233174   1.575   2.275   2.733  2.4377 -0.7393 -1.6053
 7099SOL     OW33175   3.908   1.871  17.994  0.0390 -0.1024  0.4255
 7099SOL    HW133176   3.819   1.839  18.002 -0.2667  0.6777  0.1692
 7099SOL    HW233177   3.902   1.965  18.014  0.6436  0.1433 -0.5580
 7100SOL     OW33178   1.150   4.046  11.571 -0.2172  0.8212  0.0592
 7100SOL    HW133179   1.213   4.093  11.517 -0.5662  0.6362 -0.5088
 7100SOL    HW233180   1.065   4.069  11.535 -0.3203 -1.2205 -1.0153
 7101SOL     OW33181   3.735   1.322   1.925 -0.0144 -0.1572 -0.3446
 7101SOL    HW133182   3.657   1.375   1.933  0.9414  1.1928  0.0008
 7101SOL    HW233183   3.782   1.358   1.850  0.8767 -0.1767  0.1960
 7102SOL     OW33184   0.308   0.285  13.982  0.5809 -0.3118  0.7864
 7102SOL    HW133185   0.253   0.355  14.018  0.2348  0.1625 -0.6442
 7102SOL    HW233186   0.245   0.221  13.948  0.9142 -0.3370  0.2230
 7103SOL     OW33187   0.252   0.671  10.949 -0.3108  0.6767 -0.6379
 7103SOL    HW133188   0.274   0.745  10.892  0.1848  0.3740 -0.8420
 7103SOL    HW233189   0.300   0.597  10.911 -0.8691  0.2326 -0.4820
 7104SOL     OW33190   2.056   2.373  15.654  0.1945  0.4766  0.2144
 7104SOL    HW133191   1.967   2.383  15.619  0.1817 -1.1498 -0.2475
 7104SOL    HW233192   2.044   2.326  15.736  0.7842 -1.4504 -0.7913
 7105SOL     OW33193   0.316   2.860   8.780 -0.5167 -0.2519  0.1071
 7105SOL    HW133194   0.336   2.953   8.790  0.5886 -0.2616 -2.0628
 7105SOL    HW233195   0.221   2.856   8.786 -0.4585  0.8404  1.7577
 7106SOL     OW33196   0.026   1.838   0.286  0.2605  0.4056 -0.0835
 7106SOL    HW133197   4.773   1.879   0.367 -0.3465  0.6438 -0.4216
 7106SOL    HW233198   0.064   1.910   0.235  0.2369  0.3353 -0.2007
 7107SOL     OW33199   3.821   3.863   3.066 -0.1016  0.1808  0.2724
 7107SOL    HW133200   3.735   3.820   3.065  0.2523 -0.5174 -0.0534
 7107SOL    HW233201   3.801   3.956   3.059 -0.8673  0.0637  0.8380
 7108SOL     OW33202   3.493   1.653   9.765  0.6622  0.0675 -0.1726
 7108SOL    HW133203   3.554   1.694   9.703 -0.2950  0.7179 -0.6674
 7108SOL    HW233204   3.549   1.594   9.816  1.3774 -0.7707 -1.9057
 7109SOL     OW33205   2.333   3.371  17.147 -0.0248 -0.0364  0.3861
 7109SOL    HW133206   2.284   3.317  17.209 -0.6424  0.1574  0.0658
 7109SOL    HW233207   2.289   3.357  17.063 -0.9004  1.8923  0.5398
 7110SOL     OW33208   2.698   4.282   6.062  0.1529  0.4861 -0.3794
 7110SOL    HW133209   2.617   4.233   6.074  0.4734  0.1380  0.3484
 7110SOL    HW233210   2.750   4.264   6.140  0.0553  2.4124  0.1440
 7111SOL     OW33211   0.385   3.335  15.551 -0.4601  0.5244 -0.4366
 7111SOL    HW133212   0.308   3.305  15.600  0.9291  1.1803  2.1308
 7111SOL    HW233213   0.373   3.429  15.543  0.0375  0.6232 -0.0585
 7112SOL     OW33214   0.848   2.735   4.075  0.2455  0.1198  0.0696
 7112SOL    HW133215   0.882   2.816   4.036  0.4614 -0.1136 -0.2312
 7112SOL    HW233216   0.904   2.719   4.151  1.5567 -0.9004 -1.1012
 7113SOL     OW33217   1.695   2.787  10.281  0.2714  0.3985  0.0359
 7113SOL    HW133218   1.763   2.733  10.240  1.0891  0.7571  0.9112
 7113SOL    HW233219   1.619   2.778  10.223 -0.1059 -3.0072  1.0353
 7114SOL     OW33220   0.427   3.946  20.818  0.3407 -0.1203  0.5050
 7114SOL    HW133221   0.355   3.884  20.808  0.3139 -0.0678  0.3716
 7114SOL    HW233222   0.393   4.028  20.784  0.2053  0.0915  1.1561
 7115SOL     OW33223   0.579   2.408   9.507  0.1018 -0.0317 -0.3270
 7115SOL    HW133224   0.636   2.429   9.581  0.2063 -1.9787  0.1557
 7115SOL    HW233225   0.581   2.486   9.452  0.4755  1.2239  1.4397
 7116SOL     OW33226   0.695   1.613  19.911 -0.1153 -0.0426  0.4520
 7116SOL    HW133227   0.671   1.562  19.834 -1.1600 -0.3435  0.9765
 7116SOL    HW233228   0.785   1.586  19.931  0.1832  0.0906 -0.6940
 7117SOL     OW33229   3.819   1.302  13.944  0.5229  0.0389 -0.1547
 7117SOL    HW133230   3.828   1.210  13.919 -0.3892  0.1225 -0.7947
 7117SOL    HW233231   3.889   1.346  13.898 -1.2801  0.2204 -2.7108
 7118SOL     OW33232   0.993   4.418   6.261 -0.4827 -0.0865 -0.5661
 7118SOL    HW133233   1.013   4.325   6.267 -2.1476 -0.3929  0.2824
 7118SOL    HW233234   0.966   4.431   6.170 -1.7495 -0.7325 -0.2813
 7119SOL     OW33235   0.207   4.263  20.420  0.0596 -0.1984  0.1842
 7119SOL    HW133236   0.281   4.300  20.466  0.0692 -0.9591  0.7845
 7119SOL    HW233237   0.194   4.320  20.344  2.0916 -0.8374 -0.6306
 7120SOL     OW33238   3.966   1.393   4.253 -0.7120  0.4463  0.8614
 7120SOL    HW133239   4.009   1.331   4.312  0.2593 -0.0783 -0.3826
 7120SOL    HW233240   3.982   1.479   4.291  1.4167  0.2466  0.4320
 7121SOL     OW33241   2.927   0.670   1.032  0.0528 -0.2338  0.2272
 7121SOL    HW133242   2.863   0.602   1.011  0.7777 -1.2503  1.3105
 7121SOL    HW233243   2.983   0.674   0.955  0.3106 -1.2052  0.3648
 7122SOL     OW33244   2.263   3.069   9.999 -0.2677 -0.1735  0.4113
 7122SOL    HW133245   2.266   3.057   9.904 -1.2086 -1.7623  0.5738
 7122SOL    HW233246   2.259   2.980  10.034  1.1437  0.3837  1.9850
 7123SOL     OW33247   3.488   1.590  16.616  0.1825 -0.2810  0.1021
 7123SOL    HW133248   3.395   1.581  16.639 -0.3397 -0.7067 -2.1991
 7123SOL    HW233249   3.523   1.652  16.681 -1.7367  0.0134  0.8579
 7124SOL     OW33250   3.028   3.563  16.857 -0.1870  0.6781 -0.0570
 7124SOL    HW133251   3.100   3.514  16.817 -1.3078 -1.8104  0.9547
 7124SOL    HW233252   3.009   3.516  16.938 -2.4253  1.7805  0.0570
 7125SOL     OW33253   1.398   1.177   3.322  0.6740 -0.3708  0.0764
 7125SOL    HW133254   1.354   1.181   3.237  0.8857  1.7505  0.0523
 7125SOL    HW233255   1.341   1.123   3.377 -0.1474 -0.6034 -1.0108
 7126SOL     OW33256   2.808   3.144   0.533 -0.9483 -0.3456 -0.9401
 7126SOL    HW133257   2.876   3.208   0.514 -0.9089  0.7194  2.6610
 7126SOL    HW233258   2.833   3.066   0.484  1.3566  0.9679 -1.8385
 7127SOL     OW33259   1.025   1.588   1.973 -0.0466  0.6659  0.0764
 7127SOL    HW133260   1.046   1.560   2.062 -0.0002 -0.8175 -0.3889
 7127SOL    HW233261   1.110   1.592   1.928 -0.1254  0.8084 -0.0601
 7128SOL     OW33262   0.199   3.366  17.146 -0.0761  0.0675 -0.4091
 7128SOL    HW133263   0.249   3.287  17.127 -1.2140 -1.3794  2.6258
 7128SOL    HW233264   0.145   3.379  17.068  1.3892 -1.1715 -1.6238
 7129SOL     OW33265   0.569   3.569   5.316 -0.3147 -0.0758  0.0036
 7129SOL    HW133266   0.627   3.640   5.289  0.0860 -0.4641 -0.1745
 7129SOL    HW233267   0.512   3.608   5.382 -0.3457  0.5040 -0.3679
 7130SOL     OW33268   1.599   4.092   2.302 -0.5853 -0.9822  0.4471
 7130SOL    HW133269   1.538   4.022   2.324 -1.0418 -0.4443  0.9011
 7130SOL    HW233270   1.672   4.080   2.362 -1.7924  0.4319  2.1842
 7131SOL     OW33271   3.070   0.361  12.660 -0.6059  0.0615 -0.5758
 7131SOL    HW133272   3.138   0.397  12.604  0.0203 -2.8713 -1.6479
 7131SOL    HW233273   3.109   0.360  12.748  0.0702  0.0888 -0.8806
 7132SOL     OW33274   0.564   2.619  12.220  1.1312 -0.1059  0.5915
 7132SOL    HW133275   0.501   2.554  12.187  0.0769  0.9216  0.5552
 7132SOL    HW233276   0.601   2.580  12.298 -0.8549  0.0125  1.5997
 7133SOL     OW33277   1.838   3.185  15.334 -0.4064  0.2408 -0.5966
 7133SOL    HW133278   1.895   3.109  15.324 -0.5260  0.2416 -1.3010
 7133SOL    HW233279   1.842   3.206  15.427 -0.2227 -0.5078 -0.4357
 7134SOL     OW33280   0.263   1.334   4.058  0.2716  0.0634  0.3758
 7134SOL    HW133281   0.213   1.290   3.989  0.4055 -1.1371  1.0529
 7134SOL    HW233282   0.196   1.375   4.113  0.1567  0.9007 -0.3757
 7135SOL     OW33283   0.397   1.815  19.793 -0.0330  0.1394 -0.0712
 7135SOL    HW133284   0.389   1.725  19.762 -0.7711 -1.0397  3.6083
 7135SOL    HW233285   0.311   1.853  19.780 -0.5067 -0.5341  1.1674
 7136SOL     OW33286   1.337   4.030  17.878 -0.1714  0.4135  0.6887
 7136SOL    HW133287   1.303   3.940  17.877  2.4896 -0.5849 -0.3083
 7136SOL    HW233288   1.322   4.062  17.789 -1.8321  1.2321  1.2592
 7137SOL     OW33289   4.598   3.681   1.109  0.4688 -0.0996  0.2063
 7137SOL    HW133290   4.518   3.670   1.161  0.8502 -0.1615  0.7910
 7137SOL    HW233291   4.593   3.770   1.075  0.7104  0.3009  1.2110
 7138SOL     OW33292   4.531   1.742  20.246  0.2510  0.0582 -0.0578
 7138SOL    HW133293   4.479   1.818  20.222  1.0472  0.5919 -0.0952
 7138SOL    HW233294   4.482   1.667  20.213 -1.7218  0.4188  2.1079
 7139SOL     OW33295   0.739   0.144  12.334 -0.0001  0.3246 -0.0710
 7139SOL    HW133296   0.663   0.093  12.308  0.7406 -0.0972 -1.4202
 7139SOL    HW233297   0.774   0.178  12.252  1.4639  0.2409  0.5125
 7140SOL     OW33298   2.280   4.728  16.513  0.8062  0.0280 -0.2665
 7140SOL    HW133299   2.261   4.635  16.528  0.6746  0.2033  0.6907
 7140SOL    HW233300   2.204   4.761  16.467  1.6638 -0.7673 -2.2380
 7141SOL     OW33301   1.522   2.829  12.466 -0.3864 -0.1889  0.4762
 7141SOL    HW133302   1.595   2.890  12.477 -0.2854 -0.7415  2.9796
 7141SOL    HW233303   1.444   2.882  12.481 -0.3736 -0.3045  0.9408
 7142SOL     OW33304   0.600   1.542   3.262  0.1747 -0.2593 -0.4801
 7142SOL    HW133305   0.542   1.509   3.330  0.9262  2.3866  1.3958
 7142SOL    HW233306   0.559   1.622   3.231 -0.0436 -1.3297 -2.9646
 7143SOL     OW33307   2.852   1.569   1.376 -0.1583 -0.1822 -0.0468
 7143SOL    HW133308   2.807   1.653   1.365 -0.6167 -0.2148  1.5695
 7143SOL    HW233309   2.874   1.565   1.469  0.8608 -1.3515 -0.3325
 7144SOL     OW33310   3.471   1.794   2.067  0.2835  0.2533  0.4115
 7144SOL    HW133311   3.534   1.757   2.005 -0.6705  1.6672 -1.4138
 7144SOL    HW233312   3.479   1.888   2.055 -3.0357  0.3925 -0.6990
 7145SOL     OW33313   2.970   2.625  10.783 -0.4530  0.1663 -0.0501
 7145SOL    HW133314   3.037   2.689  10.756  0.2128 -1.4316 -2.1673
 7145SOL    HW233315   2.905   2.629  10.713 -1.6839  0.4088  1.1233
 7146SOL     OW33316   4.640   2.178  19.722  0.3793 -0.2418 -0.2788
 7146SOL    HW133317   4.616   2.240  19.791 -0.5830 -1.4956  0.5123
 7146SOL    HW233318   4.736   2.181  19.720  0.5728 -3.2531  3.9200
 7147SOL     OW33319   4.249   0.777  16.790  0.4282  0.0283 -0.1902
 7147SOL    HW133320   4.310   0.801  16.722  4.0851 -0.1980  3.0200
 7147SOL    HW233321   4.252   0.681  16.793 -0.2638  0.0031 -0.2054
 7148SOL     OW33322   1.351   0.272   3.500  0.6402  0.1691  0.1479
 7148SOL    HW133323   1.256   0.274   3.515  0.7884  1.1026  1.0108
 7148SOL    HW233324   1.380   0.361   3.521  1.6026  0.0776 -0.8071
 7149SOL     OW33325   0.111   0.917  16.488  0.5516  0.3844  0.6594
 7149SOL    HW133326   0.167   0.992  16.507  0.9067  0.4337 -0.5673
 7149SOL    HW233327   0.148   0.879  16.408 -0.8519  0.1239  0.1318
 7150SOL     OW33328   0.746   3.444  15.223 -0.1973  0.4650  0.5535
 7150SOL    HW133329   0.838   3.452  15.247  0.0510  0.2640 -0.3165
 7150SOL    HW233330   0.747   3.439  15.127 -1.0074 -1.1211  0.6369
 7151SOL     OW33331   2.927   1.320   3.197 -0.3076 -0.1919 -0.3507
 7151SOL    HW133332   2.890   1.341   3.111 -0.5802 -1.6985 -0.6054
 7151SOL    HW233333   2.925   1.403   3.245 -1.0822  0.4320 -1.4594
 7152SOL     OW33334   2.934   3.613  15.687 -0.2289 -0.0142 -0.0647
 7152SOL    HW133335   3.012   3.579  15.730 -0.6288  0.1110  0.7517
 7152SOL    HW233336   2.861   3.578  15.737 -0.6382  2.1308  0.8463
 7153SOL     OW33337   4.285   0.855  14.554  0.0371 -0.1502  0.2920
 7153SOL    HW133338   4.305   0.763  14.571  0.5575 -0.1496 -0.3081
 7153SOL    HW233339   4.193   0.865  14.577  0.0894 -0.7281  0.7363
 7154SOL     OW33340   4.666   2.048   1.122 -0.0537 -0.1198  0.1425
 7154SOL    HW133341   4.621   2.131   1.106  0.9077  0.4348  0.3629
 7154SOL    HW233342   4.759   2.070   1.120  0.2242 -1.3698 -0.8234
 7155SOL     OW33343   2.161   4.478   2.722  0.2039  0.6218  0.5811
 7155SOL    HW133344   2.102   4.417   2.765  0.3919 -1.3858 -2.0047
 7155SOL    HW233345   2.249   4.451   2.751  0.3049 -0.4888 -0.7753
 7156SOL     OW33346   2.408   2.610  19.276  0.3537  0.1049  0.1686
 7156SOL    HW133347   2.371   2.636  19.191  1.6541 -0.6821 -0.6335
 7156SOL    HW233348   2.482   2.669  19.289 -0.1383  0.5377  0.9791
 7157SOL     OW33349   2.428   4.158  16.003 -0.3198 -0.4743 -0.1746
 7157SOL    HW133350   2.510   4.168  16.051  0.3681 -1.7206 -1.1223
 7157SOL    HW233351   2.367   4.216  16.049  0.5736 -1.0296  1.7013
 7158SOL     OW33352   1.966   2.434  13.681  0.2274 -0.5419 -0.2546
 7158SOL    HW133353   1.980   2.340  13.670  0.6137 -0.4467 -0.5333
 7158SOL    HW233354   2.035   2.462  13.741 -0.6076 -0.6635  0.7696
 7159SOL     OW33355   0.482   0.643   2.327 -0.4840  0.1728 -0.4976
 7159SOL    HW133356   0.439   0.583   2.389  0.0726 -0.1576 -0.4339
 7159SOL    HW233357   0.566   0.602   2.309  0.5006  1.6906  0.6774
 7160SOL     OW33358   2.503   4.362  12.063 -0.4959  0.5669 -0.1031
 7160SOL    HW133359   2.491   4.270  12.038 -0.4741  0.2825  0.9624
 7160SOL    HW233360   2.577   4.361  12.124  0.9423  1.5554 -1.8106
 7161SOL     OW33361   0.965   4.621  16.662 -0.2227  0.2703 -0.0237
 7161SOL    HW133362   0.871   4.627  16.678 -0.4226 -0.1763 -1.0578
 7161SOL    HW233363   0.973   4.599  16.569  0.9367  1.8664 -0.3078
 7162SOL     OW33364   2.268   3.377  13.888 -0.2452  0.3528  0.0474
 7162SOL    HW133365   2.175   3.385  13.908 -0.3536  1.7070 -1.0016
 7162SOL    HW233366   2.285   3.448  13.826  1.4285 -0.0458  0.0628
 7163SOL     OW33367   0.400   0.232   9.452 -0.2092  0.0729  0.1976
 7163SOL    HW133368   0.426   0.306   9.507 -2.4292  0.0658  1.2349
 7163SOL    HW233369   0.450   0.158   9.487  2.2783  1.1283 -1.0622
 7164SOL     OW33370   0.525   2.721   2.124  0.3072  0.2585 -0.6506
 7164SOL    HW133371   0.569   2.705   2.208 -0.9768 -0.7228 -0.1527
 7164SOL    HW233372   0.488   2.636   2.100 -0.9266  0.9691 -1.2815
 7165SOL     OW33373   0.686   2.344   2.608 -0.1179  0.5301  0.6024
 7165SOL    HW133374   0.759   2.407   2.611  1.3315 -1.1888  1.5353
 7165SOL    HW233375   0.612   2.396   2.577  1.7764  2.0406 -1.4757
 7166SOL     OW33376   2.181   2.427  16.391  0.1723 -0.4139  0.4543
 7166SOL    HW133377   2.171   2.371  16.468 -0.8959  0.6878  1.1163
 7166SOL    HW233378   2.274   2.453  16.392  1.0948 -3.5726 -0.8341
 7167SOL     OW33379   2.633   0.249   7.538  0.1942  0.5386 -0.2678
 7167SOL    HW133380   2.612   0.240   7.445 -0.6188  2.3574 -0.2847
 7167SOL    HW233381   2.715   0.299   7.539  1.3034 -1.3256 -0.0698
 7168SOL     OW33382   2.438   4.269   9.087 -0.3750  0.8895  0.2574
 7168SOL    HW133383   2.470   4.180   9.074 -1.2819  0.7945 -1.2279
 7168SOL    HW233384   2.387   4.264   9.168 -1.8944 -0.3141 -0.7832
 7169SOL     OW33385   2.476   2.227  15.480 -0.5834 -0.9200 -0.0637
 7169SOL    HW133386   2.421   2.261  15.551 -0.9515 -0.0426 -0.7783
 7169SOL    HW233387   2.416   2.218  15.406 -0.4516 -2.9637  0.0773
 7170SOL     OW33388   2.354   0.290  15.958 -0.3648 -0.7308 -0.1380
 7170SOL    HW133389   2.352   0.378  15.997 -1.4873  0.1745 -2.2535
 7170SOL    HW233390   2.372   0.305  15.866 -0.7698 -2.7169 -0.5308
 7171SOL     OW33391   2.003   1.668   4.243  0.4072  0.5374 -0.0687
 7171SOL    HW133392   2.092   1.664   4.278  0.3153 -2.1596 -0.1366
 7171SOL    HW233393   2.013   1.649   4.150 -0.3948 -1.2856  0.2050
 7172SOL     OW33394   1.396   0.499   2.649 -0.0179  0.2542  0.8558
 7172SOL    HW133395   1.454   0.469   2.579  0.1047 -2.7498  2.1991
 7172SOL    HW233396   1.313   0.516   2.606 -0.3937 -3.1158  0.2242
 7173SOL     OW33397   0.596   2.819   2.396 -0.8068 -0.2038  0.8489
 7173SOL    HW133398   0.631   2.831   2.484 -2.1943 -0.1905  1.4044
 7173SOL    HW233399   0.591   2.908   2.360  2.8530 -0.5407 -0.4345
 7174SOL     OW33400   3.496   4.371  17.510  0.2739 -0.4348 -0.3438
 7174SOL    HW133401   3.407   4.349  17.538  0.0919  2.2013  1.2392
 7174SOL    HW233402   3.552   4.327  17.574  0.0719 -1.7662 -1.1000
 7175SOL     OW33403   2.717   0.597  16.497 -0.5901 -0.3214  0.2332
 7175SOL    HW133404   2.700   0.681  16.453  0.2013  0.2564  1.0410
 7175SOL    HW233405   2.736   0.537  16.425  0.0341  0.4735 -0.2730
 7176SOL     OW33406   2.035   0.134   8.792  0.2284  0.5566  0.6841
 7176SOL    HW133407   2.085   0.197   8.844  2.3995 -0.8739  0.3293
 7176SOL    HW233408   2.064   0.149   8.702  0.4738 -0.6879  0.5545
 7177SOL     OW33409   4.398   1.959   0.229 -0.3686  0.2592 -0.5358
 7177SOL    HW133410   4.455   1.883   0.238 -0.4365  0.0018 -2.1582
 7177SOL    HW233411   4.418   1.993   0.142 -0.6086  1.8707  0.0481
 7178SOL     OW33412   0.917   3.389   6.384  0.2062 -0.0522 -0.3014
 7178SOL    HW133413   0.857   3.459   6.410  0.0581  0.3677 -1.7511
 7178SOL    HW233414   0.997   3.407   6.434 -0.5578 -0.0760  0.9279
 7179SOL     OW33415   2.114   3.337   0.356 -0.1856 -0.0489  0.6294
 7179SOL    HW133416   2.117   3.427   0.389  1.0173 -0.1827  0.9043
 7179SOL    HW233417   2.115   3.346   0.261  0.5440  0.2195  0.6580
 7180SOL     OW33418   2.991   1.335  18.409  0.1701  0.0330  0.1250
 7180SOL    HW133419   3.007   1.392  18.333  1.8526 -1.4359 -0.6161
 7180SOL    HW233420   2.917   1.375  18.453  1.2720  2.7727 -0.4809
 7181SOL     OW33421   4.330   3.075  20.238 -0.7099 -0.0511  0.3079
 7181SOL    HW133422   4.244   3.037  20.218 -0.4824 -0.5807  0.3231
 7181SOL    HW233423   4.368   3.093  20.152 -1.0777  0.7317  0.3098
 7182SOL     OW33424   4.525   3.217   0.138 -0.1242 -0.2419  0.3285
 7182SOL    HW133425   4.495   3.259   0.218 -0.6586  0.2937 -0.1485
 7182SOL    HW233426   4.447   3.213   0.082  0.6785  1.1414 -0.9078
 7183SOL     OW33427   0.827   4.032   6.246 -0.0006  0.0481 -0.5367
 7183SOL    HW133428   0.798   4.070   6.164 -0.2992 -0.3838 -0.6318
 7183SOL    HW233429   0.851   3.941   6.224 -0.9263 -0.3322  0.0253
 7184SOL     OW33430   1.901   4.325  20.149  0.8913  0.0531  0.0461
 7184SOL    HW133431   1.899   4.273  20.069  0.1504 -0.4533  0.3918
 7184SOL    HW233432   1.908   4.416  20.119  1.8579 -0.2273 -0.5650
 7185SOL     OW33433   3.167   2.956  17.397 -0.0178 -0.3438  0.5081
 7185SOL    HW133434   3.120   2.873  17.395 -0.2232 -0.2069 -0.3448
 7185SOL    HW233435   3.259   2.931  17.399 -0.0870 -0.5986  0.5136
 7186SOL     OW33436   4.462   4.609   2.776  0.1584  0.1033 -0.0148
 7186SOL    HW133437   4.541   4.612   2.722 -0.2243 -0.6054 -0.6238
 7186SOL    HW233438   4.488   4.561   2.854 -0.1774 -1.8314 -1.0782
 7187SOL     OW33439   3.701   1.857  13.906 -0.0801  0.1613 -0.0065
 7187SOL    HW133440   3.653   1.845  13.988  0.9956  0.1368  0.6248
 7187SOL    HW233441   3.751   1.775  13.896 -0.5122  0.0047 -0.8827
 7188SOL     OW33442   2.821   4.500  18.448 -0.0610  0.0951 -0.0788
 7188SOL    HW133443   2.738   4.510  18.401  0.0211  0.4713 -0.1428
 7188SOL    HW233444   2.823   4.408  18.473  0.8248 -0.5738 -2.5731
 7189SOL     OW33445   1.464   1.241   4.539  0.2471  0.0920 -0.5767
 7189SOL    HW133446   1.439   1.231   4.631  0.9532  0.4754 -0.3479
 7189SOL    HW233447   1.486   1.152   4.510 -2.2243 -0.3803 -1.0125
 7190SOL     OW33448   2.177   1.892   2.602 -0.6598  0.4249 -0.0807
 7190SOL    HW133449   2.210   1.976   2.635  2.6789 -1.5651  1.6626
 7190SOL    HW233450   2.083   1.894   2.621  0.0835  2.1792  3.4361
 7191SOL     OW33451   3.756   1.700  12.364  0.1335 -0.6872 -0.1812
 7191SOL    HW133452   3.743   1.621  12.417  1.0406 -1.1645 -0.6807
 7191SOL    HW233453   3.670   1.742  12.364  0.0936 -0.7408  1.5792
 7192SOL     OW33454   1.231   4.755  13.541  0.0028  0.0613  0.1309
 7192SOL    HW133455   1.269   0.053  13.589 -1.2373  1.7590 -1.5546
 7192SOL    HW233456   1.300   4.728  13.481  0.5501 -0.3143  0.9271
 7193SOL     OW33457   1.910   2.292   8.366 -0.2511  0.5554 -0.0643
 7193SOL    HW133458   1.934   2.329   8.282  1.5009 -2.2372 -0.8060
 7193SOL    HW233459   1.970   2.332   8.429 -0.2768  1.1550 -0.4287
 7194SOL     OW33460   2.096   3.859   9.673  0.0548 -0.1294  0.3008
 7194SOL    HW133461   2.179   3.898   9.701  0.9337 -2.5515  1.0686
 7194SOL    HW233462   2.070   3.803   9.746 -0.8151 -1.5920 -1.1468
 7195SOL     OW33463   0.325   3.617   5.877  0.0874  0.2823  0.2556
 7195SOL    HW133464   0.255   3.674   5.846 -0.2768 -1.0069 -1.2962
 7195SOL    HW233465   0.395   3.628   5.812 -0.6308 -2.3159 -0.9689
 7196SOL     OW33466   1.474   3.716   3.603 -0.2256  0.0408 -0.3746
 7196SOL    HW133467   1.429   3.792   3.565  0.3935  1.6332  2.0223
 7196SOL    HW233468   1.565   3.743   3.611  0.0761 -1.0980  0.0864
 7197SOL     OW33469   3.042   4.149  19.766 -0.3664 -0.2672 -0.3028
 7197SOL    HW133470   2.957   4.106  19.777 -0.9114  1.4845  2.4340
 7197SOL    HW233471   3.054   4.200  19.847  2.2921  1.1906 -1.5991
 7198SOL     OW33472   0.518   2.235   9.060  0.2080 -0.1322 -0.1755
 7198SOL    HW133473   0.539   2.178   8.987 -2.8186 -1.2003 -0.2303
 7198SOL    HW233474   0.583   2.215   9.127  2.6697  0.4949 -2.3823
 7199SOL     OW33475   2.837   3.738  17.712  0.5192  0.2176 -0.1095
 7199SOL    HW133476   2.915   3.794  17.709  0.3769  0.3398 -1.4920
 7199SOL    HW233477   2.768   3.792  17.673  0.3333 -0.8510 -1.2505
 7200SOL     OW33478   2.440   2.176   4.265  0.1995  0.5369  0.0225
 7200SOL    HW133479   2.462   2.237   4.336  0.7353 -1.1646  1.3334
 7200SOL    HW233480   2.455   2.225   4.185  0.3490  2.2243  1.0919
 7201SOL     OW33481   4.689   1.119  18.363  0.2656  0.1221 -0.2285
 7201SOL    HW133482   4.594   1.120  18.376 -0.1198  1.5426 -3.2379
 7201SOL    HW233483   4.710   1.026  18.353 -0.9381 -0.1400 -0.3879
 7202SOL     OW33484   4.627   4.633  17.199 -0.6748  0.3561  0.4892
 7202SOL    HW133485   4.661   4.721  17.184  0.9709 -0.3161  0.3401
 7202SOL    HW233486   4.570   4.642  17.275  0.3089  1.3301  1.1063
 7203SOL     OW33487   4.659   0.843  16.737  0.1902 -0.0871  0.1206
 7203SOL    HW133488   4.649   0.835  16.831  1.5434 -0.0592  0.2646
 7203SOL    HW233489   4.641   0.935  16.718 -1.9143 -0.5094  0.1310
 7204SOL     OW33490   4.243   2.455   8.570  0.2189 -0.1163  0.6595
 7204SOL    HW133491   4.289   2.371   8.577  0.9794  0.1922 -0.7105
 7204SOL    HW233492   4.156   2.438   8.607  0.6362 -1.3008  1.0929
 7205SOL     OW33493   2.011   0.897   1.511  0.0516  0.7766 -0.6206
 7205SOL    HW133494   1.967   0.868   1.432  0.4232  2.0030 -1.2876
 7205SOL    HW233495   1.967   0.979   1.534  1.6603  1.7413 -1.0079
 7206SOL     OW33496   2.243   4.705  12.772  0.4629 -0.0431  0.2563
 7206SOL    HW133497   2.293   0.000  12.731  0.0012 -0.3449 -0.8179
 7206SOL    HW233498   2.195   4.748  12.842  3.1558  0.0560  2.0626
 7207SOL     OW33499   0.373   3.534   1.581 -0.0342 -0.0656 -0.6610
 7207SOL    HW133500   0.328   3.478   1.518 -0.3391  0.4111 -0.8712
 7207SOL    HW233501   0.401   3.475   1.651 -0.7659 -0.4012 -0.6549
 7208SOL     OW33502   2.628   2.805  18.246  0.3204 -0.2750 -0.2608
 7208SOL    HW133503   2.659   2.720  18.278 -2.3814 -0.4929  1.7470
 7208SOL    HW233504   2.580   2.785  18.166 -2.4741 -0.9357  1.5568
 7209SOL     OW33505   1.568   1.232   2.613 -0.2538 -0.4736 -0.3233
 7209SOL    HW133506   1.616   1.240   2.695  0.3329  0.6458 -0.7789
 7209SOL    HW233507   1.539   1.141   2.611  0.9893 -0.8760  0.4237
 7210SOL     OW33508   4.228   0.860  10.948  0.0278  0.3820  0.5926
 7210SOL    HW133509   4.312   0.869  10.994 -0.8763 -1.1446  2.5533
 7210SOL    HW233510   4.237   0.779  10.898  0.3374  1.0933 -0.5053
 7211SOL     OW33511   4.142   1.870   4.054 -0.2641 -0.1811  0.0075
 7211SOL    HW133512   4.079   1.941   4.041 -0.0189  0.5173  2.6378
 7211SOL    HW233513   4.173   1.881   4.144  1.2083 -2.4617 -0.2069
 7212SOL     OW33514   4.584   4.550  12.663 -0.2374  0.1027 -0.1493
 7212SOL    HW133515   4.531   4.501  12.600 -0.0719  1.7434 -1.5643
 7212SOL    HW233516   4.544   4.636  12.667  1.3535  0.8467 -0.0043
 7213SOL     OW33517   3.850   1.370   2.649  0.5189 -0.3080 -0.6898
 7213SOL    HW133518   3.898   1.442   2.608  0.8681  0.5370  1.2070
 7213SOL    HW233519   3.859   1.297   2.588  4.1293 -0.1081 -0.3907
 7214SOL     OW33520   4.217   2.472  15.853 -0.0395 -0.1156 -0.4202
 7214SOL    HW133521   4.176   2.469  15.939 -1.9030  0.3562 -1.3073
 7214SOL    HW233522   4.187   2.554  15.815  0.2921 -0.6294 -1.7726
 7215SOL     OW33523   4.153   3.684  16.261 -0.0735 -0.1023 -0.6922
 7215SOL    HW133524   4.241   3.654  16.285  0.1777  0.4517 -0.9159
 7215SOL    HW233525   4.104   3.603  16.246  0.0238 -0.4261  0.7746
 7216SOL     OW33526   1.391   4.523   3.720  0.1875 -0.3725  0.5043
 7216SOL    HW133527   1.344   4.580   3.660  0.3628  0.3910  1.0889
 7216SOL    HW233528   1.330   4.451   3.738 -0.4089  0.1479  0.5435
 7217SOL     OW33529   0.501   2.494  20.531 -0.4445  0.8911 -0.6896
 7217SOL    HW133530   0.565   2.427  20.508  0.0257  1.5658 -1.3850
 7217SOL    HW233531   0.416   2.453  20.518 -0.1633  0.8435 -2.3577
 7218SOL     OW33532   2.940   3.897   3.035 -0.0936  0.1700  0.5005
 7218SOL    HW133533   3.024   3.937   3.058 -0.3525  0.3538  1.1116
 7218SOL    HW233534   2.956   3.857   2.949  0.5890  0.2965  0.5666
 7219SOL     OW33535   0.004   0.217  19.837  0.6049  0.0794  0.0909
 7219SOL    HW133536   4.698   0.256  19.807 -1.0140 -2.8151  0.8300
 7219SOL    HW233537   0.043   0.180  19.758  0.2874 -0.2843  0.1089
 7220SOL     OW33538   1.442   2.063   0.907  0.5022  0.4806 -0.4602
 7220SOL    HW133539   1.447   2.141   0.962  1.6648  0.9165 -1.2063
 7220SOL    HW233540   1.472   1.992   0.964 -0.7234  0.5459  0.2714
 7221SOL     OW33541   4.452   3.955  11.997  0.0207  0.0761 -0.1139
 7221SOL    HW133542   4.505   3.906  12.059  0.1184  1.5975  1.0124
 7221SOL    HW233543   4.474   4.047  12.014 -0.9506  0.5660 -1.4812
 7222SOL     OW33544   2.232   4.062  18.696  0.1906  0.0287 -0.0570
 7222SOL    HW133545   2.250   4.062  18.602 -0.6956 -1.9506 -0.2357
 7222SOL    HW233546   2.314   4.032  18.736 -0.4366 -2.2323 -0.4226
 7223SOL     OW33547   2.773   4.290   4.069  0.1687  0.1569 -0.0685
 7223SOL    HW133548   2.834   4.317   4.138  1.0057  0.3216 -0.8790
 7223SOL    HW233549   2.725   4.369   4.048 -0.4418 -0.0081  0.6803
 7224SOL     OW33550   4.138   4.036   4.518 -0.3253 -0.1554 -0.6403
 7224SOL    HW133551   4.141   3.948   4.482  0.0332 -0.0269 -0.9217
 7224SOL    HW233552   4.095   4.089   4.451  0.5180  0.1222 -0.9569
 7225SOL     OW33553   1.573   0.186   0.198  0.2609 -0.1330 -1.1842
 7225SOL    HW133554   1.591   0.249   0.268 -1.4331 -1.9204  0.8608
 7225SOL    HW233555   1.575   0.238   0.118  3.5489  1.6896  0.0674
 7226SOL     OW33556   3.826   2.114  19.598 -0.1830 -0.2342  0.5245
 7226SOL    HW133557   3.772   2.110  19.519 -0.3796 -0.4755  0.6714
 7226SOL    HW233558   3.773   2.072  19.666  0.1567 -0.4084  0.6856
 7227SOL     OW33559   1.451   3.275  16.008 -0.2190  0.0917  0.0596
 7227SOL    HW133560   1.388   3.207  15.985 -0.4017  0.5866 -0.9136
 7227SOL    HW233561   1.428   3.349  15.951  3.6055 -1.0078 -2.8872
 7228SOL     OW33562   2.349   3.795  15.205 -0.1915 -0.3667  0.4404
 7228SOL    HW133563   2.389   3.747  15.133 -2.4944 -0.2202 -0.9558
 7228SOL    HW233564   2.420   3.848  15.241  1.4648 -2.0246 -0.3731
 7229SOL     OW33565   3.242   0.368  12.889  0.2535  0.7233  0.5553
 7229SOL    HW133566   3.167   0.420  12.917 -1.5038 -0.7085 -1.4900
 7229SOL    HW233567   3.216   0.277  12.904  2.0127  0.2800  0.9094
 7230SOL     OW33568   1.816   1.058  15.475  0.1995  0.1741  0.0804
 7230SOL    HW133569   1.846   0.968  15.457  0.7824  0.4224 -0.1934
 7230SOL    HW233570   1.768   1.083  15.396  1.0988  0.5527 -0.3561
 7231SOL     OW33571   2.448   0.532  12.608  0.3252 -0.1823  0.4858
 7231SOL    HW133572   2.404   0.455  12.644 -0.8085  0.4738  0.5048
 7231SOL    HW233573   2.465   0.510  12.516  1.4627 -1.0907  0.9147
 7232SOL     OW33574   4.127   1.929  16.125  0.0923 -0.6020 -0.7891
 7232SOL    HW133575   4.037   1.901  16.144  0.4443 -1.7682 -0.8173
 7232SOL    HW233576   4.133   1.928  16.030 -0.7418  2.2821 -0.8777
 7233SOL     OW33577   3.284   0.707   7.877 -0.2554  0.4701  0.0484
 7233SOL    HW133578   3.356   0.768   7.892  0.2846 -0.0761 -0.3569
 7233SOL    HW233579   3.250   0.688   7.964 -0.0952  0.9445  0.2153
 7234SOL     OW33580   1.005   0.630   0.461  0.5014  0.4114  0.3133
 7234SOL    HW133581   1.058   0.564   0.506 -1.4204  0.6390  2.9083
 7234SOL    HW233582   1.001   0.600   0.371  1.6313 -1.7657  0.9908
 7235SOL     OW33583   3.690   2.074   2.801 -0.1036 -0.5397  0.3565
 7235SOL    HW133584   3.615   2.114   2.845 -0.4421 -0.7759 -0.0098
 7235SOL    HW233585   3.710   1.996   2.852  0.7243  0.2480  1.2285
 7236SOL     OW33586   1.213   1.626   5.420 -0.0599 -0.1755  0.1791
 7236SOL    HW133587   1.231   1.534   5.399 -2.1957 -0.0677 -2.2036
 7236SOL    HW233588   1.299   1.664   5.441  0.6641 -2.9932  2.2524
 7237SOL     OW33589   0.745   0.369  18.562 -0.3634  0.7174  0.0556
 7237SOL    HW133590   0.668   0.313  18.555 -0.1260  0.5605 -1.3020
 7237SOL    HW233591   0.820   0.309  18.563 -0.0730  1.0139 -2.0121
 7238SOL     OW33592   2.254   4.102  18.407  0.1694  0.8452 -0.8499
 7238SOL    HW133593   2.188   4.035  18.388  0.1979  0.6653 -0.3270
 7238SOL    HW233594   2.235   4.172  18.346 -0.2179  0.5945 -1.0217
 7239SOL     OW33595   1.822   1.029  17.065 -0.1242 -0.2107  0.7926
 7239SOL    HW133596   1.796   1.023  16.973  0.5553 -0.5103  0.6183
 7239SOL    HW233597   1.903   1.079  17.063 -0.9539  1.1650  1.3890
 7240SOL     OW33598   0.135   4.065  19.697  0.4160 -0.3559  0.1203
 7240SOL    HW133599   0.230   4.058  19.692  0.3801 -0.0722 -0.8861
 7240SOL    HW233600   0.107   3.985  19.742  1.1699 -0.1988  0.8853
 7241SOL     OW33601   4.384   2.858   5.866 -0.6065 -0.6929 -0.6546
 7241SOL    HW133602   4.405   2.816   5.950 -0.4346 -1.0474 -0.8731
 7241SOL    HW233603   4.355   2.786   5.810  1.0543 -0.7380 -1.4792
 7242SOL     OW33604   1.331   0.843   7.367  0.3091  0.1107 -0.6306
 7242SOL    HW133605   1.308   0.762   7.322  0.4598 -0.2004 -0.1460
 7242SOL    HW233606   1.303   0.912   7.307  0.4866 -0.3021 -1.1967
 7243SOL     OW33607   2.354   2.756   1.509  0.0524  0.6875 -0.0504
 7243SOL    HW133608   2.325   2.785   1.595  1.6987  1.5924  0.1804
 7243SOL    HW233609   2.292   2.796   1.448 -2.8068 -2.2030  0.9096
 7244SOL     OW33610   0.553   0.937  19.285  0.5061  0.2725  0.1096
 7244SOL    HW133611   0.516   0.849  19.287  1.4032 -0.1009  0.1200
 7244SOL    HW233612   0.486   0.992  19.328 -0.5524 -0.2010 -0.9552
 7245SOL     OW33613   3.744   2.198   3.112  0.0106 -0.3328 -0.3360
 7245SOL    HW133614   3.802   2.255   3.163  0.4908 -1.1008 -0.0313
 7245SOL    HW233615   3.792   2.116   3.103 -1.0075 -0.9454 -0.1457
 7246SOL     OW33616   0.626   0.562   4.498  0.1424 -0.2791  0.2435
 7246SOL    HW133617   0.689   0.588   4.431 -2.2301  3.0552 -0.6981
 7246SOL    HW233618   0.592   0.478   4.467  3.1605 -1.4525  0.1056
 7247SOL     OW33619   0.462   4.261   1.069 -0.0501  0.2749 -0.2946
 7247SOL    HW133620   0.468   4.276   0.974  0.3590  1.5971 -0.0623
 7247SOL    HW233621   0.415   4.338   1.102 -0.6271 -0.4320  0.5067
 7248SOL     OW33622   2.077   4.669  20.321  0.3112  0.2032 -0.7357
 7248SOL    HW133623   2.136   4.603  20.356 -0.3671  0.2254  0.4391
 7248SOL    HW233624   2.041   4.629  20.242 -0.2816 -0.9131  0.1022
 7249SOL     OW33625   3.664   2.430  20.375  0.1874  0.0877  0.4026
 7249SOL    HW133626   3.647   2.467  20.289 -0.1086 -0.3778  0.2594
 7249SOL    HW233627   3.622   2.344  20.373  2.6014 -1.0680  0.0443
 7250SOL     OW33628   3.496   2.315  19.439  0.0237  0.0958 -0.2937
 7250SOL    HW133629   3.482   2.224  19.412 -2.3462  0.5581 -0.6034
 7250SOL    HW233630   3.484   2.365  19.358  3.0060  0.5087 -0.4581
 7251SOL     OW33631   2.867   3.564  20.572  0.2458 -0.0561  0.2580
 7251SOL    HW133632   2.814   3.485  20.579  0.9361 -0.5746 -0.3801
 7251SOL    HW233633   2.810   3.628  20.531  0.0274 -0.5391 -0.1940
 7252SOL     OW33634   4.710   4.128   4.960 -0.3804 -0.2023  0.0478
 7252SOL    HW133635   4.666   4.106   4.878 -0.8216 -1.2100  0.5591
 7252SOL    HW233636   4.685   4.058   5.020 -1.0509  1.1928  1.3945
 7253SOL     OW33637   0.109   4.704   0.425 -0.2753 -0.0777 -0.4460
 7253SOL    HW133638   0.173   4.649   0.381 -2.0589 -1.7115 -1.0073
 7253SOL    HW233639   0.089   4.773   0.362  0.3423 -0.0188 -0.5737
 7254SOL     OW33640   4.453   3.713   4.649  0.4300 -0.5151  0.3028
 7254SOL    HW133641   4.499   3.657   4.587  1.6806 -1.2150  1.8613
 7254SOL    HW233642   4.442   3.796   4.602  1.6552 -0.9345 -0.7455
 7255SOL     OW33643   1.887   2.747  12.111  0.1180 -0.2460  0.1358
 7255SOL    HW133644   1.959   2.732  12.049 -0.3343 -2.7837  0.2230
 7255SOL    HW233645   1.902   2.683  12.181 -1.5234  0.0580  0.7661
 7256SOL     OW33646   3.074   2.018   4.486  0.0583 -0.4283 -0.2907
 7256SOL    HW133647   2.986   1.979   4.489 -0.5198  0.7645 -1.4388
 7256SOL    HW233648   3.133   1.948   4.512 -1.0116 -1.9704 -2.0268
 7257SOL     OW33649   4.144   0.373   1.028  0.3033 -0.7747 -0.2813
 7257SOL    HW133650   4.079   0.344   0.964  0.0220  2.0493 -1.2936
 7257SOL    HW233651   4.105   0.353   1.113 -1.7511  0.6245 -0.8958
 7258SOL     OW33652   0.015   1.451   1.122 -0.1111  0.3372 -0.3232
 7258SOL    HW133653   0.019   1.460   1.217 -0.9771  1.6544 -0.4138
 7258SOL    HW233654   0.018   1.541   1.089 -2.6150  0.0160 -1.4467
 7259SOL     OW33655   2.895   2.035  15.545  0.3800  0.1603 -0.1714
 7259SOL    HW133656   2.812   2.017  15.501 -0.3874  0.9916  0.9602
 7259SOL    HW233657   2.923   2.119  15.508  0.9027 -0.2986 -0.8253
 7260SOL     OW33658   0.876   3.706   1.757  0.9410  0.0449  0.5560
 7260SOL    HW133659   0.852   3.799   1.756 -1.6541 -0.6343 -1.3409
 7260SOL    HW233660   0.817   3.667   1.822  0.3626 -0.7013 -0.4106
 7261SOL     OW33661   2.696   1.642   0.399 -0.6711 -0.2939  0.7695
 7261SOL    HW133662   2.779   1.680   0.426 -0.1001 -1.1571  0.2079
 7261SOL    HW233663   2.683   1.675   0.310 -0.0340 -1.6606  0.1729
 7262SOL     OW33664   2.413   2.793  13.910  0.3346  0.5781 -0.2580
 7262SOL    HW133665   2.464   2.812  13.831 -0.0222 -0.1582 -0.6584
 7262SOL    HW233666   2.354   2.868  13.918  0.3789  0.6600 -0.6849
 7263SOL     OW33667   2.924   1.550   2.686  0.1647 -0.4239  0.2834
 7263SOL    HW133668   3.004   1.508   2.716  0.1008 -1.3053 -0.7753
 7263SOL    HW233669   2.952   1.613   2.621  0.0173 -0.5856  0.0629
 7264SOL     OW33670   4.673   4.167  15.422 -0.6941  0.0719 -0.1849
 7264SOL    HW133671   4.674   4.129  15.510  0.6535  0.6795  0.0531
 7264SOL    HW233672   4.747   4.127  15.377 -0.4628  0.9233 -0.5655
 7265SOL     OW33673   3.837   4.318   5.478  0.0939 -0.3088  0.3681
 7265SOL    HW133674   3.911   4.330   5.538 -0.1655  0.9503  0.4470
 7265SOL    HW233675   3.845   4.228   5.446 -0.3196 -1.2904  3.0366
 7266SOL     OW33676   2.088   0.378   4.402  0.5600  0.2703  0.1184
 7266SOL    HW133677   2.016   0.405   4.344  0.7024  2.2374  0.8588
 7266SOL    HW233678   2.167   0.405   4.355  0.7391  0.3409  0.4644
 7267SOL     OW33679   0.658   4.168   0.688 -0.2505 -0.0401 -0.0182
 7267SOL    HW133680   0.684   4.086   0.729 -0.6882 -1.0477 -1.7425
 7267SOL    HW233681   0.731   4.228   0.705  0.0094 -0.7551  1.3470
 7268SOL     OW33682   1.117   2.880  19.414 -0.5482 -0.4034  0.0844
 7268SOL    HW133683   1.036   2.887  19.465 -0.5597 -0.3814  0.0628
 7268SOL    HW233684   1.097   2.924  19.331 -0.2488  0.3087  0.3915
 7269SOL     OW33685   0.305   3.740   2.710 -0.0934  0.3706  0.2840
 7269SOL    HW133686   0.266   3.693   2.784 -0.0406  1.8075  1.2454
 7269SOL    HW233687   0.338   3.672   2.652  1.3257 -0.7356  2.3809
 7270SOL     OW33688   1.494   1.900  14.087 -0.4224  0.0054 -0.2187
 7270SOL    HW133689   1.399   1.898  14.101 -0.5385 -0.2896 -1.0588
 7270SOL    HW233690   1.530   1.858  14.165 -1.0468 -1.1097 -0.5259
 7271SOL     OW33691   2.790   3.312  15.636 -0.0836 -0.7951 -0.1714
 7271SOL    HW133692   2.819   3.355  15.555 -0.0575 -0.9928 -0.2658
 7271SOL    HW233693   2.758   3.384  15.691  2.2162 -0.3762  0.6307
 7272SOL     OW33694   1.638   0.513  15.089  0.2783  0.1193  0.3886
 7272SOL    HW133695   1.599   0.505  15.002 -0.0978 -1.2554  0.6977
 7272SOL    HW233696   1.659   0.424  15.115  0.7868  0.5723  1.5355
 7273SOL     OW33697   3.565   3.804   6.519  0.0615  0.2934  0.1088
 7273SOL    HW133698   3.547   3.815   6.612  0.9610  0.1288  0.3029
 7273SOL    HW233699   3.583   3.711   6.508  0.6552  0.4356 -0.1113
 7274SOL     OW33700   4.653   0.514  15.839  0.3276  0.1623 -0.3369
 7274SOL    HW133701   4.589   0.443  15.831 -0.2002  0.6276 -0.2299
 7274SOL    HW233702   4.734   0.476  15.806  0.4506 -1.0456  1.3106
 7275SOL     OW33703   1.161   2.306  20.980  0.4589 -0.5825  0.5607
 7275SOL    HW133704   1.204   2.222  20.962  0.7650 -0.4666  0.7578
 7275SOL    HW233705   1.127   2.297  21.069  0.6926 -0.4101  0.6660
 7276SOL     OW33706   0.721   4.504  19.792  0.3068 -0.1823  0.1156
 7276SOL    HW133707   0.771   4.459  19.724 -0.0614 -1.1323  0.4788
 7276SOL    HW233708   0.728   4.448  19.869 -1.3407 -0.3284  0.1570
 7277SOL     OW33709   3.974   4.748   4.163 -0.2457 -0.3183 -0.2243
 7277SOL    HW133710   3.991   4.667   4.212 -1.1379  0.3151  1.1096
 7277SOL    HW233711   3.880   4.763   4.172 -0.2427  0.3473 -1.2855
 7278SOL     OW33712   4.511   3.273  20.891  0.3307 -0.3378 -0.2716
 7278SOL    HW133713   4.590   3.221  20.906  1.0847  0.3766 -1.6962
 7278SOL    HW233714   4.531   3.359  20.929 -0.7421 -0.9600  1.6797
 7279SOL     OW33715   2.000   4.636   7.358  0.6216  0.1965  0.2181
 7279SOL    HW133716   2.005   4.548   7.322  2.1099  0.0084  0.8692
 7279SOL    HW233717   1.943   4.627   7.434 -1.6964  0.3986 -1.5106
 7280SOL     OW33718   4.682   4.354   0.953 -0.1568 -0.2951 -0.3416
 7280SOL    HW133719   4.617   4.369   0.885  0.7018 -1.4347 -1.3964
 7280SOL    HW233720   4.741   4.430   0.947  0.4513 -0.8683 -1.4525
 7281SOL     OW33721   3.800   3.649  16.849  0.3920 -0.2812  0.4244
 7281SOL    HW133722   3.706   3.663  16.833  0.3165 -2.0943 -0.6972
 7281SOL    HW233723   3.842   3.729  16.816 -0.6897  0.2395  0.3067
 7282SOL     OW33724   4.631   2.633   1.047 -0.3772  0.6684 -0.5783
 7282SOL    HW133725   4.725   2.647   1.058 -0.4765 -0.4088  1.4880
 7282SOL    HW233726   4.620   2.615   0.953  1.4408  1.0350 -0.8519
 7283SOL     OW33727   3.523   0.985   4.532  0.2175 -0.6912 -0.1553
 7283SOL    HW133728   3.471   0.906   4.517  0.4480 -0.9506  0.4232
 7283SOL    HW233729   3.458   1.052   4.556  0.1700 -1.0677  0.7775
 7284SOL     OW33730   0.183   4.625   6.622  0.4236  0.0052  0.2596
 7284SOL    HW133731   0.103   4.638   6.673  0.1083 -0.7843 -0.0219
 7284SOL    HW233732   0.248   4.679   6.665 -0.3888  1.0242  0.2052
 7285SOL     OW33733   4.768   4.097  20.741  0.1982 -0.0266  0.4515
 7285SOL    HW133734   0.018   4.151  20.816  0.3066 -0.1197  0.4808
 7285SOL    HW233735   4.672   4.091  20.748  0.3707 -1.3651  1.4805
 7286SOL     OW33736   2.762   4.640  10.501 -0.0822 -0.1717 -0.4950
 7286SOL    HW133737   2.847   4.619  10.461  0.8034  1.3094  0.5966
 7286SOL    HW233738   2.753   4.734  10.489 -0.8266 -0.0771  0.8256
 7287SOL     OW33739   4.181   1.709  20.444  0.0584 -0.7632  0.2770
 7287SOL    HW133740   4.131   1.782  20.481 -0.9302 -1.1504 -0.2833
 7287SOL    HW233741   4.270   1.722  20.475 -0.3461  0.0837  1.0696
 7288SOL     OW33742   0.831   2.123  18.967 -0.3099  0.6842  0.2003
 7288SOL    HW133743   0.831   2.117  19.062 -0.1966  0.3137  0.1796
 7288SOL    HW233744   0.874   2.206  18.947 -0.7008  0.9509  0.4819
 7289SOL     OW33745   2.784   2.159   1.738 -0.5278  0.6742 -0.5796
 7289SOL    HW133746   2.736   2.078   1.751 -0.9827  0.9290 -0.6528
 7289SOL    HW233747   2.864   2.149   1.790 -1.3146  0.8170  0.6438
 7290SOL     OW33748   3.874   3.005   7.049 -0.3451 -0.2730 -0.0293
 7290SOL    HW133749   3.970   2.996   7.053 -0.3331 -0.3116 -0.3650
 7290SOL    HW233750   3.848   3.022   7.139 -0.2105 -2.2247  0.3812
 7291SOL     OW33751   4.428   1.749  20.566  0.5421 -0.6582 -0.8326
 7291SOL    HW133752   4.435   1.844  20.552  0.2778 -0.2820  1.5179
 7291SOL    HW233753   4.517   1.721  20.588 -0.0845 -0.3659  2.0493
 7292SOL     OW33754   2.090   3.860   3.167 -0.7709  0.0450  0.2203
 7292SOL    HW133755   2.124   3.948   3.184  0.8315 -0.7622  1.2981
 7292SOL    HW233756   2.165   3.812   3.132 -2.0672 -0.4441 -1.8269
 7293SOL     OW33757   1.330   2.328  16.102 -0.3845 -0.1287  0.0315
 7293SOL    HW133758   1.305   2.418  16.081 -0.6971 -0.3670 -0.5921
 7293SOL    HW233759   1.267   2.300  16.168  0.7858  0.7240  1.5190
 7294SOL     OW33760   2.526   0.488  12.334 -0.8676  0.1402 -0.3112
 7294SOL    HW133761   2.607   0.523  12.372 -0.8952  0.0549 -0.1727
 7294SOL    HW233762   2.555   0.441  12.256 -0.8456  0.5959 -0.5781
 7295SOL     OW33763   3.236   1.929   8.389  0.3118  0.4002 -0.2568
 7295SOL    HW133764   3.215   1.837   8.408  0.8750  0.3487  0.1307
 7295SOL    HW233765   3.320   1.943   8.434  0.8083  0.7697 -1.3132
 7296SOL     OW33766   0.013   3.409   3.040 -0.6399  0.0736  0.3760
 7296SOL    HW133767   0.090   3.374   2.996 -1.3214  0.7341 -1.3723
 7296SOL    HW233768   4.740   3.332   3.069 -0.7880 -0.3769 -1.0922
 7297SOL     OW33769   2.318   1.698   0.987  0.1574  0.4471  0.4388
 7297SOL    HW133770   2.335   1.607   1.010  0.0655  0.4593  0.5509
 7297SOL    HW233771   2.230   1.716   1.020 -0.0719  0.3885 -0.1371
 7298SOL     OW33772   4.532   1.223   1.487 -0.4366 -0.0902  0.4441
 7298SOL    HW133773   4.499   1.156   1.427  1.7077  0.2082 -1.0738
 7298SOL    HW233774   4.573   1.174   1.558  2.2749 -0.3578 -1.3138
 7299SOL     OW33775   2.343   0.926   1.772  0.7197 -0.1222 -0.5199
 7299SOL    HW133776   2.408   0.926   1.842  1.1224  1.8952 -0.8766
 7299SOL    HW233777   2.353   1.012   1.731 -1.2980 -0.3075 -1.3965
 7300SOL     OW33778   3.345   2.519  17.457 -0.5801 -0.0408  0.7689
 7300SOL    HW133779   3.409   2.588  17.435 -0.8817  0.5988  1.8643
 7300SOL    HW233780   3.398   2.441  17.471 -0.1772  0.1159  0.1114
 7301SOL     OW33781   2.531   2.326  12.963  0.4750 -0.1432 -0.0062
 7301SOL    HW133782   2.546   2.236  12.991 -0.4898 -0.4782 -0.5727
 7301SOL    HW233783   2.450   2.352  13.006 -0.3301 -0.2306 -1.4806
 7302SOL     OW33784   2.387   4.333   0.343  0.1849  0.6892 -0.3892
 7302SOL    HW133785   2.311   4.377   0.307 -0.4566 -0.6581 -0.6548
 7302SOL    HW233786   2.446   4.321   0.269  0.2130  0.7777 -0.3816
 7303SOL     OW33787   2.305   3.689  15.546  0.3711  0.4401 -0.1471
 7303SOL    HW133788   2.385   3.730  15.513 -0.9556  1.9941 -1.4308
 7303SOL    HW233789   2.235   3.751  15.524 -1.5698 -2.2931 -1.7579
 7304SOL     OW33790   0.526   3.779  14.986  0.7270 -0.1342  0.4743
 7304SOL    HW133791   0.539   3.852  15.046 -1.4570  1.0041 -0.4341
 7304SOL    HW233792   0.550   3.814  14.900 -0.6598 -0.3806 -0.0120
 7305SOL     OW33793   3.435   1.915   5.199  0.4502 -0.3115  0.5497
 7305SOL    HW133794   3.529   1.902   5.188  0.5125 -0.3217  1.0829
 7305SOL    HW233795   3.397   1.827   5.191  0.3794 -0.1720 -0.6989
 7306SOL     OW33796   4.393   1.189  17.829 -0.1912  0.2585 -0.2596
 7306SOL    HW133797   4.373   1.281  17.815  0.9098  0.9345  2.6253
 7306SOL    HW233798   4.328   1.160  17.893 -0.5366 -0.9659 -1.1570
 7307SOL     OW33799   1.771   1.861  12.226 -0.1435  0.1182  0.3449
 7307SOL    HW133800   1.770   1.939  12.280  1.2708  1.4298 -1.5379
 7307SOL    HW233801   1.772   1.893  12.136  0.2901 -2.0392 -0.4395
 7308SOL     OW33802   3.606   3.824  17.770  0.4132 -0.1116  0.3452
 7308SOL    HW133803   3.534   3.858  17.824  0.9538 -0.2082  1.1359
 7308SOL    HW233804   3.627   3.895  17.710  0.1958  0.2178  0.6563
 7309SOL     OW33805   2.748   3.533  19.519  0.5183  0.0805 -0.0831
 7309SOL    HW133806   2.661   3.540  19.478  0.5890 -0.4873 -0.3284
 7309SOL    HW233807   2.809   3.533  19.446  0.6750 -0.3815  0.0491
 7310SOL     OW33808   4.410   4.303   5.257 -0.0657 -0.4009 -0.8454
 7310SOL    HW133809   4.404   4.243   5.332 -3.8055  1.4141  0.3141
 7310SOL    HW233810   4.356   4.261   5.189 -1.3196  0.8259 -0.5995
 7311SOL     OW33811   2.010   1.391  11.900 -0.1065 -0.0577 -0.3193
 7311SOL    HW133812   1.953   1.350  11.835  0.5857 -0.5813 -0.5952
 7311SOL    HW233813   1.957   1.461  11.938 -1.2553 -1.1598  0.0919
 7312SOL     OW33814   3.742   1.210  20.151  0.2963  0.0619 -0.4951
 7312SOL    HW133815   3.680   1.143  20.124  0.8513 -0.6759  0.0636
 7312SOL    HW233816   3.788   1.235  20.071  0.7797 -0.9312 -0.5248
 7313SOL     OW33817   0.699   0.738  15.459 -0.6039 -0.2832  0.1976
 7313SOL    HW133818   0.669   0.825  15.433  0.4338 -0.2124 -0.7428
 7313SOL    HW233819   0.794   0.741  15.447 -0.3439 -0.9043  2.0205
 7314SOL     OW33820   4.757   4.048  17.263  0.5524  0.2352  0.2658
 7314SOL    HW133821   0.054   4.096  17.222  1.2506  0.1149  1.3674
 7314SOL    HW233822   4.745   4.091  17.347  0.1605 -0.5587  0.6112
 7315SOL     OW33823   2.871   0.358   3.380 -0.5221 -0.0601 -0.3864
 7315SOL    HW133824   2.865   0.420   3.452 -1.5523  0.0622 -0.5761
 7315SOL    HW233825   2.921   0.285   3.416 -0.4569  0.2950  0.2480
 7316SOL     OW33826   1.900   3.716  16.105 -0.0854  0.1954 -0.3724
 7316SOL    HW133827   1.858   3.797  16.076  1.0687  1.0998  0.4550
 7316SOL    HW233828   1.966   3.698  16.038 -0.1716  0.0963 -0.4286
 7317SOL     OW33829   2.762   1.802  13.324 -0.5569 -0.3996 -0.0678
 7317SOL    HW133830   2.816   1.742  13.273 -1.9774 -3.8439  2.4289
 7317SOL    HW233831   2.751   1.879  13.268  2.6025 -1.8318 -2.6447
 7318SOL     OW33832   3.104   2.876   5.538 -0.4818 -0.0100 -0.3865
 7318SOL    HW133833   3.114   2.798   5.483 -0.6451  0.2121 -0.7284
 7318SOL    HW233834   3.147   2.852   5.621 -2.1436 -1.1422  0.1693
 7319SOL     OW33835   2.751   1.033  11.212 -0.2222  0.0535 -0.7345
 7319SOL    HW133836   2.846   1.046  11.216 -0.1967 -0.2820 -0.1423
 7319SOL    HW233837   2.734   1.006  11.122  0.4664 -1.6342 -0.3450
 7320SOL     OW33838   4.316   4.444   3.175 -0.1961 -0.6277  0.0480
 7320SOL    HW133839   4.260   4.520   3.163 -0.2554 -0.5199  0.9951
 7320SOL    HW233840   4.314   4.428   3.270  0.4847 -1.2889 -0.0536
 7321SOL     OW33841   4.054   4.483  10.807 -0.1925  0.1477  0.3153
 7321SOL    HW133842   4.045   4.540  10.884 -0.4990  0.4842  0.0330
 7321SOL    HW233843   3.987   4.416  10.820 -0.0793  0.0653  0.4669
 7322SOL     OW33844   4.723   3.295  20.698  0.5155 -0.3684  0.3668
 7322SOL    HW133845   4.709   3.233  20.626 -0.2122  1.5375 -1.1190
 7322SOL    HW233846   0.042   3.299  20.709  0.6318 -0.3833 -0.6992
 7323SOL     OW33847   4.131   1.288   7.889  0.7442  0.0312 -0.2744
 7323SOL    HW133848   4.178   1.368   7.913 -0.1632  1.4341 -3.1764
 7323SOL    HW233849   4.041   1.304   7.918  0.2637  0.6183 -2.0664
 7324SOL     OW33850   2.143   1.392   8.764  0.1358  0.0137 -0.0705
 7324SOL    HW133851   2.098   1.325   8.713  1.1837 -0.7486  0.0059
 7324SOL    HW233852   2.112   1.475   8.728 -0.6380 -0.5168 -0.6195
 7325SOL     OW33853   3.987   0.379  20.036 -0.8966  0.1707  0.1557
 7325SOL    HW133854   4.018   0.465  20.065 -1.0912  0.2452  0.1415
 7325SOL    HW233855   3.999   0.322  20.112  0.5468 -0.1111 -0.2774
 7326SOL     OW33856   1.913   3.678  20.012 -0.4209  0.0308 -0.0242
 7326SOL    HW133857   1.888   3.593  19.976  0.9529 -0.1331 -0.6098
 7326SOL    HW233858   1.836   3.733  20.002 -0.0998 -0.0985 -2.9855
 7327SOL     OW33859   1.127   0.900   0.442 -0.2691  0.3276 -0.0858
 7327SOL    HW133860   1.043   0.867   0.475 -0.4574 -1.0528 -1.9789
 7327SOL    HW233861   1.103   0.969   0.380 -0.0411 -1.2836 -1.9644
 7328SOL     OW33862   2.570   1.670   1.629  0.1916  0.3698 -0.0931
 7328SOL    HW133863   2.559   1.630   1.543  3.1177 -0.5303 -0.0211
 7328SOL    HW233864   2.494   1.640   1.679  0.4586 -2.1104 -1.1843
 7329SOL     OW33865   3.101   1.079   3.344 -0.1623  0.0143 -0.3749
 7329SOL    HW133866   3.174   1.098   3.402 -0.4829  2.2344 -0.6802
 7329SOL    HW233867   3.057   1.164   3.334 -2.7403 -1.3060 -0.1995
 7330SOL     OW33868   1.734   3.852  20.736  0.2531  0.0819 -0.6049
 7330SOL    HW133869   1.730   3.761  20.707  0.7161  0.5429 -2.0728
 7330SOL    HW233870   1.759   3.902  20.659  1.1773  1.3235  0.4904
 7331SOL     OW33871   1.489   2.955  19.957 -0.0629  0.2405  0.0264
 7331SOL    HW133872   1.475   2.925  20.047 -0.7466  2.1474  0.5442
 7331SOL    HW233873   1.424   3.024  19.943  1.3694  1.3408 -1.2664
 7332SOL     OW33874   3.231   1.193  18.442  0.0380 -0.2039 -0.1583
 7332SOL    HW133875   3.155   1.250  18.450  1.0479  1.0687  0.2932
 7332SOL    HW233876   3.195   1.104  18.448 -1.6409  0.3656 -1.9135
 7333SOL     OW33877   3.833   2.500  18.352  0.1795 -0.5691 -0.0968
 7333SOL    HW133878   3.775   2.574  18.366  0.6303  0.1048 -1.7669
 7333SOL    HW233879   3.782   2.423  18.376 -0.0738  0.3337  2.2633
 7334SOL     OW33880   0.710   4.030  14.724 -0.1465  0.1435 -0.3379
 7334SOL    HW133881   0.763   3.994  14.653  1.7797  0.2706  1.0611
 7334SOL    HW233882   0.630   3.977  14.723  0.9773 -1.5412 -0.9134
 7335SOL     OW33883   4.223   4.604  18.057  0.0949  0.4749 -0.3693
 7335SOL    HW133884   4.252   4.513  18.069 -0.5728  0.2549 -0.4485
 7335SOL    HW233885   4.302   4.656  18.071  0.2239 -0.0459  0.8311
 7336SOL     OW33886   2.864   1.816   6.225  0.0070 -0.3632  0.2245
 7336SOL    HW133887   2.947   1.827   6.271 -0.0257 -0.3464  0.2802
 7336SOL    HW233888   2.879   1.746   6.162  0.9445  1.6579 -1.8103
 7337SOL     OW33889   1.179   2.285  12.634 -0.1147  0.0438 -0.0209
 7337SOL    HW133890   1.263   2.320  12.604 -0.3451  1.7011  1.2820
 7337SOL    HW233891   1.115   2.325  12.574 -0.3459  1.6156  1.2724
 7338SOL     OW33892   0.608   2.371  17.225 -0.1204 -0.1495 -0.0699
 7338SOL    HW133893   0.554   2.381  17.147  0.2542 -1.1590 -0.4586
 7338SOL    HW233894   0.546   2.370  17.297 -0.4072  1.7057 -0.2715
 7339SOL     OW33895   3.584   3.294  11.303  1.4068  0.1576  0.1657
 7339SOL    HW133896   3.557   3.255  11.386  2.3064  0.1027  0.4321
 7339SOL    HW233897   3.636   3.370  11.329  0.9356  0.6546 -0.3475
 7340SOL     OW33898   3.656   4.495  18.627 -0.2376  0.6295  0.0119
 7340SOL    HW133899   3.630   4.419  18.575 -0.6008  0.8518 -0.1347
 7340SOL    HW233900   3.750   4.484  18.640 -0.2547  0.2560 -0.1723
 7341SOL     OW33901   1.749   2.528   3.378 -0.2438 -0.1360  0.3029
 7341SOL    HW133902   1.713   2.485   3.456 -0.9410  0.5390  0.3649
 7341SOL    HW233903   1.675   2.532   3.317 -0.6841  2.6269  1.0025
 7342SOL     OW33904   3.555   0.905   5.665 -0.2538  0.2008  0.0875
 7342SOL    HW133905   3.618   0.975   5.649 -0.5576  0.7791  1.4417
 7342SOL    HW233906   3.471   0.941   5.637 -0.2306  0.0070 -0.2218
 7343SOL     OW33907   1.177   3.070  18.410  0.0695  0.1021 -0.2059
 7343SOL    HW133908   1.138   3.068  18.497  1.4919  1.1563  0.4720
 7343SOL    HW233909   1.112   3.113  18.355 -0.7699 -0.4357  0.3670
 7344SOL     OW33910   4.430   0.003  18.721 -0.0111  0.1650  0.0979
 7344SOL    HW133911   4.397   0.076  18.668  0.8133 -0.4750 -1.3070
 7344SOL    HW233912   4.462   0.043  18.801 -3.1756  0.9203  0.9840
 7345SOL     OW33913   0.570   3.163  10.255  0.9425  0.1990 -0.1161
 7345SOL    HW133914   0.635   3.125  10.196  2.7883  0.7541  1.5441
 7345SOL    HW233915   0.494   3.106  10.247  3.5390 -3.5716  2.0177
 7346SOL     OW33916   4.554   1.582   2.204 -0.2332 -0.5013  0.1528
 7346SOL    HW133917   4.630   1.527   2.223 -1.3154 -2.1084 -0.1529
 7346SOL    HW233918   4.588   1.653   2.151  1.4332 -0.1178  1.7431
 7347SOL     OW33919   2.313   2.060  21.006  0.5498  0.1309 -0.2197
 7347SOL    HW133920   2.332   2.082  21.097  1.8642 -1.0056 -0.2154
 7347SOL    HW233921   2.318   1.964  21.003 -0.0648  0.1358 -1.3552
 7348SOL     OW33922   2.382   2.793  16.110  0.2435 -0.1630 -0.0942
 7348SOL    HW133923   2.405   2.836  16.027  1.8836  1.4132  1.1800
 7348SOL    HW233924   2.457   2.809  16.167 -0.4329 -2.1798  1.3466
 7349SOL     OW33925   2.901   2.761  15.328 -0.5019  0.1020 -0.1375
 7349SOL    HW133926   2.826   2.745  15.386 -0.6890  0.3727 -0.3007
 7349SOL    HW233927   2.918   2.855  15.336 -1.4309  0.4013 -1.6025
 7350SOL     OW33928   3.770   2.305  11.683  0.5215 -0.4424  0.0893
 7350SOL    HW133929   3.833   2.368  11.718 -0.9428  0.0218  1.9332
 7350SOL    HW233930   3.819   2.223  11.674  2.2811  0.8586 -1.7940
 7351SOL     OW33931   2.978   1.361   1.251  0.6145 -0.2744  0.4036
 7351SOL    HW133932   2.970   1.291   1.315 -0.6849  0.0908  0.6620
 7351SOL    HW233933   2.909   1.423   1.276  0.9082  0.4571 -0.6029
 7352SOL     OW33934   4.274   4.521   7.660  0.5090  0.4715  0.1108
 7352SOL    HW133935   4.317   4.542   7.577 -2.9657  1.2637 -1.4913
 7352SOL    HW233936   4.260   4.606   7.702  0.2253  0.2340  0.4956
 7353SOL     OW33937   3.168   1.673  19.341  0.2878 -0.2615  0.3779
 7353SOL    HW133938   3.204   1.724  19.413  0.8877  0.2164 -0.2499
 7353SOL    HW233939   3.197   1.583  19.358  2.7410  0.3118 -0.7166
 7354SOL     OW33940   0.038   2.739   0.058 -0.2492  0.6482 -0.5068
 7354SOL    HW133941   0.073   2.682   0.127 -0.8732 -1.5402 -2.0083
 7354SOL    HW233942   0.115   2.773   0.013  0.0563 -1.1633 -1.3617
 7355SOL     OW33943   4.077   3.940  16.384  0.5434  0.0080  0.1210
 7355SOL    HW133944   4.008   3.964  16.322 -2.1250 -0.6634  2.7910
 7355SOL    HW233945   4.124   3.868  16.342 -3.1444 -2.4578  0.1318
 7356SOL     OW33946   4.006   2.430  19.449 -0.1338 -0.2990 -0.0307
 7356SOL    HW133947   3.970   2.453  19.535  3.7185  1.6105  1.0684
 7356SOL    HW233948   4.031   2.513  19.410  0.6983 -1.4031 -1.8606
 7357SOL     OW33949   4.557   2.080  18.569  0.3459 -0.3281 -0.4450
 7357SOL    HW133950   4.491   2.012  18.582 -0.5042  0.3045 -1.4443
 7357SOL    HW233951   4.621   2.040  18.509  0.1498 -0.4492 -0.5740
 7358SOL     OW33952   0.735   3.118   4.945 -0.2132  0.2690 -0.0080
 7358SOL    HW133953   0.797   3.188   4.927  0.1997 -0.4422 -1.3388
 7358SOL    HW233954   0.702   3.092   4.859  1.8453 -3.1778  0.2517
 7359SOL     OW33955   3.563   1.411  13.964 -0.0926  0.5139  0.0732
 7359SOL    HW133956   3.528   1.395  13.876 -1.1148 -0.1834  0.6012
 7359SOL    HW233957   3.645   1.361  13.967 -0.4315 -0.0665 -0.2393
 7360SOL     OW33958   1.915   1.421  13.586  0.2581 -0.2084  0.1264
 7360SOL    HW133959   1.934   1.363  13.659 -0.1859 -1.3182 -0.6347
 7360SOL    HW233960   1.921   1.365  13.508 -1.3179  0.5058 -0.5105
 7361SOL     OW33961   0.549   2.436   2.202  0.3783 -0.0508 -0.0040
 7361SOL    HW133962   0.617   2.390   2.152 -0.0661 -0.4537 -0.2424
 7361SOL    HW233963   0.468   2.389   2.181  0.4712 -1.3581  2.5453
 7362SOL     OW33964   1.069   2.044   4.471 -0.0382 -0.2273  0.0805
 7362SOL    HW133965   1.144   2.000   4.429 -0.0189 -0.2005  0.0869
 7362SOL    HW233966   0.992   2.006   4.428 -0.0135 -0.0915 -0.0825
 7363SOL     OW33967   2.994   0.527   5.103  0.3790  0.3557  0.7879
 7363SOL    HW133968   2.931   0.500   5.169  0.0774  0.3257  0.4899
 7363SOL    HW233969   2.948   0.516   5.020  1.4873 -1.6138  0.4334
 7364SOL     OW33970   3.274   3.188   8.789  0.3240 -0.0845  0.0820
 7364SOL    HW133971   3.306   3.209   8.702  2.8589  1.1874  1.2958
 7364SOL    HW233972   3.297   3.265   8.842 -2.0311 -0.4502  1.6280
 7365SOL     OW33973   0.505   3.395  16.643 -0.3198 -0.6136  0.0549
 7365SOL    HW133974   0.492   3.407  16.549  0.5147  0.5986  0.0961
 7365SOL    HW233975   0.590   3.352  16.650  0.0929  0.2408  0.3094
 7366SOL     OW33976   1.100   4.036   1.760 -0.2650 -0.2756  0.0758
 7366SOL    HW133977   1.114   3.954   1.807 -1.4862  1.0886  2.7729
 7366SOL    HW233978   1.005   4.050   1.765 -0.6369 -0.9619 -4.1404
 7367SOL     OW33979   4.560   3.496   1.479  0.3120  0.0098 -0.0395
 7367SOL    HW133980   4.574   3.423   1.420  0.0651 -1.3164  1.5601
 7367SOL    HW233981   4.638   3.550   1.470  2.1110 -2.3260  1.5254
 7368SOL     OW33982   4.495   2.766  18.576  0.3504  0.2405  0.2613
 7368SOL    HW133983   4.466   2.676  18.564  1.0263  0.0600  0.0240
 7368SOL    HW233984   4.499   2.778  18.671  1.0073 -0.2051  0.2824
 7369SOL     OW33985   2.896   0.301   4.559 -0.0954  0.1419 -0.2932
 7369SOL    HW133986   2.885   0.274   4.650  0.4533  0.9455  0.0133
 7369SOL    HW233987   2.951   0.379   4.564  0.6498 -0.3208 -1.3759
 7370SOL     OW33988   1.752   1.262   2.834  0.3986  0.5437 -0.2119
 7370SOL    HW133989   1.847   1.258   2.825  0.4933  1.5886  0.3101
 7370SOL    HW233990   1.735   1.230   2.923  0.1669 -0.8784 -0.7694
 7371SOL     OW33991   3.308   3.759  16.900  0.7646  0.3854 -0.0213
 7371SOL    HW133992   3.401   3.741  16.884  0.6690 -0.7090  0.6103
 7371SOL    HW233993   3.289   3.838  16.849  2.0241  0.5651 -0.2042
 7372SOL     OW33994   4.165   0.726  17.712  0.5630 -0.0390  0.3196
 7372SOL    HW133995   4.093   0.760  17.764 -2.0892 -3.7223 -0.9228
 7372SOL    HW233996   4.205   0.659  17.768  1.5142  0.3211  0.0706
 7373SOL     OW33997   4.135   3.544  19.722 -0.2801 -0.1311 -0.0899
 7373SOL    HW133998   4.089   3.485  19.663 -1.3195  1.1756 -0.5973
 7373SOL    HW233999   4.223   3.551  19.686 -0.3423 -0.8915 -0.3802
 7374SOL     OW34000   0.236   4.719  18.402  0.7721 -0.0194 -0.1365
 7374SOL    HW134001   0.288   4.768  18.339 -1.5308  1.1536 -1.1120
 7374SOL    HW234002   0.216   0.006  18.471 -0.2531 -0.2099 -0.2667
 7375SOL     OW34003   3.006   2.125   3.134  0.0424  0.5283 -0.1277
 7375SOL    HW134004   3.038   2.134   3.044  0.2203 -0.9434 -0.2255
 7375SOL    HW234005   2.943   2.053   3.129  0.3742  0.1554  1.0028
 7376SOL     OW34006   3.536   3.742   3.110  0.2133  0.1930  0.1900
 7376SOL    HW134007   3.455   3.728   3.161  0.2613  0.8821  0.4518
 7376SOL    HW234008   3.586   3.661   3.122 -0.8495 -0.6019 -0.7177
 7377SOL     OW34009   2.328   4.072   5.514 -0.2572  0.0420  0.3993
 7377SOL    HW134010   2.414   4.108   5.535  0.0784 -0.9254  0.6976
 7377SOL    HW234011   2.335   4.049   5.421 -0.0934 -0.3203  0.5011
 7378SOL     OW34012   0.468   2.957  16.132  0.1122  0.8258 -0.4280
 7378SOL    HW134013   0.552   2.978  16.171  0.2853 -0.0646 -0.3272
 7378SOL    HW234014   0.436   3.041  16.097  0.6458  1.3225  0.2763
 7379SOL     OW34015   1.675   2.674  18.126  0.7124  0.6424 -0.4736
 7379SOL    HW134016   1.725   2.687  18.045 -1.3347 -0.5975 -1.9489
 7379SOL    HW234017   1.587   2.706  18.105 -0.0898 -0.6264  0.9544
 7380SOL     OW34018   2.824   0.285   6.325  0.1297 -0.3353 -0.2959
 7380SOL    HW134019   2.868   0.332   6.254 -0.3161  0.3104 -0.1387
 7380SOL    HW234020   2.759   0.230   6.280 -0.4368  0.3849 -0.3526
 7381SOL     OW34021   2.276   1.466  11.937 -0.3621 -0.2992 -0.1960
 7381SOL    HW134022   2.189   1.431  11.955  1.1999 -3.9193  0.2092
 7381SOL    HW234023   2.266   1.510  11.852 -2.8730  0.3277  0.4048
 7382SOL     OW34024   2.254   1.907  11.483 -0.3368 -0.2338  0.5631
 7382SOL    HW134025   2.255   1.973  11.552  1.6635 -0.6700  0.9281
 7382SOL    HW234026   2.234   1.957  11.403  0.8239  0.7467  0.8893
 7383SOL     OW34027   1.857   3.166  11.087 -0.0233 -0.2510  0.5431
 7383SOL    HW134028   1.840   3.099  11.021 -0.9196  1.4794 -0.9797
 7383SOL    HW234029   1.803   3.140  11.162  0.5136 -1.8628  0.3694
 7384SOL     OW34030   4.260   3.588   4.801 -0.7067 -0.0527  0.0450
 7384SOL    HW134031   4.345   3.612   4.763 -1.2907 -0.9724 -1.8390
 7384SOL    HW234032   4.241   3.502   4.763 -1.7589 -0.5211  1.6551
 7385SOL     OW34033   0.048   1.178   3.638 -0.5957 -0.3455  0.1417
 7385SOL    HW134034   0.052   1.269   3.607  0.6515 -0.6846 -0.6861
 7385SOL    HW234035   0.050   1.125   3.558  0.5918 -1.1696  0.7179
 7386SOL     OW34036   2.919   0.052   3.135 -0.0245  0.3653 -0.4976
 7386SOL    HW134037   2.982   0.124   3.135  0.8088 -0.3390  1.1476
 7386SOL    HW234038   2.934   0.008   3.219 -0.6750 -1.5881 -1.3953
 7387SOL     OW34039   0.640   2.648  19.472  0.6451  0.8874 -0.2996
 7387SOL    HW134040   0.554   2.677  19.441 -0.1197 -1.1352 -0.0073
 7387SOL    HW234041   0.625   2.621  19.563  1.6109  0.6129 -0.2268
 7388SOL     OW34042   0.292   4.662   8.093  0.3197  0.4435 -0.1835
 7388SOL    HW134043   0.217   4.719   8.076 -0.8619 -1.0074  0.2573
 7388SOL    HW234044   0.316   4.679   8.184  1.1794  1.6720 -0.6306
 7389SOL     OW34045   2.032   3.336  17.793 -0.7799 -0.3309 -0.1954
 7389SOL    HW134046   2.018   3.431  17.789 -0.6950 -0.3549 -1.0665
 7389SOL    HW234047   2.073   3.314  17.709  1.0630 -0.8367  0.8471
 7390SOL     OW34048   0.611   2.019  20.280  0.1134 -0.6146 -0.1387
 7390SOL    HW134049   0.601   2.004  20.186  0.2056  1.3218 -0.4592
 7390SOL    HW234050   0.522   2.026  20.314  0.0968 -0.0912 -0.2866
 7391SOL     OW34051   3.691   3.387  13.236  0.0537  0.0538  0.3327
 7391SOL    HW134052   3.644   3.431  13.307  0.3192  0.7756  0.0594
 7391SOL    HW234053   3.648   3.301  13.228 -0.3234  0.1808  1.0024
 7392SOL     OW34054   3.375   0.934  19.226  0.5617 -0.4732  0.1298
 7392SOL    HW134055   3.320   0.980  19.289 -0.6087 -0.7549 -0.6966
 7392SOL    HW234056   3.416   0.864  19.277 -1.2856 -1.4280  0.3130
 7393SOL     OW34057   0.198   0.078  18.916 -0.7435 -0.8371 -0.1798
 7393SOL    HW134058   0.169   4.763  18.931  2.1625 -1.7283 -0.0419
 7393SOL    HW234059   0.252   0.098  18.992 -1.7106  1.1710 -0.0235
 7394SOL     OW34060   0.836   3.362   0.396 -0.2069 -0.2043  0.3091
 7394SOL    HW134061   0.756   3.311   0.381  0.0011 -0.3086 -0.4437
 7394SOL    HW234062   0.808   3.435   0.451 -0.5098 -1.1351  1.4168
 7395SOL     OW34063   1.941   2.476  14.853  0.3892  0.2777  0.9236
 7395SOL    HW134064   1.918   2.386  14.828 -2.0075  0.5198  2.2419
 7395SOL    HW234065   1.900   2.530  14.786  2.5986  0.3156 -0.3737
 7396SOL     OW34066   2.429   3.862  20.376  0.0665  0.2543 -0.7177
 7396SOL    HW134067   2.405   3.849  20.284 -0.5393 -0.0139 -0.5246
 7396SOL    HW234068   2.346   3.880  20.420  0.0947 -1.8375  0.1606
 7397SOL     OW34069   2.981   0.304  13.134  0.1140 -0.3947 -0.9155
 7397SOL    HW134070   3.041   0.352  13.191 -0.7165  0.4860 -0.7735
 7397SOL    HW234071   2.989   0.213  13.160 -1.1655  0.1617  1.4348
 7398SOL     OW34072   1.779   0.464   5.825 -0.1034  0.3201 -0.5688
 7398SOL    HW134073   1.863   0.468   5.779  0.7496  1.3663  1.0801
 7398SOL    HW234074   1.716   0.505   5.765  0.9760  1.5373 -0.8622
 7399SOL     OW34075   3.911   1.336   4.732 -0.4162  0.5354 -0.0819
 7399SOL    HW134076   3.900   1.410   4.792  0.8398  0.9385 -0.3617
 7399SOL    HW234077   3.848   1.353   4.662  0.7494  1.9521 -0.7641
 7400SOL     OW34078   0.878   1.738   1.783 -0.0313  0.3971  0.3681
 7400SOL    HW134079   0.938   1.732   1.857  0.7703 -0.2963 -0.3319
 7400SOL    HW234080   0.864   1.832   1.770  0.9791  0.5629  0.4780
 7401SOL     OW34081   2.871   3.747  19.685 -0.5478 -0.0015  0.0841
 7401SOL    HW134082   2.901   3.811  19.621 -0.7399  0.5883  0.5827
 7401SOL    HW234083   2.836   3.675  19.633 -0.6952  0.4762 -0.4727
 7402SOL     OW34084   1.491   1.822  15.961 -0.1485 -0.3915  0.4601
 7402SOL    HW134085   1.542   1.843  16.039  0.4337  0.6659 -0.2186
 7402SOL    HW234086   1.411   1.875  15.969 -1.1859 -2.1100  1.5658
 7403SOL     OW34087   4.438   0.137   3.998 -0.1190  0.7368  0.3115
 7403SOL    HW134088   4.488   0.100   4.071  1.4201  0.2343 -1.0224
 7403SOL    HW234089   4.423   0.229   4.024 -0.5351  0.2640  1.7662
 7404SOL     OW34090   3.707   1.913   4.372  0.1279 -0.0814 -0.1770
 7404SOL    HW134091   3.634   1.861   4.339 -1.3007  1.9932 -0.2890
 7404SOL    HW234092   3.670   1.964   4.444  1.6986  0.2278  0.4037
 7405SOL     OW34093   1.699   0.788   1.985  0.1709  0.3497 -0.4053
 7405SOL    HW134094   1.673   0.879   1.971 -0.7047  0.4645  1.9304
 7405SOL    HW234095   1.786   0.794   2.026 -0.4338  0.1743  0.9221
 7406SOL     OW34096   0.054   4.256   8.256  0.4765 -0.0237  0.6622
 7406SOL    HW134097   0.095   4.315   8.192  0.4082  1.3896  1.9376
 7406SOL    HW234098   0.109   4.177   8.254  0.5705  0.0806 -1.0323
 7407SOL     OW34099   0.326   4.140  17.971 -0.1820 -0.0467 -0.0406
 7407SOL    HW134100   0.410   4.179  17.948 -0.2927  0.5606  0.5702
 7407SOL    HW234101   0.344   4.084  18.047 -0.8868  2.4613  1.9989
 7408SOL     OW34102   1.816   2.412  15.532  0.1127  0.5981 -0.4137
 7408SOL    HW134103   1.764   2.367  15.465 -1.4496  1.4442  0.2421
 7408SOL    HW234104   1.751   2.450  15.591  1.4844  1.5704  0.4526
 7409SOL     OW34105   1.758   2.942   2.181  0.5784 -0.0989 -0.0473
 7409SOL    HW134106   1.845   2.913   2.155  0.4860 -0.2138 -0.2286
 7409SOL    HW234107   1.724   2.988   2.104  1.0740  1.2623  0.5470
 7410SOL     OW34108   2.051   2.022  15.202 -0.1778  0.5770  0.6351
 7410SOL    HW134109   2.014   2.081  15.268  1.8395  0.2659  2.0403
 7410SOL    HW234110   2.009   1.937  15.220 -2.2170  1.3092 -0.6620
 7411SOL     OW34111   3.203   1.022   2.012  0.4429  0.0286 -0.4673
 7411SOL    HW134112   3.261   0.948   2.028 -0.9720 -0.8176  0.7681
 7411SOL    HW234113   3.185   1.018   1.918  1.3171 -0.5139 -0.6093
 7412SOL     OW34114   2.903   2.036  17.203  0.0096 -0.0390 -0.2555
 7412SOL    HW134115   2.968   2.105  17.214 -0.7672  0.2338  2.7636
 7412SOL    HW234116   2.841   2.051  17.274 -2.4812 -1.2616 -2.1853
 7413SOL     OW34117   3.744   3.013  19.374  0.0381  0.3478 -0.1418
 7413SOL    HW134118   3.801   3.056  19.311 -0.1917 -1.8276 -1.8326
 7413SOL    HW234119   3.758   2.919  19.360 -0.5210 -0.1465  2.5577
 7414SOL     OW34120   0.543   4.447   0.021  0.5571 -0.4029  0.0052
 7414SOL    HW134121   0.518   4.473   0.110 -0.7785  1.3078 -0.8571
 7414SOL    HW234122   0.636   4.426   0.028  0.2232 -1.2821  2.0353
 7415SOL     OW34123   4.454   3.259  19.234 -0.2446  0.0120 -0.3944
 7415SOL    HW134124   4.458   3.169  19.265  0.7209 -0.2653 -1.2885
 7415SOL    HW234125   4.372   3.293  19.268  0.3711 -0.5635  1.6944
 7416SOL     OW34126   3.744   0.359   8.786 -0.0061  0.1202 -0.1968
 7416SOL    HW134127   3.728   0.274   8.825 -0.3390  0.5148  0.5201
 7416SOL    HW234128   3.804   0.341   8.713  1.0465 -0.5259  0.8328
 7417SOL     OW34129   1.313   0.602  21.121  0.0139 -0.1561 -0.1812
 7417SOL    HW134130   1.387   0.594  21.061 -0.8354  1.2296 -1.4117
 7417SOL    HW234131   1.236   0.606  21.064 -1.0489 -2.0260  1.1047
 7418SOL     OW34132   4.027   2.357  10.378  0.0407  0.0729 -0.5598
 7418SOL    HW134133   4.072   2.312  10.307  1.2013 -0.0886  0.2772
 7418SOL    HW234134   4.088   2.425  10.405  0.0532 -0.5857  1.0413
 7419SOL     OW34135   4.336   4.079   0.708  0.5462  0.1747  0.3693
 7419SOL    HW134136   4.416   4.065   0.658 -0.1665  1.3385 -1.1015
 7419SOL    HW234137   4.330   4.174   0.718 -0.3896  0.0620  0.8952
 7420SOL     OW34138   0.666   1.335  10.190 -0.1803  0.8134 -0.0144
 7420SOL    HW134139   0.639   1.409  10.136 -0.3013  0.1482 -0.8471
 7420SOL    HW234140   0.762   1.339  10.190 -0.1565 -0.1695 -1.5860
 7421SOL     OW34141   4.345   3.294   4.943 -0.1058 -0.2491 -0.1333
 7421SOL    HW134142   4.352   3.287   4.848  0.0556 -0.1641 -0.1281
 7421SOL    HW234143   4.435   3.301   4.973  0.0729 -4.5668  0.3783
 7422SOL     OW34144   4.308   3.582  20.631 -0.2881  0.8013 -0.2672
 7422SOL    HW134145   4.214   3.600  20.635 -0.3467  0.7619 -1.4018
 7422SOL    HW234146   4.333   3.606  20.542  0.8134  0.9768  0.0917
 7423SOL     OW34147   4.282   3.653   5.060  0.4645 -0.2492 -0.4350
 7423SOL    HW134148   4.278   3.611   4.974 -0.5206  0.1406 -0.5805
 7423SOL    HW234149   4.196   3.639   5.098  0.9529 -0.5747  0.5688
 7424SOL     OW34150   0.796   0.695   3.248  0.1345  0.3794 -0.1320
 7424SOL    HW134151   0.797   0.647   3.165 -0.1091 -1.0979  0.7090
 7424SOL    HW234152   0.765   0.631   3.311  1.7873  1.0952  1.3773
 7425SOL     OW34153   1.979   1.930  14.423  0.3168  0.3173 -0.4672
 7425SOL    HW134154   2.016   1.953  14.338  1.9371  0.4229  0.2638
 7425SOL    HW234155   2.022   1.990  14.484 -0.7862  0.1882  0.4340
 7426SOL     OW34156   2.700   0.129  10.230  0.2852  0.3709 -0.7108
 7426SOL    HW134157   2.790   0.106  10.206 -0.1099 -0.0808 -1.7647
 7426SOL    HW234158   2.703   0.141  10.324  1.2166 -0.7798 -0.5838
 7427SOL     OW34159   3.530   2.248  10.127  0.5005 -0.3086 -0.1963
 7427SOL    HW134160   3.487   2.236  10.212 -0.2456 -1.1352 -0.6931
 7427SOL    HW234161   3.624   2.251  10.148  0.2779  0.3330  0.7495
 7428SOL     OW34162   3.532   2.768  12.705  0.3327  0.5072 -0.4213
 7428SOL    HW134163   3.515   2.685  12.749 -2.4219  0.2617 -1.9412
 7428SOL    HW234164   3.619   2.758  12.667 -0.3581 -2.0299 -1.3521
 7429SOL     OW34165   2.795   0.454  13.617  0.1330  0.6547  0.3392
 7429SOL    HW134166   2.740   0.403  13.677  0.6980 -1.1887 -0.7079
 7429SOL    HW234167   2.881   0.411  13.620  0.5511  1.4044 -0.7248
 7430SOL     OW34168   2.350   1.908   2.056 -0.6646 -0.5533 -0.5832
 7430SOL    HW134169   2.263   1.948   2.056 -0.3783  0.0603 -1.6726
 7430SOL    HW234170   2.391   1.941   2.137 -1.0044  0.1183 -0.6831
 7431SOL     OW34171   3.659   3.409  10.562 -0.6246 -0.1905 -0.3677
 7431SOL    HW134172   3.693   3.486  10.517  0.5910 -0.3034  0.3582
 7431SOL    HW234173   3.696   3.335  10.513 -0.1890 -0.3129  0.1432
 7432SOL     OW34174   1.746   1.281   4.499  0.0418 -0.5307 -0.1449
 7432SOL    HW134175   1.754   1.366   4.455  2.2142 -0.2979  0.7074
 7432SOL    HW234176   1.656   1.280   4.533 -0.2854  1.0388 -0.9495
 7433SOL     OW34177   4.564   1.381   5.057 -0.0534 -0.0006  0.3197
 7433SOL    HW134178   4.633   1.320   5.084 -0.8980 -1.2434 -0.2881
 7433SOL    HW234179   4.527   1.413   5.139 -0.6722 -1.5437  0.6391
 7434SOL     OW34180   4.314   0.864   4.878 -0.0050 -0.1478  0.3818
 7434SOL    HW134181   4.306   0.889   4.970 -0.3358 -1.1219  0.6196
 7434SOL    HW234182   4.225   0.843   4.851 -0.1252  1.6410 -0.5903
 7435SOL     OW34183   1.006   4.199  14.221 -0.0005  0.2508  0.1138
 7435SOL    HW134184   1.053   4.282  14.220 -0.0745  0.2898 -0.3696
 7435SOL    HW234185   1.050   4.147  14.288  2.1686 -0.5422 -1.9390
 7436SOL     OW34186   4.352   2.332  12.218  0.3941  0.5740 -0.4072
 7436SOL    HW134187   4.264   2.362  12.243 -0.0707 -0.2982 -0.9898
 7436SOL    HW234188   4.361   2.358  12.127  1.1251  1.5521 -0.0472
 7437SOL     OW34189   2.525   0.175  20.058  0.0359  0.3486 -0.4606
 7437SOL    HW134190   2.459   0.106  20.069 -1.4249  1.7472 -0.5678
 7437SOL    HW234191   2.606   0.136  20.093 -1.2281 -0.6936  1.3002
 7438SOL     OW34192   2.851   3.638  20.176 -0.4001  0.4212 -0.3547
 7438SOL    HW134193   2.909   3.709  20.150 -1.2755  1.2149 -0.1672
 7438SOL    HW234194   2.800   3.674  20.249 -1.9925  0.1683 -1.3365
 7439SOL     OW34195   1.366   0.241   1.607 -0.0217  0.5147  0.7425
 7439SOL    HW134196   1.390   0.292   1.530  1.5038 -0.8043  0.3487
 7439SOL    HW234197   1.437   0.254   1.669 -0.1614 -0.2278  1.0681
 7440SOL     OW34198   1.872   2.430  18.868  0.3070 -0.1582  0.1588
 7440SOL    HW134199   1.804   2.377  18.826  1.0597 -0.3295 -0.8488
 7440SOL    HW234200   1.824   2.499  18.913 -0.6298 -1.1513  0.7079
 7441SOL     OW34201   0.672   0.910  16.315 -0.4475 -0.3655 -0.1350
 7441SOL    HW134202   0.741   0.939  16.254 -0.8775  1.5397  0.2783
 7441SOL    HW234203   0.708   0.928  16.401 -0.6529 -1.2263  0.1264
 7442SOL     OW34204   2.814   4.584   1.114  0.1715 -0.0648  0.3450
 7442SOL    HW134205   2.760   4.513   1.079 -0.9112 -0.2706  2.4586
 7442SOL    HW234206   2.773   4.606   1.197  0.3317  3.2599 -0.4685
 7443SOL     OW34207   1.103   2.088  15.596  0.2938  0.2844  0.3734
 7443SOL    HW134208   1.089   2.082  15.690  0.6050  0.6183  0.4420
 7443SOL    HW234209   1.143   2.004  15.572 -0.2505  0.0029  0.4543
 7444SOL     OW34210   0.728   4.727   2.283  0.0852  0.7077  0.0214
 7444SOL    HW134211   0.656   4.711   2.343 -0.5489 -1.3180 -1.2907
 7444SOL    HW234212   0.733   4.648   2.229  0.9773  2.3048 -2.2529
 7445SOL     OW34213   2.858   1.969   3.486  0.0107  0.3629  0.2794
 7445SOL    HW134214   2.864   2.061   3.462 -2.2122  1.2640  3.1805
 7445SOL    HW234215   2.889   1.966   3.576 -0.2885 -1.6764  0.3092
 7446SOL     OW34216   2.221   0.282   3.387  0.1562  0.4381 -0.2814
 7446SOL    HW134217   2.284   0.288   3.315 -0.8749  2.7688 -1.0023
 7446SOL    HW234218   2.138   0.309   3.348 -1.1860 -2.1818  0.7916
 7447SOL     OW34219   4.551   2.739  10.206 -0.6205  0.2129 -0.0715
 7447SOL    HW134220   4.518   2.823  10.175  0.2797  0.0716 -1.4524
 7447SOL    HW234221   4.629   2.723  10.152  0.6611 -0.2945  1.9129
 7448SOL     OW34222   1.043   1.373   5.943  0.4266 -0.0657  0.0493
 7448SOL    HW134223   1.031   1.279   5.935  2.5393 -0.2219 -1.4656
 7448SOL    HW234224   1.010   1.409   5.860  1.7187  0.3023 -0.3199
 7449SOL     OW34225   1.347   4.430  20.425  0.2921  0.2350  0.3437
 7449SOL    HW134226   1.410   4.471  20.484  2.9946 -4.8794  0.9695
 7449SOL    HW234227   1.395   4.419  20.342 -1.4722  1.4253 -0.8377
 7450SOL     OW34228   0.497   4.626  18.491  0.2023  0.0994 -0.3898
 7450SOL    HW134229   0.472   4.674  18.569 -0.7423  1.0108 -1.2567
 7450SOL    HW234230   0.430   4.648  18.426 -0.2279 -2.3311 -0.7937
 7451SOL     OW34231   0.783   0.984   3.941 -0.5428  0.0080  0.0877
 7451SOL    HW134232   0.803   0.932   3.863  1.8526  0.2180  0.5634
 7451SOL    HW234233   0.694   1.017   3.926 -1.2643 -2.5278 -1.1452
 7452SOL     OW34234   1.898   2.619  13.510 -0.3459  0.0048 -0.2055
 7452SOL    HW134235   1.974   2.676  13.514 -0.7720  0.4656  1.5216
 7452SOL    HW234236   1.922   2.542  13.561 -0.5498 -0.4326 -0.7630
 7453SOL     OW34237   1.709   2.605   4.972  0.3030 -0.1503  0.4179
 7453SOL    HW134238   1.615   2.598   4.991 -0.2694  2.5216 -1.5024
 7453SOL    HW234239   1.714   2.652   4.889  3.2666 -2.5501 -0.7456
 7454SOL     OW34240   0.572   4.764   3.919  0.2692 -0.3565 -0.0923
 7454SOL    HW134241   0.599   4.705   3.849  2.1456  0.1277  0.2114
 7454SOL    HW234242   0.612   4.728   3.998  1.1789  1.1311  0.1420
 7455SOL     OW34243   3.700   4.303  16.832  0.0298  0.0480 -0.2135
 7455SOL    HW134244   3.698   4.211  16.858  0.0342 -0.1012 -0.7302
 7455SOL    HW234245   3.771   4.308  16.767 -0.3359  0.3040 -0.5931
 7456SOL     OW34246   1.690   3.709   3.917 -0.5567  0.4714 -0.5128
 7456SOL    HW134247   1.693   3.618   3.948  0.3724  1.0190  1.0155
 7456SOL    HW234248   1.729   3.706   3.830  0.5192 -0.4035 -0.0024
 7457SOL     OW34249   0.143   3.456  14.297 -0.3502 -0.1002  0.0794
 7457SOL    HW134250   0.236   3.477  14.287 -0.6150  0.9530 -0.1429
 7457SOL    HW234251   0.124   3.473  14.389  0.0477 -1.7561  0.4596
 7458SOL     OW34252   0.739   3.205  19.605 -0.3700  0.6356  0.0577
 7458SOL    HW134253   0.771   3.232  19.691  0.4827  1.6392 -0.5738
 7458SOL    HW234254   0.770   3.274  19.545  1.1184 -1.3152 -1.4262
 7459SOL     OW34255   0.351   2.291  16.543  0.5409 -0.7823 -0.0868
 7459SOL    HW134256   0.341   2.385  16.558 -2.6001 -1.0321 -0.6236
 7459SOL    HW234257   0.419   2.285  16.475  0.8163  1.0933  0.0251
 7460SOL     OW34258   1.751   4.313   8.143 -0.3988 -0.0638  0.1395
 7460SOL    HW134259   1.721   4.387   8.196  1.6068  0.2206  0.8954
 7460SOL    HW234260   1.671   4.267   8.118 -1.5340  1.3706  1.1404
 7461SOL     OW34261   2.663   1.895  20.593 -0.0929 -0.2940  0.4627
 7461SOL    HW134262   2.642   1.904  20.686 -0.7016  0.5840  0.2482
 7461SOL    HW234263   2.578   1.903  20.549  0.2607 -0.2109 -0.1952
 7462SOL     OW34264   1.344   2.356  13.536  0.3285  0.2360  0.1799
 7462SOL    HW134265   1.258   2.330  13.503  0.9634 -2.3498  0.5970
 7462SOL    HW234266   1.328   2.381  13.627  0.0966 -0.5344  0.3469
 7463SOL     OW34267   3.987   1.795  18.999 -0.2901 -0.1827  0.1874
 7463SOL    HW134268   4.075   1.760  18.983 -1.1421 -2.6788  1.0409
 7463SOL    HW234269   4.000   1.865  19.063  1.0080 -0.7683  0.5603
 7464SOL     OW34270   0.186   1.726   1.461  0.3976 -0.4124 -0.5089
 7464SOL    HW134271   0.108   1.768   1.425  0.6678  0.2975 -0.2645
 7464SOL    HW234272   0.239   1.704   1.385 -0.3484 -1.4880 -0.7108
 7465SOL     OW34273   4.657   4.266   1.727  0.1925  0.3157 -0.0187
 7465SOL    HW134274   4.620   4.272   1.639  1.4502  2.7316 -0.3714
 7465SOL    HW234275   4.586   4.291   1.786  0.0873  1.0452 -0.4686
 7466SOL     OW34276   2.418   4.510   0.921  0.0117  0.2058 -0.6685
 7466SOL    HW134277   2.413   4.578   0.988  0.1297  0.0834 -0.5359
 7466SOL    HW234278   2.337   4.521   0.870 -0.0104  0.3892 -0.5961
 7467SOL     OW34279   0.225   3.086  20.155 -0.1691  0.4208  0.2106
 7467SOL    HW134280   0.171   3.159  20.186  1.0631  1.1723  0.5933
 7467SOL    HW234281   0.306   3.094  20.204 -0.0188 -1.1871  0.2074
 7468SOL     OW34282   0.675   1.803  17.387  0.1411  0.3853 -0.0490
 7468SOL    HW134283   0.654   1.728  17.443  0.3831  0.2516 -0.1370
 7468SOL    HW234284   0.639   1.878  17.433 -2.1165 -0.0585 -1.0729
 7469SOL     OW34285   1.623   3.151  15.686  0.4775 -0.2270 -0.3441
 7469SOL    HW134286   1.627   3.075  15.628  2.6501 -1.2563  1.1245
 7469SOL    HW234287   1.709   3.191  15.678  0.3237  0.3958  1.1390
 7470SOL     OW34288   0.053   1.033  19.191  0.2679  0.0739  0.3328
 7470SOL    HW134289   0.144   1.056  19.212  0.1622  2.6728 -2.1321
 7470SOL    HW234290   0.060   0.969  19.120  0.1411  0.7297 -0.2685
 7471SOL     OW34291   0.357   0.854   1.898  0.1528  0.2139  0.1332
 7471SOL    HW134292   0.344   0.818   1.986  2.1345 -0.5691  0.1045
 7471SOL    HW234293   0.315   0.790   1.840  0.0674  0.0302  0.3991
 7472SOL     OW34294   0.520   3.593  17.972  0.3608  0.5337  0.0421
 7472SOL    HW134295   0.541   3.515  18.024  1.4308  1.0062  0.3145
 7472SOL    HW234296   0.566   3.664  18.015 -0.0031  1.1966 -0.6538
 7473SOL     OW34297   0.350   3.126  17.089  0.0157  0.0621  0.3312
 7473SOL    HW134298   0.261   3.093  17.079  0.2529 -0.0960 -1.2207
 7473SOL    HW234299   0.377   3.151  17.000  1.7446 -0.4657  0.7020
 7474SOL     OW34300   3.035   3.121   6.450  0.1353  0.3243  0.0875
 7474SOL    HW134301   3.061   3.090   6.537  3.2704  0.4649 -0.7780
 7474SOL    HW234302   3.041   3.043   6.395 -1.9790  0.2058  0.0400
 7475SOL     OW34303   1.121   3.917  21.102  0.5337 -0.2152 -0.2344
 7475SOL    HW134304   1.159   3.889  21.019  2.2824  0.3747  0.3608
 7475SOL    HW234305   1.105   3.835  21.150 -2.3580 -0.6588 -1.9682
 7476SOL     OW34306   2.325   0.795   2.444 -0.2157  0.5135  0.3297
 7476SOL    HW134307   2.344   0.856   2.373 -2.5927  1.3514  0.4071
 7476SOL    HW234308   2.272   0.727   2.403  2.9662 -1.8035  0.1097
 7477SOL     OW34309   0.285   0.570   3.711  0.1723 -0.0261 -0.8364
 7477SOL    HW134310   0.345   0.513   3.759  0.2634  1.4720  0.8149
 7477SOL    HW234311   0.217   0.511   3.679  0.5621 -1.1507  0.3952
 7478SOL     OW34312   2.499   3.653   3.348  0.0274  0.0556 -0.4677
 7478SOL    HW134313   2.549   3.733   3.364  0.2369  0.0788 -1.2337
 7478SOL    HW234314   2.442   3.645   3.424 -1.7315  2.2864 -1.5460
 7479SOL     OW34315   0.773   0.776  13.933  0.1970  0.6213  0.1902
 7479SOL    HW134316   0.754   0.869  13.936 -1.0175  0.3846 -0.1609
 7479SOL    HW234317   0.705   0.739  13.876  1.0676 -0.3715 -0.2167
 7480SOL     OW34318   1.190   1.827  15.534  0.1958 -0.0003 -0.3433
 7480SOL    HW134319   1.130   1.753  15.544 -0.0005  0.4996  2.2073
 7480SOL    HW234320   1.192   1.844  15.440 -0.8239 -2.3698 -0.7938
 7481SOL     OW34321   3.367   4.015   5.395  0.2452  0.2319 -0.4263
 7481SOL    HW134322   3.415   3.953   5.450 -1.9558 -1.0742  0.0163
 7481SOL    HW234323   3.341   4.086   5.455  0.1933  0.1303 -0.3285
 7482SOL     OW34324   2.241   0.390   2.812 -0.0257  0.1211 -0.5699
 7482SOL    HW134325   2.303   0.425   2.748 -0.1386 -0.0291 -0.7608
 7482SOL    HW234326   2.253   0.295   2.807  0.0367  0.1131 -0.2963
 7483SOL     OW34327   3.718   1.011  17.989  0.1145 -0.5204 -0.0091
 7483SOL    HW134328   3.723   0.975  18.078  0.4564 -0.8843 -0.1761
 7483SOL    HW234329   3.778   1.086  17.991  0.3750 -0.7262 -0.0254
 7484SOL     OW34330   3.140   1.288  13.897 -0.0814  0.1052  0.8209
 7484SOL    HW134331   3.183   1.366  13.931  0.4362  0.1031  0.1740
 7484SOL    HW234332   3.207   1.220  13.902  0.0550  0.1439 -0.3403
 7485SOL     OW34333   1.202   0.263   5.851 -0.5970  0.4063 -0.2147
 7485SOL    HW134334   1.220   0.170   5.838  0.0038  0.5306 -0.2589
 7485SOL    HW234335   1.286   0.300   5.880 -0.5819  1.1172 -1.1703
 7486SOL     OW34336   4.009   4.421  16.208  0.3950 -0.3745  0.2692
 7486SOL    HW134337   4.033   4.388  16.121  0.1518  0.9661 -0.3016
 7486SOL    HW234338   3.932   4.475  16.193  0.8756  0.5713  1.2063
 7487SOL     OW34339   3.391   0.177  19.794  0.4750 -0.3468 -0.6158
 7487SOL    HW134340   3.319   0.130  19.754 -0.6690  0.9693 -0.1016
 7487SOL    HW234341   3.413   0.126  19.872 -0.5243 -0.2233 -0.2555
 7488SOL     OW34342   2.819   4.511  11.002  0.1956 -0.0030 -0.6480
 7488SOL    HW134343   2.912   4.534  10.991 -0.2701  1.9488 -0.6029
 7488SOL    HW234344   2.787   4.497  10.913 -0.2135  2.3228 -0.8701
 7489SOL     OW34345   4.569   3.877  15.741  0.4225  0.0181  0.5969
 7489SOL    HW134346   4.534   3.794  15.774 -1.1387  0.4769  0.1037
 7489SOL    HW234347   4.568   3.867  15.646 -0.5753  0.9227  0.5070
 7490SOL     OW34348   3.218   1.643  15.587  0.4156  0.1347  0.2787
 7490SOL    HW134349   3.199   1.736  15.599 -0.9979 -0.1766  0.4329
 7490SOL    HW234350   3.255   1.615  15.671  1.0544  0.6138  0.1559
 7491SOL     OW34351   4.587   2.264  17.410 -0.2891 -0.0189 -0.0860
 7491SOL    HW134352   4.608   2.357  17.406 -0.9520  0.0289 -2.4949
 7491SOL    HW234353   4.650   2.228  17.473  0.1325  2.0030  0.6508
 7492SOL     OW34354   3.218   1.289   3.732 -0.1921 -0.5375  0.0584
 7492SOL    HW134355   3.196   1.205   3.774  0.4317 -0.1268  1.2017
 7492SOL    HW234356   3.159   1.352   3.774 -0.3623 -0.3277 -0.4980
 7493SOL     OW34357   2.314   4.513   1.598 -0.1462  0.1732 -0.0037
 7493SOL    HW134358   2.256   4.585   1.624 -0.0897  0.0926  0.3547
 7493SOL    HW234359   2.342   4.475   1.681  0.9812  0.6545 -0.1700
 7494SOL     OW34360   2.092   2.696  11.948  0.4027 -0.6557 -0.7602
 7494SOL    HW134361   2.100   2.766  11.884  0.9430 -0.8035 -0.8558
 7494SOL    HW234362   2.124   2.618  11.903  0.1300 -0.8990 -0.5389
 7495SOL     OW34363   2.349   1.005   2.232 -0.3030  1.1491  0.1984
 7495SOL    HW134364   2.386   1.088   2.263 -0.2444  1.5171 -0.8751
 7495SOL    HW234365   2.258   1.027   2.209 -0.8678  0.4864  1.8013
 7496SOL     OW34366   2.936   1.166  17.125  0.1339  0.3931 -0.3962
 7496SOL    HW134367   2.917   1.078  17.093 -1.4277  0.6396 -0.1554
 7496SOL    HW234368   2.863   1.219  17.093  0.3469  1.3092  0.6554
 7497SOL     OW34369   4.513   3.857  19.017  0.1737  0.0386 -0.4319
 7497SOL    HW134370   4.432   3.806  19.007 -0.6406  1.3403 -0.5615
 7497SOL    HW234371   4.513   3.882  19.109  0.7100 -0.4344 -0.3082
 7498SOL     OW34372   2.737   4.624   3.020 -0.3815 -0.2868  0.1611
 7498SOL    HW134373   2.809   4.684   3.036 -1.2394  0.8613 -0.2374
 7498SOL    HW234374   2.776   4.550   2.975  0.0592  1.5920 -2.5272
 7499SOL     OW34375   4.774   4.504   3.752  0.2128 -0.8791  0.1117
 7499SOL    HW134376   0.081   4.515   3.798  0.0699 -0.9944  0.4036
 7499SOL    HW234377   4.746   4.593   3.731  0.2705 -0.8251  0.2637
 7500SOL     OW34378   4.445   0.303  16.540  0.5224 -0.4667  0.4380
 7500SOL    HW134379   4.409   0.224  16.500  0.3166 -0.4805  0.6527
 7500SOL    HW234380   4.466   0.360  16.466 -0.4418 -0.2363  0.3432
 7501SOL     OW34381   3.944   3.744   3.995  0.3104 -0.6452 -0.5672
 7501SOL    HW134382   3.905   3.784   4.072  0.8513 -0.4460 -0.3946
 7501SOL    HW234383   3.943   3.650   4.013 -1.6977 -0.7636 -1.3175
 7502SOL     OW34384   4.569   1.296  17.611  0.9648 -0.3866 -0.0372
 7502SOL    HW134385   4.611   1.224  17.658  1.4974 -0.0364  0.0222
 7502SOL    HW234386   4.524   1.346  17.680  0.2635 -0.8901 -0.1303
 7503SOL     OW34387   2.722   0.222  18.956  0.4986  0.7693 -0.0896
 7503SOL    HW134388   2.752   0.131  18.948 -2.0334  0.1158 -2.0838
 7503SOL    HW234389   2.750   0.264  18.875  0.3570  1.3899  0.1846
 7504SOL     OW34390   3.236   4.333  14.146  0.4337  0.1405 -0.0248
 7504SOL    HW134391   3.204   4.423  14.135  1.9838  0.5884 -0.9241
 7504SOL    HW234392   3.240   4.298  14.057 -0.5640 -0.9484  0.3645
 7505SOL     OW34393   3.783   2.298  10.247  0.4250  0.2063  0.0711
 7505SOL    HW134394   3.766   2.386  10.214  0.8247  0.0731 -0.4737
 7505SOL    HW234395   3.860   2.308  10.304  1.6466 -0.1519 -1.5148
 7506SOL     OW34396   0.206   4.277  18.645 -0.0444  0.1295  0.2130
 7506SOL    HW134397   0.114   4.298  18.661  0.0408  0.5348  0.1581
 7506SOL    HW234398   0.212   4.183  18.660 -0.5319  0.0543 -0.0767
 7507SOL     OW34399   4.355   2.059  12.586  0.0609  0.1443 -0.7745
 7507SOL    HW134400   4.388   2.027  12.501 -0.1512  0.7378 -1.0823
 7507SOL    HW234401   4.286   2.122  12.562 -0.6289 -0.3771 -0.1464
 7508SOL     OW34402   4.667   1.750  17.784 -0.2678 -0.0646 -0.1933
 7508SOL    HW134403   4.675   1.660  17.754 -0.7189 -1.0199  2.5681
 7508SOL    HW234404   4.583   1.779  17.751  1.0511  0.1773 -3.3218
 7509SOL     OW34405   1.224   0.404  18.426  0.1437 -0.2841  0.0526
 7509SOL    HW134406   1.241   0.497  18.414  1.1296 -0.6619 -1.4768
 7509SOL    HW234407   1.308   0.368  18.453 -0.0730 -0.8515 -0.0383
 7510SOL     OW34408   2.905   3.142  14.258 -0.8515  0.2555  0.1698
 7510SOL    HW134409   2.952   3.095  14.327  0.3150 -0.4556 -1.1322
 7510SOL    HW234410   2.965   3.210  14.229 -1.7142  1.1694  0.5228
 7511SOL     OW34411   2.933   0.287   4.285 -0.3304 -0.3904 -0.4212
 7511SOL    HW134412   2.949   0.372   4.244 -0.4405 -0.8069 -1.3297
 7511SOL    HW234413   2.916   0.308   4.377  2.0121  0.3720 -0.1534
 7512SOL     OW34414   0.413   2.339  18.783 -0.1955  0.0991 -0.0879
 7512SOL    HW134415   0.320   2.329  18.801 -0.5888  0.7962 -1.7503
 7512SOL    HW234416   0.421   2.426  18.744  1.0985 -0.1228 -0.3265
 7513SOL     OW34417   4.240   2.683   1.863  0.7086 -0.5272 -0.1508
 7513SOL    HW134418   4.306   2.699   1.795  0.9204  0.0926  0.2045
 7513SOL    HW234419   4.161   2.659   1.814  1.1877 -1.2574 -0.5770
 7514SOL     OW34420   0.181   2.520  18.484 -0.5376 -0.1735 -0.3325
 7514SOL    HW134421   0.155   2.428  18.487 -0.2401 -0.2572 -0.2854
 7514SOL    HW234422   0.105   2.566  18.450 -0.4262 -0.5315 -1.0641
 7515SOL     OW34423   3.760   2.699  14.876 -0.4534 -0.1646  0.6193
 7515SOL    HW134424   3.834   2.638  14.878 -0.3552 -0.0643 -0.1752
 7515SOL    HW234425   3.703   2.666  14.807  0.7500  2.0008 -1.3998
 7516SOL     OW34426   1.603   0.167   0.812 -0.2983 -0.2438 -0.0633
 7516SOL    HW134427   1.680   0.203   0.768 -0.2476  1.9466  1.7571
 7516SOL    HW234428   1.634   0.086   0.852  1.0621  0.5711  0.5590
 7517SOL     OW34429   2.399   0.681   1.512 -0.4189  0.1253  0.1131
 7517SOL    HW134430   2.382   0.733   1.591 -0.4726  0.6679 -0.2559
 7517SOL    HW234431   2.494   0.676   1.506 -0.4263 -0.7144  0.7388
 7518SOL     OW34432   2.998   3.159   5.110 -0.2793  0.0650  0.8600
 7518SOL    HW134433   3.011   3.251   5.133  1.2296 -0.0460  0.4108
 7518SOL    HW234434   3.037   3.110   5.182  1.4089 -0.2478 -0.2644
 7519SOL     OW34435   4.035   0.803  14.682 -0.2554  0.6701  0.9170
 7519SOL    HW134436   3.940   0.811  14.690 -0.3226 -1.2200  1.9070
 7519SOL    HW234437   4.069   0.834  14.766 -0.1049 -0.9440  1.4497
 7520SOL     OW34438   0.384   2.620   5.252 -0.5334  0.3199  0.3164
 7520SOL    HW134439   0.430   2.680   5.311 -0.6029  0.4138  0.2745
 7520SOL    HW234440   0.297   2.659   5.241 -0.4012  0.4771 -0.1229
 7521SOL     OW34441   0.518   2.833   7.366 -0.5645  0.2506 -0.2897
 7521SOL    HW134442   0.505   2.919   7.406  0.6684 -0.0665  0.7983
 7521SOL    HW234443   0.440   2.819   7.312 -1.3666  1.4866  0.5581
 7522SOL     OW34444   2.378   1.558  12.650  0.2773 -0.2029 -0.2642
 7522SOL    HW134445   2.383   1.639  12.600  1.0824 -0.7522 -1.0923
 7522SOL    HW234446   2.452   1.561  12.710  1.6839 -1.3994 -1.9371
 7523SOL     OW34447   1.375   3.759  16.263  0.1268 -0.1146 -0.5356
 7523SOL    HW134448   1.462   3.744  16.224 -0.1434 -1.6035 -0.5562
 7523SOL    HW234449   1.336   3.826  16.207  0.8151 -0.2737 -1.2184
 7524SOL     OW34450   0.016   1.683   3.738 -0.4287  0.0114  0.0479
 7524SOL    HW134451   0.078   1.616   3.765  0.9134  2.5281  3.1604
 7524SOL    HW234452   4.706   1.646   3.759  0.2299 -1.5358 -0.0179
 7525SOL     OW34453   0.493   0.861  17.277 -0.5380  0.0404  0.0882
 7525SOL    HW134454   0.530   0.882  17.191 -1.7142  0.9970 -0.1948
 7525SOL    HW234455   0.520   0.771  17.293  2.5894  1.0368  0.2661
 7526SOL     OW34456   0.315   3.173   2.287  0.2667  0.4196 -0.2156
 7526SOL    HW134457   0.359   3.213   2.212 -1.0281  0.1628 -1.1257
 7526SOL    HW234458   0.293   3.085   2.258  0.9161 -0.1129  0.9249
 7527SOL     OW34459   0.216   3.170  17.822 -0.2679 -0.4657  0.3533
 7527SOL    HW134460   0.251   3.258  17.810 -2.1738  0.5013  1.8973
 7527SOL    HW234461   0.172   3.150  17.739 -0.2878  0.2262  0.1994
 7528SOL     OW34462   4.370   0.484   1.106  0.2896 -0.4741 -0.3868
 7528SOL    HW134463   4.288   0.451   1.069  0.9688 -3.5701  0.9028
 7528SOL    HW234464   4.411   0.407   1.147  3.5059  1.2121 -0.4615
 7529SOL     OW34465   3.290   3.699  12.400 -0.2439  0.2376  0.0243
 7529SOL    HW134466   3.241   3.617  12.393 -0.8319  0.6560 -0.7973
 7529SOL    HW234467   3.306   3.725  12.309 -1.7792  2.0562  0.2674
 7530SOL     OW34468   0.948   2.108   3.545  0.1279 -0.3864  0.2368
 7530SOL    HW134469   1.026   2.066   3.509 -0.5710 -1.3643 -0.1387
 7530SOL    HW234470   0.979   2.191   3.580  1.3890 -0.9081  0.3374
 7531SOL     OW34471   2.771   3.631  16.709  0.9420  0.2809  0.3244
 7531SOL    HW134472   2.839   3.616  16.774  1.2841  1.5272  0.2432
 7531SOL    HW234473   2.779   3.723  16.686 -0.1613  0.2021 -0.3741
 7532SOL     OW34474   0.384   0.888  10.280 -0.3309  0.0555 -0.1276
 7532SOL    HW134475   0.378   0.811  10.336  2.0464 -0.7252 -0.9383
 7532SOL    HW234476   0.295   0.901  10.248 -1.5263  0.0676  3.2340
 7533SOL     OW34477   1.450   1.662   0.479 -0.3383  0.2427  0.0981
 7533SOL    HW134478   1.538   1.681   0.446  0.0351 -1.7427 -0.0915
 7533SOL    HW234479   1.449   1.567   0.488 -2.1935  0.3471  0.8952
 7534SOL     OW34480   1.535   3.525  15.265 -0.2101  0.2604 -0.1951
 7534SOL    HW134481   1.618   3.569  15.244 -0.1976  0.1272 -0.4213
 7534SOL    HW234482   1.530   3.530  15.361  0.3613 -0.2667 -0.1319
 7535SOL     OW34483   2.929   1.538   1.650 -0.2591 -0.5287  0.7598
 7535SOL    HW134484   2.879   1.570   1.725 -0.9334 -1.8035  0.8531
 7535SOL    HW234485   2.942   1.445   1.668  0.8703 -0.5037  0.0227
 7536SOL     OW34486   1.870   0.211   2.495  0.0907 -0.1513  0.2866
 7536SOL    HW134487   1.816   0.136   2.470 -0.2150 -0.9780  3.5281
 7536SOL    HW234488   1.819   0.256   2.562  1.3550  1.6392  0.0530
 7537SOL     OW34489   1.832   1.139  15.727 -0.3823 -0.1329 -0.0428
 7537SOL    HW134490   1.779   1.218  15.723  1.3898  1.0699  0.0028
 7537SOL    HW234491   1.837   1.109  15.636 -0.9675 -0.1378 -0.0729
 7538SOL     OW34492   3.614   0.751   4.100  0.2525  0.2323 -0.2316
 7538SOL    HW134493   3.593   0.751   4.007 -1.6515 -1.0308  0.1963
 7538SOL    HW234494   3.540   0.795   4.142  1.8719  2.2698  0.5205
 7539SOL     OW34495   1.583   3.945  19.744 -0.1127  0.6503  0.2790
 7539SOL    HW134496   1.535   3.891  19.681 -2.2210  1.8911  0.8412
 7539SOL    HW234497   1.668   3.961  19.702 -0.2590 -1.3727 -0.7766
 7540SOL     OW34498   0.192   3.988  12.406  0.2542 -0.4588 -0.2837
 7540SOL    HW134499   0.284   4.011  12.419 -0.5862  2.1429  1.1961
 7540SOL    HW234500   0.166   3.947  12.488 -0.4732  0.7028  0.0656
 7541SOL     OW34501   2.973   3.377  18.038 -0.1160  0.0617  0.1421
 7541SOL    HW134502   3.026   3.394  17.960 -0.9354  0.3444 -0.3494
 7541SOL    HW234503   3.036   3.347  18.103  0.3410 -1.6538 -1.0963
 7542SOL     OW34504   1.116   1.707   3.157  0.1129 -0.3569 -0.1433
 7542SOL    HW134505   1.065   1.700   3.238 -0.3023  1.1784 -0.2718
 7542SOL    HW234506   1.157   1.793   3.163  0.5984 -0.5228 -1.2641
 7543SOL     OW34507   3.997   4.237  19.482 -0.2415  0.0222 -0.3009
 7543SOL    HW134508   4.001   4.192  19.566  2.1666 -1.6772 -1.3295
 7543SOL    HW234509   3.914   4.284  19.484 -0.1706  0.0125  3.0533
 7544SOL     OW34510   2.489   2.429   4.407  0.4999  0.1680 -0.6656
 7544SOL    HW134511   2.485   2.483   4.328  0.6722  0.1074 -0.7152
 7544SOL    HW234512   2.582   2.419   4.425  0.4690 -0.1379 -0.6745
 7545SOL     OW34513   0.411   1.278   6.187 -0.2787  0.1036  0.3713
 7545SOL    HW134514   0.316   1.277   6.177 -0.1307  1.5563 -1.0286
 7545SOL    HW234515   0.436   1.186   6.186 -1.6062 -0.2522  0.1399
 7546SOL     OW34516   1.155   1.301   6.758 -0.2235 -0.2409 -0.1506
 7546SOL    HW134517   1.151   1.396   6.771  0.5557  0.0654 -2.1501
 7546SOL    HW234518   1.169   1.266   6.846 -0.8452  1.4811  0.6469
 7547SOL     OW34519   1.075   0.180  16.976  0.4441  0.2899 -0.1267
 7547SOL    HW134520   1.093   0.223  16.892  3.2487 -1.5367 -0.4754
 7547SOL    HW234521   1.136   0.220  17.037 -0.2756  0.2526  0.6107
 7548SOL     OW34522   4.548   0.544  13.178 -0.6056  0.0209  0.2165
 7548SOL    HW134523   4.565   0.589  13.261  0.0166 -0.1560  0.1808
 7548SOL    HW234524   4.543   0.615  13.114 -0.0782  0.0731  0.2360
 7549SOL     OW34525   3.064   0.507   7.288  0.5514 -0.5121  0.1138
 7549SOL    HW134526   3.064   0.412   7.293  1.4974 -0.5467 -0.5182
 7549SOL    HW234527   3.153   0.533   7.312  0.8785  0.1025 -1.7306
 7550SOL     OW34528   3.665   0.018  17.253 -0.5048 -0.1725 -0.5929
 7550SOL    HW134529   3.666   4.728  17.321  1.9707 -1.0973 -1.5115
 7550SOL    HW234530   3.732   0.081  17.280 -0.7091  0.3491 -1.2982
 7551SOL     OW34531   2.238   0.140  17.944 -0.5115 -0.1192 -0.0635
 7551SOL    HW134532   2.316   0.088  17.921  0.2772  0.3487  1.5684
 7551SOL    HW234533   2.273   0.227  17.963 -1.3255 -0.2279  1.8369
 7552SOL     OW34534   1.030   4.352  11.316 -0.0168 -0.6258  0.2926
 7552SOL    HW134535   0.945   4.311  11.333 -0.2029  0.4181  1.9178
 7552SOL    HW234536   1.074   4.354  11.401  0.7381  0.8220 -0.1182
 7553SOL     OW34537   1.187   3.558  13.319  0.3027 -0.6978 -0.6219
 7553SOL    HW134538   1.253   3.511  13.268  1.0164  0.6260 -0.9265
 7553SOL    HW234539   1.180   3.644  13.276  0.6525  0.2975  1.2829
 7554SOL     OW34540   4.212   2.074  18.346  0.6072  0.3673 -1.2267
 7554SOL    HW134541   4.240   2.114  18.264 -0.1886  3.2597 -0.0678
 7554SOL    HW234542   4.118   2.059  18.334  0.7518 -0.4533 -1.3568
 7555SOL     OW34543   0.823   4.743   6.323 -0.5845  0.1175 -0.0433
 7555SOL    HW134544   0.848   0.014   6.402 -1.6860  1.4317 -0.4704
 7555SOL    HW234545   0.844   4.651   6.341 -0.5066  0.4723  1.6331
 7556SOL     OW34546   1.920   1.761  11.398  0.7085  0.1018  0.1297
 7556SOL    HW134547   1.925   1.763  11.302  0.9112 -2.7952  0.0768
 7556SOL    HW234548   2.001   1.803  11.427  0.1346  1.9928 -0.9635
 7557SOL     OW34549   0.668   1.629  20.592  0.2127  0.5831 -0.8125
 7557SOL    HW134550   0.731   1.557  20.586 -0.1276  0.2336 -0.1664
 7557SOL    HW234551   0.599   1.607  20.529 -0.6971 -0.4498  0.5559
 7558SOL     OW34552   1.303   4.454   6.936  0.3224 -0.0752 -0.4859
 7558SOL    HW134553   1.249   4.529   6.910 -1.8064 -1.1214  0.9394
 7558SOL    HW234554   1.358   4.487   7.006 -0.2024  0.3156 -0.2592
 7559SOL     OW34555   1.624   3.733   9.416 -0.2241  0.1911  0.4523
 7559SOL    HW134556   1.533   3.723   9.388 -0.3089 -0.2358  0.8832
 7559SOL    HW234557   1.663   3.647   9.401  0.1342  0.4032  0.1695
 7560SOL     OW34558   4.422   3.612  17.590 -0.3093  0.1513  0.1324
 7560SOL    HW134559   4.437   3.584  17.500 -1.2375 -1.5038  0.5002
 7560SOL    HW234560   4.336   3.578  17.612 -0.9704  2.3629  0.9361
 7561SOL     OW34561   0.842   3.244   1.363 -0.3438  0.5090  0.1184
 7561SOL    HW134562   0.782   3.268   1.434 -0.9913  1.1187 -0.6282
 7561SOL    HW234563   0.854   3.326   1.315  0.2268  0.1269 -0.3787
 7562SOL     OW34564   4.659   0.533   2.011 -0.1261 -0.2562  0.5911
 7562SOL    HW134565   4.571   0.538   1.973  0.3581 -0.9945 -0.5941
 7562SOL    HW234566   4.644   0.524   2.105 -1.3264 -1.0201  0.3219
 7563SOL     OW34567   2.380   2.055  10.453 -0.1929  1.1604  0.0823
 7563SOL    HW134568   2.464   2.015  10.429 -0.7573 -0.6522  1.1026
 7563SOL    HW234569   2.322   2.035  10.380 -0.0346  1.4746 -0.1289
 7564SOL     OW34570   2.071   0.369   4.677 -0.2392  0.0473 -0.0501
 7564SOL    HW134571   2.074   0.344   4.585  3.1149  0.7595 -0.1397
 7564SOL    HW234572   2.047   0.462   4.676 -0.9178 -0.1313 -0.1843
 7565SOL     OW34573   4.627   2.054  20.266  0.0104  0.1689 -0.1402
 7565SOL    HW134574   4.619   2.019  20.177  1.9252  1.5667 -0.8625
 7565SOL    HW234575   4.637   2.148  20.253 -2.2173  0.6605  1.6826
 7566SOL     OW34576   3.333   3.557   4.629 -0.6491  0.3206 -0.5331
 7566SOL    HW134577   3.267   3.589   4.692 -0.3161 -3.0204  1.5022
 7566SOL    HW234578   3.293   3.480   4.590  1.7586 -1.2655  0.1597
 7567SOL     OW34579   0.113   0.302  16.785 -0.1328  0.3840  0.2131
 7567SOL    HW134580   0.050   0.374  16.790  0.5171  1.0089 -0.4852
 7567SOL    HW234581   0.076   0.243  16.719 -0.8508 -0.0997  1.0549
 7568SOL     OW34582   4.656   0.622  18.958 -0.3439 -1.0352  0.0341
 7568SOL    HW134583   4.603   0.699  18.937 -0.3151 -1.2122 -0.6796
 7568SOL    HW234584   4.624   0.554  18.899 -1.1578 -1.9043  1.4444
 7569SOL     OW34585   2.704   4.224  11.182 -0.5089 -0.1207  0.4334
 7569SOL    HW134586   2.716   4.135  11.216  1.5859 -0.1169 -0.2562
 7569SOL    HW234587   2.695   4.278  11.260 -3.5295 -1.1908  0.8091
 7570SOL     OW34588   2.887   4.261  20.879  0.0267 -0.5366 -0.2800
 7570SOL    HW134589   2.835   4.188  20.914 -0.4318 -0.1804 -0.2195
 7570SOL    HW234590   2.887   4.247  20.784  1.4900 -1.6478 -0.1162
 7571SOL     OW34591   0.346   1.207  14.047  0.0880 -0.2904 -0.1361
 7571SOL    HW134592   0.363   1.133  13.988  3.2668 -0.1516  0.5952
 7571SOL    HW234593   0.336   1.166  14.133 -2.1163 -0.2458 -0.3600
 7572SOL     OW34594   4.600   2.018  15.150 -0.6240  0.1517  0.3141
 7572SOL    HW134595   4.682   2.031  15.103 -0.7388  0.3069  0.1563
 7572SOL    HW234596   4.624   2.022  15.242 -0.5462  0.8021  0.2664
 7573SOL     OW34597   1.716   3.562  14.949 -0.0520  0.2151  0.0678
 7573SOL    HW134598   1.685   3.476  14.978  0.1603  0.6448  1.5997
 7573SOL    HW234599   1.742   3.606  15.030 -0.0681  1.6834 -0.7291
 7574SOL     OW34600   3.793   1.251  17.141 -0.8786  0.0164 -0.3805
 7574SOL    HW134601   3.761   1.285  17.057 -3.4546 -0.1852  0.5236
 7574SOL    HW234602   3.717   1.252  17.198  0.6874 -0.6692  1.7169
 7575SOL     OW34603   2.554   2.245  20.873  0.2155 -0.0174  0.2095
 7575SOL    HW134604   2.558   2.285  20.786  0.6137  2.0686  1.1868
 7575SOL    HW234605   2.469   2.201  20.876  0.4419 -0.5622 -1.4381
 7576SOL     OW34606   1.115   2.518  13.207  0.3713  0.5582  0.2967
 7576SOL    HW134607   1.210   2.513  13.220  0.4750 -1.3270 -1.1136
 7576SOL    HW234608   1.082   2.434  13.240 -0.8320  1.3244  1.0285
 7577SOL     OW34609   3.998   3.336  19.598 -0.3575 -0.6620 -0.0525
 7577SOL    HW134610   4.009   3.252  19.553  1.0227 -1.5766  1.9950
 7577SOL    HW234611   3.937   3.317  19.669  0.6727 -0.1667  0.9766
 7578SOL     OW34612   0.128   1.020  21.113  0.1842 -0.3946 -0.4331
 7578SOL    HW134613   0.171   1.067  21.042  0.0646  0.3160 -0.0422
 7578SOL    HW234614   0.173   1.051  21.192  0.3088 -1.1693 -0.2008
 7579SOL     OW34615   1.178   0.596  20.205 -0.5261 -0.4279 -0.2455
 7579SOL    HW134616   1.146   0.638  20.124 -2.0039 -1.8626 -0.4070
 7579SOL    HW234617   1.196   0.669  20.264 -2.4884  0.4853 -0.7644
 7580SOL     OW34618   3.877   0.619   3.421  0.5370 -0.0954  0.3485
 7580SOL    HW134619   3.954   0.590   3.371  1.9899  0.6742  2.1525
 7580SOL    HW234620   3.904   0.702   3.460 -0.5933 -0.7756  2.5362
 7581SOL     OW34621   4.324   2.107  11.521 -0.4893 -0.5344 -0.7784
 7581SOL    HW134622   4.320   2.014  11.497 -0.3655 -0.7672  0.1300
 7581SOL    HW234623   4.339   2.152  11.437  0.6184 -1.4153 -1.0577
 7582SOL     OW34624   4.014   4.190   0.536  0.1028 -0.3996  0.4766
 7582SOL    HW134625   3.919   4.174   0.534  0.2152 -1.1244  0.8918
 7582SOL    HW234626   4.032   4.241   0.457 -0.5320 -0.8072  0.0709
 7583SOL     OW34627   0.983   0.271  14.184  0.2070 -0.6052 -0.1907
 7583SOL    HW134628   0.914   0.227  14.233 -0.6536  0.1425 -0.7235
 7583SOL    HW234629   1.061   0.216  14.196  0.0163 -0.3594  2.0590
 7584SOL     OW34630   3.676   1.938  17.389 -0.1798 -0.2404  0.3156
 7584SOL    HW134631   3.723   1.878  17.331  1.7401  0.7565  0.8598
 7584SOL    HW234632   3.704   1.913  17.477  0.9035  1.7181  0.5156
 7585SOL     OW34633   3.621   4.137   5.361 -0.0071  0.1412 -0.1104
 7585SOL    HW134634   3.593   4.209   5.417  1.9265 -0.8556  2.1508
 7585SOL    HW234635   3.540   4.095   5.333 -0.8875 -0.9019  4.0266
 7586SOL     OW34636   4.296   0.102   1.574  0.4088  0.1638  0.4114
 7586SOL    HW134637   4.268   0.011   1.563  0.1795  0.2558  0.2251
 7586SOL    HW234638   4.255   0.130   1.656  1.4560 -0.2718  1.0761
 7587SOL     OW34639   3.115   1.109   4.625 -0.4987 -0.0943  0.4650
 7587SOL    HW134640   3.084   1.019   4.617  0.7208 -0.4313 -0.5540
 7587SOL    HW234641   3.040   1.158   4.660 -1.6326 -1.2142 -0.4139
 7588SOL     OW34642   2.161   1.133  18.911 -0.3650 -0.4935 -0.8306
 7588SOL    HW134643   2.162   1.226  18.886 -2.2219 -0.3197 -0.2925
 7588SOL    HW234644   2.152   1.135  19.007 -2.1424 -1.2573 -0.9906
 7589SOL     OW34645   0.495   2.036   5.352  0.5976  0.0202  0.3386
 7589SOL    HW134646   0.518   2.108   5.293  2.5180  0.2612  1.3929
 7589SOL    HW234647   0.579   1.997   5.375 -0.2046 -0.3543  2.5684
 7590SOL     OW34648   3.256   2.791  13.888  0.0760 -0.7980  0.7071
 7590SOL    HW134649   3.161   2.788  13.880  0.1629 -3.2791  0.6872
 7590SOL    HW234650   3.288   2.775  13.798  0.5523 -2.2916  1.1397
 7591SOL     OW34651   2.566   2.725  10.474  1.2624  0.1364  0.4740
 7591SOL    HW134652   2.648   2.693  10.513  2.1390  0.1558 -1.3901
 7591SOL    HW234653   2.525   2.776  10.544  3.4677  1.2334  0.9654
 7592SOL     OW34654   2.221   4.098   1.316  0.7789 -0.0547 -0.3309
 7592SOL    HW134655   2.233   4.141   1.400  1.6898  0.3358 -0.6642
 7592SOL    HW234656   2.140   4.049   1.326  0.6524  0.3489  0.6262
 7593SOL     OW34657   0.259   3.322   4.994 -0.1250  0.6092  0.3193
 7593SOL    HW134658   0.303   3.354   5.073  2.2122  1.4593 -1.3134
 7593SOL    HW234659   0.309   3.244   4.969 -0.8690  0.3387 -0.2989
 7594SOL     OW34660   0.128   4.359   3.562  0.1987  0.0742  0.3052
 7594SOL    HW134661   0.129   4.269   3.594  0.5369 -0.4171 -1.0740
 7594SOL    HW234662   0.063   4.403   3.617 -1.7415 -1.6241 -0.6207
 7595SOL     OW34663   2.835   1.587   3.892  0.4622 -0.5299  0.2031
 7595SOL    HW134664   2.785   1.585   3.974  1.2218  0.4286  0.7005
 7595SOL    HW234665   2.784   1.534   3.831 -0.3596 -0.8475  1.1576
 7596SOL     OW34666   0.183   0.503  17.868  0.2193 -0.3608 -0.8518
 7596SOL    HW134667   0.156   0.412  17.882 -0.1531 -0.1196 -0.0008
 7596SOL    HW234668   0.268   0.510  17.912 -0.4424  0.1004  0.3700
 7597SOL     OW34669   2.503   4.079   5.971 -0.6032 -0.5357  0.1380
 7597SOL    HW134670   2.410   4.088   5.993 -0.6827 -1.2538  0.0985
 7597SOL    HW234671   2.515   4.135   5.895 -0.9624 -0.2763  0.2735
 7598SOL     OW34672   3.599   1.127   4.011 -0.9395  0.8608 -0.0012
 7598SOL    HW134673   3.570   1.135   3.921 -1.6231  2.0800  0.3324
 7598SOL    HW234674   3.686   1.087   4.005 -0.7308  1.5113 -1.2239
 7599SOL     OW34675   1.023   0.135   0.251 -0.0962  0.8371  0.2866
 7599SOL    HW134676   1.013   0.161   0.160 -1.0558  1.0046  0.4498
 7599SOL    HW234677   0.974   0.053   0.259 -0.9813  1.4381  0.9514
 7600SOL     OW34678   0.519   2.477   8.952  0.5715 -0.0454  0.3488
 7600SOL    HW134679   0.514   2.556   9.006  0.3382  0.7556 -0.8542
 7600SOL    HW234680   0.519   2.405   9.016  0.8428  0.9182  1.4438
 7601SOL     OW34681   2.270   2.665  14.932 -0.5316  0.3686 -0.2401
 7601SOL    HW134682   2.313   2.745  14.964 -0.8005  0.2333  0.4628
 7601SOL    HW234683   2.228   2.628  15.010  2.6036 -2.3546  0.1213
 7602SOL     OW34684   0.116   0.350  14.652 -0.1152 -0.3337 -0.5083
 7602SOL    HW134685   0.178   0.404  14.701  0.9692 -2.5545  0.5315
 7602SOL    HW234686   0.128   0.377  14.561 -0.2021  1.8418  0.1336
 7603SOL     OW34687   3.482   1.225   3.788  0.6173 -0.1606 -0.0314
 7603SOL    HW134688   3.405   1.275   3.816  0.2834  0.7432 -2.4674
 7603SOL    HW234689   3.531   1.286   3.732  2.3472 -1.2023  0.3511
 7604SOL     OW34690   3.918   0.021  17.764  0.6203  0.4848 -0.2201
 7604SOL    HW134691   3.936   0.011  17.671  1.4220  2.0910 -0.2294
 7604SOL    HW234692   3.992   4.754  17.807  0.7159  0.5573 -0.3122
 7605SOL     OW34693   2.675   3.557   0.307  0.1023 -0.1925 -0.0748
 7605SOL    HW134694   2.610   3.598   0.364  1.6959 -0.3160  1.8403
 7605SOL    HW234695   2.670   3.464   0.328  0.9805 -0.1869  0.1951
 7606SOL     OW34696   1.381   2.340   8.569  0.0286 -0.2371 -0.2350
 7606SOL    HW134697   1.356   2.432   8.572 -0.4442 -0.3456 -0.8307
 7606SOL    HW234698   1.330   2.299   8.639 -0.0238 -0.1067 -0.1973
 7607SOL     OW34699   4.350   1.878   1.619 -0.2982  0.0926 -0.2118
 7607SOL    HW134700   4.289   1.931   1.670  0.5445 -0.2373  1.1437
 7607SOL    HW234701   4.366   1.930   1.540  0.1815  1.6565  0.9087
 7608SOL     OW34702   4.497   2.611  19.266 -0.2145  0.3747  0.3729
 7608SOL    HW134703   4.546   2.659  19.333 -0.2419  0.1744  0.5369
 7608SOL    HW234704   4.561   2.551  19.228 -0.2201  0.4279  0.2816
 7609SOL     OW34705   2.208   2.324   9.615  0.4538  0.5305 -0.3876
 7609SOL    HW134706   2.295   2.291   9.592 -0.1316  0.8055 -3.0043
 7609SOL    HW234707   2.167   2.251   9.662  1.5669 -0.1304 -0.4208
 7610SOL     OW34708   1.743   3.002   9.134 -0.0259 -0.4984 -0.8526
 7610SOL    HW134709   1.792   2.924   9.158  0.6524 -0.6211 -2.6030
 7610SOL    HW234710   1.681   2.972   9.067  0.5984  0.5545 -1.9101
 7611SOL     OW34711   2.959   0.994   4.861 -0.3176 -0.1303  0.5407
 7611SOL    HW134712   3.028   1.059   4.873 -1.9807  1.9431 -1.0260
 7611SOL    HW234713   2.996   0.912   4.894  2.3755  1.2769  0.9724
 7612SOL     OW34714   0.832   3.709   2.911 -0.2090 -0.2281 -0.1494
 7612SOL    HW134715   0.773   3.784   2.922 -1.2084 -1.1004  0.4308
 7612SOL    HW234716   0.814   3.678   2.822  0.7591  0.7126 -0.6605
 7613SOL     OW34717   4.680   3.176   3.085  0.0642 -0.2266  0.4301
 7613SOL    HW134718   4.598   3.215   3.056 -0.4687 -1.6077  0.0579
 7613SOL    HW234719   4.655   3.087   3.111  1.1883 -0.1805  1.6424
 7614SOL     OW34720   1.353   3.970  10.065 -0.1095 -0.3126  0.3431
 7614SOL    HW134721   1.376   3.883  10.099  0.5589 -0.5416 -0.7007
 7614SOL    HW234722   1.361   4.028  10.141  0.4630 -0.9883  0.7975
 7615SOL     OW34723   2.202   4.322  20.955  0.3625 -0.3627 -1.3781
 7615SOL    HW134724   2.120   4.362  20.984  1.7851  1.4512  0.1939
 7615SOL    HW234725   2.210   4.243  21.008  1.0722  0.9733  0.5062
 7616SOL     OW34726   3.915   1.982   3.167  0.3548 -0.6144 -0.0124
 7616SOL    HW134727   3.900   1.942   3.253 -1.9286 -0.3706 -0.2770
 7616SOL    HW234728   4.009   1.975   3.153  0.5980 -1.5837  2.0643
 7617SOL     OW34729   2.582   4.719  14.544  0.3716  0.0899  0.0122
 7617SOL    HW134730   2.508   4.758  14.590 -0.5121  0.8390 -2.0974
 7617SOL    HW234731   2.546   4.641  14.502  1.6096 -1.6754  2.2207
 7618SOL     OW34732   1.313   2.756   1.376 -0.0577 -0.0312 -0.2516
 7618SOL    HW134733   1.298   2.672   1.419 -0.5539  0.6915  1.0026
 7618SOL    HW234734   1.287   2.821   1.442 -0.3456  1.0802 -1.4701
 7619SOL     OW34735   3.268   4.691  12.064 -0.4234  0.4336  0.4137
 7619SOL    HW134736   3.330   4.673  12.135 -0.4405  0.2094  0.3720
 7619SOL    HW234737   3.305   4.646  11.988 -2.1605 -2.1475  1.1046
 7620SOL     OW34738   4.687   2.799  17.080  0.3888 -0.1071 -0.0542
 7620SOL    HW134739   4.640   2.746  17.016 -0.0495 -0.2437  0.3792
 7620SOL    HW234740   4.622   2.862  17.111  0.1352 -1.1309  1.4959
 7621SOL     OW34741   1.255   1.266   2.434 -0.1927  0.3302 -0.1120
 7621SOL    HW134742   1.295   1.197   2.487 -1.1647 -0.4895 -0.4555
 7621SOL    HW234743   1.236   1.336   2.497 -3.3196 -1.5056  0.9884
 7622SOL     OW34744   4.498   0.385  13.874 -0.1205 -0.7759 -0.4087
 7622SOL    HW134745   4.476   0.297  13.906  1.1328 -0.4034  1.4855
 7622SOL    HW234746   4.593   0.388  13.878 -0.0908  0.0339 -2.1674
 7623SOL     OW34747   2.823   3.910  17.446  0.3158  0.4153 -0.0466
 7623SOL    HW134748   2.743   3.913  17.499  0.0509  0.0374 -0.4238
 7623SOL    HW234749   2.871   3.990  17.470 -0.5841  1.0789 -0.4440
 7624SOL     OW34750   1.769   2.935  14.575 -0.2063  1.2211  0.1462
 7624SOL    HW134751   1.826   3.010  14.595 -0.8487  1.6843  0.2288
 7624SOL    HW234752   1.762   2.936  14.479  2.5765 -0.7825 -0.1000
 7625SOL     OW34753   1.410   3.448   3.625 -0.1599 -0.1493  0.2126
 7625SOL    HW134754   1.415   3.543   3.619 -0.3941 -0.0683  1.3059
 7625SOL    HW234755   1.500   3.419   3.640 -0.0966 -0.0948 -0.0673
 7626SOL     OW34756   1.544   4.362   6.198 -0.1969  1.1259  0.4991
 7626SOL    HW134757   1.597   4.340   6.275  0.1237 -0.6139 -0.2100
 7626SOL    HW234758   1.454   4.351   6.227 -0.0779  0.5015  0.6329
 7627SOL     OW34759   4.265   2.987  18.944 -0.6554 -0.1183 -0.4426
 7627SOL    HW134760   4.219   2.963  18.863 -0.7902 -2.1548  0.2599
 7627SOL    HW234761   4.313   2.909  18.969 -1.7641  0.0888  2.2603
 7628SOL     OW34762   0.198   1.133   1.970 -0.5941  0.2070 -0.1807
 7628SOL    HW134763   0.274   1.100   2.018 -0.0209  1.5339 -0.1789
 7628SOL    HW234764   0.138   1.059   1.966  0.9504 -1.0217 -0.6900
 7629SOL     OW34765   0.102   0.392   3.640 -0.3242  0.9279 -0.6252
 7629SOL    HW134766   0.108   0.325   3.708  0.6555  0.0026 -1.6403
 7629SOL    HW234767   0.013   0.427   3.650 -1.4479 -1.7433 -1.2712
 7630SOL     OW34768   4.084   4.357  17.721 -0.1264  0.1543 -0.1712
 7630SOL    HW134769   4.176   4.366  17.747  0.0335 -1.4305 -0.1500
 7630SOL    HW234770   4.036   4.414  17.780  0.6860 -0.2039  0.8337
 7631SOL     OW34771   2.995   3.101  18.863 -0.3913  0.0290 -0.1120
 7631SOL    HW134772   3.025   3.191  18.848 -1.5679  0.2072 -1.3076
 7631SOL    HW234773   2.934   3.109  18.937  0.4065  0.0440  0.5518
 7632SOL     OW34774   4.463   3.365   3.043 -0.1788  0.1961 -0.6386
 7632SOL    HW134775   4.495   3.452   3.065  0.3005  0.3228 -1.8445
 7632SOL    HW234776   4.372   3.365   3.073  0.1678  0.7238  0.4008
 7633SOL     OW34777   2.509   0.444  11.229 -0.4292  0.0178 -0.7274
 7633SOL    HW134778   2.482   0.469  11.318 -1.2771 -0.4848 -0.8442
 7633SOL    HW234779   2.539   0.354  11.239  0.6485  0.3796 -0.7107
 7634SOL     OW34780   3.432   2.828  17.645  0.6451  0.2689 -0.5130
 7634SOL    HW134781   3.396   2.769  17.711  0.2685  0.7893 -0.2623
 7634SOL    HW234782   3.409   2.916  17.675  1.3564  0.5590 -0.7992
 7635SOL     OW34783   1.655   0.733   4.147 -0.4138  0.1633 -0.0524
 7635SOL    HW134784   1.610   0.809   4.111  0.7348 -0.6551 -3.2596
 7635SOL    HW234785   1.729   0.719   4.088 -0.0544 -2.8135  1.1064
 7636SOL     OW34786   1.783   0.001  15.423  0.1734 -0.0779  0.6673
 7636SOL    HW134787   1.705   4.722  15.423 -0.6920  1.1840 -2.4715
 7636SOL    HW234788   1.844   4.733  15.363  0.4941  0.9234  0.2565
 7637SOL     OW34789   3.994   1.986  12.671 -0.0769 -0.3873  0.0558
 7637SOL    HW134790   3.956   1.969  12.585 -0.5749  0.9809  0.0037
 7637SOL    HW234791   4.062   2.051  12.654 -0.8201  0.5955  0.8457
 7638SOL     OW34792   1.518   4.231   3.256 -0.4668  0.2503  0.1524
 7638SOL    HW134793   1.574   4.297   3.297 -1.1014  1.5328 -1.0332
 7638SOL    HW234794   1.474   4.278   3.185 -2.6685 -0.8598  0.7722
 7639SOL     OW34795   1.568   4.335   2.158  0.2622 -0.0560 -0.0326
 7639SOL    HW134796   1.577   4.255   2.210  0.9221  0.1470  0.1737
 7639SOL    HW234797   1.573   4.305   2.067  0.3724 -0.2694  0.0429
 7640SOL     OW34798   4.255   4.486  21.098 -0.3092  0.0043  0.1459
 7640SOL    HW134799   4.318   4.507  21.167 -0.3308 -0.0872  0.1933
 7640SOL    HW234800   4.304   4.497  21.017 -0.6258  1.3140  0.1286
 7641SOL     OW34801   0.630   1.903  17.954 -0.0244  0.0207 -0.4468
 7641SOL    HW134802   0.544   1.903  17.996  0.5681  3.2719  0.7922
 7641SOL    HW234803   0.690   1.877  18.024 -0.1415 -3.3630 -1.6051
 7642SOL     OW34804   3.205   3.738   3.032  0.2457  0.8220 -0.2301
 7642SOL    HW134805   3.216   3.694   3.116 -0.8798 -0.6059 -0.8234
 7642SOL    HW234806   3.263   3.691   2.972  0.2841  1.1986 -0.4922
 7643SOL     OW34807   1.193   1.236  17.115  0.6821 -0.2150  0.0709
 7643SOL    HW134808   1.172   1.326  17.093 -0.7851 -0.8053 -0.9605
 7643SOL    HW234809   1.157   1.224  17.203  1.4681  0.4111  0.4747
 7644SOL     OW34810   1.123   1.275   5.587 -0.2467 -0.8160  0.0870
 7644SOL    HW134811   1.173   1.321   5.520 -1.9662  0.1710 -0.5346
 7644SOL    HW234812   1.188   1.225   5.636  1.2520 -0.0515 -1.1175
 7645SOL     OW34813   1.466   0.837  18.882 -0.1555  0.3275 -0.1193
 7645SOL    HW134814   1.436   0.893  18.810 -0.5358 -1.5850 -1.4507
 7645SOL    HW234815   1.431   0.878  18.961 -2.4901  0.6239 -1.2989
 7646SOL     OW34816   2.576   4.652   1.586 -0.6055 -0.8778 -0.0424
 7646SOL    HW134817   2.518   4.728   1.582  0.2641 -0.4575 -3.9440
 7646SOL    HW234818   2.516   4.577   1.596 -1.5089  0.1681  2.4589
 7647SOL     OW34819   4.384   0.599   8.152 -0.0633 -0.2850 -0.3991
 7647SOL    HW134820   4.320   0.589   8.223 -1.5539 -2.0927 -2.0013
 7647SOL    HW234821   4.332   0.628   8.077  1.1064 -0.9711 -1.4693
 7648SOL     OW34822   1.055   1.150  17.387  0.1795  0.5423  0.3638
 7648SOL    HW134823   1.136   1.197  17.406  0.1358  0.3999  0.8854
 7648SOL    HW234824   1.016   1.132  17.472  0.2660 -0.5742  0.1694
 7649SOL     OW34825   2.960   2.048   0.747 -0.0166  0.4499 -0.3111
 7649SOL    HW134826   2.915   2.065   0.830  0.7959 -0.7263  0.3699
 7649SOL    HW234827   3.048   2.022   0.772 -0.1035 -1.0144 -1.4906
 7650SOL     OW34828   0.303   4.335  10.916 -0.1914 -0.0293 -0.0530
 7650SOL    HW134829   0.262   4.335  11.002  1.6672 -1.8415  0.8139
 7650SOL    HW234830   0.384   4.386  10.928  0.1375 -0.4000 -0.6902
 7651SOL     OW34831   1.705   2.779  18.825 -0.1262  0.1571 -0.0187
 7651SOL    HW134832   1.723   2.726  18.903 -0.4275  0.8743  0.5440
 7651SOL    HW234833   1.779   2.762  18.767 -0.2610 -0.9379  0.1299
 7652SOL     OW34834   4.434   0.819  18.076 -0.9722  0.2148  0.8304
 7652SOL    HW134835   4.514   0.797  18.027 -1.4115 -0.8354  0.5754
 7652SOL    HW234836   4.421   0.745  18.135 -2.4097 -0.1535  0.0488
 7653SOL     OW34837   0.274   3.038   3.362 -0.0757  0.3161 -0.2674
 7653SOL    HW134838   0.326   2.970   3.405 -0.6654 -0.2276 -0.4108
 7653SOL    HW234839   0.327   3.065   3.287  0.3649  0.3387  0.0537
 7654SOL     OW34840   1.581   0.048  17.428  0.1578 -0.6416  0.1813
 7654SOL    HW134841   1.635   4.745  17.434 -1.5241 -1.7190  1.2454
 7654SOL    HW234842   1.535   0.052  17.512 -2.0432 -0.1975 -1.0357
 7655SOL     OW34843   2.940   1.586  12.657  0.6330  0.2209 -0.5018
 7655SOL    HW134844   2.852   1.560  12.629  0.7827 -0.5741 -0.2475
 7655SOL    HW234845   2.944   1.680  12.642  0.1576  0.0565 -1.6612
 7656SOL     OW34846   4.614   4.275   3.821 -0.2567 -0.2631 -0.4723
 7656SOL    HW134847   4.565   4.304   3.898 -0.3275  0.2091 -0.6964
 7656SOL    HW234848   4.684   4.339   3.811  1.2389 -1.7183  0.6638
 7657SOL     OW34849   0.107   3.688  15.401  0.0638  0.1440  0.7221
 7657SOL    HW134850   0.049   3.623  15.361  0.4618 -0.0332  0.4346
 7657SOL    HW234851   0.105   3.667  15.495 -0.1289 -0.0308  0.6774
 7658SOL     OW34852   1.866   3.319   3.280 -0.3312  0.6762 -0.6382
 7658SOL    HW134853   1.836   3.394   3.332 -0.7651 -0.5826  0.9244
 7658SOL    HW234854   1.835   3.337   3.191  0.4621  2.8526 -0.4617
 7659SOL     OW34855   2.562   1.529  18.836 -0.1122  0.2783 -0.2960
 7659SOL    HW134856   2.656   1.533  18.853  0.1957  0.2545 -2.0323
 7659SOL    HW234857   2.529   1.467  18.901  1.2170 -0.5125 -0.3767
 7660SOL     OW34858   1.843   2.789  17.838 -0.1170 -0.0195 -0.2017
 7660SOL    HW134859   1.820   2.844  17.763 -1.5189  1.4755  1.3314
 7660SOL    HW234860   1.927   2.822  17.868 -0.2204  0.2837 -0.2492
 7661SOL     OW34861   3.292   3.215  15.747 -0.2597  0.1915  0.3608
 7661SOL    HW134862   3.262   3.303  15.723 -0.9157  0.1294  0.9262
 7661SOL    HW234863   3.223   3.157  15.716 -0.8530  0.0687  1.8893
 7662SOL     OW34864   2.635   1.035  18.224 -0.1524  0.3447  0.1215
 7662SOL    HW134865   2.594   1.109  18.269  0.2332 -0.3513  1.6063
 7662SOL    HW234866   2.673   1.073  18.145 -3.4725  1.0522 -1.1678
 7663SOL     OW34867   2.369   4.772  21.089  0.0318 -0.3007  0.0645
 7663SOL    HW134868   2.460   0.008  21.116 -0.8346  1.0288  2.3558
 7663SOL    HW234869   2.348   4.682  21.114  0.4444 -0.3355  0.2716
 7664SOL     OW34870   3.107   3.446  17.787  0.0821 -0.2512  0.3442
 7664SOL    HW134871   3.093   3.478  17.698  1.0159 -1.3657 -0.2108
 7664SOL    HW234872   3.198   3.468  17.807  0.5173 -1.8688  0.2244
 7665SOL     OW34873   3.136   1.469  15.383  0.0095 -0.1811  0.3416
 7665SOL    HW134874   3.184   1.519  15.449 -0.9624 -0.1653  1.0277
 7665SOL    HW234875   3.156   1.514  15.300  1.2996 -0.2660  0.6155
 7666SOL     OW34876   3.416   3.276  10.667  1.0325  0.0613  0.0948
 7666SOL    HW134877   3.498   3.320  10.645  1.8743 -1.5771 -0.0224
 7666SOL    HW234878   3.414   3.198  10.612 -0.0406 -0.5235  0.9504
 7667SOL     OW34879   2.166   2.057  16.417 -0.4696 -0.1559 -0.0184
 7667SOL    HW134880   2.206   1.990  16.361 -1.9613 -1.5076  0.5491
 7667SOL    HW234881   2.078   2.068  16.381 -1.0634 -0.2729  1.4144
 7668SOL     OW34882   2.306   0.043  14.460  0.1918 -0.6899 -0.0713
 7668SOL    HW134883   2.295   0.122  14.406  0.0157  0.0533  1.0613
 7668SOL    HW234884   2.372   4.768  14.413 -0.2046 -0.1892 -1.1793
 7669SOL     OW34885   4.304   0.490   2.365  0.0456  0.3602  0.1555
 7669SOL    HW134886   4.305   0.582   2.393  0.9143  0.4246 -0.0661
 7669SOL    HW234887   4.213   0.463   2.374 -0.2145  1.2463  0.2290
 7670SOL     OW34888   3.670   0.720  16.296 -0.2004 -0.5554  0.3889
 7670SOL    HW134889   3.710   0.783  16.236 -1.0012  0.2547  0.7212
 7670SOL    HW234890   3.667   0.765  16.380  0.2249 -1.4265  0.8701
 7671SOL     OW34891   3.182   3.347   1.882 -0.3850  0.3749  0.0080
 7671SOL    HW134892   3.099   3.368   1.925 -0.2414  1.1096 -0.0683
 7671SOL    HW234893   3.186   3.407   1.807 -0.0561 -0.0510 -0.3094
 7672SOL     OW34894   4.684   1.606  20.647  0.0423 -0.0375 -1.0920
 7672SOL    HW134895   4.772   1.642  20.639 -0.1809  0.1015 -2.8642
 7672SOL    HW234896   4.698   1.512  20.659  0.4558  0.1008 -0.4563
 7673SOL     OW34897   1.523   2.933  17.608 -0.5730  0.0151 -0.3646
 7673SOL    HW134898   1.479   2.848  17.602 -0.8775  0.1332  0.2046
 7673SOL    HW234899   1.493   2.981  17.530 -0.6991 -0.2617 -0.4865
 7674SOL     OW34900   3.714   0.482   3.592 -0.2428  0.0398  0.3240
 7674SOL    HW134901   3.758   0.535   3.525 -0.1699 -0.5519 -0.0933
 7674SOL    HW234902   3.784   0.433   3.635 -0.2647  0.5942  0.9857
 7675SOL     OW34903   4.767   3.613   5.532 -0.6148 -0.3805  0.3253
 7675SOL    HW134904   4.732   3.698   5.505 -0.6703 -0.5962 -0.2859
 7675SOL    HW234905   4.694   3.569   5.575 -0.1217  0.5273  2.0593
 7676SOL     OW34906   4.726   0.875  18.335  0.2221 -0.1914 -0.4655
 7676SOL    HW134907   4.659   0.843  18.396 -1.4391  1.3241 -1.4875
 7676SOL    HW234908   4.728   0.809  18.266  1.2386 -1.2914  0.6222
 7677SOL     OW34909   1.940   3.126  19.370 -0.4752 -0.3293  0.2878
 7677SOL    HW134910   2.031   3.100  19.386 -0.6605 -1.4272 -0.4703
 7677SOL    HW234911   1.888   3.072  19.429 -0.7717 -0.9831 -0.5565
 7678SOL     OW34912   1.565   4.680   5.121  0.4703 -0.2798 -0.5633
 7678SOL    HW134913   1.603   4.753   5.168 -0.1193 -1.4195  1.6991
 7678SOL    HW234914   1.636   4.616   5.112 -0.1011 -1.1359  1.0135
 7679SOL     OW34915   3.570   0.187   0.422  0.1372  0.0593  0.5785
 7679SOL    HW134916   3.511   0.222   0.489 -0.4566 -1.8217  1.0323
 7679SOL    HW234917   3.570   0.093   0.437  2.8663 -0.0077  0.2566
 7680SOL     OW34918   1.795   4.172  16.864 -0.3423 -0.3900 -0.3219
 7680SOL    HW134919   1.873   4.154  16.812 -0.5445 -0.9873 -0.4188
 7680SOL    HW234920   1.735   4.214  16.802 -0.5393 -0.9961 -0.5466
 7681SOL     OW34921   1.974   3.205  16.074  0.4282 -0.1676  0.0887
 7681SOL    HW134922   1.887   3.238  16.050  0.1037 -1.2239 -0.2356
 7681SOL    HW234923   2.019   3.194  15.990  0.8507  0.3468  0.2556
 7682SOL     OW34924   0.428   3.527  14.986 -0.8230 -0.3192 -0.2137
 7682SOL    HW134925   0.495   3.462  14.968 -1.4663 -0.9419 -0.3874
 7682SOL    HW234926   0.472   3.611  14.976  0.2437 -0.7430  0.9596
 7683SOL     OW34927   3.525   4.617   3.968 -0.5297 -0.8132  0.5374
 7683SOL    HW134928   3.434   4.610   3.997 -0.3454 -0.4604  1.1995
 7683SOL    HW234929   3.534   4.708   3.940 -0.1866 -0.6607  1.1354
 7684SOL     OW34930   3.082   0.541   0.606 -0.1226  0.1926  0.6367
 7684SOL    HW134931   3.135   0.569   0.532 -0.2390 -1.5970 -0.1145
 7684SOL    HW234932   3.039   0.461   0.577 -2.0369  0.7851  1.7880
 7685SOL     OW34933   1.527   1.322   2.251 -0.0419 -0.2825  0.6164
 7685SOL    HW134934   1.486   1.246   2.210 -0.0516 -0.5130  1.0509
 7685SOL    HW234935   1.525   1.303   2.345 -0.2733  0.3637  0.7482
 7686SOL     OW34936   1.633   1.988   2.202 -0.1092 -1.1071 -0.6652
 7686SOL    HW134937   1.579   2.017   2.275  0.8522 -2.0471  0.4144
 7686SOL    HW234938   1.650   2.067   2.151  0.6367 -0.1736  1.0491
 7687SOL     OW34939   1.636   0.718  19.681  0.2607 -0.6997  0.1920
 7687SOL    HW134940   1.620   0.755  19.595 -0.6564  0.0949  0.7117
 7687SOL    HW234941   1.642   0.623  19.665 -0.4562 -0.6036 -0.6558
 7688SOL     OW34942   3.237   1.946   0.820 -0.1677  0.2717 -0.0803
 7688SOL    HW134943   3.237   1.980   0.910 -0.2864 -1.3829  0.5618
 7688SOL    HW234944   3.323   1.971   0.785  0.6469 -0.7663  1.1578
 7689SOL     OW34945   1.842   1.536   4.775 -0.1865 -0.1365  0.2487
 7689SOL    HW134946   1.902   1.463   4.786  1.5955  1.3564  0.5662
 7689SOL    HW234947   1.825   1.540   4.680 -1.3704 -1.8121  0.3956
 7690SOL     OW34948   2.818   0.791  12.863  0.0210 -0.1808  0.0762
 7690SOL    HW134949   2.769   0.833  12.792  3.3896  0.3491 -1.9223
 7690SOL    HW234950   2.778   0.704  12.871 -1.6853  0.4900 -1.1234
 7691SOL     OW34951   2.170   2.023  19.083 -0.6103  0.5645  0.0553
 7691SOL    HW134952   2.246   2.071  19.116  0.6323  0.1662 -2.2422
 7691SOL    HW234953   2.115   2.089  19.042 -0.8556  0.6543  0.5336
 7692SOL     OW34954   2.682   0.756  16.943  0.1090  0.3524 -0.5232
 7692SOL    HW134955   2.593   0.787  16.960  0.3608  0.3529  0.8025
 7692SOL    HW234956   2.682   0.665  16.975  0.5177  0.2767 -0.7427
 7693SOL     OW34957   1.222   2.232  16.844 -0.2430  0.4200  0.0674
 7693SOL    HW134958   1.160   2.253  16.774 -0.4481  1.7750  0.6512
 7693SOL    HW234959   1.301   2.203  16.798 -1.0981 -0.7317 -0.6874
 7694SOL     OW34960   4.494   0.814   2.657 -0.1824  0.0464 -0.0080
 7694SOL    HW134961   4.538   0.734   2.686 -0.6090 -0.0487  0.3903
 7694SOL    HW234962   4.560   0.863   2.610  0.1211 -0.4831 -0.1282
 7695SOL     OW34963   0.379   1.091   2.175 -0.6663 -0.0201 -0.0348
 7695SOL    HW134964   0.378   1.168   2.233 -0.2260  0.7953 -1.1040
 7695SOL    HW234965   0.469   1.085   2.144 -0.0764 -2.6102  2.1978
 7696SOL     OW34966   2.781   0.066  20.142 -0.1187  0.0619 -0.3145
 7696SOL    HW134967   2.833   0.010  20.200  0.6960  0.2498 -0.8688
 7696SOL    HW234968   2.842   0.134  20.113 -1.0355  1.0685  0.1216
 7697SOL     OW34969   3.374   0.650  13.132  0.6049  0.4905  0.2662
 7697SOL    HW134970   3.385   0.604  13.049  1.0269 -0.7222  1.0042
 7697SOL    HW234971   3.373   0.743  13.107 -0.6896  0.0681 -1.2457
 7698SOL     OW34972   3.113   3.668  18.360 -0.1452 -0.0962 -0.2004
 7698SOL    HW134973   3.146   3.724  18.430  0.3664 -3.0950  1.9824
 7698SOL    HW234974   3.025   3.701  18.343  1.0678  2.9187 -0.5910
 7699SOL     OW34975   1.965   3.788  13.019 -0.2374 -0.1709 -0.1108
 7699SOL    HW134976   2.058   3.779  13.038  0.3091  0.5315 -2.5703
 7699SOL    HW234977   1.960   3.803  12.925 -2.5880  4.1471  0.7221
 7700SOL     OW34978   3.557   1.565  19.346  0.0776  0.0222  0.2098
 7700SOL    HW134979   3.549   1.518  19.263  3.8686 -0.1549 -0.0564
 7700SOL    HW234980   3.486   1.530  19.400 -0.9654 -1.5130 -2.1475
 7701SOL     OW34981   3.349   0.667   7.589 -0.7887 -0.2148 -0.1180
 7701SOL    HW134982   3.434   0.709   7.575 -0.7291 -0.4701 -0.5516
 7701SOL    HW234983   3.334   0.671   7.683  0.2089 -1.1399  0.0781
 7702SOL     OW34984   0.131   3.386   9.183  0.3289 -0.4156 -0.2450
 7702SOL    HW134985   0.068   3.314   9.177  0.9109 -1.0534  1.2629
 7702SOL    HW234986   0.080   3.464   9.166 -0.6916 -1.0127  0.0852
 7703SOL     OW34987   1.432   1.631  15.494  0.1531  0.1233  0.0940
 7703SOL    HW134988   1.513   1.669  15.460 -1.2666  0.6117 -2.7179
 7703SOL    HW234989   1.364   1.692  15.465 -1.4230 -1.2752  0.8970
 7704SOL     OW34990   2.315   3.317  17.721  0.1925  0.4908 -0.1065
 7704SOL    HW134991   2.402   3.354  17.708 -0.6314  2.6904  0.7550
 7704SOL    HW234992   2.307   3.308  17.816 -0.1966 -0.4837 -0.2277
 7705SOL     OW34993   4.735   3.635   2.895 -0.0657  0.5513  0.8471
 7705SOL    HW134994   4.647   3.607   2.871  0.5633 -0.7044 -0.0120
 7705SOL    HW234995   4.767   3.568   2.955  0.8461  0.2447  0.0248
 7706SOL     OW34996   1.761   1.508   4.296 -0.2319  0.5468  0.0694
 7706SOL    HW134997   1.740   1.540   4.384  0.1115 -0.6673  0.5939
 7706SOL    HW234998   1.828   1.568   4.264  1.2356 -0.3055  1.5028
 7707SOL     OW34999   3.305   1.283  18.176  0.1543 -0.4162  0.0572
 7707SOL    HW135000   3.400   1.270  18.184  0.1323 -1.1148 -0.8706
 7707SOL    HW235001   3.269   1.248  18.257  0.6858 -0.1901  0.3932
 7708SOL     OW35002   2.889   4.712   4.824 -0.0518  1.1883 -0.4528
 7708SOL    HW135003   2.952   4.641   4.834 -0.8731  0.4032 -0.9355
 7708SOL    HW235004   2.901   4.766   4.902 -1.0742 -0.7583  1.0270
 7709SOL     OW35005   0.591   4.324   6.287  0.4472 -0.4839  0.2564
 7709SOL    HW135006   0.506   4.367   6.274  1.1426  0.6590 -0.4493
 7709SOL    HW235007   0.604   4.272   6.208 -0.1093 -1.5238  0.8451
 7710SOL     OW35008   3.867   1.972  14.328 -0.2313  0.6592 -0.1735
 7710SOL    HW135009   3.881   1.976  14.423  1.6104  0.3516 -0.4463
 7710SOL    HW235010   3.853   1.879  14.310 -1.5602  0.8364 -0.0575
 7711SOL     OW35011   4.657   1.088  19.877 -0.5519 -0.2105 -0.2751
 7711SOL    HW135012   4.674   1.090  19.783 -0.1416 -0.5143 -0.2106
 7711SOL    HW235013   4.636   1.178  19.900  0.5313  0.0948 -0.4489
 7712SOL     OW35014   4.602   0.879   0.607  0.3862  0.0812 -0.4726
 7712SOL    HW135015   4.601   0.900   0.700 -0.2486 -0.4625 -0.3526
 7712SOL    HW235016   4.628   0.787   0.603  0.3426  0.0822 -0.8276
 7713SOL     OW35017   0.918   4.043  18.657  0.2076 -0.4891  0.4153
 7713SOL    HW135018   0.880   4.086  18.580  0.1956  0.1775  0.7929
 7713SOL    HW235019   0.880   4.089  18.732  1.0134 -0.4510  0.8077
 7714SOL     OW35020   0.450   4.653  21.047  0.0524 -0.5871  0.4511
 7714SOL    HW135021   0.508   4.651  20.971 -0.8017 -0.1854 -0.2107
 7714SOL    HW235022   0.478   4.578  21.100  1.5544 -0.0458  0.4140
 7715SOL     OW35023   3.833   0.155   2.266  0.7587  0.4397 -0.3660
 7715SOL    HW135024   3.927   0.142   2.259  0.7799  0.5652 -0.3295
 7715SOL    HW235025   3.812   0.215   2.195  0.7425  0.5836 -0.2407
 7716SOL     OW35026   3.947   2.259   1.918 -0.2205  0.1744  0.3898
 7716SOL    HW135027   3.863   2.252   1.872  0.9578  2.2362 -2.0964
 7716SOL    HW235028   3.950   2.350   1.947  0.5701 -0.2342  1.5504
 7717SOL     OW35029   2.876   2.083  20.685  0.6961  0.2190  0.5456
 7717SOL    HW135030   2.799   2.050  20.639  0.1197  0.2172  1.5108
 7717SOL    HW235031   2.932   2.006  20.697  0.4604  0.0602  0.6137
 7718SOL     OW35032   2.028   3.394   3.954 -0.2727  0.0795  0.1555
 7718SOL    HW135033   2.077   3.314   3.973  1.3124  0.9157 -0.4352
 7718SOL    HW235034   2.060   3.457   4.019  0.8993  1.2107 -1.5115
 7719SOL     OW35035   2.529   0.777   2.858 -0.2271 -0.3027 -0.8986
 7719SOL    HW135036   2.582   0.848   2.820  0.2882 -0.8106 -1.1249
 7719SOL    HW235037   2.515   0.716   2.785 -1.1704 -0.1336 -0.8491
 7720SOL     OW35038   3.690   2.952  20.915 -0.4112 -0.1588  0.4292
 7720SOL    HW135039   3.763   3.010  20.938 -1.6854  0.2073  3.6616
 7720SOL    HW235040   3.657   2.921  21.000 -2.2102 -2.5218 -1.1411
 7721SOL     OW35041   4.605   4.104  16.810 -0.5477 -0.5488  0.3928
 7721SOL    HW135042   4.695   4.129  16.789 -1.5577  2.3186 -0.5589
 7721SOL    HW235043   4.596   4.121  16.903 -0.4847  0.3963  0.2292
 7722SOL     OW35044   4.605   3.227   5.109  0.3011 -0.3033  0.0351
 7722SOL    HW135045   4.667   3.167   5.068 -0.9931 -2.0875  0.7444
 7722SOL    HW235046   4.660   3.282   5.166  1.3209 -1.3947  0.0946
 7723SOL     OW35047   3.898   0.538   1.788  0.3116 -0.3377  0.6299
 7723SOL    HW135048   3.962   0.601   1.755  1.6860 -1.2310  1.6030
 7723SOL    HW235049   3.830   0.592   1.828  1.0671  0.5527  0.7020
 7724SOL     OW35050   1.927   3.751  20.318 -0.2134 -0.1561 -0.4940
 7724SOL    HW135051   1.882   3.670  20.345 -3.3127  1.0233 -2.1079
 7724SOL    HW235052   1.946   3.738  20.225 -0.6803  0.9535 -0.7391
 7725SOL     OW35053   2.595   2.028  18.699 -0.1287 -0.1677  0.3470
 7725SOL    HW135054   2.563   2.061  18.615 -1.1266 -0.5046  0.5974
 7725SOL    HW235055   2.595   1.933  18.689 -0.1944 -0.2061  0.7123
 7726SOL     OW35056   0.747   0.717   1.224  0.3188 -0.2546 -0.3589
 7726SOL    HW135057   0.740   0.661   1.147 -0.7675 -0.0093 -0.4408
 7726SOL    HW235058   0.739   0.657   1.298  2.1295 -0.5867 -0.4361
 7727SOL     OW35059   4.234   2.098  18.056 -0.1953  0.0852 -0.1002
 7727SOL    HW135060   4.193   2.129  17.975  0.6406  0.0183 -0.5567
 7727SOL    HW235061   4.326   2.125  18.047 -0.3359  0.9945  1.2991
 7728SOL     OW35062   1.038   4.738   3.429  0.9010  0.3632 -0.1942
 7728SOL    HW135063   0.947   4.748   3.400  1.3634  1.9253 -1.1497
 7728SOL    HW235064   1.083   4.698   3.355  1.3636  1.1987 -0.3661
 7729SOL     OW35065   2.268   2.074  19.392 -0.1921 -0.1981  0.1816
 7729SOL    HW135066   2.309   2.106  19.312 -1.2490 -0.6046 -0.5175
 7729SOL    HW235067   2.181   2.113  19.391 -0.4962 -0.8679  0.7244
 7730SOL     OW35068   3.063   0.135   3.452  0.6326  0.1298 -0.2596
 7730SOL    HW135069   3.085   0.065   3.391  1.0314 -0.3384  0.4231
 7730SOL    HW235070   3.132   0.200   3.440  2.0339 -1.0652  1.4494
 7731SOL     OW35071   3.615   3.894  13.388 -0.3279  0.7950 -0.3027
 7731SOL    HW135072   3.530   3.937  13.378 -0.4031  0.7996  0.3550
 7731SOL    HW235073   3.674   3.941  13.330 -0.3808  1.8554  0.5063
 7732SOL     OW35074   1.013   0.520   1.801 -0.2692 -0.0913  0.4183
 7732SOL    HW135075   0.962   0.601   1.797  0.4347  0.4797  2.7761
 7732SOL    HW235076   1.104   0.549   1.800 -0.0176 -0.8906  0.4157
 7733SOL     OW35077   3.492   3.366   4.853  0.0886 -0.5207 -0.2281
 7733SOL    HW135078   3.398   3.370   4.839 -0.2984  0.3127  2.6619
 7733SOL    HW235079   3.526   3.446   4.812 -0.8157  0.8645  1.7424
 7734SOL     OW35080   1.626   0.700  16.311 -0.1909  0.0598  0.5738
 7734SOL    HW135081   1.635   0.709  16.216  0.2887 -0.1117  0.6026
 7734SOL    HW235082   1.656   0.784  16.346 -2.9582  1.1079  0.4237
 7735SOL     OW35083   3.908   3.401   1.694 -0.6478  0.1594 -0.4614
 7735SOL    HW135084   3.919   3.448   1.611 -0.4636  0.9787  0.0247
 7735SOL    HW235085   3.966   3.446   1.755  0.4667 -1.4853 -0.2998
 7736SOL     OW35086   2.149   3.171  18.995 -0.9130  0.1537  0.5017
 7736SOL    HW135087   2.212   3.122  19.046 -0.1063  1.1927  0.5020
 7736SOL    HW235088   2.182   3.168  18.905 -0.3202  1.5735  0.6730
 7737SOL     OW35089   4.709   0.157   9.654  0.2284 -0.3439 -0.3978
 7737SOL    HW135090   4.742   0.070   9.635 -0.9693 -0.4648 -1.8684
 7737SOL    HW235091   4.626   0.142   9.700  1.1915 -0.0116  1.4569
 7738SOL     OW35092   0.535   0.800   0.759  0.3646 -0.0211 -0.0270
 7738SOL    HW135093   0.523   0.881   0.710 -0.4747 -0.3652 -0.3922
 7738SOL    HW235094   0.507   0.821   0.848  0.6327  0.2306 -0.0003
 7739SOL     OW35095   0.592   3.558   8.919 -0.0604  0.0051 -0.0495
 7739SOL    HW135096   0.661   3.515   8.969 -0.6825 -1.7028 -0.6721
 7739SOL    HW235097   0.539   3.604   8.984 -0.6742 -1.9453  0.8301
 7740SOL     OW35098   2.254   2.506   1.477 -0.1268 -0.1695  0.0564
 7740SOL    HW135099   2.291   2.594   1.484 -1.3132  0.4482 -1.3773
 7740SOL    HW235100   2.251   2.489   1.383 -1.5482 -1.0271  0.2603
 7741SOL     OW35101   2.207   1.751   4.765  0.0940 -0.1081  0.4187
 7741SOL    HW135102   2.132   1.809   4.785 -0.3719 -0.8945  0.9263
 7741SOL    HW235103   2.192   1.726   4.674 -0.7957 -1.0726  0.8313
 7742SOL     OW35104   4.119   3.906   0.465 -0.6327 -0.1048  0.4473
 7742SOL    HW135105   4.119   3.996   0.498  0.1565  0.0466  0.0388
 7742SOL    HW235106   4.169   3.856   0.529 -2.8703 -0.6587  1.7649
 7743SOL     OW35107   3.412   3.557  19.084  0.2222  0.0387 -0.4883
 7743SOL    HW135108   3.490   3.594  19.124 -0.5831  2.5499 -1.2760
 7743SOL    HW235109   3.445   3.498  19.016  1.4436  0.1711  0.0099
 7744SOL     OW35110   4.404   0.496   1.936 -0.2949  0.1350  0.0331
 7744SOL    HW135111   4.339   0.562   1.959 -1.1615 -0.9871  0.7863
 7744SOL    HW235112   4.393   0.428   2.001  2.2076  0.3357  0.6460
 7745SOL     OW35113   3.003   2.900  13.799 -0.1431 -0.3772  0.0216
 7745SOL    HW135114   3.066   2.923  13.731 -1.0079 -0.2504 -0.7382
 7745SOL    HW235115   2.947   2.977  13.807 -0.9510 -0.9410 -0.1647
 7746SOL     OW35116   2.696   2.532  15.060  0.0953  0.1547 -0.4000
 7746SOL    HW135117   2.714   2.478  15.136 -1.1626 -0.5460 -0.6101
 7746SOL    HW235118   2.644   2.477  15.002  0.9450  0.7155 -1.7252
 7747SOL     OW35119   3.247   1.568  18.636 -0.2672  0.4916  0.5984
 7747SOL    HW135120   3.323   1.601  18.683 -1.3288  1.3905  1.6886
 7747SOL    HW235121   3.172   1.608  18.680 -1.4140 -1.0371  0.0449
 7748SOL     OW35122   0.252   2.455  20.904  0.3820 -0.3884  0.5398
 7748SOL    HW135123   0.263   2.374  20.854  0.3648 -1.1270  1.7588
 7748SOL    HW235124   0.341   2.491  20.911  0.2165  0.3670 -1.1303
 7749SOL     OW35125   1.658   3.378   2.188 -0.0962 -0.2279 -0.1595
 7749SOL    HW135126   1.579   3.389   2.135  0.8147  0.1025 -1.4305
 7749SOL    HW235127   1.639   3.302   2.243 -1.6907  0.4514  0.2161
 7750SOL     OW35128   2.803   3.075  19.283 -0.3050  0.3148  0.3109
 7750SOL    HW135129   2.719   3.099  19.324 -0.7045 -1.3123  0.4401
 7750SOL    HW235130   2.864   3.066  19.357 -0.6061 -0.9267  0.3986
 7751SOL     OW35131   0.403   0.624  11.720 -0.0276 -0.2559  0.0277
 7751SOL    HW135132   0.334   0.593  11.778  0.5798 -2.1771 -0.2583
 7751SOL    HW235133   0.361   0.692  11.667 -1.3039 -0.3979  0.8484
 7752SOL     OW35134   4.008   3.697   0.842  0.1253 -0.5842  0.0536
 7752SOL    HW135135   4.002   3.730   0.932 -1.3140 -0.9926  0.0996
 7752SOL    HW235136   4.082   3.745   0.804  1.6809 -1.5176  1.9205
 7753SOL     OW35137   3.973   4.220   4.394  0.6506  0.0242 -0.7316
 7753SOL    HW135138   3.979   4.175   4.310  1.1207 -0.5945 -0.3716
 7753SOL    HW235139   3.976   4.313   4.373  0.0334 -0.1249 -1.4555
 7754SOL     OW35140   2.574   1.818  19.658  0.4863 -0.2537 -0.2676
 7754SOL    HW135141   2.534   1.856  19.580  0.7236 -1.1968 -0.8518
 7754SOL    HW235142   2.534   1.864  19.732 -0.4914 -0.0817 -0.9138
 7755SOL     OW35143   1.911   3.414  18.341  0.0166 -0.2300  0.2005
 7755SOL    HW135144   1.975   3.420  18.270 -0.7478 -0.4549 -0.5067
 7755SOL    HW235145   1.893   3.505  18.365  0.4909 -0.1614  0.2997
 7756SOL     OW35146   2.574   4.624  17.297  0.5688 -0.9533 -0.5812
 7756SOL    HW135147   2.586   4.607  17.391 -1.6537 -1.1856 -0.3373
 7756SOL    HW235148   2.506   4.691  17.293  1.3425 -0.2535 -2.0025
 7757SOL     OW35149   4.435   0.328  15.860  0.6361  0.4939 -0.0096
 7757SOL    HW135150   4.455   0.235  15.862 -0.3700  0.2444 -2.2066
 7757SOL    HW235151   4.343   0.333  15.888  0.4406  0.7705 -0.7173
 7758SOL     OW35152   0.371   0.528  20.295 -0.2300 -0.1211 -0.4174
 7758SOL    HW135153   0.338   0.615  20.320 -0.5702 -0.5988  0.8149
 7758SOL    HW235154   0.292   0.475  20.285  0.0488 -0.6955  0.3788
 7759SOL     OW35155   3.578   0.499   5.951  0.0363  0.1045  0.8248
 7759SOL    HW135156   3.495   0.496   6.000 -0.7449  1.9032 -0.3732
 7759SOL    HW235157   3.554   0.536   5.866  1.8268 -0.7577 -0.0545
 7760SOL     OW35158   0.484   1.802  20.994 -0.5109  0.7076  0.0149
 7760SOL    HW135159   0.457   1.894  20.988  1.1056  1.2118  0.6389
 7760SOL    HW235160   0.519   1.792  21.082 -0.3348 -0.4156 -0.1790
 7761SOL     OW35161   0.610   1.111   5.969  0.0938  0.0962  0.2529
 7761SOL    HW135162   0.535   1.069   6.010  0.5802 -1.0493 -0.0213
 7761SOL    HW235163   0.574   1.188   5.925 -0.4620  1.1570  2.5915
 7762SOL     OW35164   0.996   3.820   4.163  0.2109  0.2685 -0.3028
 7762SOL    HW135165   1.081   3.783   4.186 -0.1083  0.0519  0.5479
 7762SOL    HW235166   0.951   3.749   4.117 -0.2970 -0.3134  1.0878
 7763SOL     OW35167   3.746   0.114   5.853  0.6679  0.1620 -0.7838
 7763SOL    HW135168   3.819   0.168   5.825  0.5077 -0.0314 -1.5622
 7763SOL    HW235169   3.722   0.149   5.939  1.7904  0.1028 -0.4513
 7764SOL     OW35170   0.137   2.585   0.281 -0.3118 -0.2561 -0.8342
 7764SOL    HW135171   0.111   2.612   0.369  1.0155 -0.6500 -0.3187
 7764SOL    HW235172   0.068   2.526   0.251 -1.0487  0.3446 -0.2762
 7765SOL     OW35173   0.848   4.468   4.042 -0.4579 -0.3737  0.2278
 7765SOL    HW135174   0.819   4.377   4.039 -0.7871 -0.2797  0.5520
 7765SOL    HW235175   0.930   4.465   4.090  1.0729 -0.9022 -2.3830
 7766SOL     OW35176   1.411   1.527   5.767  0.1165  0.4154  0.2822
 7766SOL    HW135177   1.411   1.507   5.860 -2.1336  1.7935  0.5627
 7766SOL    HW235178   1.332   1.579   5.753  0.7314  0.6641 -2.2873
 7767SOL     OW35179   3.693   2.630  15.173 -0.1915 -0.5524 -0.5303
 7767SOL    HW135180   3.730   2.681  15.101 -2.6087  0.4266 -1.0466
 7767SOL    HW235181   3.732   2.669  15.252 -1.9879  2.0048 -0.9348
 7768SOL     OW35182   3.374   1.700   3.553 -0.3002 -0.2841 -0.2767
 7768SOL    HW135183   3.347   1.608   3.557 -0.4903 -0.2682 -1.3158
 7768SOL    HW235184   3.464   1.700   3.585 -0.1771 -0.8809 -0.6212
 7769SOL     OW35185   0.422   1.395   7.949 -0.5005  0.1237 -0.2053
 7769SOL    HW135186   0.435   1.317   8.002  1.5311  0.9568  0.5088
 7769SOL    HW235187   0.509   1.434   7.940 -1.6949  3.0212  0.5425
 7770SOL     OW35188   4.719   0.324   4.692 -0.2359  0.3313 -0.0721
 7770SOL    HW135189   4.751   0.338   4.782 -1.0998 -2.3721  0.6420
 7770SOL    HW235190   4.695   0.412   4.662  1.7054  1.4812  1.7186
 7771SOL     OW35191   0.226   1.344   1.463 -0.4967  0.2366  0.5522
 7771SOL    HW135192   0.149   1.394   1.438  0.6181  0.9851 -1.3369
 7771SOL    HW235193   0.301   1.398   1.437  0.6852 -1.0738  1.1858
 7772SOL     OW35194   0.834   0.468  14.057  0.0974 -0.1509 -0.5097
 7772SOL    HW135195   0.905   0.420  14.100  0.8245  0.0891 -1.4271
 7772SOL    HW235196   0.863   0.559  14.056 -0.9608  0.1911  0.5796
 7773SOL     OW35197   3.558   1.353   1.484  1.0415 -0.3897  0.0466
 7773SOL    HW135198   3.528   1.308   1.405 -0.1598 -0.0240  0.2905
 7773SOL    HW235199   3.618   1.291   1.526  1.2087 -0.8231 -0.8347
 7774SOL     OW35200   1.762   0.902  19.839 -0.2348  0.0063  0.2241
 7774SOL    HW135201   1.829   0.849  19.882 -0.1465 -0.8124 -0.9017
 7774SOL    HW235202   1.718   0.840  19.780 -0.4471  1.0801 -0.7368
 7775SOL     OW35203   2.477   0.486  17.220 -0.2015  0.1203 -0.3740
 7775SOL    HW135204   2.529   0.566  17.225  1.4465 -0.8795 -1.4439
 7775SOL    HW235205   2.441   0.474  17.308 -0.1144  1.8168 -0.1150
 7776SOL     OW35206   0.575   3.861   2.796  0.4675  0.1621  0.0291
 7776SOL    HW135207   0.488   3.874   2.760 -0.4341 -1.8642  1.4585
 7776SOL    HW235208   0.624   3.816   2.727  0.5286  1.7297 -0.9506
 7777SOL     OW35209   1.871   0.515   3.757 -0.4800 -0.0133 -0.2128
 7777SOL    HW135210   1.800   0.504   3.820  0.7637 -1.2465  0.9574
 7777SOL    HW235211   1.894   0.425   3.731  0.8936  0.3812 -0.3394
 7778SOL     OW35212   4.244   4.748  15.678 -0.0853 -0.1267 -0.0278
 7778SOL    HW135213   4.163   4.702  15.655  0.5393 -1.7016  0.8645
 7778SOL    HW235214   4.309   4.678  15.687  0.5356  0.8011  2.8112
 7779SOL     OW35215   1.172   0.224  15.498  0.6130  0.3398 -0.0553
 7779SOL    HW135216   1.112   0.185  15.435 -0.4062  0.6606  0.7217
 7779SOL    HW235217   1.115   0.264  15.564  1.6706 -0.0611  1.1040
 7780SOL     OW35218   4.331   0.063  16.455 -0.3769 -0.2712 -0.0153
 7780SOL    HW135219   4.328   4.772  16.523  1.2814  0.4296  0.7545
 7780SOL    HW235220   4.390   0.027  16.388 -0.9591 -0.3930 -0.4616
 7781SOL     OW35221   2.308   4.321   1.164  0.1859 -0.8891  0.0089
 7781SOL    HW135222   2.399   4.296   1.148  0.1771 -0.0266 -1.3531
 7781SOL    HW235223   2.266   4.241   1.195  1.3986 -1.3015  0.5651
 7782SOL     OW35224   2.393   0.839   7.301  0.6306 -0.6347 -0.2741
 7782SOL    HW135225   2.336   0.908   7.333  0.9662 -0.4140 -0.1614
 7782SOL    HW235226   2.333   0.771   7.270  0.3130 -0.8251  0.7590
 7783SOL     OW35227   1.871   4.060  20.834 -0.6002 -0.3305  0.0552
 7783SOL    HW135228   1.960   4.054  20.799  0.2319  0.5961  1.9745
 7783SOL    HW235229   1.831   3.976  20.812  0.8349 -0.8533 -0.6057
 7784SOL     OW35230   4.047   0.346  13.678  0.3430  0.2789  0.0918
 7784SOL    HW135231   4.065   0.383  13.765  0.6810  0.4077 -0.0323
 7784SOL    HW235232   3.969   0.292  13.691 -1.6506  3.1011 -0.3402
 7785SOL     OW35233   0.098   1.200   3.186 -0.0151 -0.0345  0.3688
 7785SOL    HW135234   0.160   1.202   3.113 -1.4331  1.2246 -0.7962
 7785SOL    HW235235   0.086   1.292   3.210 -3.4692 -0.0924 -1.1266
 7786SOL     OW35236   0.789   2.792  19.849  0.2904 -0.0412 -0.3835
 7786SOL    HW135237   0.773   2.857  19.917 -0.3946  0.3562 -0.9253
 7786SOL    HW235238   0.836   2.722  19.894  0.0716  0.3380  0.4432
 7787SOL     OW35239   0.727   2.094   2.712  0.0434 -0.2536  0.4774
 7787SOL    HW135240   0.734   2.033   2.638  0.8235 -1.0020  1.1629
 7787SOL    HW235241   0.656   2.153   2.688  0.8954  0.0548 -1.2687
 7788SOL     OW35242   0.959   2.391  19.516  0.9599 -0.1345  0.3417
 7788SOL    HW135243   1.004   2.470  19.547 -2.0956  0.9990  1.8634
 7788SOL    HW235244   0.903   2.421  19.445  0.8422 -1.1806 -0.0079
 7789SOL     OW35245   3.038   4.061  21.083 -0.4053  0.0148 -0.1236
 7789SOL    HW135246   3.081   4.018  21.009 -0.4991  0.0998 -0.2273
 7789SOL    HW235247   2.952   4.086  21.050 -0.1766  0.6991 -0.2036
 7790SOL     OW35248   4.043   2.362  20.155 -0.2898  0.2821 -0.3210
 7790SOL    HW135249   4.058   2.426  20.224 -0.2834  0.9787 -0.9662
 7790SOL    HW235250   4.120   2.368  20.099 -0.3020 -0.2687 -0.3981
 7791SOL     OW35251   1.096   0.674  16.612  0.2222  0.4869 -0.0371
 7791SOL    HW135252   1.087   0.743  16.678  0.4942  0.5004 -0.0114
 7791SOL    HW235253   1.191   0.662  16.603  0.1776  0.0403  0.0427
 7792SOL     OW35254   2.856   0.999  12.249 -1.0771 -0.2373 -0.0100
 7792SOL    HW135255   2.803   1.048  12.186 -0.3575 -0.6237 -0.9243
 7792SOL    HW235256   2.795   0.939  12.291 -2.0373  1.7626  1.4075
 7793SOL     OW35257   3.036   1.764  12.382  0.0541 -0.1729  0.2800
 7793SOL    HW135258   3.013   1.820  12.457  1.2105  1.0567 -0.2947
 7793SOL    HW235259   3.050   1.678  12.421 -0.8235  0.1250  1.2879
 7794SOL     OW35260   1.066   2.858   3.067  0.1954  0.3839  0.1322
 7794SOL    HW135261   1.127   2.931   3.057 -0.2094  0.5755 -0.8653
 7794SOL    HW235262   0.979   2.898   3.063  0.0001  0.0748  1.3025
 7795SOL     OW35263   0.323   0.054  16.572  0.2548 -0.3771  0.3491
 7795SOL    HW135264   0.303   0.011  16.655  0.0947 -2.8068 -0.9486
 7795SOL    HW235265   0.241   0.097  16.546 -0.1240 -0.9332  0.6376
 7796SOL     OW35266   3.175   2.728   3.624 -0.2001 -0.4422 -0.0659
 7796SOL    HW135267   3.260   2.688   3.609 -0.2351 -0.9026  1.0142
 7796SOL    HW235268   3.113   2.655   3.615 -0.5675  0.0718 -1.8441
 7797SOL     OW35269   2.223   2.770   5.814 -0.3023  0.3598  0.3994
 7797SOL    HW135270   2.301   2.824   5.829 -0.0579  0.1768 -0.1940
 7797SOL    HW235271   2.153   2.834   5.799 -0.1401  0.5226  0.3220
 7798SOL     OW35272   4.076   4.329  19.059  0.4201  0.3205 -0.4886
 7798SOL    HW135273   4.159   4.309  19.018 -0.0109 -1.4850 -0.4614
 7798SOL    HW235274   4.088   4.305  19.151  0.3126  1.2842 -0.2258
 7799SOL     OW35275   4.001   4.761   8.367  0.0912 -0.4421  0.7816
 7799SOL    HW135276   4.071   4.771   8.432 -0.9359 -0.8080  1.9517
 7799SOL    HW235277   3.958   4.679   8.391 -3.2924  1.8344  2.5074
 7800SOL     OW35278   3.753   2.346  15.625  0.4720  0.4069  0.3023
 7800SOL    HW135279   3.661   2.331  15.605  0.9484 -0.9207 -0.8781
 7800SOL    HW235280   3.779   2.269  15.676  2.0369 -1.1898 -2.9043
 7801SOL     OW35281   3.589   1.158   8.084  1.0697 -0.4110 -0.2780
 7801SOL    HW135282   3.575   1.227   8.018  2.2224 -0.0576 -0.1429
 7801SOL    HW235283   3.559   1.197   8.166 -0.4235 -0.8714 -0.6094
 7802SOL     OW35284   1.781   1.221   3.699  0.0099  0.1304  0.3405
 7802SOL    HW135285   1.843   1.168   3.649  0.0295 -0.8156  1.3523
 7802SOL    HW235286   1.833   1.256   3.772 -0.4733 -0.1047  0.8030
 7803SOL     OW35287   0.677   4.569   0.451 -0.0417 -0.3103  0.2026
 7803SOL    HW135288   0.644   4.547   0.538  1.0088  0.4276  0.7770
 7803SOL    HW235289   0.770   4.586   0.464  0.7926 -3.5217 -1.6302
 7804SOL     OW35290   2.509   1.974  10.916 -0.0632  0.2077  0.6146
 7804SOL    HW135291   2.548   1.899  10.872 -0.6860  0.1165  0.2051
 7804SOL    HW235292   2.583   2.028  10.942  0.3649 -0.2974  0.4542
 7805SOL     OW35293   3.885   3.560  18.998  0.5821 -0.3133  0.2746
 7805SOL    HW135294   3.824   3.497  18.959  1.2270 -1.3935  1.0006
 7805SOL    HW235295   3.932   3.598  18.924  0.3918 -0.9010 -0.1472
 7806SOL     OW35296   0.959   2.225  19.966  0.1260  0.0352  0.1449
 7806SOL    HW135297   1.006   2.302  19.997  2.1343 -0.8075 -0.7916
 7806SOL    HW235298   0.916   2.190  20.044 -0.3699  1.8087  0.6671
 7807SOL     OW35299   2.007   1.971  15.648  0.3139  0.2923  0.0104
 7807SOL    HW135300   1.959   1.981  15.566  0.7041 -2.7412 -0.6125
 7807SOL    HW235301   1.974   2.040  15.705 -4.1094 -1.2762 -0.7194
 7808SOL     OW35302   3.535   4.346   1.389  0.1524  0.0548 -0.0120
 7808SOL    HW135303   3.465   4.404   1.359  1.2717  0.6817 -1.3924
 7808SOL    HW235304   3.580   4.397   1.457  0.0256  0.1155  0.0276
 7809SOL     OW35305   1.800   0.259   0.600 -0.3753  0.0994  0.1011
 7809SOL    HW135306   1.741   0.203   0.549  0.2718 -1.4158  1.0409
 7809SOL    HW235307   1.771   0.348   0.580 -1.8175 -0.5892 -0.8706
 7810SOL     OW35308   2.786   4.104   0.900  0.7116 -0.3272  0.3865
 7810SOL    HW135309   2.876   4.114   0.869 -0.0848  1.6719 -1.3234
 7810SOL    HW235310   2.792   4.115   0.995  2.2196  0.2219  0.2369
 7811SOL     OW35311   3.492   4.709  20.637 -0.1085 -0.0331 -0.7805
 7811SOL    HW135312   3.445   4.724  20.555 -0.1888 -2.4926 -1.1664
 7811SOL    HW235313   3.455   4.629  20.672  2.6729 -1.1152 -0.3122
 7812SOL     OW35314   1.515   1.106   3.781  0.5386 -0.0475  0.3520
 7812SOL    HW135315   1.604   1.137   3.765  0.6832  0.2265  1.6864
 7812SOL    HW235316   1.523   1.011   3.789  0.4425 -0.2063 -1.3460
 7813SOL     OW35317   4.734   0.265  20.998 -0.6092 -0.2511  0.1461
 7813SOL    HW135318   4.654   0.317  21.005 -0.8875 -0.9038  1.6906
 7813SOL    HW235319   4.771   0.266  21.086  0.5578 -0.7914 -0.3430
 7814SOL     OW35320   4.196   3.782   5.423 -0.6499 -0.5833  0.0053
 7814SOL    HW135321   4.148   3.752   5.346  0.9468 -3.3126  0.0590
 7814SOL    HW235322   4.167   3.725   5.493  0.1594 -0.0544  0.7740
 7815SOL     OW35323   1.120   0.359  15.890  0.4471 -0.6677 -0.5062
 7815SOL    HW135324   1.123   0.416  15.813 -1.2669 -0.6534 -0.5610
 7815SOL    HW235325   1.078   0.412  15.957 -0.7967 -1.7514 -0.4457
 7816SOL     OW35326   2.434   3.438  20.367  0.3902 -0.3254 -0.1197
 7816SOL    HW135327   2.514   3.386  20.362 -0.3485 -1.5640  1.1115
 7816SOL    HW235328   2.372   3.382  20.413 -0.7364  1.2163  0.2256
 7817SOL     OW35329   4.194   0.959   1.846  0.1616 -0.0233  0.2261
 7817SOL    HW135330   4.284   0.947   1.879  0.8865  1.7200 -1.1428
 7817SOL    HW235331   4.192   0.911   1.763 -0.0522  0.3207  0.0341
 7818SOL     OW35332   3.904   3.076   1.476 -0.2678 -0.5104  0.5377
 7818SOL    HW135333   3.843   3.148   1.486  1.2431  0.9446 -0.7549
 7818SOL    HW235334   3.851   3.003   1.445 -1.4060  0.6407 -0.2024
 7819SOL     OW35335   1.091   3.441  16.360  0.2165 -0.2390  0.4090
 7819SOL    HW135336   1.074   3.507  16.427 -0.0143 -0.7622  0.8599
 7819SOL    HW235337   1.187   3.441  16.351  0.1817  0.5728 -0.0095
 7820SOL     OW35338   1.831   3.398  10.912 -0.4982  0.0357 -0.1316
 7820SOL    HW135339   1.812   3.469  10.973 -1.0365 -0.4988  0.3201
 7820SOL    HW235340   1.877   3.332  10.964  1.3550  0.7273 -0.9072
 7821SOL     OW35341   2.252   1.994  17.346  0.1351 -0.8485  0.2494
 7821SOL    HW135342   2.302   2.026  17.422  0.5829  1.5772 -1.0700
 7821SOL    HW235343   2.194   1.927  17.383  1.1809 -0.5160  2.5482
 7822SOL     OW35344   0.933   3.514  17.250 -0.1660  0.1211  0.6832
 7822SOL    HW135345   0.838   3.505  17.258 -0.0715  0.6601  2.4291
 7822SOL    HW235346   0.945   3.600  17.210 -0.3213  0.9882  2.5251
 7823SOL     OW35347   0.459   3.751  20.016  0.3733 -0.4911 -0.9050
 7823SOL    HW135348   0.540   3.751  20.067  0.5749  1.1694 -1.2115
 7823SOL    HW235349   0.427   3.661  20.022  1.0222 -0.5965  1.1614
 7824SOL     OW35350   3.554   1.373  11.374 -0.4557  0.1068  0.3952
 7824SOL    HW135351   3.473   1.339  11.413 -0.9289 -0.1842 -0.8209
 7824SOL    HW235352   3.614   1.383  11.448 -1.0027 -1.4074  1.0439
 7825SOL     OW35353   1.866   2.042   8.280 -0.3313  0.0354 -0.2186
 7825SOL    HW135354   1.775   2.016   8.292 -0.5828  0.0092 -2.3395
 7825SOL    HW235355   1.869   2.134   8.307 -0.6988 -0.3635  1.1950
 7826SOL     OW35356   0.292   1.860  17.760  0.3724  0.3403  0.0861
 7826SOL    HW135357   0.231   1.934  17.765  1.0570  0.7224  2.8416
 7826SOL    HW235358   0.312   1.840  17.851  1.6882 -2.0128 -0.7282
 7827SOL     OW35359   1.586   0.846   4.675 -0.1322 -0.1224 -0.3241
 7827SOL    HW135360   1.676   0.836   4.707  0.5027  1.6521 -1.5540
 7827SOL    HW235361   1.531   0.819   4.748  1.3976 -0.4427  0.6993
 7828SOL     OW35362   3.177   3.586   8.709  0.0482  0.2113  0.0922
 7828SOL    HW135363   3.195   3.591   8.615  1.2024  0.9674  0.3472
 7828SOL    HW235364   3.147   3.674   8.732 -2.5693 -0.6337 -0.0347
 7829SOL     OW35365   1.613   0.877  19.447 -0.4187 -0.3568 -0.1831
 7829SOL    HW135366   1.692   0.840  19.408 -0.2975  0.8911 -1.0889
 7829SOL    HW235367   1.620   0.971  19.432 -1.6087 -0.1452  0.5932
 7830SOL     OW35368   2.449   4.368  16.328 -0.1403 -0.2374 -0.2477
 7830SOL    HW135369   2.503   4.309  16.275 -0.1552 -2.2502  1.9576
 7830SOL    HW235370   2.510   4.435  16.359  0.0631  0.3984 -1.9835
 7831SOL     OW35371   0.218   4.624  19.702 -0.0004  0.4715  0.1689
 7831SOL    HW135372   0.285   4.692  19.692  0.9998 -0.5690 -0.2893
 7831SOL    HW235373   0.268   4.544  19.720 -0.8853 -1.0423 -3.9303
 7832SOL     OW35374   1.800   1.784   1.183 -0.2876  0.5075  0.2340
 7832SOL    HW135375   1.867   1.844   1.217 -1.9571  2.5241 -0.0485
 7832SOL    HW235376   1.789   1.719   1.252 -0.6414  2.2270  1.7911
 7833SOL     OW35377   4.155   2.910  16.443  0.2664 -0.9441 -0.3886
 7833SOL    HW135378   4.102   2.848  16.392  0.1186 -0.8754 -0.3203
 7833SOL    HW235379   4.230   2.858  16.473 -0.4964 -1.4069  0.7059
 7834SOL     OW35380   1.495   3.820   5.121  0.0666  0.5590  0.4944
 7834SOL    HW135381   1.573   3.769   5.100  0.2434  0.9960  0.1039
 7834SOL    HW235382   1.525   3.910   5.128 -0.6660  0.9135 -1.0606
 7835SOL     OW35383   3.351   0.782  20.431  0.4469  0.7730 -0.0212
 7835SOL    HW135384   3.332   0.787  20.525 -0.4008  1.5749 -0.2338
 7835SOL    HW235385   3.379   0.870  20.407 -0.5858  0.9016 -0.7792
 7836SOL     OW35386   3.434   0.106   1.816  0.2272 -0.8510  0.5695
 7836SOL    HW135387   3.345   0.098   1.781  1.2205  0.2280 -2.1877
 7836SOL    HW235388   3.491   0.089   1.742  2.3326  2.4310  1.4056
 7837SOL     OW35389   4.388   1.876   3.186 -0.1020 -0.1365 -0.2317
 7837SOL    HW135390   4.314   1.911   3.137 -0.6863 -0.8584  0.1315
 7837SOL    HW235391   4.396   1.934   3.262  0.0379  0.2508 -0.5384
 7838SOL     OW35392   1.750   0.106   5.228  0.2385 -0.2048 -0.0839
 7838SOL    HW135393   1.732   0.141   5.141 -1.2847 -0.3837  0.1604
 7838SOL    HW235394   1.674   0.132   5.281  0.8364 -0.6798  1.0184
 7839SOL     OW35395   1.653   2.966   7.474 -0.2841  0.3190  0.5309
 7839SOL    HW135396   1.579   2.969   7.413 -0.8373  4.0401  1.3808
 7839SOL    HW235397   1.613   2.952   7.559  0.0547  1.5093  0.8828
 7840SOL     OW35398   3.684   2.248   7.597 -0.5320  0.2439  0.9544
 7840SOL    HW135399   3.589   2.238   7.598 -0.6700  1.3612 -1.7892
 7840SOL    HW235400   3.699   2.331   7.644 -0.8733 -0.2206  1.8904
 7841SOL     OW35401   2.345   1.451  13.105  0.1020  0.3157  0.4762
 7841SOL    HW135402   2.426   1.501  13.107  0.2291  0.1401 -0.2786
 7841SOL    HW235403   2.317   1.453  13.013 -0.2875 -0.3587  0.5771
 7842SOL     OW35404   1.332   2.659  15.267 -0.2461 -0.0119  0.1721
 7842SOL    HW135405   1.414   2.701  15.292 -0.8371  1.2640 -0.0153
 7842SOL    HW235406   1.321   2.587  15.330  1.4284 -0.7073 -0.3195
 7843SOL     OW35407   2.678   2.795   5.192 -0.4430 -0.2767 -0.6073
 7843SOL    HW135408   2.747   2.737   5.159  1.0604  0.9445  0.4076
 7843SOL    HW235409   2.682   2.872   5.135 -0.0141  0.4138  0.3633
 7844SOL     OW35410   1.112   3.693   1.599 -0.3654 -0.4659 -0.2320
 7844SOL    HW135411   1.060   3.709   1.677  0.6521 -0.5458  0.4594
 7844SOL    HW235412   1.058   3.725   1.527 -0.5949  1.1279  0.6479
 7845SOL     OW35413   4.691   3.902   4.273 -0.5030  0.5219  0.4908
 7845SOL    HW135414   4.675   3.810   4.253  0.3445  0.7577 -1.2188
 7845SOL    HW235415   4.668   3.949   4.193 -0.1990  1.7304  1.1039
 7846SOL     OW35416   3.541   3.123  15.334 -0.3626  0.2926  0.8382
 7846SOL    HW135417   3.457   3.076  15.339  0.8975 -2.1142 -0.5412
 7846SOL    HW235418   3.589   3.093  15.410  1.2916 -2.2684 -1.2352
 7847SOL     OW35419   3.236   3.246   7.736 -0.5259 -0.2895  0.1039
 7847SOL    HW135420   3.199   3.167   7.695 -1.8535  0.1676  0.4285
 7847SOL    HW235421   3.264   3.300   7.663  1.4747 -1.5835 -0.1055
 7848SOL     OW35422   2.480   0.321   3.700  0.9716  0.4441 -0.0396
 7848SOL    HW135423   2.512   0.306   3.610  0.5772 -1.8076  0.1856
 7848SOL    HW235424   2.414   0.390   3.691  1.8694  1.1435 -1.3089
 7849SOL     OW35425   3.057   3.849   8.749 -0.2858  0.1896 -0.2092
 7849SOL    HW135426   2.980   3.806   8.785 -1.6900  0.3264 -3.0551
 7849SOL    HW235427   3.043   3.942   8.764 -0.5865  0.2014 -0.5749
 7850SOL     OW35428   3.138   0.011   1.311  0.3117  0.4139  0.7038
 7850SOL    HW135429   3.056   0.020   1.360  0.2931  1.4262  0.4905
 7850SOL    HW235430   3.111   4.767   1.222  0.2904  0.9819  0.5824
 7851SOL     OW35431   4.770   1.754  20.098  0.0780 -0.1696 -0.3130
 7851SOL    HW135432   0.019   1.674  20.143  1.9096  0.6702  0.1583
 7851SOL    HW235433   4.675   1.761  20.112  0.5936 -0.0447  3.1431
 7852SOL     OW35434   0.760   2.549   0.654 -0.1316 -0.0887  0.6148
 7852SOL    HW135435   0.715   2.561   0.738  0.4028 -1.6079  1.1040
 7852SOL    HW235436   0.729   2.464   0.622 -0.6134  0.6529 -0.8901
 7853SOL     OW35437   1.373   1.985   0.636  0.3336 -0.3054  0.6259
 7853SOL    HW135438   1.382   2.003   0.729 -0.1987  0.4628  0.5309
 7853SOL    HW235439   1.333   1.898   0.632  0.6743 -0.4847  1.1094
 7854SOL     OW35440   4.663   1.115   4.750  0.0964  0.0001  0.1717
 7854SOL    HW135441   4.607   1.173   4.699 -0.9063 -0.5546  0.6399
 7854SOL    HW235442   4.627   1.028   4.736  0.4907 -0.2919  0.9456
 7855SOL     OW35443   4.655   3.452  17.627  0.0050 -0.5875 -0.5024
 7855SOL    HW135444   4.590   3.511  17.663  0.7301  0.3218 -0.6905
 7855SOL    HW235445   4.606   3.373  17.603 -0.2437 -1.7735  3.8678
 7856SOL     OW35446   3.671   1.164  20.517  0.1252 -0.5957  0.1432
 7856SOL    HW135447   3.640   1.243  20.561  1.0214  0.7800 -1.7263
 7856SOL    HW235448   3.735   1.126  20.577  1.9117  1.6932 -0.3392
 7857SOL     OW35449   2.835   3.796  21.058  0.4263  0.0298  0.0170
 7857SOL    HW135450   2.847   3.746  20.978 -1.4190 -2.9282  1.5962
 7857SOL    HW235451   2.878   3.743  21.126 -0.7104  1.0522  1.5285
 7858SOL     OW35452   1.441   0.414   5.883 -0.2241  0.4590 -0.3362
 7858SOL    HW135453   1.392   0.485   5.922 -2.1157 -1.9926  1.7739
 7858SOL    HW235454   1.509   0.393   5.947  0.0929  0.1076 -0.7811
 7859SOL     OW35455   3.773   2.873   2.730  0.1122  0.1935 -0.6515
 7859SOL    HW135456   3.864   2.846   2.739 -0.3447 -1.3189 -0.5273
 7859SOL    HW235457   3.777   2.955   2.680  1.6965  1.4889  1.6026
 7860SOL     OW35458   2.050   2.289   4.032  0.7446  0.1466  0.0990
 7860SOL    HW135459   2.115   2.350   4.068  0.4331 -0.3726  1.5285
 7860SOL    HW235460   2.047   2.311   3.938  0.5341  2.4356  0.6243
 7861SOL     OW35461   2.724   3.852  15.665 -0.3465  0.0662  0.4213
 7861SOL    HW135462   2.724   3.946  15.649 -0.0391  0.1838  1.1256
 7861SOL    HW235463   2.743   3.843  15.758  1.7655 -0.7550 -0.0847
 7862SOL     OW35464   4.569   3.919   0.955 -0.1396 -0.6054  0.2439
 7862SOL    HW135465   4.511   3.989   0.926  4.0223  1.6152 -2.6170
 7862SOL    HW235466   4.580   3.863   0.878  2.1142 -0.6357  0.5959
 7863SOL     OW35467   3.618   4.320  18.923  0.0986  0.0148 -0.0608
 7863SOL    HW135468   3.560   4.353  18.854  0.8764  1.4786 -0.0063
 7863SOL    HW235469   3.706   4.340  18.893  0.4899 -0.3186  0.8492
 7864SOL     OW35470   0.133   1.327  20.013  0.9397 -0.3557 -0.1251
 7864SOL    HW135471   0.157   1.234  20.003 -1.6557 -1.1125  0.6553
 7864SOL    HW235472   0.078   1.346  19.937 -0.6280 -0.1529  1.0504
 7865SOL     OW35473   4.182   2.815  11.306  0.1139  0.3388 -0.5019
 7865SOL    HW135474   4.135   2.760  11.368  0.0979  1.0407  0.1102
 7865SOL    HW235475   4.120   2.884  11.282  0.1973  0.1988 -1.1188
 7866SOL     OW35476   2.454   1.206  17.872 -0.1438  0.5871  0.1787
 7866SOL    HW135477   2.384   1.178  17.930 -1.4438  1.2202 -1.0798
 7866SOL    HW235478   2.461   1.136  17.807 -0.4782  1.1409 -0.4522
 7867SOL     OW35479   2.242   2.415   2.203 -0.3400 -0.1958  0.0772
 7867SOL    HW135480   2.269   2.364   2.126  0.2036 -1.9947  1.4487
 7867SOL    HW235481   2.303   2.389   2.271 -0.9548  1.2527  1.1795
 7868SOL     OW35482   3.998   1.306   2.121 -0.2897 -0.4296 -0.4840
 7868SOL    HW135483   3.937   1.322   2.049 -2.0674  1.9089  1.5513
 7868SOL    HW235484   3.951   1.249   2.181  0.7457 -1.3938 -0.5886
 7869SOL     OW35485   0.883   2.190   6.703 -0.0099  0.0183  0.8285
 7869SOL    HW135486   0.921   2.240   6.776  0.4643  0.3303  0.3724
 7869SOL    HW235487   0.893   2.099   6.729 -0.6217  0.1561  1.5428
 7870SOL     OW35488   3.258   1.152  19.909 -0.2903 -0.2751 -0.3148
 7870SOL    HW135489   3.223   1.126  19.994  0.7255 -1.5615 -0.2948
 7870SOL    HW235490   3.340   1.103  19.901 -0.9370 -0.9963 -2.5098
 7871SOL     OW35491   3.254   2.615   2.439  0.1982 -0.2217  0.1308
 7871SOL    HW135492   3.251   2.519   2.450 -2.1271 -0.2098 -0.3329
 7871SOL    HW235493   3.296   2.647   2.518  1.0179 -1.6576  0.2722
 7872SOL     OW35494   1.582   4.709  14.252 -0.2456  0.4241  0.5823
 7872SOL    HW135495   1.674   4.687  14.237 -0.1686  0.9155  0.3284
 7872SOL    HW235496   1.569   0.013  14.202 -0.9223  0.1224  0.2886
 7873SOL     OW35497   1.615   2.311  20.686 -0.1130  0.2810  0.0488
 7873SOL    HW135498   1.527   2.275  20.679 -0.2430  0.4879  0.6571
 7873SOL    HW235499   1.619   2.380  20.620 -0.0647 -0.4450 -0.7005
 7874SOL     OW35500   4.364   4.021  16.971 -0.3959 -0.5369  0.3568
 7874SOL    HW135501   4.408   3.936  16.975  0.0667 -0.1994  2.5689
 7874SOL    HW235502   4.373   4.049  16.880 -1.0283 -3.1221 -0.4789
 7875SOL     OW35503   2.965   2.614  16.358  0.0944  0.1199  0.2279
 7875SOL    HW135504   3.043   2.601  16.304  0.1557  0.4776  0.2259
 7875SOL    HW235505   2.899   2.649  16.298 -0.0675 -0.1936  0.2276
 7876SOL     OW35506   4.636   2.882   1.514  0.4636  0.1885  0.6633
 7876SOL    HW135507   4.614   2.839   1.431 -1.7666 -0.2075  1.4676
 7876SOL    HW235508   4.713   2.835   1.545  0.2976 -0.7671 -0.3584
 7877SOL     OW35509   1.868   4.196   4.182 -0.1360  0.0769 -0.0260
 7877SOL    HW135510   1.776   4.177   4.200  0.4417 -1.1431  1.7027
 7877SOL    HW235511   1.908   4.110   4.166  0.4146  0.7239 -2.0981
 7878SOL     OW35512   4.748   3.657  19.205  0.5158  0.3889  0.4895
 7878SOL    HW135513   0.003   3.741  19.174 -1.2564 -0.1538 -2.7292
 7878SOL    HW235514   0.049   3.615  19.243  1.4293  3.3638  1.9227
 7879SOL     OW35515   0.285   2.355  17.935 -0.0644 -0.1262 -0.2122
 7879SOL    HW135516   0.201   2.387  17.967 -1.1371 -1.9771 -1.2041
 7879SOL    HW235517   0.327   2.316  18.012 -0.6692 -0.4232 -0.0421
 7880SOL     OW35518   4.685   1.375   8.021 -0.3266 -0.2317 -0.0990
 7880SOL    HW135519   4.744   1.449   8.032 -1.0525  0.1804  1.0214
 7880SOL    HW235520   4.739   1.298   8.039  0.5035  0.0056 -1.5732
 7881SOL     OW35521   2.697   2.919   8.156 -0.7802 -0.4455  0.1671
 7881SOL    HW135522   2.746   2.856   8.209 -1.5767 -1.4603 -0.2841
 7881SOL    HW235523   2.639   2.864   8.102 -0.5755  0.6178 -1.1273
 7882SOL     OW35524   0.917   4.374   5.658 -0.6589  0.5143  0.4184
 7882SOL    HW135525   0.841   4.413   5.702 -0.5715  2.6230 -1.2997
 7882SOL    HW235526   0.882   4.340   5.576  0.2192  1.2552 -0.2579
 7883SOL     OW35527   2.250   2.319  16.646  0.0449  0.0068  0.5380
 7883SOL    HW135528   2.303   2.345  16.721  0.7871 -1.2341  0.4597
 7883SOL    HW235529   2.186   2.258  16.682 -0.5548  0.5809  0.4290
 7884SOL     OW35530   1.833   3.643  17.257  0.2990 -0.5184  0.0511
 7884SOL    HW135531   1.822   3.557  17.298 -1.2801  0.4286  1.6025
 7884SOL    HW235532   1.926   3.664  17.271  0.2710 -1.1772  1.2345
 7885SOL     OW35533   4.179   2.140  20.005  0.1059  0.1180 -0.2414
 7885SOL    HW135534   4.114   2.176  19.945 -0.8233 -0.4913  0.4059
 7885SOL    HW235535   4.179   2.046  19.988  2.7263  0.4835 -2.1075
 7886SOL     OW35536   2.345   2.736  19.730 -0.0769  0.5898  1.0967
 7886SOL    HW135537   2.368   2.644  19.743 -3.6374 -0.5128 -0.2433
 7886SOL    HW235538   2.406   2.767  19.663 -0.3651 -1.4633 -0.1444
 7887SOL     OW35539   1.305   0.270   0.979  0.2451  0.1277  0.2138
 7887SOL    HW135540   1.216   0.303   0.989  0.0727 -0.0819 -0.5500
 7887SOL    HW235541   1.301   0.216   0.899  1.1375  0.4067 -0.0175
 7888SOL     OW35542   2.629   3.522  18.831  0.4431 -0.1924  0.4003
 7888SOL    HW135543   2.682   3.589  18.788  1.4361 -1.2855 -0.0881
 7888SOL    HW235544   2.574   3.570  18.892  0.7103  1.1360 -0.4004
 7889SOL     OW35545   4.419   4.539  19.032  0.2698  0.6536 -0.1960
 7889SOL    HW135546   4.496   4.494  18.995  0.0739  0.5905 -0.5221
 7889SOL    HW235547   4.455   4.592  19.103  0.7669  1.4969 -1.0811
 7890SOL     OW35548   3.705   2.159  16.077  0.0894 -0.4460  0.6369
 7890SOL    HW135549   3.750   2.130  15.998 -2.1862  0.4907 -0.9928
 7890SOL    HW235550   3.612   2.144  16.058 -0.5844  1.5861  2.4016
 7891SOL     OW35551   2.129   1.890  20.787  0.0154 -0.5384 -0.5287
 7891SOL    HW135552   2.054   1.879  20.729  1.3815 -1.1640 -2.1447
 7891SOL    HW235553   2.090   1.917  20.871 -1.9568 -0.1288 -1.5779
 7892SOL     OW35554   3.427   1.320   0.066  0.3540 -0.2891 -0.8045
 7892SOL    HW135555   3.517   1.352   0.071  0.5793 -0.7291 -2.0729
 7892SOL    HW235556   3.429   1.237   0.114  0.6052 -0.2585 -0.7596
 7893SOL     OW35557   2.398   2.974   4.479 -0.2052 -0.2619  0.0628
 7893SOL    HW135558   2.365   3.011   4.560  0.4869 -0.2659  0.3502
 7893SOL    HW235559   2.320   2.952   4.428 -0.6285  0.2679  0.4874
 7894SOL     OW35560   2.012   2.542   0.601  0.2695  0.2674  0.1852
 7894SOL    HW135561   1.933   2.559   0.549 -0.1638  0.6005  0.9575
 7894SOL    HW235562   2.084   2.549   0.538 -0.3027  0.1024 -0.4921
 7895SOL     OW35563   1.222   0.177  14.272 -0.2087  0.4576  0.2210
 7895SOL    HW135564   1.288   0.247  14.281  1.0097 -0.3607 -2.4025
 7895SOL    HW235565   1.253   0.108  14.331  2.8586 -1.1299 -3.2324
 7896SOL     OW35566   0.277   2.068  18.816 -0.0061 -0.2075  0.4324
 7896SOL    HW135567   0.241   2.053  18.729  1.1932  0.9277 -0.2728
 7896SOL    HW235568   0.349   2.005  18.823 -0.9443 -1.2091  1.1227
 7897SOL     OW35569   2.081   0.219   0.515  0.2512 -0.8428 -0.2387
 7897SOL    HW135570   2.070   0.157   0.588 -2.8372 -0.2121 -0.1692
 7897SOL    HW235571   2.026   0.184   0.445 -1.7110  1.9764 -0.1110
 7898SOL     OW35572   0.986   0.712  15.961  0.0257  0.1837 -0.7905
 7898SOL    HW135573   1.016   0.646  16.024 -0.2032  1.4835  0.6679
 7898SOL    HW235574   0.890   0.706  15.964 -0.0303  1.8861  0.7043
 7899SOL     OW35575   0.844   0.903  19.403  0.2314 -0.3911  0.6954
 7899SOL    HW135576   0.780   0.960  19.361  0.8184 -1.1214 -1.1730
 7899SOL    HW235577   0.918   0.900  19.343  1.1508 -1.2854  1.8571
 7900SOL     OW35578   0.236   2.935  19.528 -0.9552 -1.0582 -0.0742
 7900SOL    HW135579   0.201   2.932  19.617 -1.5033  1.3255 -0.2081
 7900SOL    HW235580   0.164   2.966  19.475  0.0053 -0.4456 -1.0224
 7901SOL     OW35581   2.610   3.906  19.077 -0.8880  0.2298  0.2105
 7901SOL    HW135582   2.535   3.849  19.059  0.7015 -1.0690 -2.2559
 7901SOL    HW235583   2.685   3.861  19.038  0.6981  3.0057  0.0562
 7902SOL     OW35584   4.318   2.193  20.248  0.3143  0.4176 -0.0442
 7902SOL    HW135585   4.258   2.161  20.182  1.8511 -1.4448 -0.5357
 7902SOL    HW235586   4.369   2.261  20.204  1.1944 -0.6745 -0.6778
 7903SOL     OW35587   0.015   2.915   5.908  0.3280 -0.1258  0.5166
 7903SOL    HW135588   4.742   2.925   5.989  0.6562  1.1828  0.5443
 7903SOL    HW235589   4.733   2.951   5.841  0.9326  0.6978  0.4430
 7904SOL     OW35590   1.941   4.232   1.914  0.3051  0.0691 -0.1885
 7904SOL    HW135591   2.023   4.208   1.871  0.3276 -2.0132  1.0202
 7904SOL    HW235592   1.963   4.235   2.008 -0.7899  0.4178  0.0584
 7905SOL     OW35593   1.160   3.750  17.127 -0.5346  1.1548 -0.5681
 7905SOL    HW135594   1.068   3.773  17.131 -0.9412 -0.4594 -0.4937
 7905SOL    HW235595   1.200   3.796  17.200 -1.9289 -1.0597  1.6045
 7906SOL     OW35596   0.514   1.634  17.890 -0.1631  0.7946  0.5886
 7906SOL    HW135597   0.511   1.621  17.985 -1.2789  2.2075  0.7394
 7906SOL    HW235598   0.536   1.726  17.878 -2.6561  1.2518 -0.5284
 7907SOL     OW35599   2.187   0.657  18.970  0.8463 -0.1939  0.1658
 7907SOL    HW135600   2.103   0.618  18.946  1.7911 -1.5588 -0.9196
 7907SOL    HW235601   2.213   0.706  18.892  1.3691 -0.2989  0.2733
 7908SOL     OW35602   3.617   3.506   0.592  0.1002  0.4910  0.4816
 7908SOL    HW135603   3.642   3.598   0.580  1.6124  0.1044  0.6223
 7908SOL    HW235604   3.649   3.463   0.513 -0.3834  0.0387  0.5373
 7909SOL     OW35605   1.966   1.750  11.129 -0.2309  0.5445  0.6034
 7909SOL    HW135606   2.048   1.762  11.081 -0.7417  0.5717 -0.2743
 7909SOL    HW235607   1.961   1.655  11.143  1.0382  0.7826  2.5940
 7910SOL     OW35608   0.670   4.645   5.360  0.1374 -0.2187 -0.7519
 7910SOL    HW135609   0.577   4.639   5.338  0.0768 -1.2968 -0.2100
 7910SOL    HW235610   0.714   4.591   5.294  0.5100  1.4491 -1.8694
 7911SOL     OW35611   0.619   0.499  19.709  0.4049 -0.3019  0.5258
 7911SOL    HW135612   0.630   0.457  19.794 -0.9307 -1.6986  0.0175
 7911SOL    HW235613   0.683   0.457  19.653  2.2361  1.6033  1.2064
 7912SOL     OW35614   2.281   1.165  20.173 -0.0056 -0.0814 -0.0853
 7912SOL    HW135615   2.280   1.118  20.257 -1.8149  0.3164  0.1236
 7912SOL    HW235616   2.268   1.256  20.197  0.3365  0.1308 -0.7266
 7913SOL     OW35617   1.059   1.188  10.262 -0.8388  0.3720 -0.2032
 7913SOL    HW135618   1.005   1.236  10.199 -2.1026  0.3985  0.8938
 7913SOL    HW235619   1.016   1.203  10.346 -0.5441 -1.6817  0.3161
 7914SOL     OW35620   1.888   2.485  15.126  0.0169 -0.3343  0.0081
 7914SOL    HW135621   1.979   2.512  15.132 -0.6198  1.5771  1.0117
 7914SOL    HW235622   1.873   2.474  15.032  1.1026 -0.0405 -0.2041
 7915SOL     OW35623   0.033   0.027  14.930  0.3064  0.1379  0.1339
 7915SOL    HW135624   0.048   0.056  15.020 -0.8965  0.7708  0.1255
 7915SOL    HW235625   4.763   0.099  14.888  1.5157  0.1307 -1.2005
 7916SOL     OW35626   0.603   4.419  19.393 -0.3009  0.2997  0.0930
 7916SOL    HW135627   0.652   4.400  19.312 -0.8264  1.2537 -0.4526
 7916SOL    HW235628   0.581   4.332  19.428 -0.0509 -0.1230 -0.7777
 7917SOL     OW35629   3.363   1.057  15.528 -0.6052  0.3941 -0.3659
 7917SOL    HW135630   3.442   1.102  15.559 -0.1034 -0.3986 -0.4872
 7917SOL    HW235631   3.293   1.121  15.538 -0.1087  0.7803  0.6377
 7918SOL     OW35632   2.572   2.008  13.783 -0.9765  0.1444 -0.4894
 7918SOL    HW135633   2.600   1.930  13.735 -0.2014 -0.0720  0.3349
 7918SOL    HW235634   2.651   2.061  13.792 -0.7652 -0.5924  2.0606
 7919SOL     OW35635   2.578   0.876   0.341 -1.0459 -0.2477  0.3256
 7919SOL    HW135636   2.634   0.829   0.403 -0.2237 -0.4980 -0.6064
 7919SOL    HW235637   2.489   0.867   0.377 -0.4482  0.4017  1.9478
 7920SOL     OW35638   2.105   1.395   6.685  0.2706 -0.0887  0.0774
 7920SOL    HW135639   2.092   1.433   6.772  2.8959 -0.0655  0.4784
 7920SOL    HW235640   2.126   1.303   6.703  0.3976 -0.1804 -0.5440
 7921SOL     OW35641   4.146   3.839   3.879 -0.0688  0.3275 -0.0795
 7921SOL    HW135642   4.091   3.798   3.945 -0.5402  2.7487  1.0403
 7921SOL    HW235643   4.124   3.932   3.883  0.3954  0.5884 -3.1562
 7922SOL     OW35644   4.574   0.050  10.401 -0.3316 -0.2234  0.2507
 7922SOL    HW135645   4.632   4.754  10.376 -1.9864 -1.4909  0.0773
 7922SOL    HW235646   4.490   0.030  10.360 -1.5702  0.4078  2.4152
 7923SOL     OW35647   3.649   3.603  20.135 -0.3961  0.4408 -0.3428
 7923SOL    HW135648   3.577   3.563  20.183 -1.4640  0.9913 -1.4790
 7923SOL    HW235649   3.607   3.645  20.059  0.9571  1.8355 -0.3288
 7924SOL     OW35650   0.703   0.995  20.440  0.1481  0.2526  0.1200
 7924SOL    HW135651   0.696   1.018  20.533  0.5290 -2.4428  0.8131
 7924SOL    HW235652   0.614   0.974  20.414  0.2438 -0.2598  0.2056
 7925SOL     OW35653   3.079   1.521  13.590 -0.3555 -0.3227 -0.3475
 7925SOL    HW135654   3.156   1.562  13.629  0.9617 -1.1096 -2.1548
 7925SOL    HW235655   3.026   1.493  13.665  1.0008  0.4178  0.8793
 7926SOL     OW35656   1.176   1.571   7.414  0.1119 -0.1651 -0.1175
 7926SOL    HW135657   1.179   1.654   7.366  1.4172 -0.1320  0.0267
 7926SOL    HW235658   1.204   1.594   7.502 -0.3375 -0.6056  0.1372
 7927SOL     OW35659   0.410   4.347  12.134  0.0887 -0.0473  0.1623
 7927SOL    HW135660   0.435   4.338  12.226 -2.1201  0.6880  0.8214
 7927SOL    HW235661   0.358   4.270  12.115 -3.3907  2.1782  0.7943
 7928SOL     OW35662   2.848   1.163   5.273 -0.3110  0.6049  0.2717
 7928SOL    HW135663   2.823   1.074   5.250 -0.1974  1.0873 -1.7211
 7928SOL    HW235664   2.776   1.195   5.327 -0.2481 -0.7617  1.1827
 7929SOL     OW35665   0.749   1.151   5.229 -0.1385  0.3097 -0.8263
 7929SOL    HW135666   0.832   1.163   5.277 -0.5307  3.4413 -0.9263
 7929SOL    HW235667   0.773   1.164   5.137 -0.2250 -1.4302 -1.0932
 7930SOL     OW35668   3.382   0.318  21.192  0.3985 -0.2614 -0.2317
 7930SOL    HW135669   3.438   0.286  21.122  0.5371 -1.7072  0.5558
 7930SOL    HW235670   3.310   0.255   0.001 -2.1027  2.4483 -2.2994
 7931SOL     OW35671   0.354   3.967   4.692  0.3143 -0.2677 -0.0137
 7931SOL    HW135672   0.438   3.942   4.731  0.1056 -1.3999 -0.2976
 7931SOL    HW235673   0.297   3.985   4.767  1.2222  1.8616  0.1673
 7932SOL     OW35674   1.372   2.930  11.387  0.0154 -0.0553 -0.0167
 7932SOL    HW135675   1.406   2.871  11.320 -1.0994  1.0504 -1.5609
 7932SOL    HW235676   1.403   3.017  11.361 -0.5331  0.4003  0.8268
 7933SOL     OW35677   1.301   2.983   1.577  0.2854 -0.0458  0.2373
 7933SOL    HW135678   1.264   3.040   1.510  0.0257 -1.2275 -0.6412
 7933SOL    HW235679   1.383   3.025   1.602 -0.6228  1.4689  0.6444
 7934SOL     OW35680   3.613   0.085   1.618  0.0106 -0.9073 -0.0233
 7934SOL    HW135681   3.701   0.054   1.596  0.3015 -0.8427  1.0858
 7934SOL    HW235682   3.560   0.058   1.543  1.3395  0.7161 -1.5665
 7935SOL     OW35683   2.884   3.227  20.521  0.0642  0.1492  0.6694
 7935SOL    HW135684   2.845   3.159  20.575 -1.7800 -0.7384 -1.7729
 7935SOL    HW235685   2.973   3.197  20.505 -0.1325 -0.7299  1.2455
 7936SOL     OW35686   4.142   0.769  19.026 -0.2390  0.3451 -0.3730
 7936SOL    HW135687   4.117   0.760  19.118 -2.8422  1.1782 -1.0004
 7936SOL    HW235688   4.124   0.683  18.988 -0.9785  0.5836 -0.5536
 7937SOL     OW35689   1.260   4.511   2.705  0.0971  0.4345 -0.7185
 7937SOL    HW135690   1.240   4.577   2.639  0.6089  1.3474  0.0490
 7937SOL    HW235691   1.181   4.457   2.709 -0.6925  1.6057 -0.6210
 7938SOL     OW35692   0.109   2.893   1.132  0.2059 -0.2544 -0.1395
 7938SOL    HW135693   0.123   2.799   1.139 -0.4761 -0.3280  0.1868
 7938SOL    HW235694   0.137   2.914   1.042  1.0879 -0.6337  0.0446
 7939SOL     OW35695   2.642   0.155  15.885  0.0125 -0.0991 -0.4398
 7939SOL    HW135696   2.709   0.193  15.830  1.2410 -3.9865 -1.6073
 7939SOL    HW235697   2.560   0.195  15.855  1.2953  1.4756 -1.7898
 7940SOL     OW35698   3.696   3.914   1.504 -0.4197  0.2101  0.0342
 7940SOL    HW135699   3.645   3.846   1.461  1.1795  0.0666 -1.6642
 7940SOL    HW235700   3.705   3.983   1.438 -0.1542  1.1070  1.0031
 7941SOL     OW35701   0.403   2.923  18.687  0.1894 -0.8837 -0.1826
 7941SOL    HW135702   0.433   2.914  18.777  1.2798  1.6028 -0.3138
 7941SOL    HW235703   0.313   2.956  18.694 -0.0162 -1.4929  0.0213
 7942SOL     OW35704   3.516   2.039   8.232  0.3169 -0.2702 -0.0674
 7942SOL    HW135705   3.471   2.109   8.185  0.9063 -0.3754 -0.7883
 7942SOL    HW235706   3.491   2.051   8.323 -1.4039 -0.5073 -0.5195
 7943SOL     OW35707   0.064   3.251  16.403 -0.2370  0.4720  0.4432
 7943SOL    HW135708   0.056   3.266  16.498  3.6837  2.0053  0.5306
 7943SOL    HW235709   0.093   3.161  16.396 -1.6457 -0.0032  0.6560
 7944SOL     OW35710   1.944   1.886   4.387 -0.5467  0.3845 -0.2989
 7944SOL    HW135711   1.978   1.972   4.362  0.5984  0.2431  0.8058
 7944SOL    HW235712   1.981   1.826   4.323 -2.4611  0.9275 -1.9071
 7945SOL     OW35713   3.845   0.791  17.242 -0.0481 -0.3845  0.6820
 7945SOL    HW135714   3.921   0.816  17.295  1.2003  0.0645 -1.3328
 7945SOL    HW235715   3.820   0.705  17.275 -0.6885  0.8855  3.5760
 7946SOL     OW35716   2.008   3.947  10.075 -0.7364 -0.1233  0.3399
 7946SOL    HW135717   2.012   3.855  10.048 -1.2251  0.0719 -0.3916
 7946SOL    HW235718   2.066   3.993  10.014 -0.1437 -0.0071  0.9823
 7947SOL     OW35719   0.167   4.531  20.651  0.3390  0.1801  0.1673
 7947SOL    HW135720   0.254   4.511  20.618 -0.7766 -1.6355 -1.6450
 7947SOL    HW235721   0.177   4.534  20.746  2.2214 -0.6873 -0.0278
 7948SOL     OW35722   3.656   0.016   6.475  0.2668  0.1780  0.5316
 7948SOL    HW135723   3.695   0.103   6.477 -1.0999  0.7709  1.4879
 7948SOL    HW235724   3.605   0.010   6.556 -1.9756 -0.4051 -0.9028
 7949SOL     OW35725   1.536   4.296  16.812 -0.0572 -0.6774  0.6660
 7949SOL    HW135726   1.480   4.341  16.875 -0.0027  0.6960 -0.2836
 7949SOL    HW235727   1.497   4.209  16.803 -2.8600  0.7834 -1.1198
 7950SOL     OW35728   1.139   3.013   0.051 -0.2375 -0.3248 -0.0257
 7950SOL    HW135729   1.199   2.943   0.077  1.2895  1.3387  0.9133
 7950SOL    HW235730   1.073   3.015   0.120  0.7658  0.4229  0.9104
 7951SOL     OW35731   0.110   3.405  18.363 -0.4216  0.2005 -0.6645
 7951SOL    HW135732   0.074   3.445  18.443 -0.5601 -0.9594 -0.1450
 7951SOL    HW235733   0.063   3.323  18.355  0.9207 -0.5321 -0.9205
 7952SOL     OW35734   4.703   0.952   9.987 -0.0904 -0.6895 -0.6880
 7952SOL    HW135735   4.641   0.888   9.953 -2.6305  1.0253  0.6814
 7952SOL    HW235736   4.679   1.034   9.943 -1.3702  0.8358  2.8310
 7953SOL     OW35737   1.107   1.026  18.176  0.1026  0.0764 -0.4435
 7953SOL    HW135738   1.137   1.055  18.263 -0.0469 -3.1403  0.6642
 7953SOL    HW235739   1.184   1.036  18.120  1.5553 -2.4481  1.1081
 7954SOL     OW35740   0.076   4.523   1.897  0.2104 -0.5400 -0.0347
 7954SOL    HW135741   4.771   4.574   1.886  0.9715  0.4957 -0.8109
 7954SOL    HW235742   0.062   4.445   1.845 -1.5583 -1.8217  2.3365
 7955SOL     OW35743   0.474   1.068   5.134  0.0032  0.0790  0.1641
 7955SOL    HW135744   0.568   1.079   5.145 -0.3044  3.6674 -0.6862
 7955SOL    HW235745   0.436   1.148   5.171 -2.6730 -1.2908  0.3774
 7956SOL     OW35746   3.614   3.404   8.121  0.0469 -0.2287  0.4950
 7956SOL    HW135747   3.631   3.332   8.060  0.8815  0.2623  0.1421
 7956SOL    HW235748   3.700   3.444   8.135 -0.3339  0.3755  1.0907
 7957SOL     OW35749   3.399   1.583  18.036  0.4237 -0.5010  0.1993
 7957SOL    HW135750   3.412   1.562  18.128  1.4014 -1.0523 -0.0751
 7957SOL    HW235751   3.416   1.502  17.989 -0.0080 -0.2045 -0.4839
 7958SOL     OW35752   3.115   2.046   6.014  0.7531  0.6637  0.0274
 7958SOL    HW135753   3.186   2.092   5.970  1.0158  0.2977  0.0750
 7958SOL    HW235754   3.100   1.968   5.962  2.3892 -0.7689  1.6772
 7959SOL     OW35755   1.481   2.071  17.836 -0.0655  0.7709  0.1107
 7959SOL    HW135756   1.398   2.116  17.824 -0.2256  0.7099  0.9585
 7959SOL    HW235757   1.523   2.074  17.750 -1.7625 -0.8532 -0.7907
 7960SOL     OW35758   0.943   3.110   0.221 -0.0247  0.1986 -0.4509
 7960SOL    HW135759   0.990   3.188   0.190 -0.6271 -0.0533 -2.0090
 7960SOL    HW235760   0.850   3.130   0.206 -0.1294 -1.1617 -1.6669
 7961SOL     OW35761   3.040   0.090   2.380  0.8715 -0.9510  0.0173
 7961SOL    HW135762   2.956   0.110   2.422  0.7818  0.6041 -0.9302
 7961SOL    HW235763   3.027   0.004   2.341 -0.0700 -1.0129  0.4672
 7962SOL     OW35764   1.175   2.411   2.664 -0.4126  0.0655 -0.0884
 7962SOL    HW135765   1.105   2.347   2.669 -0.0529 -0.3985 -1.0616
 7962SOL    HW235766   1.131   2.492   2.636 -1.0922  0.6026  2.5112
 7963SOL     OW35767   4.429   3.123   9.300  0.0527  0.1453 -0.6652
 7963SOL    HW135768   4.358   3.160   9.248 -0.7915 -1.4188 -0.6370
 7963SOL    HW235769   4.459   3.048   9.249 -1.2103 -1.7681  1.4142
 7964SOL     OW35770   4.191   3.455   2.751  0.7740  0.4451 -0.2733
 7964SOL    HW135771   4.175   3.401   2.673  0.5286  0.5348 -0.2830
 7964SOL    HW235772   4.183   3.394   2.824 -0.0581  0.5884 -0.2489
 7965SOL     OW35773   1.522   1.253  13.283  0.3685 -0.4489 -0.3533
 7965SOL    HW135774   1.445   1.251  13.226  1.8861 -0.5320 -2.3914
 7965SOL    HW235775   1.497   1.312  13.354 -0.2999  2.2014 -2.8106
 7966SOL     OW35776   1.283   0.389  14.707 -0.3102  0.4972  0.0616
 7966SOL    HW135777   1.217   0.384  14.637  0.8806  0.3586 -1.0587
 7966SOL    HW235778   1.354   0.334  14.675  0.2681  0.5144  1.3589
 7967SOL     OW35779   2.720   0.842  12.459 -0.2203 -0.1789  0.2052
 7967SOL    HW135780   2.731   0.883  12.545 -0.9538  2.6553 -1.0418
 7967SOL    HW235781   2.630   0.810  12.459 -0.2329 -0.1419  0.4753
 7968SOL     OW35782   4.350   4.370   3.421  0.0282 -0.1489  0.6067
 7968SOL    HW135783   4.281   4.334   3.476 -0.7585  1.4792  0.7033
 7968SOL    HW235784   4.429   4.366   3.474 -0.2870 -0.7063  1.0184
 7969SOL     OW35785   3.060   4.318   4.735 -0.3150  0.3831  0.0020
 7969SOL    HW135786   3.010   4.281   4.662  2.8891 -0.4173 -1.7840
 7969SOL    HW235787   3.047   4.255   4.807 -1.4876 -0.0635 -0.5974
 7970SOL     OW35788   4.731   2.253  18.287  1.0128  0.1571  0.5730
 7970SOL    HW135789   0.013   2.264  18.363 -1.0303 -1.3541  2.3410
 7970SOL    HW235790   4.710   2.160  18.287 -0.7049  0.5594 -0.6229
 7971SOL     OW35791   1.811   0.853  17.546 -0.0308  0.0255  1.1181
 7971SOL    HW135792   1.804   0.758  17.555 -0.1704  0.0281  1.0408
 7971SOL    HW235793   1.902   0.868  17.521 -0.6789 -0.2941 -1.4237
 7972SOL     OW35794   0.103   3.961   6.312  0.5650 -0.2387 -0.0112
 7972SOL    HW135795   0.138   3.922   6.231  1.3444 -0.8070  0.5950
 7972SOL    HW235796   0.012   3.933   6.314  0.7137 -0.7653 -0.3711
 7973SOL     OW35797   3.902   2.118  18.048  0.2991  0.1630  0.0407
 7973SOL    HW135798   3.925   2.137  18.139  0.2515 -0.2512  0.1366
 7973SOL    HW235799   3.969   2.164  17.997 -0.0579  0.9330  0.2731
 7974SOL     OW35800   0.965   2.500   0.106  0.5568 -0.1312  0.4998
 7974SOL    HW135801   1.038   2.559   0.088  0.5507  0.5840  2.7471
 7974SOL    HW235802   0.896   2.558   0.139 -0.6247 -0.9536 -0.5463
 7975SOL     OW35803   4.393   3.417  18.682 -0.6460  0.3733  0.3170
 7975SOL    HW135804   4.407   3.460  18.766  0.9217 -0.5515  0.5171
 7975SOL    HW235805   4.463   3.352  18.675  0.3620  1.7703 -2.5590
 7976SOL     OW35806   0.116   0.942   7.560 -0.5794  0.4528  0.1843
 7976SOL    HW135807   0.105   0.918   7.468 -2.3920  0.4824  0.3901
 7976SOL    HW235808   0.046   1.005   7.577  0.0044  0.7649  1.4741
 7977SOL     OW35809   3.546   0.846  19.022  0.4485  0.0537  0.6128
 7977SOL    HW135810   3.483   0.887  19.081 -0.1746 -0.2400  0.1385
 7977SOL    HW235811   3.594   0.785  19.078 -0.9407 -1.0876  0.5628
 7978SOL     OW35812   1.250   1.905   4.319  0.3273  0.2203 -0.6780
 7978SOL    HW135813   1.269   1.877   4.229  1.4151 -0.6644 -0.1851
 7978SOL    HW235814   1.261   1.825   4.370  0.4647  0.8984  0.3402
 7979SOL     OW35815   4.676   0.653  18.206 -0.0239  0.1900 -0.1107
 7979SOL    HW135816   4.677   0.617  18.117  2.5830  1.7615 -0.7025
 7979SOL    HW235817   4.711   0.582  18.261  1.0957  0.2824 -0.7112
 7980SOL     OW35818   2.865   2.269  13.652  0.8719 -0.5026 -0.0948
 7980SOL    HW135819   2.863   2.174  13.642  1.0417 -0.4929 -0.2160
 7980SOL    HW235820   2.812   2.302  13.580  1.5618 -0.4629 -0.5805
 7981SOL     OW35821   1.592   2.393   6.884 -0.0404 -0.1689 -0.6851
 7981SOL    HW135822   1.499   2.415   6.885  0.1125  0.4083  1.4496
 7981SOL    HW235823   1.629   2.446   6.814 -0.6948  2.2207  0.7900
 7982SOL     OW35824   2.280   1.291   2.751 -0.8379 -0.4561  0.6158
 7982SOL    HW135825   2.322   1.353   2.692 -2.2574  0.5524  0.6607
 7982SOL    HW235826   2.262   1.215   2.696  0.7668 -0.7614  0.5291
 7983SOL     OW35827   3.382   3.463  16.262  0.7673 -0.3776 -0.3952
 7983SOL    HW135828   3.332   3.450  16.343  1.0126 -0.5845 -0.2760
 7983SOL    HW235829   3.471   3.435  16.285  0.5895 -1.4850 -1.0613
 7984SOL     OW35830   3.791   1.202  20.981 -0.1351  0.2690  0.2426
 7984SOL    HW135831   3.772   1.124  20.929 -1.3534 -0.4268  1.7557
 7984SOL    HW235832   3.769   1.178  21.071  1.1469  1.7745  0.9621
 7985SOL     OW35833   3.160   4.602  18.693 -0.3205 -0.3404 -0.0122
 7985SOL    HW135834   3.191   4.579  18.606 -0.0616  1.9001 -0.4910
 7985SOL    HW235835   3.216   4.551  18.752  2.4431  1.6046 -0.9788
 7986SOL     OW35836   2.306   4.250  19.667 -0.5933  0.2801  0.5423
 7986SOL    HW135837   2.259   4.190  19.726 -0.0060  1.0235  1.7565
 7986SOL    HW235838   2.257   4.332  19.673  0.1391  0.6975  0.8864
 7987SOL     OW35839   0.585   1.329   0.107  0.6258  0.1615 -0.1447
 7987SOL    HW135840   0.555   1.377   0.184  0.6286  0.1263 -0.1216
 7987SOL    HW235841   0.615   1.244   0.141 -1.1264 -0.5644 -0.4122
 7988SOL     OW35842   2.528   1.827   8.596 -0.3380  0.1632  0.3079
 7988SOL    HW135843   2.597   1.883   8.632  0.4488  0.7859 -2.1110
 7988SOL    HW235844   2.543   1.742   8.637  1.0075  0.6769  0.8923
 7989SOL     OW35845   1.397   4.133  13.614 -0.5023  0.5357 -0.4968
 7989SOL    HW135846   1.488   4.129  13.645 -0.7264 -0.9973 -0.0546
 7989SOL    HW235847   1.371   4.224  13.628  0.6086  0.7167  0.3817
 7990SOL     OW35848   0.845   1.240   0.370  0.1040  0.0482 -0.2062
 7990SOL    HW135849   0.768   1.194   0.336  1.0989 -2.7210  1.2110
 7990SOL    HW235850   0.834   1.236   0.465  1.6714  0.1787 -0.0282
 7991SOL     OW35851   4.719   1.093  10.772  0.0725  0.4121  0.4307
 7991SOL    HW135852   4.678   1.063  10.691  0.5548  0.3212  0.2170
 7991SOL    HW235853   4.774   1.020  10.799  0.9551  0.9615  0.1120
 7992SOL     OW35854   0.590   2.109   1.843  0.1501  0.0115  0.8070
 7992SOL    HW135855   0.511   2.135   1.891  0.0846  1.7535 -0.2369
 7992SOL    HW235856   0.578   2.016   1.825 -0.3963 -0.3633  3.0954
 7993SOL     OW35857   2.079   2.245   4.584 -0.2763 -0.2975 -0.2162
 7993SOL    HW135858   2.065   2.170   4.526  1.5309 -0.8576  0.0635
 7993SOL    HW235859   2.039   2.319   4.537 -1.3513 -1.2870 -0.8556
 7994SOL     OW35860   0.978   0.279  16.724 -0.3488 -0.1242  0.6033
 7994SOL    HW135861   1.010   0.240  16.643 -0.7560  0.0327  0.3687
 7994SOL    HW235862   0.946   0.365  16.699 -1.8988 -0.6938  0.6686
 7995SOL     OW35863   0.876   1.128  17.179  0.2740  0.0223 -0.1744
 7995SOL    HW135864   0.822   1.205  17.195 -1.2101 -1.0088 -0.1484
 7995SOL    HW235865   0.948   1.136  17.241 -1.7390 -0.3967  2.2352
 7996SOL     OW35866   1.033   2.489   3.426  0.5168 -0.2160  0.6452
 7996SOL    HW135867   0.965   2.421   3.433 -0.8270  1.1697  1.1280
 7996SOL    HW235868   1.085   2.463   3.350  0.5999 -2.3318  1.4105
 7997SOL     OW35869   4.360   4.527   0.154 -0.3539 -0.8896  0.6776
 7997SOL    HW135870   4.280   4.579   0.160  0.2499  0.1258 -0.1077
 7997SOL    HW235871   4.430   4.592   0.153  0.3768 -1.7144 -0.7507
 7998SOL     OW35872   3.135   0.481   1.781 -0.3600 -0.2098  0.0267
 7998SOL    HW135873   3.116   0.467   1.688 -0.9377 -1.3819  0.3214
 7998SOL    HW235874   3.211   0.540   1.781 -0.2238 -0.3748 -1.1802
 7999SOL     OW35875   3.412   2.382  17.167  0.2738 -0.0359  0.0682
 7999SOL    HW135876   3.466   2.304  17.179  2.0469  1.5099  2.1100
 7999SOL    HW235877   3.448   2.424  17.089  1.1730  0.2938  0.6618
 8000SOL     OW35878   4.201   1.876   0.492  0.3457  0.2244 -0.2606
 8000SOL    HW135879   4.296   1.885   0.483  0.1019  2.6437 -0.4415
 8000SOL    HW235880   4.183   1.786   0.467  2.6198 -0.2530 -0.1567
 8001SOL     OW35881   3.850   1.675  14.572  0.0071 -0.3886 -0.3702
 8001SOL    HW135882   3.890   1.594  14.604  0.4571 -0.2338 -0.5398
 8001SOL    HW235883   3.854   1.667  14.477  0.1575 -0.1147 -0.3868
 8002SOL     OW35884   4.108   1.649  15.903 -0.0713  0.6299  0.2732
 8002SOL    HW135885   4.159   1.580  15.861 -0.7868  0.9305 -1.1004
 8002SOL    HW235886   4.159   1.729  15.889 -2.4468  1.4496 -3.8470
 8003SOL     OW35887   4.670   0.031   5.972  0.6179  0.0773  0.5355
 8003SOL    HW135888   4.763   0.019   5.992  0.3934 -2.1437  0.3050
 8003SOL    HW235889   4.628   4.727   6.005 -1.0818  0.7149 -0.0761
 8004SOL     OW35890   0.395   4.585  10.154  0.3290 -0.1308  0.4644
 8004SOL    HW135891   0.475   4.540  10.128  0.6192 -0.7547  2.4399
 8004SOL    HW235892   0.426   4.658  10.208 -0.3301  0.6010 -0.1536
 8005SOL     OW35893   0.468   3.290  17.297  0.4659  0.0601 -0.0152
 8005SOL    HW135894   0.557   3.267  17.268 -0.1878  0.3749 -2.2504
 8005SOL    HW235895   0.411   3.252  17.231 -1.0683 -0.1983  1.4789
 8006SOL     OW35896   0.890   2.187  19.275  0.1634 -0.1623 -0.6853
 8006SOL    HW135897   0.982   2.207  19.254  0.4820 -0.5436  0.3288
 8006SOL    HW235898   0.851   2.272  19.293  0.9510 -0.2146  1.3564
 8007SOL     OW35899   0.496   3.452  15.317 -0.0640  0.3856 -0.4061
 8007SOL    HW135900   0.479   3.387  15.385 -0.9297 -0.5827 -1.5346
 8007SOL    HW235901   0.591   3.447  15.302  0.1139  0.5645  0.6947
 8008SOL     OW35902   4.299   4.767   7.230  0.6107  0.0080 -0.2936
 8008SOL    HW135903   4.280   4.687   7.181 -3.4585 -1.3156  3.4327
 8008SOL    HW235904   4.235   0.055   7.199  1.0659  0.5520 -0.1275
 8009SOL     OW35905   1.039   0.720   2.845 -0.0515  0.6860  0.0499
 8009SOL    HW135906   0.970   0.776   2.811 -2.3681 -3.1171 -1.4531
 8009SOL    HW235907   0.994   0.656   2.899  2.4725 -0.7535  0.4564
 8010SOL     OW35908   2.023   3.605  14.179 -0.0442  0.0625 -0.9594
 8010SOL    HW135909   1.947   3.653  14.145 -0.5574  0.3421  0.5847
 8010SOL    HW235910   2.084   3.673  14.207 -1.5009 -0.1954  2.8431
 8011SOL     OW35911   0.912   3.398  20.974 -0.2948  0.6192 -0.1778
 8011SOL    HW135912   0.867   3.315  20.991 -0.0068  0.2061 -1.4091
 8011SOL    HW235913   0.878   3.426  20.889 -0.3776  1.7552  0.2381
 8012SOL     OW35914   3.057   1.412   3.958  0.1279 -0.2527  0.1163
 8012SOL    HW135915   3.008   1.485   3.922  1.0080  1.1233  1.7273
 8012SOL    HW235916   3.036   1.413   4.051  0.4481 -1.8112  0.2054
 8013SOL     OW35917   0.345   2.294   0.086  0.1311  0.0634 -0.2511
 8013SOL    HW135918   0.392   2.210   0.085 -0.8137 -0.4747  1.0441
 8013SOL    HW235919   0.353   2.325   0.176  1.1162  1.7293 -0.9074
 8014SOL     OW35920   1.829   2.282  18.377  0.2735 -0.1368  0.0008
 8014SOL    HW135921   1.842   2.222  18.450  1.7871 -1.4915 -1.3798
 8014SOL    HW235922   1.756   2.338  18.404  0.4150 -1.0654  2.2671
 8015SOL     OW35923   0.747   0.280  13.870 -0.5693  0.2192  0.1205
 8015SOL    HW135924   0.830   0.239  13.892 -0.8386 -0.0452  0.6514
 8015SOL    HW235925   0.752   0.368  13.907  0.2385  0.8530 -1.5253
 8016SOL     OW35926   3.949   3.109   5.963 -0.3489  0.6515 -0.0334
 8016SOL    HW135927   4.005   3.186   5.972 -0.4948  0.8329 -0.6575
 8016SOL    HW235928   3.950   3.068   6.049  2.6531 -0.6270 -0.6621
 8017SOL     OW35929   3.288   1.765   5.986 -0.2722 -0.0490 -0.1096
 8017SOL    HW135930   3.268   1.738   6.075 -0.8503  0.7879  0.0116
 8017SOL    HW235931   3.203   1.786   5.947  0.2568  2.1908 -0.0170
 8018SOL     OW35932   0.659   3.254  18.333  0.0752 -0.1256 -0.3160
 8018SOL    HW135933   0.671   3.296  18.247  1.0761  1.3225  0.5250
 8018SOL    HW235934   0.585   3.300  18.372 -0.3278 -0.7291 -0.3751
 8019SOL     OW35935   2.503   0.075  16.665 -0.0970 -0.1885 -0.2789
 8019SOL    HW135936   2.466   0.159  16.639 -0.5325 -0.4038 -0.3547
 8019SOL    HW235937   2.429   0.014  16.661  0.3116 -0.6568 -0.6273
 8020SOL     OW35938   1.584   1.393   0.677 -0.3650 -0.1949 -0.2639
 8020SOL    HW135939   1.678   1.411   0.667 -0.2273 -0.6321  0.2769
 8020SOL    HW235940   1.562   1.341   0.599 -0.8203  2.5343 -1.9495
 8021SOL     OW35941   0.324   2.124  17.185  0.0429  0.7022  0.1773
 8021SOL    HW135942   0.311   2.070  17.107 -0.7406  1.8266 -0.4873
 8021SOL    HW235943   0.378   2.071  17.243 -0.2951 -0.5831 -0.6807
 8022SOL     OW35944   4.618   3.327   5.445  0.4594  0.1888  0.0783
 8022SOL    HW135945   4.676   3.353   5.373  0.7735 -0.9406 -0.0625
 8022SOL    HW235946   4.624   3.232   5.449 -0.8540  0.1193  0.5138
 8023SOL     OW35947   1.912   2.146   4.811 -0.1448 -0.1947 -0.4899
 8023SOL    HW135948   1.980   2.171   4.748  0.8127 -0.0217  0.6127
 8023SOL    HW235949   1.904   2.222   4.868 -0.6279 -0.5653 -0.0691
 8024SOL     OW35950   0.235   2.963  16.287 -0.0066  0.0867  0.3212
 8024SOL    HW135951   0.315   2.974  16.235 -0.1806  1.9762  0.4456
 8024SOL    HW235952   0.171   2.929  16.226  0.1072  1.2513 -0.4512
 8025SOL     OW35953   1.263   3.838   8.997 -0.0003 -0.4986 -0.4395
 8025SOL    HW135954   1.255   3.889   8.917 -0.2468 -0.2156 -0.2356
 8025SOL    HW235955   1.350   3.796   8.991  1.0840  1.6490  0.3915
 8026SOL     OW35956   3.035   1.394   4.255 -0.3996 -0.2617  0.3162
 8026SOL    HW135957   3.099   1.324   4.241  0.8935  1.5059 -2.3408
 8026SOL    HW235958   3.021   1.394   4.350  1.9142 -2.0649  0.6607
 8027SOL     OW35959   3.740   4.194  17.360  0.0734 -0.3400  0.4668
 8027SOL    HW135960   3.735   4.283  17.326 -0.0982 -0.9991 -1.1896
 8027SOL    HW235961   3.775   4.205  17.449  1.1878  1.2552 -0.1744
 8028SOL     OW35962   0.671   4.504   3.315 -0.2282  1.3165 -0.2070
 8028SOL    HW135963   0.650   4.457   3.396 -1.7648  1.9470 -0.2317
 8028SOL    HW235964   0.604   4.475   3.253  1.1394  0.5921 -1.3463
 8029SOL     OW35965   0.293   1.248  18.362 -0.4123 -0.3402  0.3442
 8029SOL    HW135966   0.239   1.306  18.415 -1.0949  0.0724 -0.8019
 8029SOL    HW235967   0.383   1.277  18.379 -0.6461 -0.0290  1.0557
 8030SOL     OW35968   3.978   4.656   2.665  1.0330  0.6678  0.3031
 8030SOL    HW135969   3.918   4.589   2.633  0.0990  0.8244  1.7215
 8030SOL    HW235970   4.063   4.611   2.672  0.6287 -0.0952  0.3050
 8031SOL     OW35971   0.381   1.959  17.398 -0.2879 -0.5288 -0.3074
 8031SOL    HW135972   0.303   1.907  17.418  0.0955 -1.0271 -0.1063
 8031SOL    HW235973   0.436   1.952  17.476  0.0357 -0.3150 -0.5130
 8032SOL     OW35974   0.264   1.862   5.695 -0.4060 -0.2954 -0.5439
 8032SOL    HW135975   0.259   1.957   5.693  3.3424 -0.0527  1.5799
 8032SOL    HW235976   0.323   1.840   5.623  1.0135 -0.8751  0.8112
 8033SOL     OW35977   2.610   4.571  15.580  0.1372 -1.0406  0.1211
 8033SOL    HW135978   2.647   4.612  15.659 -0.1153 -1.5070  0.4838
 8033SOL    HW235979   2.649   4.619  15.508 -1.0379  0.5843  0.5677
 8034SOL     OW35980   0.124   3.617   1.913 -1.3452  0.1518 -0.7212
 8034SOL    HW135981   0.139   3.674   1.988 -0.7475  0.2240 -0.8989
 8034SOL    HW235982   0.138   3.673   1.837 -1.5935 -0.0144 -0.8882
 8035SOL     OW35983   3.344   3.621  21.160 -0.0125  0.4746  0.1082
 8035SOL    HW135984   3.346   3.535  21.117 -1.8411 -0.0387  1.0424
 8035SOL    HW235985   3.421   3.621   0.020  1.5524  0.5522 -2.0218
 8036SOL     OW35986   1.999   0.437   2.251 -0.3354 -0.4945  0.3807
 8036SOL    HW135987   1.908   0.428   2.281 -0.3659  0.7062  0.6195
 8036SOL    HW235988   2.047   0.466   2.328  0.2227 -0.9111  0.1927
 8037SOL     OW35989   0.688   2.347  18.409  0.5054 -0.2315  0.4512
 8037SOL    HW135990   0.606   2.299  18.419  0.9380 -0.8614  0.9852
 8037SOL    HW235991   0.678   2.395  18.327  0.0075 -1.1016  0.0079
 8038SOL     OW35992   4.167   0.829   3.604 -0.1513  0.0741  0.0069
 8038SOL    HW135993   4.182   0.805   3.513  0.4201  0.6727 -0.0490
 8038SOL    HW235994   4.203   0.756   3.654  0.9593  0.4900 -0.1899
 8039SOL     OW35995   3.697   4.106  19.840  0.4613  0.3390  0.2573
 8039SOL    HW135996   3.750   4.185  19.848  0.1559  0.5025  0.7241
 8039SOL    HW235997   3.607   4.138  19.834  0.1971 -0.0260  2.0349
 8040SOL     OW35998   2.014   1.453  20.614  0.5711 -0.0426  0.0952
 8040SOL    HW135999   2.090   1.459  20.556  0.9490  0.6739  0.6567
 8040SOL    HW236000   1.988   1.544  20.628  1.0453 -0.1701  1.7900
 8041SOL     OW36001   0.046   1.526   1.640  0.5234  0.2072  0.5023
 8041SOL    HW136002   0.111   1.472   1.684  1.3628  1.3428  0.6561
 8041SOL    HW236003   0.097   1.584   1.584 -0.3758  0.8422  0.3403
 8042SOL     OW36004   1.597   4.158   4.185 -0.4774 -0.7825 -0.0605
 8042SOL    HW136005   1.565   4.231   4.132 -2.0521 -1.3111  0.1434
 8042SOL    HW236006   1.559   4.080   4.142 -0.2016 -1.3422  0.7189
 8043SOL     OW36007   2.881   4.374   0.048 -0.6694 -0.0136 -0.4402
 8043SOL    HW136008   2.856   4.426  21.167  1.6508  0.5071 -0.8602
 8043SOL    HW236009   2.969   4.343   0.028 -1.0256 -1.9356  0.9587
 8044SOL     OW36010   4.038   2.671  12.563  0.1789 -0.7789  0.4502
 8044SOL    HW136011   4.093   2.696  12.489 -0.5102  1.5007  0.7297
 8044SOL    HW236012   4.068   2.726  12.635 -1.4605 -0.6221  1.0011
 8045SOL     OW36013   4.183   1.581   3.029 -0.1363  0.0931  0.2336
 8045SOL    HW136014   4.102   1.531   3.044  0.7032 -1.3650 -0.0452
 8045SOL    HW236015   4.161   1.643   2.959 -2.0930  2.2478  2.7895
 8046SOL     OW36016   3.600   0.873  19.816 -0.0054  0.7388 -0.4459
 8046SOL    HW136017   3.681   0.909  19.779 -0.4281  0.0249 -2.0426
 8046SOL    HW236018   3.630   0.808  19.879  0.6719  0.7710 -0.7351
 8047SOL     OW36019   0.030   1.993  14.984  0.5593 -0.1927  0.0010
 8047SOL    HW136020   0.054   1.917  15.037  0.2622  0.8551  1.6251
 8047SOL    HW236021   0.062   1.972  14.896  2.0053 -1.4563  0.8317
 8048SOL     OW36022   2.264   0.241  18.880 -0.3086 -0.1281 -0.1239
 8048SOL    HW136023   2.181   0.240  18.833 -0.7944 -1.2390  0.7563
 8048SOL    HW236024   2.240   0.236  18.972  0.7171 -0.1758  0.1446
 8049SOL     OW36025   3.514   4.651  18.348 -0.0186 -0.7567 -0.1045
 8049SOL    HW136026   3.495   4.705  18.272  0.9811 -0.0857  0.1279
 8049SOL    HW236027   3.564   4.708  18.406 -0.4076 -1.4070  0.8630
 8050SOL     OW36028   0.602   1.181   4.534  0.3382  0.6196 -0.0829
 8050SOL    HW136029   0.682   1.140   4.501  0.6361  0.9139  0.2662
 8050SOL    HW236030   0.549   1.197   4.457  0.9372  1.1117 -0.3902
 8051SOL     OW36031   1.916   4.137  10.254 -0.1756 -0.4710 -0.3976
 8051SOL    HW136032   1.930   4.061  10.197 -0.8050 -0.1057 -1.0416
 8051SOL    HW236033   1.988   4.197  10.234  1.1747 -1.5370  1.1850
 8052SOL     OW36034   1.381   0.664   1.334 -0.3175 -1.1922 -0.5634
 8052SOL    HW136035   1.421   0.618   1.260  0.6164 -0.4221 -0.5442
 8052SOL    HW236036   1.452   0.671   1.398 -0.6215 -0.2694 -0.3295
 8053SOL     OW36037   0.550   0.185   8.876 -0.6157  0.1721 -0.6809
 8053SOL    HW136038   0.518   0.270   8.845  0.0361 -0.2924 -2.6412
 8053SOL    HW236039   0.642   0.201   8.899  0.3158 -0.6809 -3.7803
 8054SOL     OW36040   2.501   1.170   3.484  0.3188 -0.3573  0.0740
 8054SOL    HW136041   2.548   1.116   3.548 -2.0635 -1.6803  0.6849
 8054SOL    HW236042   2.455   1.107   3.429 -0.3215  0.9418 -0.8670
 8055SOL     OW36043   4.043   2.998  16.712  0.4780 -0.1133  0.0176
 8055SOL    HW136044   3.959   3.042  16.723  0.0766 -1.0013  0.5276
 8055SOL    HW236045   4.050   2.983  16.618 -0.8376 -1.8229  0.1997
 8056SOL     OW36046   0.473   3.909   3.744 -0.5622  0.4072  0.6044
 8056SOL    HW136047   0.562   3.882   3.769 -1.1728 -0.4307  1.8505
 8056SOL    HW236048   0.481   3.933   3.651  1.1520  1.1555  0.9409
 8057SOL     OW36049   3.364   3.503  15.989 -0.2972 -0.1990 -0.4446
 8057SOL    HW136050   3.365   3.481  16.082  0.7848 -1.0700 -0.6557
 8057SOL    HW236051   3.416   3.582  15.981  2.0284 -1.7735 -0.7191
 8058SOL     OW36052   4.440   0.425   3.944  0.1981 -0.3742  0.0015
 8058SOL    HW136053   4.463   0.504   3.993 -1.6577  1.8085 -2.6435
 8058SOL    HW236054   4.523   0.379   3.932  1.5909  2.1468 -0.1423
 8059SOL     OW36055   4.483   4.693   1.264  0.1954 -0.2463 -0.7616
 8059SOL    HW136056   4.519   4.695   1.175  0.6999 -0.1756 -0.5565
 8059SOL    HW236057   4.390   4.707   1.252  0.5841  2.0351 -1.0923
 8060SOL     OW36058   0.989   0.471  16.145  0.0370  0.0895 -0.5657
 8060SOL    HW136059   0.913   0.430  16.186 -0.0580 -0.0589 -0.8904
 8060SOL    HW236060   1.061   0.456  16.206 -0.0376 -0.3948 -0.6017
 8061SOL     OW36061   2.570   4.490   2.234 -0.0705  0.4195 -0.2406
 8061SOL    HW136062   2.660   4.506   2.203  0.0036 -0.2576 -0.3805
 8061SOL    HW236063   2.551   4.401   2.205 -0.2239  0.0022  1.1330
 8062SOL     OW36064   1.478   4.120   6.031 -0.8192  0.3474 -0.5098
 8062SOL    HW136065   1.495   4.125   6.125 -1.6653  2.0769 -0.4477
 8062SOL    HW236066   1.383   4.108   6.025 -0.7720  0.3254 -1.1504
 8063SOL     OW36067   2.600   0.167  20.914 -0.1587  0.0558  0.5288
 8063SOL    HW136068   2.621   0.099  20.977  0.8930 -0.2512 -0.1518
 8063SOL    HW236069   2.620   0.128  20.829 -1.4465  0.5150  0.0176
 8064SOL     OW36070   1.556   3.624   0.959  0.2296 -0.0986  1.1307
 8064SOL    HW136071   1.608   3.553   0.994 -0.0238 -0.4891  0.7190
 8064SOL    HW236072   1.500   3.583   0.893  0.5792  0.6000  0.4001
 8065SOL     OW36073   1.560   3.906  15.417 -0.0289  0.1941  0.1948
 8065SOL    HW136074   1.503   3.977  15.391 -1.2717 -0.3571  1.4024
 8065SOL    HW236075   1.615   3.943  15.487  0.9918  0.6826 -0.8699
 8066SOL     OW36076   0.280   4.618  12.469 -0.4598 -0.3848 -0.0018
 8066SOL    HW136077   0.269   4.651  12.558 -1.0452  2.9484 -1.3170
 8066SOL    HW236078   0.191   4.600  12.438 -0.3767  0.2963 -0.6292
 8067SOL     OW36079   1.187   4.083  14.032 -0.1510 -0.3233 -0.1713
 8067SOL    HW136080   1.144   4.161  14.067 -0.4141 -0.3582 -0.4115
 8067SOL    HW236081   1.116   4.034  13.990  0.1101 -0.4262 -0.4906
 8068SOL     OW36082   2.148   1.555  15.624 -0.4418 -0.4330  0.3934
 8068SOL    HW136083   2.177   1.485  15.682  0.6225 -1.4096 -1.3306
 8068SOL    HW236084   2.227   1.605  15.604 -0.7752 -0.1949 -0.3652
 8069SOL     OW36085   1.497   4.457  16.389 -0.1629  0.4683  0.3758
 8069SOL    HW136086   1.495   4.375  16.437  0.9100  1.6885  2.4980
 8069SOL    HW236087   1.477   4.433  16.299  3.5342 -2.5942  0.3780
 8070SOL     OW36088   3.819   0.527   2.595  0.2814  0.1165 -0.2102
 8070SOL    HW136089   3.769   0.459   2.639  0.0306  0.6782  0.3752
 8070SOL    HW236090   3.781   0.532   2.507  1.0237 -1.2564 -0.6059
 8071SOL     OW36091   1.447   3.164   8.987 -0.4675 -0.3495  0.3858
 8071SOL    HW136092   1.413   3.152   9.076 -3.6694 -2.4251 -1.1189
 8071SOL    HW236093   1.450   3.076   8.951  0.2785  0.5744 -1.7794
 8072SOL     OW36094   1.985   1.071   1.878  0.4668 -0.0358 -0.2387
 8072SOL    HW136095   1.981   0.975   1.874  1.4403 -0.0989  0.4073
 8072SOL    HW236096   1.944   1.100   1.796 -0.0256 -1.0035 -0.3289
 8073SOL     OW36097   0.599   0.754   2.906  0.7001 -0.7822 -0.0119
 8073SOL    HW136098   0.668   0.797   2.856 -0.0614 -2.1396 -2.2205
 8073SOL    HW236099   0.518   0.776   2.860 -0.0727 -1.3627  1.0711
 8074SOL     OW36100   1.890   0.218  12.030  0.1251  0.0586  0.4966
 8074SOL    HW136101   1.822   0.231  12.097 -0.4233  0.2382 -0.0976
 8074SOL    HW236102   1.885   0.297  11.976  0.7343  0.0181  0.3852
 8075SOL     OW36103   0.476   3.755  18.651  0.3648 -0.6462  0.2003
 8075SOL    HW136104   0.468   3.719  18.740 -0.5436 -0.0887  0.3513
 8075SOL    HW236105   0.403   3.716  18.603  0.0433  0.1289  0.0642
 8076SOL     OW36106   3.315   0.530   7.358  0.2019  0.2219 -0.3738
 8076SOL    HW136107   3.320   0.574   7.443  1.8798 -1.1667  0.2396
 8076SOL    HW236108   3.403   0.498   7.342 -0.7543 -1.9890 -1.3001
 8077SOL     OW36109   0.510   1.957   2.107  0.0744 -0.6896 -0.6498
 8077SOL    HW136110   0.478   2.036   2.063 -0.2685 -0.4948 -0.0639
 8077SOL    HW236111   0.433   1.900   2.110 -0.4881  0.1898  1.6829
 8078SOL     OW36112   1.688   2.999  14.281  0.2486  0.4736  0.0633
 8078SOL    HW136113   1.659   2.908  14.289  1.1965  0.1276 -0.4280
 8078SOL    HW236114   1.668   3.022  14.190  1.2717  0.3285 -0.1919
 8079SOL     OW36115   1.445   4.721  13.365  0.2445 -0.7824 -0.0617
 8079SOL    HW136116   1.525   4.682  13.401  0.2010 -1.2875 -0.5071
 8079SOL    HW236117   1.473   0.031  13.333  1.0605 -1.8087 -2.1139
 8080SOL     OW36118   1.491   3.273   2.897  0.1420 -0.1506  0.6436
 8080SOL    HW136119   1.488   3.283   2.992  0.4694 -1.8635  0.8290
 8080SOL    HW236120   1.518   3.183   2.883  0.9620  0.3598 -1.0765
 8081SOL     OW36121   4.573   4.335   4.307  0.3259  0.2326 -0.3421
 8081SOL    HW136122   4.588   4.407   4.368 -0.4036  1.5571 -1.7195
 8081SOL    HW236123   4.502   4.285   4.346 -0.9876  1.7819 -0.7321
 8082SOL     OW36124   1.041   1.997  15.862  0.0242  0.0142 -0.2817
 8082SOL    HW136125   1.120   2.008  15.914 -0.3780  0.1859  0.2897
 8082SOL    HW236126   0.970   1.995  15.926 -0.4388 -0.0833 -0.7987
 8083SOL     OW36127   3.711   2.501  19.931 -0.7027 -1.0113 -0.0163
 8083SOL    HW136128   3.714   2.416  19.885 -1.1406 -2.2381  2.2549
 8083SOL    HW236129   3.655   2.486  20.006 -2.5388  1.9160 -0.8071
 8084SOL     OW36130   0.247   4.511  20.912 -0.1898  0.0613 -0.2337
 8084SOL    HW136131   0.274   4.594  20.950 -0.7875 -0.5322  1.4591
 8084SOL    HW236132   0.298   4.445  20.959 -0.0267 -0.5601 -1.2866
 8085SOL     OW36133   2.562   3.002  18.919  0.3847  0.2111  0.3080
 8085SOL    HW136134   2.539   2.936  18.854  0.8235 -0.1672  0.5399
 8085SOL    HW236135   2.557   3.085  18.872  0.0172 -0.0031 -0.0279
 8086SOL     OW36136   1.156   4.105  12.933 -0.1985 -0.5724  0.4369
 8086SOL    HW136137   1.094   4.089  13.004  0.9883 -0.0855  1.5778
 8086SOL    HW236138   1.116   4.063  12.856 -2.0576 -0.0633  1.1111
 8087SOL     OW36139   0.507   2.859  19.992  0.0103 -0.0371  0.1578
 8087SOL    HW136140   0.487   2.877  20.084  0.3640  1.6019 -0.0824
 8087SOL    HW236141   0.496   2.764  19.983 -0.9747 -0.0625  1.6533
 8088SOL     OW36142   4.513   2.438   1.439  0.1460 -0.1081 -0.1141
 8088SOL    HW136143   4.449   2.372   1.466  0.0538  0.2674  0.5939
 8088SOL    HW236144   4.594   2.390   1.425  0.3876 -0.1753  1.6058
 8089SOL     OW36145   2.633   4.591  18.797  0.3539 -0.6286 -0.0747
 8089SOL    HW136146   2.644   4.676  18.754 -1.0203 -1.5223 -2.2184
 8089SOL    HW236147   2.722   4.564  18.819  1.0350  0.1319 -1.8161
 8090SOL     OW36148   0.836   3.930   2.427  0.1942  0.0339 -0.2830
 8090SOL    HW136149   0.911   3.921   2.369 -0.2301 -2.1026 -0.4748
 8090SOL    HW236150   0.863   3.996   2.491  2.4400 -1.1610 -0.0248
 8091SOL     OW36151   3.915   0.694   3.718  0.2350  0.2119  0.3604
 8091SOL    HW136152   3.979   0.750   3.675 -0.8384  1.0111 -0.2236
 8091SOL    HW236153   3.962   0.613   3.736  1.0063  0.2663 -1.3563
 8092SOL     OW36154   3.254   2.134   3.232 -0.0241  0.6964 -0.2443
 8092SOL    HW136155   3.161   2.134   3.207  0.7001 -1.8643 -2.9855
 8092SOL    HW236156   3.261   2.066   3.298  1.1335 -3.4535 -4.6627
 8093SOL     OW36157   2.454   0.655  19.032 -0.4223  0.2149 -0.5302
 8093SOL    HW136158   2.497   0.661  18.947 -0.2928 -1.6547 -0.5877
 8093SOL    HW236159   2.362   0.642  19.013 -0.4137 -0.0658 -0.3823
 8094SOL     OW36160   4.715   3.275  14.258 -0.4853  0.2888  0.0976
 8094SOL    HW136161   4.669   3.313  14.182 -1.3240  0.7699  0.8391
 8094SOL    HW236162   4.773   3.345  14.288 -0.0052  0.0272 -0.2324
 8095SOL     OW36163   0.043   2.530  16.143  0.0719 -0.0895 -0.2961
 8095SOL    HW136164   0.095   2.452  16.161 -0.7256 -0.4122  0.5596
 8095SOL    HW236165   4.754   2.501  16.079  0.9143  0.3038 -1.3330
 8096SOL     OW36166   2.937   1.726   0.461 -0.3678 -0.2747 -0.2211
 8096SOL    HW136167   3.015   1.670   0.459  0.0961  0.3318  1.0149
 8096SOL    HW236168   2.921   1.742   0.554 -0.6018  1.5151 -0.5623
 8097SOL     OW36169   2.915   3.242   4.754 -0.0131 -0.2168  0.0565
 8097SOL    HW136170   2.858   3.314   4.782  0.4646 -0.8642  2.7332
 8097SOL    HW236171   2.997   3.259   4.801  0.7569 -1.3576 -0.9129
 8098SOL     OW36172   0.883   1.745   4.047  0.0537  0.7930  0.0406
 8098SOL    HW136173   0.818   1.772   4.112 -0.1704 -0.7256  0.4540
 8098SOL    HW236174   0.838   1.753   3.963 -0.8813 -0.8509  0.3734
 8099SOL     OW36175   3.407   2.078   0.458  0.4770  0.2326 -0.1535
 8099SOL    HW136176   3.391   2.110   0.369  0.1041 -1.3060 -0.6506
 8099SOL    HW236177   3.486   2.025   0.451  1.2470  1.2747  0.7153
 8100SOL     OW36178   4.101   3.340   8.345  0.1832  0.1676 -0.7283
 8100SOL    HW136179   4.100   3.406   8.414  1.5227  0.0643 -0.6129
 8100SOL    HW236180   4.041   3.272   8.376  1.4495 -0.2861  0.7222
 8101SOL     OW36181   2.095   1.037  12.473  0.4129 -0.1393 -0.0901
 8101SOL    HW136182   2.050   1.112  12.512 -1.7016 -0.9932 -0.9053
 8101SOL    HW236183   2.186   1.048  12.500 -0.1171  2.0353  0.8616
 8102SOL     OW36184   0.450   0.959   1.238  0.8704 -0.7410 -0.5300
 8102SOL    HW136185   0.395   0.956   1.317  0.5213  0.3677 -0.7375
 8102SOL    HW236186   0.516   1.025   1.256  0.0144  0.4202 -1.6826
 8103SOL     OW36187   1.265   3.956   3.908 -0.0580 -0.2971 -0.0516
 8103SOL    HW136188   1.291   3.865   3.891  0.2174 -0.3173  0.4468
 8103SOL    HW236189   1.318   3.981   3.985 -0.0209  0.3309 -0.2828
 8104SOL     OW36190   4.360   0.618   5.820 -0.3006 -0.4782  0.1547
 8104SOL    HW136191   4.379   0.634   5.912 -0.0252 -2.8321  0.5105
 8104SOL    HW236192   4.445   0.627   5.776 -0.0626 -1.4421  0.4185
 8105SOL     OW36193   0.370   0.794  19.504  0.1264 -0.1531 -0.2246
 8105SOL    HW136194   0.424   0.796  19.583  1.3252 -0.5155 -1.0406
 8105SOL    HW236195   0.413   0.730  19.447 -0.6668  0.2052 -1.2261
 8106SOL     OW36196   1.970   0.687   4.310  0.3426 -0.3567  0.1677
 8106SOL    HW136197   1.916   0.615   4.278  1.6493 -1.2733  0.0740
 8106SOL    HW236198   2.058   0.651   4.319  0.8402  1.0029  0.8656
 8107SOL     OW36199   0.833   0.301   3.869  0.5615 -0.0825 -0.1607
 8107SOL    HW136200   0.927   0.300   3.852  0.3345 -0.1959 -1.4012
 8107SOL    HW236201   0.822   0.253   3.951  1.3844 -1.6863 -0.9965
 8108SOL     OW36202   3.225   3.001   0.013 -0.1979  0.0543  0.1774
 8108SOL    HW136203   3.208   3.017   0.106  1.3973  2.4590  0.0313
 8108SOL    HW236204   3.159   3.054  21.164 -0.5845 -0.6454 -0.0733
 8109SOL     OW36205   0.987   2.196  17.528  0.6038 -0.0552  0.3878
 8109SOL    HW136206   1.060   2.142  17.558  2.0428  1.7797  0.1784
 8109SOL    HW236207   0.933   2.208  17.606  0.9161 -0.7727  0.7217
 8110SOL     OW36208   2.738   1.003  20.346 -0.3168 -0.1764  0.1251
 8110SOL    HW136209   2.677   0.996  20.272 -0.8979  2.1011  0.3848
 8110SOL    HW236210   2.691   1.057  20.410  1.0601 -0.3457  1.2729
 8111SOL     OW36211   3.094   2.385  19.148 -0.4943  0.0256  0.0763
 8111SOL    HW136212   3.125   2.470  19.180  0.0284 -0.9802  2.1963
 8111SOL    HW236213   3.142   2.371  19.066 -1.4585  2.3374 -0.8773
 8112SOL     OW36214   1.676   1.647  19.833 -0.2220 -0.7404  0.8080
 8112SOL    HW136215   1.756   1.682  19.794 -0.5307  0.3769  1.1808
 8112SOL    HW236216   1.605   1.688  19.782 -0.5880 -0.6083  1.4291
 8113SOL     OW36217   1.703   3.868  19.978 -0.4989 -0.7537  0.2580
 8113SOL    HW136218   1.710   3.939  20.042 -2.5345 -0.3712  0.0548
 8113SOL    HW236219   1.661   3.909  19.902  1.6126 -1.2873 -1.1792
 8114SOL     OW36220   4.296   2.188   2.425 -0.0599  0.3133  0.0878
 8114SOL    HW136221   4.241   2.208   2.501 -0.9137  2.2169 -1.0239
 8114SOL    HW236222   4.384   2.214   2.452 -0.0986 -0.4481  0.9751
 8115SOL     OW36223   4.087   2.699  18.319 -0.3519  0.0888 -0.2126
 8115SOL    HW136224   4.020   2.765  18.299 -0.0554  0.2317 -0.7417
 8115SOL    HW236225   4.078   2.636  18.248 -1.1250 -0.8156  0.6930
 8116SOL     OW36226   4.511   2.032  19.951  0.0998 -0.9088 -0.4109
 8116SOL    HW136227   4.437   2.062  20.003 -0.8957 -0.6685 -1.9375
 8116SOL    HW236228   4.471   1.995  19.872  1.4828 -3.1512 -0.0618
 8117SOL     OW36229   0.279   2.596   9.489 -0.8370 -0.0248  0.0705
 8117SOL    HW136230   0.286   2.686   9.458 -2.1913 -0.0184 -0.2184
 8117SOL    HW236231   0.331   2.545   9.427  1.1214  0.7509  1.0745
 8118SOL     OW36232   0.207   3.049  12.952  0.3116  0.2451 -0.0344
 8118SOL    HW136233   0.212   3.044  13.047 -1.1545  2.3176  0.1707
 8118SOL    HW236234   0.293   3.081  12.925  0.7284 -0.3491  0.6068
 8119SOL     OW36235   4.018   3.788   2.009 -0.0515  0.1500  0.5268
 8119SOL    HW136236   3.993   3.716   2.068 -0.0748  0.5947  1.0554
 8119SOL    HW236237   4.051   3.744   1.930 -0.2855 -0.4424  0.7601
 8120SOL     OW36238   3.300   4.326   9.742 -0.5715  0.1236 -0.7064
 8120SOL    HW136239   3.342   4.263   9.800 -0.7610 -0.3860 -1.1294
 8120SOL    HW236240   3.214   4.289   9.724  0.0421 -0.4177 -2.4847
 8121SOL     OW36241   2.324   4.169  15.736  0.2420 -0.1170 -0.3835
 8121SOL    HW136242   2.300   4.256  15.704 -0.6051  0.1205  0.8914
 8121SOL    HW236243   2.377   4.187  15.814 -0.3022 -0.7514  0.1295
 8122SOL     OW36244   4.230   2.953   0.637  0.1363 -0.0174 -0.3816
 8122SOL    HW136245   4.273   2.871   0.660  1.5815  0.7032 -0.5189
 8122SOL    HW236246   4.221   3.000   0.721 -0.0320  0.0003 -0.4088
 8123SOL     OW36247   4.648   0.819   2.271 -0.0033 -0.2342 -0.3634
 8123SOL    HW136248   4.621   0.728   2.267 -0.2396 -0.1481 -0.6850
 8123SOL    HW236249   4.568   0.869   2.254  0.6834  0.0004 -2.8631
 8124SOL     OW36250   4.306   3.942   0.253 -0.1111 -0.0995  0.3794
 8124SOL    HW136251   4.263   3.919   0.171 -0.5313 -0.1937  0.6274
 8124SOL    HW236252   4.234   3.958   0.314  0.2395 -2.0155  1.2729
 8125SOL     OW36253   3.213   3.161  20.532  0.7842  0.3097  0.2107
 8125SOL    HW136254   3.190   3.077  20.491  1.8011  0.9642 -1.6981
 8125SOL    HW236255   3.290   3.141  20.585  2.2016  0.4499 -1.7786
 8126SOL     OW36256   2.711   1.741  17.082 -0.2576  0.1005 -0.9753
 8126SOL    HW136257   2.669   1.777  17.160  1.2350 -0.2471 -0.0111
 8126SOL    HW236258   2.741   1.654  17.109  1.6918  0.6304 -1.4733
 8127SOL     OW36259   1.218   0.415  19.235 -0.3699 -0.2602  0.3260
 8127SOL    HW136260   1.260   0.331  19.254  1.2784  0.6343  0.6211
 8127SOL    HW236261   1.290   0.477  19.231 -1.6122  1.1625  0.1773
 8128SOL     OW36262   4.397   3.917   9.627 -0.5445  0.1727 -0.4521
 8128SOL    HW136263   4.324   3.967   9.663 -1.2499 -1.3955  0.2936
 8128SOL    HW236264   4.356   3.854   9.568  0.2578 -0.3001 -0.4997
 8129SOL     OW36265   4.048   3.234  16.952  0.4727  0.3803  0.1195
 8129SOL    HW136266   4.062   3.314  16.901  1.1777 -1.3829 -2.4684
 8129SOL    HW236267   4.132   3.217  16.994  1.1383 -0.6034 -1.6222
 8130SOL     OW36268   1.453   4.763  16.042  0.0896 -0.3319 -0.2068
 8130SOL    HW136269   1.510   4.695  16.007  2.1503  0.6950  1.1910
 8130SOL    HW236270   1.454   0.056  15.975 -0.4189 -0.7849 -0.6902
 8131SOL     OW36271   1.330   1.476   3.085  0.0536  0.2486 -0.3612
 8131SOL    HW136272   1.342   1.568   3.107 -1.8749  0.3664  0.2158
 8131SOL    HW236273   1.236   1.468   3.066  0.6750 -1.0377 -2.9362
 8132SOL     OW36274   3.907   4.746   3.135 -0.4108 -0.2508 -0.2351
 8132SOL    HW136275   3.895   0.065   3.145  0.3272 -0.0967 -0.8334
 8132SOL    HW236276   3.881   4.710   3.220 -4.3403  0.1596 -1.2621
 8133SOL     OW36277   3.920   1.043  16.450 -0.4253 -0.0453 -0.6037
 8133SOL    HW136278   3.924   1.096  16.371  1.6304  0.2495 -0.3193
 8133SOL    HW236279   3.845   1.077  16.499 -2.6711 -1.3003 -3.1787
 8134SOL     OW36280   1.208   2.793  17.813 -0.3869 -0.0666 -0.0969
 8134SOL    HW136281   1.133   2.783  17.872 -0.9030 -1.2510 -0.9507
 8134SOL    HW236282   1.245   2.879  17.835 -1.1777 -0.0827  1.2596
 8135SOL     OW36283   1.081   3.031  20.111  0.0835  0.1256  0.2602
 8135SOL    HW136284   1.117   3.042  20.199  0.6589  0.9394 -0.0721
 8135SOL    HW236285   1.009   2.969  20.122  1.5902 -1.5137  0.9228
 8136SOL     OW36286   4.600   0.149   2.434 -0.0852 -0.2052 -0.1663
 8136SOL    HW136287   4.674   0.202   2.403 -0.0104 -0.9337 -1.2248
 8136SOL    HW236288   4.640   0.066   2.462 -0.4635 -0.4877 -0.4610
 8137SOL     OW36289   3.782   0.153  16.603  0.1285  0.3659 -0.5342
 8137SOL    HW136290   3.689   0.174  16.612  0.4573  1.1166  1.1067
 8137SOL    HW236291   3.796   0.147  16.509 -1.7706 -0.5973 -0.7689
 8138SOL     OW36292   0.953   2.314   1.549  0.0573 -0.4314  0.3996
 8138SOL    HW136293   1.008   2.284   1.621 -0.0269 -0.1005  0.5992
 8138SOL    HW236294   0.871   2.341   1.591 -0.2208 -0.8238  0.1150
 8139SOL     OW36295   2.746   2.032   8.263  0.0654 -0.4714  0.0717
 8139SOL    HW136296   2.719   1.941   8.277 -0.9804 -0.1249  0.3179
 8139SOL    HW236297   2.841   2.029   8.263  0.0296 -1.6635 -0.4781
 8140SOL     OW36298   3.185   2.349  19.439  0.0876 -0.0089  0.3797
 8140SOL    HW136299   3.191   2.255  19.454  2.8660  0.1844  0.5229
 8140SOL    HW236300   3.155   2.358  19.349  1.2134 -1.0272 -0.0958
 8141SOL     OW36301   2.231   3.086  18.754  0.2647 -0.5266  0.1150
 8141SOL    HW136302   2.264   3.065  18.667  1.0654 -1.1100  0.5557
 8141SOL    HW236303   2.180   3.009  18.779 -0.7683  0.0431 -0.2380
 8142SOL     OW36304   1.322   3.496  15.874 -0.3838  0.5153  0.3200
 8142SOL    HW136305   1.356   3.442  15.802 -0.5979 -1.0818  1.4093
 8142SOL    HW236306   1.228   3.502  15.857 -0.5145 -0.2883  0.7347
 8143SOL     OW36307   1.694   1.831  21.030  0.1124 -0.0580 -0.5143
 8143SOL    HW136308   1.620   1.775  21.005  1.8235 -0.8456 -3.7858
 8143SOL    HW236309   1.656   1.918  21.039 -1.3960 -0.6338 -1.3117
 8144SOL     OW36310   3.506   2.465   1.576 -0.2614  0.0687 -0.2143
 8144SOL    HW136311   3.418   2.437   1.602 -1.4728  2.1673 -2.1008
 8144SOL    HW236312   3.505   2.462   1.481  1.6136  0.4092 -0.2398
 8145SOL     OW36313   3.182   0.598   0.161 -0.5890  0.6667  0.9109
 8145SOL    HW136314   3.260   0.584   0.107 -1.4269 -0.4609 -0.0087
 8145SOL    HW236315   3.196   0.683   0.203  0.7574  0.8326  0.1066
 8146SOL     OW36316   1.771   0.510  20.129 -0.6621 -0.6108  0.2713
 8146SOL    HW136317   1.759   0.585  20.071 -0.1178 -1.3716 -0.8351
 8146SOL    HW236318   1.824   0.543  20.201 -0.5956  0.1237 -0.1174
 8147SOL     OW36319   4.481   0.539  19.612 -0.1049  0.5780 -0.8070
 8147SOL    HW136320   4.401   0.508  19.656  0.7524 -0.7187 -0.1413
 8147SOL    HW236321   4.450   0.580  19.532 -1.6220  2.1272  0.5787
 8148SOL     OW36322   1.929   0.496   2.012  0.1543 -0.2251  0.5517
 8148SOL    HW136323   1.941   0.478   2.105  0.7775  2.0277  0.9025
 8148SOL    HW236324   1.967   0.420   1.968 -0.3304 -1.3792  2.1522
 8149SOL     OW36325   4.408   3.843   4.065  0.0565 -0.1939  0.1370
 8149SOL    HW136326   4.498   3.871   4.049 -0.4734  1.1415 -0.5603
 8149SOL    HW236327   4.366   3.848   3.978 -0.3363 -2.0445  0.2237
 8150SOL     OW36328   2.196   4.278  18.891 -0.1366 -0.2523  0.0054
 8150SOL    HW136329   2.208   4.210  18.825  1.4497  0.6364 -0.6135
 8150SOL    HW236330   2.278   4.327  18.891  0.1572 -0.7555  3.2352
 8151SOL     OW36331   3.313   4.524  18.486 -0.2204  0.1538  0.2328
 8151SOL    HW136332   3.389   4.571  18.452  0.1137 -1.0992 -0.7932
 8151SOL    HW236333   3.266   4.495  18.407 -1.3508  0.2854  0.8603
 8152SOL     OW36334   1.792   0.558   1.360 -0.7030 -0.4672 -0.2399
 8152SOL    HW136335   1.759   0.511   1.437  2.3093  1.0994  1.9785
 8152SOL    HW236336   1.887   0.559   1.372 -0.3377  0.6335 -3.4984
 8153SOL     OW36337   3.665   1.647   1.126 -0.5305  0.2954  0.4069
 8153SOL    HW136338   3.731   1.715   1.114 -0.6617 -0.0760 -2.3312
 8153SOL    HW236339   3.587   1.681   1.082 -1.0934 -0.8886  0.4886
 8154SOL     OW36340   0.651   3.528  17.320  0.6950  0.5378 -0.4650
 8154SOL    HW136341   0.602   3.445  17.328  0.8513  0.6272  1.3506
 8154SOL    HW236342   0.602   3.578  17.254  0.2433 -0.7479 -1.1147
 8155SOL     OW36343   2.489   0.565  20.934  0.4768  0.8977 -0.7663
 8155SOL    HW136344   2.453   0.542  20.849  2.1954 -0.1846 -1.1946
 8155SOL    HW236345   2.575   0.523  20.936 -1.0101 -2.0384  2.8799
 8156SOL     OW36346   2.056   0.943  20.162  0.1802 -0.1783  0.6741
 8156SOL    HW136347   2.121   1.009  20.139 -0.9745  1.3155  1.7137
 8156SOL    HW236348   1.983   0.993  20.198 -1.5314 -1.8574 -0.4792
 8157SOL     OW36349   0.353   3.004   0.131 -0.1994  0.3835 -0.1956
 8157SOL    HW136350   0.298   3.054   0.190  0.7663  2.6866 -1.2540
 8157SOL    HW236351   0.370   2.922   0.177 -0.2364  1.7883  2.2841
 8158SOL     OW36352   0.893   0.672  18.993 -0.0629 -0.4499  0.0193
 8158SOL    HW136353   0.971   0.695  18.942 -0.5901 -2.3013 -1.5957
 8158SOL    HW236354   0.908   0.582  19.021 -1.5069 -0.7246 -0.0712
 8159SOL     OW36355   1.015   3.342  17.544  0.2993  0.3672  0.2530
 8159SOL    HW136356   1.094   3.309  17.587  0.4699  1.8063  1.0703
 8159SOL    HW236357   1.037   3.347  17.451  0.0749 -2.3619  0.0541
 8160SOL     OW36358   0.768   2.013  16.359 -0.2963 -0.0313  0.5651
 8160SOL    HW136359   0.694   1.977  16.310 -0.0125 -0.0218  0.1308
 8160SOL    HW236360   0.779   1.953  16.433 -0.1957 -0.5219  0.1602
 8161SOL     OW36361   2.796   4.348   0.287  0.1252  0.4004 -0.5287
 8161SOL    HW136362   2.838   4.355   0.201 -0.0148  1.4398 -0.5095
 8161SOL    HW236363   2.806   4.435   0.326  0.6253 -0.2161  0.7042
 8162SOL     OW36364   1.111   3.678   2.629  0.3589  0.3769  0.3818
 8162SOL    HW136365   1.124   3.773   2.624 -2.1710  0.7577  0.8306
 8162SOL    HW236366   1.162   3.651   2.705  3.3012  0.9836 -1.3958
 8163SOL     OW36367   2.192   3.032  19.566 -0.4479  0.3527  0.3218
 8163SOL    HW136368   2.163   2.966  19.628  1.4189 -1.4184 -0.6928
 8163SOL    HW236369   2.272   3.068  19.605  1.1313 -1.2748 -1.4217
 8164SOL     OW36370   2.309   0.549   3.723 -0.6054 -0.3830  0.0841
 8164SOL    HW136371   2.288   0.529   3.814  1.2285 -1.9347  0.1678
 8164SOL    HW236372   2.347   0.637   3.725  0.1492 -0.7361  0.9053
 8165SOL     OW36373   1.743   2.338  18.125 -0.0420  0.2530  0.5307
 8165SOL    HW136374   1.780   2.302  18.206  0.6253 -1.7668 -0.6800
 8165SOL    HW236375   1.693   2.414  18.154  0.8055 -0.0374  2.7764
 8166SOL     OW36376   0.414   2.271   0.348  0.0147 -0.0424  0.5142
 8166SOL    HW136377   0.347   2.261   0.416  1.8994 -0.3813  2.3395
 8166SOL    HW236378   0.448   2.183   0.335  2.4063  0.6567  1.9726
 8167SOL     OW36379   3.453   1.085  20.851 -0.0751 -0.1226 -0.3222
 8167SOL    HW136380   3.403   1.158  20.887 -1.0623 -0.1090 -1.7599
 8167SOL    HW236381   3.452   1.098  20.756  1.2528 -1.0225 -0.4727
 8168SOL     OW36382   0.635   3.157  11.287 -0.4234  0.7051  0.0551
 8168SOL    HW136383   0.683   3.075  11.293 -0.8233  0.4586 -0.0751
 8168SOL    HW236384   0.645   3.185  11.196  0.4078  1.2237  0.3141
 8169SOL     OW36385   0.089   0.579   9.587  0.6115  0.9319  0.3495
 8169SOL    HW136386   0.100   0.646   9.520  0.8779 -0.2538 -0.8086
 8169SOL    HW236387   4.772   0.578   9.607  0.1986 -0.2863 -1.6487
 8170SOL     OW36388   2.189   4.712  19.890 -0.3351 -0.4594 -0.4049
 8170SOL    HW136389   2.242   4.765  19.950  1.1280  1.2581 -3.2106
 8170SOL    HW236390   2.218   4.622  19.905  0.1074 -0.0113  1.4001
 8171SOL     OW36391   4.330   2.212   3.752 -0.2431 -0.2607  0.5569
 8171SOL    HW136392   4.305   2.188   3.841  0.6519 -0.3764  0.7859
 8171SOL    HW236393   4.423   2.188   3.747 -0.0304  0.7192 -0.0718
 8172SOL     OW36394   2.048   0.460  12.478 -0.3663 -0.3401 -0.2488
 8172SOL    HW136395   2.142   0.447  12.487 -0.2620  0.4640 -0.1561
 8172SOL    HW236396   2.010   0.374  12.494  0.4914 -1.1416 -2.5818
 8173SOL     OW36397   4.491   2.569  20.255 -0.9589  0.0920 -0.0911
 8173SOL    HW136398   4.481   2.546  20.348  0.8018  1.8034  0.5186
 8173SOL    HW236399   4.508   2.663  20.255 -0.5008  0.0039 -2.1072
 8174SOL     OW36400   4.723   1.816  19.820 -0.1961 -0.1814 -0.0077
 8174SOL    HW136401   4.686   1.886  19.874 -0.3968  0.0786 -0.4817
 8174SOL    HW236402   0.015   1.777  19.875  1.4781  1.8808 -0.6189
 8175SOL     OW36403   0.525   3.973   1.481 -0.3586  0.2502 -1.1055
 8175SOL    HW136404   0.503   3.880   1.468 -2.0953  0.7223 -1.5010
 8175SOL    HW236405   0.539   4.007   1.393  0.6251  0.2793 -0.9374
 8176SOL     OW36406   3.975   4.765   0.494  0.2662 -0.6334 -0.2801
 8176SOL    HW136407   4.008   0.078   0.503  0.2281 -0.4860 -1.5833
 8176SOL    HW236408   4.051   4.714   0.466  0.6706 -1.3098  2.0926
 8177SOL     OW36409   0.620   0.631  15.755  0.7075  0.3622 -0.7747
 8177SOL    HW136410   0.652   0.716  15.783 -1.9106  0.3910  2.1680
 8177SOL    HW236411   0.615   0.636  15.660  2.1579  2.9207 -0.6920
 8178SOL     OW36412   0.259   2.860  17.951 -0.1385 -0.0218 -0.7390
 8178SOL    HW136413   0.320   2.832  18.018 -0.1431  1.5686 -0.0695
 8178SOL    HW236414   0.290   2.947  17.925 -1.4014  0.2817 -1.2426
 8179SOL     OW36415   2.475   3.736   1.074  0.2604  0.0849  0.0597
 8179SOL    HW136416   2.462   3.646   1.046  3.0384 -0.5435  0.7565
 8179SOL    HW236417   2.397   3.759   1.124 -1.6215 -1.0744 -2.3892
 8180SOL     OW36418   2.766   3.666   4.994 -0.0031  0.5128  0.0450
 8180SOL    HW136419   2.855   3.702   4.985  0.1478  0.1975  0.2979
 8180SOL    HW236420   2.711   3.727   4.944  0.5248  0.0481 -1.1122
 8181SOL     OW36421   2.521   3.119  20.353  0.3811  0.4947  0.4533
 8181SOL    HW136422   2.531   3.078  20.439  1.8728 -2.6183 -1.1840
 8181SOL    HW236423   2.572   3.199  20.358  2.3693 -0.8560  1.6960
 8182SOL     OW36424   0.700   0.569   3.918 -0.5276  0.5517  0.1488
 8182SOL    HW136425   0.667   0.499   3.862 -0.2973  0.4151  0.1836
 8182SOL    HW236426   0.795   0.554   3.921 -0.3563  1.4802 -0.6984
 8183SOL     OW36427   1.031   0.406   2.666  0.2338  0.2675 -0.4449
 8183SOL    HW136428   1.005   0.328   2.615  0.5256 -0.2400  0.1867
 8183SOL    HW236429   1.023   0.378   2.757  0.6850  0.8741 -0.2270
 8184SOL     OW36430   3.033   3.926   1.856  0.2495  0.0108  0.0809
 8184SOL    HW136431   2.949   3.886   1.834  0.8274 -1.2629  0.1801
 8184SOL    HW236432   3.014   4.019   1.866 -1.2203 -0.3409  0.4908
 8185SOL     OW36433   2.907   2.060   5.803  0.4746 -0.0290  0.2902
 8185SOL    HW136434   2.884   1.976   5.764  1.5370  0.1137 -0.6503
 8185SOL    HW236435   2.966   2.039   5.874  1.3754 -0.0148 -0.4561
 8186SOL     OW36436   0.538   1.603   0.978 -0.6038  0.1482 -0.3623
 8186SOL    HW136437   0.488   1.522   0.971  0.6259 -0.6285 -0.0920
 8186SOL    HW236438   0.629   1.575   0.980 -0.1858  1.5313 -0.1860
 8187SOL     OW36439   3.151   2.469   3.948  0.2752  0.1439  0.3642
 8187SOL    HW136440   3.106   2.417   4.015 -0.9548  1.5715  0.6591
 8187SOL    HW236441   3.110   2.556   3.953  3.7701  1.7476  1.3163
 8188SOL     OW36442   0.594   3.379   4.951  0.4550  0.0927 -0.0093
 8188SOL    HW136443   0.542   3.450   4.913  0.9190  0.3417 -0.1828
 8188SOL    HW236444   0.611   3.321   4.876 -0.7855 -0.7264  0.3376
 8189SOL     OW36445   0.722   1.659   9.096 -0.2316  0.1509 -0.1634
 8189SOL    HW136446   0.675   1.599   9.037  0.0365 -1.6760  1.4624
 8189SOL    HW236447   0.653   1.694   9.153 -0.3301  1.0929 -0.8640
 8190SOL     OW36448   1.681   3.701  21.011 -0.4195 -0.0392 -0.5689
 8190SOL    HW136449   1.742   3.632  21.036  0.7421  0.8190 -0.9939
 8190SOL    HW236450   1.726   3.748  20.940 -0.6215  1.9746  0.6359
 8191SOL     OW36451   4.248   4.490  19.369 -0.3580  0.8660 -0.5459
 8191SOL    HW136452   4.314   4.538  19.318 -0.6329  0.5496 -1.2077
 8191SOL    HW236453   4.264   4.515  19.460  2.6903 -1.6511 -0.3922
 8192SOL     OW36454   0.125   0.511   2.170  0.1875  0.0453 -0.3025
 8192SOL    HW136455   0.191   0.508   2.101 -0.4749 -0.4795 -0.9161
 8192SOL    HW236456   0.059   0.572   2.137 -0.4252 -0.6647 -0.4023
 8193SOL     OW36457   1.469   0.947   4.474 -0.4883 -0.0746 -0.0369
 8193SOL    HW136458   1.514   0.916   4.553 -2.5505 -0.0343  1.1527
 8193SOL    HW236459   1.508   0.895   4.403 -0.5716 -2.0708  1.3620
 8194SOL     OW36460   1.954   2.896  15.762 -0.1165 -0.2888 -0.0058
 8194SOL    HW136461   1.916   2.969  15.811 -0.5028 -1.3968  1.3514
 8194SOL    HW236462   1.948   2.822  15.822  3.6943 -0.5847  0.0221
 8195SOL     OW36463   3.873   0.242   0.408  0.1092  0.3228 -0.5170
 8195SOL    HW136464   3.947   0.288   0.368  1.8503 -1.9380  0.1471
 8195SOL    HW236465   3.848   0.176   0.344 -0.0696 -0.2441  0.1456
 8196SOL     OW36466   1.245   3.470   2.047 -0.4726  0.0122  0.1661
 8196SOL    HW136467   1.231   3.563   2.067  0.4159  0.3035 -0.5695
 8196SOL    HW236468   1.170   3.446   1.992  0.1600  0.7090 -0.9892
 8197SOL     OW36469   2.753   0.573  12.514  0.8792 -0.3776  0.5748
 8197SOL    HW136470   2.792   0.643  12.462  0.2163  0.3515  1.0726
 8197SOL    HW236471   2.765   0.601  12.605  1.9995 -1.6276  0.8155
 8198SOL     OW36472   1.573   1.743  13.877  0.5915  0.7623 -0.3858
 8198SOL    HW136473   1.574   1.798  13.955  2.5705  1.2435 -0.7367
 8198SOL    HW236474   1.531   1.796  13.809 -1.8607  0.0335  0.5934
 8199SOL     OW36475   0.584   1.174  13.337 -0.7401 -0.1777  0.4359
 8199SOL    HW136476   0.505   1.208  13.293 -0.6675  0.6338  0.9244
 8199SOL    HW236477   0.562   1.177  13.430  0.3823  1.3546  0.6516
 8200SOL     OW36478   0.552   0.017   0.963 -0.4699 -0.1716 -0.0963
 8200SOL    HW136479   0.618   0.067   0.915 -0.6753 -1.3188 -1.5993
 8200SOL    HW236480   0.603   4.738   1.023 -0.1319  0.1149 -0.1203
 8201SOL     OW36481   1.262   0.401  16.588  0.7492 -0.1796  0.3198
 8201SOL    HW136482   1.233   0.417  16.498  1.2068  1.4618  0.4677
 8201SOL    HW236483   1.242   0.309  16.603 -2.7986  0.5010 -0.1631
 8202SOL     OW36484   2.740   2.390   7.741  0.0012 -0.0846 -0.2113
 8202SOL    HW136485   2.775   2.315   7.694 -0.5856 -0.0018 -0.7810
 8202SOL    HW236486   2.781   2.466   7.699 -0.6224 -0.0034 -0.6745
 8203SOL     OW36487   0.890   4.126  11.465 -0.2494 -0.0386  0.2941
 8203SOL    HW136488   0.838   4.061  11.416 -1.3617 -0.2225  1.7176
 8203SOL    HW236489   0.833   4.203  11.468  0.1296  0.2202  0.6424
 8204SOL     OW36490   1.470   3.006  17.343  0.4105 -0.5817  0.1557
 8204SOL    HW136491   1.384   3.049  17.345  1.3281  1.1239  2.0698
 8204SOL    HW236492   1.524   3.063  17.288  0.7414 -0.9211  0.1341
 8205SOL     OW36493   0.542   4.178  19.546  0.0864 -0.1967 -0.2432
 8205SOL    HW136494   0.611   4.168  19.612  0.1597 -0.0227 -0.2939
 8205SOL    HW236495   0.554   4.103  19.487 -1.1463 -1.3835  1.0112
 8206SOL     OW36496   1.339   1.380  17.664 -0.1892  0.5594 -0.4204
 8206SOL    HW136497   1.336   1.288  17.690  1.5376  0.8516  0.8236
 8206SOL    HW236498   1.287   1.425  17.731  0.3276  0.7035 -0.1179
 8207SOL     OW36499   2.406   4.410   4.060  0.3478 -0.0090 -0.2108
 8207SOL    HW136500   2.435   4.394   4.150  0.3161 -2.1319 -0.5834
 8207SOL    HW236501   2.310   4.408   4.065  0.3589 -1.3308 -0.5111
 8208SOL     OW36502   2.957   0.986   0.023  0.3302 -0.1294 -0.1601
 8208SOL    HW136503   2.886   1.003   0.085  1.2013  0.0053  0.8153
 8208SOL    HW236504   3.031   0.962   0.079  1.3335  0.7460 -1.1087
 8209SOL     OW36505   1.085   1.633   4.194  0.0868 -0.1959  0.1420
 8209SOL    HW136506   1.028   1.685   4.138  0.3022 -0.6558 -0.5064
 8209SOL    HW236507   1.174   1.652   4.162  0.0992 -1.7464 -0.7522
 8210SOL     OW36508   2.339   1.553   3.705  0.1749  0.1253 -0.3641
 8210SOL    HW136509   2.361   1.609   3.631  1.2270 -1.9980 -1.6783
 8210SOL    HW236510   2.265   1.500   3.674 -0.0781 -0.0026  0.4566
 8211SOL     OW36511   2.806   2.313  17.770 -0.4000 -0.1825  0.5495
 8211SOL    HW136512   2.830   2.221  17.769 -1.6026 -0.4954  1.0506
 8211SOL    HW236513   2.784   2.333  17.679  0.8528 -0.1379  0.2642
 8212SOL     OW36514   1.901   4.240   3.469 -0.0162  0.3137 -1.0036
 8212SOL    HW136515   1.833   4.274   3.412  0.7618  0.7057 -1.7006
 8212SOL    HW236516   1.890   4.287   3.551  0.9427  2.1110 -1.9050
 8213SOL     OW36517   4.387   1.016  17.017 -0.0619 -0.2750  0.4444
 8213SOL    HW136518   4.345   0.961  16.951 -0.0190  0.0819  0.1174
 8213SOL    HW236519   4.336   1.003  17.097 -0.7146  0.0758  0.0761
 8214SOL     OW36520   0.689   0.434   2.382 -0.4778 -0.4488  0.5228
 8214SOL    HW136521   0.745   0.360   2.358  0.5174  1.1832 -2.1920
 8214SOL    HW236522   0.743   0.489   2.438  0.2833  0.5478 -1.1791
 8215SOL     OW36523   2.620   0.420  10.579  0.4243  0.0654 -0.0312
 8215SOL    HW136524   2.526   0.408  10.571  0.4383  1.1059 -1.6693
 8215SOL    HW236525   2.631   0.509  10.610  0.8483 -0.1458  0.4202
 8216SOL     OW36526   1.676   2.818  20.501 -0.7225  0.2855  0.3396
 8216SOL    HW136527   1.735   2.823  20.425 -1.6698  0.6866 -0.3804
 8216SOL    HW236528   1.704   2.889  20.558 -1.2037  1.1845 -0.5190
 8217SOL     OW36529   4.594   4.245   9.636  0.2538 -0.2280  0.0344
 8217SOL    HW136530   4.545   4.215   9.712 -0.9287  0.0890 -0.5954
 8217SOL    HW236531   4.541   4.217   9.561  0.9238  0.3184 -0.6496
 8218SOL     OW36532   0.951   2.320   6.934  0.1559 -0.7394  0.5573
 8218SOL    HW136533   0.879   2.278   6.981  1.3150 -0.2326  2.7851
 8218SOL    HW236534   1.030   2.287   6.977  1.1940  0.3290 -0.5279
 8219SOL     OW36535   2.134   3.928  15.106 -0.4100 -0.1830  0.0575
 8219SOL    HW136536   2.201   3.881  15.155 -0.4198 -0.3949 -0.1343
 8219SOL    HW236537   2.158   3.915  15.014 -0.7286 -0.2778 -0.0113
 8220SOL     OW36538   1.070   1.377   3.035 -0.1635  0.6928 -0.2655
 8220SOL    HW136539   1.023   1.447   2.990 -0.0861  0.4159 -0.7865
 8220SOL    HW236540   1.003   1.333   3.087 -0.8661 -0.8868 -2.4786
 8221SOL     OW36541   1.166   0.325   5.347 -0.5325 -0.2807  0.1836
 8221SOL    HW136542   1.146   0.319   5.441 -0.9709 -2.3828 -0.0352
 8221SOL    HW236543   1.142   0.239   5.312  3.7524 -0.9662 -1.0621
 8222SOL     OW36544   0.883   1.214   3.257 -0.0720  0.4216 -0.2397
 8222SOL    HW136545   0.855   1.122   3.253 -0.4235  0.6802 -3.9147
 8222SOL    HW236546   0.806   1.263   3.230  1.1021  1.6536 -1.2963
 8223SOL     OW36547   3.732   3.380  19.205  0.3042 -0.2142  0.5007
 8223SOL    HW136548   3.810   3.345  19.161  0.8408  2.0125 -0.3108
 8223SOL    HW236549   3.740   3.475  19.196 -1.5650  0.0879  2.0397
 8224SOL     OW36550   3.995   1.689   1.302  0.5891 -0.0448  0.3767
 8224SOL    HW136551   3.952   1.604   1.306  0.9817 -0.2136  1.0407
 8224SOL    HW236552   3.968   1.726   1.218  0.3654 -0.7929  0.1201
 8225SOL     OW36553   3.233   4.525   6.853  0.1226 -0.0650  0.1784
 8225SOL    HW136554   3.193   4.584   6.917  0.5201  1.0327 -0.5865
 8225SOL    HW236555   3.288   4.467   6.905 -0.0445  0.4252  0.8960
 8226SOL     OW36556   2.860   2.423  11.730 -0.8834 -0.7530 -0.7856
 8226SOL    HW136557   2.784   2.366  11.740 -0.3708 -1.5536 -1.3786
 8226SOL    HW236558   2.874   2.429  11.635 -0.3816 -0.3830 -0.6942
 8227SOL     OW36559   3.586   2.759  19.585  0.2687  0.7188 -0.2022
 8227SOL    HW136560   3.516   2.739  19.647  1.0839 -0.2800  0.4083
 8227SOL    HW236561   3.627   2.674  19.568 -0.2367  0.9325 -2.4479
 8228SOL     OW36562   1.082   2.304  15.912 -0.2935  0.3050  0.2592
 8228SOL    HW136563   1.005   2.298  15.969  0.0927  2.2847  0.9678
 8228SOL    HW236564   1.152   2.266  15.965 -0.5085 -0.3044  0.1056
 8229SOL     OW36565   0.324   0.425  19.468  0.1041 -0.3544  0.1436
 8229SOL    HW136566   0.313   0.445  19.561  0.3114  0.8310 -0.0920
 8229SOL    HW236567   0.371   0.500  19.432  0.0726 -0.8340 -0.9130
 8230SOL     OW36568   3.496   3.213  16.604  0.1934  0.2206 -0.1333
 8230SOL    HW136569   3.508   3.144  16.669 -1.3012  0.7981  0.7408
 8230SOL    HW236570   3.404   3.238  16.611 -0.2105 -0.4485 -3.2045
 8231SOL     OW36571   0.012   4.622  12.424 -0.1609 -0.4785  0.0329
 8231SOL    HW136572   4.748   4.562  12.487 -1.2658 -0.0191 -0.2379
 8231SOL    HW236573   4.728   4.696  12.419 -0.0426 -0.4913 -1.5116
 8232SOL     OW36574   0.310   4.704   4.366 -0.6621 -0.0412 -0.0390
 8232SOL    HW136575   0.248   4.637   4.397 -0.0415 -1.9483 -2.8728
 8232SOL    HW236576   0.267   4.741   4.289 -0.7458  2.4543  1.2126
 8233SOL     OW36577   4.640   0.159  13.288  0.2574 -0.3889 -0.8182
 8233SOL    HW136578   4.729   0.136  13.317  0.3580 -1.5242 -1.9984
 8233SOL    HW236579   4.610   0.223  13.352  1.3914 -1.0656  0.4072
 8234SOL     OW36580   2.944   1.584   3.318  0.0584  0.0153  0.7537
 8234SOL    HW136581   2.950   1.574   3.413  1.2413 -0.7812  0.5891
 8234SOL    HW236582   2.851   1.602   3.302 -0.0240  0.8227  2.1235
 8235SOL     OW36583   2.918   2.491   2.166  0.3712  0.1113 -0.2891
 8235SOL    HW136584   2.943   2.430   2.235  1.0220  0.7063  0.0091
 8235SOL    HW236585   2.851   2.546   2.206  0.2665  0.0240 -0.3444
 8236SOL     OW36586   3.015   0.715  15.882 -0.0705 -0.1918 -0.5041
 8236SOL    HW136587   2.951   0.779  15.913 -1.9220 -1.6132 -1.4010
 8236SOL    HW236588   3.063   0.760  15.812 -1.1452  0.3083 -0.9043
 8237SOL     OW36589   0.957   2.467  15.039  0.7355 -0.3903 -0.2674
 8237SOL    HW136590   1.007   2.537  14.997  1.4596 -0.2592  0.8023
 8237SOL    HW236591   0.964   2.486  15.133  0.5518 -1.6393  0.0007
 8238SOL     OW36592   0.512   1.048   2.571  0.1498 -0.3194 -0.6847
 8238SOL    HW136593   0.603   1.022   2.551  0.2088  0.4524 -1.4026
 8238SOL    HW236594   0.485   1.099   2.495 -0.0094  1.6690  0.7314
 8239SOL     OW36595   2.467   3.621   5.558  0.2870 -0.1566 -0.0614
 8239SOL    HW136596   2.429   3.663   5.481  0.2891 -1.7582 -0.9448
 8239SOL    HW236597   2.559   3.649   5.558  0.1192  0.3889 -0.2609
 8240SOL     OW36598   0.671   1.905   0.252  0.1607  0.1894 -0.2843
 8240SOL    HW136599   0.763   1.923   0.272 -0.3107  2.8410 -0.4815
 8240SOL    HW236600   0.642   1.848   0.323  1.9999 -0.6984 -0.2669
 8241SOL     OW36601   0.320   0.612   2.724 -0.1982 -0.1869 -0.0794
 8241SOL    HW136602   0.382   0.567   2.666 -1.8639  0.5795 -2.4729
 8241SOL    HW236603   0.346   0.704   2.721 -0.0034 -0.2107  0.7701
 8242SOL     OW36604   3.407   3.270   2.021  0.1850 -0.1150 -0.5282
 8242SOL    HW136605   3.389   3.186   2.062  0.8113 -0.6103 -1.2617
 8242SOL    HW236606   3.326   3.294   1.976  0.0033 -0.3119 -0.3051
 8243SOL     OW36607   4.303   3.140   1.137  0.1393  0.4830  0.3876
 8243SOL    HW136608   4.260   3.061   1.103  0.8835 -0.7710  2.2787
 8243SOL    HW236609   4.269   3.148   1.227  1.1115  1.5431  0.6563
 8244SOL     OW36610   3.347   1.328  20.986 -0.0528 -0.2777  0.0328
 8244SOL    HW136611   3.373   1.340  21.077 -1.4355  1.0547  0.2464
 8244SOL    HW236612   3.282   1.257  20.989 -0.0097 -0.3160  0.0650
 8245SOL     OW36613   2.358   2.558  18.169 -0.0394  0.2839 -0.1128
 8245SOL    HW136614   2.383   2.512  18.089  2.0294 -1.4626  1.5532
 8245SOL    HW236615   2.263   2.547  18.174  0.0914 -1.3642 -1.2102
 8246SOL     OW36616   2.355   3.738   5.281  0.1577  0.2415 -0.2589
 8246SOL    HW136617   2.282   3.704   5.229 -0.0810  0.2718  0.0583
 8246SOL    HW236618   2.340   3.832   5.285 -0.2294  0.1529  0.4898
 8247SOL     OW36619   4.742   2.395  18.746  0.2185 -0.4203  0.2368
 8247SOL    HW136620   4.687   2.453  18.798  0.0311 -0.5371  0.1725
 8247SOL    HW236621   0.036   2.368  18.805 -0.6408 -1.4712  0.7851
 8248SOL     OW36622   4.017   0.554   2.964  0.0002 -0.4398  0.2727
 8248SOL    HW136623   3.938   0.582   2.918  0.6460  1.1405  0.1451
 8248SOL    HW236624   4.008   0.591   3.052  1.3395  0.9970 -0.2081
 8249SOL     OW36625   3.809   1.601   3.136 -0.2077 -0.0818  0.0221
 8249SOL    HW136626   3.860   1.530   3.097  1.6015  0.6633  1.0171
 8249SOL    HW236627   3.870   1.644   3.196 -2.5047 -0.2289  2.4643
 8250SOL     OW36628   3.461   3.438  12.014  1.0897  0.3485 -0.4141
 8250SOL    HW136629   3.490   3.470  11.928 -1.8144  1.1259 -1.0841
 8250SOL    HW236630   3.387   3.381  11.995  0.8743 -0.0129  1.5322
 8251SOL     OW36631   3.126   3.024  15.686  0.4621  0.1070 -0.3100
 8251SOL    HW136632   3.086   2.981  15.761  0.4862  1.5924  0.5654
 8251SOL    HW236633   3.189   2.961  15.651 -1.5982 -1.6759 -0.7998
 8252SOL     OW36634   2.097   3.699  17.276  0.2099  0.1370  0.2797
 8252SOL    HW136635   2.160   3.637  17.313  0.5482 -0.1116 -0.7090
 8252SOL    HW236636   2.121   3.704  17.183 -0.6447  0.7459  0.0997
 8253SOL     OW36637   2.026   0.695  14.239  0.7586  0.4061 -0.2553
 8253SOL    HW136638   2.053   0.704  14.148  3.3193  2.0517  0.6904
 8253SOL    HW236639   2.039   0.781  14.278  0.5068 -0.5187  1.9130
 8254SOL     OW36640   4.071   0.039  16.492  0.0467 -0.1213 -0.1607
 8254SOL    HW136641   4.164   0.052  16.474  0.3381 -1.3422  0.4642
 8254SOL    HW236642   4.040   0.125  16.520  0.6164  0.6814 -2.0125
 8255SOL     OW36643   0.348   2.056  21.061  0.0222  0.2047 -0.3530
 8255SOL    HW136644   0.277   2.114  21.089 -0.3243  0.1476 -1.1283
 8255SOL    HW236645   0.353   1.990  21.131 -1.3995 -0.4103 -0.8384
 8256SOL     OW36646   3.638   1.377  11.121  0.5819  0.1658 -0.0016
 8256SOL    HW136647   3.658   1.470  11.125  2.1043 -0.1508 -0.2368
 8256SOL    HW236648   3.582   1.361  11.197  0.5455  1.2227  0.1862
 8257SOL     OW36649   0.918   4.572  15.226 -0.0190  0.3700  0.0561
 8257SOL    HW136650   0.965   4.491  15.204 -1.0866 -0.1813 -0.2031
 8257SOL    HW236651   0.915   4.572  15.322 -1.1197 -0.5237  0.0175
 8258SOL     OW36652   1.311   2.021  17.437  0.2813 -0.1578  0.2268
 8258SOL    HW136653   1.229   1.980  17.408  0.3059 -1.0122  1.3627
 8258SOL    HW236654   1.335   2.080  17.365 -0.5630 -0.9914 -0.7446
 8259SOL     OW36655   3.394   3.975  16.240 -0.0301 -0.3335 -0.5120
 8259SOL    HW136656   3.467   3.944  16.294  0.8970  0.4773 -1.2961
 8259SOL    HW236657   3.404   3.927  16.157 -0.5483 -0.4212 -0.5265
 8260SOL     OW36658   1.366   2.652  19.932 -0.3794  0.3888 -0.2988
 8260SOL    HW136659   1.370   2.729  19.988  4.0265  0.8500 -1.2022
 8260SOL    HW236660   1.418   2.675  19.855  0.9186 -3.4428 -0.6094
 8261SOL     OW36661   2.619   1.854  14.076  0.7902 -0.1599 -0.5097
 8261SOL    HW136662   2.612   1.912  14.000  0.0259  0.1256 -0.2202
 8261SOL    HW236663   2.696   1.800  14.058  0.8308  0.1680 -1.3132
 8262SOL     OW36664   4.103   2.881  15.531 -0.4158 -0.7345  0.0302
 8262SOL    HW136665   4.197   2.894  15.528 -0.8679  2.1423 -1.4787
 8262SOL    HW236666   4.068   2.967  15.556 -2.5561 -2.0273  1.4920
 8263SOL     OW36667   4.752   3.564   0.889  0.6624  0.5727 -0.2851
 8263SOL    HW136668   0.068   3.589   0.901  0.6136  0.3467  0.5020
 8263SOL    HW236669   4.707   3.598   0.966  0.1377  0.3720 -0.5031
 8264SOL     OW36670   3.402   2.183  21.086  0.4666  0.0115  0.1009
 8264SOL    HW136671   3.469   2.229  21.136  0.1652 -0.3264  0.8145
 8264SOL    HW236672   3.323   2.192  21.139  0.3254 -1.0025  0.0454
 8265SOL     OW36673   3.015   2.637  20.586  0.7051  0.2527  0.0402
 8265SOL    HW136674   2.970   2.554  20.597  1.2368 -0.2971 -2.0129
 8265SOL    HW236675   3.105   2.614  20.565  1.4524  1.3495  2.0365
 8266SOL     OW36676   4.264   3.407  17.267 -0.1009 -0.5306  0.0752
 8266SOL    HW136677   4.220   3.470  17.211 -0.4439 -0.3407  0.5547
 8266SOL    HW236678   4.351   3.444  17.282 -0.4537  0.0391  0.7090
 8267SOL     OW36679   0.129   3.165   4.160 -0.1082  0.2331  0.2185
 8267SOL    HW136680   0.072   3.145   4.234  0.9050 -0.0991  0.9155
 8267SOL    HW236681   0.209   3.199   4.200  0.2958  0.3994 -0.7365
 8268SOL     OW36682   1.955   0.644   4.626 -0.3792  0.0663  0.0224
 8268SOL    HW136683   1.890   0.582   4.593  1.4706 -1.1786 -1.2369
 8268SOL    HW236684   1.989   0.687   4.548  2.1450 -1.0660  0.5151
 8269SOL     OW36685   3.448   3.441   5.512  0.3843 -0.0252 -0.2526
 8269SOL    HW136686   3.472   3.409   5.426 -0.9222 -0.4171 -0.4788
 8269SOL    HW236687   3.362   3.482   5.499 -0.7759 -1.9416  1.2839
 8270SOL     OW36688   1.058   0.756  18.126 -0.3592  0.2419 -0.0751
 8270SOL    HW136689   1.067   0.850  18.142  0.4024 -0.1070  1.5436
 8270SOL    HW236690   1.121   0.738  18.056 -0.4289  0.9108 -0.3138
 8271SOL     OW36691   2.939   2.096   2.553  0.2480 -0.8637 -0.4372
 8271SOL    HW136692   2.942   2.106   2.458  1.7491 -0.2435 -0.3206
 8271SOL    HW236693   3.024   2.127   2.584  0.3044 -2.4019  0.9847
 8272SOL     OW36694   0.127   1.034   5.666 -0.1435  0.0394 -0.0756
 8272SOL    HW136695   0.196   0.969   5.651 -2.4537 -2.3492 -0.5584
 8272SOL    HW236696   0.129   1.090   5.588  1.6616  0.3448  0.1932
 8273SOL     OW36697   4.214   0.695   0.461 -0.2128 -0.0391 -0.7586
 8273SOL    HW136698   4.284   0.668   0.401 -1.2414 -2.2714 -0.9538
 8273SOL    HW236699   4.168   0.614   0.482  0.0077  0.7614  2.8540
 8274SOL     OW36700   4.662   2.489   4.451 -0.2281  0.3928  0.0754
 8274SOL    HW136701   4.739   2.545   4.438 -0.0357  0.2203  0.4501
 8274SOL    HW236702   4.669   2.461   4.543 -0.7668  0.4217  0.1213
 8275SOL     OW36703   1.528   3.188   5.755 -0.2508 -0.4497 -0.0009
 8275SOL    HW136704   1.518   3.116   5.817 -2.5004  1.4249  1.8230
 8275SOL    HW236705   1.576   3.255   5.802 -0.6955  0.4024 -0.7509
 8276SOL     OW36706   1.722   0.409  17.218 -0.2103  0.5391 -0.1368
 8276SOL    HW136707   1.705   0.367  17.303 -0.7938  0.5761 -0.2359
 8276SOL    HW236708   1.816   0.398  17.205 -0.2287 -0.0545  0.2045
 8277SOL     OW36709   2.809   3.364  18.563 -0.0369 -0.2224 -0.3440
 8277SOL    HW136710   2.794   3.365  18.469  1.6266 -0.2647 -0.6012
 8277SOL    HW236711   2.899   3.332  18.574  0.5639  1.9486  1.1516
 8278SOL     OW36712   1.985   3.999   1.367 -0.0716 -0.3145  0.1524
 8278SOL    HW136713   1.909   4.036   1.413  0.2610 -0.6657  0.9808
 8278SOL    HW236714   1.947   3.952   1.293 -0.5898  0.5311 -0.1175
 8279SOL     OW36715   2.115   1.908   5.888 -0.3411  0.3121  0.0032
 8279SOL    HW136716   2.122   1.922   5.793 -0.4792 -0.1621 -0.0763
 8279SOL    HW236717   2.206   1.900   5.918 -0.3438 -0.7042 -0.2620
 8280SOL     OW36718   3.880   2.256  19.196 -0.0504 -0.0928  0.6448
 8280SOL    HW136719   3.920   2.325  19.250  2.9540 -0.6185 -0.9111
 8280SOL    HW236720   3.846   2.302  19.119  0.6851 -0.1586  0.2842
 8281SOL     OW36721   0.635   2.897  17.024 -0.1053  0.2088  0.2145
 8281SOL    HW136722   0.597   2.970  17.073  2.4900  0.3578  1.9941
 8281SOL    HW236723   0.583   2.821  17.049 -0.8115  0.8637  0.7333
 8282SOL     OW36724   0.212   0.049   0.624 -0.5829 -0.0529  0.0486
 8282SOL    HW136725   0.266   4.752   0.656  0.0846 -0.4384 -1.9668
 8282SOL    HW236726   0.154   0.008   0.560 -0.0662  1.2397 -1.2302
 8283SOL     OW36727   0.171   4.243   5.232  0.4165 -0.0516  0.2226
 8283SOL    HW136728   0.213   4.326   5.252 -1.0867  1.1655 -1.6356
 8283SOL    HW236729   0.098   4.266   5.174  0.2999 -2.7101 -0.7093
 8284SOL     OW36730   3.419   1.584   0.988  0.4810 -0.4144 -0.2262
 8284SOL    HW136731   3.367   1.542   1.056 -0.6442 -0.5099 -1.1342
 8284SOL    HW236732   3.356   1.601   0.917  1.4091  0.6734 -0.7928
 8285SOL     OW36733   4.541   1.837  11.066  0.5317 -0.4377 -0.1500
 8285SOL    HW136734   4.633   1.851  11.043  0.8959 -2.2270  0.2127
 8285SOL    HW236735   4.523   1.748  11.038 -1.4383  0.3177 -1.2991
 8286SOL     OW36736   1.001   1.248   2.703 -0.3116  0.1036 -0.7801
 8286SOL    HW136737   0.959   1.265   2.619 -1.7372 -1.2141 -0.3322
 8286SOL    HW236738   0.995   1.332   2.750 -1.2416  0.2910 -1.2389
 8287SOL     OW36739   4.136   4.261  11.740 -0.3668  0.2413  0.6764
 8287SOL    HW136740   4.072   4.260  11.670 -0.3168  1.2271  0.6214
 8287SOL    HW236741   4.148   4.353  11.761  1.9056  0.1286 -0.1232
 8288SOL     OW36742   3.063   1.540  21.190  0.4224 -0.2248  0.0039
 8288SOL    HW136743   3.148   1.560   0.032  0.5044 -0.2771 -0.1488
 8288SOL    HW236744   3.052   1.446   0.009  0.4147 -0.2277 -0.0197
 8289SOL     OW36745   2.877   4.174  16.300 -0.1065  0.2452 -0.3015
 8289SOL    HW136746   2.823   4.195  16.377 -0.4220 -1.0950 -0.1527
 8289SOL    HW236747   2.954   4.230  16.310 -0.3167  0.3590  0.7960
 8290SOL     OW36748   1.678   2.110  15.681 -0.0091  0.2121 -0.1425
 8290SOL    HW136749   1.617   2.177  15.713  1.4005  0.9203  1.0429
 8290SOL    HW236750   1.622   2.036  15.657 -1.3657  0.9916  0.6493
 8291SOL     OW36751   3.693   3.218  17.708  0.2239 -0.0192  0.0073
 8291SOL    HW136752   3.709   3.130  17.675  0.2008  0.2987 -0.8622
 8291SOL    HW236753   3.757   3.229  17.778 -0.8832 -1.3310  1.2062
 8292SOL     OW36754   1.973   4.471  18.465  0.1176 -0.1267  0.5737
 8292SOL    HW136755   2.039   4.530  18.429  1.9816 -0.8859  2.7320
 8292SOL    HW236756   1.894   4.525  18.474  0.7870  1.0908 -0.8472
 8293SOL     OW36757   2.830   2.481   5.865  0.6971  0.4760  0.4306
 8293SOL    HW136758   2.865   2.419   5.801 -0.2045 -1.0906  1.4503
 8293SOL    HW236759   2.735   2.465   5.864  0.5561  1.3092  1.2402
 8294SOL     OW36760   0.216   1.961  19.606 -0.5269  0.0266 -0.1899
 8294SOL    HW136761   0.139   1.904  19.606  0.2185 -0.9648  2.4886
 8294SOL    HW236762   0.184   2.045  19.639 -1.5853  1.0934 -3.9622
 8295SOL     OW36763   4.153   4.144   5.702 -0.1166 -0.1420 -0.3593
 8295SOL    HW136764   4.127   4.233   5.678 -1.1071 -0.5176 -0.6670
 8295SOL    HW236765   4.238   4.155   5.745 -0.3866  0.9851 -0.1091
 8296SOL     OW36766   1.893   0.874  19.433  0.0748 -0.9620 -0.4787
 8296SOL    HW136767   1.910   0.946  19.372  0.0878 -0.5286  0.0275
 8296SOL    HW236768   1.945   0.801  19.400  0.9052 -0.4112 -0.3905
 8297SOL     OW36769   2.809   0.508  18.996 -0.0968  0.2479 -0.5817
 8297SOL    HW136770   2.747   0.435  19.002 -0.7676  0.7247 -1.6799
 8297SOL    HW236771   2.770   0.577  19.051  0.4714 -0.1742  0.3504
 8298SOL     OW36772   3.503   4.373  15.180 -0.1830  0.2172 -0.1155
 8298SOL    HW136773   3.444   4.298  15.193  0.7503 -0.2952  1.0703
 8298SOL    HW236774   3.533   4.364  15.089  0.1790 -1.0216  0.1249
 8299SOL     OW36775   1.200   1.455   2.620 -0.0215 -0.1200  0.0647
 8299SOL    HW136776   1.272   1.507   2.656  0.0917  0.2369 -0.6817
 8299SOL    HW236777   1.150   1.517   2.567 -0.3877 -0.5720 -0.1168
 8300SOL     OW36778   2.862   2.153  18.797  0.2697  0.0865 -0.3313
 8300SOL    HW136779   2.862   2.115  18.885  0.2367  0.4632 -0.1695
 8300SOL    HW236780   2.778   2.126  18.759 -0.2816  1.0249  0.2238
 8301SOL     OW36781   0.755   4.053  20.280 -0.3222 -0.4936 -0.4802
 8301SOL    HW136782   0.840   4.009  20.283 -0.7366 -1.4074 -2.0664
 8301SOL    HW236783   0.695   3.987  20.244 -1.5871  0.3346  0.0896
 8302SOL     OW36784   3.639   4.614  19.569 -0.0132 -0.2212 -0.1805
 8302SOL    HW136785   3.728   4.646  19.588  0.2497 -1.1768  0.1888
 8302SOL    HW236786   3.585   4.693  19.570  1.0827  0.5402 -1.8733
 8303SOL     OW36787   1.175   2.365  18.769  0.4999  0.3498  0.1461
 8303SOL    HW136788   1.261   2.337  18.800  0.5582  0.6731  0.2761
 8303SOL    HW236789   1.141   2.422  18.838 -0.4531 -0.9674  0.7575
 8304SOL     OW36790   2.867   1.446  15.507 -0.0723 -0.4765  0.4371
 8304SOL    HW136791   2.899   1.408  15.589  0.1420  1.9966  1.4728
 8304SOL    HW236792   2.944   1.454  15.452  0.2256  0.4267  0.9850
 8305SOL     OW36793   3.615   3.066   1.197  0.1737  0.3996  0.0655
 8305SOL    HW136794   3.643   3.158   1.194 -0.2158  0.3941 -3.4027
 8305SOL    HW236795   3.609   3.046   1.291  2.2299  3.3093  0.8153
 8306SOL     OW36796   2.151   2.823  14.402 -0.2952  0.5275 -0.2520
 8306SOL    HW136797   2.196   2.765  14.340 -0.2417  0.8648 -0.5337
 8306SOL    HW236798   2.219   2.852  14.462 -0.5421 -0.5826  0.5660
 8307SOL     OW36799   1.735   3.219  18.487  0.4282 -0.1987 -0.1377
 8307SOL    HW136800   1.792   3.292  18.512  1.2914 -0.7543 -0.4702
 8307SOL    HW236801   1.741   3.158  18.561  0.2301 -0.2322 -0.1509
 8308SOL     OW36802   2.631   4.013   5.489 -0.0134  0.6269 -0.7329
 8308SOL    HW136803   2.691   4.005   5.564 -1.6666  2.8076  0.8128
 8308SOL    HW236804   2.659   4.092   5.444 -0.2428  0.3541 -1.3524
 8309SOL     OW36805   4.599   3.356   4.009 -0.7062 -0.0686  0.3806
 8309SOL    HW136806   4.551   3.303   3.945  0.5201  1.5475 -1.8947
 8309SOL    HW236807   4.661   3.295   4.049 -0.4942 -0.7718 -1.0030
 8310SOL     OW36808   2.130   4.673  16.940 -0.0916 -0.1207 -0.4852
 8310SOL    HW136809   2.072   4.735  16.896 -0.4096  0.1041  0.2452
 8310SOL    HW236810   2.071   4.610  16.981  0.2349 -0.9823 -1.3335
 8311SOL     OW36811   2.074   3.692   0.089 -0.0047  0.0263 -0.2920
 8311SOL    HW136812   2.039   3.609   0.122  1.6754  0.0580  1.5422
 8311SOL    HW236813   2.021   3.759   0.132 -0.5804 -0.0550 -0.8708
 8312SOL     OW36814   4.110   1.482  19.989  0.5097  0.5078 -0.5048
 8312SOL    HW136815   4.160   1.402  19.975  0.8401  0.7517 -0.7174
 8312SOL    HW236816   4.065   1.468  20.072  0.2626 -0.0567 -0.7317
 8313SOL     OW36817   2.159   0.435  15.619 -0.1501  0.2859  0.5760
 8313SOL    HW136818   2.149   0.526  15.644 -0.3950  0.8318 -1.5254
 8313SOL    HW236819   2.070   0.405  15.600  0.1257  0.0686 -0.3657
 8314SOL     OW36820   0.661   1.732  15.341  0.5125  0.2042  0.0764
 8314SOL    HW136821   0.715   1.787  15.397 -0.2070  0.8850  0.1071
 8314SOL    HW236822   0.590   1.702  15.399  0.5303 -0.1973 -0.1129
 8315SOL     OW36823   0.897   1.387  18.795 -0.1045 -0.1091  0.2842
 8315SOL    HW136824   0.959   1.378  18.722  0.9066  0.0644  1.1285
 8315SOL    HW236825   0.913   1.309  18.849 -1.5543 -0.7530 -0.2193
 8316SOL     OW36826   2.135   3.287  15.847 -0.6548  0.0334  0.0548
 8316SOL    HW136827   2.134   3.365  15.790  1.3176 -1.0039 -1.3964
 8316SOL    HW236828   2.204   3.305  15.910  0.6920 -1.1296 -1.0938
 8317SOL     OW36829   2.055   2.096   6.778  0.0855  0.1475 -0.4365
 8317SOL    HW136830   2.085   2.130   6.862  2.0984 -0.8332 -0.7765
 8317SOL    HW236831   2.036   2.003   6.795 -2.2619  0.6242 -0.3483
 8318SOL     OW36832   2.125   0.559   3.539  0.3461  0.0067 -0.0484
 8318SOL    HW136833   2.062   0.508   3.590  0.9322 -0.2009  0.4690
 8318SOL    HW236834   2.206   0.555   3.590  0.7891  0.2375 -0.7331
 8319SOL     OW36835   0.418   2.568   3.992 -0.3598  0.2070  0.0528
 8319SOL    HW136836   0.439   2.482   4.027  0.4525  1.3792  2.4897
 8319SOL    HW236837   0.458   2.570   3.905  0.2500 -1.6041  0.3044
 8320SOL     OW36838   1.254   1.004   3.485  0.0196 -0.5300 -0.0056
 8320SOL    HW136839   1.271   0.910   3.490 -0.2857 -0.6297 -0.8636
 8320SOL    HW236840   1.272   1.037   3.574 -2.6077 -1.8535  1.0017
 8321SOL     OW36841   4.370   0.612  20.139  0.4670  0.1242  0.2681
 8321SOL    HW136842   4.342   0.689  20.188  0.4934 -0.1074  0.6480
 8321SOL    HW236843   4.465   0.620  20.133  0.4235  0.3674 -0.1080
 8322SOL     OW36844   3.406   3.408  18.124  0.3889 -0.4816 -0.6380
 8322SOL    HW136845   3.490   3.404  18.172  0.6931  0.5941 -1.0785
 8322SOL    HW236846   3.421   3.473  18.056 -0.5151 -0.9862 -1.3127
 8323SOL     OW36847   3.246   4.287  17.569  0.4553  0.5986  0.6207
 8323SOL    HW136848   3.207   4.340  17.639 -0.7095  0.7025 -0.1178
 8323SOL    HW236849   3.221   4.332  17.488  0.5615 -0.3585  0.0601
 8324SOL     OW36850   0.909   0.024   6.062 -0.4561  0.2684  0.0754
 8324SOL    HW136851   0.896   0.014   6.156  0.3217  1.1743  0.2768
 8324SOL    HW236852   0.985   0.081   6.054 -0.4128  0.0457 -1.1032
 8325SOL     OW36853   3.935   0.675   0.746  0.2146 -0.4103  0.7381
 8325SOL    HW136854   3.932   0.729   0.825 -0.3995 -2.0083  1.7924
 8325SOL    HW236855   3.929   0.585   0.778 -0.8302 -1.0075 -1.1890
 8326SOL     OW36856   1.890   4.339   3.741  0.2957 -0.7192  0.4471
 8326SOL    HW136857   1.977   4.300   3.729  0.9627  0.7285  0.5893
 8326SOL    HW236858   1.893   4.377   3.829 -0.8952 -1.7427  0.9192
 8327SOL     OW36859   3.553   0.323   7.373 -0.2990 -0.1812  0.6869
 8327SOL    HW136860   3.487   0.254   7.370 -0.0483 -0.3379 -1.1060
 8327SOL    HW236861   3.624   0.285   7.426 -0.6785 -0.8385  0.7333
 8328SOL     OW36862   1.725   3.004   1.726  0.1201  0.6227  0.7840
 8328SOL    HW136863   1.696   3.017   1.816  1.1840  1.0901  1.0602
 8328SOL    HW236864   1.697   2.914   1.705  1.0230  0.0463  2.0263
 8329SOL     OW36865   2.905   2.273  14.473  0.1018  1.1365 -0.0435
 8329SOL    HW136866   2.998   2.260  14.452  0.0386  1.3975 -0.4729
 8329SOL    HW236867   2.877   2.343  14.414 -0.2871  1.2771  0.3082
 8330SOL     OW36868   1.842   1.479  18.974 -0.8115 -0.3601 -0.1217
 8330SOL    HW136869   1.846   1.541  18.902  0.7457 -0.6393 -0.2679
 8330SOL    HW236870   1.892   1.520  19.045  1.8866 -2.3117 -0.8790
 8331SOL     OW36871   1.829   4.496  10.717  0.0459 -0.4318  0.3803
 8331SOL    HW136872   1.866   4.582  10.696 -0.7985 -0.5973 -1.8337
 8331SOL    HW236873   1.773   4.475  10.642 -0.8067 -2.3076  1.5345
 8332SOL     OW36874   3.895   3.133   8.362  0.6105 -0.1893 -0.2675
 8332SOL    HW136875   3.927   3.112   8.274  1.0071 -1.8748  0.2744
 8332SOL    HW236876   3.947   3.077   8.420 -0.1653  0.3858  0.9739
 8333SOL     OW36877   3.882   2.968   9.909  0.0502 -0.4958 -0.0418
 8333SOL    HW136878   3.829   3.001   9.836 -1.8094  0.1998  1.6308
 8333SOL    HW236879   3.958   3.026   9.911 -1.1040  1.0033  0.1349
 8334SOL     OW36880   3.365   3.396  19.415  0.1493  0.2250  0.1016
 8334SOL    HW136881   3.385   3.490  19.411 -1.2620  0.5133 -0.3167
 8334SOL    HW236882   3.447   3.355  19.440  0.9707  1.5137 -0.4671
 8335SOL     OW36883   2.144   2.649   1.202 -0.0967  0.1196  0.0489
 8335SOL    HW136884   2.070   2.695   1.242  0.0940  0.4397  0.0397
 8335SOL    HW236885   2.168   2.704   1.127  0.3137  0.1517  0.2025
 8336SOL     OW36886   4.249   0.558   0.773 -0.6653 -1.0151 -0.4650
 8336SOL    HW136887   4.185   0.552   0.844 -0.9080 -1.0165 -0.6824
 8336SOL    HW236888   4.239   0.648   0.740 -0.2674 -0.8860 -0.2268
 8337SOL     OW36889   3.378   0.545   2.033 -0.5430  0.2143 -0.1514
 8337SOL    HW136890   3.361   0.477   2.098 -0.8762  0.6130  0.1756
 8337SOL    HW236891   3.424   0.499   1.962 -0.5446 -0.3003  0.1793
 8338SOL     OW36892   2.568   2.089  18.136  0.7052 -0.3369  0.0419
 8338SOL    HW136893   2.569   2.080  18.040 -0.5929 -2.3836  0.2106
 8338SOL    HW236894   2.518   2.013  18.166  0.7160  0.5658  2.3200
 8339SOL     OW36895   0.881   4.482   8.222 -0.1244 -0.6411  0.3170
 8339SOL    HW136896   0.972   4.505   8.206 -0.6541 -0.5873 -2.6311
 8339SOL    HW236897   0.876   4.388   8.205 -0.5666 -0.6911  0.7074
 8340SOL     OW36898   4.052   1.118  12.366  0.1906 -0.1567  0.1887
 8340SOL    HW136899   4.133   1.138  12.414  0.4883 -3.5321  1.1158
 8340SOL    HW236900   4.081   1.102  12.276  0.4094 -0.0837  0.2460
 8341SOL     OW36901   2.847   1.174   8.438  0.2908 -0.2200 -0.2005
 8341SOL    HW136902   2.851   1.238   8.367  0.9003 -0.2980 -0.2430
 8341SOL    HW236903   2.861   1.225   8.518 -2.1836  0.1116 -0.0054
 8342SOL     OW36904   2.520   4.501   4.618 -0.4511 -0.1854 -0.4373
 8342SOL    HW136905   2.500   4.586   4.579  1.2330 -0.1468 -1.2411
 8342SOL    HW236906   2.556   4.521   4.704 -2.1321 -0.1814  0.2708
 8343SOL     OW36907   1.564   2.143  16.038  0.0154  0.5695  0.2206
 8343SOL    HW136908   1.493   2.206  16.048 -0.4032 -0.0876  1.3676
 8343SOL    HW236909   1.637   2.181  16.089 -0.0717  0.3838  0.4839
 8344SOL     OW36910   1.109   2.389   1.797  0.4914 -0.0319 -0.1265
 8344SOL    HW136911   1.167   2.437   1.739 -2.1413 -0.1377 -2.8551
 8344SOL    HW236912   1.131   2.297   1.783  1.1444  0.0321  0.4474
 8345SOL     OW36913   1.849   0.433   1.653  0.3784 -0.2826 -0.1224
 8345SOL    HW136914   1.827   0.517   1.695 -0.4138  0.0054 -1.1256
 8345SOL    HW236915   1.906   0.390   1.716 -0.1024  0.5446  0.8881
 8346SOL     OW36916   4.709   4.013   9.347  0.0951 -0.0606  0.4245
 8346SOL    HW136917   4.711   3.952   9.421 -1.3828 -1.2927 -0.5650
 8346SOL    HW236918   4.630   4.065   9.361  0.0250 -0.0331 -0.0743
 8347SOL     OW36919   4.180   0.717  20.412  0.0072 -0.1416 -0.3191
 8347SOL    HW136920   4.165   0.758  20.497  0.4451  0.3599 -0.4816
 8347SOL    HW236921   4.273   0.729  20.395 -0.0354 -0.4319 -0.7670
 8348SOL     OW36922   3.378   1.079  18.692 -0.4748  0.2747 -1.1776
 8348SOL    HW136923   3.332   1.162  18.707  0.6429  0.6595  0.1693
 8348SOL    HW236924   3.466   1.104  18.665  0.1350 -0.4768  0.0913
 8349SOL     OW36925   3.470   0.406  15.358 -0.0181  0.3451 -0.5355
 8349SOL    HW136926   3.474   0.475  15.292  1.0024  1.0407  0.2589
 8349SOL    HW236927   3.502   0.447  15.438 -0.7047 -0.6634  0.2608
 8350SOL     OW36928   1.816   3.878  13.252  0.3763 -0.2589  0.3860
 8350SOL    HW136929   1.853   3.852  13.168 -1.5323  2.0975 -1.1845
 8350SOL    HW236930   1.886   3.929  13.294  0.3825  0.7923 -0.8879
 8351SOL     OW36931   2.737   0.055  17.160  0.7456 -0.0597  0.3080
 8351SOL    HW136932   2.728   4.742  17.196  0.1634  0.4746  1.4986
 8351SOL    HW236933   2.830   0.075  17.169  0.8999 -0.5995 -0.0791
 8352SOL     OW36934   3.107   1.764  14.339 -0.8089  0.4842  0.5370
 8352SOL    HW136935   3.071   1.810  14.263 -0.3737  0.7424  0.4902
 8352SOL    HW236936   3.131   1.677  14.306 -1.8003  0.1532  0.6667
 8353SOL     OW36937   2.720   0.149   4.721  0.1498  0.2955 -0.6547
 8353SOL    HW136938   2.717   0.169   4.627  0.4690 -0.2345 -0.7771
 8353SOL    HW236939   2.786   0.080   4.728  0.6824  0.8752  0.0528
 8354SOL     OW36940   0.956   1.604  17.951 -0.4752 -0.3789 -0.0809
 8354SOL    HW136941   0.934   1.671  17.886 -0.5572 -0.9827 -0.6730
 8354SOL    HW236942   0.896   1.622  18.024  0.7249  1.2813  0.4725
 8355SOL     OW36943   2.607   2.762  16.951 -0.6560  0.0695  0.5558
 8355SOL    HW136944   2.527   2.744  17.000 -1.0416 -0.0430 -0.1140
 8355SOL    HW236945   2.625   2.681  16.903 -0.3072  0.1947  0.4704
 8356SOL     OW36946   3.660   3.410  18.251 -0.1257  0.0379 -0.0690
 8356SOL    HW136947   3.725   3.403  18.321 -0.4002  0.3911  0.2187
 8356SOL    HW236948   3.685   3.489  18.203 -0.7994  0.6050  0.5074
 8357SOL     OW36949   1.955   0.982   8.179 -0.6729 -0.6444 -0.2295
 8357SOL    HW136950   1.906   0.901   8.193  0.8759 -1.9723 -2.5929
 8357SOL    HW236951   2.038   0.967   8.224 -0.5171 -0.2257 -0.3825
 8358SOL     OW36952   0.084   4.208  16.730  0.1464  0.0500  0.1568
 8358SOL    HW136953   0.108   4.271  16.798  1.0716 -0.2002  0.0644
 8358SOL    HW236954   0.163   4.155  16.718 -1.0539 -1.9557  1.1595
 8359SOL     OW36955   1.887   0.731  19.972 -0.3251 -0.6525  0.0108
 8359SOL    HW136956   1.882   0.663  19.905 -0.3847  0.1918 -0.8220
 8359SOL    HW236957   1.979   0.732  19.998 -0.1115 -0.2124 -0.8083
 8360SOL     OW36958   1.768   0.158   2.163  0.2471 -0.2264  0.4196
 8360SOL    HW136959   1.761   0.092   2.231  1.3923 -0.1230  0.6429
 8360SOL    HW236960   1.719   0.123   2.089 -0.0813 -0.8183  0.9248
 8361SOL     OW36961   4.314   1.988  17.708  0.9066 -0.2002 -0.2964
 8361SOL    HW136962   4.249   2.043  17.665 -0.6182 -0.4655  1.6402
 8361SOL    HW236963   4.384   2.048  17.733  0.6095  0.3706 -0.8445
 8362SOL     OW36964   4.200   3.438   3.746 -0.4602  0.5036  0.0508
 8362SOL    HW136965   4.186   3.510   3.685  0.1315  0.9395  0.4315
 8362SOL    HW236966   4.116   3.392   3.748  0.3427 -1.0865 -3.1116
 8363SOL     OW36967   3.306   1.413   1.595  0.8813  0.4686  0.6655
 8363SOL    HW136968   3.399   1.412   1.571  1.2668 -0.1791  2.2219
 8363SOL    HW236969   3.281   1.320   1.596  0.5326  0.5774  1.5083
 8364SOL     OW36970   2.542   1.151  12.864 -0.3376  0.0591  0.1744
 8364SOL    HW136971   2.481   1.209  12.820  0.1455 -0.5320 -1.2686
 8364SOL    HW236972   2.592   1.208  12.922 -1.5803  0.6859  0.6260
 8365SOL     OW36973   1.723   1.015   3.053  0.5143  0.0413  0.1954
 8365SOL    HW136974   1.633   0.986   3.070  0.8722 -1.0596  0.2601
 8365SOL    HW236975   1.750   1.056   3.135  0.5574 -0.9167  0.6698
 8366SOL     OW36976   3.396   2.418  14.508  0.2433  0.2433 -0.3589
 8366SOL    HW136977   3.301   2.422  14.523  0.1351 -4.6527  0.0733
 8366SOL    HW236978   3.405   2.407  14.414  0.4021 -0.5800 -0.2410
 8367SOL     OW36979   2.425   1.134  17.335  0.8676 -0.8241 -0.3504
 8367SOL    HW136980   2.500   1.107  17.388  0.0560 -1.4352  0.4793
 8367SOL    HW236981   2.358   1.158  17.398  0.1580 -0.8092 -1.1067
 8368SOL     OW36982   0.238   2.784   8.248  0.7673  0.3177  0.1417
 8368SOL    HW136983   0.196   2.778   8.334  1.3261 -0.1204  0.3857
 8368SOL    HW236984   0.182   2.733   8.190  0.3713  0.6414  0.2404
 8369SOL     OW36985   1.717   2.146  10.874  0.2352 -0.4525 -0.3523
 8369SOL    HW136986   1.664   2.151  10.954  1.0784 -0.3099  0.1953
 8369SOL    HW236987   1.774   2.070  10.887  0.8798  0.0028 -0.5050
 8370SOL     OW36988   1.913   0.953  14.385 -0.1902 -0.7852  0.1304
 8370SOL    HW136989   1.853   1.027  14.390 -0.2569 -0.7972 -0.4566
 8370SOL    HW236990   1.977   0.969  14.454 -0.5415 -0.4850  0.3896
 8371SOL     OW36991   3.903   0.465  19.040  0.3152  0.2552  0.4378
 8371SOL    HW136992   3.955   0.493  18.965  0.5832  0.4594  0.7056
 8371SOL    HW236993   3.966   0.433  19.103  0.0127 -1.0165  0.1064
 8372SOL     OW36994   2.883   3.433  14.902 -0.7340  0.4110 -0.0077
 8372SOL    HW136995   2.891   3.514  14.953  0.1040 -0.7922  1.8219
 8372SOL    HW236996   2.970   3.422  14.862 -0.2439 -0.6096  1.3304
 8373SOL     OW36997   3.612   1.141   7.218  0.3329  0.2594  0.0546
 8373SOL    HW136998   3.697   1.102   7.236  1.2252  2.2434  0.1795
 8373SOL    HW236999   3.631   1.234   7.202 -2.0214  1.1223  2.1005
 8374SOL     OW37000   4.733   0.058   3.501  0.1091  0.4838 -0.0080
 8374SOL    HW137001   4.741   4.772   3.428 -0.4802 -0.6402  0.8816
 8374SOL    HW237002   4.707   0.004   3.575 -0.0241  1.7508  0.8615
 8375SOL     OW37003   1.656   2.792   7.970 -0.1890  0.2010  0.0534
 8375SOL    HW137004   1.692   2.865   8.019  1.4613 -2.4246  2.7119
 8375SOL    HW237005   1.575   2.769   8.016  0.4898 -1.1673  0.5496
 8376SOL     OW37006   1.345   0.494  15.148 -0.2799  0.5661 -0.1848
 8376SOL    HW137007   1.373   0.425  15.088  0.1723 -0.0196  0.6975
 8376SOL    HW237008   1.357   0.576  15.099 -0.5173  0.0372 -1.1123
 8377SOL     OW37009   2.394   0.449  18.303 -0.9070 -0.4317  0.2789
 8377SOL    HW137010   2.346   0.419  18.226 -1.4046 -0.1071  0.4656
 8377SOL    HW237011   2.454   0.516  18.269 -1.7143  0.3059  0.3168
 8378SOL     OW37012   0.466   4.641   4.733  0.1142 -0.3408  0.3960
 8378SOL    HW137013   0.547   4.691   4.727  0.4339 -0.5757  2.7745
 8378SOL    HW237014   0.398   4.701   4.704  0.8382  0.6451  0.7500
 8379SOL     OW37015   3.894   3.865  16.751  0.4409  0.0936  0.4430
 8379SOL    HW137016   3.864   3.813  16.677 -0.4764  0.0472  0.8452
 8379SOL    HW237017   3.972   3.910  16.719 -0.1821  0.3762 -0.6656
 8380SOL     OW37018   1.731   2.982  12.454  0.8051  0.3168  0.4487
 8380SOL    HW137019   1.735   3.055  12.516  0.8563 -0.6118  1.5319
 8380SOL    HW237020   1.821   2.948  12.452  0.5626 -0.3208  0.6453
 8381SOL     OW37021   3.686   2.079  13.740 -0.1290 -0.0749  0.2471
 8381SOL    HW137022   3.739   2.041  13.670  0.3077 -0.7111  0.9159
 8381SOL    HW237023   3.683   2.011  13.807 -1.7092 -0.0084  0.2576
 8382SOL     OW37024   3.732   0.338   1.834  0.0635 -1.0114 -0.8072
 8382SOL    HW137025   3.795   0.394   1.790  0.1555 -1.1406 -0.8387
 8382SOL    HW237026   3.765   0.249   1.822  1.1547 -0.8811  1.2690
 8383SOL     OW37027   2.211   1.051  17.903  0.3240  0.3955  0.3649
 8383SOL    HW137028   2.139   1.028  17.844  0.2418 -4.0997  2.1856
 8383SOL    HW237029   2.169   1.061  17.989  1.3060  1.2586  0.7414
 8384SOL     OW37030   0.274   0.668   0.685  0.1555 -0.2833 -0.2401
 8384SOL    HW137031   0.311   0.679   0.597 -0.4655  1.8265 -0.2417
 8384SOL    HW237032   0.317   0.735   0.738  0.2302 -1.2995  0.9749
 8385SOL     OW37033   1.888   3.206   1.158  0.4149  0.0911 -0.6270
 8385SOL    HW137034   1.914   3.195   1.067  0.2032 -0.4872 -0.6166
 8385SOL    HW237035   1.971   3.214   1.206  0.5465 -0.8488 -0.7090
 8386SOL     OW37036   2.813   0.666  18.712 -0.0569  0.2015 -0.0306
 8386SOL    HW137037   2.899   0.668  18.670  0.6687  0.5813  1.4392
 8386SOL    HW237038   2.832   0.682  18.805 -1.7798  0.9643  0.1970
 8387SOL     OW37039   0.796   2.823  15.382  0.1103 -0.6318 -0.1336
 8387SOL    HW137040   0.701   2.832  15.390  0.4640  1.0981  2.0938
 8387SOL    HW237041   0.811   2.806  15.289 -2.2203  1.0859 -0.8171
 8388SOL     OW37042   3.375   1.075  13.543  0.1915 -0.3360 -0.3772
 8388SOL    HW137043   3.298   1.132  13.541  0.1186 -0.4787 -2.3669
 8388SOL    HW237044   3.373   1.030  13.458  0.2724 -3.2640  1.1660
 8389SOL     OW37045   2.145   4.036   2.823 -0.2761  0.1010  0.6625
 8389SOL    HW137046   2.078   3.969   2.809 -1.0141  1.2649 -1.4155
 8389SOL    HW237047   2.228   3.989   2.813 -0.7976 -0.7265  0.1849
 8390SOL     OW37048   2.244   4.710  19.247  0.7216 -0.0654  0.2767
 8390SOL    HW137049   2.314   4.696  19.183 -0.3577  0.0133 -0.9185
 8390SOL    HW237050   2.189   4.632  19.240  0.2137  0.2598  0.6196
 8391SOL     OW37051   2.581   3.011  10.409  0.1918  0.0576  0.2240
 8391SOL    HW137052   2.571   2.916  10.404  2.9252 -0.2574  0.4785
 8391SOL    HW237053   2.556   3.043  10.323 -1.5314 -0.8434  0.4095
 8392SOL     OW37054   3.396   4.049  16.542 -0.2524  0.7233  0.2270
 8392SOL    HW137055   3.452   4.125  16.524 -1.1516  1.1928 -0.6022
 8392SOL    HW237056   3.456   3.974  16.538  0.0253  1.0771 -2.2830
 8393SOL     OW37057   0.876   3.906  15.828 -0.0589  0.3001 -0.7828
 8393SOL    HW137058   0.789   3.880  15.796 -0.2896  0.9090 -0.6574
 8393SOL    HW237059   0.870   4.001  15.837 -0.3008  0.0309  1.9625
 8394SOL     OW37060   0.437   2.597  19.953  0.5562  0.6064 -0.4095
 8394SOL    HW137061   0.401   2.613  20.040 -1.2423 -0.4111 -0.9648
 8394SOL    HW237062   0.362   2.605  19.894  1.5220 -0.0123 -1.7250
 8395SOL     OW37063   2.414   0.510  16.079  0.1127 -0.6677  1.0084
 8395SOL    HW137064   2.474   0.582  16.064  0.0465 -1.0591 -1.1224
 8395SOL    HW237065   2.413   0.499  16.174  1.3649  1.0636  1.2210
 8396SOL     OW37066   4.653   2.901  13.593 -0.2142  0.2387  0.1569
 8396SOL    HW137067   4.677   2.985  13.554 -0.3272  0.4230  0.4849
 8396SOL    HW237068   4.578   2.871  13.542  1.1588 -0.6797 -1.3339
 8397SOL     OW37069   1.107   0.914  20.336  0.1826 -0.3384 -0.4588
 8397SOL    HW137070   1.122   0.932  20.429  0.1226  1.8148 -0.8541
 8397SOL    HW237071   1.032   0.855  20.334  1.3023 -1.8021  0.9568
 8398SOL     OW37072   4.306   3.668  16.862 -0.7300 -0.1637  0.5714
 8398SOL    HW137073   4.392   3.696  16.895 -1.1189  0.3916  1.1021
 8398SOL    HW237074   4.293   3.721  16.783 -0.4153 -0.5227  0.2742
 8399SOL     OW37075   0.695   3.174  11.858 -0.0851  0.3179  0.4960
 8399SOL    HW137076   0.735   3.175  11.945 -0.0593  2.4672  0.4477
 8399SOL    HW237077   0.601   3.166  11.876 -0.0723  0.6674  0.7316
 8400SOL     OW37078   3.128   3.914   3.567 -0.2748 -0.4207  0.3229
 8400SOL    HW137079   3.151   3.997   3.525 -0.6042  0.3032  1.5608
 8400SOL    HW237080   3.174   3.916   3.651 -0.7802 -1.2184  0.6187
 8401SOL     OW37081   0.209   1.034   4.221 -0.0321  0.1199 -0.0501
 8401SOL    HW137082   0.151   1.057   4.149  0.0519 -0.7549 -0.3991
 8401SOL    HW237083   0.162   1.060   4.300 -0.3355  0.6181 -0.4004
 8402SOL     OW37084   2.321   1.954  18.766 -0.0743 -0.0226  0.0133
 8402SOL    HW137085   2.398   2.008  18.785  0.0234  0.1530 -0.8482
 8402SOL    HW237086   2.355   1.884  18.710 -0.6804  0.5004 -1.0170
 8403SOL     OW37087   1.762   2.087  15.091  0.0891 -0.1276  0.6734
 8403SOL    HW137088   1.847   2.057  15.057  0.7332  1.1637  1.1269
 8403SOL    HW237089   1.785   2.157  15.153 -1.3253  0.3674  0.6339
 8404SOL     OW37090   2.852   2.324   0.054 -0.4466 -0.6151 -0.4693
 8404SOL    HW137091   2.783   2.380   0.089  1.6460  1.7873 -0.1359
 8404SOL    HW237092   2.808   2.266  21.188 -2.1796  3.1333 -2.7237
 8405SOL     OW37093   1.788   1.082  13.895 -0.3415 -0.2890  0.0791
 8405SOL    HW137094   1.820   1.047  13.978 -1.1506 -1.4641 -0.0944
 8405SOL    HW237095   1.745   1.164  13.918 -2.6240 -1.7912  1.1337
 8406SOL     OW37096   3.346   1.214  11.512 -0.1573  0.4356  0.9013
 8406SOL    HW137097   3.322   1.215  11.605 -0.2541 -0.6710  0.8834
 8406SOL    HW237098   3.265   1.231  11.466  0.2482  2.8711  1.1069
 8407SOL     OW37099   4.699   0.681  17.411 -0.2943  0.0828  0.2899
 8407SOL    HW137100   4.690   0.672  17.316 -0.4269  2.5006  0.0781
 8407SOL    HW237101   0.006   0.639  17.432  0.4793  0.9681 -1.0845
 8408SOL     OW37102   2.286   2.164  14.434 -0.6845  0.0209 -0.1721
 8408SOL    HW137103   2.258   2.104  14.503  0.4708  0.5462  0.7508
 8408SOL    HW237104   2.333   2.233  14.480 -0.3260  0.6210 -1.4370
 8409SOL     OW37105   1.655   1.209   6.059 -0.5450 -0.4093 -0.5881
 8409SOL    HW137106   1.662   1.179   6.149 -0.4111  0.4603 -0.3039
 8409SOL    HW237107   1.667   1.304   6.065 -0.7825 -0.3254 -1.4899
 8410SOL     OW37108   0.662   4.670  14.137  0.2872 -0.4888  0.5439
 8410SOL    HW137109   0.737   4.706  14.090 -0.3979  0.1281 -0.0950
 8410SOL    HW237110   0.640   4.590  14.090  0.8752 -0.9382  1.0459
 8411SOL     OW37111   0.588   3.513   2.140  0.1572  0.1620 -0.8655
 8411SOL    HW137112   0.643   3.435   2.145  1.6379  1.2955  0.4525
 8411SOL    HW237113   0.583   3.544   2.231  0.5439  2.2699 -1.5727
 8412SOL     OW37114   0.476   0.898  16.000  0.0148 -0.1625  0.0405
 8412SOL    HW137115   0.488   0.832  16.068 -3.8721 -1.7984 -0.8245
 8412SOL    HW237116   0.497   0.852  15.918 -0.3809  0.3219 -0.3323
 8413SOL     OW37117   2.878   4.546  20.580  0.2217  0.4761 -1.0315
 8413SOL    HW137118   2.959   4.533  20.531  1.0677 -0.8663  0.7061
 8413SOL    HW237119   2.841   4.459  20.588  1.5478  0.3081  3.1942
 8414SOL     OW37120   4.597   0.913  14.156  0.3232  0.0482  0.0274
 8414SOL    HW137121   4.601   0.839  14.216 -1.7272 -0.8183 -0.9030
 8414SOL    HW237122   4.560   0.984  14.209 -2.4894 -1.0109 -0.4931
 8415SOL     OW37123   0.413   0.320  14.578  0.4281 -0.3499  0.0850
 8415SOL    HW137124   0.405   0.229  14.605  0.0105 -0.3769 -0.1285
 8415SOL    HW237125   0.355   0.368  14.637 -0.1837 -0.3578 -0.5136
 8416SOL     OW37126   2.067   2.934  20.669  0.1567  0.0825 -0.8735
 8416SOL    HW137127   2.121   2.898  20.598 -0.1907 -1.6188 -0.2714
 8416SOL    HW237128   2.082   2.875  20.742 -1.0303  0.7264 -0.1179
 8417SOL     OW37129   2.984   1.437   9.268 -0.2166 -0.0847 -0.1686
 8417SOL    HW137130   2.952   1.508   9.211 -1.5497 -0.1783  0.4698
 8417SOL    HW237131   2.951   1.460   9.355 -0.0942 -1.1501  0.1510
 8418SOL     OW37132   3.210   4.750  19.536 -0.4451 -0.3512  0.3474
 8418SOL    HW137133   3.187   4.765  19.444 -1.2595  1.1844  0.7949
 8418SOL    HW237134   3.130   4.718  19.576  0.2410 -2.1668  0.2560
 8419SOL     OW37135   0.859   1.259   0.651  0.9789  0.1048  0.4022
 8419SOL    HW137136   0.833   1.259   0.743 -0.3325  0.8811  0.0455
 8419SOL    HW237137   0.954   1.262   0.652  0.9917 -1.0891  1.7425
 8420SOL     OW37138   2.356   3.761  19.768 -0.5468  0.2996 -0.8440
 8420SOL    HW137139   2.451   3.760  19.774 -0.6041 -2.0832 -0.2544
 8420SOL    HW237140   2.327   3.699  19.835 -2.4153 -1.3463 -3.1591
 8421SOL     OW37141   3.465   2.445   1.271 -0.2794 -0.1577  0.0036
 8421SOL    HW137142   3.450   2.538   1.284 -0.0935 -0.0223 -0.7494
 8421SOL    HW237143   3.556   2.439   1.242 -1.0754 -0.3511 -2.4414
 8422SOL     OW37144   4.171   0.810   0.692  0.6270  0.5140 -0.2924
 8422SOL    HW137145   4.194   0.770   0.609  1.9316 -1.5493  1.0726
 8422SOL    HW237146   4.080   0.784   0.707  0.6875  0.1295 -0.6028
 8423SOL     OW37147   3.000   4.626   3.658 -0.5568 -0.3031 -0.0657
 8423SOL    HW137148   3.086   4.631   3.616 -1.3101  1.4753 -1.3781
 8423SOL    HW237149   2.973   4.535   3.645  1.4396 -1.0693  0.9942
 8424SOL     OW37150   3.335   3.671  12.119 -0.4403  0.7084 -0.8301
 8424SOL    HW137151   3.402   3.616  12.079 -0.1677  0.7432 -0.4179
 8424SOL    HW237152   3.321   3.742  12.056  0.4820  1.1379 -0.5494
 8425SOL     OW37153   3.241   0.330   8.362  0.0396 -0.0209 -0.4520
 8425SOL    HW137154   3.166   0.336   8.303  0.2281 -1.6980 -0.8569
 8425SOL    HW237155   3.244   0.237   8.387  0.6344  0.4702  1.3019
 8426SOL     OW37156   4.462   3.095   7.124  0.3139  0.3225 -0.1260
 8426SOL    HW137157   4.459   3.190   7.110  0.1095  0.5430  1.3676
 8426SOL    HW237158   4.376   3.064   7.096 -0.2131  0.8042  0.9261
 8427SOL     OW37159   2.565   1.371  19.106  0.5906 -0.0692  0.8169
 8427SOL    HW137160   2.535   1.447  19.154  0.9687  1.3176 -1.1285
 8427SOL    HW237161   2.516   1.298  19.143 -2.0465  1.5726  0.5787
 8428SOL     OW37162   2.692   3.510   0.692  0.4668 -0.3426 -0.4044
 8428SOL    HW137163   2.680   3.419   0.664  0.5910  0.2425 -2.3520
 8428SOL    HW237164   2.631   3.521   0.765 -0.3896 -1.6409 -0.9178
 8429SOL     OW37165   0.165   2.400   5.415  0.1549  0.4511 -0.1401
 8429SOL    HW137166   0.187   2.347   5.338  1.6830 -0.8690  1.2118
 8429SOL    HW237167   0.244   2.397   5.469 -1.0509  1.1267  1.6372
 8430SOL     OW37168   2.555   3.774  12.875  0.4610  0.0310 -0.2150
 8430SOL    HW137169   2.497   3.809  12.807  0.2951  0.0552 -0.0627
 8430SOL    HW237170   2.616   3.717  12.829 -0.0589 -0.4560 -0.2930
 8431SOL     OW37171   0.419   2.337  20.053 -0.1682 -0.0243 -0.1964
 8431SOL    HW137172   0.426   2.413  19.995  1.4315  0.6961  0.9098
 8431SOL    HW237173   0.510   2.313  20.071 -0.6571 -0.5511  1.5909
 8432SOL     OW37174   2.826   2.919   1.723 -0.4303 -0.1705 -0.5510
 8432SOL    HW137175   2.822   3.012   1.743  1.8992 -0.5225  1.4906
 8432SOL    HW237176   2.767   2.878   1.787  0.2041 -0.3429 -0.0816
 8433SOL     OW37177   2.904   1.560  14.072 -0.2825  0.0526 -0.3213
 8433SOL    HW137178   2.873   1.469  14.066 -0.2890 -0.0036  0.4998
 8433SOL    HW237179   2.901   1.579  14.166 -2.0861  1.5462 -0.6964
 8434SOL     OW37180   1.809   1.365  13.302 -0.7176 -0.4745  0.2526
 8434SOL    HW137181   1.761   1.317  13.370 -0.9366  0.1306  0.5249
 8434SOL    HW237182   1.780   1.326  13.220 -1.2693 -0.4713  0.4474
 8435SOL     OW37183   3.319   1.824   4.876  0.5637  0.4528  0.4040
 8435SOL    HW137184   3.316   1.796   4.967  0.6611  1.8226  0.8343
 8435SOL    HW237185   3.386   1.893   4.874  0.1277  0.8568 -0.5707
 8436SOL     OW37186   3.509   0.734   8.489 -0.5484 -0.2444 -0.0847
 8436SOL    HW137187   3.422   0.773   8.483  0.3828  1.9254  0.6558
 8436SOL    HW237188   3.496   0.643   8.463 -3.1081 -0.0101  0.3612
 8437SOL     OW37189   1.015   1.477   4.766  0.2226  0.4183 -0.0491
 8437SOL    HW137190   1.081   1.532   4.724  1.0853 -1.1993 -0.8088
 8437SOL    HW237191   1.015   1.505   4.858 -0.1953  2.5095 -0.6783
 8438SOL     OW37192   3.367   0.302  17.319  0.2862 -0.2110  0.3139
 8438SOL    HW137193   3.313   0.284  17.243  0.9765 -2.2123  0.2972
 8438SOL    HW237194   3.334   0.385  17.353 -1.8794 -0.7524 -0.4949
 8439SOL     OW37195   4.057   1.729   7.286  0.0903 -0.3327 -0.3335
 8439SOL    HW137196   3.993   1.714   7.217  0.7775 -1.5625 -0.7023
 8439SOL    HW237197   4.039   1.661   7.350  0.4332 -0.1134 -0.0092
 8440SOL     OW37198   3.472   4.583   5.611 -0.0072  0.0435 -0.1541
 8440SOL    HW137199   3.408   4.640   5.654  0.8446 -0.6169  1.9732
 8440SOL    HW237200   3.553   4.635   5.609  0.3093 -0.4305  0.2413
 8441SOL     OW37201   3.817   2.820   5.631  0.4938 -0.0521  0.0588
 8441SOL    HW137202   3.775   2.758   5.572 -0.3255 -1.7822  2.4621
 8441SOL    HW237203   3.751   2.887   5.647  0.5647  0.1823 -0.6458
 8442SOL     OW37204   1.211   1.743  19.485 -0.1469  0.3084 -0.1692
 8442SOL    HW137205   1.142   1.788  19.533  1.5672  0.7100  1.9261
 8442SOL    HW237206   1.170   1.664  19.451 -1.7550  0.7792  0.6916
 8443SOL     OW37207   1.819   1.283  11.708 -0.1719 -0.0859  0.1662
 8443SOL    HW137208   1.779   1.275  11.622  0.9111 -2.4799 -0.1051
 8443SOL    HW237209   1.778   1.214  11.760 -0.3905  0.9740  1.4144
 8444SOL     OW37210   0.769   0.930   5.450 -0.2614  0.4264 -0.0805
 8444SOL    HW137211   0.713   0.913   5.374 -2.3222  1.4135  1.2096
 8444SOL    HW237212   0.826   1.002   5.423 -1.2609  1.0425 -0.5401
 8445SOL     OW37213   3.311   2.288   0.867 -0.4509  0.1188 -0.0709
 8445SOL    HW137214   3.262   2.369   0.852 -1.0815 -0.4518 -1.0964
 8445SOL    HW237215   3.373   2.285   0.794  0.2182  0.1760  0.5036
 8446SOL     OW37216   0.780   2.640  11.325  0.5934 -0.3074 -0.1801
 8446SOL    HW137217   0.857   2.697  11.332  1.1477 -1.1632  0.6394
 8446SOL    HW237218   0.801   2.564  11.379  0.2726 -1.7575 -2.0935
 8447SOL     OW37219   3.630   3.186  18.084  0.1051  0.2751 -0.1554
 8447SOL    HW137220   3.562   3.178  18.017  1.2714  0.3175 -1.3583
 8447SOL    HW237221   3.705   3.223  18.037  1.3088 -0.8031  0.9185
 8448SOL     OW37222   0.430   2.196   2.435  0.3007 -0.1988  0.4551
 8448SOL    HW137223   0.517   2.195   2.395 -0.0406 -1.1569 -0.2387
 8448SOL    HW237224   0.432   2.126   2.500 -0.1013 -0.5043  0.1375
 8449SOL     OW37225   3.210   1.499  12.181 -0.1480  0.2603 -0.1390
 8449SOL    HW137226   3.177   1.492  12.270 -0.3364 -0.3446 -0.2585
 8449SOL    HW237227   3.304   1.518  12.192 -0.5083  1.8619  0.1912
 8450SOL     OW37228   2.498   2.484   6.492 -0.3700  0.0493 -0.5084
 8450SOL    HW137229   2.442   2.481   6.414 -0.0843  2.5101 -0.8305
 8450SOL    HW237230   2.587   2.491   6.457 -0.1406 -0.3417  0.0129
 8451SOL     OW37231   0.090   4.730   1.314 -0.2390 -0.7526  0.3364
 8451SOL    HW137232   0.078   0.036   1.266  1.0643  0.7960  2.6526
 8451SOL    HW237233   0.013   4.724   1.371 -0.1814 -0.9734  0.3909
 8452SOL     OW37234   3.001   1.385   1.984  0.0541 -0.0892  0.3794
 8452SOL    HW137235   3.068   1.348   2.041  2.1006  1.5448 -0.9810
 8452SOL    HW237236   2.989   1.474   2.016  0.2747  0.4125 -0.9501
 8453SOL     OW37237   1.881   0.256  15.353 -0.4744 -0.1359 -0.2661
 8453SOL    HW137238   1.850   0.165  15.356  0.4210 -0.3832  1.1491
 8453SOL    HW237239   1.879   0.285  15.444 -0.3482  1.1255 -0.6714
 8454SOL     OW37240   4.248   1.671   6.989  0.6488 -0.1774  0.9118
 8454SOL    HW137241   4.252   1.744   7.051  1.9402  0.8875 -0.4132
 8454SOL    HW237242   4.250   1.714   6.903  0.4663 -1.7388  0.1411
 8455SOL     OW37243   4.688   2.146   1.486 -0.1074 -0.4784 -0.5650
 8455SOL    HW137244   4.766   2.154   1.432 -0.3572 -1.2508 -1.0563
 8455SOL    HW237245   4.717   2.165   1.575  0.2426  1.0983 -1.0224
 8456SOL     OW37246   2.393   3.359   1.716  0.0334  0.6189  0.1010
 8456SOL    HW137247   2.456   3.381   1.785  0.3341  1.5818 -0.4839
 8456SOL    HW237248   2.447   3.324   1.645 -0.1435  0.9469 -0.1924
 8457SOL     OW37249   1.539   4.405   4.932  0.0033 -0.0684 -0.1247
 8457SOL    HW137250   1.505   4.318   4.911  1.6024 -0.6800 -0.1894
 8457SOL    HW237251   1.593   4.428   4.856 -1.0984  1.3401 -0.4855
 8458SOL     OW37252   3.524   0.434  17.097  0.6811  0.0859 -0.4120
 8458SOL    HW137253   3.515   0.417  17.190  0.4745  2.7257  0.0493
 8458SOL    HW237254   3.606   0.482  17.089  0.2236  0.6910 -1.4945
 8459SOL     OW37255   2.593   3.854   0.127  0.4867 -0.1445 -0.2462
 8459SOL    HW137256   2.592   3.767   0.089  0.5651  0.0716 -0.7368
 8459SOL    HW237257   2.560   3.911   0.058  1.7452  0.4062 -0.3998
 8460SOL     OW37258   4.623   0.845   3.944 -0.1430 -0.4097  0.2194
 8460SOL    HW137259   4.581   0.867   3.860  1.3653  0.7859 -0.2232
 8460SOL    HW237260   4.606   0.921   4.000 -1.8259 -1.5462  1.2574
 8461SOL     OW37261   2.006   4.292   0.599 -0.2615 -0.2227 -0.3594
 8461SOL    HW137262   1.911   4.290   0.609 -0.2362 -0.8308 -0.1966
 8461SOL    HW237263   2.040   4.277   0.687 -0.0008  2.4870 -0.0115
 8462SOL     OW37264   0.466   2.681  16.430  0.0953 -0.6888  0.4387
 8462SOL    HW137265   0.504   2.752  16.483 -1.5294  0.2578  0.3077
 8462SOL    HW237266   0.454   2.609  16.492  1.3685 -0.7142  0.6555
 8463SOL     OW37267   1.190   3.771   0.660 -0.1966  0.1445 -0.0150
 8463SOL    HW137268   1.241   3.694   0.684  0.8218  1.3470  1.6704
 8463SOL    HW237269   1.140   3.792   0.739  0.7633  2.2127  0.0445
 8464SOL     OW37270   3.445   1.370  19.858 -0.1363  0.0351 -0.1197
 8464SOL    HW137271   3.404   1.344  19.941 -1.3465  0.6429 -0.5371
 8464SOL    HW237272   3.373   1.374  19.796  0.5786  0.9703 -0.8809
 8465SOL     OW37273   2.673   1.799   1.279  0.2059  0.3765  0.2428
 8465SOL    HW137274   2.666   1.789   1.184 -1.6572  0.1457  0.3909
 8465SOL    HW237275   2.639   1.887   1.296  2.6621  1.2813  0.4626
 8466SOL     OW37276   1.005   4.602  21.056  0.0927 -0.3442  0.1296
 8466SOL    HW137277   1.024   4.621  20.965  0.4659  0.2133  0.3226
 8466SOL    HW237278   1.090   4.585  21.096  0.0044  0.1690  0.5427
 8467SOL     OW37279   3.365   4.612  17.587 -0.6977  0.6334 -0.3798
 8467SOL    HW137280   3.427   4.556  17.541 -1.0492 -1.0860  1.2174
 8467SOL    HW237281   3.398   4.701  17.573 -0.3529  0.0434 -3.2211
 8468SOL     OW37282   2.474   4.190  19.464  0.1531 -0.6729 -0.1066
 8468SOL    HW137283   2.419   4.226  19.395  0.3449 -1.0199 -0.4381
 8468SOL    HW237284   2.416   4.181  19.540  0.1448  0.5106  0.0288
 8469SOL     OW37285   4.732   0.623   2.981  0.2325  0.2634 -0.0597
 8469SOL    HW137286   4.693   0.569   3.049 -1.7184  0.5879 -0.9265
 8469SOL    HW237287   0.037   0.656   3.021  1.1373 -2.8272  0.6406
 8470SOL     OW37288   2.802   3.616  17.981 -0.3204 -0.1250  0.3614
 8470SOL    HW137289   2.882   3.565  17.993 -0.2971 -0.1547  0.0910
 8470SOL    HW237290   2.806   3.646  17.890 -0.6589 -0.2022  0.3180
 8471SOL     OW37291   1.315   3.003   2.027  0.3309 -0.4605  0.0372
 8471SOL    HW137292   1.262   2.923   2.032 -0.8825  0.1728 -2.6301
 8471SOL    HW237293   1.282   3.059   2.097 -0.9822 -0.9922 -0.1636
 8472SOL     OW37294   4.724   1.556  17.147 -0.0955 -0.1518 -0.1123
 8472SOL    HW137295   4.678   1.510  17.218 -0.5130 -0.2634 -0.4553
 8472SOL    HW237296   4.709   1.501  17.070  0.7494 -0.2722 -0.1879
 8473SOL     OW37297   4.253   1.823   3.804  0.1030 -0.0750  0.4789
 8473SOL    HW137298   4.217   1.837   3.892  1.0283 -0.9914  1.0066
 8473SOL    HW237299   4.343   1.854   3.810  0.7084 -1.7844  0.3460
 8474SOL     OW37300   3.599   3.159  19.033 -0.5724 -0.1798 -0.2783
 8474SOL    HW137301   3.602   3.244  19.076  0.2671 -1.0320  1.3652
 8474SOL    HW237302   3.523   3.115  19.072  0.0256 -0.8431  0.1522
 8475SOL     OW37303   0.904   4.182   4.393  0.2414 -0.1154  0.6725
 8475SOL    HW137304   0.832   4.244   4.379  0.6290  0.1997  0.0722
 8475SOL    HW237305   0.869   4.117   4.454 -1.0565 -0.8395 -0.8586
 8476SOL     OW37306   1.091   3.362  18.034 -0.3320  0.2287  0.5203
 8476SOL    HW137307   1.173   3.411  18.037 -1.4728  2.1520 -0.2761
 8476SOL    HW237308   1.101   3.303  17.960 -0.5683  2.0079 -0.9161
 8477SOL     OW37309   3.034   0.782  13.379 -0.2355 -0.3009 -0.3494
 8477SOL    HW137310   3.019   0.852  13.316 -0.7043  0.5530  0.7178
 8477SOL    HW237311   2.947   0.760  13.412  0.3734  1.6268  2.5705
 8478SOL     OW37312   0.251   3.736  15.056  0.0422  0.0053 -0.1190
 8478SOL    HW137313   0.336   3.730  15.013  0.1162  1.8290 -0.2320
 8478SOL    HW237314   0.271   3.763  15.146 -0.5717  2.4937 -0.7360
 8479SOL     OW37315   0.688   3.238   2.478 -0.0000 -0.2203 -0.1714
 8479SOL    HW137316   0.763   3.219   2.533  1.0494 -0.6832 -1.7688
 8479SOL    HW237317   0.612   3.221   2.534  1.0463 -2.3361  0.6001
 8480SOL     OW37318   4.106   3.249   0.693  0.0626 -0.4173 -0.5198
 8480SOL    HW137319   4.109   3.175   0.752  1.2955  0.0878  0.0473
 8480SOL    HW237320   4.055   3.315   0.739  0.7745 -0.1309 -0.1444
 8481SOL     OW37321   0.976   1.854   0.243  0.0599  0.0430 -0.3239
 8481SOL    HW137322   0.971   1.901   0.160 -0.5567  0.2628 -0.1606
 8481SOL    HW237323   0.987   1.923   0.309 -3.0833  0.1086  0.1388
 8482SOL     OW37324   3.141   3.153   4.187  0.0162  0.5391 -0.4290
 8482SOL    HW137325   3.177   3.139   4.274 -1.1650  2.5704  0.3966
 8482SOL    HW237326   3.046   3.145   4.199 -0.1306  0.5691 -1.5728
 8483SOL     OW37327   0.871   4.670  17.445 -0.5025  0.4337 -0.0469
 8483SOL    HW137328   0.964   4.674  17.468 -0.6504 -0.0976  0.6129
 8483SOL    HW237329   0.866   4.607  17.373 -0.2823  0.8370 -0.4156
 8484SOL     OW37330   1.511   3.795  10.874  0.4298 -0.1139  0.4287
 8484SOL    HW137331   1.476   3.735  10.940 -0.2763  0.4328  0.5468
 8484SOL    HW237332   1.518   3.879  10.920 -0.0411  0.2611 -0.1996
 8485SOL     OW37333   2.963   4.430   1.818 -0.7502 -0.3048 -0.1727
 8485SOL    HW137334   2.948   4.524   1.812 -0.4412 -0.2426  0.0535
 8485SOL    HW237335   3.048   4.416   1.777 -0.6442 -0.4434  0.0924
 8486SOL     OW37336   2.194   1.083   1.431  0.1214  0.2810 -0.5264
 8486SOL    HW137337   2.131   1.141   1.389  0.2669  1.4233  0.8232
 8486SOL    HW237338   2.144   1.004   1.451 -1.0443  1.4527  1.1722
 8487SOL     OW37339   2.516   4.519   3.331 -0.1557  0.1829 -0.3820
 8487SOL    HW137340   2.527   4.517   3.236  0.3186  0.2766 -0.3311
 8487SOL    HW237341   2.595   4.563   3.363 -0.0721 -0.3093  0.0917
 8488SOL     OW37342   2.116   4.112   3.341  0.4621 -0.0253 -0.0932
 8488SOL    HW137343   2.163   4.064   3.409  0.2669 -0.4590 -0.2626
 8488SOL    HW237344   2.059   4.173   3.389 -0.1461 -0.7783  0.1398
 8489SOL     OW37345   4.421   1.504   6.798 -0.3285 -0.0771 -0.5897
 8489SOL    HW137346   4.370   1.425   6.782  1.0233 -0.7892 -1.3030
 8489SOL    HW237347   4.375   1.547   6.871 -0.4446 -2.0356  0.4881
 8490SOL     OW37348   2.517   2.372  16.216  0.0632  0.1763  0.4096
 8490SOL    HW137349   2.505   2.449  16.273  1.2018  1.6322 -1.2983
 8490SOL    HW237350   2.492   2.298  16.271 -1.0811  1.7707  2.0771
 8491SOL     OW37351   0.137   1.763  16.253 -0.1212 -0.8201 -0.3143
 8491SOL    HW137352   0.075   1.721  16.194 -2.0065  0.3529  0.8331
 8491SOL    HW237353   0.087   1.782  16.332  2.0076 -0.9811  1.0850
 8492SOL     OW37354   1.105   1.350  18.625 -0.8589  0.4361 -0.0305
 8492SOL    HW137355   1.082   1.302  18.546 -0.0969  0.1419 -0.0661
 8492SOL    HW237356   1.200   1.357  18.623 -0.8172  0.2165  0.9807
 8493SOL     OW37357   1.484   2.109  13.713 -0.3232  0.1943  0.3459
 8493SOL    HW137358   1.471   2.143  13.801 -0.9977  0.2255  0.2338
 8493SOL    HW237359   1.455   2.179  13.655  0.3641  0.2725  0.0972
 8494SOL     OW37360   3.284   3.166   5.851  0.8131 -0.4582 -0.4677
 8494SOL    HW137361   3.365   3.216   5.839 -0.4844  1.5052 -0.8722
 8494SOL    HW237362   3.277   3.113   5.771  1.1600  0.1142 -0.8801
 8495SOL     OW37363   2.010   1.106   3.569 -0.1577  0.0891  0.1937
 8495SOL    HW137364   2.038   1.016   3.552  0.2373 -0.5031  3.9987
 8495SOL    HW237365   2.091   1.155   3.581 -0.4952  0.1238  2.3215
 8496SOL     OW37366   0.172   3.566  19.842  0.6415  0.6391  0.1393
 8496SOL    HW137367   0.257   3.525  19.858 -0.4191 -0.1879  3.8594
 8496SOL    HW237368   0.111   3.492  19.837 -0.7470  1.5632  3.4026
 8497SOL     OW37369   2.147   1.206  13.428 -0.3830  0.2411  0.5673
 8497SOL    HW137370   2.120   1.296  13.412 -0.7800  0.4971  2.6744
 8497SOL    HW237371   2.173   1.172  13.342  0.1289  2.4790 -0.1380
 8498SOL     OW37372   0.798   1.283  19.365 -0.0790 -0.1187 -0.2843
 8498SOL    HW137373   0.778   1.210  19.306  1.2885 -2.1902  1.8314
 8498SOL    HW237374   0.888   1.268  19.392  0.1958  2.3496  0.1546
 8499SOL     OW37375   3.821   0.173  16.304 -0.4810  0.1261 -0.3596
 8499SOL    HW137376   3.883   0.100  16.300 -0.9656 -0.2744 -0.5450
 8499SOL    HW237377   3.876   0.251  16.311  0.0715 -0.1207 -2.0724
 8500SOL     OW37378   2.356   3.869  17.513 -0.6610 -0.2417 -0.2856
 8500SOL    HW137379   2.318   3.782  17.525  0.3190 -0.7887 -1.1983
 8500SOL    HW237380   2.320   3.899  17.429 -0.0544 -0.2435 -0.5404
 8501SOL     OW37381   3.222   0.028   4.507  0.2187  0.2772  0.0029
 8501SOL    HW137382   3.139   4.756   4.515  0.2248  0.2728  0.0404
 8501SOL    HW237383   3.267   4.761   4.434 -0.7633  1.6947 -1.4374
 8502SOL     OW37384   3.185   3.697  19.582 -0.2706  0.3341  0.0947
 8502SOL    HW137385   3.102   3.734  19.553 -0.9805 -0.6755  0.8642
 8502SOL    HW237386   3.251   3.753  19.541 -1.3048  0.0218 -2.0075
 8503SOL     OW37387   1.306   1.499   2.055  0.0201  0.4192 -0.2804
 8503SOL    HW137388   1.398   1.486   2.075  0.4980  2.2895 -1.2053
 8503SOL    HW237389   1.267   1.525   2.139  0.1294 -1.4019  0.3320
 8504SOL     OW37390   3.653   1.641   6.548 -0.1769  0.5810 -0.9045
 8504SOL    HW137391   3.613   1.683   6.472  0.1072  1.4928 -0.5505
 8504SOL    HW237392   3.735   1.604   6.515  0.2162  1.4730 -0.9026
 8505SOL     OW37393   3.576   0.250   2.513  0.1138 -0.4707 -0.2417
 8505SOL    HW137394   3.491   0.232   2.474  0.9983  0.0931 -2.4588
 8505SOL    HW237395   3.633   0.179   2.482  1.3096  1.0593 -1.5762
 8506SOL     OW37396   4.100   1.016  16.722 -0.5110  0.3800 -0.6751
 8506SOL    HW137397   4.034   0.973  16.667  1.2917  0.6088 -3.0337
 8506SOL    HW237398   4.148   0.943  16.763 -2.2089  0.2149  1.0215
 8507SOL     OW37399   4.321   1.916  20.167 -0.2021 -0.1229  0.3033
 8507SOL    HW137400   4.267   1.871  20.102 -1.0465 -0.0622  0.9553
 8507SOL    HW237401   4.258   1.950  20.230  0.3766  2.5734 -0.5681
 8508SOL     OW37402   3.803   3.112  16.745  0.5774 -0.2821  0.2701
 8508SOL    HW137403   3.760   3.101  16.830 -0.5369  0.9582 -0.1480
 8508SOL    HW237404   3.805   3.206  16.730 -0.4996 -0.5829 -1.7491
 8509SOL     OW37405   3.276   2.904  15.425 -0.8362  0.5670  0.0634
 8509SOL    HW137406   3.293   2.897  15.332  1.5533 -0.5536  0.6019
 8509SOL    HW237407   3.206   2.840  15.442 -2.4189  1.9525 -1.2589
 8510SOL     OW37408   0.971   1.048  17.913  0.0139 -0.1255  0.2247
 8510SOL    HW137409   0.895   0.995  17.936  0.8076 -1.1128  0.5321
 8510SOL    HW237410   1.023   1.053  17.993 -0.6171  2.0221  0.4901
 8511SOL     OW37411   4.183   0.122  12.745  0.2322 -0.3793 -0.1738
 8511SOL    HW137412   4.117   0.168  12.693 -1.0830 -3.7768 -1.4815
 8511SOL    HW237413   4.195   0.178  12.822 -3.8871  0.4505 -0.1295
 8512SOL     OW37414   3.101   0.388  20.873  0.4740  0.0282 -0.0131
 8512SOL    HW137415   3.103   0.465  20.816  1.2038 -0.1120 -0.1790
 8512SOL    HW237416   3.085   0.424  20.961  0.3020  0.3255 -0.1666
 8513SOL     OW37417   4.659   1.320  20.727 -0.3756 -0.3831 -0.0812
 8513SOL    HW137418   4.626   1.332  20.638 -0.7833  2.1571  0.4044
 8513SOL    HW237419   4.649   1.226  20.744 -1.8407 -0.6025 -2.1084
 8514SOL     OW37420   1.925   4.615   3.485 -0.8624 -0.1802 -0.3393
 8514SOL    HW137421   1.941   4.701   3.523 -1.6680 -0.0080 -0.3797
 8514SOL    HW237422   1.931   4.555   3.558 -0.1942 -0.1047 -0.3281
 8515SOL     OW37423   3.753   4.003   4.465 -0.3819 -0.4000 -0.8391
 8515SOL    HW137424   3.837   4.044   4.485  0.0097 -0.9172 -1.4026
 8515SOL    HW237425   3.688   4.071   4.483  0.2584  0.4450 -1.7099
 8516SOL     OW37426   1.305   0.889  17.116  0.6576  0.0184  0.5604
 8516SOL    HW137427   1.257   0.834  17.054 -1.3981  1.3670  0.9449
 8516SOL    HW237428   1.339   0.961  17.063 -3.9200  2.9492  1.5818
 8517SOL     OW37429   4.772   0.343  16.086 -0.1764  0.3026 -0.2923
 8517SOL    HW137430   0.062   0.273  16.092  0.4875  1.1326  2.1173
 8517SOL    HW237431   0.036   0.408  16.028  0.6099  0.2086  0.1327
 8518SOL     OW37432   4.744   3.873   0.515 -0.2371 -0.1878  0.1862
 8518SOL    HW137433   0.008   3.934   0.577  1.2164 -2.4803  1.5062
 8518SOL    HW237434   4.688   3.817   0.568  0.6159 -1.8318 -0.6129
 8519SOL     OW37435   2.244   3.884   8.769  0.3944  0.2326  0.2902
 8519SOL    HW137436   2.170   3.831   8.798  0.3192 -0.1463 -0.5916
 8519SOL    HW237437   2.224   3.972   8.801 -0.6694  0.2275 -0.3383
 8520SOL     OW37438   3.727   0.457  17.833  0.5428  0.0442 -0.1713
 8520SOL    HW137439   3.656   0.497  17.782  1.0297  0.8822 -0.1884
 8520SOL    HW237440   3.686   0.428  17.914  0.3435  1.2261  0.1446
 8521SOL     OW37441   2.821   2.065  16.546  0.4270 -0.0938  0.0140
 8521SOL    HW137442   2.789   2.035  16.631  1.9248 -0.2088  0.5313
 8521SOL    HW237443   2.745   2.058  16.488 -0.7205  0.4064  1.4461
 8522SOL     OW37444   2.089   2.941  17.339 -0.4672  1.1160 -0.0620
 8522SOL    HW137445   2.050   2.869  17.389  1.3369 -0.6861 -1.2715
 8522SOL    HW237446   2.057   2.928  17.250  2.0156  0.2688 -0.8332
 8523SOL     OW37447   3.229   1.294  19.674 -0.8447  0.2940 -0.6786
 8523SOL    HW137448   3.259   1.223  19.731 -0.4697  0.5184 -0.5988
 8523SOL    HW237449   3.135   1.296  19.687 -0.5690  1.3685  1.1033
 8524SOL     OW37450   3.519   1.486   1.934 -0.6500 -0.5715 -0.3261
 8524SOL    HW137451   3.430   1.472   1.902 -1.3969  0.9598  1.0562
 8524SOL    HW237452   3.554   1.555   1.877 -1.2643  0.6978  0.8369
 8525SOL     OW37453   0.008   0.123  19.356  0.0840 -0.4546  0.5699
 8525SOL    HW137454   0.079   0.178  19.322 -0.1103  1.1837  2.8366
 8525SOL    HW237455   0.042   0.034  19.351  1.4319  0.1218 -0.5155
 8526SOL     OW37456   1.791   3.687  19.606  0.0929  0.6105 -0.1984
 8526SOL    HW137457   1.803   3.707  19.698 -0.1369 -0.1101 -0.0160
 8526SOL    HW237458   1.872   3.642  19.580  0.4396  1.4122 -0.5109
 8527SOL     OW37459   1.183   1.262  19.814 -0.0031  0.3582 -0.7552
 8527SOL    HW137460   1.250   1.331  19.821  1.3324 -0.8770 -1.3560
 8527SOL    HW237461   1.198   1.207  19.890 -1.1946  0.8438 -0.1786
 8528SOL     OW37462   0.036   1.289   0.270  0.3897  0.1355  0.3645
 8528SOL    HW137463   0.024   1.236   0.349  0.5487 -0.4237  0.0127
 8528SOL    HW237464   0.131   1.305   0.267  0.3634  0.2952  0.3730
 8529SOL     OW37465   2.749   1.430  18.469 -0.3367 -0.3512  0.4104
 8529SOL    HW137466   2.718   1.388  18.389  0.5609  0.2341 -0.2498
 8529SOL    HW237467   2.706   1.515  18.471  2.7161  1.2523 -1.5133
 8530SOL     OW37468   2.159   2.764   0.968  0.0242 -0.3719 -0.4542
 8530SOL    HW137469   2.067   2.771   0.943  0.4105 -0.0843 -1.7992
 8530SOL    HW237470   2.204   2.739   0.887  0.9197 -1.9652  0.5320
 8531SOL     OW37471   0.869   2.484  17.295  0.0534  0.2345  0.2482
 8531SOL    HW137472   0.854   2.520  17.383 -0.6222 -1.0123  0.6428
 8531SOL    HW237473   0.782   2.481  17.256  0.3147  0.4659 -0.3494
 8532SOL     OW37474   3.267   0.350   5.127  0.5210  0.0821 -0.0141
 8532SOL    HW137475   3.328   0.406   5.176  1.6926 -0.2320 -1.1162
 8532SOL    HW237476   3.199   0.410   5.097  0.6737  0.5637  0.6039
 8533SOL     OW37477   3.406   1.663   7.276  0.2594  0.5580  0.1986
 8533SOL    HW137478   3.397   1.568   7.273 -0.5508  0.6647 -0.8464
 8533SOL    HW237479   3.473   1.684   7.211  0.1516  0.7327  0.1413
 8534SOL     OW37480   4.221   3.362  17.751 -0.0583  0.3398  0.0769
 8534SOL    HW137481   4.268   3.347  17.834  0.6474  0.9881 -0.2027
 8534SOL    HW237482   4.215   3.457  17.744  1.6508  0.3363 -1.5952
 8535SOL     OW37483   4.722   1.158  18.648  0.4310  0.2299  0.1123
 8535SOL    HW137484   0.033   1.138  18.683  1.6338  4.2920 -0.4886
 8535SOL    HW237485   4.729   1.139  18.554  0.1435 -1.3088  0.4219
 8536SOL     OW37486   2.891   2.776   0.511  0.1368 -0.4863  0.0413
 8536SOL    HW137487   2.958   2.758   0.577  1.3324  0.5828 -0.8861
 8536SOL    HW237488   2.870   2.690   0.475  0.4408 -0.9114  0.8695
 8537SOL     OW37489   0.438   2.418  17.433 -0.4682 -0.0107 -0.3530
 8537SOL    HW137490   0.415   2.444  17.523 -0.0019  1.8372 -0.7702
 8537SOL    HW237491   0.363   2.446  17.380  0.1964  0.7658 -0.8629
 8538SOL     OW37492   0.632   4.512   7.429  0.8068  0.5373 -0.0240
 8538SOL    HW137493   0.595   4.496   7.516 -1.1695  0.5484 -0.8464
 8538SOL    HW237494   0.644   4.425   7.391  0.4300  0.5768 -0.2391
 8539SOL     OW37495   3.875   0.226   1.102 -0.0411  0.8078  0.2248
 8539SOL    HW137496   3.812   0.289   1.138 -1.1980 -0.1172 -0.2031
 8539SOL    HW237497   3.822   0.165   1.050  1.2215  0.1445 -0.2930
 8540SOL     OW37498   3.399   0.831   3.709  0.3642  0.2748  0.1270
 8540SOL    HW137499   3.337   0.761   3.692 -0.2282  0.7862  0.1769
 8540SOL    HW237500   3.475   0.788   3.748 -0.1438 -0.2867  0.4761
 8541SOL     OW37501   3.157   3.462  12.324 -0.0177  0.4474  0.6166
 8541SOL    HW137502   3.230   3.415  12.285 -1.3668 -1.9933  1.0296
 8541SOL    HW237503   3.082   3.403  12.314 -1.4721  2.0271  2.1305
 8542SOL     OW37504   1.208   1.442   3.412  0.1445  0.2952 -0.4717
 8542SOL    HW137505   1.140   1.393   3.459  0.8116  2.4680  2.7202
 8542SOL    HW237506   1.232   1.384   3.340 -3.4793 -1.4686 -0.2788
 8543SOL     OW37507   0.022   4.373   4.778 -0.2171  0.7516 -0.2177
 8543SOL    HW137508   4.760   4.458   4.758 -1.2028  0.3646 -0.0154
 8543SOL    HW237509   0.062   4.384   4.864 -1.2469  0.7196  0.2656
 8544SOL     OW37510   3.635   0.531  11.440 -0.1275 -0.3307 -0.2212
 8544SOL    HW137511   3.621   0.607  11.497  0.3080 -1.1046  0.9170
 8544SOL    HW237512   3.698   0.561  11.375 -0.4942  0.5031 -0.1968
 8545SOL     OW37513   3.102   0.358  20.507  0.0141  0.4380 -0.2069
 8545SOL    HW137514   3.148   0.376  20.425  0.7521  0.5396  0.2276
 8545SOL    HW237515   3.092   0.444  20.548 -0.5322  0.4111 -0.2845
 8546SOL     OW37516   0.928   4.231  16.872 -0.8754  0.0693 -0.1074
 8546SOL    HW137517   0.963   4.269  16.792  0.8469  0.7281  0.9554
 8546SOL    HW237518   0.945   4.137  16.864 -0.5584  0.1557 -0.4431
 8547SOL     OW37519   3.672   3.370   1.125 -0.4247  0.1524 -0.5685
 8547SOL    HW137520   3.637   3.384   1.037 -1.3171  0.5416 -0.1540
 8547SOL    HW237521   3.755   3.418   1.126  0.6451 -1.6814 -1.9102
 8548SOL     OW37522   4.587   3.005  16.747 -0.2155 -0.1729  0.7047
 8548SOL    HW137523   4.680   2.985  16.757 -0.2156 -0.6435 -0.2638
 8548SOL    HW237524   4.542   2.939  16.800  0.0910  1.1930  2.6639
 8549SOL     OW37525   2.614   2.152   2.982 -0.0379  0.4519 -0.2779
 8549SOL    HW137526   2.529   2.111   2.990  0.5270 -0.6165  0.1734
 8549SOL    HW237527   2.663   2.095   2.923  0.8807  0.2452  0.6812
 8550SOL     OW37528   0.845   0.563   4.664  0.0750 -0.2330  0.1114
 8550SOL    HW137529   0.771   0.587   4.608  0.1455  0.8627  0.5015
 8550SOL    HW237530   0.863   0.471   4.641 -2.2396 -0.8839  0.9434
 8551SOL     OW37531   3.359   1.153  15.909 -0.3490 -0.0278 -0.1333
 8551SOL    HW137532   3.288   1.199  15.865 -0.1325 -0.8231 -1.3219
 8551SOL    HW237533   3.318   1.078  15.950 -0.3772  0.1236  0.1148
 8552SOL     OW37534   4.587   3.448  19.367  0.5516 -0.3295  0.3384
 8552SOL    HW137535   4.585   3.518  19.301 -2.0549  0.2080  1.0102
 8552SOL    HW237536   4.560   3.370  19.320 -1.1257  0.0182  0.7242
 8553SOL     OW37537   2.371   4.357  19.246  0.1266  0.4326  0.3291
 8553SOL    HW137538   2.449   4.392  19.202 -1.1945 -0.3768 -2.7006
 8553SOL    HW237539   2.381   4.262  19.238 -0.4343  0.3037  1.2106
 8554SOL     OW37540   1.487   2.672  17.306 -0.2721  0.1755 -0.1546
 8554SOL    HW137541   1.499   2.617  17.383 -0.1069  0.5681  0.0997
 8554SOL    HW237542   1.493   2.762  17.339  1.9104  0.3316 -0.9785
 8555SOL     OW37543   0.143   0.901  18.963  0.3525  0.2730  0.2123
 8555SOL    HW137544   0.099   0.830  18.915  0.0908  2.7288 -3.1944
 8555SOL    HW237545   0.233   0.872  18.972  0.1000 -0.7738 -0.6427
 8556SOL     OW37546   0.477   1.643  16.733  0.5275  0.6622  1.1401
 8556SOL    HW137547   0.567   1.671  16.749  0.4251  0.5622  1.8757
 8556SOL    HW237548   0.427   1.675  16.808  0.1486 -0.2424  1.2869
 8557SOL     OW37549   3.817   1.099   3.654 -0.3377  0.6965 -0.4931
 8557SOL    HW137550   3.736   1.082   3.606 -0.7100 -0.1340  0.4362
 8557SOL    HW237551   3.811   1.043   3.732  1.8747 -0.6084 -1.2619
 8558SOL     OW37552   3.601   0.544  20.869  0.4031  0.1765 -0.1508
 8558SOL    HW137553   3.652   0.626  20.876  1.0359 -0.2684  0.4675
 8558SOL    HW237554   3.514   0.567  20.900  0.1123  1.0631 -1.6436
 8559SOL     OW37555   1.260   4.357  19.956 -0.0884 -0.5720  0.2504
 8559SOL    HW137556   1.196   4.425  19.978 -2.5335 -2.1664 -2.0809
 8559SOL    HW237557   1.290   4.378  19.868  0.3721 -1.5960  0.1558
 8560SOL     OW37558   1.439   2.255   6.655 -0.3049  0.3036  0.2856
 8560SOL    HW137559   1.526   2.293   6.645 -1.6944  3.6445  0.9787
 8560SOL    HW237560   1.418   2.268   6.748 -0.7490 -2.2457  0.5596
 8561SOL     OW37561   1.005   3.271  19.120 -0.0655  0.1788 -0.1856
 8561SOL    HW137562   1.036   3.345  19.068 -0.2058  0.5456  0.2477
 8561SOL    HW237563   0.909   3.279  19.119 -0.0358  0.6741  0.8319
 8562SOL     OW37564   4.062   4.593  19.179 -0.8535 -0.5884 -0.0276
 8562SOL    HW137565   4.104   4.553  19.255 -1.7796 -0.9118  0.3068
 8562SOL    HW237566   4.052   4.521  19.117 -0.4164 -0.3950 -0.3280
 8563SOL     OW37567   2.960   2.937   0.963  0.3556 -0.3561 -1.2199
 8563SOL    HW137568   2.896   3.008   0.952 -0.0018 -0.6498 -1.0257
 8563SOL    HW237569   2.911   2.857   0.947  0.7710 -0.5603 -1.4717
 8564SOL     OW37570   1.473   0.294  12.307 -0.6293 -0.0990  0.5299
 8564SOL    HW137571   1.517   0.364  12.356 -1.4854 -0.0976  1.3150
 8564SOL    HW237572   1.381   0.323  12.303 -0.8405 -0.8222  0.2201
 8565SOL     OW37573   3.692   1.967  20.118  0.1730  0.9637  0.2623
 8565SOL    HW137574   3.710   2.057  20.091 -1.3487  0.7171 -1.5627
 8565SOL    HW237575   3.773   1.938  20.161  1.5055  2.3773 -1.3082
 8566SOL     OW37576   1.006   3.710  15.687 -0.2270  0.0790  0.2406
 8566SOL    HW137577   0.936   3.658  15.646 -0.9085  1.4948 -0.3828
 8566SOL    HW237578   0.960   3.770  15.745  0.3392  2.5098 -1.8514
 8567SOL     OW37579   3.430   4.097   1.932  0.0657  0.3383  0.1710
 8567SOL    HW137580   3.495   4.106   1.863 -0.3996  0.3395 -0.2725
 8567SOL    HW237581   3.373   4.026   1.903 -0.4627  0.7111  0.2763
 8568SOL     OW37582   2.875   1.575  17.905 -0.7191  0.3773  0.5998
 8568SOL    HW137583   2.838   1.616  17.827 -0.0248  1.5015  0.8538
 8568SOL    HW237584   2.940   1.638  17.937 -0.5015 -0.3855  1.6842
 8569SOL     OW37585   2.841   2.918   5.572 -0.5935  0.2573  0.3502
 8569SOL    HW137586   2.843   2.903   5.667  0.6724 -1.8375 -0.0067
 8569SOL    HW237587   2.933   2.914   5.546 -1.0467 -0.2384 -1.1455
 8570SOL     OW37588   1.191   2.090  19.896 -0.6839 -0.2924  0.5001
 8570SOL    HW137589   1.114   2.145  19.906  0.1244  1.2615 -1.9094
 8570SOL    HW237590   1.265   2.151  19.904  0.2761 -1.5729  1.4719
 8571SOL     OW37591   3.935   2.586  18.773 -0.2408 -0.3462  0.4967
 8571SOL    HW137592   3.913   2.649  18.705 -0.1723 -0.8160  0.0374
 8571SOL    HW237593   4.005   2.532  18.735  0.9455  0.4488  1.5513
 8572SOL     OW37594   4.618   4.401  20.338  0.2277  0.6454  0.5288
 8572SOL    HW137595   4.563   4.480  20.335 -1.8890 -0.8424  0.2240
 8572SOL    HW237596   4.649   4.390  20.248  2.1352  2.2536  0.9738
 8573SOL     OW37597   3.967   1.628  19.226  0.1328 -0.1296  0.4515
 8573SOL    HW137598   3.913   1.615  19.148  0.5710 -2.1349  0.4715
 8573SOL    HW237599   4.054   1.650  19.192  0.1348 -0.2530  0.3755
 8574SOL     OW37600   2.668   1.788  17.595 -0.2902 -0.1075 -0.1666
 8574SOL    HW137601   2.712   1.853  17.650 -0.7115  0.4681 -0.5089
 8574SOL    HW237602   2.603   1.748  17.653 -1.2901  1.0631 -0.4561
 8575SOL     OW37603   0.205   4.463   2.574  0.0236  0.2121  0.1100
 8575SOL    HW137604   0.262   4.456   2.498 -1.2318 -0.1647 -0.8030
 8575SOL    HW237605   0.236   4.395   2.634 -0.1491 -0.6963 -0.8288
 8576SOL     OW37606   4.245   4.114   1.014 -0.2426  0.0946 -0.5148
 8576SOL    HW137607   4.168   4.106   0.957  0.8441 -0.7588 -1.8681
 8576SOL    HW237608   4.265   4.207   1.016 -0.7252  0.2047 -0.9384
 8577SOL     OW37609   0.609   1.314   6.504 -0.2209 -0.2490 -0.3056
 8577SOL    HW137610   0.519   1.344   6.493 -0.8186 -1.9725 -0.1830
 8577SOL    HW237611   0.635   1.283   6.418 -0.5601 -1.9315  0.1840
 8578SOL     OW37612   2.524   4.391  17.994  0.3324 -0.0104  0.1855
 8578SOL    HW137613   2.446   4.362  17.946  0.0100  0.3604  0.4856
 8578SOL    HW237614   2.569   4.449  17.933 -0.0306  0.3884  0.2993
 8579SOL     OW37615   0.478   0.442   7.299  0.4412 -0.2774  0.0872
 8579SOL    HW137616   0.485   0.355   7.261 -1.1422 -0.8925  1.2197
 8579SOL    HW237617   0.508   0.431   7.390  0.1141  0.3278  0.2707
 8580SOL     OW37618   0.802   2.565  17.544  0.5073 -1.0496 -0.3657
 8580SOL    HW137619   0.872   2.605  17.595  1.1090 -1.5116 -0.8268
 8580SOL    HW237620   0.790   2.478  17.582 -0.1301 -0.7970  0.0091
 8581SOL     OW37621   2.588   4.314   1.204 -0.6825 -0.2895 -0.2001
 8581SOL    HW137622   2.611   4.381   1.140 -0.6446 -0.2881 -0.1850
 8581SOL    HW237623   2.652   4.244   1.190 -0.1302  0.0899  0.4280
 8582SOL     OW37624   1.514   0.300   3.860  0.2158  0.2792 -0.1023
 8582SOL    HW137625   1.509   0.237   3.789  0.8657  2.6721 -2.2769
 8582SOL    HW237626   1.424   0.331   3.871 -0.0346 -0.7347  0.7007
 8583SOL     OW37627   4.375   4.451  18.585 -0.4452 -0.2630  0.7216
 8583SOL    HW137628   4.301   4.485  18.635  1.4019  1.3412  2.3901
 8583SOL    HW237629   4.377   4.504  18.505 -0.3174  0.5496  1.2646
 8584SOL     OW37630   1.389   1.300   9.952  0.1037 -0.3816  0.2909
 8584SOL    HW137631   1.364   1.214   9.986 -2.0829 -0.2573 -0.9582
 8584SOL    HW237632   1.366   1.361  10.022  0.1877 -0.6487  0.5511
 8585SOL     OW37633   2.962   0.074  19.162  0.0786  0.3019 -0.3296
 8585SOL    HW137634   2.916   0.046  19.083 -1.6310  0.2079  0.7003
 8585SOL    HW237635   2.951   0.001  19.223  1.2963  0.4274  0.0368
 8586SOL     OW37636   1.577   2.066  21.015 -0.0867  0.2015  0.3371
 8586SOL    HW137637   1.607   2.101  21.099 -0.9707 -0.2196  0.8286
 8586SOL    HW237638   1.632   2.109  20.950  0.7025  0.4219  1.1442
 8587SOL     OW37639   2.304   2.496  20.446 -0.1525 -0.0158 -0.0698
 8587SOL    HW137640   2.312   2.528  20.536 -1.6119 -1.0874  0.4305
 8587SOL    HW237641   2.394   2.494  20.413  0.4720 -0.6794  1.7182
 8588SOL     OW37642   2.399   3.681   9.650 -0.3393 -0.4457 -0.0621
 8588SOL    HW137643   2.346   3.616   9.697  0.2015 -0.5787  0.3726
 8588SOL    HW237644   2.370   3.765   9.686 -2.2118 -0.3545 -1.8336
 8589SOL     OW37645   0.196   2.922  10.573  0.2313 -0.7502  0.0636
 8589SOL    HW137646   0.201   2.907  10.667 -2.0548 -0.8514  0.1604
 8589SOL    HW237647   0.148   3.004  10.563  1.7212  0.0022 -0.9521
 8590SOL     OW37648   4.144   2.317  16.198  0.0698 -0.2264  0.4886
 8590SOL    HW137649   4.103   2.385  16.145  0.2359 -0.7366 -0.2852
 8590SOL    HW237650   4.097   2.320  16.281  0.8212  1.6055  0.8574
 8591SOL     OW37651   4.713   4.661   2.664 -0.2484 -0.0234  0.1868
 8591SOL    HW137652   4.763   4.585   2.695  0.4400 -0.4390 -1.9585
 8591SOL    HW237653   4.769   4.736   2.682  0.2055 -0.2736 -0.2088
 8592SOL     OW37654   4.404   0.994  19.955 -0.6194 -0.0212 -0.2280
 8592SOL    HW137655   4.486   1.030  19.921 -0.0938  0.4813  1.5465
 8592SOL    HW237656   4.396   0.908  19.913  1.1505 -0.3390  0.0620
 8593SOL     OW37657   3.201   2.230   8.671  0.3256 -0.1917  0.2533
 8593SOL    HW137658   3.187   2.219   8.577 -1.6989 -0.6429  0.6079
 8593SOL    HW237659   3.296   2.239   8.681  0.6526 -1.6592 -1.6749
 8594SOL     OW37660   0.968   2.672   3.637 -0.1896 -0.0130  0.4213
 8594SOL    HW137661   1.003   2.610   3.573  0.3902 -0.6182  1.3350
 8594SOL    HW237662   0.903   2.622   3.686  0.4684  0.0203  1.3348
 8595SOL     OW37663   1.810   0.486  16.069 -0.4392 -0.5171 -0.1569
 8595SOL    HW137664   1.843   0.419  16.009 -1.0303  0.3985 -1.4961
 8595SOL    HW237665   1.718   0.464  16.081 -0.1795 -1.0407  0.8676
 8596SOL     OW37666   2.291   0.458   1.163 -0.3288 -0.0397  0.0150
 8596SOL    HW137667   2.217   0.471   1.103 -0.9602  1.1095  1.0578
 8596SOL    HW237668   2.354   0.525   1.138 -0.2641 -0.0603  0.1220
 8597SOL     OW37669   0.081   3.729  18.586 -0.5406  0.5749 -0.2180
 8597SOL    HW137670   0.018   3.801  18.592  0.3116  1.3292 -0.3544
 8597SOL    HW237671   0.133   3.749  18.507 -0.5706 -0.3948 -0.4884
 8598SOL     OW37672   0.091   3.177  10.806 -0.0265  0.1892  0.0339
 8598SOL    HW137673   0.060   3.170  10.896  0.3158 -1.3289  0.0349
 8598SOL    HW237674   0.169   3.232  10.813  0.1798 -0.1818  0.7027
 8599SOL     OW37675   4.770   2.044   2.983 -0.1828  0.6316  0.2182
 8599SOL    HW137676   4.715   2.058   3.060 -0.3556 -1.5929  0.5058
 8599SOL    HW237677   4.716   1.990   2.925  0.2451  1.6597 -1.1331
 8600SOL     OW37678   1.158   4.340  12.291  0.1024  0.1477  0.6181
 8600SOL    HW137679   1.203   4.318  12.209  1.4909 -0.4347  1.5433
 8600SOL    HW237680   1.182   4.431  12.307  0.4454  0.0309  0.7747
 8601SOL     OW37681   2.536   2.334   7.531  0.0060 -0.0626  0.1830
 8601SOL    HW137682   2.584   2.360   7.610 -2.6417  0.2782  1.6618
 8601SOL    HW237683   2.595   2.274   7.486  2.2246  1.0733  1.5574
 8602SOL     OW37684   3.466   3.771  15.989  0.1663 -0.0442  0.5115
 8602SOL    HW137685   3.539   3.760  15.928 -0.6276 -0.9751 -0.2772
 8602SOL    HW237686   3.388   3.776  15.933 -0.4501  0.1741  1.3862
 8603SOL     OW37687   4.098   0.544  18.861 -0.4136 -0.0518  0.0892
 8603SOL    HW137688   4.162   0.473  18.869 -1.9414 -1.4553 -0.0781
 8603SOL    HW237689   4.050   0.523  18.781 -1.0091  1.0595  0.1682
 8604SOL     OW37690   0.001   1.809  16.487  0.7412 -0.7498  0.1273
 8604SOL    HW137691   4.710   1.877  16.488 -0.5398 -2.0112 -0.3824
 8604SOL    HW237692   4.747   1.745  16.552  1.5700 -1.2001  0.0694
 8605SOL     OW37693   1.569   2.007  19.186 -0.0281 -0.3378 -0.3231
 8605SOL    HW137694   1.489   1.955  19.178 -1.0950  1.1355  0.6840
 8605SOL    HW237695   1.539   2.094  19.211  1.9483 -0.0503  1.1373
 8606SOL     OW37696   0.939   0.464  11.947  0.6024 -0.4210  0.0736
 8606SOL    HW137697   0.973   0.402  11.882  0.1565 -0.4471 -0.1334
 8606SOL    HW237698   0.874   0.515  11.899  1.7395  0.9308 -0.0363
 8607SOL     OW37699   4.457   4.763   1.836  0.2699 -0.0469  0.2399
 8607SOL    HW137700   4.431   4.743   1.926 -0.8266 -0.0727 -0.0745
 8607SOL    HW237701   4.388   0.046   1.805  0.6178 -0.0908 -0.6020
 8608SOL     OW37702   1.254   1.420  10.456  0.4589 -0.8702 -0.5991
 8608SOL    HW137703   1.182   1.357  10.448 -0.1195 -0.3796  0.6324
 8608SOL    HW237704   1.250   1.448  10.548  0.0507  1.7339 -1.4118
 8609SOL     OW37705   0.950   2.986   4.588 -0.2501  0.0278 -0.7804
 8609SOL    HW137706   0.983   3.063   4.544 -0.6441  1.0827  0.7673
 8609SOL    HW237707   0.975   2.998   4.680 -1.0972 -1.2454 -0.3784
 8610SOL     OW37708   1.067   1.361   1.011  0.0180 -0.2048  0.3318
 8610SOL    HW137709   1.109   1.293   1.064  2.7580 -0.4089 -2.1216
 8610SOL    HW237710   1.070   1.439   1.067  0.6254 -1.0488  1.4834
 8611SOL     OW37711   2.725   4.082   2.907 -0.2149 -0.2339  0.1780
 8611SOL    HW137712   2.801   4.135   2.883 -0.0315  0.0556  1.3855
 8611SOL    HW237713   2.763   4.006   2.952 -0.6194 -0.2768  0.4399
 8612SOL     OW37714   1.947   3.708   1.836  0.2492 -0.0541 -0.2201
 8612SOL    HW137715   1.970   3.632   1.890  1.0798  0.7466  0.5615
 8612SOL    HW237716   1.854   3.720   1.850  0.2741 -0.4375  0.2872
 8613SOL     OW37717   3.134   0.283   0.769  0.0747  0.3444  0.4201
 8613SOL    HW137718   3.171   0.213   0.714  0.3209 -0.3608  1.4965
 8613SOL    HW237719   3.180   0.362   0.741  0.4506 -0.0762 -0.1563
 8614SOL     OW37720   2.962   1.815   2.591 -0.1624  0.0699 -0.0535
 8614SOL    HW137721   2.977   1.909   2.597 -0.5965  0.2128 -1.1771
 8614SOL    HW237722   2.980   1.793   2.499  0.2322 -0.9922  0.2680
 8615SOL     OW37723   2.680   2.550  16.788 -0.3696 -0.3547 -0.1264
 8615SOL    HW137724   2.775   2.556  16.802 -0.2278 -1.0703 -0.7841
 8615SOL    HW237725   2.671   2.503  16.705 -1.2912  0.1633 -0.3181
 8616SOL     OW37726   3.767   1.757   4.692  0.2067 -0.6783  0.2263
 8616SOL    HW137727   3.852   1.726   4.724  0.8369 -1.4112 -2.1508
 8616SOL    HW237728   3.759   1.719   4.604 -2.0005  0.4528 -0.0665
 8617SOL     OW37729   2.927   1.455  13.794  0.0121 -0.0707 -0.8382
 8617SOL    HW137730   2.924   1.487  13.885  1.2442  1.0496 -1.1979
 8617SOL    HW237731   2.987   1.381  13.797  1.4879  1.0982 -1.0834
 8618SOL     OW37732   0.358   4.201   1.948 -0.2863 -0.3482 -0.0039
 8618SOL    HW137733   0.282   4.260   1.950  0.4796  0.6243  0.5456
 8618SOL    HW237734   0.417   4.240   1.884  0.8797  0.2913  1.4703
 8619SOL     OW37735   0.205   4.364  19.218 -0.2534 -0.0760 -0.7821
 8619SOL    HW137736   0.208   4.314  19.299 -0.0514  2.3062  0.6760
 8619SOL    HW237737   0.273   4.324  19.163 -0.4156 -1.6942  0.1863
 8620SOL     OW37738   3.487   1.881   6.403  0.1123  0.0053  0.3807
 8620SOL    HW137739   3.521   1.947   6.464 -1.9864 -1.3711  3.0619
 8620SOL    HW237740   3.417   1.927   6.356  0.2982  0.4389  0.5244
 8621SOL     OW37741   0.538   3.397  16.367 -0.4793  0.1352 -0.3424
 8621SOL    HW137742   0.568   3.482  16.335  0.4145 -0.2545 -0.5396
 8621SOL    HW237743   0.616   3.356  16.403 -0.7385 -0.9542 -1.0201
 8622SOL     OW37744   1.649   3.016  13.813 -0.0055  0.3667  0.1583
 8622SOL    HW137745   1.675   2.948  13.877 -1.5265 -1.6887 -1.4123
 8622SOL    HW237746   1.622   3.090  13.867  0.6211 -0.6685  1.9022
 8623SOL     OW37747   1.766   4.204   5.622  0.0055  0.3280  0.0775
 8623SOL    HW137748   1.697   4.270   5.622  0.1761  0.5039  1.0404
 8623SOL    HW237749   1.722   4.124   5.593 -0.6971  0.3328  1.1564
 8624SOL     OW37750   4.705   1.380  10.741  0.1350  0.2734  0.1464
 8624SOL    HW137751   4.722   1.291  10.772  1.2442 -0.4440 -2.4969
 8624SOL    HW237752   4.652   1.368  10.662 -2.0502  2.0554  1.3462
 8625SOL     OW37753   2.059   1.184  18.388  0.2157  0.4040  0.6079
 8625SOL    HW137754   2.010   1.253  18.433  0.8337  0.4962  1.1413
 8625SOL    HW237755   2.135   1.168  18.444  0.6355  0.0470 -0.0622
 8626SOL     OW37756   2.218   1.154  15.036  0.2378 -0.4651  0.0872
 8626SOL    HW137757   2.196   1.221  14.971  0.3780  0.5319  1.0708
 8626SOL    HW237758   2.314   1.148  15.033  0.4062  1.2467  1.8654
 8627SOL     OW37759   1.471   0.395   5.346  0.2207  0.3430  0.2330
 8627SOL    HW137760   1.378   0.376   5.354  0.2170  0.7224  1.1370
 8627SOL    HW237761   1.478   0.488   5.370  0.7304  0.5072 -0.5361
 8628SOL     OW37762   2.581   2.212   1.057  0.0391  0.1425 -0.2646
 8628SOL    HW137763   2.521   2.185   0.988 -0.2733  1.9314 -0.6826
 8628SOL    HW237764   2.534   2.281   1.104  0.7473 -0.2104  0.9740
 8629SOL     OW37765   3.800   3.612  13.505 -0.4107 -0.3844  0.4531
 8629SOL    HW137766   3.715   3.602  13.461 -0.4844 -0.6704  0.6623
 8629SOL    HW237767   3.849   3.534  13.479 -0.4266 -0.5165  0.8173
 8630SOL     OW37768   2.786   2.630   7.614 -0.4304  0.3079  0.6528
 8630SOL    HW137769   2.747   2.709   7.577  0.8415  1.4908  1.8618
 8630SOL    HW237770   2.869   2.620   7.568 -0.7845 -0.5636  0.1974
 8631SOL     OW37771   4.111   0.574   5.716 -0.2863 -0.2774  0.1732
 8631SOL    HW137772   4.203   0.591   5.735 -0.3552  2.0069 -1.5484
 8631SOL    HW237773   4.073   0.545   5.799  1.2931  1.6236  1.5250
 8632SOL     OW37774   1.796   0.720   1.702 -0.1323 -0.1736 -0.1284
 8632SOL    HW137775   1.792   0.748   1.794 -0.0935  1.2409 -0.5680
 8632SOL    HW237776   1.882   0.750   1.672 -1.3145  1.8263 -1.4537
 8633SOL     OW37777   3.703   0.063   8.664 -0.2118  0.0742 -0.1984
 8633SOL    HW137778   3.785   0.014   8.655 -0.7366 -0.7262 -0.6490
 8633SOL    HW237779   3.663   0.028   8.743 -1.9457 -2.2145 -2.1041
 8634SOL     OW37780   3.231   2.311   1.189 -0.1674  0.7861 -0.6981
 8634SOL    HW137781   3.169   2.364   1.238 -0.1114 -0.2159  0.4563
 8634SOL    HW237782   3.315   2.355   1.202  0.1173 -0.3638  1.4061
 8635SOL     OW37783   1.190   2.090   3.386  0.3814 -1.2490 -0.3208
 8635SOL    HW137784   1.165   2.028   3.318  0.5900 -3.2137  1.3801
 8635SOL    HW237785   1.233   2.037   3.453  1.6869  0.9115  0.5679
 8636SOL     OW37786   3.033   2.492  16.586 -0.3846 -0.1726 -0.1299
 8636SOL    HW137787   3.096   2.558  16.613  0.1078 -0.0798 -1.4808
 8636SOL    HW237788   2.984   2.534  16.515 -1.4921 -0.4874  0.4605
 8637SOL     OW37789   3.223   3.402  16.726 -0.4848  0.6673  0.0216
 8637SOL    HW137790   3.304   3.407  16.777 -0.1146  1.4080 -0.6379
 8637SOL    HW237791   3.215   3.309  16.703  1.5487  1.0118 -2.1116
 8638SOL     OW37792   1.757   0.254  17.454 -0.5948  0.1310  0.5133
 8638SOL    HW137793   1.703   0.179  17.433 -1.2997  0.9088 -0.4560
 8638SOL    HW237794   1.838   0.239  17.405 -1.2258  0.6341 -0.6900
 8639SOL     OW37795   1.373   1.468   0.829  0.1539 -0.1591 -0.0390
 8639SOL    HW137796   1.447   1.428   0.784  0.7538  1.3148 -0.3437
 8639SOL    HW237797   1.408   1.495   0.914 -0.3321 -0.5388  0.2898
 8640SOL     OW37798   1.540   2.475  15.617  0.6245 -0.4295 -0.2338
 8640SOL    HW137799   1.466   2.420  15.594  0.3998 -0.2716  0.1115
 8640SOL    HW237800   1.509   2.529  15.690  1.3357 -0.9371  0.4419
 8641SOL     OW37801   1.212   4.093  17.651 -0.1583 -0.2325  0.8792
 8641SOL    HW137802   1.200   4.182  17.619 -0.6728 -0.9099 -0.7817
 8641SOL    HW237803   1.127   4.051  17.640  1.1548 -2.1321 -2.0360
 8642SOL     OW37804   4.533   4.338   0.071  0.4169 -0.5715  0.4389
 8642SOL    HW137805   4.466   4.393   0.111 -0.5861 -1.2755 -0.2930
 8642SOL    HW237806   4.490   4.298  21.192  1.3333 -1.8765  0.6129
 8643SOL     OW37807   2.225   4.094  21.122 -0.3273 -0.0194  0.2300
 8643SOL    HW137808   2.201   4.158  21.189 -0.1974  0.4019 -0.1203
 8643SOL    HW237809   2.173   4.016  21.142  0.6555 -0.3280  1.5556
 8644SOL     OW37810   2.413   3.364  12.554  0.1735  0.0751  0.4354
 8644SOL    HW137811   2.394   3.421  12.480  0.6554 -0.2523  0.0624
 8644SOL    HW237812   2.498   3.393  12.587 -0.1314  0.3507  0.9855
 8645SOL     OW37813   1.560   3.674  12.206 -0.2366  0.0408  0.9059
 8645SOL    HW137814   1.606   3.758  12.205 -1.2531  0.6295  2.1956
 8645SOL    HW237815   1.627   3.609  12.187  0.6390  1.1250  0.3086
 8646SOL     OW37816   2.593   4.433   2.508 -0.3685  0.2831  0.4653
 8646SOL    HW137817   2.555   4.474   2.431  0.0234  0.7560  0.5227
 8646SOL    HW237818   2.591   4.339   2.489 -1.1343  0.3442  0.2815
 8647SOL     OW37819   3.137   2.480   3.403 -0.1315  0.0831  0.1994
 8647SOL    HW137820   3.157   2.444   3.489  0.6011 -0.4832 -0.2061
 8647SOL    HW237821   3.216   2.464   3.351 -1.4454 -1.6555 -1.2395
 8648SOL     OW37822   1.003   0.567   5.032  0.0086 -0.1025 -0.0283
 8648SOL    HW137823   0.942   0.513   4.983  0.0804  2.0587 -2.5303
 8648SOL    HW237824   0.947   0.620   5.089 -0.2148 -1.1044  0.6712
 8649SOL     OW37825   4.487   4.657  17.782  0.0206  0.0931  0.0266
 8649SOL    HW137826   4.521   4.734  17.736  1.9416  0.0020  1.3084
 8649SOL    HW237827   4.436   4.693  17.854 -1.6223  0.2094 -1.1862
 8650SOL     OW37828   0.446   4.031   4.399  0.7485  0.0694  0.8900
 8650SOL    HW137829   0.425   3.942   4.373  0.9434  0.3877 -0.3572
 8650SOL    HW237830   0.434   4.032   4.494  2.9064 -1.8631  1.1697
 8651SOL     OW37831   3.008   1.616   1.110  0.2136 -0.6319  0.1491
 8651SOL    HW137832   2.997   1.540   1.167  1.5565 -0.3784  0.7428
 8651SOL    HW237833   3.031   1.578   1.024  1.7680 -0.8547  0.6629
 8652SOL     OW37834   4.087   0.062   1.161 -0.4612 -0.0133 -0.5531
 8652SOL    HW137835   4.139   0.118   1.218 -2.4368  0.8306  0.4304
 8652SOL    HW237836   4.008   0.113   1.142 -1.5156 -1.7882 -1.0012
 8653SOL     OW37837   1.074   4.660  19.596  0.3954 -0.2600 -0.4044
 8653SOL    HW137838   1.007   4.724  19.619  2.0626  1.5929 -0.6610
 8653SOL    HW237839   1.028   4.596  19.542 -1.2306  0.8573 -0.3544
 8654SOL     OW37840   1.446   2.115  16.710  0.4222  0.1969  0.1567
 8654SOL    HW137841   1.409   2.030  16.685 -0.3332  0.8366 -0.8549
 8654SOL    HW237842   1.499   2.142  16.636  0.6126  0.6500  0.4550
 8655SOL     OW37843   2.747   3.154   0.965  0.3168 -0.0072 -0.0263
 8655SOL    HW137844   2.732   3.230   0.908  0.9642  0.3240  0.2436
 8655SOL    HW237845   2.738   3.189   1.053  2.7668  0.2117  0.1353
 8656SOL     OW37846   0.700   2.830   2.639 -0.1712 -0.4313  0.1950
 8656SOL    HW137847   0.748   2.866   2.714  0.5152  1.0097 -0.9433
 8656SOL    HW237848   0.608   2.838   2.663  0.0429  0.0753  0.8540
 8657SOL     OW37849   0.763   3.333   9.817  0.3857 -0.2984 -0.4839
 8657SOL    HW137850   0.750   3.401   9.752 -0.9259  1.0024  1.1265
 8657SOL    HW237851   0.767   3.380   9.900  1.0750 -2.0368  0.4676
 8658SOL     OW37852   0.495   4.064  17.739  0.0888  0.0599  0.3119
 8658SOL    HW137853   0.467   3.978  17.771  0.3530  0.2555  1.0744
 8658SOL    HW237854   0.488   4.058  17.644  0.9803 -1.1227  0.3106
 8659SOL     OW37855   0.747   1.598   1.594  0.2698 -0.0559  0.5229
 8659SOL    HW137856   0.797   1.651   1.657  0.8279 -2.6928  2.2881
 8659SOL    HW237857   0.747   1.510   1.631 -2.7574 -0.7959 -1.2116
 8660SOL     OW37858   4.356   0.336  19.925 -0.2411 -0.1632  0.4085
 8660SOL    HW137859   4.334   0.333  20.018 -1.0651  0.6411  0.2377
 8660SOL    HW237860   4.321   0.255  19.889 -0.8783  0.0272  0.5952
 8661SOL     OW37861   1.185   0.765   4.925 -0.3454  0.2270 -0.4244
 8661SOL    HW137862   1.119   0.705   4.958  1.1125 -1.1288  0.0294
 8661SOL    HW237863   1.136   0.842   4.896 -1.9030  0.0984  1.9099
 8662SOL     OW37864   4.144   4.024  18.983 -0.7707 -0.1299  0.2710
 8662SOL    HW137865   4.113   3.962  19.049 -0.7752  0.0134  0.4015
 8662SOL    HW237866   4.071   4.032  18.921 -1.2842  0.8083  0.9988
 8663SOL     OW37867   2.324   1.680  20.844  0.2370  0.6080  0.2224
 8663SOL    HW137868   2.337   1.675  20.939 -1.8387  0.3096  0.4862
 8663SOL    HW237869   2.246   1.735  20.833  1.2822  1.7785 -1.3627
 8664SOL     OW37870   2.537   0.862  19.805  0.0452 -0.1822  0.0266
 8664SOL    HW137871   2.475   0.847  19.733 -0.7580 -0.4257  0.7755
 8664SOL    HW237872   2.602   0.792  19.795  0.5882  0.4877 -1.1767
 8665SOL     OW37873   3.985   3.832   6.670  0.2866  0.3011 -0.0096
 8665SOL    HW137874   3.948   3.861   6.587  0.4131  0.6753  0.0608
 8665SOL    HW237875   3.925   3.765   6.702  0.7485 -0.5155 -0.8577
 8666SOL     OW37876   1.183   0.785  17.680  0.2467 -0.0810 -0.0606
 8666SOL    HW137877   1.098   0.826  17.664 -0.9051 -2.2786  0.4754
 8666SOL    HW237878   1.236   0.810  17.604 -0.9547  1.1004 -0.5105
 8667SOL     OW37879   0.032   0.762   0.791 -0.6124  0.1020  0.6726
 8667SOL    HW137880   0.097   0.737   0.726 -0.4315 -0.3594  1.0314
 8667SOL    HW237881   0.073   0.742   0.875 -1.7276 -1.4325  0.8595
 8668SOL     OW37882   2.374   3.815   1.842 -0.7236  0.4217  0.3377
 8668SOL    HW137883   2.327   3.774   1.914 -0.6090 -0.7642 -0.2573
 8668SOL    HW237884   2.382   3.907   1.867 -3.2890  0.6111  0.4846
 8669SOL     OW37885   0.696   0.309  14.742 -0.5749  0.2238  0.5263
 8669SOL    HW137886   0.618   0.321  14.797 -1.9275  1.6555 -1.6961
 8669SOL    HW237887   0.673   0.350  14.659  1.5775 -1.7355 -1.0196
 8670SOL     OW37888   1.142   2.320  14.316  0.3420  0.5875 -0.3907
 8670SOL    HW137889   1.160   2.285  14.229  2.1913  0.1810  0.1362
 8670SOL    HW237890   1.172   2.411  14.313 -0.4546  0.8439 -0.4676
 8671SOL     OW37891   4.528   0.645  20.756 -0.0823 -0.0634  0.2863
 8671SOL    HW137892   4.492   0.579  20.816  1.1536 -1.3178 -0.3620
 8671SOL    HW237893   4.591   0.597  20.702 -0.0233  1.4031 -0.9572
 8672SOL     OW37894   3.909   0.574   2.182 -0.1928  0.0485  0.2419
 8672SOL    HW137895   3.867   0.499   2.141  0.4411 -0.1881  0.0280
 8672SOL    HW237896   3.885   0.648   2.127 -1.1431  0.0640  0.6758
 8673SOL     OW37897   0.929   2.311  17.845  0.0517  0.3680 -0.2200
 8673SOL    HW137898   0.979   2.234  17.872 -1.5538 -1.3308 -2.1542
 8673SOL    HW237899   0.991   2.363  17.793  0.7748 -0.1510  0.1226
 8674SOL     OW37900   3.732   3.673   1.685  0.0371 -0.1068 -0.1300
 8674SOL    HW137901   3.737   3.733   1.759  0.8956 -0.2448 -0.0747
 8674SOL    HW237902   3.721   3.730   1.609 -0.3693  0.0599  0.0577
 8675SOL     OW37903   1.885   3.033   2.541  0.9367  0.0108 -0.7040
 8675SOL    HW137904   1.957   3.032   2.604  1.0841  0.5889 -0.8618
 8675SOL    HW237905   1.835   3.112   2.563  1.5780  0.7736 -1.9659
 8676SOL     OW37906   3.354   0.332  19.420  0.0835  0.1694  0.0952
 8676SOL    HW137907   3.294   0.321  19.347  0.5820  1.6019 -0.5244
 8676SOL    HW237908   3.297   0.340  19.497 -0.4310 -1.4096 -0.1268
 8677SOL     OW37909   1.118   1.335   4.222 -0.1824  0.2686 -0.9584
 8677SOL    HW137910   1.048   1.291   4.269  1.3535  1.4055  2.3435
 8677SOL    HW237911   1.085   1.423   4.205 -0.0466  0.4090 -0.4911
 8678SOL     OW37912   3.334   1.621  13.554 -0.2921 -0.0252 -0.5840
 8678SOL    HW137913   3.303   1.695  13.502 -0.8106 -1.0106 -1.6784
 8678SOL    HW237914   3.398   1.659  13.614 -0.5497  1.3091 -1.1561
 8679SOL     OW37915   3.658   4.204  18.451 -0.1211  0.3687  0.2229
 8679SOL    HW137916   3.564   4.196  18.434 -0.2625  4.5743 -0.9253
 8679SOL    HW237917   3.695   4.233  18.368  2.3894 -2.6826  0.2782
 8680SOL     OW37918   4.563   1.703   0.251 -0.0393  0.5593 -0.4154
 8680SOL    HW137919   4.573   1.676   0.159  2.3403 -2.7449  0.8170
 8680SOL    HW237920   4.652   1.725   0.279 -0.5430 -0.0167  1.6030
 8681SOL     OW37921   1.598   0.313  21.163 -0.1049  0.2994 -0.0655
 8681SOL    HW137922   1.652   0.305  21.084  0.7853  0.4189  0.5425
 8681SOL    HW237923   1.560   0.401  21.157  2.2219  1.3699  1.1103
 8682SOL     OW37924   4.705   2.727  19.363  0.6603 -0.2333  0.4395
 8682SOL    HW137925   4.762   2.743  19.438  0.4747  0.9564  0.3349
 8682SOL    HW237926   4.730   2.795  19.300  1.3424 -1.6989 -0.8709
 8683SOL     OW37927   4.479   4.373  16.722  0.2847  0.8322 -0.2409
 8683SOL    HW137928   4.528   4.291  16.729 -1.1831 -0.0772 -0.6892
 8683SOL    HW237929   4.539   4.440  16.756  1.4148 -0.4465  0.2620
 8684SOL     OW37930   4.548   4.399   3.593  0.2063  0.2969  0.4538
 8684SOL    HW137931   4.591   4.481   3.617  0.4149  0.4202 -0.3302
 8684SOL    HW237932   4.575   4.337   3.661  0.9026  0.6030  0.4617
 8685SOL     OW37933   4.686   4.564  20.587 -0.0311  0.1023  0.2259
 8685SOL    HW137934   4.774   4.543  20.619 -0.7919 -1.8054  1.0498
 8685SOL    HW237935   4.674   4.508  20.511  0.3039  1.9213 -1.1731
 8686SOL     OW37936   0.595   1.286  17.262 -0.3748 -0.1264  0.2469
 8686SOL    HW137937   0.644   1.347  17.317  0.7452 -0.4409 -0.4033
 8686SOL    HW237938   0.539   1.239  17.324  2.6964 -2.2147  1.4662
 8687SOL     OW37939   0.461   4.268  16.881  0.0295  0.1578 -0.3698
 8687SOL    HW137940   0.389   4.324  16.911  0.1693 -0.8344  1.8143
 8687SOL    HW237941   0.540   4.315  16.905  0.1220  0.4897 -1.3266
 8688SOL     OW37942   3.539   3.440   8.718  0.4239 -0.2753  0.4643
 8688SOL    HW137943   3.467   3.466   8.775 -0.0734 -0.9131  0.1376
 8688SOL    HW237944   3.500   3.376   8.658  0.5767  1.5311 -1.5866
 8689SOL     OW37945   3.918   0.873  18.690 -0.0997  0.6490  0.5551
 8689SOL    HW137946   3.993   0.823  18.721  0.6231  0.8313 -0.9207
 8689SOL    HW237947   3.954   0.956  18.661 -0.6440  0.1213 -1.6839
 8690SOL     OW37948   4.136   4.493  19.674  0.1779 -0.3827 -0.5918
 8690SOL    HW137949   4.143   4.400  19.651  0.3653 -0.0065 -2.0660
 8690SOL    HW237950   4.138   4.494  19.769 -0.1188 -1.9251 -0.5605
 8691SOL     OW37951   3.126   4.441   1.432  0.1715 -0.3257  0.6209
 8691SOL    HW137952   3.079   4.520   1.459 -1.4396 -0.9670 -0.3160
 8691SOL    HW237953   3.181   4.420   1.507  0.8597  1.8807  0.7449
 8692SOL     OW37954   3.759   1.524  15.728  0.1373  0.3256 -0.2843
 8692SOL    HW137955   3.769   1.579  15.805  3.4814 -0.3122 -0.2822
 8692SOL    HW237956   3.709   1.448  15.759  1.1123  0.2742  1.1389
 8693SOL     OW37957   0.925   1.913   0.719  0.1152  0.0242 -0.0808
 8693SOL    HW137958   0.979   1.972   0.771 -0.6439 -0.3284  1.1229
 8693SOL    HW237959   0.857   1.969   0.681  0.5334  0.2470 -0.4881
 8694SOL     OW37960   1.747   1.461  18.581 -0.6207  0.6287 -0.0153
 8694SOL    HW137961   1.699   1.422  18.508 -0.7045  0.1909  0.2750
 8694SOL    HW237962   1.684   1.520  18.622 -1.2987 -0.9069  1.1401
 8695SOL     OW37963   1.318   2.851   2.687 -0.1864 -0.6608  0.3222
 8695SOL    HW137964   1.322   2.756   2.695 -2.2352 -0.7731  0.0728
 8695SOL    HW237965   1.274   2.866   2.603 -1.4877  0.5008  1.2062
 8696SOL     OW37966   2.953   2.811  20.271  0.2966  0.9503 -0.1864
 8696SOL    HW137967   3.010   2.881  20.239 -0.2601  1.5045  0.0463
 8696SOL    HW237968   2.927   2.839  20.359  1.6904 -0.4872  0.7081
 8697SOL     OW37969   0.901   3.769  17.179  0.2353  0.0768  0.7440
 8697SOL    HW137970   0.839   3.811  17.239  0.2557  0.3780  0.5528
 8697SOL    HW237971   0.854   3.766  17.095  0.6965  0.8033  0.4660
 8698SOL     OW37972   4.477   3.422  15.388 -0.0254 -0.5305  0.0901
 8698SOL    HW137973   4.528   3.476  15.327 -0.1821  0.0589  0.4851
 8698SOL    HW237974   4.420   3.484  15.433  0.7969 -0.8386  1.5552
 8699SOL     OW37975   4.568   3.079  19.528 -0.0075  0.3199  0.6417
 8699SOL    HW137976   4.540   3.165  19.558 -0.2717 -0.1712  1.8022
 8699SOL    HW237977   4.663   3.080  19.535  0.0333  0.7481  0.0298
 8700SOL     OW37978   4.290   0.728   2.474 -0.3041 -0.0119 -0.0505
 8700SOL    HW137979   4.352   0.792   2.509 -0.3277 -0.1023  0.1545
 8700SOL    HW237980   4.215   0.733   2.534 -0.3146 -0.2159 -0.0487
 8701SOL     OW37981   3.756   4.092  18.986 -0.1125 -0.6442  0.0459
 8701SOL    HW137982   3.760   4.075  19.080 -0.0994  0.6935  0.2903
 8701SOL    HW237983   3.685   4.155  18.976 -0.7310 -1.4946 -0.9466
 8702SOL     OW37984   2.362   1.435   1.100  0.2684 -0.4312  0.0067
 8702SOL    HW137985   2.288   1.376   1.085  0.6813 -0.8505 -0.3471
 8702SOL    HW237986   2.439   1.379   1.098  0.6203  0.0469  0.1426
 8703SOL     OW37987   0.049   3.363   5.248 -0.0540 -0.0438  0.7851
 8703SOL    HW137988   0.046   3.440   5.191 -2.4593 -0.4353  0.3894
 8703SOL    HW237989   0.125   3.378   5.305  0.7069  1.6443 -0.6717
 8704SOL     OW37990   0.994   4.484   8.452 -0.0198 -0.4696  0.3060
 8704SOL    HW137991   0.940   4.498   8.375  0.8883  1.8264  0.0857
 8704SOL    HW237992   1.084   4.493   8.421  0.4246 -2.4301  1.0359
 8705SOL     OW37993   3.080   0.756   4.902 -0.0313 -0.0795  0.0390
 8705SOL    HW137994   3.145   0.696   4.865  0.6510  0.8326 -0.2325
 8705SOL    HW237995   3.056   0.716   4.986  1.6019  0.1116  0.5806
 8706SOL     OW37996   3.486   4.317   0.432 -0.4950  0.4081  0.2492
 8706SOL    HW137997   3.449   4.229   0.430  0.5789 -0.0445 -0.0098
 8706SOL    HW237998   3.453   4.355   0.513  0.9612 -1.0868  1.5670
 8707SOL     OW37999   3.693   1.854   5.806  0.0390  0.2451 -0.2302
 8707SOL    HW138000   3.780   1.815   5.813  0.5978  1.7425  1.2034
 8707SOL    HW238001   3.697   1.931   5.863 -2.4933 -0.1768  0.5190
 8708SOL     OW38002   3.712   2.230   4.991  0.5008 -0.1425 -0.2757
 8708SOL    HW138003   3.626   2.272   4.996  0.4820 -0.1498 -0.5249
 8708SOL    HW238004   3.724   2.213   4.898  0.0909 -1.5496 -0.0724
 8709SOL     OW38005   2.318   0.785   1.209 -0.3920  0.5076  0.3956
 8709SOL    HW138006   2.352   0.751   1.292 -2.0638  2.0948  1.7345
 8709SOL    HW238007   2.381   0.851   1.183  0.6269 -0.6504 -0.0584
 8710SOL     OW38008   2.685   3.085  18.602  0.2144  0.4414 -0.0180
 8710SOL    HW138009   2.758   3.027  18.624 -0.9108 -0.4982  1.2803
 8710SOL    HW238010   2.662   3.127  18.684 -0.4522  1.0341 -0.5073
 8711SOL     OW38011   2.216   4.776   4.654  0.0914  0.3703  0.3910
 8711SOL    HW138012   2.229   0.074   4.713  0.2525  0.5392  0.1418
 8711SOL    HW238013   2.265   4.704   4.694  0.7353  0.6605  0.1209
 8712SOL     OW38014   3.343   3.028   3.397 -0.2810 -0.4134  0.2096
 8712SOL    HW138015   3.389   2.967   3.339  0.2938  1.4803 -1.3089
 8712SOL    HW238016   3.269   2.977   3.431  1.5176 -2.6716  0.7201
 8713SOL     OW38017   1.305   2.950   0.381  0.2347 -0.3349 -0.3994
 8713SOL    HW138018   1.337   2.958   0.470  0.4036 -0.6324 -0.4327
 8713SOL    HW238019   1.212   2.927   0.391  0.4972 -1.3717 -0.2921
 8714SOL     OW38020   0.827   3.099   3.107 -0.2541  0.2468 -0.2559
 8714SOL    HW138021   0.879   3.115   3.186 -0.1573 -1.5573  0.0527
 8714SOL    HW238022   0.737   3.090   3.139 -0.2675 -0.1003 -0.3886
 8715SOL     OW38023   2.530   2.952   2.656 -0.0676  0.2613 -0.0714
 8715SOL    HW138024   2.559   3.033   2.613 -0.1367  2.0964  3.3069
 8715SOL    HW238025   2.606   2.923   2.706 -0.8246 -0.4652  0.6488
 8716SOL     OW38026   2.056   3.065   2.260  0.4865  0.0982  0.2182
 8716SOL    HW138027   2.064   3.159   2.242  0.1458 -0.1891 -1.4641
 8716SOL    HW238028   1.981   3.058   2.318 -0.6336  0.6840 -1.1474
 8717SOL     OW38029   2.720   0.669  19.771 -0.1651 -0.5901 -0.3229
 8717SOL    HW138030   2.781   0.612  19.820 -0.5218 -1.3476 -0.7520
 8717SOL    HW238031   2.776   0.713  19.707  0.0628 -0.6975 -0.2006
 8718SOL     OW38032   3.719   2.225   1.127 -0.0661 -0.5352  0.2982
 8718SOL    HW138033   3.671   2.162   1.075  0.7430 -0.0276 -1.0810
 8718SOL    HW238034   3.688   2.310   1.096  2.1469 -0.2055 -1.0021
 8719SOL     OW38035   2.708   4.287   4.960 -0.2312 -0.3262  0.1876
 8719SOL    HW138036   2.692   4.374   4.923 -1.1704 -0.4042  0.4270
 8719SOL    HW238037   2.640   4.232   4.922 -0.8234 -0.5420  1.5673
 8720SOL     OW38038   2.688   2.747  14.535 -0.1677  0.2536 -0.7080
 8720SOL    HW138039   2.645   2.828  14.508 -1.5999 -0.5128 -0.7252
 8720SOL    HW238040   2.664   2.737  14.627 -0.3982 -0.4081 -0.8381
 8721SOL     OW38041   1.278   1.583  15.717  0.0190 -0.3329 -0.2398
 8721SOL    HW138042   1.354   1.608  15.664 -0.3939 -1.6101 -1.4553
 8721SOL    HW238043   1.229   1.664  15.730  0.6788  0.1729 -0.9293
 8722SOL     OW38044   2.010   4.238  15.807 -0.0442  0.1651 -0.8613
 8722SOL    HW138045   2.095   4.235  15.763  1.3056  1.6785  1.6667
 8722SOL    HW238046   2.029   4.218  15.898 -2.6977 -1.6606 -0.7170
 8723SOL     OW38047   3.451   3.799  17.297  0.4761  0.4301  0.0723
 8723SOL    HW138048   3.531   3.748  17.285  0.1198  0.4142 -2.2600
 8723SOL    HW238049   3.473   3.886  17.262 -0.2277  0.7072  0.3215
 8724SOL     OW38050   2.466   2.133   0.526  0.2126 -0.1781  0.3363
 8724SOL    HW138051   2.435   2.155   0.439  0.7815 -0.3689  0.0822
 8724SOL    HW238052   2.544   2.079   0.511  0.6119  0.2239  0.9586
 8725SOL     OW38053   1.029   1.328  15.350  0.1209  0.0482  0.1215
 8725SOL    HW138054   1.005   1.243  15.386 -1.0469  0.6103  0.6907
 8725SOL    HW238055   0.951   1.382  15.364  1.0383  1.3415  0.2034
 8726SOL     OW38056   2.628   2.975   0.707 -0.2866  0.6007 -0.0836
 8726SOL    HW138057   2.711   3.019   0.686  0.2546 -0.4678 -0.2100
 8726SOL    HW238058   2.651   2.912   0.775 -1.5237  2.1439  1.7335
 8727SOL     OW38059   4.687   2.109  15.875 -0.2577  0.4331 -0.5895
 8727SOL    HW138060   4.656   2.060  15.951  0.0898  0.2943 -0.5408
 8727SOL    HW238061   4.608   2.151  15.840 -0.8808 -1.6896 -1.7244
 8728SOL     OW38062   1.369   4.263  17.097  0.1438  0.1305 -0.1763
 8728SOL    HW138063   1.393   4.204  17.027  0.9468  1.0427 -0.6695
 8728SOL    HW238064   1.285   4.300  17.069  0.6105  0.7219 -0.7972
 8729SOL     OW38065   2.813   2.287   5.671 -0.3162  0.4715  0.2756
 8729SOL    HW138066   2.719   2.279   5.651 -0.2869  1.5040 -0.2475
 8729SOL    HW238067   2.834   2.205   5.716 -0.9496 -0.7641 -1.6760
 8730SOL     OW38068   0.310   0.712   7.978 -0.2251  0.3999 -0.3086
 8730SOL    HW138069   0.277   0.773   8.045  0.4722  0.9036 -0.4326
 8730SOL    HW238070   0.346   0.768   7.910 -0.7748 -0.1253 -1.0356
 8731SOL     OW38071   1.272   2.146  17.177 -0.0126  0.5049  0.0457
 8731SOL    HW138072   1.236   2.058  17.192 -0.2439  0.7928  1.2173
 8731SOL    HW238073   1.203   2.205  17.207  1.1410  1.0656  1.6092
 8732SOL     OW38074   0.495   1.434  19.147  0.5862 -0.1745  1.0196
 8732SOL    HW138075   0.528   1.512  19.101  1.0521 -1.1994 -0.3621
 8732SOL    HW238076   0.522   1.361  19.092  0.9315 -1.3775  2.8115
 8733SOL     OW38077   4.009   1.017   4.044 -0.2123  0.5345  0.0585
 8733SOL    HW138078   4.005   1.038   4.138  1.8962 -0.6534  0.4281
 8733SOL    HW238079   4.012   1.102   4.001  0.7177  1.0785  1.1704
 8734SOL     OW38080   4.737   4.512  16.773 -0.7534 -0.8432  0.5426
 8734SOL    HW138081   0.033   4.497  16.833 -1.1647 -2.5585  0.5931
 8734SOL    HW238082   0.003   4.531  16.689 -0.2326 -0.8061  0.8151
 8735SOL     OW38083   3.370   3.171   2.674  0.8394 -0.0998 -0.0550
 8735SOL    HW138084   3.333   3.090   2.640 -1.7616  1.3193 -0.6291
 8735SOL    HW238085   3.359   3.234   2.603  3.8017  0.4635  0.0111
 8736SOL     OW38086   2.067   3.703  16.335 -0.5168  0.5074  0.8320
 8736SOL    HW138087   2.003   3.672  16.272  0.5900  2.0274 -1.0630
 8736SOL    HW238088   2.136   3.636  16.334  1.5854  2.7084 -2.8097
 8737SOL     OW38089   1.263   2.359  19.806  0.3141  0.7525  0.4887
 8737SOL    HW138090   1.201   2.431  19.816  0.6168  0.9427  1.0405
 8737SOL    HW238091   1.282   2.356  19.712 -0.8132  0.4508  0.2781
 8738SOL     OW38092   3.933   0.984   2.688 -0.0680 -0.3765 -0.3669
 8738SOL    HW138093   4.005   1.047   2.686  0.1837 -0.6332  0.8731
 8738SOL    HW238094   3.899   0.989   2.777 -1.2167 -0.6820 -0.7879
 8739SOL     OW38095   0.319   3.898   6.490  0.1082  0.1015  0.2853
 8739SOL    HW138096   0.233   3.911   6.451  0.1293  0.8478  0.4921
 8739SOL    HW238097   0.308   3.925   6.581  0.8869  1.3629  0.0002
 8740SOL     OW38098   2.021   2.208  19.396  0.1013 -0.4114  0.0192
 8740SOL    HW138099   2.026   2.275  19.327 -0.6689 -0.7158 -0.3358
 8740SOL    HW238100   1.951   2.238  19.453  0.8588 -0.0716  0.7683
 8741SOL     OW38101   2.791   3.810  13.823 -0.3696 -0.5171 -0.5221
 8741SOL    HW138102   2.821   3.726  13.857  0.7588  0.0929 -0.0372
 8741SOL    HW238103   2.781   3.795  13.729  1.1874 -0.7780 -0.6388
 8742SOL     OW38104   0.740   2.313   2.055  0.8885  0.2503  0.1604
 8742SOL    HW138105   0.774   2.246   1.997  0.2412  1.1519 -1.2695
 8742SOL    HW238106   0.761   2.396   2.011  0.1696  0.9229  1.0789
 8743SOL     OW38107   0.326   4.096  16.721 -0.2520 -1.3365  0.1737
 8743SOL    HW138108   0.351   4.008  16.747  0.8154 -0.7284  1.2544
 8743SOL    HW238109   0.393   4.152  16.761 -0.8405 -0.0609 -0.6276
 8744SOL     OW38110   2.884   4.445   5.538 -0.2067 -0.1877  0.5313
 8744SOL    HW138111   2.909   4.492   5.618 -0.4292 -0.6042  0.8471
 8744SOL    HW238112   2.936   4.365   5.540  0.3574  0.1675 -0.1362
 8745SOL     OW38113   2.224   0.326  20.708 -0.3461  0.1575  0.1036
 8745SOL    HW138114   2.133   0.312  20.685 -0.4169  1.2574 -0.2955
 8745SOL    HW238115   2.232   0.290  20.796 -0.9744 -0.6450 -0.1689
 8746SOL     OW38116   2.114   0.813  18.558  0.3049 -0.1273 -0.1039
 8746SOL    HW138117   2.019   0.812  18.559  0.3116 -0.8858 -0.3763
 8746SOL    HW238118   2.139   0.849  18.643 -0.2279  0.0757 -0.0386
 8747SOL     OW38119   1.893   3.152  19.067  0.4763 -0.3639 -0.0780
 8747SOL    HW138120   1.902   3.146  19.162 -0.2379 -1.0383 -0.0514
 8747SOL    HW238121   1.982   3.141  19.034  0.7384 -0.0434  0.5206
 8748SOL     OW38122   0.984   2.175  19.668 -0.2733  0.2142  0.4105
 8748SOL    HW138123   0.951   2.194  19.756 -0.8934 -0.6893  0.3747
 8748SOL    HW238124   0.969   2.256  19.619  1.9210  1.3903  1.6825
 8749SOL     OW38125   3.519   2.103  18.090  0.5897  0.3779  0.2760
 8749SOL    HW138126   3.578   2.057  18.150 -2.3544 -0.9722  2.1236
 8749SOL    HW238127   3.520   2.051  18.010  2.1735  0.5387  0.1966
 8750SOL     OW38128   2.434   0.083  12.628 -0.3190  0.4232  0.3141
 8750SOL    HW138129   2.522   0.122  12.631 -0.0254 -0.4554  3.6752
 8750SOL    HW238130   2.445   0.003  12.577  0.8424  0.2607  0.8131
 8751SOL     OW38131   2.746   0.192   3.920 -0.2410 -0.3656 -0.6996
 8751SOL    HW138132   2.729   0.286   3.921 -0.4209 -0.4217  1.7852
 8751SOL    HW238133   2.699   0.160   3.842  2.3547  2.0640 -3.2507
 8752SOL     OW38134   1.296   1.925   3.587  0.3721 -0.1927  0.3290
 8752SOL    HW138135   1.269   1.833   3.592 -0.4271  0.0385  0.2032
 8752SOL    HW238136   1.391   1.921   3.578  0.6656 -0.9356  3.7692
 8753SOL     OW38137   3.354   1.222   1.320  0.3733 -0.1881  0.0070
 8753SOL    HW138138   3.314   1.174   1.247 -0.8425 -1.5752  1.5687
 8753SOL    HW238139   3.307   1.305   1.323 -2.2947 -1.7306  1.7068
 8754SOL     OW38140   3.181   1.714  16.481 -0.1514 -0.4763  0.2710
 8754SOL    HW138141   3.119   1.716  16.554  0.4279  0.6748  0.7325
 8754SOL    HW238142   3.244   1.784  16.500 -0.3528  0.2380 -1.6386
 8755SOL     OW38143   0.697   2.952  16.757 -0.3201 -0.1826 -0.5935
 8755SOL    HW138144   0.677   2.951  16.851  2.0364 -0.6469 -0.0894
 8755SOL    HW238145   0.733   3.039  16.741 -1.2866  0.1066 -1.1834
 8756SOL     OW38146   3.763   3.559  13.782  1.3241  0.1909  0.1139
 8756SOL    HW138147   3.770   3.615  13.704  0.7388  0.0816 -0.0166
 8756SOL    HW238148   3.675   3.522  13.777  1.4008 -0.0630  0.6644
 8757SOL     OW38149   1.008   4.330  20.406 -0.7921 -0.2378  0.5529
 8757SOL    HW138150   1.003   4.234  20.396  2.7992 -0.3766  0.1415
 8757SOL    HW238151   1.066   4.343  20.481 -3.2944  1.5754  2.1744
 8758SOL     OW38152   2.419   0.493   5.046  0.0667 -0.1191 -0.6361
 8758SOL    HW138153   2.433   0.457   5.134 -0.0977  1.3363 -0.0112
 8758SOL    HW238154   2.324   0.502   5.038  0.2253  2.1354 -0.0019
 8759SOL     OW38155   2.079   2.530  18.131 -0.5234 -0.5831  0.2149
 8759SOL    HW138156   2.013   2.571  18.187 -0.1938 -1.1616  1.0348
 8759SOL    HW238157   2.082   2.439  18.161  0.0100 -0.7730 -0.4147
 8760SOL     OW38158   0.958   4.540   2.958 -0.9373 -0.7656  0.2289
 8760SOL    HW138159   0.937   4.470   3.020 -1.1017 -0.2645  0.7452
 8760SOL    HW238160   0.885   4.602   2.967  0.2276  0.4696  1.2573
 8761SOL     OW38161   1.440   2.218   7.861  0.2113  0.0105 -0.6939
 8761SOL    HW138162   1.496   2.212   7.784 -1.3699 -2.1152 -1.6721
 8761SOL    HW238163   1.388   2.298   7.846  0.5304  0.0823 -1.4197
 8762SOL     OW38164   3.190   0.140  11.931 -0.2824  0.1234 -0.2191
 8762SOL    HW138165   3.230   0.090  12.003 -0.4990  0.6711  0.2750
 8762SOL    HW238166   3.126   0.197  11.973  1.0799  1.9518 -0.6291
 8763SOL     OW38167   3.987   2.647   6.116 -0.2695  0.0496  0.7404
 8763SOL    HW138168   3.974   2.624   6.024 -0.6164  0.7504  0.6204
 8763SOL    HW238169   4.002   2.562   6.160  1.9066 -0.0978 -0.2881
 8764SOL     OW38170   3.827   4.613   1.370 -0.3254  0.1413  0.5123
 8764SOL    HW138171   3.762   4.565   1.422 -1.3199  0.8781 -0.0638
 8764SOL    HW238172   3.794   4.610   1.281  1.6836 -1.6231 -0.1888
 8765SOL     OW38173   4.105   3.462  19.121 -0.1387 -0.1188 -0.5810
 8765SOL    HW138174   4.114   3.391  19.058 -1.4260 -1.3071  0.5809
 8765SOL    HW238175   4.024   3.507  19.095 -1.1457 -1.1425  0.7433
 8766SOL     OW38176   3.824   3.772  20.236 -0.4081  0.0638  0.2406
 8766SOL    HW138177   3.762   3.843  20.252 -0.3139  0.4430 -1.0160
 8766SOL    HW238178   3.777   3.712  20.179 -0.1846 -0.4412  0.5955
 8767SOL     OW38179   1.633   1.709  18.611  0.0560  0.0095  0.0256
 8767SOL    HW138180   1.566   1.719  18.678  1.5755  0.1092  1.5366
 8767SOL    HW238181   1.712   1.748  18.650  0.9433 -0.0058 -1.7740
 8768SOL     OW38182   0.532   4.324   1.783 -0.1658 -0.2044  0.8770
 8768SOL    HW138183   0.451   4.372   1.766 -0.3381 -1.2988 -1.4123
 8768SOL    HW238184   0.595   4.359   1.720 -0.1224 -2.5159 -0.3944
 8769SOL     OW38185   2.681   1.894  12.628 -0.1966  0.1236  0.1921
 8769SOL    HW138186   2.631   1.892  12.546 -0.0217  2.0514  0.0331
 8769SOL    HW238187   2.615   1.903  12.696 -0.4317 -2.8978  0.3453
 8770SOL     OW38188   2.234   3.087  15.679 -0.3256 -0.1564 -0.6689
 8770SOL    HW138189   2.233   3.151  15.749  1.7853 -0.2995 -0.4994
 8770SOL    HW238190   2.240   3.003  15.723 -0.8329 -0.3434 -0.9578
 8771SOL     OW38191   2.739   2.610   9.144 -0.5115 -0.0679 -0.3213
 8771SOL    HW138192   2.728   2.690   9.093  0.9075  1.0034  1.0464
 8771SOL    HW238193   2.652   2.592   9.180 -0.5857  1.4551  0.2545
 8772SOL     OW38194   3.586   2.313  18.997 -0.1280  0.0266  0.1758
 8772SOL    HW138195   3.522   2.298  19.066 -1.1602 -1.5583 -1.1265
 8772SOL    HW238196   3.627   2.397  19.020  0.0478 -0.8763  3.0787
 8773SOL     OW38197   2.361   2.604  15.510 -0.7153 -0.2811  0.5345
 8773SOL    HW138198   2.324   2.655  15.437  0.0627 -0.5477 -0.0554
 8773SOL    HW238199   2.302   2.620  15.583  0.5704  3.0138  0.8664
 8774SOL     OW38200   1.575   4.540   3.905 -0.5120  0.1874  0.0071
 8774SOL    HW138201   1.525   4.508   3.829 -1.1272 -1.0897  0.9599
 8774SOL    HW238202   1.623   4.616   3.871  0.2627 -1.2041 -2.0070
 8775SOL     OW38203   4.577   1.767  20.851 -0.1834 -0.0837 -0.1652
 8775SOL    HW138204   4.608   1.703  20.787  0.5987  0.5224 -0.3946
 8775SOL    HW238205   4.569   1.718  20.933  2.0720 -0.0802  0.0677
 8776SOL     OW38206   3.935   0.303  17.770 -0.4919 -0.2185 -0.4226
 8776SOL    HW138207   3.862   0.362  17.788  0.8311  0.9790  1.0786
 8776SOL    HW238208   3.912   0.222  17.816 -0.5037  0.4237  0.7020
 8777SOL     OW38209   0.320   4.010   2.922 -0.2132  0.2757 -0.1174
 8777SOL    HW138210   0.349   3.970   2.841 -0.9736  2.6573 -1.5598
 8777SOL    HW238211   0.227   3.988   2.927 -0.5074  1.4053 -0.6382
 8778SOL     OW38212   4.498   1.997   4.891 -0.1594  0.4633 -0.0376
 8778SOL    HW138213   4.504   2.066   4.824 -0.4848 -0.8714 -1.4414
 8778SOL    HW238214   4.568   2.017   4.953 -0.2629  2.0736 -0.4322
 8779SOL     OW38215   2.862   2.339   4.892  0.1097 -0.3877  0.4902
 8779SOL    HW138216   2.782   2.378   4.856  0.2970 -0.4926 -0.0488
 8779SOL    HW238217   2.932   2.379   4.840  0.4868  0.7128  1.8625
 8780SOL     OW38218   4.086   0.396  19.265 -0.2233 -0.0561 -0.1369
 8780SOL    HW138219   4.060   0.306  19.245 -1.2105  0.0598  0.6795
 8780SOL    HW238220   4.182   0.393  19.266 -0.2730 -1.2482  0.6380
 8781SOL     OW38221   0.705   0.564  15.021  0.3443  0.4271  0.0569
 8781SOL    HW138222   0.642   0.509  14.974  0.7721 -0.8093  0.9254
 8781SOL    HW238223   0.783   0.509  15.030  0.5763  0.9718  1.4072
 8782SOL     OW38224   0.818   4.774   1.488 -0.2850  0.3853  0.8413
 8782SOL    HW138225   0.733   0.029   1.457 -0.5167 -0.7836  0.2825
 8782SOL    HW238226   0.800   4.733   1.572 -0.0525  1.3668  1.3686
 8783SOL     OW38227   3.049   3.774  16.680  0.2576  0.6107 -0.1497
 8783SOL    HW138228   3.115   3.840  16.701  0.0931  0.8979 -0.5481
 8783SOL    HW238229   3.054   3.711  16.753 -0.2806  1.5938  0.7349
 8784SOL     OW38230   1.612   4.158  20.541 -0.3078 -0.1470  0.3923
 8784SOL    HW138231   1.683   4.096  20.554 -0.4491 -0.0571  1.5511
 8784SOL    HW238232   1.643   4.214  20.470  0.6668 -0.2758  0.7090
 8785SOL     OW38233   3.940   3.696   3.342 -0.0347  0.2766  0.1069
 8785SOL    HW138234   3.867   3.714   3.401  1.9720  1.0551  2.3597
 8785SOL    HW238235   3.975   3.782   3.321  1.0186 -0.1751  0.0141
 8786SOL     OW38236   0.129   2.290  17.253  0.0349  0.4637  0.1552
 8786SOL    HW138237   0.061   2.236  17.292  0.6463  0.6187  1.4214
 8786SOL    HW238238   0.203   2.230  17.241 -0.8277 -0.0688 -2.5928
 8787SOL     OW38239   2.834   2.972  10.481 -0.1248 -0.1243 -0.3480
 8787SOL    HW138240   2.874   2.929  10.405  0.5044  0.6585 -0.4522
 8787SOL    HW238241   2.746   2.996  10.451  0.5934  1.3803 -1.2523
 8788SOL     OW38242   2.846   2.968  10.183 -0.4975  0.6099 -0.1504
 8788SOL    HW138243   2.849   2.874  10.164  0.6035  0.5565  0.2645
 8788SOL    HW238244   2.756   2.994  10.164 -0.3548 -0.1903 -1.9344
 8789SOL     OW38245   0.249   2.632  19.799 -0.0985  0.1836  0.2203
 8789SOL    HW138246   0.215   2.719  19.778 -2.3760 -0.4313  1.3447
 8789SOL    HW238247   0.245   2.584  19.716 -0.2636  0.6671 -0.0551
 8790SOL     OW38248   0.431   1.547  16.493 -0.0217 -0.0808  0.0221
 8790SOL    HW138249   0.429   1.604  16.569 -0.1879  0.4984 -0.4099
 8790SOL    HW238250   0.396   1.463  16.524 -1.6029  0.6377  0.1909
 8791SOL     OW38251   0.834   2.861  20.172 -0.2541 -0.0625 -0.2096
 8791SOL    HW138252   0.901   2.795  20.157 -0.3989 -0.1777 -0.3496
 8791SOL    HW238253   0.797   2.839  20.257 -1.4024 -1.1169 -0.9716
 8792SOL     OW38254   2.002   2.143  13.675  0.5549  0.3199  0.1691
 8792SOL    HW138255   1.911   2.147  13.707  0.2228 -0.2251 -0.7160
 8792SOL    HW238256   2.021   2.049  13.672  1.6619  0.4891  1.8244
 8793SOL     OW38257   4.041   2.113   2.144  0.1707 -0.2060  0.1932
 8793SOL    HW138258   3.988   2.157   2.211  2.3607  2.0043  0.4754
 8793SOL    HW238259   4.004   2.142   2.061  0.5495  0.8362  0.3940
 8794SOL     OW38260   1.157   1.821   3.982 -0.0916  0.2634 -0.1190
 8794SOL    HW138261   1.134   1.896   3.928  1.6214 -0.1908 -1.4747
 8794SOL    HW238262   1.083   1.761   3.974  1.0647 -0.6952 -3.5588
 8795SOL     OW38263   2.093   3.934   2.069  0.2451  0.1031  0.4787
 8795SOL    HW138264   2.129   3.846   2.082 -0.4336 -0.0031  1.5825
 8795SOL    HW238265   2.023   3.922   2.005 -0.2931 -0.2716  1.1294
 8796SOL     OW38266   1.029   1.672  19.198 -0.1020 -0.1917 -0.3227
 8796SOL    HW138267   1.028   1.728  19.120 -2.8685 -0.1529 -0.2363
 8796SOL    HW238268   1.009   1.584  19.164 -0.2284 -0.3661  0.2141
 8797SOL     OW38269   1.866   2.187   2.128  0.0325 -0.6952 -0.7413
 8797SOL    HW138270   1.874   2.224   2.040  0.0022  2.7708  0.6954
 8797SOL    HW238271   1.923   2.242   2.182  0.4331 -3.1204  1.3084
 8798SOL     OW38272   2.612   3.527  15.290  0.0171 -0.2632  0.2783
 8798SOL    HW138273   2.619   3.613  15.332 -1.7006  0.4503 -0.9134
 8798SOL    HW238274   2.550   3.479  15.344  1.3556 -0.9234  1.2291
 8799SOL     OW38275   3.957   2.023   5.001 -0.4330  0.0512  0.1428
 8799SOL    HW138276   4.037   2.067   5.031  0.5607 -1.3946 -0.3676
 8799SOL    HW238277   3.893   2.093   4.990  0.9302  1.2737  0.0455
 8800SOL     OW38278   4.643   3.712   2.001 -0.5141 -0.0294  0.0291
 8800SOL    HW138279   4.648   3.730   2.095  1.1832  0.4884 -0.1550
 8800SOL    HW238280   4.729   3.676   1.979 -1.7890 -2.5424 -0.8249
 8801SOL     OW38281   4.467   1.844   5.757  0.3288 -0.6696  1.0811
 8801SOL    HW138282   4.559   1.872   5.760  0.5531 -1.2714 -0.1272
 8801SOL    HW238283   4.464   1.767   5.814  0.4992 -0.4398  1.4027
 8802SOL     OW38284   0.181   2.843  19.143 -0.1330  0.3030  0.5515
 8802SOL    HW138285   0.200   2.756  19.178  0.7134  1.1995  2.3094
 8802SOL    HW238286   0.264   2.890  19.148  0.4061 -0.1241 -4.2655
 8803SOL     OW38287   4.067   4.637   4.829 -0.2048 -0.0502 -0.0700
 8803SOL    HW138288   4.070   4.733   4.826  0.4242 -0.0744 -0.2451
 8803SOL    HW238289   4.069   4.616   4.922 -1.3571  0.1397 -0.0037
 8804SOL     OW38290   0.572   0.481   5.911 -0.2839  0.3857 -0.1015
 8804SOL    HW138291   0.613   0.533   5.980  1.0278  0.2295 -0.7598
 8804SOL    HW238292   0.594   0.390   5.934 -2.2040  0.1463  0.8129
 8805SOL     OW38293   3.641   0.727  20.505  0.9064  0.3060 -0.0156
 8805SOL    HW138294   3.641   0.639  20.544  2.1803  1.3410  2.3592
 8805SOL    HW238295   3.561   0.731  20.454  1.6968 -2.8829 -1.5252
 8806SOL     OW38296   4.425   0.096  12.953  0.6929 -0.4873  0.6563
 8806SOL    HW138297   4.374   0.041  13.013 -2.8623 -0.5865 -2.5010
 8806SOL    HW238298   4.451   0.171  13.006 -1.4593 -1.1513  2.6549
 8807SOL     OW38299   4.497   4.344  16.343 -0.3818 -0.4816  0.2508
 8807SOL    HW138300   4.435   4.285  16.386 -0.1348 -0.3705  0.7608
 8807SOL    HW238301   4.577   4.335  16.394 -0.9139  1.7474  1.4876
 8808SOL     OW38302   3.006   1.494  14.981 -0.4228  0.2638 -0.2548
 8808SOL    HW138303   3.060   1.555  15.031  0.4092 -0.9105  0.2988
 8808SOL    HW238304   2.975   1.545  14.906 -1.2066  1.8621  1.1621
 8809SOL     OW38305   1.219   3.665   0.349  0.3547  0.0051 -0.4142
 8809SOL    HW138306   1.300   3.702   0.314  1.2147 -0.5057  1.0147
 8809SOL    HW238307   1.205   3.713   0.431  1.5935 -3.0188  1.5580
 8810SOL     OW38308   4.252   1.909   4.934 -0.0550  0.2916  0.4002
 8810SOL    HW138309   4.194   1.958   4.876 -0.4924  2.0026  2.2827
 8810SOL    HW238310   4.340   1.931   4.904 -0.2924  0.7159  0.0214
 8811SOL     OW38311   3.743   2.823   8.394  0.2249 -0.2857  0.0077
 8811SOL    HW138312   3.684   2.882   8.440  1.0118  0.6050 -0.1318
 8811SOL    HW238313   3.776   2.764   8.462 -2.1219 -1.8555 -0.2071
 8812SOL     OW38314   4.631   3.604  16.592 -0.0800  0.0456 -0.5316
 8812SOL    HW138315   4.554   3.652  16.622 -0.7204 -1.6545  0.5440
 8812SOL    HW238316   4.597   3.524  16.553  1.1739 -1.1666  0.8235
 8813SOL     OW38317   2.170   1.995  18.200  0.5467 -0.0122 -0.1140
 8813SOL    HW138318   2.107   1.930  18.168  0.0290  0.7279 -0.5980
 8813SOL    HW238319   2.255   1.954  18.188  0.3093 -0.0169 -1.7838
 8814SOL     OW38320   0.328   3.769   2.363 -0.5138  0.3985  0.0182
 8814SOL    HW138321   0.417   3.804   2.375 -0.3854  0.4116 -1.0073
 8814SOL    HW238322   0.272   3.832   2.408  0.0905 -0.1540  1.5745
 8815SOL     OW38323   4.683   2.013  20.882  0.1049  0.0466  0.0955
 8815SOL    HW138324   4.685   2.063  20.800  0.9575  0.1942  0.2044
 8815SOL    HW238325   4.665   1.923  20.855  2.1389 -0.2124 -0.3924
 8816SOL     OW38326   2.842   0.081   2.601 -0.6391 -0.2358 -0.3497
 8816SOL    HW138327   2.791   0.162   2.611  2.0126  1.3400  0.4075
 8816SOL    HW238328   2.802   0.020   2.663 -0.4418  1.5663  1.5604
 8817SOL     OW38329   1.111   2.037  17.701  0.2863 -0.1954 -0.2646
 8817SOL    HW138330   1.197   1.998  17.711  0.2039 -0.2184  0.3308
 8817SOL    HW238331   1.083   2.057  17.790 -1.4415 -2.6434 -0.2347
 8818SOL     OW38332   1.644   2.108   0.626  0.4002 -0.2730 -0.3106
 8818SOL    HW138333   1.662   2.016   0.644  0.8055 -0.8228 -3.5039
 8818SOL    HW238334   1.548   2.114   0.627  0.3550 -0.8978 -0.9493
 8819SOL     OW38335   4.358   0.230  18.592 -0.7040  0.0959 -0.5768
 8819SOL    HW138336   4.305   0.264  18.665 -0.1133  1.3647 -0.7343
 8819SOL    HW238337   4.352   0.297  18.524  2.6154  1.1238  0.1151
 8820SOL     OW38338   3.273   3.814  13.645  0.3051 -0.4159  0.2121
 8820SOL    HW138339   3.235   3.790  13.729 -0.4452 -0.9290 -0.2768
 8820SOL    HW238340   3.305   3.731  13.609 -0.3838 -0.3594 -0.5199
 8821SOL     OW38341   3.578   2.432   0.966 -0.0648  0.3943  0.0604
 8821SOL    HW138342   3.640   2.500   0.943 -2.4391  2.0950 -1.2763
 8821SOL    HW238343   3.497   2.455   0.919 -1.5972 -1.9844  1.4940
 8822SOL     OW38344   2.971   4.647   7.574  0.3934 -0.1218 -0.3444
 8822SOL    HW138345   2.909   4.663   7.645 -0.6059  0.2532 -1.3111
 8822SOL    HW238346   2.955   4.556   7.548 -0.6813  0.4206 -1.5308
 8823SOL     OW38347   1.324   1.862   5.237 -0.0322 -0.4217  0.8541
 8823SOL    HW138348   1.403   1.848   5.185  0.2371  1.6107  0.7273
 8823SOL    HW238349   1.354   1.860   5.328  0.4230  1.9364  0.7649
 8824SOL     OW38350   0.663   0.868  18.640 -0.1308  0.0786  0.0723
 8824SOL    HW138351   0.722   0.795  18.619 -0.5650 -0.4289  0.6015
 8824SOL    HW238352   0.584   0.850  18.590 -0.5116 -0.2052  0.7776
 8825SOL     OW38353   0.094   2.146  21.088  0.2158 -0.2091 -0.4588
 8825SOL    HW138354   0.087   2.241  21.095  0.4900 -0.2315  0.1474
 8825SOL    HW238355   0.030   2.122  21.020  0.2708  0.4207 -0.7322
 8826SOL     OW38356   0.654   1.797   4.667 -0.2643  0.2556  0.3576
 8826SOL    HW138357   0.691   1.749   4.592 -2.1367  0.1021 -0.4688
 8826SOL    HW238358   0.653   1.733   4.738 -0.4645 -0.2249 -0.0722
 8827SOL     OW38359   3.222   0.299  20.239  0.0147 -0.0866  0.4758
 8827SOL    HW138360   3.299   0.343  20.275 -0.2882 -0.8911  2.0691
 8827SOL    HW238361   3.257   0.221  20.196  0.0805 -0.4381  1.1773
 8828SOL     OW38362   1.077   2.523  18.338  0.1909  0.4884 -0.0321
 8828SOL    HW138363   1.062   2.468  18.414  0.2385  0.2638 -0.1846
 8828SOL    HW238364   1.171   2.514  18.320 -0.1002 -0.6108 -1.0026
 8829SOL     OW38365   4.651   0.261  19.137  0.1419  0.0481 -0.0595
 8829SOL    HW138366   4.616   0.334  19.188  3.0111  0.7142  0.9894
 8829SOL    HW238367   4.698   0.207  19.202  1.2111 -0.7185 -1.4630
 8830SOL     OW38368   0.394   3.052   6.228  0.3660  0.8828 -0.2672
 8830SOL    HW138369   0.358   3.011   6.150 -0.3040  1.8391 -0.4531
 8830SOL    HW238370   0.323   3.106   6.263 -0.0833 -1.3169  2.2621
 8831SOL     OW38371   2.093   3.377  14.366 -0.7773  0.4896  0.3949
 8831SOL    HW138372   2.059   3.445  14.308 -1.9300 -0.8922 -0.5281
 8831SOL    HW238373   2.021   3.316  14.378  0.7315 -1.3701  0.0493
 8832SOL     OW38374   1.709   2.274  18.684 -0.3806 -0.2299 -0.0032
 8832SOL    HW138375   1.685   2.340  18.618  1.1390 -0.2277 -0.5594
 8832SOL    HW238376   1.740   2.199  18.633  1.1083 -0.1089  0.7223
 8833SOL     OW38377   2.511   2.113   4.850 -0.1654 -0.3861  0.1457
 8833SOL    HW138378   2.589   2.085   4.898 -1.0126 -0.3387  1.5449
 8833SOL    HW238379   2.497   2.203   4.877 -1.9747 -1.0790  1.5573
 8834SOL     OW38380   2.712   3.140   5.862  0.1993  0.2237  0.3529
 8834SOL    HW138381   2.724   3.083   5.938  0.3996  1.0904  0.9747
 8834SOL    HW238382   2.800   3.153   5.828  0.1124 -0.1406 -0.0179
 8835SOL     OW38383   2.498   2.459  14.890 -0.5296 -0.2062 -0.1903
 8835SOL    HW138384   2.464   2.371  14.906  0.3260 -0.3473  0.8975
 8835SOL    HW238385   2.425   2.517  14.909 -0.5994 -0.5944  0.7089
 8836SOL     OW38386   2.138   0.066  15.514  0.1707 -0.5288  0.1510
 8836SOL    HW138387   2.098   0.020  15.440 -0.8000 -0.5351  0.6753
 8836SOL    HW238388   2.067   0.120  15.550  0.7483 -0.2117  0.8266
 8837SOL     OW38389   2.510   2.808   1.157  0.6615  0.2645  0.7589
 8837SOL    HW138390   2.551   2.739   1.209 -0.6356 -0.7356  0.4236
 8837SOL    HW238391   2.423   2.775   1.136 -0.1171  2.1786  0.9764
 8838SOL     OW38392   2.567   2.964  14.402  0.6274  0.1196 -0.4776
 8838SOL    HW138393   2.532   2.907  14.333  2.5305 -0.6095 -0.8236
 8838SOL    HW238394   2.566   3.051  14.363 -0.6457  0.0620 -0.5659
 8839SOL     OW38395   4.132   3.589   1.809  0.1585  0.7715 -0.2934
 8839SOL    HW138396   4.184   3.663   1.776  4.2325 -3.2761 -2.9103
 8839SOL    HW238397   4.192   3.543   1.868 -2.2295 -0.7252  0.9222
 8840SOL     OW38398   4.500   3.353  18.204 -0.8021 -0.0899 -0.3482
 8840SOL    HW138399   4.581   3.319  18.242 -2.1884 -0.3637  2.3635
 8840SOL    HW238400   4.434   3.287  18.226 -1.7931  0.2575 -2.3386
 8841SOL     OW38401   0.630   2.755   2.925 -0.0707  0.0800 -0.1072
 8841SOL    HW138402   0.605   2.675   2.971  0.9523  0.1468  0.5584
 8841SOL    HW238403   0.563   2.766   2.857  0.2826 -1.8015 -0.7393
 8842SOL     OW38404   2.412   0.539  16.341 -0.0716  0.4982 -0.4084
 8842SOL    HW138405   2.414   0.634  16.329  0.9644  0.4029 -1.0223
 8842SOL    HW238406   2.434   0.526  16.433 -2.0652  0.9462  0.1249
 8843SOL     OW38407   4.285   1.226   5.365 -0.8031 -0.0665  0.1579
 8843SOL    HW138408   4.323   1.138   5.367  0.7955  0.6397  0.5089
 8843SOL    HW238409   4.348   1.281   5.411 -1.0631  1.5548 -1.4381
 8844SOL     OW38410   3.730   4.640  17.483 -0.1485 -0.3633 -0.2281
 8844SOL    HW138411   3.818   4.676  17.494 -0.3350  0.1122 -0.2978
 8844SOL    HW238412   3.709   4.601  17.568  0.0873 -0.3882 -0.1807
 8845SOL     OW38413   0.596   4.121   1.245  0.5441  0.0216 -0.0314
 8845SOL    HW138414   0.540   4.161   1.179  0.2567 -1.9226 -0.9765
 8845SOL    HW238415   0.674   4.094   1.197 -0.0710 -2.2585  0.2166
 8846SOL     OW38416   4.587   4.130   0.584  0.1197  0.7220  0.0971
 8846SOL    HW138417   4.586   4.224   0.603  1.0546  1.2204 -2.3732
 8846SOL    HW238418   4.624   4.123   0.496 -0.0305 -1.9563  0.2361
 8847SOL     OW38419   2.689   2.536  18.759 -0.9502 -0.2334  0.1695
 8847SOL    HW138420   2.728   2.596  18.823 -2.4124  0.1312  0.7160
 8847SOL    HW238421   2.738   2.550  18.679  0.0224  0.2601  0.8595
 8848SOL     OW38422   2.257   2.551   4.193  0.1518 -0.4538 -1.0645
 8848SOL    HW138423   2.309   2.483   4.151  1.6004 -0.0434  0.0342
 8848SOL    HW238424   2.294   2.633   4.160  0.1978 -0.1627 -0.2857
 8849SOL     OW38425   1.398   4.722  16.746 -0.4042 -0.0019 -0.1947
 8849SOL    HW138426   1.321   4.665  16.738  0.7149 -1.1707 -2.9289
 8849SOL    HW238427   1.400   4.747  16.838 -2.1922 -2.5939  0.5564
 8850SOL     OW38428   0.137   0.520   6.127  0.5796 -0.3171 -0.2506
 8850SOL    HW138429   0.161   0.571   6.204  0.1989  0.2834 -0.5339
 8850SOL    HW238430   0.193   0.555   6.057 -0.0533  0.0729 -0.5653
 8851SOL     OW38431   1.374   3.894  15.018  0.4378 -0.4848 -0.6615
 8851SOL    HW138432   1.303   3.833  15.039 -0.6026  1.6820  2.2264
 8851SOL    HW238433   1.447   3.866  15.074  0.3365  0.1781 -0.1941
 8852SOL     OW38434   2.950   2.640   0.059  0.0940  0.2478 -0.3986
 8852SOL    HW138435   2.926   2.579  21.185 -2.0213 -1.1923  1.5636
 8852SOL    HW238436   3.038   2.670   0.037 -0.8139  0.2309 -3.9972
 8853SOL     OW38437   3.371   2.456   0.171  0.1389  0.6729  0.7152
 8853SOL    HW138438   3.456   2.498   0.177  0.0864  0.6593  1.6212
 8853SOL    HW238439   3.372   2.389   0.240  0.1028 -0.5906 -0.5055
 8854SOL     OW38440   0.273   0.500   1.947 -0.0727  0.3158  0.3552
 8854SOL    HW138441   0.219   0.467   1.875 -1.0474 -0.1488  1.2998
 8854SOL    HW238442   0.363   0.489   1.917 -0.4661 -0.4259 -0.5531
 8855SOL     OW38443   4.279   3.191  17.090  0.6507  0.3945  0.1471
 8855SOL    HW138444   4.366   3.154  17.072  0.7447  0.3781  0.6110
 8855SOL    HW238445   4.298   3.271  17.139  0.4134  0.5160  0.0346
 8856SOL     OW38446   2.218   4.048  19.847  0.2231  0.0779 -0.1646
 8856SOL    HW138447   2.172   4.030  19.929  1.7007 -0.1654  0.6264
 8856SOL    HW238448   2.241   3.961  19.813  0.9210  0.2280 -0.0770
 8857SOL     OW38449   2.813   1.630  19.868 -0.4536  0.1764 -0.4776
 8857SOL    HW138450   2.853   1.620  19.781  1.6737  0.7623  0.4305
 8857SOL    HW238451   2.806   1.725  19.880 -0.1109  0.0985  0.3013
 8858SOL     OW38452   4.202   2.580  17.209 -0.7057 -0.5006 -0.4767
 8858SOL    HW138453   4.250   2.613  17.285  0.8287 -2.3984 -0.6271
 8858SOL    HW238454   4.127   2.639  17.200  1.3040  2.1360  0.0852
 8859SOL     OW38455   3.536   3.713   1.407 -0.1042  0.1953 -0.1173
 8859SOL    HW138456   3.498   3.626   1.411 -0.2432  0.2844  0.5349
 8859SOL    HW238457   3.509   3.748   1.322 -1.2097  0.1397  0.2163
 8860SOL     OW38458   1.858   0.770   2.993 -0.7719 -0.3674  0.5155
 8860SOL    HW138459   1.831   0.858   2.964 -1.9330 -0.2982  1.7888
 8860SOL    HW238460   1.822   0.762   3.081 -0.5332 -2.0743  0.4599
 8861SOL     OW38461   3.754   4.020  16.917  0.0843 -0.1017 -0.3806
 8861SOL    HW138462   3.797   3.957  16.859 -1.6290 -0.7909 -0.8754
 8861SOL    HW238463   3.815   4.030  16.991  1.0809 -1.1202 -1.0796
 8862SOL     OW38464   2.617   3.485   1.841 -0.2672 -0.3819  0.4530
 8862SOL    HW138465   2.670   3.546   1.893  1.3799 -0.1830 -1.4521
 8862SOL    HW238466   2.641   3.503   1.751 -3.0655 -0.7986 -0.3891
 8863SOL     OW38467   4.298   2.488  20.826  0.1469  0.4797 -0.4377
 8863SOL    HW138468   4.379   2.493  20.878  0.1913 -2.6497 -0.2416
 8863SOL    HW238469   4.276   2.580  20.809  2.0700  1.4247  2.1047
 8864SOL     OW38470   3.027   3.024  14.470  0.1808  0.0584  0.1477
 8864SOL    HW138471   3.112   2.987  14.446 -0.3194 -1.0441  0.0761
 8864SOL    HW238472   3.045   3.078  14.547  0.8056 -0.7879  0.5951
 8865SOL     OW38473   3.698   1.992   2.531 -0.1084  0.2586  0.8860
 8865SOL    HW138474   3.669   2.036   2.611 -2.0337 -0.3776  0.5453
 8865SOL    HW238475   3.617   1.974   2.483  0.8318 -1.8128  0.0688
 8866SOL     OW38476   3.529   4.444   1.972 -0.2471  0.0662 -0.3733
 8866SOL    HW138477   3.559   4.356   1.997 -0.7029  0.0259  0.0499
 8866SOL    HW238478   3.592   4.503   2.011  0.3863 -0.0995 -1.1465
 8867SOL     OW38479   1.976   1.235   5.338 -0.4681  0.2042  0.0124
 8867SOL    HW138480   2.021   1.159   5.375  0.4105  0.1220 -1.2326
 8867SOL    HW238481   1.981   1.223   5.244 -2.4807  0.5569 -0.1573
 8868SOL     OW38482   2.423   3.687  18.667  0.2491  1.0190 -0.4144
 8868SOL    HW138483   2.352   3.689  18.732  0.9250 -1.6844  0.3773
 8868SOL    HW238484   2.387   3.638  18.593  1.7648 -1.4379  0.4957
 8869SOL     OW38485   0.146   2.205  19.699 -0.1178 -0.8035 -0.0241
 8869SOL    HW138486   0.241   2.196  19.708 -0.1322  0.4415  1.3102
 8869SOL    HW238487   0.132   2.299  19.690 -1.2125 -1.0103 -0.4322
 8870SOL     OW38488   3.055   3.831   6.443 -0.0150 -0.3668 -0.1339
 8870SOL    HW138489   3.039   3.925   6.440 -0.4249 -0.5044 -2.2470
 8870SOL    HW238490   3.119   3.820   6.512 -0.9004  1.3457  0.9552
 8871SOL     OW38491   4.064   0.848  17.400 -0.9066 -0.3190 -0.6783
 8871SOL    HW138492   4.055   0.765  17.447 -0.6174  0.7618  1.3098
 8871SOL    HW238493   4.158   0.867  17.403 -1.1439  0.7689  0.1006
 8872SOL     OW38494   3.673   1.403  16.488 -0.1583 -0.1155  0.2276
 8872SOL    HW138495   3.701   1.331  16.544  0.8419  0.4690  0.4720
 8872SOL    HW238496   3.616   1.456  16.543 -1.2246 -0.9422 -0.0740
 8873SOL     OW38497   2.127   4.642  14.516 -0.3291 -0.3790  0.4868
 8873SOL    HW138498   2.110   4.612  14.427 -0.2483  0.4115  0.1982
 8873SOL    HW238499   2.187   4.716  14.505  0.6329 -1.0466  1.2820
 8874SOL     OW38500   1.700   2.781   4.732  0.0741 -0.0396 -0.6010
 8874SOL    HW138501   1.764   2.852   4.729 -1.1373  1.1067  0.6451
 8874SOL    HW238502   1.619   2.823   4.762  0.0565 -2.4449  2.7273
 8875SOL     OW38503   0.116   2.798   2.439 -0.4057  0.2561  0.3789
 8875SOL    HW138504   0.141   2.743   2.514 -3.1847  0.2322  1.2790
 8875SOL    HW238505   0.116   2.739   2.364  0.0075 -0.2398  0.7704
 8876SOL     OW38506   1.627   0.970  16.297  0.1980 -0.2769  0.1761
 8876SOL    HW138507   1.648   1.063  16.302  1.5641 -0.5889  0.1541
 8876SOL    HW238508   1.535   0.965  16.325 -0.4270  1.2841 -1.5637
 8877SOL     OW38509   3.830   0.899   8.403  0.1795  0.2521 -0.0553
 8877SOL    HW138510   3.850   0.805   8.403  0.1773  0.2549  0.6177
 8877SOL    HW238511   3.915   0.942   8.413 -0.0086  0.2917  1.3273
 8878SOL     OW38512   3.739   1.848   2.214  0.3514 -0.3349  0.1358
 8878SOL    HW138513   3.672   1.907   2.248 -1.0200 -1.9544  0.2168
 8878SOL    HW238514   3.780   1.896   2.143  0.1507  1.2598  1.1006
 8879SOL     OW38515   1.375   3.470  18.074  0.3607  0.2033 -0.2928
 8879SOL    HW138516   1.406   3.480  17.984  0.6950 -1.5593 -0.3725
 8879SOL    HW238517   1.447   3.501  18.129  1.0352 -0.8593 -0.5703
 8880SOL     OW38518   3.970   3.980   0.756  0.4866 -0.4122  0.2802
 8880SOL    HW138519   3.999   4.067   0.728  0.1578 -0.7839 -1.1989
 8880SOL    HW238520   4.035   3.920   0.719  1.4160 -0.6931  2.3447
 8881SOL     OW38521   4.099   0.012  20.456  0.0488  0.6288 -0.1290
 8881SOL    HW138522   4.148   4.726  20.509 -0.5711 -0.0143 -0.3112
 8881SOL    HW238523   4.164   0.075  20.426  1.0197 -1.0702 -1.5873
 8882SOL     OW38524   3.290   4.232   5.539 -0.0767 -0.2117  0.0276
 8882SOL    HW138525   3.299   4.276   5.623 -2.8280 -1.6798  1.0952
 8882SOL    HW238526   3.343   4.284   5.478  0.1746  2.0438  2.2000
 8883SOL     OW38527   1.778   0.829   6.360  0.4680  0.6796 -0.4040
 8883SOL    HW138528   1.694   0.784   6.345  0.1813  1.0919 -0.0360
 8883SOL    HW238529   1.820   0.831   6.274 -0.3092  1.3023 -0.7695
 8884SOL     OW38530   2.958   4.437  14.001 -0.0763 -0.5468  0.0468
 8884SOL    HW138531   3.010   4.433  13.921 -2.2581  0.7869 -1.4519
 8884SOL    HW238532   3.005   4.499  14.057  1.9185 -2.1480  0.1240
 8885SOL     OW38533   2.500   1.017  18.888  0.0251 -0.0585 -0.2971
 8885SOL    HW138534   2.501   1.068  18.970  1.7244 -0.0649 -0.3048
 8885SOL    HW238535   2.567   1.059  18.834 -0.1269 -0.9348 -1.1458
 8886SOL     OW38536   2.976   2.847  19.224  0.2091 -0.0416  0.5635
 8886SOL    HW138537   2.891   2.891  19.215 -0.5125 -1.2726  1.2073
 8886SOL    HW238538   3.041   2.915  19.208 -0.9331  0.5414 -1.6163
 8887SOL     OW38539   2.767   4.250  18.504 -0.6715  0.7839  0.0411
 8887SOL    HW138540   2.696   4.209  18.456  0.3564 -1.1388  0.1542
 8887SOL    HW238541   2.725   4.287  18.582 -1.4094 -0.9271  0.4383
 8888SOL     OW38542   3.227   4.144   1.554  0.8383  0.6578  0.3841
 8888SOL    HW138543   3.320   4.163   1.568  0.3632  1.1801  2.8320
 8888SOL    HW238544   3.226   4.088   1.477  3.1843  0.7928  0.2354
 8889SOL     OW38545   0.396   3.592  15.643 -0.0796  0.5957 -0.1350
 8889SOL    HW138546   0.308   3.622  15.665 -0.1599 -0.3169  0.7554
 8889SOL    HW238547   0.439   3.669  15.605 -1.2678  1.0293 -0.5782
 8890SOL     OW38548   0.598   3.159  19.104 -0.7230  0.0113 -0.0619
 8890SOL    HW138549   0.597   3.141  19.198 -2.1499  0.1556 -0.0388
 8890SOL    HW238550   0.632   3.079  19.064  0.6759  0.2540  0.6401
 8891SOL     OW38551   1.192   4.357   3.632 -0.0305 -0.0531 -0.0715
 8891SOL    HW138552   1.141   4.435   3.653  0.9135  0.4241  0.4523
 8891SOL    HW238553   1.165   4.292   3.697  2.1661  1.1135  2.0454
 8892SOL     OW38554   0.731   4.057  19.716  0.1778  0.5198  0.1348
 8892SOL    HW138555   0.748   3.986  19.778  0.0788  0.7050  0.3740
 8892SOL    HW238556   0.788   4.038  19.642  0.6010  0.5252  0.4599
 8893SOL     OW38557   0.870   4.578  17.810 -0.3744  0.4798  0.2504
 8893SOL    HW138558   0.903   4.667  17.824 -0.4812  0.7143 -0.9215
 8893SOL    HW238559   0.800   4.589  17.745 -0.2680 -0.4754 -0.0193
 8894SOL     OW38560   1.581   4.050   1.988 -0.3460 -0.1905  0.3888
 8894SOL    HW138561   1.553   4.006   1.908 -1.4184 -2.4067  1.9822
 8894SOL    HW238562   1.639   3.987   2.032 -0.3494  0.7175  1.7189
 8895SOL     OW38563   1.879   3.395   4.734 -0.2260  0.2147  0.3650
 8895SOL    HW138564   1.959   3.359   4.695 -1.2553  0.8011 -2.2999
 8895SOL    HW238565   1.848   3.327   4.793  1.0397 -0.9009 -0.2619
 8896SOL     OW38566   2.504   4.732   4.478  0.0830  0.2296  0.1144
 8896SOL    HW138567   2.551   0.034   4.507  0.5230  0.0803 -0.2107
 8896SOL    HW238568   2.425   4.766   4.435  1.1495  0.5203 -1.5841
 8897SOL     OW38569   2.244   2.840   0.156  0.8086  0.1363  0.0205
 8897SOL    HW138570   2.209   2.866   0.070 -0.6853 -0.5277  0.4385
 8897SOL    HW238571   2.325   2.890   0.164 -0.7820  2.7750 -0.3060
 8898SOL     OW38572   4.761   4.223  19.447  0.4432  0.0878 -0.1223
 8898SOL    HW138573   4.695   4.182  19.502  1.5171 -0.0661  1.0385
 8898SOL    HW238574   0.061   4.165  19.451 -0.2583 -1.0669 -3.5310
 8899SOL     OW38575   1.031   0.340  19.783 -0.2755  0.5537 -0.0950
 8899SOL    HW138576   1.060   0.275  19.848 -0.3730  0.1066 -0.5002
 8899SOL    HW238577   1.110   0.361  19.733 -0.4586  0.0035 -0.6146
 8900SOL     OW38578   2.099   3.418   7.482  0.0540 -0.2206 -0.1326
 8900SOL    HW138579   2.150   3.497   7.463 -0.4245  0.7295  2.6261
 8900SOL    HW238580   2.126   3.392   7.570 -0.8610 -2.3150 -0.4690
 8901SOL     OW38581   3.193   2.015   0.099  0.1794 -0.5668  0.0610
 8901SOL    HW138582   3.139   2.002   0.177  0.7138 -1.2504  0.3195
 8901SOL    HW238583   3.170   2.102   0.068 -1.2527 -0.9490  0.0318
 8902SOL     OW38584   2.174   3.643  19.980  0.3618 -0.2685 -0.3752
 8902SOL    HW138585   2.081   3.624  19.971  0.2937 -0.2792  0.3088
 8902SOL    HW238586   2.215   3.558  19.994  0.6170 -0.3817 -1.8701
 8903SOL     OW38587   1.854   4.426  15.336 -0.1182 -0.0204  0.2021
 8903SOL    HW138588   1.771   4.458  15.371 -0.2025  1.4179 -1.2626
 8903SOL    HW238589   1.854   4.456  15.245  0.5696 -2.7945 -0.7052
 8904SOL     OW38590   2.304   1.686  18.871 -0.3776 -0.5045  0.4529
 8904SOL    HW138591   2.387   1.699  18.916  0.3135  0.8877 -1.2098
 8904SOL    HW238592   2.289   1.769  18.826 -2.8270 -0.6367  1.0312
 8905SOL     OW38593   2.559   4.146   9.795  0.1287  0.0693 -0.0097
 8905SOL    HW138594   2.639   4.104   9.763 -0.0465 -0.5457  0.3571
 8905SOL    HW238595   2.553   4.118   9.887  0.5923  1.7699  0.5335
 8906SOL     OW38596   3.668   0.479  18.486 -0.2247  0.2546 -0.3779
 8906SOL    HW138597   3.703   0.395  18.515  1.1321  0.6762 -0.7969
 8906SOL    HW238598   3.664   0.533  18.565  0.9841  0.5331 -0.5184
 8907SOL     OW38599   4.360   2.084  14.726  0.1459  0.0430 -0.1573
 8907SOL    HW138600   4.430   2.062  14.665 -0.4806 -0.9272 -0.5165
 8907SOL    HW238601   4.294   2.128  14.673 -0.1823 -0.3692 -0.0923
 8908SOL     OW38602   1.606   4.086   5.092  0.0937  0.2024 -0.5665
 8908SOL    HW138603   1.687   4.092   5.042 -0.4478  0.7427 -1.3871
 8908SOL    HW238604   1.595   4.173   5.131 -0.3194  0.2676 -0.8215
 8909SOL     OW38605   2.134   1.295   9.929  0.4160  0.0932  0.0395
 8909SOL    HW138606   2.195   1.313   9.858 -0.2372  0.7825 -0.3421
 8909SOL    HW238607   2.048   1.292   9.888  0.1590 -0.6489  0.6154
 8910SOL     OW38608   1.101   3.884  20.029 -0.2492  0.2596 -0.4925
 8910SOL    HW138609   1.176   3.923  19.985  0.8341  0.2917  1.3616
 8910SOL    HW238610   1.132   3.797  20.055 -0.6219  0.5165  0.8369
 8911SOL     OW38611   3.236   4.158  13.892 -0.0956  0.1383 -0.0377
 8911SOL    HW138612   3.156   4.123  13.933  0.8768 -2.5297 -0.3861
 8911SOL    HW238613   3.307   4.115  13.939  1.0654 -0.1635 -2.0775
 8912SOL     OW38614   2.038   0.358  17.947 -0.1646 -0.6129  0.1493
 8912SOL    HW138615   2.025   0.264  17.962 -0.5507 -0.9420 -2.3580
 8912SOL    HW238616   1.952   0.390  17.920  0.6102  0.0173 -1.5017
 8913SOL     OW38617   0.443   3.687   9.101  0.3881  0.1058  0.0675
 8913SOL    HW138618   0.400   3.712   9.019 -1.8882 -1.3989  0.7828
 8913SOL    HW238619   0.422   3.758   9.161 -1.7371 -0.9723  0.6220
 8914SOL     OW38620   3.018   4.728   0.790 -0.0681 -0.0785 -0.2565
 8914SOL    HW138621   3.108   4.696   0.797 -1.0041 -2.1067  2.5003
 8914SOL    HW238622   2.990   4.701   0.702  0.8516 -2.4661  0.1693
 8915SOL     OW38623   3.017   1.015   5.463 -0.2457 -0.2207  0.1304
 8915SOL    HW138624   3.007   1.039   5.555 -1.3946 -2.2977  0.5301
 8915SOL    HW238625   2.962   1.078   5.416 -0.6783  0.0155  0.9562
 8916SOL     OW38626   1.474   1.388  15.748  0.0146 -0.2437  0.2593
 8916SOL    HW138627   1.399   1.447  15.740  1.6950  1.5197 -2.2288
 8916SOL    HW238628   1.497   1.366  15.658  4.1716  1.3466  0.9398
 8917SOL     OW38629   3.591   3.610   4.786 -0.0976 -0.0864 -0.0397
 8917SOL    HW138630   3.548   3.656   4.714 -0.4670 -0.5619 -0.1182
 8917SOL    HW238631   3.678   3.650   4.791 -0.8293  1.3807  0.6274
 8918SOL     OW38632   3.926   4.325  16.680 -0.2005  0.2535  0.2062
 8918SOL    HW138633   3.983   4.312  16.604  0.3192 -0.7047  0.7655
 8918SOL    HW238634   3.928   4.420  16.694 -0.8146  0.5125 -1.3677
 8919SOL     OW38635   1.017   3.496  18.900  0.4970 -0.4279 -0.2366
 8919SOL    HW138636   0.982   3.585  18.901 -1.5589 -1.2088 -0.9186
 8919SOL    HW238637   0.994   3.463  18.813  2.8187 -1.0024 -0.6320
 8920SOL     OW38638   1.227   2.685  16.603 -0.4187 -0.6351 -0.1468
 8920SOL    HW138639   1.195   2.772  16.580 -0.2975 -0.4355  0.4375
 8920SOL    HW238640   1.287   2.662  16.533 -0.6565 -0.3603 -0.4411
 8921SOL     OW38641   3.170   3.152   0.551  0.1114 -0.3834  0.7738
 8921SOL    HW138642   3.254   3.195   0.558 -0.6596  1.1885  0.2837
 8921SOL    HW238643   3.148   3.126   0.641  1.9218 -2.3338  0.6598
 8922SOL     OW38644   3.224   3.517   1.677  0.0106  0.0570  0.0515
 8922SOL    HW138645   3.190   3.588   1.623 -0.8340 -0.5309 -0.1902
 8922SOL    HW238646   3.312   3.546   1.702 -0.4076  1.2791  0.1351
 8923SOL     OW38647   4.153   1.347   6.169  0.0864 -0.0006 -0.3563
 8923SOL    HW138648   4.194   1.412   6.226 -0.1530 -0.6646  0.5773
 8923SOL    HW238649   4.060   1.351   6.192 -0.2159  0.7761 -1.7430
 8924SOL     OW38650   1.352   3.655  18.836  0.2469 -0.2381 -0.3946
 8924SOL    HW138651   1.302   3.724  18.880 -0.1564 -0.9640  0.2831
 8924SOL    HW238652   1.347   3.580  18.896  1.3973 -0.5876 -0.7393
 8925SOL     OW38653   3.558   3.460  18.629 -1.0035 -0.2104  0.2333
 8925SOL    HW138654   3.507   3.538  18.607 -1.7740 -0.6270  0.5702
 8925SOL    HW238655   3.631   3.493  18.682 -0.3370  0.5171 -1.1337
 8926SOL     OW38656   1.206   2.139   1.741 -0.4034  0.0915 -0.0022
 8926SOL    HW138657   1.197   2.049   1.710 -0.3664  1.2647 -3.4623
 8926SOL    HW238658   1.297   2.146   1.770 -0.2046 -0.7753 -0.4211
 8927SOL     OW38659   1.904   3.182   4.935  0.4805 -0.2638  0.1138
 8927SOL    HW138660   1.843   3.176   5.009 -0.8839 -2.7822 -1.2145
 8927SOL    HW238661   1.953   3.100   4.939  1.0338  0.0130 -1.2169
 8928SOL     OW38662   0.372   0.125  20.789 -0.3003  0.0588  0.0033
 8928SOL    HW138663   0.343   0.179  20.864 -0.8205 -0.8954  0.4874
 8928SOL    HW238664   0.292   0.105  20.742  0.0560  0.8096 -0.9081
 8929SOL     OW38665   3.074   2.160   6.295  0.5585 -0.3105  0.1497
 8929SOL    HW138666   3.168   2.169   6.314  0.2099  0.6318  1.4523
 8929SOL    HW238667   3.070   2.143   6.201  2.1784 -2.5745  0.4910
 8930SOL     OW38668   2.525   0.164  19.123 -0.2914 -0.1328 -0.3596
 8930SOL    HW138669   2.599   0.205  19.079 -0.9595  0.7450 -0.6631
 8930SOL    HW238670   2.514   0.213  19.204 -0.2987 -0.5005 -0.1388
 8931SOL     OW38671   0.798   0.074  18.618 -0.2156  1.0834 -0.1796
 8931SOL    HW138672   0.775   0.081  18.711  3.0158 -1.5871  0.8023
 8931SOL    HW238673   0.893   0.081  18.617 -0.1722 -0.2462 -3.1749
 8932SOL     OW38674   2.479   2.624   3.882 -0.2679  0.0129  0.3985
 8932SOL    HW138675   2.562   2.595   3.844 -1.3663  0.6562 -2.4952
 8932SOL    HW238676   2.501   2.702   3.932  1.2097 -0.9245  1.2143
 8933SOL     OW38677   4.661   2.515  19.584 -0.3402  0.2871 -0.5182
 8933SOL    HW138678   4.658   2.462  19.505 -0.0927  0.0029 -0.3332
 8933SOL    HW238679   4.596   2.476  19.642 -1.3015  1.1631 -1.0091
 8934SOL     OW38680   4.734   1.317  17.379 -0.1410  0.1417  0.0666
 8934SOL    HW138681   4.676   1.325  17.303  0.5990 -0.5061 -0.5651
 8934SOL    HW238682   4.677   1.329  17.454 -1.0212 -0.0394 -0.5744
 8935SOL     OW38683   3.435   3.793  20.720  0.3264  0.6228  0.4057
 8935SOL    HW138684   3.489   3.816  20.645 -0.0501  2.0167  0.5729
 8935SOL    HW238685   3.478   3.835  20.795  0.1358  0.0695  0.8315
 8936SOL     OW38686   1.794   4.728   2.433  0.0703 -0.8703  0.3060
 8936SOL    HW138687   1.800   4.659   2.367  0.9677 -1.3175  0.8530
 8936SOL    HW238688   1.876   4.721   2.482  1.4519  2.4976 -1.5288
 8937SOL     OW38689   3.396   3.173   3.126  0.0111 -0.6805 -0.1443
 8937SOL    HW138690   3.350   3.122   3.193  0.3621 -0.7717  0.0233
 8937SOL    HW238691   3.488   3.171   3.152  0.2114 -1.0795 -0.8617
 8938SOL     OW38692   4.297   2.575   7.278 -0.1432  0.3016 -0.0373
 8938SOL    HW138693   4.319   2.494   7.325  1.8985  1.2311  0.6119
 8938SOL    HW238694   4.358   2.577   7.204 -0.8315  0.7526 -0.5818
 8939SOL     OW38695   0.735   3.064  15.589 -0.3407 -0.2704 -0.2565
 8939SOL    HW138696   0.829   3.075  15.577 -0.3359 -0.3819 -0.3190
 8939SOL    HW238697   0.726   2.981  15.636 -0.5917 -1.9711 -3.2952
 8940SOL     OW38698   0.603   1.996  19.388  0.0981 -0.1293  0.1896
 8940SOL    HW138699   0.698   1.995  19.377 -0.1161 -1.4131 -1.6281
 8940SOL    HW238700   0.578   2.088  19.377  1.2066  0.2818  1.1965
 8941SOL     OW38701   0.415   2.062   1.405  0.5091  0.3080 -0.0151
 8941SOL    HW138702   0.348   2.127   1.427  1.3416  0.7973  1.0368
 8941SOL    HW238703   0.483   2.113   1.361  0.3353 -0.1456 -0.8133
 8942SOL     OW38704   0.456   0.238  17.138  0.6882  0.0770  0.0256
 8942SOL    HW138705   0.368   0.258  17.107  0.9986  2.6323  0.8016
 8942SOL    HW238706   0.457   0.266  17.229  1.0667 -3.6209  1.1638
 8943SOL     OW38707   4.266   0.902   2.823 -0.2689 -0.0950  0.2050
 8943SOL    HW138708   4.195   0.851   2.784  0.1845 -0.6597  0.1301
 8943SOL    HW238709   4.337   0.896   2.760  0.2698 -0.5444  0.8571
 8944SOL     OW38710   2.196   0.605  11.863 -0.3837 -0.3908 -0.6775
 8944SOL    HW138711   2.112   0.645  11.884 -0.4135  0.2261 -1.9850
 8944SOL    HW238712   2.243   0.601  11.947 -2.8868 -3.4633  0.5784
 8945SOL     OW38713   1.234   4.159   9.328 -0.1211 -0.1818 -0.2816
 8945SOL    HW138714   1.187   4.093   9.278  1.0722 -1.2213 -0.0090
 8945SOL    HW238715   1.324   4.127   9.334  0.1702  0.8323  0.9316
 8946SOL     OW38716   0.847   2.827  12.492 -0.4080  0.1646  0.1324
 8946SOL    HW138717   0.882   2.769  12.560 -1.9799  2.3748  2.7985
 8946SOL    HW238718   0.921   2.883  12.468  0.2039 -0.7633 -0.1508
 8947SOL     OW38719   4.134   3.023   3.443  0.0617 -0.3031  0.6719
 8947SOL    HW138720   4.168   2.938   3.471  0.1449 -0.0397  1.3778
 8947SOL    HW238721   4.201   3.058   3.386  0.1454 -0.5977  0.5872
 8948SOL     OW38722   0.685   4.409  19.123 -0.3632  0.5101  0.5407
 8948SOL    HW138723   0.713   4.489  19.077  0.0112  0.5508  0.8418
 8948SOL    HW238724   0.598   4.391  19.088 -0.5814  1.2378  0.7101
 8949SOL     OW38725   1.278   3.993  20.381 -0.2872  0.0342 -0.0126
 8949SOL    HW138726   1.350   3.964  20.437 -0.3448 -1.7311 -0.8650
 8949SOL    HW238727   1.320   4.024  20.302 -0.3599  0.4879  0.1249
 8950SOL     OW38728   0.153   0.720  19.692  0.4320  0.6443  0.0183
 8950SOL    HW138729   0.118   0.680  19.612 -1.1213  0.8433  0.5837
 8950SOL    HW238730   0.216   0.656  19.725 -0.0966 -0.1526 -0.5115
 8951SOL     OW38731   2.890   1.269   8.683  0.2767 -0.5683 -0.3468
 8951SOL    HW138732   2.975   1.228   8.668  0.9978  0.7975 -0.0015
 8951SOL    HW238733   2.890   1.290   8.777 -0.4366 -0.5679 -0.3479
 8952SOL     OW38734   0.932   1.856   3.368 -0.1301 -0.2837  0.0808
 8952SOL    HW138735   0.895   1.772   3.342 -0.8557 -0.9076  3.0859
 8952SOL    HW238736   0.868   1.920   3.336  0.1774 -0.8992 -1.7736
 8953SOL     OW38737   2.573   4.086  20.445 -0.5431  0.3864  0.3013
 8953SOL    HW138738   2.587   4.091  20.540 -2.0855 -0.5972  0.5881
 8953SOL    HW238739   2.501   4.023  20.435 -0.6276  0.7732 -1.4969
 8954SOL     OW38740   3.865   0.721   4.158  0.1216  0.5932  0.0010
 8954SOL    HW138741   3.771   0.721   4.142  0.3627 -0.9229 -1.2949
 8954SOL    HW238742   3.873   0.746   4.251 -1.6106 -0.8443  0.5327
 8955SOL     OW38743   3.992   0.844   0.418 -0.1702  0.4525 -0.1979
 8955SOL    HW138744   3.985   0.934   0.388  0.1389 -0.1529 -2.1129
 8955SOL    HW238745   4.085   0.824   0.412 -0.4221 -0.4437 -1.0988
 8956SOL     OW38746   0.046   1.196  11.407 -0.3575 -0.0172  0.2432
 8956SOL    HW138747   0.026   1.256  11.478  0.3708 -0.2023  0.6048
 8956SOL    HW238748   0.039   1.249  11.328  2.5153  1.0667  0.7392
 8957SOL     OW38749   2.892   2.074  20.360  0.0371 -0.3316  0.4176
 8957SOL    HW138750   2.952   2.136  20.402 -2.0046  1.9333 -0.0518
 8957SOL    HW238751   2.928   2.062  20.272  2.0249 -1.9881  1.4410
 8958SOL     OW38752   4.548   4.657  19.250  0.3501  0.0389 -0.2827
 8958SOL    HW138753   4.544   4.714  19.326 -0.1791 -0.7080  0.2506
 8958SOL    HW238754   4.641   4.646  19.233  0.4812 -0.5510  0.8224
 8959SOL     OW38755   2.762   1.134  20.724 -0.1139 -0.1886 -0.0311
 8959SOL    HW138756   2.827   1.126  20.794  0.1113 -0.9972 -0.3461
 8959SOL    HW238757   2.735   1.226  20.728  0.3069 -0.0987  0.7586
 8960SOL     OW38758   3.417   3.761  18.863 -0.1886  0.0056  0.2514
 8960SOL    HW138759   3.328   3.750  18.895 -0.2555  0.5976  0.2809
 8960SOL    HW238760   3.459   3.676  18.876 -0.5089 -0.0369  0.9853
 8961SOL     OW38761   2.983   2.917  17.861 -0.0365  0.0939  0.1003
 8961SOL    HW138762   2.895   2.884  17.845  1.2462 -2.9402 -0.6173
 8961SOL    HW238763   2.979   3.009  17.834 -3.3606  0.3317  1.4349
 8962SOL     OW38764   3.460   0.730  18.747 -0.3241 -0.0911 -0.5738
 8962SOL    HW138765   3.477   0.770  18.832  1.1239  0.9051 -1.3327
 8962SOL    HW238766   3.410   0.651  18.768 -0.7561  0.6228  1.1283
 8963SOL     OW38767   1.966   1.508  20.306 -0.2535 -0.1725 -0.1524
 8963SOL    HW138768   1.880   1.475  20.332  0.1005 -0.7940  0.2105
 8963SOL    HW238769   1.999   1.553  20.384 -1.0409  1.6619 -0.8604
 8964SOL     OW38770   0.326   4.183   7.971  0.3941  0.4060  0.0733
 8964SOL    HW138771   0.267   4.138   8.031  4.3420 -2.4269  1.8655
 8964SOL    HW238772   0.358   4.258   8.021  1.1060 -0.0832  0.3504
 8965SOL     OW38773   3.456   2.333   5.001  0.2262  0.3131  0.2653
 8965SOL    HW138774   3.419   2.309   5.085 -1.4186  1.8848 -0.0017
 8965SOL    HW238775   3.395   2.296   4.937 -0.0609  1.6128 -0.1994
 8966SOL     OW38776   2.977   1.929  19.691 -0.5938  0.6476 -0.6768
 8966SOL    HW138777   2.931   1.952  19.611  0.6411  1.1192 -1.2626
 8966SOL    HW238778   2.936   1.983  19.759 -0.7681  1.2150 -1.2303
 8967SOL     OW38779   2.837   1.310  14.053 -0.7167 -0.3824  0.2166
 8967SOL    HW138780   2.796   1.267  14.128 -1.0884 -0.9160 -0.2934
 8967SOL    HW238781   2.763   1.343  14.002 -0.4844 -0.6008 -0.2600
 8968SOL     OW38782   0.449   3.115  17.926  0.3596 -0.4888 -0.2816
 8968SOL    HW138783   0.504   3.079  17.856 -0.4254 -1.0404 -0.6172
 8968SOL    HW238784   0.374   3.153  17.881 -0.7940 -2.0104  0.3361
 8969SOL     OW38785   0.328   0.423  10.815 -0.4200 -0.1081 -0.0774
 8969SOL    HW138786   0.321   0.345  10.870  0.8777  0.9139  1.5526
 8969SOL    HW238787   0.238   0.444  10.791 -0.8689 -1.3732  0.5308
 8970SOL     OW38788   4.091   0.926   9.486  0.2534 -0.1666  0.0230
 8970SOL    HW138789   4.096   0.983   9.562  0.4153 -0.5881  0.3296
 8970SOL    HW238790   4.075   0.839   9.522  0.9514 -0.4633 -0.3870
 8971SOL     OW38791   1.265   0.755  20.675 -0.5992 -0.1722  0.3873
 8971SOL    HW138792   1.178   0.786  20.649 -0.4977  1.0138  1.4694
 8971SOL    HW238793   1.271   0.775  20.769  0.5872 -0.8353  0.4548
 8972SOL     OW38794   2.548   3.317   2.071 -0.3323  0.6310 -0.6778
 8972SOL    HW138795   2.604   3.391   2.044 -0.5241  0.8071 -0.5957
 8972SOL    HW238796   2.459   3.349   2.059 -0.4067 -0.1215 -2.0502
 8973SOL     OW38797   3.247   0.085  18.968  0.0588 -1.1207  0.2735
 8973SOL    HW138798   3.309   0.026  19.011  0.0117 -2.0851 -0.9675
 8973SOL    HW238799   3.204   0.131  19.040  1.4051 -1.2670  1.1819
 8974SOL     OW38800   2.747   1.038   0.196 -0.1488 -0.2831  0.2102
 8974SOL    HW138801   2.791   1.085   0.266  1.5353 -1.3377 -0.1523
 8974SOL    HW238802   2.694   0.972   0.242 -0.4333  0.2064  0.5835
 8975SOL     OW38803   1.058   0.379  10.523  0.1260 -0.6301  0.0420
 8975SOL    HW138804   1.050   0.321  10.600  0.5093  1.0865  1.3670
 8975SOL    HW238805   0.975   0.369  10.477 -0.8573 -0.1615  1.7236
 8976SOL     OW38806   2.561   4.244   0.140  0.0399 -0.4662  1.1282
 8976SOL    HW138807   2.557   4.337   0.119  0.3573 -0.7649 -0.2783
 8976SOL    HW238808   2.640   4.234   0.193  1.5229 -0.4029 -1.1002
 8977SOL     OW38809   3.434   2.140  16.064 -0.2613 -0.1151 -0.3926
 8977SOL    HW138810   3.392   2.131  15.979 -0.6453  1.3878 -0.3649
 8977SOL    HW238811   3.366   2.115  16.127 -0.7586  1.1828 -0.4064
 8978SOL     OW38812   0.681   2.980  19.349  0.3933  0.5695  0.3072
 8978SOL    HW138813   0.645   2.948  19.432  0.6019 -0.0115  0.1713
 8978SOL    HW238814   0.741   3.050  19.374  1.8857 -0.8817  0.7645
 8979SOL     OW38815   3.323   4.641   5.308 -0.1539  0.1413 -0.0255
 8979SOL    HW138816   3.346   4.556   5.269  1.0481  0.4958 -0.0787
 8979SOL    HW238817   3.234   4.629   5.340 -0.4201 -0.7818 -1.1030
 8980SOL     OW38818   3.843   0.190  17.340 -0.3074 -0.4697 -0.3482
 8980SOL    HW138819   3.916   0.214  17.283  1.3651 -2.7218  0.8781
 8980SOL    HW238820   3.821   0.271  17.386  2.0103 -0.0480 -0.0122
 8981SOL     OW38821   2.639   1.557  19.626  0.2467  0.6771 -0.2906
 8981SOL    HW138822   2.735   1.553  19.623  0.2075 -0.2157 -0.1289
 8981SOL    HW238823   2.620   1.650  19.638  1.1359  0.5968  1.6220
 8982SOL     OW38824   1.399   2.943  18.411 -0.1049 -0.0386  0.1860
 8982SOL    HW138825   1.319   2.993  18.427  0.5179  0.3267  2.1302
 8982SOL    HW238826   1.381   2.894  18.331 -1.6977  1.2467 -0.2397
 8983SOL     OW38827   2.071   2.513   4.864 -0.1870 -0.5414 -0.5322
 8983SOL    HW138828   2.103   2.570   4.794 -0.2746 -0.3384 -0.4053
 8983SOL    HW238829   1.999   2.464   4.824 -1.2231  0.6545 -0.1481
 8984SOL     OW38830   0.846   3.438   3.447 -0.5892  0.2244 -0.2960
 8984SOL    HW138831   0.910   3.498   3.485  0.2096 -0.0791 -1.1693
 8984SOL    HW238832   0.836   3.369   3.512 -1.5986  1.3741  0.7669
 8985SOL     OW38833   3.928   3.122  20.960 -0.2522  0.1510 -0.1211
 8985SOL    HW138834   3.889   3.178  20.892  0.4604  0.2377 -0.4568
 8985SOL    HW238835   3.989   3.180  21.006 -0.6933  0.0787  0.5675
 8986SOL     OW38836   1.642   1.776   6.122 -0.5918 -0.6966 -0.2093
 8986SOL    HW138837   1.725   1.807   6.087 -1.5879  1.3850 -0.7236
 8986SOL    HW238838   1.639   1.808   6.212 -2.1072  1.6446 -1.0825
 8987SOL     OW38839   1.954   0.676   5.464 -0.2543  0.3202 -0.8132
 8987SOL    HW138840   1.994   0.748   5.512  0.3318 -0.7313  0.2513
 8987SOL    HW238841   1.896   0.633   5.527 -2.5458  1.4494 -2.1743
 8988SOL     OW38842   2.138   3.441  12.538  0.5972 -0.0019 -0.3588
 8988SOL    HW138843   2.133   3.434  12.633  0.8492 -1.1362 -0.4315
 8988SOL    HW238844   2.230   3.427  12.516  0.1173 -2.3680 -0.9723
 8989SOL     OW38845   2.766   2.873  20.778  0.2298  0.2054  0.2038
 8989SOL    HW138846   2.704   2.881  20.851 -0.3859 -1.7663 -0.1086
 8989SOL    HW238847   2.845   2.836  20.818  0.3366  0.3386  0.1164
 8990SOL     OW38848   0.581   3.325   8.144 -0.0075  0.2362  0.1539
 8990SOL    HW138849   0.536   3.290   8.067  1.6979  0.5397 -0.9725
 8990SOL    HW238850   0.564   3.261   8.213 -0.3283 -0.7463 -0.8386
 8991SOL     OW38851   2.806   4.028   9.674  0.1931 -0.2512  0.2779
 8991SOL    HW138852   2.759   4.026   9.591  0.9532  1.4306 -0.1903
 8991SOL    HW238853   2.847   3.941   9.680 -0.8072 -0.7792 -0.5527
 8992SOL     OW38854   3.655   3.205   7.484  0.6477  0.2319  0.8019
 8992SOL    HW138855   3.688   3.271   7.545 -1.3215  1.0734  0.9701
 8992SOL    HW238856   3.635   3.254   7.404  1.6004 -0.5759  0.0873
 8993SOL     OW38857   4.556   0.660  16.071  0.0124  0.0257 -0.0763
 8993SOL    HW138858   4.536   0.732  16.010  0.4792  1.1383  1.0843
 8993SOL    HW238859   4.588   0.590  16.015  0.2743  0.9914 -1.1457
 8994SOL     OW38860   1.595   0.816   7.323 -0.0535  0.0885 -1.2198
 8994SOL    HW138861   1.501   0.810   7.340 -0.0847 -0.8449 -1.7456
 8994SOL    HW238862   1.634   0.752   7.383  0.1792 -0.1640 -1.6442
 8995SOL     OW38863   3.394   1.899   7.108 -0.2105 -0.7303 -0.3025
 8995SOL    HW138864   3.365   1.939   7.190 -1.0246  0.8781 -1.3466
 8995SOL    HW238865   3.488   1.918   7.103 -0.3767  0.1362 -0.2579
 8996SOL     OW38866   3.483   0.049  18.109  0.3214 -0.0225 -0.1575
 8996SOL    HW138867   3.522   0.016  18.028  0.3252  0.9855 -0.5609
 8996SOL    HW238868   3.524   0.134  18.123 -1.3209  0.7934 -0.2965
 8997SOL     OW38869   4.556   2.884   0.769 -0.6419  0.0209 -0.2684
 8997SOL    HW138870   4.471   2.844   0.753 -0.8960 -0.1444  1.5428
 8997SOL    HW238871   4.558   2.961   0.712 -2.2076  0.3217  0.1045
 8998SOL     OW38872   2.152   2.079  11.267  0.2097  0.5988  0.1057
 8998SOL    HW138873   2.060   2.094  11.246  0.4421  0.7642 -0.7977
 8998SOL    HW238874   2.197   2.088  11.183  0.9527 -0.2207  0.4162
 8999SOL     OW38875   2.745   1.987  16.907  0.2298  0.3307 -0.4031
 8999SOL    HW138876   2.716   1.905  16.946 -1.5751  1.8854  1.5100
 8999SOL    HW238877   2.841   1.981  16.908  0.0829 -2.0605 -0.9515
 9000SOL     OW38878   0.973   0.901  20.654 -0.7602  0.0614  0.1935
 9000SOL    HW138879   0.975   0.979  20.600 -0.9351 -0.2570 -0.2707
 9000SOL    HW238880   0.923   0.927  20.732  0.1599  0.7396  0.5572
 9001SOL     OW38881   2.433   4.466   1.878  0.0103 -0.2623 -0.4954
 9001SOL    HW138882   2.520   4.432   1.860  0.4073 -0.4040  1.6440
 9001SOL    HW238883   2.398   4.408   1.946 -0.2401  2.1580  1.4487
 9002SOL     OW38884   3.083   3.843  10.475 -0.0331 -0.3856 -0.1884
 9002SOL    HW138885   3.163   3.880  10.439 -0.4330  1.1942  0.5755
 9002SOL    HW238886   3.113   3.773  10.533  0.6900 -1.6741 -2.1084
 9003SOL     OW38887   3.413   2.600   3.578  0.5811 -0.0351  0.4001
 9003SOL    HW138888   3.442   2.571   3.491 -0.1309 -0.5056  0.3157
 9003SOL    HW238889   3.488   2.646   3.615  0.9376  0.0287 -0.4075
 9004SOL     OW38890   0.634   2.256  19.509 -0.5074 -0.6676 -0.1440
 9004SOL    HW138891   0.670   2.329  19.460 -0.0117 -1.8289 -1.5002
 9004SOL    HW238892   0.581   2.297  19.578 -2.5704  0.9143 -2.6574
 9005SOL     OW38893   1.766   1.034   4.071  0.0735  0.4923  0.4196
 9005SOL    HW138894   1.808   0.974   4.132  1.5031  1.4792  0.4080
 9005SOL    HW238895   1.689   1.067   4.119  1.2891  1.4059  1.7589
 9006SOL     OW38896   4.543   4.063  16.173 -0.2529  0.3423 -0.3286
 9006SOL    HW138897   4.597   4.126  16.219  0.9721 -0.8834 -0.1173
 9006SOL    HW238898   4.492   4.019  16.241  0.8141 -0.7562 -0.2530
 9007SOL     OW38899   4.461   0.771  13.448 -0.5637 -0.1136  0.6782
 9007SOL    HW138900   4.469   0.692  13.502 -0.6703  0.4888  1.5640
 9007SOL    HW238901   4.390   0.821  13.489  0.6156  1.2189  1.0636
 9008SOL     OW38902   4.701   2.061  19.392  0.1069 -0.1264  0.0376
 9008SOL    HW138903   4.607   2.044  19.385 -0.0760  0.1555  1.7979
 9008SOL    HW238904   4.729   2.007  19.466  0.5880  2.8896  2.0357
 9009SOL     OW38905   1.688   4.673  17.002 -0.2709 -0.2910  0.6181
 9009SOL    HW138906   1.594   4.693  17.004 -0.2290 -0.1842  1.3560
 9009SOL    HW238907   1.695   4.597  16.944 -0.6498  0.6411 -0.6689
 9010SOL     OW38908   4.239   2.268   0.174 -0.5155  0.3947  0.1787
 9010SOL    HW138909   4.222   2.315   0.256 -0.4923 -2.2652  1.7018
 9010SOL    HW238910   4.210   2.179   0.191  1.3115 -0.6299 -2.0735
 9011SOL     OW38911   0.945   1.272   3.535 -0.8378 -0.7428  0.5014
 9011SOL    HW138912   0.921   1.282   3.443  0.7882 -0.0574  0.1694
 9011SOL    HW238913   0.978   1.182   3.541  0.3932 -0.2972  0.1554
 9012SOL     OW38914   2.601   2.873  19.620 -0.5431  0.0728 -0.2593
 9012SOL    HW138915   2.564   2.959  19.633 -1.0345 -0.4873  2.0319
 9012SOL    HW238916   2.668   2.865  19.689  0.9103 -0.5595 -1.7338
 9013SOL     OW38917   3.160   0.247  19.209 -0.2340  0.1496  0.0333
 9013SOL    HW138918   3.092   0.185  19.184 -0.2579 -0.6288  2.0481
 9013SOL    HW238919   3.114   0.328  19.227 -0.4148  0.1806 -0.5583
 9014SOL     OW38920   1.193   1.294  20.111 -0.3375  0.2512  0.9330
 9014SOL    HW138921   1.180   1.388  20.120 -0.7300  0.2055  0.8360
 9014SOL    HW238922   1.115   1.263  20.066 -0.9105 -0.3468  2.3341
 9015SOL     OW38923   2.879   0.493   4.815 -0.2008  0.2626  0.5114
 9015SOL    HW138924   2.908   0.544   4.740  0.7871 -0.3023  0.5029
 9015SOL    HW238925   2.784   0.496   4.811 -0.1492 -0.6135 -1.3302
 9016SOL     OW38926   3.509   2.567  10.790  0.4639 -0.1948 -0.0883
 9016SOL    HW138927   3.587   2.590  10.841 -0.4272  1.1102  0.6836
 9016SOL    HW238928   3.516   2.472  10.777  0.6204 -0.5590  2.5916
 9017SOL     OW38929   2.606   1.858  17.321  0.2359 -0.6804 -0.5021
 9017SOL    HW138930   2.604   1.953  17.329  0.2384 -0.7126 -0.0900
 9017SOL    HW238931   2.625   1.827  17.410 -1.3876 -1.1190 -0.3016
 9018SOL     OW38932   4.405   4.229   5.749 -0.5195  0.4053 -0.3339
 9018SOL    HW138933   4.419   4.321   5.727  1.2163  0.1959 -0.0891
 9018SOL    HW238934   4.440   4.182   5.673 -0.2551 -0.0942  0.1020
 9019SOL     OW38935   0.658   1.400   1.306  0.3347  0.1028 -0.5111
 9019SOL    HW138936   0.624   1.409   1.217 -2.7571 -1.4669  0.5245
 9019SOL    HW238937   0.585   1.425   1.362  1.5564 -1.2237  1.6525
 9020SOL     OW38938   2.309   0.072   8.143  0.1932  0.0929 -0.2022
 9020SOL    HW138939   2.238   0.018   8.108 -0.0659 -0.7962  1.7358
 9020SOL    HW238940   2.315   0.146   8.082 -2.0598 -0.0775 -0.6185
 9021SOL     OW38941   0.767   1.036   6.314  0.3746 -0.2279  0.6236
 9021SOL    HW138942   0.755   1.050   6.220  0.2152 -0.7157  0.5680
 9021SOL    HW238943   0.859   1.055   6.330  0.5397 -0.7270  0.2601
 9022SOL     OW38944   3.906   3.723  16.500  0.6823 -0.2891 -0.7126
 9022SOL    HW138945   3.847   3.675  16.442 -0.3344 -0.2967  0.3400
 9022SOL    HW238946   3.953   3.783  16.442  0.3201 -0.9453 -1.6818
 9023SOL     OW38947   0.731   0.200  15.253  0.7228 -0.2003  0.3972
 9023SOL    HW138948   0.767   0.288  15.246  1.6037 -0.7264 -1.6575
 9023SOL    HW238949   0.718   0.172  15.163  0.4566 -2.1666  1.0467
 9024SOL     OW38950   1.720   3.215  20.498 -0.2249  0.2555 -0.1329
 9024SOL    HW138951   1.644   3.259  20.461  0.0594  0.1608 -0.8483
 9024SOL    HW238952   1.789   3.229  20.432 -0.5413 -2.5073 -1.0148
 9025SOL     OW38953   4.328   0.971  19.250 -0.1207 -0.2447  0.2125
 9025SOL    HW138954   4.272   1.007  19.181 -0.9456 -1.5987  0.1536
 9025SOL    HW238955   4.412   1.013  19.238 -0.6344  0.4814 -0.8276
 9026SOL     OW38956   1.887   3.171  14.349  0.1616 -0.0765 -0.2742
 9026SOL    HW138957   1.802   3.127  14.342  0.8748 -1.4680 -0.2857
 9026SOL    HW238958   1.914   3.155  14.440 -0.1651  1.4127  0.0753
 9027SOL     OW38959   1.857   2.813  20.290 -0.0105  0.0295  0.2412
 9027SOL    HW138960   1.798   2.847  20.223 -1.2322  1.3576  1.9850
 9027SOL    HW238961   1.944   2.842  20.262 -0.2284 -1.5760 -2.1068
 9028SOL     OW38962   1.855   3.153   7.952 -0.2729  0.5358 -0.6685
 9028SOL    HW138963   1.935   3.198   7.980  1.4331 -1.1404 -2.8624
 9028SOL    HW238964   1.805   3.221   7.905  1.5144  0.6041 -2.4747
 9029SOL     OW38965   4.114   1.136   1.516 -0.2238  0.2611 -0.4518
 9029SOL    HW138966   4.122   1.167   1.606 -1.3178 -0.5994 -0.0532
 9029SOL    HW238967   4.032   1.175   1.485 -0.4573 -0.4122 -0.6781
 9030SOL     OW38968   2.535   3.144  19.663 -0.7566 -0.7371  0.2616
 9030SOL    HW138969   2.616   3.185  19.691 -1.3039  0.4708  0.0620
 9030SOL    HW238970   2.477   3.149  19.739 -1.1213 -0.3510 -0.0373
 9031SOL     OW38971   3.933   2.876   3.723  0.0758 -0.2239 -0.2011
 9031SOL    HW138972   4.021   2.911   3.734  0.3560 -1.0354  0.1347
 9031SOL    HW238973   3.939   2.785   3.753 -0.5218 -0.7136 -1.5347
 9032SOL     OW38974   4.424   0.658  15.782  0.4787 -0.0641 -0.1732
 9032SOL    HW138975   4.512   0.621  15.781  0.9321  1.0135  1.3143
 9032SOL    HW238976   4.429   0.732  15.842 -1.0920  0.8470 -1.1677
 9033SOL     OW38977   2.934   3.106  19.495  0.4459 -0.2691  0.2291
 9033SOL    HW138978   2.890   3.166  19.556 -2.1989 -2.1097  0.1317
 9033SOL    HW238979   3.015   3.150  19.472  0.1216  1.7171  2.9136
 9034SOL     OW38980   3.470   1.019   6.697 -0.5793  0.3229  0.0040
 9034SOL    HW138981   3.468   0.975   6.782 -0.2776 -0.2119 -0.2614
 9034SOL    HW238982   3.528   0.965   6.644  1.3652  2.1491  0.2738
 9035SOL     OW38983   1.146   3.898  18.183  0.0361 -0.2954  0.5840
 9035SOL    HW138984   1.136   3.864  18.094 -0.1189  0.2740  0.3882
 9035SOL    HW238985   1.228   3.858  18.214  0.7508  0.5213 -0.2639
 9036SOL     OW38986   2.511   4.726   2.873 -0.2677 -0.0297 -0.6300
 9036SOL    HW138987   2.444   4.746   2.938  0.7217 -0.1807  0.4450
 9036SOL    HW238988   2.592   4.718   2.924  0.3848 -0.8498 -1.7903
 9037SOL     OW38989   3.159   2.152  19.788 -0.0888 -0.8672 -0.0403
 9037SOL    HW138990   3.064   2.159  19.790 -0.0029  0.9017 -1.8427
 9037SOL    HW238991   3.178   2.065  19.823 -2.1638  0.3660  4.0565
 9038SOL     OW38992   4.156   0.667   4.067 -0.0437  0.1240 -0.2999
 9038SOL    HW138993   4.199   0.734   4.013 -1.3091  0.2392 -1.1616
 9038SOL    HW238994   4.071   0.705   4.089 -0.2560 -0.6794  0.2506
 9039SOL     OW38995   2.953   2.499  16.854  0.1331  0.0205  0.3056
 9039SOL    HW138996   2.985   2.489  16.764  0.2968  0.7394  0.2869
 9039SOL    HW238997   2.954   2.410  16.889 -0.0866 -0.2852 -0.4575
 9040SOL     OW38998   1.823   1.115  18.826  0.5884 -0.3375 -0.1245
 9040SOL    HW138999   1.873   1.033  18.819 -0.1242 -0.5285 -3.0130
 9040SOL    HW239000   1.876   1.179  18.779 -0.3616  0.1842 -0.4652
 9041SOL     OW39001   4.612   0.909  15.559 -0.2625 -0.7892  0.0564
 9041SOL    HW139002   4.637   0.883  15.648 -3.5018  0.4561  1.3246
 9041SOL    HW239003   4.570   0.831  15.522  0.6165 -1.1381 -0.2145
 9042SOL     OW39004   1.504   3.863  10.606 -0.0095 -0.5717 -0.2055
 9042SOL    HW139005   1.415   3.897  10.600 -0.0063 -0.4533  0.4245
 9042SOL    HW239006   1.511   3.829  10.695  0.6955 -0.2371 -0.1273
 9043SOL     OW39007   3.300   2.625   4.378  0.0971  0.4893 -0.3336
 9043SOL    HW139008   3.346   2.546   4.405 -0.9307 -0.0028 -0.0308
 9043SOL    HW239009   3.335   2.694   4.435 -0.5262 -0.1420  0.8027
 9044SOL     OW39010   0.504   1.991   5.878 -0.3436 -0.2629 -0.4950
 9044SOL    HW139011   0.578   2.009   5.936 -0.0051 -0.2661 -0.9234
 9044SOL    HW239012   0.536   2.014   5.791 -1.0581  0.3256 -0.5940
 9045SOL     OW39013   3.837   0.522  20.468 -0.7898  0.0909  0.1059
 9045SOL    HW139014   3.751   0.485  20.490 -0.3343  0.5658  2.7171
 9045SOL    HW239015   3.850   0.591  20.533 -0.0565  2.4661 -2.5488
 9046SOL     OW39016   2.261   2.249  14.932  0.0646  0.4480  0.0886
 9046SOL    HW139017   2.318   2.282  15.001  0.9915  1.4097 -1.1359
 9046SOL    HW239018   2.227   2.166  14.966  0.3805  1.0110  1.7651
 9047SOL     OW39019   3.698   3.262   1.485 -0.1306  0.3255  0.0616
 9047SOL    HW139020   3.736   3.341   1.523 -1.2939  0.7641  0.3325
 9047SOL    HW239021   3.659   3.216   1.560  3.0271 -1.9228  0.3317
 9048SOL     OW39022   3.880   1.563  16.231 -0.2806 -0.2994  0.4752
 9048SOL    HW139023   3.814   1.625  16.263  1.2356  0.1218  2.7953
 9048SOL    HW239024   3.832   1.481  16.218 -1.5014  0.3245  1.0669
 9049SOL     OW39025   1.159   3.991   0.171  0.1042 -0.2702  0.1246
 9049SOL    HW139026   1.118   3.968   0.088  0.4496  2.2139 -0.7487
 9049SOL    HW239027   1.096   3.964   0.238 -0.8403 -0.8734 -1.0160
 9050SOL     OW39028   4.366   4.199   0.385  0.1924 -0.6254 -0.0805
 9050SOL    HW139029   4.368   4.115   0.339 -1.6188  0.4643 -2.1852
 9050SOL    HW239030   4.453   4.236   0.373  0.4305 -1.4041 -0.7172
 9051SOL     OW39031   3.345   1.702  20.209 -0.1805  0.3542 -0.3888
 9051SOL    HW139032   3.379   1.701  20.299  0.7471  2.2054 -0.7203
 9051SOL    HW239033   3.330   1.610  20.188 -1.2747 -0.0180  2.0056
 9052SOL     OW39034   3.415   2.998   1.467 -0.0406  0.4612  0.6095
 9052SOL    HW139035   3.326   2.965   1.474 -0.5301  1.3539 -1.2512
 9052SOL    HW239036   3.405   3.093   1.471  0.6779  0.6103 -0.9962
 9053SOL     OW39037   3.486   3.590   3.908  0.1559  0.0312  0.1707
 9053SOL    HW139038   3.499   3.673   3.953 -0.5915  0.7532 -0.9509
 9053SOL    HW239039   3.404   3.555   3.943  1.3949 -1.0989  1.9673
 9054SOL     OW39040   4.457   0.715  20.375  0.4097 -0.1568  0.7043
 9054SOL    HW139041   4.462   0.635  20.427  0.8306 -1.0496 -0.7221
 9054SOL    HW239042   4.548   0.739  20.358  0.2616 -0.1451 -0.0705
 9055SOL     OW39043   3.039   4.016  11.362 -0.3233 -0.6560  0.2020
 9055SOL    HW139044   3.122   4.051  11.329  0.3813 -2.5035 -0.0243
 9055SOL    HW239045   2.986   4.004  11.283 -0.7120  0.3044  0.3221
 9056SOL     OW39046   3.512   0.594   0.515  0.1269 -0.2859  0.2350
 9056SOL    HW139047   3.579   0.547   0.565 -1.7565 -1.3489  1.7640
 9056SOL    HW239048   3.519   0.684   0.545  1.3724 -0.2537 -0.1438
 9057SOL     OW39049   4.764   4.214   2.747  0.2439 -0.1323  0.3537
 9057SOL    HW139050   0.002   4.235   2.839  0.7734 -2.1842  0.7503
 9057SOL    HW239051   4.669   4.225   2.734  0.4277  1.7973  0.7195
 9058SOL     OW39052   1.773   3.330   9.539  0.2695 -0.0870 -0.2027
 9058SOL    HW139053   1.776   3.425   9.544  1.5243 -0.1612  0.3944
 9058SOL    HW239054   1.682   3.310   9.516 -0.0026  1.2475 -0.2788
 9059SOL     OW39055   2.043   1.606   8.644 -0.5184 -0.5502  0.1074
 9059SOL    HW139056   2.062   1.692   8.681  0.8159 -0.4064 -0.9342
 9059SOL    HW239057   1.949   1.609   8.624 -0.3573  0.8595 -0.4412
 9060SOL     OW39058   3.212   1.715   6.974 -0.6625  0.0989 -0.5538
 9060SOL    HW139059   3.243   1.790   7.025  0.9486 -0.2946 -0.9229
 9060SOL    HW239060   3.157   1.753   6.905  0.7085  1.0013 -1.1526
 9061SOL     OW39061   4.571   4.726  14.080 -0.1145  0.1024 -0.1602
 9061SOL    HW139062   4.511   4.744  14.007  0.4460  0.5985 -0.4980
 9061SOL    HW239063   4.569   4.631  14.090  0.4484 -0.0424 -1.3712
 9062SOL     OW39064   2.571   4.551  17.011  0.3241 -0.5181 -0.5009
 9062SOL    HW139065   2.666   4.563  17.005  0.1257  1.1965 -0.1990
 9062SOL    HW239066   2.551   4.565  17.104 -0.5752  1.5352 -1.0121
 9063SOL     OW39067   0.925   4.159   2.615 -0.4577  0.1864  0.8054
 9063SOL    HW139068   0.831   4.176   2.627 -0.2006  0.4247  2.5325
 9063SOL    HW239069   0.968   4.233   2.656  0.5127 -0.5164  1.0487
 9064SOL     OW39070   4.357   1.140  16.511  0.0032  0.0661 -0.1842
 9064SOL    HW139071   4.303   1.061  16.517 -1.3678  0.9783 -0.5392
 9064SOL    HW239072   4.322   1.198  16.578  0.2836  0.8304 -0.7087
 9065SOL     OW39073   0.649   2.786   0.800  0.5541 -0.9521 -0.1056
 9065SOL    HW139074   0.610   2.722   0.739  0.0819 -2.0787  1.3836
 9065SOL    HW239075   0.738   2.753   0.815  0.4224 -1.0670  0.4049
 9066SOL     OW39076   0.184   4.026   2.087 -0.1066  0.1039 -0.3291
 9066SOL    HW139077   0.277   4.048   2.087 -0.3897  1.2899 -1.0724
 9066SOL    HW239078   0.152   4.059   2.003 -1.0583 -0.8672 -0.3382
 9067SOL     OW39079   2.000   2.206  18.945 -0.3147 -0.5587  0.0959
 9067SOL    HW139080   1.934   2.150  18.986 -0.0227 -0.8518  0.1676
 9067SOL    HW239081   1.954   2.288  18.927 -0.6503 -0.6991  0.3086
 9068SOL     OW39082   3.830   0.346   4.317  0.1416 -0.2859  0.6418
 9068SOL    HW139083   3.797   0.257   4.323 -0.2301 -0.1795  0.2364
 9068SOL    HW239084   3.805   0.375   4.229  1.1564 -0.1396  0.4072
 9069SOL     OW39085   3.295   0.582  15.623  0.8276 -0.0302  0.5542
 9069SOL    HW139086   3.318   0.661  15.574  1.5711 -0.4050  0.3071
 9069SOL    HW239087   3.372   0.562  15.675  0.5837 -0.5038  0.7342
 9070SOL     OW39088   0.252   4.000  18.816  0.5216  0.7268 -0.7157
 9070SOL    HW139089   0.277   3.932  18.878  1.8809  1.7053 -0.2044
 9070SOL    HW239090   0.157   4.008  18.826  0.4646 -0.6162 -0.2913
 9071SOL     OW39091   1.124   2.101   1.362  0.7805  0.2838  0.1579
 9071SOL    HW139092   1.032   2.077   1.374  0.6458  1.0326  0.5980
 9071SOL    HW239093   1.145   2.154   1.438  1.9734 -1.0610  0.7673
 9072SOL     OW39094   2.030   4.671  17.468 -0.3441 -0.3345 -0.2885
 9072SOL    HW139095   2.117   4.682  17.505  0.3184 -1.3129 -1.5433
 9072SOL    HW239096   2.036   4.707  17.380 -1.8553  1.7843  0.4856
 9073SOL     OW39097   0.092   0.817   9.464  0.6214 -0.1146  0.1108
 9073SOL    HW139098   0.093   0.845   9.556 -1.1190 -1.6050  0.5723
 9073SOL    HW239099   0.023   0.869   9.424 -0.2343 -1.1986  0.1777
 9074SOL     OW39100   4.456   1.674  11.353  0.1545  0.1044  0.6652
 9074SOL    HW139101   4.541   1.711  11.377 -0.8879  1.8667  1.7130
 9074SOL    HW239102   4.393   1.745  11.372 -1.5006 -1.0693 -0.3849
 9075SOL     OW39103   1.777   3.026  17.684  0.2490  0.1253  0.3308
 9075SOL    HW139104   1.803   3.097  17.742  1.1140 -0.1218  0.2461
 9075SOL    HW239105   1.684   3.012  17.703  0.0319  1.3990  0.2128
 9076SOL     OW39106   0.192   1.417   2.581 -0.1319 -0.9471  0.3360
 9076SOL    HW139107   0.153   1.472   2.649  0.2643  2.3920 -2.1404
 9076SOL    HW239108   0.128   1.417   2.511  0.8429 -1.8785 -0.5468
 9077SOL     OW39109   4.435   2.839   1.693 -0.2855 -0.4621  0.0255
 9077SOL    HW139110   4.502   2.843   1.625 -0.6319  0.0547 -0.2849
 9077SOL    HW239111   4.387   2.922   1.685 -2.3336 -1.7466 -1.1627
 9078SOL     OW39112   1.979   3.285  15.601  0.4054  0.2612 -0.2767
 9078SOL    HW139113   1.954   3.355  15.662 -0.8747 -0.1146 -0.3892
 9078SOL    HW239114   2.039   3.230  15.652  0.8076  0.9931  0.0557
 9079SOL     OW39115   0.529   1.790  17.153  0.1010  0.0231  0.3714
 9079SOL    HW139116   0.563   1.773  17.240  0.8391 -0.1128  0.0577
 9079SOL    HW239117   0.580   1.865  17.122  0.6797 -0.6984 -0.4193
 9080SOL     OW39118   4.219   4.239   3.799  0.5708 -0.1318 -0.3931
 9080SOL    HW139119   4.183   4.327   3.807  0.9617  0.1033 -1.1684
 9080SOL    HW239120   4.237   4.212   3.889 -1.1441 -0.0926 -0.0311
 9081SOL     OW39121   1.846   3.871   5.920 -0.8324 -0.4618  0.4682
 9081SOL    HW139122   1.890   3.803   5.868  0.6804  0.7751  0.1038
 9081SOL    HW239123   1.841   3.946   5.861 -1.7653  0.0015  1.1393
 9082SOL     OW39124   3.309   2.648   1.788  0.4217  0.3116  0.0198
 9082SOL    HW139125   3.265   2.599   1.718 -0.2033  0.6904  0.1454
 9082SOL    HW239126   3.249   2.720   1.807  0.6295  0.2525  0.8922
 9083SOL     OW39127   1.795   1.037   1.077  0.1268 -0.1646  0.0966
 9083SOL    HW139128   1.825   0.947   1.087 -0.2792 -0.3486 -0.3510
 9083SOL    HW239129   1.869   1.083   1.037  0.2650 -0.3405  0.1516
 9084SOL     OW39130   2.032   4.619   4.920 -0.0798  0.2739  0.1607
 9084SOL    HW139131   2.029   4.686   4.988 -2.4833 -0.2995  0.6239
 9084SOL    HW239132   1.968   4.649   4.854  1.6551  0.4218 -1.4480
 9085SOL     OW39133   1.299   2.276  20.210 -0.5640 -0.3403 -0.1686
 9085SOL    HW139134   1.280   2.184  20.197 -1.2866  0.0885 -2.0238
 9085SOL    HW239135   1.392   2.285  20.188  0.1950 -1.1687  2.6944
 9086SOL     OW39136   1.506   4.113  18.200 -0.3402  0.3056  0.2597
 9086SOL    HW139137   1.571   4.159  18.254 -0.7271  2.6712 -1.3161
 9086SOL    HW239138   1.545   4.112  18.112 -0.5632 -1.9198  0.1825
 9087SOL     OW39139   0.802   0.546   3.023 -0.4659 -0.7036 -0.2784
 9087SOL    HW139140   0.843   0.460   3.028  0.2890 -0.2851  0.6956
 9087SOL    HW239141   0.739   0.538   2.951 -0.1832 -1.9735 -0.3907
 9088SOL     OW39142   2.848   0.950  17.656  0.2046 -0.2181  0.4845
 9088SOL    HW139143   2.929   0.900  17.646  0.7373  0.5189  1.0538
 9088SOL    HW239144   2.819   0.932  17.745 -1.1627 -1.8074 -0.2813
 9089SOL     OW39145   3.511   2.296  10.719  0.5629  0.0926  0.6735
 9089SOL    HW139146   3.568   2.312  10.643 -1.2704  2.7227 -0.1583
 9089SOL    HW239147   3.451   2.227  10.690 -0.6284  1.6278 -0.5302
 9090SOL     OW39148   1.037   4.167  20.956  0.3090  0.2233  0.2883
 9090SOL    HW139149   0.959   4.212  20.988  0.5761  0.1134  1.1071
 9090SOL    HW239150   1.066   4.114  21.030  0.6067 -0.4757 -0.3324
 9091SOL     OW39151   2.311   1.240  10.364  0.6631  0.5186  0.6591
 9091SOL    HW139152   2.324   1.203  10.276 -1.9855  0.5192  0.2617
 9091SOL    HW239153   2.352   1.176  10.423 -1.8687 -1.8842 -0.2082
 9092SOL     OW39154   4.323   2.112   5.924 -0.0219  0.5604  0.2391
 9092SOL    HW139155   4.403   2.147   5.885 -0.2691  2.2615  1.2466
 9092SOL    HW239156   4.281   2.063   5.854  1.9699 -0.4152 -0.2574
 9093SOL     OW39157   2.627   2.474   5.284  0.0053  1.0606  0.2971
 9093SOL    HW139158   2.597   2.489   5.194  1.8720 -1.5743 -0.7634
 9093SOL    HW239159   2.723   2.481   5.279  0.3356 -2.6006  1.4217
 9094SOL     OW39160   1.916   4.036   4.705 -0.1848 -0.3486 -0.4360
 9094SOL    HW139161   1.851   4.040   4.635  0.7035  2.5821 -1.0993
 9094SOL    HW239162   1.955   3.949   4.697 -1.3663 -0.7013 -2.3996
 9095SOL     OW39163   3.837   3.425  20.498  0.2022  0.3696 -0.1762
 9095SOL    HW139164   3.912   3.474  20.464  0.2501  0.0088 -0.5871
 9095SOL    HW239165   3.797   3.484  20.561  0.5282  0.7661 -0.3391
 9096SOL     OW39166   1.409   2.572  20.282  0.9069 -0.1085  0.4000
 9096SOL    HW139167   1.389   2.612  20.367 -1.7671 -0.1496 -0.1890
 9096SOL    HW239168   1.351   2.495  20.278  1.8640 -0.7654 -0.9498
 9097SOL     OW39169   0.066   3.515  14.567 -0.8270 -0.0555 -0.1868
 9097SOL    HW139170   4.775   3.547  14.628  2.1485  1.4869  2.2674
 9097SOL    HW239171   0.096   3.433  14.606 -1.0309 -0.5624 -1.1036
 9098SOL     OW39172   2.452   3.430  19.483 -0.3021 -0.0800  0.3145
 9098SOL    HW139173   2.511   3.355  19.487 -0.3903 -0.2155 -1.1579
 9098SOL    HW239174   2.368   3.396  19.517 -0.0905 -0.3968  0.5267
 9099SOL     OW39175   1.040   3.075  20.923  0.3844  0.3144 -0.0468
 9099SOL    HW139176   1.026   3.072  21.017  1.3471  0.1885  0.0853
 9099SOL    HW239177   1.086   3.157  20.908  1.3453 -0.2630 -0.2698
 9100SOL     OW39178   1.476   4.762  15.316  0.0050  0.4801 -0.0847
 9100SOL    HW139179   1.452   0.064  15.365 -0.5003  0.8376 -0.9032
 9100SOL    HW239180   1.407   4.753  15.250  0.8563  0.1746 -0.9281
 9101SOL     OW39181   1.483   4.513  15.797 -0.3619  0.6606 -0.0399
 9101SOL    HW139182   1.425   4.491  15.725  2.0307  1.4302 -2.2060
 9101SOL    HW239183   1.500   4.429  15.841 -1.0437  0.0596 -0.9317
 9102SOL     OW39184   3.162   1.156  21.027  0.1961 -0.1437 -0.2706
 9102SOL    HW139185   3.198   1.090  21.086  0.5855 -0.0102 -0.3601
 9102SOL    HW239186   3.080   1.183  21.068  0.5410  0.0620  0.2846
 9103SOL     OW39187   1.370   3.099  20.784  0.4012  0.0326  0.0628
 9103SOL    HW139188   1.343   3.102  20.876 -0.1134  0.2418 -0.0938
 9103SOL    HW239189   1.458   3.138  20.784  1.6445 -2.8099  0.9060
 9104SOL     OW39190   3.532   3.751  16.754 -0.2291  0.1453 -0.0508
 9104SOL    HW139191   3.564   3.801  16.679  1.2554  0.3383  0.7256
 9104SOL    HW239192   3.510   3.665  16.718 -1.1607  0.7854 -1.0423
 9105SOL     OW39193   1.166   1.452  18.913  0.3231  0.2517 -0.0500
 9105SOL    HW139194   1.109   1.389  18.957  1.7425  0.3396  1.9404
 9105SOL    HW239195   1.143   1.445  18.821  0.8733 -3.6180  0.0989
 9106SOL     OW39196   2.861   0.489  19.930 -0.0311 -0.9416 -0.5195
 9106SOL    HW139197   2.839   0.397  19.942  0.2456 -1.1095 -1.2974
 9106SOL    HW239198   2.944   0.501  19.975 -1.4622 -0.4245  2.0021
 9107SOL     OW39199   0.980   2.820  18.962  0.0792  0.2443  0.1757
 9107SOL    HW139200   0.979   2.809  18.867 -2.5210 -2.3371  0.5143
 9107SOL    HW239201   1.061   2.777  18.989  0.0380 -0.3782 -0.6846
 9108SOL     OW39202   0.512   1.637   3.733 -0.1647 -0.0912 -0.1481
 9108SOL    HW139203   0.570   1.591   3.794 -0.9753 -0.0165  0.6819
 9108SOL    HW239204   0.462   1.697   3.788  0.8826  1.7717 -1.2414
 9109SOL     OW39205   4.501   0.266   5.388 -0.4057  0.4068 -0.3422
 9109SOL    HW139206   4.419   0.252   5.435 -0.8054 -0.6345 -1.3524
 9109SOL    HW239207   4.505   0.360   5.375 -1.3903  0.4757 -0.1791
 9110SOL     OW39208   0.737   0.291   6.241  0.0484  0.1745  0.9142
 9110SOL    HW139209   0.811   0.277   6.301  0.7892  0.3817  0.0469
 9110SOL    HW239210   0.764   0.366   6.188 -1.1246  0.7451  1.1297
 9111SOL     OW39211   4.035   0.949  20.967 -0.3106 -0.5930  0.1366
 9111SOL    HW139212   4.116   0.899  20.968 -0.4243 -0.7754  0.3257
 9111SOL    HW239213   4.063   1.040  20.958 -0.1414 -0.7515 -0.9231
 9112SOL     OW39214   2.120   0.472   5.069  0.5790 -0.4738  0.7701
 9112SOL    HW139215   2.067   0.413   5.017  1.3291 -1.3969  1.0507
 9112SOL    HW239216   2.084   0.465   5.158  0.4113 -0.2120  0.7222
 9113SOL     OW39217   0.082   0.627  13.236 -0.6863  0.1910  0.1249
 9113SOL    HW139218   0.085   0.591  13.147  0.2996  0.5459  0.0121
 9113SOL    HW239219   0.172   0.656  13.253 -1.3223  1.9249  0.5087
 9114SOL     OW39220   1.659   3.477  16.929  0.4139 -0.3564 -0.5198
 9114SOL    HW139221   1.723   3.417  16.891 -0.1714 -1.2038 -0.1728
 9114SOL    HW239222   1.692   3.565  16.908  2.0154 -0.7957  0.2010
 9115SOL     OW39223   4.656   3.001   2.206  0.0304 -0.7183 -0.0775
 9115SOL    HW139224   4.708   3.026   2.282 -0.0971 -1.0020  0.1069
 9115SOL    HW239225   4.591   3.070   2.197 -0.3773 -1.0290  0.4835
 9116SOL     OW39226   1.840   3.880   5.442  0.1880 -0.1835  0.6894
 9116SOL    HW139227   1.804   3.795   5.416 -2.3561  0.5596  1.7557
 9116SOL    HW239228   1.903   3.860   5.511 -0.2312 -1.2211  0.7691
 9117SOL     OW39229   2.431   0.080  17.262 -0.6805 -0.0478 -0.0179
 9117SOL    HW139230   2.350   0.086  17.212  0.0888  0.9616 -1.1341
 9117SOL    HW239231   2.477   0.161  17.244  0.0598 -0.1070  1.5444
 9118SOL     OW39232   4.575   0.679   3.238 -0.8584  0.5667  0.4097
 9118SOL    HW139233   4.573   0.585   3.226  0.5740  0.6472 -0.4225
 9118SOL    HW239234   4.504   0.712   3.183 -0.2869  0.1233 -0.5927
 9119SOL     OW39235   2.317   3.188  16.202  0.1951 -0.0801 -0.6763
 9119SOL    HW139236   2.330   3.232  16.117 -0.3214  0.6814 -0.3549
 9119SOL    HW239237   2.245   3.127  16.186 -0.5390  0.7529 -0.5156
 9120SOL     OW39238   1.007   0.234  19.383  0.0421  0.4428  1.1353
 9120SOL    HW139239   1.085   0.184  19.404  1.2480  3.0124  2.7826
 9120SOL    HW239240   1.034   0.290  19.309 -0.5947  0.4151  0.8827
 9121SOL     OW39241   3.431   1.494  19.109 -0.2159  0.1765  0.0968
 9121SOL    HW139242   3.361   1.556  19.129 -0.4834 -0.0163 -0.2483
 9121SOL    HW239243   3.487   1.542  19.047  0.3421  0.5897  0.9183
 9122SOL     OW39244   0.113   3.871   1.283 -0.1306 -0.0976 -0.2360
 9122SOL    HW139245   0.085   3.925   1.356 -1.9840 -0.3488 -0.7639
 9122SOL    HW239246   0.151   3.932   1.221  1.2782  0.1366  0.8608
 9123SOL     OW39247   3.758   2.844  17.290  0.6408 -0.0236 -0.2498
 9123SOL    HW139248   3.710   2.839  17.373 -1.3208 -2.7655 -1.5762
 9123SOL    HW239249   3.734   2.930  17.254 -0.4244  0.1361  0.8395
 9124SOL     OW39250   2.367   4.054   4.496  0.5455  0.2831 -0.3738
 9124SOL    HW139251   2.362   4.134   4.547  0.9031 -0.4599  0.8395
 9124SOL    HW239252   2.312   4.069   4.420  1.4950  2.0912 -0.6974
 9125SOL     OW39253   1.728   3.886  10.452 -0.7030  0.5345  0.7573
 9125SOL    HW139254   1.789   3.946  10.495  0.5806  0.2067 -0.6371
 9125SOL    HW239255   1.649   3.892  10.505 -0.3014  2.8318  1.1277
 9126SOL     OW39256   1.197   0.763   3.582 -0.1792  0.4159 -0.1687
 9126SOL    HW139257   1.208   0.730   3.671  0.8453  1.2618  0.0117
 9126SOL    HW239258   1.202   0.685   3.526  0.5831  0.0736  0.3891
 9127SOL     OW39259   2.836   1.716   0.748 -0.0633 -0.3778  0.4701
 9127SOL    HW139260   2.762   1.655   0.757 -1.2132  1.0717  0.6875
 9127SOL    HW239261   2.803   1.799   0.782  1.8774  0.0919  1.1669
 9128SOL     OW39262   4.187   0.134   5.651 -0.1777  0.0555 -0.1661
 9128SOL    HW139263   4.102   0.151   5.689 -0.3065  0.0779 -0.4621
 9128SOL    HW239264   4.249   0.173   5.712 -0.4671  1.4172 -0.7463
 9129SOL     OW39265   1.927   1.813   0.373  0.1587 -0.1144 -0.2761
 9129SOL    HW139266   1.870   1.888   0.354  0.5688 -0.0166 -1.1091
 9129SOL    HW239267   1.960   1.785   0.287  0.0503 -1.2123  0.0377
 9130SOL     OW39268   2.623   1.302   3.928  0.7520 -0.2714 -0.3623
 9130SOL    HW139269   2.712   1.279   3.955  1.1407  1.0186 -0.5542
 9130SOL    HW239270   2.569   1.229   3.958  1.4782  0.2493  2.1685
 9131SOL     OW39271   2.477   0.504  19.750 -0.3312 -0.3497 -0.2222
 9131SOL    HW139272   2.410   0.571  19.756  0.1268  0.0485  0.4226
 9131SOL    HW239273   2.560   0.552  19.748 -0.0763 -0.8225 -1.3065
 9132SOL     OW39274   1.768   3.964  14.864  0.4344  0.8125  0.6321
 9132SOL    HW139275   1.760   3.937  14.772  0.8608  1.6002  0.3615
 9132SOL    HW239276   1.762   3.883  14.913  0.6999  0.3270 -0.1294
 9133SOL     OW39277   1.399   4.260  16.219  0.2904  0.2192  0.4174
 9133SOL    HW139278   1.454   4.192  16.257  0.5911  0.4874  0.4638
 9133SOL    HW239279   1.374   4.226  16.133 -0.4626 -0.4299  0.8904
 9134SOL     OW39280   3.055   4.632   5.372 -0.2181  0.0180 -0.5969
 9134SOL    HW139281   3.031   4.569   5.440  1.0114 -0.9452 -1.0541
 9134SOL    HW239282   2.976   4.645   5.321 -0.2257 -1.8120 -1.0315
 9135SOL     OW39283   2.826   0.339   2.417 -0.5984 -0.3137 -0.8535
 9135SOL    HW139284   2.856   0.379   2.499 -2.0444  0.0341 -0.5040
 9135SOL    HW239285   2.858   0.399   2.349  1.8016 -1.3246 -0.6259
 9136SOL     OW39286   3.185   1.981   9.586 -0.0040  0.4507 -0.5264
 9136SOL    HW139287   3.244   1.906   9.598  1.6707  1.8683  0.0883
 9136SOL    HW239288   3.106   1.956   9.634  0.4060 -1.0897 -0.6310
 9137SOL     OW39289   3.598   0.364   4.627  0.3666 -0.0049  0.6686
 9137SOL    HW139290   3.535   0.293   4.616  0.6790  0.0450 -1.4148
 9137SOL    HW239291   3.679   0.321   4.655  0.4065 -0.4058 -0.0787
 9138SOL     OW39292   1.499   4.407   0.002  1.0802  0.6237  0.2688
 9138SOL    HW139293   1.489   4.361  21.115  0.7014 -0.3377  0.8509
 9138SOL    HW239294   1.586   4.382   0.034  1.0652  0.6825  0.3577
 9139SOL     OW39295   1.638   3.994  18.616  0.0419  0.0271 -0.6155
 9139SOL    HW139296   1.554   4.006  18.572 -0.1329  0.4902 -0.1490
 9139SOL    HW239297   1.618   4.001  18.709  0.5996  0.1650 -0.5040
 9140SOL     OW39298   1.477   3.904  20.543  0.1855  0.3336 -0.3534
 9140SOL    HW139299   1.551   3.849  20.567  0.3757  1.5131  1.7127
 9140SOL    HW239300   1.510   3.994  20.551 -1.1942  0.8323 -0.2721
 9141SOL     OW39301   1.888   0.489  19.834  0.2351 -0.6679  0.2966
 9141SOL    HW139302   1.866   0.461  19.923  0.4247 -1.6054  0.0437
 9141SOL    HW239303   1.963   0.436  19.809 -0.1473 -0.7787 -0.6255
 9142SOL     OW39304   1.465   2.482  19.045 -0.4389 -0.2780  0.0607
 9142SOL    HW139305   1.486   2.414  19.109 -0.2242 -1.0169 -0.7835
 9142SOL    HW239306   1.462   2.435  18.961 -1.1275  0.6039 -0.4062
 9143SOL     OW39307   2.875   4.696   1.785  0.0513 -0.1680  0.7292
 9143SOL    HW139308   2.790   4.667   1.752 -0.5905  1.1033  1.2675
 9143SOL    HW239309   2.874   0.015   1.775  0.7906 -0.0075  2.2219
 9144SOL     OW39310   0.281   3.524  19.552  0.3455  0.2224 -0.0020
 9144SOL    HW139311   0.316   3.457  19.610  0.7622  1.6505  1.4079
 9144SOL    HW239312   0.191   3.536  19.581 -0.3226 -1.1233 -1.5177
 9145SOL     OW39313   3.344   3.818  20.327  0.0646 -0.7667  0.6496
 9145SOL    HW139314   3.395   3.747  20.365 -0.7479 -2.1848 -0.8909
 9145SOL    HW239315   3.328   3.791  20.236 -0.9051  1.0140  0.2690
 9146SOL     OW39316   1.076   3.449   0.000 -0.0366 -0.6034  0.4381
 9146SOL    HW139317   1.164   3.428  21.164  0.3285 -1.6237  2.0551
 9146SOL    HW239318   1.017   3.410  21.132  0.6755 -2.9459  1.1992
 9147SOL     OW39319   4.372   1.989  18.862 -0.4735 -0.5796 -0.6438
 9147SOL    HW139320   4.298   1.967  18.806 -0.6661  1.1328 -1.0760
 9147SOL    HW239321   4.339   2.058  18.919  1.4040  1.6641 -2.2458
 9148SOL     OW39322   1.985   4.432  16.894 -0.0936  0.2318  0.5131
 9148SOL    HW139323   2.004   4.354  16.841  1.8971  0.9502  0.1835
 9148SOL    HW239324   1.914   4.475  16.847 -0.7342 -1.0122  0.3196
 9149SOL     OW39325   2.075   0.759   0.735 -0.1971  0.0033 -0.0048
 9149SOL    HW139326   2.127   0.690   0.694 -0.1133  0.0790 -0.0258
 9149SOL    HW239327   2.068   0.826   0.668  1.2341  0.7919  0.6273
 9150SOL     OW39328   3.516   1.829   3.105 -0.0254 -0.6850 -0.0350
 9150SOL    HW139329   3.523   1.736   3.128 -1.4131 -0.9040 -0.4790
 9150SOL    HW239330   3.604   1.854   3.078  0.5780 -1.6102  1.0984
 9151SOL     OW39331   4.534   1.156  16.295  0.1381  0.2173 -0.3945
 9151SOL    HW139332   4.514   1.134  16.386  0.8211 -1.4924 -0.6505
 9151SOL    HW239333   4.493   1.086  16.244 -0.9907  1.6429 -1.4573
 9152SOL     OW39334   2.113   2.214   7.008  0.6909 -0.0579 -0.1472
 9152SOL    HW139335   2.042   2.278   7.014  0.3922 -0.2612 -1.4885
 9152SOL    HW239336   2.155   2.216   7.094 -0.1046  1.0327  0.2097
 9153SOL     OW39337   3.162   3.470   0.247  0.2145 -0.1263  0.8135
 9153SOL    HW139338   3.145   3.560   0.276  0.9450  0.3585 -0.2170
 9153SOL    HW239339   3.257   3.462   0.250  0.1115 -1.0094  1.3432
 9154SOL     OW39340   0.754   0.904  10.093 -0.2979  1.0254 -0.4590
 9154SOL    HW139341   0.676   0.952  10.067 -0.7798 -0.3132 -1.5629
 9154SOL    HW239342   0.726   0.812  10.094  0.4524  0.8240  2.1730
 9155SOL     OW39343   0.526   0.374   4.096  0.4298 -1.0713 -0.1737
 9155SOL    HW139344   0.612   0.416   4.102 -0.2175  0.2689 -0.2939
 9155SOL    HW239345   0.471   0.423   4.159 -0.0113 -2.4713  0.5320
 9156SOL     OW39346   1.854   1.511   0.638  0.6364 -0.3315  0.0733
 9156SOL    HW139347   1.830   1.567   0.711 -0.7635  0.5060 -1.0300
 9156SOL    HW239348   1.941   1.542   0.612  0.8177 -0.1457  0.9158
 9157SOL     OW39349   1.186   4.516   1.639 -0.0733  0.1892 -0.8314
 9157SOL    HW139350   1.182   4.610   1.621 -1.9712  0.3063  0.1400
 9157SOL    HW239351   1.131   4.476   1.572 -2.4522  0.1320  1.1097
 9158SOL     OW39352   0.735   0.590   1.467 -0.4735 -0.0750  0.2263
 9158SOL    HW139353   0.688   0.648   1.527  0.0082 -1.6897  2.1576
 9158SOL    HW239354   0.747   0.509   1.516 -1.7363 -2.0440 -2.7413
 9159SOL     OW39355   2.156   4.508  16.642  0.3898 -0.0329  0.2638
 9159SOL    HW139356   2.089   4.564  16.680  2.5717  2.0727  1.0246
 9159SOL    HW239357   2.216   4.491  16.715 -0.3446 -3.4257  0.0692
 9160SOL     OW39358   1.982   3.642   3.355  0.4713  0.0850  0.5039
 9160SOL    HW139359   1.965   3.736   3.349 -0.9883 -0.2627 -0.7643
 9160SOL    HW239360   1.911   3.607   3.409  0.6695 -0.3850  0.4629
 9161SOL     OW39361   4.477   3.303   6.823 -0.8234 -0.3706  0.0908
 9161SOL    HW139362   4.382   3.313   6.820 -0.6837  0.3293 -1.8226
 9161SOL    HW239363   4.503   3.344   6.905 -2.0346  0.5492  0.0188
 9162SOL     OW39364   0.556   0.291  15.891  0.3833 -0.1660 -0.2966
 9162SOL    HW139365   0.577   0.376  15.929 -0.8805  1.3080 -2.9478
 9162SOL    HW239366   0.461   0.284  15.898  0.5447 -1.6431  0.5300
 9163SOL     OW39367   1.652   3.976  12.942 -0.1963 -0.6329 -0.2576
 9163SOL    HW139368   1.732   3.946  12.985  0.2011 -0.6717 -1.0287
 9163SOL    HW239369   1.637   4.064  12.979  0.2850 -0.5636 -0.2302
 9164SOL     OW39370   3.977   1.641  10.023 -0.0445 -0.6770  0.4592
 9164SOL    HW139371   3.929   1.641   9.940 -0.3034  0.4847  0.6128
 9164SOL    HW239372   4.039   1.714  10.016 -0.4612 -0.2183  1.5168
 9165SOL     OW39373   4.137   0.928   3.113 -0.1286 -0.2429  0.1373
 9165SOL    HW139374   4.084   0.999   3.148 -2.2019 -1.3357 -0.8164
 9165SOL    HW239375   4.136   0.941   3.018  1.1411 -0.3783  0.1007
 9166SOL     OW39376   2.562   3.983   2.693  0.2078 -0.7709  0.0015
 9166SOL    HW139377   2.486   3.962   2.747 -0.7701 -0.6711 -1.3356
 9166SOL    HW239378   2.626   4.021   2.755 -1.0394 -0.3280  1.0164
 9167SOL     OW39379   2.110   3.782  14.549 -0.3951  0.3534 -0.3332
 9167SOL    HW139380   2.107   3.839  14.625  3.0222  1.2889 -0.9061
 9167SOL    HW239381   2.136   3.697  14.583  2.8437  1.1943 -0.7078
 9168SOL     OW39382   1.765   1.764  13.571 -0.1797 -0.4751  0.1849
 9168SOL    HW139383   1.723   1.832  13.519  0.7874 -0.4078 -0.4984
 9168SOL    HW239384   1.809   1.708  13.507 -0.8889 -1.6756  0.7479
 9169SOL     OW39385   3.020   0.617  17.566 -0.6023  0.3857  0.2037
 9169SOL    HW139386   2.953   0.634  17.631 -0.9800  0.1266 -0.1133
 9169SOL    HW239387   3.035   0.701  17.523 -1.2461  0.2909 -0.2143
 9170SOL     OW39388   2.744   1.463   0.125  0.4138 -0.1092  0.6940
 9170SOL    HW139389   2.765   1.414   0.046 -1.0963  2.3679 -1.2472
 9170SOL    HW239390   2.828   1.496   0.157  0.8167  0.4112 -0.8936
 9171SOL     OW39391   1.525   1.639  17.142  0.2149 -0.5109 -0.1432
 9171SOL    HW139392   1.546   1.592  17.061 -1.4535 -1.9835  0.2811
 9171SOL    HW239393   1.577   1.719  17.137  1.7326 -1.5846 -1.6822
 9172SOL     OW39394   0.178   2.238   2.342 -0.2106 -0.1701  0.0506
 9172SOL    HW139395   0.260   2.228   2.390 -0.4501  0.4270  0.5776
 9172SOL    HW239396   0.200   2.295   2.268 -0.4799  1.1143  0.9711
 9173SOL     OW39397   1.547   1.895  18.215 -0.3484 -0.5331  0.1426
 9173SOL    HW139398   1.471   1.891  18.157  0.7531 -1.5205 -1.2167
 9173SOL    HW239399   1.612   1.947  18.166  0.0743 -0.2121  1.0424
 9174SOL     OW39400   3.486   2.303  15.527  0.1446 -0.0763 -0.3552
 9174SOL    HW139401   3.539   2.226  15.509  0.4698 -0.2546  1.4170
 9174SOL    HW239402   3.484   2.350  15.443  0.6463 -1.5641 -1.2009
 9175SOL     OW39403   1.340   4.406  19.687 -0.1051  0.0647  0.0332
 9175SOL    HW139404   1.330   4.501  19.680 -0.2292  0.0994  0.6935
 9175SOL    HW239405   1.431   4.390  19.659 -0.3026  0.3008 -0.7572
 9176SOL     OW39406   2.316   3.076  19.828 -0.5042  0.3086 -0.7312
 9176SOL    HW139407   2.238   3.121  19.861  0.2324  0.9537  0.1645
 9176SOL    HW239408   2.324   2.999  19.884  1.7437  2.3233  1.7732
 9177SOL     OW39409   2.028   3.772  13.803 -0.3964 -0.2889  0.3385
 9177SOL    HW139410   2.044   3.678  13.791 -1.8476 -0.5049  0.1287
 9177SOL    HW239411   2.075   3.793  13.884  1.6633 -0.7554 -0.7453
 9178SOL     OW39412   2.777   4.367  11.974 -0.7544  0.3981  0.1922
 9178SOL    HW139413   2.763   4.461  11.991 -0.1399  0.5792 -0.2977
 9178SOL    HW239414   2.766   4.326  12.059  2.2935  1.3045  1.0242
 9179SOL     OW39415   1.725   2.886  11.223 -0.1902 -0.3294 -0.0941
 9179SOL    HW139416   1.706   2.972  11.262 -0.9833 -0.2663 -0.6122
 9179SOL    HW239417   1.640   2.843  11.219 -0.2112 -0.0454 -2.4445
 9180SOL     OW39418   1.472   2.556   3.834 -0.3608 -0.0228 -0.6594
 9180SOL    HW139419   1.515   2.604   3.905 -1.4779 -1.2782  0.8638
 9180SOL    HW239420   1.380   2.556   3.857 -0.6636 -0.8742 -1.8685
 9181SOL     OW39421   2.418   3.801   4.421 -0.3502 -0.1889 -0.2371
 9181SOL    HW139422   2.332   3.763   4.440 -0.4438  0.0561 -0.1684
 9181SOL    HW239423   2.416   3.887   4.463 -1.0378  0.8653 -2.4436
 9182SOL     OW39424   1.691   3.855   1.541 -0.0906 -0.0701  0.1013
 9182SOL    HW139425   1.629   3.805   1.489 -0.9162 -1.0696  2.0572
 9182SOL    HW239426   1.769   3.800   1.546  0.2655  0.3613 -0.7434
 9183SOL     OW39427   0.439   2.397   7.924 -0.1751  0.3941  0.4531
 9183SOL    HW139428   0.531   2.379   7.903 -0.0513  0.9770  0.4906
 9183SOL    HW239429   0.433   2.493   7.923 -0.5436  0.3797  1.4761
 9184SOL     OW39430   0.529   3.850   9.664 -0.2701  0.1252  0.5437
 9184SOL    HW139431   0.622   3.848   9.645 -0.6717 -0.1412 -1.3213
 9184SOL    HW239432   0.499   3.935   9.633 -1.4545 -1.4050 -2.5001
 9185SOL     OW39433   1.448   0.592  18.312  0.0982  0.4083  0.3809
 9185SOL    HW139434   1.457   0.512  18.364 -1.1929  0.4148  0.6002
 9185SOL    HW239435   1.518   0.585  18.247  0.7875 -0.2988  1.1837
 9186SOL     OW39436   0.087   0.176  16.548 -0.3890  0.0104 -0.0187
 9186SOL    HW139437   0.075   0.255  16.496 -0.5457 -1.2054 -1.8190
 9186SOL    HW239438   0.014   0.119  16.523 -1.1597 -0.0708  2.4244
 9187SOL     OW39439   1.478   2.917   3.821 -0.3977 -0.1754  0.2664
 9187SOL    HW139440   1.480   2.822   3.827  1.4143 -0.1169  0.5831
 9187SOL    HW239441   1.563   2.941   3.783 -0.9661  1.2832 -0.0873
 9188SOL     OW39442   1.398   1.782  10.006 -0.7789  0.5646 -0.2382
 9188SOL    HW139443   1.477   1.740   9.972 -0.8193  0.1642  0.1659
 9188SOL    HW239444   1.429   1.831  10.083 -0.6393  1.6811 -1.0005
 9189SOL     OW39445   3.263   3.442  18.449  0.0784  0.3699  0.1339
 9189SOL    HW139446   3.197   3.502  18.415  2.8066  1.5826 -2.9971
 9189SOL    HW239447   3.307   3.491  18.519 -1.4741 -0.0047  1.3854
 9190SOL     OW39448   0.994   3.675  19.683 -0.2314 -0.0479  0.3088
 9190SOL    HW139449   1.026   3.765  19.691  0.3749 -0.1813 -0.5523
 9190SOL    HW239450   0.907   3.676  19.722 -0.0229  0.8060  0.7356
 9191SOL     OW39451   0.717   2.566   2.393 -0.2122  0.3637  0.2806
 9191SOL    HW139452   0.676   2.650   2.412 -0.4328  0.1566  0.7135
 9191SOL    HW239453   0.655   2.522   2.334  0.2887  0.8427 -0.6074
 9192SOL     OW39454   1.626   2.866  16.188  0.4083 -0.6596  0.3878
 9192SOL    HW139455   1.647   2.810  16.264 -1.4348 -0.8374  0.7666
 9192SOL    HW239456   1.532   2.852  16.173  0.7873 -0.6756 -1.9788
 9193SOL     OW39457   2.145   2.727  19.348 -0.0443 -0.6051 -0.4276
 9193SOL    HW139458   2.217   2.665  19.356  0.8920  0.7169  1.4743
 9193SOL    HW239459   2.066   2.674  19.357  0.7249 -1.7909 -0.6759
 9194SOL     OW39460   3.855   1.202  18.452  0.1516 -0.1779  0.0914
 9194SOL    HW139461   3.832   1.259  18.378 -0.0840  0.8513  0.9469
 9194SOL    HW239462   3.882   1.263  18.521 -0.6496 -1.0785  1.1998
 9195SOL     OW39463   0.288   3.586   3.673 -0.1984  0.4875 -0.3047
 9195SOL    HW139464   0.201   3.548   3.681  0.0337  0.2929  1.2570
 9195SOL    HW239465   0.279   3.675   3.707  0.5795 -0.0679  1.3809
 9196SOL     OW39466   1.632   2.465  20.066  0.2563 -0.1904  0.4668
 9196SOL    HW139467   1.690   2.469  20.142 -0.3891  1.7838  0.8614
 9196SOL    HW239468   1.560   2.524  20.088  0.1610  0.5168 -1.7438
 9197SOL     OW39469   3.254   1.357  16.616 -0.0075 -0.1639 -0.0921
 9197SOL    HW139470   3.166   1.341  16.649 -0.0313 -0.3976 -0.2642
 9197SOL    HW239471   3.290   1.424  16.673  0.2788 -1.2254  0.9745
 9198SOL     OW39472   0.070   4.588   4.158  0.6875  0.0708  0.3166
 9198SOL    HW139473   0.070   4.684   4.155 -0.1622  0.1015  1.0885
 9198SOL    HW239474   0.121   4.567   4.237  0.1289 -0.0964  0.6309
 9199SOL     OW39475   4.500   0.004   4.251 -0.3739 -0.4539 -0.2923
 9199SOL    HW139476   4.459   4.711   4.303  3.3809 -0.4688  2.6220
 9199SOL    HW239477   4.480   0.085   4.298 -0.2079 -0.0837 -0.8502
 9200SOL     OW39478   3.976   4.359   3.370 -0.2755 -0.4684  0.1691
 9200SOL    HW139479   4.018   4.361   3.284 -1.0996 -1.6170 -0.2667
 9200SOL    HW239480   4.039   4.316   3.427 -0.0300 -0.3740 -0.0320
 9201SOL     OW39481   1.588   3.193   2.352 -0.5035  0.1725  0.3487
 9201SOL    HW139482   1.602   3.099   2.346 -1.3854  0.0302  0.4308
 9201SOL    HW239483   1.542   3.205   2.435 -0.7731  0.6254  0.1365
 9202SOL     OW39484   2.957   2.374  15.675 -0.5110  0.2972 -0.2482
 9202SOL    HW139485   3.010   2.298  15.652 -0.2124  0.1430  0.9336
 9202SOL    HW239486   2.871   2.357  15.635  0.2069  0.3594 -1.8061
 9203SOL     OW39487   2.896   3.166   2.614 -0.0768 -0.0841 -0.0971
 9203SOL    HW139488   2.958   3.105   2.652 -0.1487  0.5014  0.9715
 9203SOL    HW239489   2.947   3.216   2.550  0.5505  0.3709  0.7503
 9204SOL     OW39490   3.240   3.624   0.573  0.0851  0.1752 -0.2927
 9204SOL    HW139491   3.304   3.695   0.577 -0.7895  0.9950 -0.8842
 9204SOL    HW239492   3.177   3.651   0.506 -0.6894 -0.7891  0.0321
 9205SOL     OW39493   2.303   0.789   5.709 -0.0768  0.5124  0.4948
 9205SOL    HW139494   2.374   0.846   5.680  0.5648 -0.5297  0.0343
 9205SOL    HW239495   2.292   0.726   5.638 -1.3725  0.6004  0.6267
 9206SOL     OW39496   0.764   0.121   0.790 -0.2813  0.5786  0.2329
 9206SOL    HW139497   0.727   0.206   0.764  0.0635  0.7017  0.1460
 9206SOL    HW239498   0.810   0.090   0.711  0.1641  0.6228  0.4755
 9207SOL     OW39499   0.934   3.466   1.193 -0.3626  0.5474 -1.1015
 9207SOL    HW139500   0.877   3.418   1.132  0.5611  0.6354 -2.0367
 9207SOL    HW239501   0.967   3.539   1.142 -1.3334  1.8813  0.1808
 9208SOL     OW39502   3.433   4.403  16.203 -0.7149  0.2479  0.4521
 9208SOL    HW139503   3.380   4.322  16.204 -0.8473  0.3398  0.9090
 9208SOL    HW239504   3.523   4.372  16.210 -0.7755  0.1470  0.8026
 9209SOL     OW39505   1.435   4.174  15.426  0.3206 -0.4807 -0.2574
 9209SOL    HW139506   1.469   4.237  15.362  0.5791  0.3206  0.6652
 9209SOL    HW239507   1.343   4.165  15.404  0.7448 -1.3343 -1.6858
 9210SOL     OW39508   0.382   3.434   9.235 -0.4579  0.3549  0.1782
 9210SOL    HW139509   0.401   3.499   9.167  0.7202 -0.1397  0.0336
 9210SOL    HW239510   0.287   3.423   9.231 -0.4241  0.5267 -1.2109
 9211SOL     OW39511   2.509   4.066  21.133  0.3070 -0.3284 -0.0841
 9211SOL    HW139512   2.416   4.081  21.118  0.7621  0.1427 -2.4289
 9211SOL    HW239513   2.530   4.119   0.014 -1.3181 -0.2613  0.3086
 9212SOL     OW39514   0.854   4.197  18.450  0.2521 -0.5145 -0.0830
 9212SOL    HW139515   0.931   4.168  18.401  0.8368 -1.0882  1.1616
 9212SOL    HW239516   0.803   4.248  18.387  3.3300  2.7128  0.0579
 9213SOL     OW39517   3.699   1.104   1.076  0.5114  0.0911  0.5181
 9213SOL    HW139518   3.756   1.115   1.000  1.2623 -2.0080  0.7643
 9213SOL    HW239519   3.689   1.192   1.113  1.4117  0.8563 -1.0917
 9214SOL     OW39520   1.226   0.007  14.749 -0.0208  0.0671  0.1956
 9214SOL    HW139521   1.254   0.085  14.797 -1.6218  1.8318 -1.7662
 9214SOL    HW239522   1.308   4.738  14.727  0.9931  2.1053 -0.2084
 9215SOL     OW39523   0.219   1.290   4.449  0.0267  0.6123 -0.0503
 9215SOL    HW139524   0.228   1.262   4.540 -0.6312  2.3988  0.5697
 9215SOL    HW239525   0.153   1.232   4.412 -0.2166  0.3427  0.8067
 9216SOL     OW39526   3.059   1.276   0.064 -0.8848 -0.5024  0.0685
 9216SOL    HW139527   3.061   1.289   0.159 -2.6055 -1.6813  0.2667
 9216SOL    HW239528   3.079   1.183   0.052  0.0526 -0.1957 -0.7663
 9217SOL     OW39529   0.476   1.880  10.022  0.3342 -0.3830 -0.1929
 9217SOL    HW139530   0.386   1.856  10.044 -0.3307  1.1498 -1.3187
 9217SOL    HW239531   0.468   1.943   9.951  2.3681 -1.6507 -1.5426
 9218SOL     OW39532   2.614   0.707  17.991  0.4816  0.0724 -0.4988
 9218SOL    HW139533   2.641   0.794  17.961 -0.2132 -0.0108 -1.3637
 9218SOL    HW239534   2.562   0.723  18.069  2.0846  0.3104  0.5277
 9219SOL     OW39535   0.635   0.436  14.471  0.1482  0.5786 -0.2203
 9219SOL    HW139536   0.556   0.400  14.510  0.6657  0.4105  0.6810
 9219SOL    HW239537   0.630   0.412  14.378 -0.1312 -0.6987  0.1280
 9220SOL     OW39538   0.698   0.653   7.164 -0.3293  0.5085  0.1890
 9220SOL    HW139539   0.748   0.614   7.236  1.4082  0.9420 -0.7621
 9220SOL    HW239540   0.611   0.615   7.172  0.6486 -1.6230  0.8222
 9221SOL     OW39541   0.731   3.061  15.066  1.0092 -0.3456  0.2822
 9221SOL    HW139542   0.779   2.978  15.056 -0.4373 -1.3266  1.4240
 9221SOL    HW239543   0.754   3.091  15.154  2.5570  1.1298 -0.6216
 9222SOL     OW39544   4.690   1.064  11.067  0.7786 -0.9012  0.0595
 9222SOL    HW139545   4.730   1.150  11.078 -1.0489 -0.1308  0.6457
 9222SOL    HW239546   4.672   1.058  10.973  0.6298 -0.5071  0.0613
 9223SOL     OW39547   1.948   4.199   5.370  0.7873 -1.0502  0.0824
 9223SOL    HW139548   1.913   4.126   5.422  0.2977 -1.4456 -0.7991
 9223SOL    HW239549   1.871   4.238   5.329  0.9199  0.7128  1.5044
 9224SOL     OW39550   3.985   1.330  18.640  0.2275  0.3361  0.2276
 9224SOL    HW139551   4.045   1.403  18.653  2.3316 -1.2335 -0.5984
 9224SOL    HW239552   3.935   1.325  18.721  1.9797  0.9571  1.3556
 9225SOL     OW39553   1.425   0.725  16.635 -0.2209 -0.0415  0.0394
 9225SOL    HW139554   1.477   0.650  16.664 -1.3647 -0.4430  1.0648
 9225SOL    HW239555   1.464   0.751  16.552  1.9307 -0.0494  1.0256
 9226SOL     OW39556   0.811   3.185  10.716  0.3034 -0.4318  0.3677
 9226SOL    HW139557   0.725   3.142  10.718  1.1948 -2.1636  1.7429
 9226SOL    HW239558   0.795   3.272  10.754 -0.7512 -0.9106  1.0242
 9227SOL     OW39559   2.856   4.134   0.453  0.6650  0.3376 -0.3438
 9227SOL    HW139560   2.852   4.204   0.389 -1.6722  0.0282 -0.5446
 9227SOL    HW239561   2.789   4.071   0.424  0.5842 -0.4672  1.5798
 9228SOL     OW39562   4.311   2.278   4.367  0.1135  0.1056  0.4447
 9228SOL    HW139563   4.321   2.362   4.411  1.1912  0.6511 -0.8407
 9228SOL    HW239564   4.397   2.238   4.370 -0.0001 -0.2157 -0.4374
 9229SOL     OW39565   4.352   2.151   1.888  0.2931  0.0846  0.0756
 9229SOL    HW139566   4.361   2.154   1.983 -1.2632 -0.4908  0.2308
 9229SOL    HW239567   4.307   2.069   1.870 -2.0592  1.6070 -0.9696
 9230SOL     OW39568   4.060   4.169  20.523  0.0546  0.4076  0.5684
 9230SOL    HW139569   4.127   4.211  20.469 -0.4215 -0.3988 -0.6304
 9230SOL    HW239570   4.022   4.241  20.574  1.0248  1.0397  0.4094
 9231SOL     OW39571   0.051   3.565   4.051  0.2248  0.2121  0.3405
 9231SOL    HW139572   4.734   3.587   4.056  0.0902 -0.3846  0.5176
 9231SOL    HW239573   0.052   3.479   4.008  0.6664  0.0281  0.7213
 9232SOL     OW39574   4.160   2.493   1.361 -0.1521  0.1974  0.1220
 9232SOL    HW139575   4.172   2.578   1.403  2.9499 -0.4262  0.4588
 9232SOL    HW239576   4.082   2.456   1.403  0.5954  1.3055  2.4881
 9233SOL     OW39577   4.291   4.179  19.953 -0.0182  0.1352 -0.0135
 9233SOL    HW139578   4.210   4.138  19.985 -0.3675 -0.1069 -1.2094
 9233SOL    HW239579   4.299   4.259  20.005 -0.5918 -0.2619  0.6869
 9234SOL     OW39580   2.829   0.746   4.485  0.4067 -0.2491  0.0197
 9234SOL    HW139581   2.893   0.807   4.448  0.3309 -1.1645 -1.6381
 9234SOL    HW239582   2.881   0.669   4.509  0.3244  0.0160  1.0546
 9235SOL     OW39583   1.643   1.599  20.229  0.6347 -0.5369 -0.2935
 9235SOL    HW139584   1.620   1.675  20.174 -2.2410 -1.4321 -0.2823
 9235SOL    HW239585   1.655   1.528  20.166  0.9673 -0.6648 -0.0829
 9236SOL     OW39586   1.443   3.253   0.506  0.1872  0.2917  0.2554
 9236SOL    HW139587   1.458   3.185   0.441 -0.9605 -1.7640  2.1358
 9236SOL    HW239588   1.529   3.268   0.545  1.3681  3.3204 -3.4754
 9237SOL     OW39589   4.773   1.887  10.926 -0.2208  0.2195 -0.1894
 9237SOL    HW139590   0.004   1.792  10.916 -0.4921  0.2834 -0.9557
 9237SOL    HW239591   0.086   1.919  10.918  0.0496 -0.1079  1.4483
 9238SOL     OW39592   4.567   2.799   9.336  0.7454 -0.0240  0.4767
 9238SOL    HW139593   4.643   2.837   9.292  0.7561 -1.2059 -0.5166
 9238SOL    HW239594   4.495   2.811   9.274  0.9053 -2.3060 -0.1666
 9239SOL     OW39595   4.452   2.192   3.064  0.1635 -0.7019 -0.0654
 9239SOL    HW139596   4.386   2.243   3.111  0.6369  1.3325 -1.5977
 9239SOL    HW239597   4.404   2.152   2.991  0.1817 -0.9296  0.0478
 9240SOL     OW39598   0.172   4.724   6.050 -0.1485  0.3326 -0.1191
 9240SOL    HW139599   0.238   0.001   6.094 -0.5698  0.0226  0.8775
 9240SOL    HW239600   0.221   4.650   6.014 -0.2714 -0.8480  2.2107
 9241SOL     OW39601   3.840   3.971  10.081  0.6857 -0.0047  0.7132
 9241SOL    HW139602   3.933   3.986  10.068  0.4021  0.9968 -0.1895
 9241SOL    HW239603   3.812   4.041  10.141  0.3277  0.2608  0.2404
 9242SOL     OW39604   1.918   0.045   1.986  0.1148 -0.1004  0.2488
 9242SOL    HW139605   1.915   4.726   1.998  3.8465 -0.2200  0.3826
 9242SOL    HW239606   1.913   0.080   2.075 -1.6616 -0.1821  0.1706
 9243SOL     OW39607   2.737   3.963   5.923  0.0434 -0.1576  0.2081
 9243SOL    HW139608   2.642   3.969   5.937  0.2572 -2.7895  2.8859
 9243SOL    HW239609   2.746   3.932   5.833 -1.6574  0.1821 -0.0715
 9244SOL     OW39610   1.359   0.099   8.990  0.1496 -0.6131 -0.0692
 9244SOL    HW139611   1.317   0.043   9.056 -0.6966 -0.2990 -0.3392
 9244SOL    HW239612   1.451   0.098   9.014  0.0055 -1.3696  0.4904
 9245SOL     OW39613   0.349   1.121  16.965  0.2833 -0.1744  0.5743
 9245SOL    HW139614   0.254   1.110  16.954  0.4652 -1.9930  0.8706
 9245SOL    HW239615   0.388   1.051  16.912  1.4570  0.4714  0.5835
 9246SOL     OW39616   2.458   1.379  18.581  0.0294 -0.0564 -0.5129
 9246SOL    HW139617   2.417   1.317  18.641  0.3926 -1.0038 -1.2488
 9246SOL    HW239618   2.504   1.441  18.638 -0.4471 -0.3814  0.2194
 9247SOL     OW39619   0.910   2.588   7.441 -0.0662 -0.5431 -0.0377
 9247SOL    HW139620   0.910   2.583   7.345 -1.3366 -1.2236 -0.0110
 9247SOL    HW239621   0.818   2.574   7.465 -0.0198  1.2688  1.1999
 9248SOL     OW39622   3.728   0.273  18.743 -0.5949  0.2199 -0.2250
 9248SOL    HW139623   3.764   0.198  18.790 -0.8093  0.6443  0.6199
 9248SOL    HW239624   3.636   0.275  18.769 -0.3461  1.4098  0.5796
 9249SOL     OW39625   0.432   0.923   5.527 -0.5148 -0.1263  0.2889
 9249SOL    HW139626   0.527   0.920   5.537 -0.4225  0.3795 -0.4090
 9249SOL    HW239627   0.401   0.838   5.557  0.2520 -0.6674 -0.4712
 9250SOL     OW39628   1.829   2.006  11.494 -0.1151  0.2713  0.2340
 9250SOL    HW139629   1.844   1.920  11.454  0.1369  0.3456  0.1698
 9250SOL    HW239630   1.736   2.006  11.516 -0.0773 -0.0899  0.3979
 9251SOL     OW39631   4.343   4.196  19.060  0.2207  0.1122 -0.4279
 9251SOL    HW139632   4.302   4.199  19.147 -1.6154  1.7268 -1.3518
 9251SOL    HW239633   4.292   4.131  19.012  0.6183 -0.0635 -0.6100
 9252SOL     OW39634   3.779   4.110  17.900 -0.6074  0.2192 -0.3052
 9252SOL    HW139635   3.790   4.015  17.905 -2.0192 -0.0505 -2.0209
 9252SOL    HW239636   3.774   4.139  17.991  1.9434 -1.0975  0.2496
 9253SOL     OW39637   3.850   3.298  19.809 -0.3048  0.1389 -0.0234
 9253SOL    HW139638   3.903   3.233  19.854  0.4577 -0.5048 -1.8586
 9253SOL    HW239639   3.761   3.284  19.843  0.1871 -0.6509  0.9264
 9254SOL     OW39640   0.967   4.517   4.357  0.0765 -0.2715  0.3993
 9254SOL    HW139641   1.022   4.508   4.279 -1.1603 -0.2447 -0.4745
 9254SOL    HW239642   1.017   4.475   4.427  1.4979  0.3178 -0.2674
 9255SOL     OW39643   3.526   2.258   2.241  0.8355 -0.7240 -0.6999
 9255SOL    HW139644   3.602   2.310   2.219 -0.1164 -0.0805 -2.4402
 9255SOL    HW239645   3.531   2.182   2.183 -0.3004 -0.2737 -1.3790
 9256SOL     OW39646   4.466   0.084  18.378 -0.1262  0.0807  0.2683
 9256SOL    HW139647   4.461   4.765  18.387 -1.8789  0.1209 -0.2832
 9256SOL    HW239648   4.465   0.117  18.467  0.4426 -0.4283  0.4573
 9257SOL     OW39649   2.897   0.789  17.328  0.6072 -0.2531  0.1619
 9257SOL    HW139650   2.906   0.823  17.240 -2.5734  0.0397 -0.0668
 9257SOL    HW239651   2.954   0.844  17.382  2.4153 -0.3426 -1.6921
 9258SOL     OW39652   0.976   2.413   2.951  0.6334 -0.1314  0.3467
 9258SOL    HW139653   0.961   2.483   2.888 -0.6271 -1.3494 -0.6915
 9258SOL    HW239654   0.999   2.459   3.032  1.8384  1.4205 -0.8910
 9259SOL     OW39655   3.955   3.533  14.665  0.2133  0.0670 -0.0132
 9259SOL    HW139656   3.955   3.602  14.599 -0.3882  0.5548  0.4934
 9259SOL    HW239657   3.941   3.579  14.748 -2.7305 -0.9565  0.0422
 9260SOL     OW39658   0.645   0.078  11.759 -0.0211  0.2211  0.3979
 9260SOL    HW139659   0.737   0.074  11.782  0.0025 -0.2237  0.2351
 9260SOL    HW239660   0.603   0.124  11.832  0.6015  1.9745 -0.3430
 9261SOL     OW39661   3.360   3.110  18.862  0.0634 -0.2015  0.1771
 9261SOL    HW139662   3.299   3.056  18.912 -0.1469 -0.0941  0.0394
 9261SOL    HW239663   3.440   3.112  18.914 -0.8670  1.6758  1.5524
 9262SOL     OW39664   2.766   3.327  12.860 -0.1836 -0.0443  0.0045
 9262SOL    HW139665   2.843   3.271  12.851  0.0190 -0.2077  2.5236
 9262SOL    HW239666   2.695   3.266  12.882 -0.9759  0.1273 -2.1052
 9263SOL     OW39667   4.262   0.361  20.190 -0.0131  0.3711  0.0244
 9263SOL    HW139668   4.279   0.454  20.201 -0.5875  0.6888 -1.7313
 9263SOL    HW239669   4.243   0.329  20.278  0.8120  1.7778  0.7169
 9264SOL     OW39670   2.326   1.520  21.174 -0.0801 -0.1572  0.3022
 9264SOL    HW139671   2.264   1.467   0.027  0.4857  0.2506  1.4675
 9264SOL    HW239672   2.322   1.486  21.085 -0.3465 -1.5818  0.8566
 9265SOL     OW39673   3.039   1.787   5.879  0.5235  0.0469 -0.6130
 9265SOL    HW139674   2.988   1.723   5.930  1.4658 -0.1358  0.1014
 9265SOL    HW239675   3.035   1.755   5.789  0.1243 -0.4613 -0.4121
 9266SOL     OW39676   3.245   3.956   4.081 -0.0996  0.6189 -0.2880
 9266SOL    HW139677   3.176   3.997   4.132 -0.2248 -0.4728  0.4413
 9266SOL    HW239678   3.323   4.008   4.100 -0.1296  0.1706  1.0922
 9267SOL     OW39679   2.936   3.427   0.793  0.0452 -0.4418 -0.1191
 9267SOL    HW139680   2.996   3.499   0.811  2.2967 -1.8274 -2.1141
 9267SOL    HW239681   2.873   3.463   0.731  0.0600  0.3763  0.3388
 9268SOL     OW39682   0.607   1.561   2.437 -0.1055 -0.4108  0.5242
 9268SOL    HW139683   0.674   1.493   2.430  0.3789 -0.0529  1.7203
 9268SOL    HW239684   0.635   1.628   2.375  1.2937  0.2817  1.8908
 9269SOL     OW39685   4.181   1.552   0.362  0.5952  0.2011  0.6620
 9269SOL    HW139686   4.144   1.548   0.450 -1.2411 -0.4210 -0.1283
 9269SOL    HW239687   4.148   1.473   0.319  1.4185  0.5483 -0.6028
 9270SOL     OW39688   4.613   4.164  17.467  0.2288 -0.1584  0.4819
 9270SOL    HW139689   4.541   4.220  17.495  1.6472  1.3032  1.1573
 9270SOL    HW239690   4.599   4.082  17.515 -1.8015 -0.3851 -0.4776
 9271SOL     OW39691   2.574   3.596   0.041 -0.1913 -0.0195  0.2947
 9271SOL    HW139692   2.617   3.555  21.162 -1.4856 -0.1410 -0.3821
 9271SOL    HW239693   2.612   3.552   0.117  1.2934  0.2713 -0.2800
 9272SOL     OW39694   1.016   0.873   3.261 -0.3351 -0.1332 -0.1074
 9272SOL    HW139695   0.929   0.834   3.258  0.0002 -0.9216  0.3445
 9272SOL    HW239696   1.075   0.799   3.251  0.3353  0.0967  2.0448
 9273SOL     OW39697   0.069   1.037  16.903  0.4271 -0.1012  0.0171
 9273SOL    HW139698   4.762   1.085  16.905 -0.4857 -1.7125  0.1506
 9273SOL    HW239699   0.076   1.005  16.813  0.3413 -0.9806  0.3266
 9274SOL     OW39700   3.566   0.776   2.315 -0.3252 -0.6652 -0.3918
 9274SOL    HW139701   3.651   0.731   2.308 -1.2341 -2.1568 -1.9827
 9274SOL    HW239702   3.588   0.866   2.336  1.7155 -0.7814 -2.0098
 9275SOL     OW39703   1.963   3.329   2.217 -0.0782  0.2527 -0.0906
 9275SOL    HW139704   1.961   3.368   2.130  1.0622  1.2006  0.3057
 9275SOL    HW239705   1.890   3.370   2.263 -2.6831 -2.6551 -1.6249
 9276SOL     OW39706   2.327   3.093  13.863 -0.2170  0.4427 -0.0349
 9276SOL    HW139707   2.420   3.108  13.845 -0.4116  0.8707 -0.6777
 9276SOL    HW239708   2.288   3.180  13.864 -0.1913  0.4196  2.5551
 9277SOL     OW39709   4.543   0.648   1.200 -0.1537 -0.2160 -0.1999
 9277SOL    HW139710   4.564   0.703   1.124  0.4738  1.7482  1.3954
 9277SOL    HW239711   4.486   0.579   1.165  3.5756 -1.7371 -3.2801
 9278SOL     OW39712   3.237   0.645   3.460  0.6375 -0.1764 -0.2526
 9278SOL    HW139713   3.331   0.660   3.448  0.4127 -0.2861 -2.1338
 9278SOL    HW239714   3.198   0.667   3.375 -0.6817 -3.1941 -0.4040
 9279SOL     OW39715   0.993   3.441   1.925  0.2179  0.0243 -0.4417
 9279SOL    HW139716   0.953   3.368   1.878  1.0041 -0.7269  0.0485
 9279SOL    HW239717   0.970   3.518   1.874  0.3133 -0.6890 -1.5623
 9280SOL     OW39718   0.194   1.373   0.938 -0.5196  0.1093 -0.0044
 9280SOL    HW139719   0.275   1.338   0.976 -0.9938 -0.9966 -0.0170
 9280SOL    HW239720   0.134   1.381   1.012 -0.6761  0.1269 -0.1326
 9281SOL     OW39721   3.709   3.179   3.338 -0.2365 -0.1154  0.5420
 9281SOL    HW139722   3.642   3.230   3.384  0.6802  0.3437  1.3674
 9281SOL    HW239723   3.665   3.097   3.314 -1.0145  0.0727  1.3261
 9282SOL     OW39724   1.819   3.656   4.696 -0.1723 -0.6740  0.3565
 9282SOL    HW139725   1.737   3.640   4.743 -1.1767 -0.1620 -1.2180
 9282SOL    HW239726   1.868   3.574   4.705 -2.0051 -1.9166 -1.0065
 9283SOL     OW39727   0.826   0.404   0.067 -0.5637  0.0778 -0.0362
 9283SOL    HW139728   0.767   0.340   0.107 -1.3687  0.7894 -0.1093
 9283SOL    HW239729   0.842   0.371  21.175 -1.0748  0.0514 -0.1138
 9284SOL     OW39730   1.942   0.202  17.241 -0.6195 -0.2033  0.0658
 9284SOL    HW139731   1.928   0.114  17.205  0.6421 -1.3357  2.3846
 9284SOL    HW239732   2.020   0.234  17.196 -0.5597 -0.6178 -0.1283
 9285SOL     OW39733   1.344   0.836   2.410  0.7459  0.7015 -0.2003
 9285SOL    HW139734   1.317   0.746   2.389  0.2808  0.7306  0.2645
 9285SOL    HW239735   1.392   0.865   2.333 -0.2564  0.5238 -0.8916
 9286SOL     OW39736   2.492   0.751   5.030 -0.1443 -0.1148 -0.3754
 9286SOL    HW139737   2.549   0.783   5.100  2.6946 -2.3672 -1.6860
 9286SOL    HW239738   2.482   0.658   5.047  1.1165 -0.7894 -3.4096
 9287SOL     OW39739   4.701   1.429   4.099 -0.1700 -0.6730  0.1009
 9287SOL    HW139740   4.707   1.381   4.017  0.4164  0.1067 -0.3145
 9287SOL    HW239741   4.607   1.440   4.113 -0.2498  0.0434 -0.9660
 9288SOL     OW39742   1.990   3.092   0.902  0.4249  0.2069 -0.1310
 9288SOL    HW139743   1.999   3.054   0.814  1.1839 -2.5327  1.1081
 9288SOL    HW239744   1.898   3.078   0.924  0.7218 -0.9806  0.3553
 9289SOL     OW39745   1.795   3.200  18.188  0.0571 -0.4381  0.0575
 9289SOL    HW139746   1.843   3.223  18.268 -0.7392  3.6596 -0.6196
 9289SOL    HW239747   1.706   3.181  18.219 -0.4584  1.9245  0.1026
 9290SOL     OW39748   1.689   3.198  17.212 -0.1968 -0.1245  0.1814
 9290SOL    HW139749   1.671   3.262  17.280 -2.2102 -0.2459 -0.2506
 9290SOL    HW239750   1.778   3.219  17.183  0.3515  0.4480  2.2619
 9291SOL     OW39751   2.064   2.335   8.101  0.0271  0.4530 -0.0192
 9291SOL    HW139752   2.069   2.430   8.104  0.5699  0.4565 -1.2492
 9291SOL    HW239753   2.103   2.306   8.184  1.9025  1.2040 -0.6612
 9292SOL     OW39754   2.165   1.747  19.142  0.3530 -1.2449  0.0113
 9292SOL    HW139755   2.143   1.828  19.097 -0.4380 -0.5622  1.6184
 9292SOL    HW239756   2.195   1.688  19.073 -0.7760 -0.1694 -1.3920
 9293SOL     OW39757   4.642   2.736   2.222 -0.5354  0.5316 -0.7536
 9293SOL    HW139758   4.580   2.719   2.151  1.0174  2.1864 -2.4980
 9293SOL    HW239759   4.640   2.831   2.233  1.1254  0.5086 -0.2956
 9294SOL     OW39760   3.037   4.299   0.666  0.5660 -0.1681  0.4483
 9294SOL    HW139761   2.963   4.360   0.671  0.2843 -0.5239  0.5796
 9294SOL    HW239762   3.005   4.226   0.613  1.9117  1.2320 -2.3121
 9295SOL     OW39763   4.431   2.180   2.769 -0.4879  0.1508  0.0640
 9295SOL    HW139764   4.489   2.214   2.701  0.6208 -3.1077 -0.6044
 9295SOL    HW239765   4.343   2.198   2.737  0.1008  2.4869 -0.2541
 9296SOL     OW39766   0.401   1.284   2.367  0.2128 -0.1024  0.0318
 9296SOL    HW139767   0.426   1.371   2.335 -0.9296  0.2247  0.0117
 9296SOL    HW239768   0.327   1.301   2.425 -0.1877 -1.0946 -0.1941
 9297SOL     OW39769   3.436   3.222  17.590  0.3954 -0.0960 -0.0002
 9297SOL    HW139770   3.390   3.181  17.663  1.8237 -1.6482  0.0299
 9297SOL    HW239771   3.527   3.227  17.619  0.8182  0.0213 -1.3365
 9298SOL     OW39772   0.285   2.216   6.420 -0.0775 -0.3562  0.0206
 9298SOL    HW139773   0.342   2.291   6.435 -0.5476 -0.3712  1.8298
 9298SOL    HW239774   0.198   2.245   6.448 -1.3921  0.4282 -4.8815
 9299SOL     OW39775   3.447   0.075  17.493 -0.5225 -0.2951  0.0692
 9299SOL    HW139776   3.526   0.111  17.535 -0.8954  1.0281 -0.3663
 9299SOL    HW239777   3.424   0.140  17.427 -2.4267 -0.3309  0.7148
 9300SOL     OW39778   2.134   2.633  16.027 -0.6866 -0.0974 -0.3170
 9300SOL    HW139779   2.147   2.549  16.071  0.0832 -0.0047 -0.3642
 9300SOL    HW239780   2.213   2.683  16.048 -1.2513  0.7000 -0.0924
 9301SOL     OW39781   3.462   0.387   1.835  0.2573 -0.1677  0.3969
 9301SOL    HW139782   3.555   0.366   1.839  0.2872  0.0814  0.8822
 9301SOL    HW239783   3.419   0.302   1.823  0.5753 -0.2417 -0.2126
 9302SOL     OW39784   3.532   4.272   6.614  0.9989  0.6096 -0.3093
 9302SOL    HW139785   3.533   4.357   6.657  1.4795 -0.0841  1.0612
 9302SOL    HW239786   3.449   4.270   6.567  0.9586  1.8119 -0.2843
 9303SOL     OW39787   1.137   1.364  16.760 -0.0588  0.3899 -0.1817
 9303SOL    HW139788   1.121   1.270  16.766  0.5419  0.1298 -2.4675
 9303SOL    HW239789   1.138   1.394  16.850  1.0583 -2.0314  0.6306
 9304SOL     OW39790   0.910   0.465  16.934  0.5629 -0.2504  0.3102
 9304SOL    HW139791   0.913   0.389  16.877 -0.2919 -1.8966  2.4626
 9304SOL    HW239792   0.873   0.535  16.880 -0.0992 -1.7715 -1.1770
 9305SOL     OW39793   3.179   2.784  15.983  0.1645 -0.1425 -0.5718
 9305SOL    HW139794   3.251   2.783  15.921  0.1673  0.5717 -0.5760
 9305SOL    HW239795   3.186   2.700  16.030  1.1536  0.0491 -0.3835
 9306SOL     OW39796   1.326   0.940  21.012 -0.5774  0.5753  0.1917
 9306SOL    HW139797   1.419   0.924  20.994 -0.6854 -2.3199  2.2003
 9306SOL    HW239798   1.326   0.978  21.100 -1.0480  3.2815 -0.9879
 9307SOL     OW39799   0.901   1.499  20.890  0.0860 -0.2515 -0.1930
 9307SOL    HW139800   0.859   1.448  20.960 -0.0330 -2.9462 -2.2491
 9307SOL    HW239801   0.839   1.570  20.872 -0.9785 -0.9320  0.7662
 9308SOL     OW39802   4.162   1.626  16.196 -0.2946  0.2942  0.4722
 9308SOL    HW139803   4.158   1.719  16.174 -0.3815 -0.0665 -1.0532
 9308SOL    HW239804   4.074   1.594  16.182 -0.2216 -0.0682  0.8247
 9309SOL     OW39805   1.877   3.585  12.390  0.1937  0.0527  0.1871
 9309SOL    HW139806   1.865   3.678  12.407  0.9294  0.4852 -1.6804
 9309SOL    HW239807   1.970   3.577  12.369 -0.3218 -0.7831 -1.7815
 9310SOL     OW39808   0.441   0.348  17.396  0.1741  0.2672 -0.4007
 9310SOL    HW139809   0.508   0.345  17.464  0.2429  0.7228 -0.4478
 9310SOL    HW239810   0.405   0.437  17.401 -1.2249 -0.3429  0.4031
 9311SOL     OW39811   4.156   2.262  20.788  0.5803 -0.3349 -0.0645
 9311SOL    HW139812   4.210   2.253  20.709  0.7247  0.9052 -0.1110
 9311SOL    HW239813   4.186   2.343  20.828 -1.3821  0.4411 -0.1789
 9312SOL     OW39814   0.115   0.128   2.664  0.4986 -0.3743  0.0583
 9312SOL    HW139815   0.090   0.209   2.709 -0.1591 -0.7310  0.3514
 9312SOL    HW239816   0.079   0.138   2.576  3.0679  0.9492 -0.8180
 9313SOL     OW39817   4.292   2.447   5.675  0.2755 -0.2547  0.0868
 9313SOL    HW139818   4.344   2.467   5.597  0.3325  1.5633  0.5924
 9313SOL    HW239819   4.238   2.372   5.649  2.5691 -1.6098 -0.6954
 9314SOL     OW39820   2.906   4.399   3.003  0.3728 -0.1568  0.2204
 9314SOL    HW139821   2.999   4.424   3.003  0.3987 -0.2568  0.3101
 9314SOL    HW239822   2.899   4.333   2.933  0.5011 -0.6611  0.6863
 9315SOL     OW39823   2.290   1.711   4.243  0.5314  0.8108  0.0703
 9315SOL    HW139824   2.290   1.805   4.223  1.3403  0.6675 -0.6260
 9315SOL    HW239825   2.315   1.669   4.160  3.4684  0.1924  1.2554
 9316SOL     OW39826   3.465   3.100   2.256  0.1719  0.2463  0.5159
 9316SOL    HW139827   3.556   3.073   2.239  0.2863  0.7208  0.3789
 9316SOL    HW239828   3.474   3.173   2.317 -0.1084  0.5393  0.1981
 9317SOL     OW39829   2.973   2.511   1.882 -0.0411 -0.1682 -0.5485
 9317SOL    HW139830   2.891   2.486   1.839 -0.3482  0.1824 -0.1653
 9317SOL    HW239831   2.948   2.531   1.972  0.6447 -1.1687 -0.1302
 9318SOL     OW39832   3.561   4.102  12.989 -0.4385 -0.1946  0.7304
 9318SOL    HW139833   3.588   4.183  12.947  0.7340 -0.7232  0.4845
 9318SOL    HW239834   3.501   4.061  12.927  2.1214 -1.4952 -0.8667
 9319SOL     OW39835   1.411   4.447  18.355  0.4612 -0.2132  0.2779
 9319SOL    HW139836   1.445   4.512  18.417  1.9245 -0.7950  0.0899
 9319SOL    HW239837   1.375   4.378  18.409 -0.3367  0.3651  0.4822
 9320SOL     OW39838   0.846   1.512   2.650 -0.4161  0.0247  0.4005
 9320SOL    HW139839   0.770   1.568   2.637 -0.7316 -0.6521 -0.7173
 9320SOL    HW239840   0.920   1.566   2.623 -0.6945  0.0012 -0.4129
 9321SOL     OW39841   4.038   4.325  16.933 -1.1374 -0.1480 -0.0065
 9321SOL    HW139842   4.000   4.293  16.851 -0.2640  0.4780 -0.6578
 9321SOL    HW239843   3.989   4.405  16.953 -0.1868  0.6373 -0.8245
 9322SOL     OW39844   1.800   3.193   2.944 -0.6818 -0.0277  0.2953
 9322SOL    HW139845   1.889   3.170   2.972 -0.8694 -1.0001  0.0844
 9322SOL    HW239846   1.744   3.159   3.013 -1.1020 -1.9286 -0.9677
 9323SOL     OW39847   3.761   1.558   2.151 -0.3531  0.4093  0.1153
 9323SOL    HW139848   3.746   1.651   2.134  0.1550  0.0958 -2.0230
 9323SOL    HW239849   3.674   1.518   2.146 -0.3158  0.4573 -0.7879
 9324SOL     OW39850   4.003   4.597  16.696 -0.1106  0.7036  0.1238
 9324SOL    HW139851   3.930   4.642  16.736  1.4841  2.5771  0.9131
 9324SOL    HW239852   4.015   4.640  16.612  0.7012  1.0503  0.4124
 9325SOL     OW39853   4.603   1.570  18.886  0.2969  0.0476 -0.1106
 9325SOL    HW139854   4.648   1.529  18.812 -0.7622 -0.2917 -0.5843
 9325SOL    HW239855   4.640   1.528  18.963  2.4820  1.5053 -0.3927
 9326SOL     OW39856   3.663   2.707   4.325  0.7255  0.5177  0.0584
 9326SOL    HW139857   3.749   2.749   4.323  0.8740  0.3539  2.9930
 9326SOL    HW239858   3.682   2.614   4.332  0.2915  0.4978  0.9351
 9327SOL     OW39859   4.535   0.094  16.781 -0.2583 -0.4815 -0.1355
 9327SOL    HW139860   4.533   0.172  16.727  0.1519  0.1502  0.7693
 9327SOL    HW239861   4.550   0.126  16.870  2.4453 -1.7600 -0.1197
 9328SOL     OW39862   4.142   4.614  10.597  0.0569  0.0917 -0.1244
 9328SOL    HW139863   4.106   4.565  10.671 -0.4402 -0.3378 -0.6453
 9328SOL    HW239864   4.192   4.549  10.547  0.2941  0.3529 -0.2229
 9329SOL     OW39865   0.249   3.215  21.177 -0.1715  0.3584 -0.5171
 9329SOL    HW139866   0.174   3.161   0.004  0.0662  0.0596 -0.4475
 9329SOL    HW239867   0.324   3.169   0.018  0.0654  0.5637 -0.7452
 9330SOL     OW39868   2.183   1.411  18.863 -0.5514  0.2795 -0.3016
 9330SOL    HW139869   2.196   1.506  18.858 -0.3646  0.2078 -1.1284
 9330SOL    HW239870   2.217   1.387  18.949  0.3996  0.8018 -0.5339
 9331SOL     OW39871   4.293   2.539   0.336  0.1629  0.7879  0.2228
 9331SOL    HW139872   4.255   2.624   0.314  2.4279  2.2233  1.9173
 9331SOL    HW239873   4.220   2.488   0.372 -1.2390  1.9175 -1.0349
 9332SOL     OW39874   1.473   2.126   1.794 -0.0509 -0.2444 -1.8115
 9332SOL    HW139875   1.508   2.065   1.859 -1.0256  0.3794 -0.7091
 9332SOL    HW239876   1.525   2.205   1.804 -1.8148  0.6879 -0.1603
 9333SOL     OW39877   0.890   3.010   1.261  0.0475 -0.7926 -0.1541
 9333SOL    HW139878   0.871   3.098   1.294  0.1184 -1.1799  0.9036
 9333SOL    HW239879   0.966   3.022   1.204 -0.3732 -0.0523 -0.5638
 9334SOL     OW39880   2.986   2.851   2.870  0.1860 -0.3494 -0.0037
 9334SOL    HW139881   3.042   2.829   2.945 -0.7863 -0.4600  0.6830
 9334SOL    HW239882   2.966   2.944   2.882  1.0092 -0.0760 -0.7615
 9335SOL     OW39883   0.734   1.091  20.182  0.2353 -0.1037 -0.2343
 9335SOL    HW139884   0.676   1.166  20.197 -0.4477 -0.8495  0.7671
 9335SOL    HW239885   0.753   1.057  20.269  2.9625  0.7411 -0.4789
 9336SOL     OW39886   0.886   3.417   8.464 -0.0665 -0.0548 -0.1927
 9336SOL    HW139887   0.864   3.325   8.449 -0.5178 -0.3220  2.1540
 9336SOL    HW239888   0.958   3.434   8.403 -0.5141 -1.7354 -1.1993
 9337SOL     OW39889   3.576   0.609  14.063  0.1160  0.2163 -0.2266
 9337SOL    HW139890   3.591   0.577  13.974  0.8655 -1.3052  0.4493
 9337SOL    HW239891   3.483   0.593  14.078 -0.0141  0.4772 -0.7216
 9338SOL     OW39892   0.266   0.989  13.893 -0.1869  0.2182  0.3608
 9338SOL    HW139893   0.232   0.965  13.807 -0.3550  2.3610 -0.1754
 9338SOL    HW239894   0.188   1.006  13.945 -0.0488  0.7934  0.3841
 9339SOL     OW39895   3.704   2.796   2.972 -0.0135  1.1687  0.1159
 9339SOL    HW139896   3.738   2.836   2.892  0.5914  1.1100  0.3444
 9339SOL    HW239897   3.753   2.839   3.043  0.2544  0.4028  0.3912
 9340SOL     OW39898   3.866   1.564   5.453  0.0950 -0.6222  0.1375
 9340SOL    HW139899   3.831   1.495   5.510  3.4906 -1.3034  1.4030
 9340SOL    HW239900   3.913   1.516   5.384  0.5855  0.3433 -0.1934
 9341SOL     OW39901   2.659   3.730   4.281  0.3438 -0.1440 -0.7616
 9341SOL    HW139902   2.579   3.778   4.304  0.6004 -0.0721 -0.0073
 9341SOL    HW239903   2.656   3.722   4.186 -0.3766  0.1892 -0.7670
 9342SOL     OW39904   0.917   3.123  16.033 -0.4126  0.2950 -0.1852
 9342SOL    HW139905   0.822   3.134  16.022 -0.2995 -0.6774 -2.1910
 9342SOL    HW239906   0.954   3.157  15.951  0.9128 -0.0983  0.2603
 9343SOL     OW39907   2.349   0.658   5.268 -0.0692  0.2095  0.1458
 9343SOL    HW139908   2.327   0.631   5.358 -1.5322  0.8922 -0.0025
 9343SOL    HW239909   2.340   0.753   5.269  1.5881  0.3680 -0.2758
 9344SOL     OW39910   1.880   3.492  20.866  0.6382 -0.2821 -0.1877
 9344SOL    HW139911   1.948   3.540  20.915  1.7419 -1.0832 -0.9363
 9344SOL    HW239912   1.920   3.407  20.847  0.0294 -0.1269 -2.0968
 9345SOL     OW39913   1.922   2.996   4.289 -0.1533 -0.0952 -0.3445
 9345SOL    HW139914   1.880   2.910   4.301 -0.0090 -0.2747 -1.0914
 9345SOL    HW239915   1.943   2.999   4.195  1.8992 -0.1820  0.1055
 9346SOL     OW39916   0.736   1.377  11.869  0.4764  0.7380  0.1307
 9346SOL    HW139917   0.749   1.445  11.803 -0.3404  0.4128 -0.3693
 9346SOL    HW239918   0.681   1.312  11.826  0.0227  0.4741  1.0963
 9347SOL     OW39919   3.592   0.328  19.028  0.3603 -0.0581 -0.2038
 9347SOL    HW139920   3.671   0.365  18.988  0.1050 -0.1562 -0.7946
 9347SOL    HW239921   3.531   0.316  18.955 -0.4926  0.7619  0.3614
 9348SOL     OW39922   3.721   4.505  17.715  0.1837 -0.0360  0.3266
 9348SOL    HW139923   3.642   4.455  17.733  0.3678 -0.9312 -1.3674
 9348SOL    HW239924   3.786   4.472  17.778 -0.2788 -0.5177  0.5453
 9349SOL     OW39925   2.244   0.224   4.812  0.1634  0.4170 -0.0324
 9349SOL    HW139926   2.204   0.230   4.899 -0.2669 -1.9046 -0.0592
 9349SOL    HW239927   2.191   0.280   4.757 -1.1952 -0.2159  0.6244
 9350SOL     OW39928   1.861   3.235  14.094  0.4461 -0.4985 -0.4379
 9350SOL    HW139929   1.770   3.207  14.097  0.3275 -0.0396  0.1618
 9350SOL    HW239930   1.891   3.231  14.184  0.1069  2.3164 -0.1916
 9351SOL     OW39931   4.698   0.533  19.810  0.0758 -0.0811 -0.3680
 9351SOL    HW139932   4.608   0.535  19.778  0.7094  3.3657 -1.9270
 9351SOL    HW239933   4.748   0.494  19.738  0.2259  0.3354 -0.4908
 9352SOL     OW39934   2.452   2.851   3.022 -0.1062 -0.1041  0.3596
 9352SOL    HW139935   2.420   2.940   3.010  0.3157 -0.1154 -0.8792
 9352SOL    HW239936   2.546   2.857   3.002  0.0789 -0.6602  1.0612
 9353SOL     OW39937   2.626   1.924  21.164 -0.3188  0.0016 -0.0596
 9353SOL    HW139938   2.654   2.016  21.156  1.5186 -0.4784  1.0430
 9353SOL    HW239939   2.656   1.897   0.054 -2.6081 -1.0496  0.4059
 9354SOL     OW39940   4.052   3.704  20.636 -0.3523  0.4856 -0.0025
 9354SOL    HW139941   4.032   3.669  20.723 -0.3661 -0.0735 -0.2287
 9354SOL    HW239942   4.065   3.798  20.650  1.3576  0.1204  0.8677
 9355SOL     OW39943   2.760   4.188  15.848 -0.3643  0.0398  0.4896
 9355SOL    HW139944   2.809   4.165  15.769  1.8467  1.0002  1.5888
 9355SOL    HW239945   2.686   4.239  15.816  0.0286 -0.3442 -1.0539
 9356SOL     OW39946   4.114   1.354  17.370  0.8662 -0.4071  0.0189
 9356SOL    HW139947   4.189   1.326  17.423  0.4064 -0.8848  0.4226
 9356SOL    HW239948   4.150   1.369  17.283  1.6096  0.2930  0.4513
 9357SOL     OW39949   4.252   1.184   7.656 -0.2197  0.2143 -0.7860
 9357SOL    HW139950   4.212   1.213   7.738 -0.7091  1.1738 -1.3720
 9357SOL    HW239951   4.179   1.175   7.595 -0.0626 -2.1270 -0.6369
 9358SOL     OW39952   0.323   1.229   5.506  0.2356  0.4143 -0.0688
 9358SOL    HW139953   0.367   1.267   5.430  0.5684  0.0937 -0.0333
 9358SOL    HW239954   0.365   1.144   5.518  0.3528  0.5709  0.6223
 9359SOL     OW39955   3.761   1.862   2.978  0.5263  0.3351 -0.5046
 9359SOL    HW139956   3.779   1.771   3.001  0.6829  0.5002  0.0302
 9359SOL    HW239957   3.818   1.913   3.035 -0.8447  0.8324  0.4261
 9360SOL     OW39958   4.013   4.156  19.997 -0.3997  0.0162 -0.3478
 9360SOL    HW139959   4.012   4.208  20.078  1.0665 -2.0216  0.9746
 9360SOL    HW239960   4.012   4.065  20.026  1.1164 -0.7275 -2.6024
 9361SOL     OW39961   3.589   3.360   6.668  0.2050 -0.2052  0.0218
 9361SOL    HW139962   3.546   3.412   6.600 -2.7638 -1.5592  0.9045
 9361SOL    HW239963   3.597   3.273   6.629 -0.5410 -0.7146  1.0486
 9362SOL     OW39964   1.027   2.775  18.266  0.1023 -0.1981  0.0182
 9362SOL    HW139965   1.046   2.694  18.313 -1.0836 -1.6741 -2.0583
 9362SOL    HW239966   1.011   2.748  18.176  0.2248  2.4044 -0.7902
 9363SOL     OW39967   1.574   3.895   5.866 -0.6308 -0.3425 -0.3472
 9363SOL    HW139968   1.655   3.870   5.911 -0.6834 -1.3839 -0.8118
 9363SOL    HW239969   1.544   3.973   5.911  0.0504 -0.5955  0.5427
 9364SOL     OW39970   2.625   1.018  17.478  0.4273  0.1677 -0.1406
 9364SOL    HW139971   2.578   0.955  17.533 -0.5042 -0.7527 -1.9862
 9364SOL    HW239972   2.716   1.010  17.505  0.2163 -1.5150  0.0619
 9365SOL     OW39973   3.794   4.636   3.340 -0.2128 -0.1768  0.6827
 9365SOL    HW139974   3.854   4.565   3.361  3.4324  2.5503 -0.5631
 9365SOL    HW239975   3.772   4.675   3.425  0.0802 -0.9381  1.1065
 9366SOL     OW39976   1.890   1.620  17.504  0.3533 -0.3506  0.0425
 9366SOL    HW139977   1.954   1.559  17.540 -0.3750 -0.7512  0.6657
 9366SOL    HW239978   1.834   1.566  17.448  0.7337  0.0487 -0.7260
 9367SOL     OW39979   4.679   3.117  20.514  0.0897  0.4505 -0.1470
 9367SOL    HW139980   4.655   3.026  20.531 -0.4797  0.8476  1.1922
 9367SOL    HW239981   4.601   3.155  20.474 -0.7052  1.1456  2.0892
 9368SOL     OW39982   1.372   1.017   2.615  0.2885  0.5852  0.6513
 9368SOL    HW139983   1.330   0.962   2.548 -0.9782  1.2411  0.8955
 9368SOL    HW239984   1.358   0.969   2.696 -1.6080  1.6978  0.9927
 9369SOL     OW39985   1.550   0.756  17.761  0.1169  0.4314  0.1077
 9369SOL    HW139986   1.576   0.665  17.775 -0.7517  0.3023  0.8887
 9369SOL    HW239987   1.538   0.763  17.666 -1.7607 -0.7932  0.2534
 9370SOL     OW39988   3.190   1.793  13.149  0.0436 -0.7375  0.5045
 9370SOL    HW139989   3.160   1.854  13.217 -1.4284 -0.7158 -0.1615
 9370SOL    HW239990   3.171   1.838  13.067  1.4240 -0.9532  0.0750
 9371SOL     OW39991   4.154   4.361   0.328 -0.0603 -0.3980 -0.1846
 9371SOL    HW139992   4.229   4.311   0.362 -0.0318  0.3986  0.9189
 9371SOL    HW239993   4.160   4.351   0.233  1.5695 -0.1528 -0.1060
 9372SOL     OW39994   0.899   4.578  18.989  0.4246  0.2222 -0.0880
 9372SOL    HW139995   0.910   4.551  18.898  1.3573 -0.1855  0.1418
 9372SOL    HW239996   0.895   4.674  18.985 -2.1085  0.0773 -0.8165
 9373SOL     OW39997   1.466   4.361   6.537  0.3643 -0.8399 -0.1070
 9373SOL    HW139998   1.459   4.312   6.619 -0.6309 -1.0394 -0.3175
 9373SOL    HW239999   1.414   4.440   6.552  0.2444 -0.8422 -0.5250
 9374SOL     OW40000   2.515   3.299   2.370 -0.1875  0.0971  0.0317
 9374SOL    HW140001   2.428   3.289   2.332  0.8472  0.0344 -2.3039
 9374SOL    HW240002   2.546   3.384   2.341  0.7267 -0.0723  0.4779
 9375SOL     OW40003   4.195   3.890   0.013  0.1299  0.5790 -0.0615
 9375SOL    HW140004   4.106   3.918  21.187  0.3773  1.5458  0.1470
 9375SOL    HW240005   4.207   3.809  21.160 -0.6731  0.7267 -0.5193
 9376SOL     OW40006   3.443   0.500   5.362  1.2905 -0.2736  0.4665
 9376SOL    HW140007   3.423   0.438   5.432 -0.6562  0.1513  0.2851
 9376SOL    HW240008   3.508   0.454   5.308  0.9007 -1.6070  1.1210
 9377SOL     OW40009   4.339   1.065  12.377  0.0136  0.3324 -0.2115
 9377SOL    HW140010   4.432   1.063  12.352  0.3010  0.4293  0.8390
 9377SOL    HW240011   4.292   1.041  12.297  0.9703 -0.1991 -0.6167
 9378SOL     OW40012   1.247   0.243  14.942 -0.3767  0.0236  0.1968
 9378SOL    HW140013   1.203   0.256  15.026  0.1483  0.4728  0.4020
 9378SOL    HW240014   1.236   0.326  14.896 -2.3229 -0.8565 -0.9509
 9379SOL     OW40015   1.056   0.416  17.955  0.2062 -0.1439  0.5684
 9379SOL    HW140016   1.121   0.354  17.988  1.0208  0.0418 -0.6774
 9379SOL    HW240017   1.048   0.395  17.862  1.6724  2.6715 -0.1985
 9380SOL     OW40018   1.770   0.130   4.162  0.0576  0.0294 -0.0156
 9380SOL    HW140019   1.761   0.045   4.205  0.7884  0.2948  0.6588
 9380SOL    HW240020   1.682   0.151   4.131 -0.5812  0.1029  1.8434
 9381SOL     OW40021   1.818   3.001  20.661  0.0307  0.0108  1.1737
 9381SOL    HW140022   1.910   2.988  20.637 -0.2459  0.6458 -0.2647
 9381SOL    HW240023   1.796   3.087  20.624 -1.2504 -0.3114  1.1955
 9382SOL     OW40024   1.489   3.891  16.527 -0.1389  0.0296  0.5839
 9382SOL    HW140025   1.583   3.874  16.531 -0.1134  0.0984  0.2496
 9382SOL    HW240026   1.459   3.840  16.452  0.0007  1.7892 -0.6692
 9383SOL     OW40027   4.240   3.047   1.621 -0.4206  0.0491 -0.4992
 9383SOL    HW140028   4.226   3.130   1.667 -1.7984  0.1421 -1.0908
 9383SOL    HW240029   4.166   2.993   1.646  1.2662 -1.5256  1.0522
 9384SOL     OW40030   1.105   0.185   5.588  0.2608  0.0787  0.4415
 9384SOL    HW140031   1.168   0.222   5.650  0.3404 -0.1135  0.4777
 9384SOL    HW240032   1.025   0.175   5.638  1.2933 -3.2445  1.4557
 9385SOL     OW40033   1.154   3.841   3.552 -0.0590  0.2681  0.1807
 9385SOL    HW140034   1.085   3.788   3.512  1.2471 -0.6426 -0.9172
 9385SOL    HW240035   1.125   3.856   3.641 -1.0521 -1.2403  0.1166
 9386SOL     OW40036   0.801   4.336  10.815 -0.2041 -0.2655  0.2360
 9386SOL    HW140037   0.895   4.336  10.832 -0.3756 -2.2961  1.2012
 9386SOL    HW240038   0.779   4.428  10.802  1.8021  0.2679  0.6242
 9387SOL     OW40039   3.076   3.083  10.278 -0.3878 -0.4519 -0.0399
 9387SOL    HW140040   2.990   3.057  10.245 -1.0958  1.3260  0.3927
 9387SOL    HW240041   3.058   3.159  10.334  1.6795  1.0983 -1.4809
 9388SOL     OW40042   0.219   2.231   3.748  0.1688  0.3124  0.4124
 9388SOL    HW140043   0.143   2.288   3.742 -0.5640 -0.7953 -0.8783
 9388SOL    HW240044   0.215   2.195   3.837 -0.6752  0.4531  0.4321
 9389SOL     OW40045   1.812   0.406   0.280 -0.0503 -0.4567  0.5706
 9389SOL    HW140046   1.779   0.446   0.199  1.7006 -0.1002  0.0153
 9389SOL    HW240047   1.839   0.318   0.254  1.0449 -0.1434  0.6337
 9390SOL     OW40048   0.838   3.975   3.352 -0.4984  0.0577  0.3871
 9390SOL    HW140049   0.871   3.954   3.265 -0.0999 -0.2087  0.6051
 9390SOL    HW240050   0.882   4.057   3.375 -0.5492  0.0897  0.3722
 9391SOL     OW40051   0.576   1.908  20.579 -0.3819  0.1032  0.9152
 9391SOL    HW140052   0.658   1.857  20.574 -0.7329 -0.5091  1.3738
 9391SOL    HW240053   0.519   1.855  20.635 -2.3494 -1.2171 -2.3349
 9392SOL     OW40054   2.333   1.683  14.214  0.3795 -0.2160 -0.2755
 9392SOL    HW140055   2.389   1.613  14.182  0.5114 -0.4907  0.5774
 9392SOL    HW240056   2.348   1.685  14.308  0.1138  0.7229 -0.2528
 9393SOL     OW40057   0.475   1.176  18.999 -0.1949  0.1949  0.0320
 9393SOL    HW140058   0.452   1.096  19.047 -0.2174 -0.7251 -1.4951
 9393SOL    HW240059   0.537   1.146  18.931  0.2917  1.5730 -0.1341
 9394SOL     OW40060   2.998   1.938   5.472  0.1976  0.0629 -0.3522
 9394SOL    HW140061   2.966   1.999   5.406 -0.1731 -2.5499 -2.6278
 9394SOL    HW240062   3.093   1.952   5.474  0.2547 -0.0861 -1.7084
 9395SOL     OW40063   2.111   1.096  15.744  0.4667  0.2460  0.1458
 9395SOL    HW140064   2.017   1.106  15.734  0.5827  0.3236 -0.9588
 9395SOL    HW240065   2.134   1.027  15.681  1.1964  0.5034  0.1258
 9396SOL     OW40066   1.102   1.623   0.642  0.7684 -0.1629  0.4749
 9396SOL    HW140067   1.082   1.537   0.679 -0.0981 -0.3164 -0.3701
 9396SOL    HW240068   1.017   1.666   0.632  1.1851  0.7276  0.7220
 9397SOL     OW40069   0.403   1.628   5.588  0.0208 -0.4677  0.3774
 9397SOL    HW140070   0.321   1.579   5.599 -0.6147  0.4382 -0.3416
 9397SOL    HW240071   0.410   1.682   5.666 -1.0708  0.9420 -0.5104
 9398SOL     OW40072   2.999   3.324   0.403  0.4702 -0.1755 -0.0899
 9398SOL    HW140073   3.063   3.382   0.361  0.7657  1.4493  2.6428
 9398SOL    HW240074   3.052   3.256   0.445  0.2920 -0.0924  0.2654
 9399SOL     OW40075   0.119   4.195  17.780  0.6490 -0.0299 -0.3574
 9399SOL    HW140076   0.165   4.185  17.863 -1.1549 -0.4202  0.5992
 9399SOL    HW240077   0.180   4.244  17.724  1.8432  0.2501  1.2000
 9400SOL     OW40078   3.234   1.239  20.290  0.1800 -0.4184  0.1853
 9400SOL    HW140079   3.191   1.235  20.375  0.8046 -2.3553  0.4276
 9400SOL    HW240080   3.169   1.208  20.228  0.7399 -2.0073  0.3733
 9401SOL     OW40081   1.573   0.253   1.819  0.2164  0.4816 -0.0400
 9401SOL    HW140082   1.510   0.248   1.891  1.5205  1.6387  1.1737
 9401SOL    HW240083   1.614   0.339   1.828 -1.7592  1.8487 -3.9555
 9402SOL     OW40084   0.677   2.002  17.075  0.1133  0.1347 -0.2943
 9402SOL    HW140085   0.657   2.065  17.144  2.1844  1.4779 -0.9006
 9402SOL    HW240086   0.661   2.050  16.993  1.7580 -0.0978 -0.7537
 9403SOL     OW40087   2.421   2.217  20.183  0.2447 -0.2041  0.1039
 9403SOL    HW140088   2.367   2.139  20.173  0.5839 -0.4204 -0.0369
 9403SOL    HW240089   2.456   2.211  20.272  0.7537 -0.5191 -0.1178
 9404SOL     OW40090   2.884   3.943  15.906  0.5166 -0.2717 -0.0504
 9404SOL    HW140091   2.882   3.912  15.997  0.2322 -1.9046 -0.6128
 9404SOL    HW240092   2.864   4.036  15.912  0.9394 -0.2861  1.6092
 9405SOL     OW40093   2.312   0.206  20.949  0.3816 -0.0209 -0.0460
 9405SOL    HW140094   2.394   0.225  20.904 -0.0122 -0.6844 -1.0276
 9405SOL    HW240095   2.327   0.123  20.993  0.4269  0.1386  0.2416
 9406SOL     OW40096   0.209   3.008   8.083 -0.1123 -0.4859  0.2795
 9406SOL    HW140097   0.133   3.037   8.134 -0.1785  0.4035 -0.3332
 9406SOL    HW240098   0.263   2.960   8.146 -0.2504  0.5164  1.1599
 9407SOL     OW40099   1.337   1.146   3.041 -0.2326  0.1891  0.6301
 9407SOL    HW140100   1.242   1.135   3.048 -0.1862 -1.6510 -1.5699
 9407SOL    HW240101   1.349   1.207   2.969  0.3031 -0.6211  0.0302
 9408SOL     OW40102   3.711   3.276   2.784 -0.4624 -0.2474 -0.8009
 9408SOL    HW140103   3.757   3.360   2.786 -0.0554 -0.4712 -0.7554
 9408SOL    HW240104   3.635   3.289   2.842  0.9578 -0.6957  1.1769
 9409SOL     OW40105   1.474   0.901   2.197  0.9165  0.3600  0.2169
 9409SOL    HW140106   1.520   0.846   2.133 -0.9469 -1.6624  0.5904
 9409SOL    HW240107   1.441   0.975   2.146  1.6763  0.0819 -0.6820
 9410SOL     OW40108   1.116   2.849   2.118  0.2729 -0.9751  0.1392
 9410SOL    HW140109   1.108   2.771   2.063 -1.6064 -1.6600  1.3446
 9410SOL    HW240110   1.064   2.827   2.196  1.3900  0.7085  1.3362
 9411SOL     OW40111   4.470   2.372   1.786  0.0950 -0.0977 -0.0591
 9411SOL    HW140112   4.444   2.376   1.694  0.4896 -0.5920 -0.1930
 9411SOL    HW240113   4.433   2.289   1.818 -0.8866  0.5490  0.4842
 9412SOL     OW40114   1.688   0.736  16.055  0.5156 -0.5527  0.2574
 9412SOL    HW140115   1.741   0.659  16.034  0.4787 -0.6978  0.6919
 9412SOL    HW240116   1.711   0.800  15.987  2.2721 -0.1279  1.2582
 9413SOL     OW40117   2.187   4.627  17.762 -0.1123  0.1326 -0.0107
 9413SOL    HW140118   2.264   4.673  17.794 -0.0527  0.2311 -0.2963
 9413SOL    HW240119   2.198   4.624  17.667  0.3562 -1.3221  0.0948
 9414SOL     OW40120   4.679   3.546   9.611 -0.1621 -0.4080  0.2949
 9414SOL    HW140121   4.656   3.493   9.535 -0.2636  0.6199 -0.3933
 9414SOL    HW240122   4.728   3.487   9.668 -0.5197 -1.3153 -0.3374
 9415SOL     OW40123   3.621   1.179   4.927  0.2870 -0.6031  0.3640
 9415SOL    HW140124   3.534   1.139   4.935  0.4316 -1.2178 -1.0907
 9415SOL    HW240125   3.609   1.252   4.866  0.5396  0.0394  1.0872
 9416SOL     OW40126   4.402   3.852  19.550 -0.5218 -0.6216 -0.2351
 9416SOL    HW140127   4.429   3.760  19.539 -1.1708 -0.9949  1.3813
 9416SOL    HW240128   4.477   3.902  19.517 -0.0441 -1.7262 -0.8506
 9417SOL     OW40129   3.182   1.586   0.504  0.2720  0.2665  0.5277
 9417SOL    HW140130   3.259   1.538   0.536  0.7712  0.7970  0.1269
 9417SOL    HW240131   3.212   1.628   0.423 -0.8001 -0.5371 -0.2807
 9418SOL     OW40132   2.222   1.838  15.431  0.7269  0.6403 -0.1540
 9418SOL    HW140133   2.134   1.875  15.424 -0.3497 -1.6222  1.4559
 9418SOL    HW240134   2.252   1.867  15.517  0.7728 -0.3164  0.1464
 9419SOL     OW40135   3.667   4.061  20.696  0.0324 -0.5099  0.2280
 9419SOL    HW140136   3.724   4.131  20.726 -0.1787 -0.4347  0.4510
 9419SOL    HW240137   3.705   4.033  20.613  0.7633 -0.8982  0.6991
 9420SOL     OW40138   0.183   0.255  20.030 -0.1949 -0.0272  0.1570
 9420SOL    HW140139   0.260   0.242  19.974 -0.0537 -1.6359  0.7139
 9420SOL    HW240140   0.109   0.251  19.970  0.1277  1.0153 -0.3091
 9421SOL     OW40141   4.192   3.555  21.156  0.0325 -0.6406  0.2513
 9421SOL    HW140142   4.240   3.559  21.073 -0.1307  1.6199  0.2659
 9421SOL    HW240143   4.260   3.541   0.026  0.0860 -3.1590 -0.3656
 9422SOL     OW40144   0.337   1.521   0.495 -0.7482 -0.3193 -0.2227
 9422SOL    HW140145   0.286   1.465   0.553 -0.8374  0.1848  0.1839
 9422SOL    HW240146   0.312   1.610   0.519  0.1726 -0.0755 -0.1595
 9423SOL     OW40147   0.708   0.480  15.309 -0.3992 -0.3657 -0.6906
 9423SOL    HW140148   0.695   0.475  15.214 -0.4959  0.5000 -0.7259
 9423SOL    HW240149   0.713   0.574  15.327 -1.2047 -0.5145  0.2692
 9424SOL     OW40150   4.566   3.422   3.369 -0.6185 -0.3378 -0.0617
 9424SOL    HW140151   4.534   3.354   3.428 -0.1275 -0.5214 -0.0097
 9424SOL    HW240152   4.500   3.491   3.374 -0.1472  0.0131  1.3592
 9425SOL     OW40153   3.212   2.031   2.379 -0.3356  0.1083  0.0059
 9425SOL    HW140154   3.225   2.087   2.456 -1.8286 -1.2289  1.2345
 9425SOL    HW240155   3.140   2.071   2.332  0.1406  0.5557 -0.3334
 9426SOL     OW40156   2.439   0.617   0.091 -0.2922 -0.5863 -0.3714
 9426SOL    HW140157   2.426   0.606   0.185 -1.3515 -0.8479 -0.5466
 9426SOL    HW240158   2.416   0.531   0.054 -0.1317 -0.4040 -0.8895
 9427SOL     OW40159   3.348   2.128  16.645 -0.2911 -0.1092 -0.3057
 9427SOL    HW140160   3.256   2.153  16.652  0.5564  2.8495  0.2073
 9427SOL    HW240161   3.389   2.161  16.724  2.0021  1.9339 -2.3396
 9428SOL     OW40162   3.338   0.379  12.083  0.5176 -0.1140  0.1981
 9428SOL    HW140163   3.294   0.420  12.008 -0.6620 -1.4184  0.1635
 9428SOL    HW240164   3.266   0.341  12.134  1.5592 -1.5967  0.5391
 9429SOL     OW40165   0.269   3.921  16.467 -0.1643 -0.6389 -0.2685
 9429SOL    HW140166   0.288   3.965  16.550  0.7235 -0.0116 -0.7993
 9429SOL    HW240167   0.202   3.856  16.489 -0.5330  0.0921  0.7772
 9430SOL     OW40168   1.071   4.127  18.307  0.1431  0.0803  0.0521
 9430SOL    HW140169   1.086   4.217  18.280  2.2792 -0.0215  0.8699
 9430SOL    HW240170   1.111   4.074  18.239  2.0819 -0.2157  1.4247
 9431SOL     OW40171   3.711   2.219  10.511 -0.3888 -0.2522 -0.0718
 9431SOL    HW140172   3.743   2.247  10.425 -1.3355  1.4110  0.1230
 9431SOL    HW240173   3.768   2.146  10.535 -0.8684 -1.4863 -2.6362
 9432SOL     OW40174   4.564   1.618  19.478 -0.5699  0.3385 -0.0441
 9432SOL    HW140175   4.598   1.532  19.502  0.1287  0.3751 -0.9047
 9432SOL    HW240176   4.470   1.604  19.466 -0.2689 -0.5395 -1.3177
 9433SOL     OW40177   2.870   0.009  16.115  0.2478  0.2256  0.5854
 9433SOL    HW140178   2.776   4.766  16.116  0.4068 -0.5851 -0.0493
 9433SOL    HW240179   2.877   0.091  16.066 -0.2724  1.0502  1.8871
 9434SOL     OW40180   0.057   3.346   2.457  0.5842 -0.1152 -0.2066
 9434SOL    HW140181   0.118   3.293   2.406 -0.1887 -1.0123 -0.2099
 9434SOL    HW240182   4.770   3.282   2.492 -1.1419  0.9632 -1.3455
 9435SOL     OW40183   0.756   3.329   2.095 -0.5264 -0.1328 -0.5649
 9435SOL    HW140184   0.773   3.307   2.003  0.4796  1.0525 -0.6508
 9435SOL    HW240185   0.829   3.289   2.143 -1.5079 -1.4961 -0.1849
 9436SOL     OW40186   0.762   4.451   9.206  0.0005 -0.7575 -0.0418
 9436SOL    HW140187   0.850   4.422   9.232  0.5092 -0.2702 -1.2131
 9436SOL    HW240188   0.775   4.491   9.120 -1.2023  0.2956  0.2823
 9437SOL     OW40189   4.752   3.438  15.780  0.3526 -0.0960 -0.2427
 9437SOL    HW140190   4.711   3.373  15.836 -0.0739  0.4353  0.0519
 9437SOL    HW240191   4.736   3.407  15.691  0.4673 -0.5876 -0.0917
 9438SOL     OW40192   2.813   1.384  20.001 -0.2765  0.9212  0.3652
 9438SOL    HW140193   2.809   1.467  19.954 -1.7060  0.3150 -0.5954
 9438SOL    HW240194   2.732   1.338  19.976 -0.9067  0.4680  3.1249
 9439SOL     OW40195   2.069   4.173  16.467  0.6925 -0.4925 -0.2244
 9439SOL    HW140196   2.103   4.247  16.417  0.7259  1.2158  2.2923
 9439SOL    HW240197   2.148   4.125  16.495  0.8364  0.9209  1.7726
 9440SOL     OW40198   3.430   4.586  17.239 -0.2961  0.0621 -0.2611
 9440SOL    HW140199   3.482   4.522  17.191 -0.2020 -0.8922  1.1171
 9440SOL    HW240200   3.490   4.660  17.253 -0.5790  0.6903 -2.3450
 9441SOL     OW40201   3.126   2.147  14.337 -0.1455  0.1335  0.1144
 9441SOL    HW140202   3.197   2.205  14.308 -0.6072  1.1198  0.9772
 9441SOL    HW240203   3.074   2.132  14.258  1.2048 -0.8378 -0.5847
 9442SOL     OW40204   4.435   1.626   5.921 -0.3028  0.5048  0.5340
 9442SOL    HW140205   4.443   1.553   5.859 -1.0506  0.8187  0.0711
 9442SOL    HW240206   4.499   1.606   5.989  0.3321  0.0228 -0.2036
 9443SOL     OW40207   4.028   3.437  16.311 -0.4428  0.3386  0.2429
 9443SOL    HW140208   4.098   3.480  16.359  0.1723 -3.3486  2.6203
 9443SOL    HW240209   4.045   3.344  16.322 -3.1760 -0.5330 -2.8980
 9444SOL     OW40210   3.789   2.211  10.833 -0.1939  0.2670 -0.5625
 9444SOL    HW140211   3.849   2.246  10.767 -2.1521  2.9763 -0.8901
 9444SOL    HW240212   3.702   2.231  10.800 -1.2079  0.6509  2.2970
 9445SOL     OW40213   4.438   3.467  18.958  0.0286  0.4171  0.0976
 9445SOL    HW140214   4.528   3.494  18.977  0.6021 -0.5807 -1.2253
 9445SOL    HW240215   4.385   3.545  18.977  1.3725  1.5935 -1.0321
 9446SOL     OW40216   3.019   4.081  17.518  0.0481 -0.2619 -0.2514
 9446SOL    HW140217   3.092   4.135  17.549  1.0565 -2.1410  0.6328
 9446SOL    HW240218   3.021   4.091  17.423  0.5273  0.8794 -0.1272
 9447SOL     OW40219   4.266   1.848  14.813 -0.7119 -0.6190 -0.3911
 9447SOL    HW140220   4.330   1.826  14.880 -0.9622 -0.3335 -0.0577
 9447SOL    HW240221   4.295   1.933  14.779 -1.1917 -0.2538  0.1056
 9448SOL     OW40222   1.063   4.277  18.966 -0.2375 -0.1601  0.3180
 9448SOL    HW140223   1.086   4.227  19.044  0.4517  0.1431  0.3058
 9448SOL    HW240224   0.967   4.280  18.967 -0.2028  0.3779  1.4785
 9449SOL     OW40225   3.101   2.235  16.662 -0.1167 -0.2399 -0.2186
 9449SOL    HW140226   3.067   2.313  16.618 -1.9080 -0.9802 -0.1609
 9449SOL    HW240227   3.120   2.265  16.751 -0.8241  0.1298 -0.1866
 9450SOL     OW40228   1.347   2.165   4.281  0.3455  0.1912  0.0025
 9450SOL    HW140229   1.325   2.186   4.191  1.3372 -1.8726 -0.7266
 9450SOL    HW240230   1.307   2.079   4.296  1.5843 -0.2056  1.0130
 9451SOL     OW40231   3.873   1.051  15.401 -0.0678  0.4130  0.4742
 9451SOL    HW140232   3.860   0.967  15.446 -0.3301  0.7931  1.1145
 9451SOL    HW240233   3.919   1.028  15.320  0.3645 -0.2867  0.9124
 9452SOL     OW40234   4.552   1.337   0.929  0.9593  0.6954  0.5624
 9452SOL    HW140235   4.558   1.430   0.949  0.7230  0.7568  0.3435
 9452SOL    HW240236   4.521   1.297   1.010  0.4004  0.8913  0.4419
 9453SOL     OW40237   3.858   4.668  16.198  0.3300 -0.1128  0.0033
 9453SOL    HW140238   3.831   4.725  16.126  2.2455  0.7974  0.0198
 9453SOL    HW240239   3.779   4.661  16.253 -0.9061 -0.2215 -1.7862
 9454SOL     OW40240   2.567   4.202   2.200 -0.3150 -0.7998  0.0695
 9454SOL    HW140241   2.485   4.153   2.210  0.3110 -2.0774 -1.0455
 9454SOL    HW240242   2.610   4.161   2.125  0.6000  0.9206 -0.3362
 9455SOL     OW40243   1.180   3.579  11.658  0.3841 -0.7316  0.7249
 9455SOL    HW140244   1.189   3.561  11.752  0.8882  0.6397  0.9449
 9455SOL    HW240245   1.169   3.493  11.618 -3.8083 -0.9854  2.4818
 9456SOL     OW40246   1.099   2.600   5.231 -0.2565 -0.2978 -0.2498
 9456SOL    HW140247   1.089   2.510   5.262  2.0701 -0.4016  0.1818
 9456SOL    HW240248   1.090   2.653   5.310  4.3404 -0.4835  0.3541
 9457SOL     OW40249   1.299   4.683   4.483  0.6329  0.2753 -0.2483
 9457SOL    HW140250   1.250   4.745   4.429 -1.7074 -3.4277 -2.3915
 9457SOL    HW240251   1.257   4.686   4.568  1.1417  2.3374 -0.0546
 9458SOL     OW40252   2.491   2.266   2.568 -0.4424  0.1963  0.3053
 9458SOL    HW140253   2.422   2.269   2.502 -0.8983 -2.3221  0.6505
 9458SOL    HW240254   2.467   2.335   2.630 -1.6312  0.5935 -0.5775
 9459SOL     OW40255   3.759   3.611  18.715  0.5003  0.1769  0.6293
 9459SOL    HW140256   3.827   3.678  18.703  1.1522 -0.2030  2.2878
 9459SOL    HW240257   3.801   3.543  18.766 -0.1632 -1.5364 -1.0966
 9460SOL     OW40258   1.478   0.168   1.170  0.4385  0.1561 -0.3997
 9460SOL    HW140259   1.421   0.121   1.231  1.1214  0.1433  0.2345
 9460SOL    HW240260   1.420   0.197   1.100 -0.0255 -1.3875 -0.6385
 9461SOL     OW40261   4.057   4.278  16.442 -0.2577  0.2856  0.0182
 9461SOL    HW140262   4.035   4.336  16.370 -0.5137 -2.4373 -2.0844
 9461SOL    HW240263   4.145   4.246  16.421  0.9014  1.8465  2.4254
 9462SOL     OW40264   4.619   1.563  18.178 -0.0797 -0.5932 -0.3539
 9462SOL    HW140265   4.565   1.525  18.247  1.9342  0.5676  1.8664
 9462SOL    HW240266   4.665   1.488  18.140 -0.2671 -1.0852  0.3902
 9463SOL     OW40267   0.316   1.342  18.881 -0.3244 -0.0372  0.1646
 9463SOL    HW140268   0.276   1.261  18.849 -0.3769  0.2801 -0.5649
 9463SOL    HW240269   0.377   1.313  18.949  1.2927 -0.8977 -1.6377
 9464SOL     OW40270   3.652   0.869   6.560  0.3508  0.4783 -0.0313
 9464SOL    HW140271   3.729   0.826   6.598 -0.6327 -0.1214  1.2442
 9464SOL    HW240272   3.689   0.930   6.496  1.8246 -0.9544 -0.5492
 9465SOL     OW40273   1.414   2.564   1.752  0.3708 -0.4191 -0.0889
 9465SOL    HW140274   1.482   2.623   1.783 -0.4366  0.3160  0.2802
 9465SOL    HW240275   1.398   2.505   1.826  0.3835 -0.3970 -0.0686
 9466SOL     OW40276   3.441   3.022  12.715 -0.2905  0.7480  0.1761
 9466SOL    HW140277   3.457   2.931  12.691 -2.3708  0.4099  0.0433
 9466SOL    HW240278   3.511   3.043  12.776  0.7524 -0.6514 -0.5319
 9467SOL     OW40279   0.207   0.780   3.040  0.8107 -0.3345  0.7374
 9467SOL    HW140280   0.214   0.825   3.123 -1.1823  0.7345  0.3188
 9467SOL    HW240281   0.210   0.849   2.974 -3.1833 -0.7453  0.1319
 9468SOL     OW40282   4.638   3.083   2.666 -0.1235 -0.2774  0.0842
 9468SOL    HW140283   4.560   3.055   2.619 -0.5578 -0.8181  1.1240
 9468SOL    HW240284   4.608   3.157   2.720  0.5391  0.8295 -1.0519
 9469SOL     OW40285   3.903   3.943  19.463  0.1738  0.2221 -0.5179
 9469SOL    HW140286   3.863   3.945  19.550  0.8436  0.1157 -0.2009
 9469SOL    HW240287   3.990   3.981  19.477  1.3973 -2.5364 -0.5643
 9470SOL     OW40288   0.531   2.703  17.318  0.8888 -0.3745  0.9798
 9470SOL    HW140289   0.612   2.652  17.314  0.8879 -0.1366 -1.8465
 9470SOL    HW240290   0.463   2.641  17.291  0.5573  0.3741  0.1021
 9471SOL     OW40291   1.577   0.568   3.852 -0.1160  0.1788  0.5795
 9471SOL    HW140292   1.565   0.474   3.868  0.4650 -0.0679 -0.4263
 9471SOL    HW240293   1.554   0.609   3.935 -2.4462 -0.6944  0.3906
 9472SOL     OW40294   3.948   3.626   2.197  0.2467  0.1793 -0.1857
 9472SOL    HW140295   3.961   3.533   2.175  0.3045  0.1767 -0.1416
 9472SOL    HW240296   3.972   3.632   2.289  1.0131  0.3903 -0.3974
 9473SOL     OW40297   0.924   0.464  17.412  0.4199  0.3860 -0.5676
 9473SOL    HW140298   0.955   0.408  17.341  2.6687  0.8248  0.0586
 9473SOL    HW240299   0.976   0.544  17.403  0.4095  0.5999  1.3148
 9474SOL     OW40300   2.089   2.780  19.748 -0.0886  0.2519  0.1470
 9474SOL    HW140301   2.040   2.732  19.681  0.1135 -0.2465  0.3609
 9474SOL    HW240302   2.179   2.783  19.716  0.5083 -2.1810  1.6236
 9475SOL     OW40303   0.683   3.545   9.688 -0.6057 -0.3611 -0.1896
 9475SOL    HW140304   0.614   3.538   9.622  1.3432  0.0181 -2.3040
 9475SOL    HW240305   0.689   3.638   9.708 -0.1402 -0.2906 -0.6407
 9476SOL     OW40306   2.451   2.706  20.584  0.3575  0.3381 -0.5132
 9476SOL    HW140307   2.445   2.639  20.652 -2.5152 -0.2572 -1.3419
 9476SOL    HW240308   2.522   2.677  20.528  0.4662 -0.9527  0.2901
 9477SOL     OW40309   2.181   2.702  12.811 -0.3900  1.0798 -0.2049
 9477SOL    HW140310   2.271   2.671  12.798 -0.2593  0.4280  2.4090
 9477SOL    HW240311   2.189   2.798  12.812  0.0358  1.0656 -1.7735
 9478SOL     OW40312   2.254   2.254  13.692  0.2976 -0.0724  0.5419
 9478SOL    HW140313   2.233   2.306  13.614  1.9167  0.3637  0.3914
 9478SOL    HW240314   2.177   2.200  13.706 -0.2136  0.2278 -1.0690
 9479SOL     OW40315   3.544   4.589   2.773  0.1626 -0.6951 -0.0772
 9479SOL    HW140316   3.486   4.540   2.831 -0.5646 -0.4770 -0.6214
 9479SOL    HW240317   3.561   4.671   2.819  1.2099 -1.3587  0.7380
 9480SOL     OW40318   1.712   2.501   4.090 -0.2764  0.4044 -0.1501
 9480SOL    HW140319   1.687   2.480   4.179 -0.4006  1.8757  0.1685
 9480SOL    HW240320   1.792   2.451   4.075 -0.6113 -0.3410  0.5630
 9481SOL     OW40321   0.574   1.634   0.463 -0.1806 -0.5271 -0.0596
 9481SOL    HW140322   0.505   1.571   0.488  1.3858 -1.1276  2.7758
 9481SOL    HW240323   0.644   1.579   0.427  0.3047 -0.2096  0.4117
 9482SOL     OW40324   2.829   3.650   1.980  0.5390 -0.1307 -0.7232
 9482SOL    HW140325   2.847   3.720   2.043 -1.4596 -0.3656  0.1166
 9482SOL    HW240326   2.834   3.691   1.895 -0.3420  0.9647 -0.2394
 9483SOL     OW40327   3.451   3.189  21.137 -0.0490 -0.0998  0.0497
 9483SOL    HW140328   3.408   3.248  21.076 -1.7889  0.4685  1.8402
 9483SOL    HW240329   3.405   3.106  21.127 -0.5757  0.0950  0.8575
 9484SOL     OW40330   0.708   1.474  11.614 -0.1296  0.3111 -0.0715
 9484SOL    HW140331   0.641   1.474  11.545 -0.0990 -0.4051 -0.1001
 9484SOL    HW240332   0.779   1.420  11.579  0.1572  0.4750  0.2582
 9485SOL     OW40333   2.218   2.622  13.157 -0.0601 -0.0317 -0.5553
 9485SOL    HW140334   2.170   2.702  13.135 -2.6646 -1.9747 -1.8838
 9485SOL    HW240335   2.224   2.574  13.074  1.6638 -1.1427  0.2081
 9486SOL     OW40336   4.203   0.979  18.098 -0.6175  0.1712  0.2725
 9486SOL    HW140337   4.226   1.071  18.109 -0.8787  0.0584  1.7500
 9486SOL    HW240338   4.286   0.933  18.092 -0.4978  1.0022 -4.5479
 9487SOL     OW40339   2.612   3.877  17.631 -0.3581 -0.1490  0.7361
 9487SOL    HW140340   2.525   3.877  17.591 -0.1957  0.8703  0.3698
 9487SOL    HW240341   2.602   3.932  17.709  0.4123  1.4857 -0.3187
 9488SOL     OW40342   2.677   2.389  16.562  0.1907 -0.4234 -0.1024
 9488SOL    HW140343   2.626   2.327  16.615  0.9885  0.2635  1.4375
 9488SOL    HW240344   2.745   2.335  16.522 -0.1321 -0.8513 -0.0819
 9489SOL     OW40345   1.765   2.049   0.344  0.0613 -0.0141 -0.0341
 9489SOL    HW140346   1.759   2.137   0.309  1.4501  0.4246  0.8390
 9489SOL    HW240347   1.733   2.056   0.434 -3.9725 -1.2361 -1.3771
 9490SOL     OW40348   2.772   2.624  19.188  0.1972 -0.0142 -0.3487
 9490SOL    HW140349   2.855   2.613  19.234 -0.0497  1.0284  0.3214
 9490SOL    HW240350   2.718   2.676  19.247 -0.5470  0.2488 -1.2673
 9491SOL     OW40351   2.265   3.086  18.243  0.0573  0.0184  0.1879
 9491SOL    HW140352   2.204   3.109  18.313 -2.5395 -2.6873 -1.1607
 9491SOL    HW240353   2.341   3.049  18.288 -0.5036  0.7661  1.7313
 9492SOL     OW40354   1.644   4.269   4.675 -0.3327  0.1131  0.3131
 9492SOL    HW140355   1.736   4.260   4.650 -0.4038  1.1607 -0.3102
 9492SOL    HW240356   1.596   4.225   4.605 -0.4078  1.1496 -0.2890
 9493SOL     OW40357   2.963   2.904  15.877  0.1478  0.6991 -0.4169
 9493SOL    HW140358   3.030   2.860  15.929 -0.0973 -1.4382 -1.9493
 9493SOL    HW240359   2.906   2.945  15.942  0.9979 -0.2939  0.9465
 9494SOL     OW40360   1.216   1.084  18.872  0.2859 -0.1177  0.3653
 9494SOL    HW140361   1.285   1.149  18.881 -0.3272  0.5251  0.3863
 9494SOL    HW240362   1.240   1.033  18.794  0.4339  0.5104  0.0054
 9495SOL     OW40363   2.785   2.437  12.947  0.2312  0.3437 -0.1888
 9495SOL    HW140364   2.698   2.405  12.923  0.3276 -0.6863  0.7780
 9495SOL    HW240365   2.794   2.521  12.902 -1.1629  0.3319 -0.4894
 9496SOL     OW40366   2.331   2.947   6.946  0.3608 -0.4822 -0.1410
 9496SOL    HW140367   2.425   2.969   6.944  0.1522  0.2711 -1.9128
 9496SOL    HW240368   2.316   2.917   7.036  2.1486  0.0839  0.3681
 9497SOL     OW40369   3.643   3.570   2.008 -0.4497 -0.2163 -0.2368
 9497SOL    HW140370   3.630   3.518   1.928 -2.1643  0.0520 -0.1336
 9497SOL    HW240371   3.670   3.506   2.073 -1.8967 -0.8968 -0.2910
 9498SOL     OW40372   0.981   0.722   1.461 -0.5041  0.1155  0.0180
 9498SOL    HW140373   1.050   0.656   1.460 -2.8803 -2.3026 -1.8016
 9498SOL    HW240374   0.899   0.672   1.454 -2.4375  2.9776  2.2348
 9499SOL     OW40375   4.726   2.519  15.169 -0.2749 -0.0110  0.3852
 9499SOL    HW140376   0.020   2.580  15.194  0.3154 -0.5846  0.1346
 9499SOL    HW240377   4.769   2.434  15.166 -0.7567 -0.2053 -0.8234
 9500SOL     OW40378   2.781   3.276   4.380  0.0117  0.4646 -0.2267
 9500SOL    HW140379   2.852   3.328   4.417  0.4603 -1.4673  1.6309
 9500SOL    HW240380   2.713   3.276   4.448  0.5285 -2.4634  0.2696
 9501SOL     OW40381   0.022   0.071   4.272  0.2139  0.2608 -0.6171
 9501SOL    HW140382   4.705   0.059   4.255 -0.0925 -0.7933  1.7566
 9501SOL    HW240383   0.029   0.067   4.368  2.6727  0.4608 -0.7916
 9502SOL     OW40384   0.642   1.080   2.176  0.3392 -0.4465 -0.2746
 9502SOL    HW140385   0.665   1.150   2.114 -0.3999 -1.0325 -1.2141
 9502SOL    HW240386   0.704   1.010   2.157  2.9022  1.0374  2.5809
 9503SOL     OW40387   1.877   3.674  16.879  0.5459  0.1071 -0.0311
 9503SOL    HW140388   1.949   3.713  16.830 -0.8427  1.2845 -1.1536
 9503SOL    HW240389   1.907   3.586  16.901  2.9296  1.1381  0.8370
 9504SOL     OW40390   1.236   1.819   5.785  0.2693 -0.2299  0.3967
 9504SOL    HW140391   1.204   1.802   5.873  0.6450  0.0305  0.5796
 9504SOL    HW240392   1.157   1.813   5.730  0.3968 -2.5556  0.4513
 9505SOL     OW40393   4.681   0.219   8.388  0.0656 -0.1758 -0.1309
 9505SOL    HW140394   4.674   0.309   8.357  2.9668 -0.0785 -0.5003
 9505SOL    HW240395   4.595   0.200   8.425 -0.8645  2.4142 -0.9372
 9506SOL     OW40396   3.033   4.036  19.107 -0.2609  0.7648 -0.2184
 9506SOL    HW140397   3.011   4.128  19.093 -2.9852 -0.3489 -3.2341
 9506SOL    HW240398   2.973   4.008  19.176 -1.0817  0.5996 -0.9976
 9507SOL     OW40399   1.477   1.485  15.107  0.0151 -0.1533  0.1959
 9507SOL    HW140400   1.440   1.431  15.037 -1.6976  0.9428  0.2359
 9507SOL    HW240401   1.448   1.443  15.188 -1.2523  0.7794  0.2272
 9508SOL     OW40402   4.394   1.137  18.387 -0.5262 -1.1142  0.0929
 9508SOL    HW140403   4.398   1.043  18.400 -0.2979 -1.1332 -0.1193
 9508SOL    HW240404   4.301   1.155  18.368 -0.7170 -1.1812  0.9977
 9509SOL     OW40405   2.762   1.482   0.979  0.0615 -0.0181 -0.4411
 9509SOL    HW140406   2.789   1.569   1.008  1.6964 -0.9009  0.7088
 9509SOL    HW240407   2.721   1.496   0.893  0.4945  1.8416 -0.3373
 9510SOL     OW40408   3.988   1.103   5.299 -0.5338  0.2277  0.4950
 9510SOL    HW140409   4.079   1.132   5.301 -0.0973 -0.9533 -1.8958
 9510SOL    HW240410   3.943   1.170   5.248 -0.5555 -0.3449 -0.2553
 9511SOL     OW40411   3.487   0.473   3.963  0.6438 -0.2282  0.6940
 9511SOL    HW140412   3.440   0.442   4.041  0.1082 -0.8593  0.1202
 9511SOL    HW240413   3.427   0.536   3.923  0.6849 -0.3285  0.4799
 9512SOL     OW40414   2.450   4.519  14.408 -0.2069 -0.0986 -0.1317
 9512SOL    HW140415   2.376   4.462  14.388  0.1235 -0.9973  1.2923
 9512SOL    HW240416   2.523   4.483  14.357 -0.7124  0.7524 -1.4876
 9513SOL     OW40417   0.373   2.200  18.155  0.0788  0.3475 -0.4987
 9513SOL    HW140418   0.411   2.210  18.242  1.0505  1.1759 -1.0156
 9513SOL    HW240419   0.417   2.123  18.118 -1.0138 -0.5548  0.1137
 9514SOL     OW40420   1.145   0.766  18.397  0.2625 -0.0524  0.5666
 9514SOL    HW140421   1.227   0.787  18.352  0.1071  0.2227  0.4196
 9514SOL    HW240422   1.079   0.766  18.329  0.2024 -0.6398  0.6282
 9515SOL     OW40423   1.099   0.991  10.767  0.0461  0.5888 -0.1770
 9515SOL    HW140424   1.104   0.974  10.672 -0.1968  0.0642 -0.0977
 9515SOL    HW240425   1.141   1.076  10.778  1.2770  0.0450 -0.5894
 9516SOL     OW40426   3.357   1.104   4.997 -0.3002  0.5207  0.2950
 9516SOL    HW140427   3.357   1.097   5.093 -0.4045  0.9873  0.3302
 9516SOL    HW240428   3.320   1.022   4.967 -0.4342  0.4451  0.6645
 9517SOL     OW40429   3.587   1.296  17.602 -0.1309  0.1363  0.6109
 9517SOL    HW140430   3.606   1.384  17.570  0.2872 -0.2263 -0.1595
 9517SOL    HW240431   3.673   1.256  17.614 -0.2711  0.5670  3.0469
 9518SOL     OW40432   1.572   1.147  19.342 -0.7632  0.2739  0.6059
 9518SOL    HW140433   1.608   1.179  19.259 -0.2535 -0.7814  0.4264
 9518SOL    HW240434   1.480   1.173  19.339 -0.7456  0.2426 -0.2915
 9519SOL     OW40435   3.539   3.973   4.273  0.3231 -0.1478  0.2378
 9519SOL    HW140436   3.579   3.993   4.358  1.5648 -0.6191 -0.2343
 9519SOL    HW240437   3.494   4.053   4.248 -0.3546 -0.1236  1.5211
 9520SOL     OW40438   4.308   4.443  17.288 -0.2802  0.1389 -0.0124
 9520SOL    HW140439   4.241   4.379  17.264  1.5912 -1.1263 -1.8948
 9520SOL    HW240440   4.354   4.461  17.206  1.2180  1.5406  1.1329
 9521SOL     OW40441   1.513   3.186  16.985 -0.2011 -0.6300 -0.5390
 9521SOL    HW140442   1.429   3.215  17.022  0.9336  1.0891  0.7060
 9521SOL    HW240443   1.575   3.195  17.057  0.9535 -2.4148 -1.3085
 9522SOL     OW40444   3.027   3.947   4.355 -0.0122  0.4908  0.3498
 9522SOL    HW140445   2.998   4.016   4.296  1.5384  1.4961  0.7691
 9522SOL    HW240446   3.115   3.973   4.381  0.5260 -1.5843  0.5995
 9523SOL     OW40447   1.588   3.512  19.532  0.7155 -0.0128 -0.1535
 9523SOL    HW140448   1.636   3.450  19.476  1.1231 -0.2373  0.4509
 9523SOL    HW240449   1.656   3.561  19.578  0.4274  2.2547 -2.1254
 9524SOL     OW40450   0.733   3.291   0.089 -0.0530 -0.1470 -0.4927
 9524SOL    HW140451   0.686   3.373   0.076 -0.1145 -0.2808 -1.1021
 9524SOL    HW240452   0.756   3.262   0.001  0.6677 -0.3785 -0.2272
 9525SOL     OW40453   0.944   0.365  18.819 -0.4815  0.6167 -0.3863
 9525SOL    HW140454   0.979   0.343  18.732  0.5212  0.4919  0.0492
 9525SOL    HW240455   0.887   0.440  18.803  0.3546  1.1231 -1.0284
 9526SOL     OW40456   2.250   3.777  18.874 -0.1961 -0.4971  0.6172
 9526SOL    HW140457   2.170   3.795  18.824 -0.3483  1.5264  1.5906
 9526SOL    HW240458   2.248   3.682  18.889 -0.6560 -0.9597 -2.3500
 9527SOL     OW40459   0.491   1.404   4.844 -0.0104  0.4883 -0.0208
 9527SOL    HW140460   0.459   1.488   4.878 -0.5119  0.0131  0.6675
 9527SOL    HW240461   0.576   1.425   4.804  1.3561  0.7287  3.0142
 9528SOL     OW40462   4.140   3.964   3.540 -0.3101  0.3467  0.0070
 9528SOL    HW140463   4.200   3.901   3.580 -0.6375  0.1262  0.1465
 9528SOL    HW240464   4.059   3.956   3.590 -0.9212 -0.3604 -1.0982
 9529SOL     OW40465   1.577   3.465   9.699 -0.2012  0.1070 -0.2367
 9529SOL    HW140466   1.559   3.510   9.616  0.5406 -2.2815 -1.6809
 9529SOL    HW240467   1.508   3.400   9.707 -0.3938  0.4695  1.1410
 9530SOL     OW40468   1.913   1.533  10.867  0.3823 -0.0588  0.2879
 9530SOL    HW140469   1.923   1.618  10.825  2.2523 -0.5654 -0.2898
 9530SOL    HW240470   1.846   1.488  10.815  1.0332  0.1894 -0.7572
 9531SOL     OW40471   0.275   4.532  11.733 -0.0310  0.6669 -0.5280
 9531SOL    HW140472   0.204   4.597  11.732 -1.3806 -0.7964  0.6285
 9531SOL    HW240473   0.262   4.482  11.652 -0.3432  0.3634 -0.2888
 9532SOL     OW40474   0.610   3.208   0.334 -0.0958 -0.4476  0.1610
 9532SOL    HW140475   0.654   3.125   0.349 -0.3061 -0.4156  0.9763
 9532SOL    HW240476   0.631   3.231   0.244  1.0082 -0.7587  0.3355
 9533SOL     OW40477   3.718   0.064   0.931 -0.0104  0.4879 -0.6391
 9533SOL    HW140478   3.668   4.769   0.892  0.1507  0.4384 -0.7543
 9533SOL    HW240479   3.698   0.140   0.876 -0.6892  0.6778 -0.1339
 9534SOL     OW40480   2.726   2.939  17.155  0.3108  0.3847 -0.9489
 9534SOL    HW140481   2.651   2.969  17.206  2.0140 -3.0740  3.6670
 9534SOL    HW240482   2.689   2.884  17.086 -1.3348 -1.8314  1.7049
 9535SOL     OW40483   2.199   1.827   3.660  0.0344  0.5250 -0.6522
 9535SOL    HW140484   2.108   1.850   3.642 -0.3949 -1.0402 -0.5164
 9535SOL    HW240485   2.227   1.777   3.583  1.0705  1.8512 -1.1222
 9536SOL     OW40486   1.485   2.030   2.456 -0.2791  0.2065 -0.0052
 9536SOL    HW140487   1.456   2.122   2.454 -0.4697  0.1341 -0.4569
 9536SOL    HW240488   1.507   2.015   2.548  0.0449  0.7988  0.0146
 9537SOL     OW40489   4.452   1.615   9.783  0.1848  0.3634  0.0551
 9537SOL    HW140490   4.522   1.591   9.844  1.6305 -0.1904 -1.8634
 9537SOL    HW240491   4.397   1.537   9.778  0.6831  0.0335 -0.2358
 9538SOL     OW40492   4.617   0.452   8.196 -0.2815 -0.0263  0.0409
 9538SOL    HW140493   4.557   0.525   8.183 -2.1434 -1.7875 -1.2362
 9538SOL    HW240494   4.675   0.454   8.119  1.4647  1.8530  1.4219
 9539SOL     OW40495   3.544   4.327   7.356 -0.0007 -0.1168 -0.0842
 9539SOL    HW140496   3.450   4.309   7.355  0.2435 -1.3178 -2.5599
 9539SOL    HW240497   3.553   4.411   7.400 -2.1527 -0.4650  1.0117
 9540SOL     OW40498   4.351   4.390   0.985 -0.4666  0.1251  0.0716
 9540SOL    HW140499   4.309   4.475   1.000 -1.9893 -0.3448 -1.4866
 9540SOL    HW240500   4.390   4.398   0.898 -0.0634 -0.5613  0.1947
 9541SOL     OW40501   2.750   1.392   0.581 -0.4853 -0.0518  1.1111
 9541SOL    HW140502   2.840   1.424   0.572 -0.3117 -0.3416  1.8305
 9541SOL    HW240503   2.757   1.297   0.581 -0.9221 -0.0875 -0.1376
 9542SOL     OW40504   2.637   3.113   7.083  0.0399 -0.1269 -0.0657
 9542SOL    HW140505   2.619   3.120   7.176  0.7543 -1.2736  0.1640
 9542SOL    HW240506   2.670   3.199   7.057 -0.3090  0.2334  0.7066
 9543SOL     OW40507   0.111   0.563  17.220 -0.2260  0.5215 -0.3715
 9543SOL    HW140508   0.057   0.567  17.140 -2.1676  1.7552  0.9986
 9543SOL    HW240509   0.186   0.618  17.200 -0.2930  0.1420 -1.6864
 9544SOL     OW40510   0.499   1.400  18.458  0.0300 -0.5104  0.1158
 9544SOL    HW140511   0.555   1.351  18.518 -1.2338 -1.2474  0.6955
 9544SOL    HW240512   0.506   1.491  18.487  1.0097 -0.5939  0.1252
 9545SOL     OW40513   3.644   3.146  15.598 -0.1972 -0.0507 -0.1666
 9545SOL    HW140514   3.709   3.076  15.589 -0.8780 -0.7348  0.2211
 9545SOL    HW240515   3.633   3.157  15.692  1.7017  2.2492 -0.2337
 9546SOL     OW40516   4.648   2.840   3.824  0.6773 -0.5174  0.0733
 9546SOL    HW140517   4.654   2.751   3.791  0.4930  0.1718 -1.8538
 9546SOL    HW240518   4.696   2.893   3.760  1.3372  0.6642  1.5464
 9547SOL     OW40519   3.139   2.606  20.311 -0.4600  0.0787 -0.1811
 9547SOL    HW140520   3.193   2.605  20.232  0.9086  0.4570  0.7477
 9547SOL    HW240521   3.059   2.651  20.285  0.1275  0.5034 -1.2677
 9548SOL     OW40522   0.567   0.830  18.228 -0.4680  0.0298 -0.3323
 9548SOL    HW140523   0.619   0.760  18.189 -1.8145  0.2045 -2.3945
 9548SOL    HW240524   0.597   0.910  18.184  1.1849  0.7856  2.1278
 9549SOL     OW40525   1.746   2.130  12.258 -0.3281  0.1456  0.2888
 9549SOL    HW140526   1.731   2.139  12.164 -1.7561  0.7300  0.5780
 9549SOL    HW240527   1.709   2.210  12.297  1.4659  0.5347  1.2073
 9550SOL     OW40528   0.658   2.308   1.641  0.1429  0.6555  0.1723
 9550SOL    HW140529   0.614   2.242   1.694 -1.4402  1.1168 -0.5550
 9550SOL    HW240530   0.605   2.387   1.653  1.0882  1.3553 -0.2715
 9551SOL     OW40531   3.305   4.403  11.885 -0.0612  0.4326  0.6215
 9551SOL    HW140532   3.288   4.322  11.836 -1.7306  1.4234 -0.4729
 9551SOL    HW240533   3.273   4.472  11.827  3.1586  1.9971  0.7430
 9552SOL     OW40534   3.795   2.308  13.835  0.1756  0.1661 -1.0288
 9552SOL    HW140535   3.747   2.372  13.887 -1.2449 -2.0246  0.3854
 9552SOL    HW240536   3.732   2.236  13.822  2.3710 -1.7781 -0.9389
 9553SOL     OW40537   3.703   2.510  19.540  0.5697  0.2211 -0.0730
 9553SOL    HW140538   3.768   2.452  19.580  0.2078  0.0885  0.3219
 9553SOL    HW240539   3.623   2.458  19.537  0.2841  0.6410  0.1335
 9554SOL     OW40540   3.730   0.694   1.943 -0.6118 -0.6305  0.2523
 9554SOL    HW140541   3.636   0.694   1.930 -0.4189 -0.7803 -1.0684
 9554SOL    HW240542   3.745   0.761   2.010 -1.6033 -0.3055  0.1365
 9555SOL     OW40543   2.705   1.200  16.965 -0.4649 -0.0361  0.7878
 9555SOL    HW140544   2.736   1.162  16.883 -0.4657 -1.0827  1.2697
 9555SOL    HW240545   2.646   1.271  16.939  0.0187  0.0317 -0.1132
 9556SOL     OW40546   4.011   2.489  18.151  0.0154 -0.2192 -0.2233
 9556SOL    HW140547   3.935   2.507  18.205 -0.8997 -1.6703 -1.0276
 9556SOL    HW240548   3.980   2.503  18.061  0.9974  0.2725 -0.4871
 9557SOL     OW40549   2.999   4.516   5.781 -0.0830  0.3588  0.2913
 9557SOL    HW140550   2.935   4.515   5.852  0.4536  0.8003  0.7793
 9557SOL    HW240551   3.034   4.605   5.782 -1.7861  1.0546 -2.0361
 9558SOL     OW40552   2.957   1.839   1.277 -0.3936 -0.4843  0.1328
 9558SOL    HW140553   2.862   1.841   1.281 -0.3931  1.4248 -0.8705
 9558SOL    HW240554   2.978   1.762   1.223 -1.4236  0.9822 -2.3359
 9559SOL     OW40555   0.554   3.918  15.910 -0.2686  0.1966  0.1698
 9559SOL    HW140556   0.459   3.906  15.913  0.0040 -2.1173 -0.8012
 9559SOL    HW240557   0.571   3.953  15.823 -0.0564 -0.8958 -0.2299
 9560SOL     OW40558   4.443   2.072   7.513 -0.0545  0.4499  0.1173
 9560SOL    HW140559   4.398   2.027   7.441  0.5249  0.4529 -0.2407
 9560SOL    HW240560   4.532   2.039   7.510  0.6502  2.4730 -0.8370
 9561SOL     OW40561   2.402   2.131   2.272  0.6953 -0.1585 -0.0411
 9561SOL    HW140562   2.431   2.047   2.309  0.7884  0.0094  0.2710
 9561SOL    HW240563   2.314   2.143   2.308  0.5101 -0.3384 -0.4409
 9562SOL     OW40564   0.263   3.203  18.673  0.4750  0.4443  0.2356
 9562SOL    HW140565   0.277   3.194  18.767 -0.3657  0.1487  0.3377
 9562SOL    HW240566   0.170   3.183  18.661  1.0327 -1.5109 -0.9123
 9563SOL     OW40567   2.368   3.889  12.141 -0.3608 -0.1934 -0.4508
 9563SOL    HW140568   2.296   3.932  12.187 -1.2829 -2.7642  0.4987
 9563SOL    HW240569   2.443   3.900  12.199 -1.0872 -1.7297  0.7865
 9564SOL     OW40570   3.527   2.316   3.012 -0.8679  0.1295  0.1147
 9564SOL    HW140571   3.603   2.277   3.056 -0.8047  0.0479 -0.0697
 9564SOL    HW240572   3.548   2.409   3.005 -1.0694  0.2201  0.6650
 9565SOL     OW40573   1.387   2.264   3.548  0.2869  0.8475  0.1881
 9565SOL    HW140574   1.448   2.197   3.578 -0.9742  0.6484  2.2827
 9565SOL    HW240575   1.357   2.232   3.463  1.0276 -0.3957  0.3871
 9566SOL     OW40576   0.303   1.185   4.698  0.6683 -0.1505  0.2335
 9566SOL    HW140577   0.387   1.206   4.740  0.3797  0.6432  0.4261
 9566SOL    HW240578   0.271   1.108   4.745  0.4272  0.6421  1.3733
 9567SOL     OW40579   2.456   2.619   0.407  0.5787  0.3097  0.5001
 9567SOL    HW140580   2.530   2.664   0.366 -0.2283  1.2241  0.0481
 9567SOL    HW240581   2.496   2.557   0.468  1.7545 -0.0433 -0.6258
 9568SOL     OW40582   1.773   4.457  17.737  0.0788 -0.0055 -0.2956
 9568SOL    HW140583   1.810   4.376  17.702  0.4711 -0.9266  2.2548
 9568SOL    HW240584   1.705   4.428  17.799  2.1225  1.5822  2.6857
 9569SOL     OW40585   0.427   1.527   1.402 -0.3948  0.1950  0.6781
 9569SOL    HW140586   0.393   1.573   1.326  2.4213  0.3526 -0.4735
 9569SOL    HW240587   0.502   1.579   1.431 -0.3874 -0.8035  2.4907
 9570SOL     OW40588   0.395   4.632   2.679  0.0505  0.0273 -0.5397
 9570SOL    HW140589   0.474   4.585   2.707  0.2548  0.9510  0.4405
 9570SOL    HW240590   0.341   4.565   2.637  0.3441 -1.0609  0.8307
 9571SOL     OW40591   3.260   0.885  17.763  0.0246  0.4975 -0.7609
 9571SOL    HW140592   3.186   0.873  17.822 -0.7038  0.8872 -1.5844
 9571SOL    HW240593   3.337   0.886  17.820 -0.6303  0.3939  0.1241
 9572SOL     OW40594   3.022   1.930  16.838 -0.4235  0.5247  0.0716
 9572SOL    HW140595   3.054   1.904  16.925  0.1272 -1.8575 -0.8506
 9572SOL    HW240596   3.098   1.972  16.796 -0.2967  0.4326  0.2079
 9573SOL     OW40597   1.716   1.528   5.434 -0.8312 -0.9809 -0.0767
 9573SOL    HW140598   1.686   1.607   5.479  0.4638 -1.3865  1.5034
 9573SOL    HW240599   1.748   1.560   5.349  1.0401  0.3958  1.1388
 9574SOL     OW40600   3.408   3.622   6.914 -0.0009  0.9513  0.8265
 9574SOL    HW140601   3.412   3.559   6.986  1.5046 -0.0070 -0.0880
 9574SOL    HW240602   3.496   3.623   6.878 -1.4218 -0.6499 -2.7382
 9575SOL     OW40603   1.294   1.093  18.007  0.2283  0.2961  0.0303
 9575SOL    HW140604   1.348   1.014  17.995 -0.7292 -0.6671  1.9118
 9575SOL    HW240605   1.268   1.118  17.919  0.0021 -1.8816 -0.5295
 9576SOL     OW40606   3.949   2.386   3.182  0.5709  0.3143  0.1892
 9576SOL    HW140607   3.920   2.410   3.270 -1.8552 -0.0963 -0.4744
 9576SOL    HW240608   3.920   2.458   3.127 -1.4186 -1.2913 -0.8785
 9577SOL     OW40609   1.943   2.336   1.026 -0.1088  0.5627 -0.2110
 9577SOL    HW140610   1.890   2.261   0.998 -2.1703  1.9451 -0.0403
 9577SOL    HW240611   1.987   2.306   1.105 -2.6826  0.2964  1.1096
 9578SOL     OW40612   4.735   3.620  13.182 -0.0962 -0.2264 -0.1667
 9578SOL    HW140613   0.034   3.659  13.137  0.6506 -0.3722  0.9690
 9578SOL    HW240614   4.761   3.616  13.273 -0.6860 -2.2405 -0.0949
 9579SOL     OW40615   4.294   1.470   0.757 -0.5510  0.3243  0.3456
 9579SOL    HW140616   4.367   1.519   0.720  0.0917 -0.0246  1.1817
 9579SOL    HW240617   4.307   1.381   0.725 -1.2846  0.5261 -0.5194
 9580SOL     OW40618   2.539   1.396   5.040  0.3808 -0.0472  0.1792
 9580SOL    HW140619   2.508   1.487   5.031 -0.6706 -0.4266 -0.0967
 9580SOL    HW240620   2.482   1.359   5.108 -0.0011 -0.8605 -0.5890
 9581SOL     OW40621   3.292   2.847   5.777 -0.1738  0.1796 -0.2881
 9581SOL    HW140622   3.329   2.759   5.771  0.0582  0.1679  1.4468
 9581SOL    HW240623   3.359   2.899   5.820 -2.3433  0.0822  3.1908
 9582SOL     OW40624   2.759   1.848  14.419  0.1636  0.1592  0.0855
 9582SOL    HW140625   2.706   1.926  14.408 -0.4117 -0.0408  1.3472
 9582SOL    HW240626   2.819   1.848  14.345 -0.2743  1.4464 -0.2624
 9583SOL     OW40627   4.504   0.226   1.395  0.0815 -0.3268  0.0039
 9583SOL    HW140628   4.546   0.141   1.383  0.1262 -0.3700  0.4779
 9583SOL    HW240629   4.416   0.205   1.425  0.4436 -0.1745  1.1671
 9584SOL     OW40630   2.921   3.937  20.197  0.4138 -0.1238  0.1995
 9584SOL    HW140631   2.926   3.921  20.103  1.3029 -2.2795  0.6079
 9584SOL    HW240632   3.009   3.966  20.221  0.4745 -0.6189  0.5646
 9585SOL     OW40633   4.003   2.572  17.604  0.2801  0.9522 -0.2136
 9585SOL    HW140634   4.049   2.560  17.686 -1.3727  1.9999  0.8638
 9585SOL    HW240635   4.059   2.631  17.553  1.3045  0.2809  0.1434
 9586SOL     OW40636   0.644   1.091  18.789  0.1528 -0.0681 -0.1425
 9586SOL    HW140637   0.673   1.169  18.742  0.1812  0.4472  0.7357
 9586SOL    HW240638   0.655   1.020  18.726  1.3243  0.4501 -0.5174
 9587SOL     OW40639   1.666   4.724  13.141  0.3387  0.1191 -0.1610
 9587SOL    HW140640   1.692   4.710  13.232  1.2454  1.3859 -0.2280
 9587SOL    HW240641   1.598   0.015  13.145 -0.3082 -0.5302 -0.3233
 9588SOL     OW40642   0.085   2.845  18.506 -0.3539  0.3327 -0.3967
 9588SOL    HW140643   0.159   2.878  18.455  0.5340  0.0412  0.6983
 9588SOL    HW240644   0.025   2.809  18.441 -0.5297  2.5396 -1.4514
 9589SOL     OW40645   0.122   1.866  20.977 -0.0877 -0.6557 -0.1002
 9589SOL    HW140646   0.154   1.898  21.061 -0.3801  0.2894 -0.3447
 9589SOL    HW240647   0.066   1.937  20.944 -1.1999 -1.6643 -0.3762
 9590SOL     OW40648   4.372   3.878   6.827  0.9811 -0.7986 -0.4374
 9590SOL    HW140649   4.339   3.968   6.834  0.6794 -0.8716 -0.9030
 9590SOL    HW240650   4.360   3.841   6.915  0.9302 -0.4406 -0.2948
 9591SOL     OW40651   2.236   4.054   3.630  0.2549  0.3248 -0.5174
 9591SOL    HW140652   2.322   4.046   3.590  0.6840 -0.4200  0.5479
 9591SOL    HW240653   2.215   3.966   3.659 -1.3028  0.3127 -1.6600
 9592SOL     OW40654   4.209   3.823   1.673  0.2445 -0.5972  0.1316
 9592SOL    HW140655   4.221   3.915   1.647 -1.4752 -0.0868  1.1081
 9592SOL    HW240656   4.130   3.795   1.626 -0.3067 -1.0106  1.3025
 9593SOL     OW40657   3.212   2.371   3.116 -0.2988  0.5647 -0.0321
 9593SOL    HW140658   3.136   2.395   3.168  0.7831  0.6319  1.4943
 9593SOL    HW240659   3.250   2.295   3.161 -0.3115 -0.3866 -1.6003
 9594SOL     OW40660   2.355   4.016  14.503  0.1406 -0.0557  0.5503
 9594SOL    HW140661   2.381   3.924  14.499  0.7407  0.0729  1.6859
 9594SOL    HW240662   2.434   4.062  14.529 -0.4645  0.6653  1.1072
 9595SOL     OW40663   0.701   1.694  20.850 -0.3888 -0.0623  0.5574
 9595SOL    HW140664   0.615   1.718  20.885 -0.3615 -0.6719  1.0415
 9595SOL    HW240665   0.684   1.660  20.762 -0.5955  0.2618  0.4754
 9596SOL     OW40666   3.639   2.672  15.603 -0.4577  0.0021 -0.1541
 9596SOL    HW140667   3.580   2.684  15.529 -0.7089 -0.6056 -0.0527
 9596SOL    HW240668   3.582   2.675  15.680 -0.1154  1.2633  0.0489
 9597SOL     OW40669   1.705   1.047  17.329 -0.1738 -0.3384  0.6172
 9597SOL    HW140670   1.770   1.015  17.267 -2.2531 -2.1221 -0.6457
 9597SOL    HW240671   1.718   0.992  17.407  0.0964 -0.4524  0.4921
 9598SOL     OW40672   0.023   2.171  17.547  0.0020  0.4258  0.1639
 9598SOL    HW140673   0.092   2.237  17.555 -0.1447  0.4342  1.3784
 9598SOL    HW240674   0.036   2.115  17.624 -0.3002 -0.5513 -0.5010
 9599SOL     OW40675   1.677   0.262   2.704 -0.2264  0.2188  0.6613
 9599SOL    HW140676   1.604   0.313   2.738  1.1661  2.5439  0.1438
 9599SOL    HW240677   1.729   0.240   2.782  0.0219  0.9143  0.6896
 9600SOL     OW40678   3.076   0.397  13.396 -0.2576  0.1322  0.1281
 9600SOL    HW140679   3.053   0.399  13.489 -1.2420 -0.6828 -0.0937
 9600SOL    HW240680   3.122   0.479  13.381 -1.5444  1.0223  0.9648
 9601SOL     OW40681   0.425   4.403   2.410 -0.3087 -0.4609 -0.1466
 9601SOL    HW140682   0.469   4.321   2.435  0.8741  0.4090  0.5917
 9601SOL    HW240683   0.469   4.430   2.330 -0.7199 -0.5594 -0.4057
 9602SOL     OW40684   2.698   2.899  16.708 -0.1867  0.3550  0.0227
 9602SOL    HW140685   2.743   2.964  16.762  0.6958 -0.2078 -0.0319
 9602SOL    HW240686   2.659   2.838  16.771  1.0422 -0.4354  0.0347
 9603SOL     OW40687   4.254   1.656   1.273  0.3041 -0.1093 -0.3179
 9603SOL    HW140688   4.262   1.697   1.187 -0.5984  0.9369  0.1098
 9603SOL    HW240689   4.161   1.660   1.293  0.6062  0.2204  0.9984
 9604SOL     OW40690   2.705   3.010   5.026 -0.0665 -0.2911 -0.1643
 9604SOL    HW140691   2.692   2.999   4.932  0.1856  0.2611 -0.2678
 9604SOL    HW240692   2.770   3.080   5.033 -0.0032 -0.4051  0.4176
 9605SOL     OW40693   1.453   3.059   5.124 -0.3966  0.4163  0.4478
 9605SOL    HW140694   1.430   2.973   5.159  0.6711 -0.6340 -1.3888
 9605SOL    HW240695   1.369   3.105   5.117 -1.2812 -1.3468 -0.8283
 9606SOL     OW40696   1.280   3.444  15.487  0.1321  0.4432 -0.5261
 9606SOL    HW140697   1.321   3.407  15.565  0.5577  0.2803 -0.8290
 9606SOL    HW240698   1.271   3.370  15.427 -0.7699  0.4371 -0.3922
 9607SOL     OW40699   1.484   3.366   1.962 -0.5089 -0.3325 -0.2738
 9607SOL    HW140700   1.408   3.421   1.982  0.1762  0.2896  0.6392
 9607SOL    HW240701   1.523   3.406   1.884 -0.0942  0.4060  0.3047
 9608SOL     OW40702   2.222   1.325   8.164 -0.1902 -0.0347 -0.2749
 9608SOL    HW140703   2.306   1.287   8.140  0.6703  0.5934  1.8327
 9608SOL    HW240704   2.241   1.417   8.183 -1.0860 -0.2850  1.8027
 9609SOL     OW40705   0.894   4.375  17.331 -0.3475  0.1162  0.3447
 9609SOL    HW140706   0.922   4.440  17.267  0.7071 -0.2881  0.3943
 9609SOL    HW240707   0.969   4.316  17.340 -0.8353 -0.3735  1.2431
 9610SOL     OW40708   2.360   4.360   5.047  0.3201 -0.4184  0.0700
 9610SOL    HW140709   2.389   4.299   4.980  1.4356  2.0439 -1.6636
 9610SOL    HW240710   2.265   4.368   5.032  0.7575  1.0265 -1.9259
 9611SOL     OW40711   0.985   1.232  18.395  0.4697  0.2895  0.4115
 9611SOL    HW140712   0.947   1.145  18.390  0.5279  0.2341  0.8775
 9611SOL    HW240713   0.951   1.278  18.318  0.5682 -0.1904  0.0817
 9612SOL     OW40714   2.586   3.112   1.533 -0.2250 -0.1081  0.1321
 9612SOL    HW140715   2.612   3.076   1.448 -1.6820 -1.1139  0.1001
 9612SOL    HW240716   2.648   3.183   1.550  1.8191 -1.7688 -0.4544
 9613SOL     OW40717   4.675   1.037   2.639 -0.0344  0.2055 -0.1363
 9613SOL    HW140718   4.712   0.994   2.716 -1.6531 -1.4209 -0.2653
 9613SOL    HW240719   4.734   1.014   2.567  0.6563  0.4976  0.3423
 9614SOL     OW40720   0.776   0.812  21.069 -0.1518  0.2094 -0.1674
 9614SOL    HW140721   0.783   0.717  21.056  0.8098  0.2173  0.3032
 9614SOL    HW240722   0.864   0.839  21.096  0.2634  1.6181 -2.8623
 9615SOL     OW40723   0.170   0.451  15.873 -0.4310 -0.2329 -0.2485
 9615SOL    HW140724   0.259   0.484  15.883 -1.0126  0.9955  0.9115
 9615SOL    HW240725   0.170   0.406  15.788  1.7298 -1.6723  0.5214
 9616SOL     OW40726   2.828   3.764   1.715  0.1200  0.1594  0.1481
 9616SOL    HW140727   2.868   3.723   1.638  0.0785 -1.7401  1.1462
 9616SOL    HW240728   2.739   3.787   1.686  0.3219  0.0418 -0.5741
 9617SOL     OW40729   3.166   1.916  15.651 -0.3462  0.0438 -0.0893
 9617SOL    HW140730   3.161   1.939  15.743 -0.9431 -0.3714 -0.0162
 9617SOL    HW240731   3.113   1.982  15.607 -0.9089 -0.3578 -0.0239
 9618SOL     OW40732   3.667   0.762   0.675 -0.3309 -0.2985 -0.0955
 9618SOL    HW140733   3.738   0.741   0.614 -0.2542 -0.8035  0.1688
 9618SOL    HW240734   3.682   0.854   0.698  0.0459 -0.3083 -0.2969
 9619SOL     OW40735   0.559   1.564  13.361  0.1370 -0.2870  0.2140
 9619SOL    HW140736   0.593   1.645  13.323 -2.6850  1.0685  0.6025
 9619SOL    HW240737   0.495   1.532  13.298 -0.8667 -0.7065  1.4410
 9620SOL     OW40738   1.324   1.187  10.270  0.1528 -0.2959 -0.1017
 9620SOL    HW140739   1.229   1.172  10.272  0.1762 -0.5478 -1.1258
 9620SOL    HW240740   1.333   1.280  10.252  0.0972 -0.2665  0.0221
 9621SOL     OW40741   2.391   2.840  10.173 -0.0511  0.3814 -0.2210
 9621SOL    HW140742   2.326   2.822  10.242  1.0391  0.1396  0.7475
 9621SOL    HW240743   2.396   2.758  10.123 -0.1796  0.2573 -0.0300
 9622SOL     OW40744   0.824   1.632   0.124 -0.0901  0.3998 -0.8521
 9622SOL    HW140745   0.804   1.590   0.208  0.3260 -0.0638 -0.9825
 9622SOL    HW240746   0.906   1.679   0.140  0.4871 -0.4689 -1.2695
 9623SOL     OW40747   2.560   1.383   8.852  0.0691 -0.4162  0.6527
 9623SOL    HW140748   2.557   1.376   8.947  0.2914  0.5695  0.7354
 9623SOL    HW240749   2.506   1.311   8.821  0.3808 -1.0209  1.5206
 9624SOL     OW40750   0.956   2.159   1.927  0.3107 -0.2594 -0.6906
 9624SOL    HW140751   1.047   2.176   1.951  0.7417 -1.3313 -1.5676
 9624SOL    HW240752   0.917   2.121   2.006  1.0077 -1.2021 -0.8066
 9625SOL     OW40753   4.690   1.035   0.395 -0.6554  0.2255  0.3845
 9625SOL    HW140754   4.640   1.011   0.472 -0.2280  0.0190  0.6002
 9625SOL    HW240755   4.761   0.970   0.391  1.0701  2.0554  1.5355
 9626SOL     OW40756   2.003   2.635   4.243 -0.5741  0.1113 -0.3095
 9626SOL    HW140757   1.986   2.645   4.149 -2.2513  0.7019  0.0445
 9626SOL    HW240758   2.091   2.599   4.248  0.5533  2.6226 -2.0396
 9627SOL     OW40759   1.444   3.035   4.658 -1.0713 -0.0393  0.3760
 9627SOL    HW140760   1.424   2.972   4.727 -0.6813  0.9879  1.4309
 9627SOL    HW240761   1.499   2.986   4.596 -0.4178 -0.6051  1.4016
 9628SOL     OW40762   0.444   0.202  20.373  0.2945  0.1001 -0.2705
 9628SOL    HW140763   0.517   0.144  20.354 -1.0848 -1.9221  0.6684
 9628SOL    HW240764   0.417   0.179  20.462 -1.4952  0.8552 -0.6198
 9629SOL     OW40765   0.961   1.159   5.389  0.2447  0.0328  0.0404
 9629SOL    HW140766   1.042   1.158   5.338 -0.6195  1.6543 -1.3809
 9629SOL    HW240767   0.983   1.205   5.470  0.9571 -0.2746  0.0196
 9630SOL     OW40768   0.023   3.451  18.635 -0.1911 -0.3143 -0.2129
 9630SOL    HW140769   0.045   3.435  18.727  1.2115 -1.1548 -0.7008
 9630SOL    HW240770   0.023   3.546  18.626  1.5479 -0.2870  0.1859
 9631SOL     OW40771   2.418   2.433  17.291  0.4819 -0.7698  0.5740
 9631SOL    HW140772   2.340   2.434  17.347 -0.4262 -0.4416 -0.7130
 9631SOL    HW240773   2.462   2.515  17.311  0.5543 -1.0099  1.3961
 9632SOL     OW40774   1.720   0.714  21.099 -0.1468  0.2239  0.3511
 9632SOL    HW140775   1.805   0.759  21.099 -0.2408  0.3972  1.3514
 9632SOL    HW240776   1.726   0.652  21.171 -0.6440 -0.2051  0.0231
 9633SOL     OW40777   4.559   3.741   5.127  0.5574  0.2425  0.0865
 9633SOL    HW140778   4.572   3.769   5.036  1.2423 -1.8067 -0.4516
 9633SOL    HW240779   4.467   3.714   5.130  0.2534  1.2804  0.2731
 9634SOL     OW40780   4.397   1.113   2.503 -0.5777 -0.0742 -0.1322
 9634SOL    HW140781   4.301   1.104   2.506 -0.2004 -4.1997 -0.2893
 9634SOL    HW240782   4.426   1.082   2.588  0.6871  0.4776 -0.3689
 9635SOL     OW40783   1.623   4.146  10.196  0.2298 -0.0933  0.1717
 9635SOL    HW140784   1.704   4.158  10.246  0.0868 -0.4416  0.4810
 9635SOL    HW240785   1.635   4.202  10.119 -0.0327  1.3283  1.1650
 9636SOL     OW40786   2.920   1.405  11.761 -0.0269  0.2774 -0.3960
 9636SOL    HW140787   2.831   1.374  11.775  0.4729  0.0919  2.3573
 9636SOL    HW240788   2.913   1.501  11.762 -0.0495  0.2642  0.7809
 9637SOL     OW40789   1.055   4.234   0.489 -0.0963  0.0818 -0.7075
 9637SOL    HW140790   0.977   4.255   0.438 -0.1680 -0.4266 -0.8108
 9637SOL    HW240791   1.037   4.148   0.527  1.8228 -1.6089 -3.6068
 9638SOL     OW40792   3.410   0.889  12.395 -0.7507 -0.1562 -0.2300
 9638SOL    HW140793   3.317   0.890  12.415 -0.8164 -0.2750 -0.5267
 9638SOL    HW240794   3.429   0.798  12.373 -0.8097  0.0893 -1.2968
 9639SOL     OW40795   1.032   3.724   5.773 -0.2185 -0.3016  0.2802
 9639SOL    HW140796   1.098   3.659   5.798 -0.0101  0.0912  0.7544
 9639SOL    HW240797   1.083   3.801   5.746 -0.5056  0.5754  2.2306
 9640SOL     OW40798   3.681   1.010  12.368  0.1378  0.2290 -0.3757
 9640SOL    HW140799   3.704   0.951  12.440  0.8818 -1.2307 -1.7958
 9640SOL    HW240800   3.595   0.979  12.339 -0.7768  1.6783  0.7721
 9641SOL     OW40801   4.364   2.755   2.089 -0.4870 -0.0249  0.0665
 9641SOL    HW140802   4.356   2.849   2.076  1.7402  0.1866  0.1966
 9641SOL    HW240803   4.305   2.717   2.024  1.3289  1.3606 -2.4073
 9642SOL     OW40804   2.035   4.277   4.683 -0.6225  0.0150  0.0524
 9642SOL    HW140805   2.055   4.293   4.591 -0.1393 -0.4620  0.0725
 9642SOL    HW240806   2.013   4.184   4.686 -1.7782  0.2941  0.2172
 9643SOL     OW40807   3.431   1.586   2.248  0.6842 -0.0110 -0.3080
 9643SOL    HW140808   3.446   1.663   2.193  0.2958 -0.3689 -0.9116
 9643SOL    HW240809   3.410   1.622   2.335  2.2745  0.5345 -0.1559
 9644SOL     OW40810   1.544   4.163  15.660  0.3396  0.1776 -0.1339
 9644SOL    HW140811   1.639   4.159  15.649  0.4251 -0.1697  0.6749
 9644SOL    HW240812   1.508   4.150  15.572  1.0081 -1.4154 -0.1749
 9645SOL     OW40813   1.048   3.038  12.424 -0.0381 -0.3918  0.0517
 9645SOL    HW140814   1.094   2.990  12.355  0.7803  1.5272 -0.7336
 9645SOL    HW240815   1.117   3.086  12.469 -1.0832  1.3104 -0.1723
 9646SOL     OW40816   3.894   3.786   8.239 -0.4366  0.1038 -0.3701
 9646SOL    HW140817   3.952   3.798   8.164 -0.1567 -3.4220 -0.7514
 9646SOL    HW240818   3.810   3.820   8.210  0.1962  0.6871 -1.5446
 9647SOL     OW40819   0.088   0.990  14.095 -0.0792  0.0857 -0.1231
 9647SOL    HW140820   0.095   1.040  14.177 -0.6754 -0.5644  0.3264
 9647SOL    HW240821   4.772   0.962  14.093 -0.1627  0.4639 -1.2258
 9648SOL     OW40822   4.071   2.605   2.288 -0.5003 -0.3371 -0.3821
 9648SOL    HW140823   4.029   2.564   2.363  0.2208 -1.6981 -0.7378
 9648SOL    HW240824   4.165   2.597   2.304 -0.3437 -0.1163 -1.1491
 9649SOL     OW40825   1.161   3.156  17.224  0.2412  0.1021 -0.0314
 9649SOL    HW140826   1.097   3.103  17.178  2.0963 -0.7565 -1.6355
 9649SOL    HW240827   1.234   3.166  17.162  1.0819  2.1773  1.2719
 9650SOL     OW40828   1.005   2.604   3.143  0.1921  0.2063 -0.2162
 9650SOL    HW140829   1.088   2.589   3.187  0.8820  1.1801 -1.1951
 9650SOL    HW240830   1.002   2.698   3.128 -0.5644  0.0306 -1.1894
 9651SOL     OW40831   4.189   4.715   3.097  0.2576 -0.5186 -0.5170
 9651SOL    HW140832   4.093   4.715   3.096  0.2329  1.9295  0.9159
 9651SOL    HW240833   4.213   4.743   3.008 -0.3660 -0.1354 -0.5686
 9652SOL     OW40834   2.562   3.648  18.109 -0.1865 -0.1841 -0.2892
 9652SOL    HW140835   2.644   3.650  18.061  0.7548  0.4270  1.3619
 9652SOL    HW240836   2.560   3.731  18.158 -1.4094 -0.5518  0.2961
 9653SOL     OW40837   3.304   0.952   5.515  0.0738  0.4064 -0.7525
 9653SOL    HW140838   3.215   0.974   5.488 -1.1857 -1.9603  1.3985
 9653SOL    HW240839   3.339   0.900   5.442 -0.0226  2.0794 -1.9756
 9654SOL     OW40840   3.730   4.044  20.218 -0.2309 -0.2589  0.5124
 9654SOL    HW140841   3.728   4.139  20.207  1.4310 -0.3110 -0.2294
 9654SOL    HW240842   3.667   4.011  20.153 -1.1458  0.3578  1.0836
 9655SOL     OW40843   1.369   4.578   2.056 -0.2458 -0.4336 -0.5255
 9655SOL    HW140844   1.313   4.500   2.053  2.1799 -2.2051 -0.6625
 9655SOL    HW240845   1.335   4.635   1.988 -2.2224 -1.2829 -0.2381
 9656SOL     OW40846   3.311   2.637   3.045 -0.2780 -0.0982 -0.3669
 9656SOL    HW140847   3.277   2.552   3.073  0.8981 -0.6695 -0.7126
 9656SOL    HW240848   3.391   2.617   2.998 -0.2656  1.1697 -0.8800
 9657SOL     OW40849   1.787   2.544   0.440 -0.2082  0.1959  0.2628
 9657SOL    HW140850   1.727   2.518   0.510 -0.4239 -1.6723 -0.5944
 9657SOL    HW240851   1.734   2.601   0.384 -0.1690  1.3254  1.3694
 9658SOL     OW40852   3.561   0.889  20.201 -0.0132 -0.2780  0.2160
 9658SOL    HW140853   3.527   0.932  20.280  0.6723  0.5302  0.0717
 9658SOL    HW240854   3.644   0.933  20.184  0.9193 -1.9830  0.3416
 9659SOL     OW40855   3.751   3.714  10.069 -0.2819  0.3975  0.2858
 9659SOL    HW140856   3.688   3.699  10.139  0.3202  1.1120  0.9766
 9659SOL    HW240857   3.766   3.808  10.069 -1.2696  0.5484 -1.6646
 9660SOL     OW40858   4.507   4.347   2.212 -0.5203  0.0340 -0.1701
 9660SOL    HW140859   4.481   4.341   2.304  0.0644  0.2807  0.0066
 9660SOL    HW240860   4.602   4.355   2.214 -0.4832 -0.2597 -0.8091
 9661SOL     OW40861   3.967   3.021  15.727 -0.1943 -0.4462 -0.3555
 9661SOL    HW140862   3.923   2.960  15.668  0.9363 -0.4059 -1.2411
 9661SOL    HW240863   3.896   3.061  15.777 -1.1382 -0.6251 -1.5469
 9662SOL     OW40864   2.544   1.400   2.543 -0.1832 -0.1417  0.4790
 9662SOL    HW140865   2.466   1.447   2.513 -0.9185 -0.9572  1.1378
 9662SOL    HW240866   2.590   1.376   2.463 -2.2632 -2.5193  0.0171
 9663SOL     OW40867   3.351   0.869  16.350 -0.3119 -0.7817  0.5251
 9663SOL    HW140868   3.337   0.937  16.416  0.6101 -2.0556  2.0381
 9663SOL    HW240869   3.437   0.833  16.372  0.3327 -0.6698 -1.8531
 9664SOL     OW40870   3.322   3.915  11.960  0.6200 -0.3421  0.3034
 9664SOL    HW140871   3.297   3.991  11.908 -1.0930 -0.5350  0.8690
 9664SOL    HW240872   3.398   3.946  12.010 -0.4638  1.1939  1.0152
 9665SOL     OW40873   4.365   2.194   8.632  0.6631 -0.1415  0.4898
 9665SOL    HW140874   4.417   2.174   8.555 -0.2318 -1.6567  0.2653
 9665SOL    HW240875   4.427   2.189   8.705  1.1215 -0.5197  0.0711
 9666SOL     OW40876   2.084   1.756   1.529 -0.1543  0.0038  0.0355
 9666SOL    HW140877   1.997   1.788   1.550 -0.1238 -0.4629  0.8862
 9666SOL    HW240878   2.136   1.771   1.609  0.4153 -0.1524 -0.3011
 9667SOL     OW40879   0.021   4.158  16.281 -0.1100 -0.1196  0.3705
 9667SOL    HW140880   0.028   4.221  16.209 -0.2409 -2.7948 -1.9721
 9667SOL    HW240881   0.012   4.212  16.359  1.5885  2.8101 -1.4680
 9668SOL     OW40882   4.534   1.845  18.035  0.2880 -0.4588 -0.2566
 9668SOL    HW140883   4.585   1.818  17.959 -1.8196  0.0890 -1.8553
 9668SOL    HW240884   4.545   1.774  18.098  3.7488  0.0769 -0.2700
 9669SOL     OW40885   2.272   3.429  20.117 -0.1001 -0.0412  0.0159
 9669SOL    HW140886   2.310   3.445  20.203 -1.2450 -1.2158  0.7344
 9669SOL    HW240887   2.343   3.391  20.065  0.2261 -0.4996  0.8110
 9670SOL     OW40888   0.041   4.486   0.662 -0.5429 -0.7549  0.6087
 9670SOL    HW140889   0.041   4.578   0.634  0.1211 -0.3539  1.8985
 9670SOL    HW240890   4.725   4.461   0.661 -0.7280 -0.0650  0.2636
 9671SOL     OW40891   4.122   2.762  20.202 -0.3569  0.4938 -0.2457
 9671SOL    HW140892   4.033   2.748  20.171 -0.6465 -0.0752  0.8158
 9671SOL    HW240893   4.148   2.677  20.240  0.1815  1.0146  0.5531
 9672SOL     OW40894   4.645   3.936   2.684 -0.3756  0.1050  0.0354
 9672SOL    HW140895   4.616   4.010   2.737  2.4137  1.2401 -0.0264
 9672SOL    HW240896   4.611   3.859   2.730 -2.1513  1.3605  0.8156
 9673SOL     OW40897   0.234   0.424   0.979 -0.1699 -0.7150 -0.0550
 9673SOL    HW140898   0.187   0.372   1.044  1.9371 -1.3166  1.0061
 9673SOL    HW240899   0.248   0.364   0.906 -1.1025 -0.5139 -0.4019
 9674SOL     OW40900   3.321   1.452   3.171 -0.4104  0.3039 -0.5895
 9674SOL    HW140901   3.318   1.484   3.261 -1.3830  4.3323 -2.0677
 9674SOL    HW240902   3.407   1.479   3.139  0.5486 -2.4770 -0.3844
 9675SOL     OW40903   3.516   4.580  19.841 -0.2197 -0.0600  0.2365
 9675SOL    HW140904   3.452   4.645  19.812 -0.6074 -0.6882 -0.3217
 9675SOL    HW240905   3.585   4.583  19.775 -0.0363  0.0814  0.4341
 9676SOL     OW40906   3.249   1.987   3.763  0.2949  0.3825 -0.2042
 9676SOL    HW140907   3.312   1.947   3.823  0.0757  0.8554  0.3425
 9676SOL    HW240908   3.278   1.960   3.676  1.3767  0.7506  0.0407
 9677SOL     OW40909   1.181   0.149   4.346 -0.0485  0.2811  0.7278
 9677SOL    HW140910   1.174   0.172   4.253  1.6697 -0.2626  0.4568
 9677SOL    HW240911   1.188   0.233   4.391  1.8067  0.4621  0.1201
 9678SOL     OW40912   4.129   1.575   2.132  0.1480 -0.1071  0.7815
 9678SOL    HW140913   4.063   1.616   2.076 -1.7022 -0.0974  2.9754
 9678SOL    HW240914   4.094   1.487   2.150  0.5312  0.0438  2.2589
 9679SOL     OW40915   0.258   2.841   4.308  0.1592  0.1878 -0.0759
 9679SOL    HW140916   0.305   2.760   4.289 -0.9443 -0.8880  1.7152
 9679SOL    HW240917   0.327   2.907   4.320  1.1042 -0.7659 -0.3099
 9680SOL     OW40918   0.607   1.000  17.070 -0.1070  0.6668  0.2937
 9680SOL    HW140919   0.553   1.078  17.078  0.3159  0.9087  0.8581
 9680SOL    HW240920   0.697   1.031  17.085  0.1602  0.2273 -0.3800
 9681SOL     OW40921   2.402   3.487   0.966  0.6617  0.1055  0.3646
 9681SOL    HW140922   2.374   3.486   0.875  1.3463  1.4599  0.1428
 9681SOL    HW240923   2.337   3.433   1.012 -0.4688  0.5873 -0.6890
 9682SOL     OW40924   2.989   2.016  20.091 -0.3638 -0.0668  0.3277
 9682SOL    HW140925   3.002   1.923  20.110  1.5022  0.2090  0.3754
 9682SOL    HW240926   3.036   2.032  20.010  0.0440  1.0392  0.7762
 9683SOL     OW40927   1.672   0.074   0.454 -0.0388 -1.1564 -0.1485
 9683SOL    HW140928   1.702   4.760   0.465  2.9374 -0.2037 -0.3336
 9683SOL    HW240929   1.676   0.089   0.359 -1.2631 -1.1010 -0.1830
 9684SOL     OW40930   3.142   1.608   3.766  0.1731 -0.6082 -0.4180
 9684SOL    HW140931   3.115   1.592   3.675 -0.5175  0.5811 -0.4305
 9684SOL    HW240932   3.237   1.600   3.764  0.2266  0.1511 -1.4172
 9685SOL     OW40933   3.176   3.178   5.595  0.1968 -0.3422  0.2598
 9685SOL    HW140934   3.219   3.196   5.511 -2.5101  0.7733 -0.8820
 9685SOL    HW240935   3.146   3.088   5.588 -2.7764  0.7741 -1.1360
 9686SOL     OW40936   1.618   1.954  20.726  0.4923 -0.0405  0.0051
 9686SOL    HW140937   1.557   1.886  20.756 -0.6741  0.8123 -0.4559
 9686SOL    HW240938   1.636   2.006  20.804 -0.5783  0.6522 -0.2161
 9687SOL     OW40939   3.402   2.378  18.115  0.4951 -0.0564  0.3873
 9687SOL    HW140940   3.354   2.377  18.198  0.8628  1.4404  0.6204
 9687SOL    HW240941   3.458   2.300  18.119 -0.6773 -0.8853  0.8375
 9688SOL     OW40942   1.055   4.576  20.063  0.0275  0.2418 -0.2595
 9688SOL    HW140943   1.111   4.593  20.139 -0.8366  1.0495  0.1959
 9688SOL    HW240944   1.062   4.656  20.010 -2.5458  1.2579  0.9508
 9689SOL     OW40945   1.377   0.862   1.586 -0.6560 -0.0601  0.1051
 9689SOL    HW140946   1.335   0.854   1.500  0.5541  2.3930 -0.7348
 9689SOL    HW240947   1.308   0.896   1.643 -1.2296 -0.8927 -0.0943
 9690SOL     OW40948   3.718   2.976   0.294  0.1696  0.3575 -0.2414
 9690SOL    HW140949   3.722   3.058   0.245 -3.7934 -0.3291 -1.7239
 9690SOL    HW240950   3.625   2.962   0.311  0.9711 -2.8642  1.6655
 9691SOL     OW40951   4.111   2.146  17.583  0.0720 -0.0098  0.4549
 9691SOL    HW140952   4.028   2.157  17.538 -1.2499 -2.5552  2.2753
 9691SOL    HW240953   4.176   2.180  17.522 -2.2597  1.4291 -1.1983
 9692SOL     OW40954   4.299   0.232   8.298 -0.1747  0.5530  0.3860
 9692SOL    HW140955   4.205   0.238   8.315  0.1234  1.6070  1.6737
 9692SOL    HW240956   4.335   0.187   8.374  0.1231 -1.4111 -0.9097
 9693SOL     OW40957   2.538   1.456  17.868 -0.8571  0.0446  0.1232
 9693SOL    HW140958   2.507   1.365  17.866  1.5168 -0.7941  2.2521
 9693SOL    HW240959   2.613   1.457  17.808  0.6460  0.0379  1.9967
 9694SOL     OW40960   4.032   4.244   4.693 -0.4363 -0.0702  0.1278
 9694SOL    HW140961   4.029   4.202   4.607 -1.6343  0.3290 -0.0318
 9694SOL    HW240962   3.979   4.323   4.682  0.8400  0.8638  0.7524
 9695SOL     OW40963   1.074   1.370  17.829  0.0665 -0.1461  0.3685
 9695SOL    HW140964   1.117   1.345  17.911  0.4983  0.5858  0.3702
 9695SOL    HW240965   1.024   1.449  17.852  1.0731  0.6853 -0.3489
 9696SOL     OW40966   3.436   4.659   0.568  0.4336  0.0217  0.0199
 9696SOL    HW140967   3.523   4.670   0.530  0.4533  0.7827  0.2961
 9696SOL    HW240968   3.381   4.632   0.495  0.4743  1.4739 -0.5354
 9697SOL     OW40969   3.211   4.045   6.033  0.4030 -0.6573  0.2838
 9697SOL    HW140970   3.261   3.971   6.068  0.8684 -0.2428  0.4974
 9697SOL    HW240971   3.153   4.006   5.967 -0.3448 -1.4099  1.3945
 9698SOL     OW40972   1.844   0.803   4.819  0.0172 -0.3182  0.2159
 9698SOL    HW140973   1.895   0.729   4.785  1.0302  0.2005  0.6107
 9698SOL    HW240974   1.839   0.787   4.913 -2.0152 -1.2767 -0.0557
 9699SOL     OW40975   1.534   3.232  10.248  0.5189 -0.2869 -0.5217
 9699SOL    HW140976   1.578   3.284  10.181  0.8711 -0.1161 -0.1598
 9699SOL    HW240977   1.588   3.243  10.326 -1.7690  2.3068  0.7113
 9700SOL     OW40978   2.917   4.672   0.277 -0.4619 -0.0750 -0.3952
 9700SOL    HW140979   2.933   4.766   0.270  2.5891 -0.4158  2.2971
 9700SOL    HW240980   2.942   4.637   0.191  0.3289  1.2811 -0.7070
 9701SOL     OW40981   0.113   3.702  20.350 -0.1386 -0.6786 -0.1709
 9701SOL    HW140982   0.135   3.775  20.408 -0.0897 -0.2038 -0.7929
 9701SOL    HW240983   0.054   3.647  20.402 -0.8541  0.2478 -0.0138
 9702SOL     OW40984   1.977   2.878  19.970  0.6465  0.1805  0.0966
 9702SOL    HW140985   2.021   2.845  19.892 -2.4063 -0.1775 -1.4619
 9702SOL    HW240986   1.892   2.910  19.939 -0.7299 -0.3237  3.3210
 9703SOL     OW40987   3.482   2.171  16.898 -0.7980  0.0264 -0.1488
 9703SOL    HW140988   3.536   2.250  16.896  2.7073 -2.4956 -3.0361
 9703SOL    HW240989   3.506   2.127  16.979 -0.7225  0.4440  0.0552
 9704SOL     OW40990   3.194   2.839  17.000 -0.1832 -0.0481  0.1148
 9704SOL    HW140991   3.250   2.904  17.044  0.5382  0.2949 -1.3007
 9704SOL    HW240992   3.237   2.755  17.016 -0.2567  0.0054  0.5940
 9705SOL     OW40993   3.603   3.290  19.454  0.7291 -0.1030  0.0748
 9705SOL    HW140994   3.633   3.344  19.381  1.1640 -0.7241 -0.2072
 9705SOL    HW240995   3.643   3.204  19.438  0.1175 -0.4760  0.5721
 9706SOL     OW40996   2.299   1.079   4.954  0.0409  0.9099 -0.0895
 9706SOL    HW140997   2.227   1.021   4.931 -0.4439  0.8703  1.5435
 9706SOL    HW240998   2.319   1.125   4.872 -2.5186  1.6888 -0.2848
 9707SOL     OW40999   2.133   3.750  16.819  0.1397  0.4964  0.0917
 9707SOL    HW141000   2.114   3.774  16.729  1.6580  0.6085 -0.1850
 9707SOL    HW241001   2.160   3.658  16.815  1.2761  0.8285  0.3148
 9708SOL     OW41002   3.865   3.835   2.732  0.6379  0.1344 -0.5361
 9708SOL    HW141003   3.883   3.873   2.818 -1.2055  0.4126 -0.2830
 9708SOL    HW241004   3.908   3.749   2.734  0.3473  0.0250  0.7505
 9709SOL     OW41005   1.981   1.624  18.553  0.0221 -0.0168  0.2933
 9709SOL    HW141006   1.888   1.613  18.572  0.5760 -2.1261  1.7689
 9709SOL    HW241007   2.013   1.685  18.619  0.0372 -0.5044  0.7316
 9710SOL     OW41008   3.874   3.475   8.202 -0.2277 -0.0785 -1.0317
 9710SOL    HW141009   3.915   3.403   8.251  0.4238  0.0389 -1.4051
 9710SOL    HW241010   3.886   3.551   8.258 -0.9767 -0.2681 -0.6050
 9711SOL     OW41011   4.564   2.309   1.097  0.5957 -0.3702  0.0023
 9711SOL    HW141012   4.494   2.299   1.162 -0.6185 -0.0542 -1.2692
 9711SOL    HW241013   4.582   2.403   1.096  0.9980 -0.4424  0.2735
 9712SOL     OW41014   2.260   1.802  20.408  0.2156  0.3580 -0.2018
 9712SOL    HW141015   2.276   1.839  20.495  1.7519  0.2471 -0.4375
 9712SOL    HW241016   2.342   1.759  20.385 -0.6919 -0.9286 -1.0551
 9713SOL     OW41017   1.391   4.433   4.404  0.0943  0.1361  0.6183
 9713SOL    HW141018   1.362   4.514   4.445 -0.0350  0.3162  0.1685
 9713SOL    HW241019   1.310   4.392   4.373  0.3681  0.8650 -1.0574
 9714SOL     OW41020   0.315   3.787   9.505 -0.1664  0.3069 -0.5614
 9714SOL    HW141021   0.244   3.810   9.564  1.3239  0.8448  1.0220
 9714SOL    HW241022   0.395   3.800   9.557  1.1131  0.3452 -2.5339
 9715SOL     OW41023   3.435   2.916   5.406 -0.2266 -0.1253 -0.1126
 9715SOL    HW141024   3.502   2.882   5.346 -0.0214  1.2752 -0.6741
 9715SOL    HW241025   3.354   2.875   5.376  0.0233 -0.1385 -0.7765
 9716SOL     OW41026   3.743   1.806  19.318  0.7364 -0.3281 -0.2168
 9716SOL    HW141027   3.814   1.747  19.291  1.7390 -0.0328  1.7645
 9716SOL    HW241028   3.669   1.748  19.337  1.0289 -0.7652 -0.4123
 9717SOL     OW41029   2.481   1.225   0.728 -0.2550 -0.2999 -0.3324
 9717SOL    HW141030   2.435   1.284   0.668 -1.0299  0.4865  1.0508
 9717SOL    HW241031   2.417   1.157   0.748 -0.4410  0.1982  0.7250
 9718SOL     OW41032   0.703   2.431   5.425 -0.2587 -0.3317  0.3491
 9718SOL    HW141033   0.697   2.525   5.441 -0.1474 -0.3599  0.5510
 9718SOL    HW241034   0.720   2.423   5.331 -1.3810 -0.1825  0.1303
 9719SOL     OW41035   4.203   2.888   8.926  0.5095 -0.3919  0.0968
 9719SOL    HW141036   4.151   2.877   8.846 -0.3653 -0.3400  0.6659
 9719SOL    HW241037   4.169   2.968   8.966  1.1435 -0.2636  0.3753
 9720SOL     OW41038   3.919   2.638   5.831 -0.2904  0.5904 -0.1049
 9720SOL    HW141039   3.880   2.656   5.746 -1.4023 -0.3843  0.1908
 9720SOL    HW241040   3.870   2.695   5.892 -0.0184  0.7165 -0.0040
 9721SOL     OW41041   1.096   1.465  12.877 -0.1800 -0.4356  0.3814
 9721SOL    HW141042   1.034   1.396  12.901 -0.6446 -0.1649 -0.0382
 9721SOL    HW241043   1.148   1.427  12.806 -0.3600 -0.3995  0.2287
 9722SOL     OW41044   2.996   3.839   5.038  0.9504 -0.1185 -0.0944
 9722SOL    HW141045   3.065   3.889   4.996 -0.9127  1.2545 -1.4986
 9722SOL    HW241046   2.949   3.903   5.092  0.8727 -1.0815  1.0013
 9723SOL     OW41047   2.987   4.112   8.784 -0.2472 -0.0699  0.1930
 9723SOL    HW141048   2.984   4.179   8.852  2.2810 -1.1071  1.3415
 9723SOL    HW241049   2.895   4.098   8.760 -0.8755  2.6771  1.0487
 9724SOL     OW41050   3.848   0.042   2.812  0.2741  0.7862  0.4157
 9724SOL    HW141051   3.888   4.771   2.737 -0.3524  1.2165 -0.1833
 9724SOL    HW241052   3.901   0.015   2.887 -0.5774 -1.5262  0.2002
 9725SOL     OW41053   3.858   1.347   6.229 -0.2809 -0.1038 -0.1194
 9725SOL    HW141054   3.897   1.310   6.309 -0.1608  1.9928  0.7914
 9725SOL    HW241055   3.773   1.303   6.221 -0.7649  0.4994  1.7609
 9726SOL     OW41056   0.817   2.418   3.719 -0.3476 -0.3829 -0.5039
 9726SOL    HW141057   0.908   2.389   3.725  0.7711  3.4475  0.9189
 9726SOL    HW241058   0.790   2.433   3.810 -1.9563 -0.2043 -1.0105
 9727SOL     OW41059   2.173   4.298   1.550 -0.1333  0.0056 -0.0971
 9727SOL    HW141060   2.082   4.299   1.578 -0.2485 -1.6335 -0.4120
 9727SOL    HW241061   2.203   4.388   1.563 -1.9364  0.6667 -0.4791
 9728SOL     OW41062   1.229   1.084   0.059 -0.3137 -0.6699  0.0632
 9728SOL    HW141063   1.204   1.088   0.151  0.9621 -1.6881  0.4503
 9728SOL    HW241064   1.286   1.159   0.045 -1.1731 -0.0488 -0.0927
 9729SOL     OW41065   4.691   3.285   1.353 -0.0936  0.2018 -0.1908
 9729SOL    HW141066   4.691   3.239   1.269  1.0582  0.8503 -0.5297
 9729SOL    HW241067   4.632   3.233   1.408  0.9277 -1.4777 -0.6931
 9730SOL     OW41068   1.161   4.179  20.577  0.3986  0.0170 -0.3012
 9730SOL    HW141069   1.141   4.117  20.647  0.5687  0.8966  0.5114
 9730SOL    HW241070   1.205   4.126  20.510 -1.2759 -1.1597 -0.4780
 9731SOL     OW41071   1.677   0.383  19.687 -0.0164  0.4337 -0.0859
 9731SOL    HW141072   1.609   0.381  19.754 -0.1501 -0.1879 -0.2402
 9731SOL    HW241073   1.758   0.401  19.734 -0.3760  1.7141  0.0329
 9732SOL     OW41074   3.606   4.567   3.114 -0.1473 -0.4291  0.0476
 9732SOL    HW141075   3.611   4.598   3.023  0.5006 -1.3085 -0.2151
 9732SOL    HW241076   3.680   4.608   3.158  0.9245 -1.9069 -0.3882
 9733SOL     OW41077   0.986   1.006   3.481 -0.2895  0.1457 -0.2194
 9733SOL    HW141078   0.996   0.962   3.397  0.9010 -0.2855  0.1420
 9733SOL    HW241079   1.076   1.015   3.514 -0.7434  0.4051  0.9522
 9734SOL     OW41080   3.884   4.475   3.638  0.1082  0.2172  0.5937
 9734SOL    HW141081   3.892   4.408   3.571  0.5131  1.1343 -0.2742
 9734SOL    HW241082   3.806   4.451   3.687  0.4316 -1.0648  0.4827
 9735SOL     OW41083   0.837   4.618  11.599  0.0027 -0.3578  0.4471
 9735SOL    HW141084   0.835   4.651  11.689 -0.2597  0.1134  0.2720
 9735SOL    HW241085   0.825   4.697  11.545  0.0712 -0.6510  0.0051
 9736SOL     OW41086   1.610   4.462   5.943 -0.0697 -0.1914 -0.3820
 9736SOL    HW141087   1.533   4.519   5.946  0.2304  0.1749  0.3245
 9736SOL    HW241088   1.607   4.413   6.025  0.7347  0.1894 -0.1310
 9737SOL     OW41089   3.678   2.671   0.554 -0.1378  0.7201  0.3971
 9737SOL    HW141090   3.767   2.681   0.520 -0.1737  0.5315  0.2477
 9737SOL    HW241091   3.670   2.739   0.621  0.4760  0.0665  1.1425
 9738SOL     OW41092   4.749   0.841  20.757  0.0070  0.1899 -0.0675
 9738SOL    HW141093   4.719   0.904  20.692 -0.3947  1.4602  1.3489
 9738SOL    HW241094   4.677   0.778  20.766 -0.1572  0.3261 -0.4620
 9739SOL     OW41095   1.952   1.505   2.889  0.1559  0.1855 -0.3324
 9739SOL    HW141096   2.004   1.519   2.810  0.8180 -0.4784 -0.0201
 9739SOL    HW241097   1.861   1.516   2.860  0.4435  0.7865 -1.0017
 9740SOL     OW41098   2.920   3.614  18.716  0.6830 -0.4160 -0.3699
 9740SOL    HW141099   2.949   3.523  18.710  1.0460 -0.1701 -2.3940
 9740SOL    HW241100   2.843   3.618  18.659  1.8526  1.0286 -1.8408
 9741SOL     OW41101   2.696   0.754  18.461 -0.1468  0.0037 -0.4880
 9741SOL    HW141102   2.749   0.723  18.535 -1.1534  1.7653  0.9724
 9741SOL    HW241103   2.755   0.812  18.412  0.4870 -1.0808 -1.0167
 9742SOL     OW41104   3.629   0.851   7.232 -0.3338 -0.3085  0.1457
 9742SOL    HW141105   3.587   0.936   7.219 -0.2156 -0.1637  0.7482
 9742SOL    HW241106   3.623   0.809   7.146  0.0560  0.5047 -0.2764
 9743SOL     OW41107   3.759   2.791   6.007  0.7057 -0.6738 -0.5006
 9743SOL    HW141108   3.820   2.830   6.069  0.3609 -0.3347 -0.3771
 9743SOL    HW241109   3.725   2.714   6.052 -0.2990  0.1403  0.1058
 9744SOL     OW41110   4.045   1.783   0.110  0.1307  0.0096  0.4402
 9744SOL    HW141111   4.008   1.802   0.024 -1.4092 -1.1967  0.8257
 9744SOL    HW241112   4.094   1.701   0.098  0.5268  0.2314  0.5369
 9745SOL     OW41113   3.363   0.624  16.947 -0.1710  0.5999 -0.1166
 9745SOL    HW141114   3.297   0.565  16.985 -1.0110  0.1991 -2.2219
 9745SOL    HW241115   3.439   0.613  17.003 -0.1298 -2.9385 -0.8682
 9746SOL     OW41116   1.347   2.354  11.308  0.4152 -0.1438  0.2299
 9746SOL    HW141117   1.433   2.331  11.345  0.5775 -4.2245 -2.7308
 9746SOL    HW241118   1.284   2.313  11.367  0.5360  1.3265  1.3770
 9747SOL     OW41119   0.355   0.752  12.415 -0.4405  0.5033 -0.3662
 9747SOL    HW141120   0.417   0.700  12.466 -0.6075  0.0186 -0.6629
 9747SOL    HW241121   0.335   0.827  12.471  0.1069  0.4573 -0.1064
 9748SOL     OW41122   2.021   2.030  12.271 -0.2147  0.2297  0.3825
 9748SOL    HW141123   2.043   2.071  12.354 -1.1137  0.2943  0.5909
 9748SOL    HW241124   1.928   2.051  12.258  0.0326  0.5879 -0.8348
 9749SOL     OW41125   1.144   4.760  11.913  0.3599  0.2058 -0.1086
 9749SOL    HW141126   1.231   4.740  11.879  0.4915  1.0978 -0.2864
 9749SOL    HW241127   1.148   4.733  12.005  0.8077  0.2010 -0.1300
 9750SOL     OW41128   0.574   0.755   1.637  0.2043  0.2111  0.2692
 9750SOL    HW141129   0.519   0.818   1.591  0.9265  1.6550  1.4088
 9750SOL    HW241130   0.515   0.683   1.659 -0.5401  0.3445 -1.3145
 9751SOL     OW41131   1.590   2.943   4.437 -0.0196  0.0318  0.2813
 9751SOL    HW141132   1.553   2.974   4.355  2.1098  1.2346 -0.1921
 9751SOL    HW241133   1.647   2.871   4.412  0.2813  0.1037  0.7647
 9752SOL     OW41134   3.126   0.251  17.674  0.6738  0.5646  0.1931
 9752SOL    HW141135   3.077   0.243  17.592 -0.0418 -0.7142  0.7378
 9752SOL    HW241136   3.179   0.171  17.678 -0.5093 -0.1384  1.7756
 9753SOL     OW41137   2.011   1.169   1.251 -0.0555 -0.1916  0.4317
 9753SOL    HW141138   1.989   1.076   1.246  0.5775 -0.3235  0.1417
 9753SOL    HW241139   1.944   1.212   1.197 -0.1130 -0.5102  0.2471
 9754SOL     OW41140   4.699   3.330  15.512 -0.8404 -0.1883 -0.5158
 9754SOL    HW141141   4.616   3.351  15.471 -0.6032 -0.2520 -1.0273
 9754SOL    HW241142   4.764   3.342  15.443 -0.2824  1.1265  0.2108
 9755SOL     OW41143   3.414   3.586  19.767  0.0285 -0.2466  1.2240
 9755SOL    HW141144   3.356   3.568  19.693 -1.7624  1.6610  2.1776
 9755SOL    HW241145   3.412   3.505  19.819 -1.0414 -0.5125  0.7694
 9756SOL     OW41146   3.730   0.160   3.462  0.1460  0.2699  0.1249
 9756SOL    HW141147   3.670   0.207   3.403 -1.4895 -2.9894 -0.7874
 9756SOL    HW241148   3.672   0.112   3.521  1.8988 -2.6934 -0.6097
 9757SOL     OW41149   1.713   0.296  20.924  0.2309  0.5472  0.2711
 9757SOL    HW141150   1.710   0.206  20.891 -0.8501  0.7007 -0.0430
 9757SOL    HW241151   1.733   0.349  20.848  0.0714  0.6614  0.3099
 9758SOL     OW41152   3.466   2.137  18.461  0.0568  0.6079  0.0480
 9758SOL    HW141153   3.544   2.084  18.477 -0.2790  0.3760  0.9100
 9758SOL    HW241154   3.393   2.075  18.463 -0.1987  0.8929 -0.3038
 9759SOL     OW41155   2.607   1.755  15.552 -0.6528  0.2217 -0.2338
 9759SOL    HW141156   2.694   1.736  15.586 -0.7073 -1.1313 -0.8565
 9759SOL    HW241157   2.597   1.850  15.563  0.2364  0.1202  1.3749
 9760SOL     OW41158   1.153   0.965   1.721  0.0059  0.9119 -0.1389
 9760SOL    HW141159   1.173   1.059   1.717 -1.9079  1.3436  0.5473
 9760SOL    HW241160   1.062   0.961   1.748 -0.1201 -1.1506 -0.8911
 9761SOL     OW41161   0.127   1.327   0.641  0.2155  1.0679 -0.1961
 9761SOL    HW141162   0.138   1.346   0.735 -1.6312  2.5194 -0.2757
 9761SOL    HW241163   0.035   1.345   0.624 -0.6312 -4.3156 -1.1451
 9762SOL     OW41164   1.629   0.525  20.533  0.3080 -0.0589  0.2140
 9762SOL    HW141165   1.558   0.463  20.514 -0.0214  0.4036 -0.0504
 9762SOL    HW241166   1.586   0.610  20.538  0.6053  0.0180  1.5872
 9763SOL     OW41167   1.795   0.255  17.732 -0.4398  0.1363 -0.4441
 9763SOL    HW141168   1.766   0.246  17.641 -0.6735  0.2221 -0.3794
 9763SOL    HW241169   1.889   0.237  17.729 -0.0772  2.1863 -1.0150
 9764SOL     OW41170   4.140   2.534  20.354  0.0630 -0.3975 -0.0694
 9764SOL    HW141171   4.204   2.552  20.423  0.6321  0.1484 -0.7339
 9764SOL    HW241172   4.072   2.482  20.397 -1.1572  2.6579  1.6376
 9765SOL     OW41173   0.711   1.894   5.430  0.3833  0.5515  0.3434
 9765SOL    HW141174   0.791   1.944   5.444  0.5479  0.8597 -1.7283
 9765SOL    HW241175   0.730   1.840   5.353 -0.5762 -1.0495  1.2305
 9766SOL     OW41176   3.568   2.511  14.690  0.0449  0.0445  0.2350
 9766SOL    HW141177   3.511   2.466  14.628 -0.4632  1.4496 -0.3125
 9766SOL    HW241178   3.652   2.466  14.683 -0.8549 -1.7310  0.7023
 9767SOL     OW41179   1.085   4.233   6.680 -0.1799 -0.1078  0.1183
 9767SOL    HW141180   1.001   4.277   6.692 -0.4403 -0.8593  1.0408
 9767SOL    HW241181   1.062   4.146   6.645  0.2209 -0.2633  0.2389
 9768SOL     OW41182   2.045   4.101  17.172  0.2289  0.3676 -0.3737
 9768SOL    HW141183   1.998   4.121  17.091 -3.0595  0.1414  1.5164
 9768SOL    HW241184   2.069   4.008  17.163  0.4970  0.5362 -1.4099
 9769SOL     OW41185   0.861   3.562   8.765  0.0145 -0.1251  0.0072
 9769SOL    HW141186   0.779   3.607   8.741  0.3575 -0.0509 -1.0487
 9769SOL    HW241187   0.904   3.622   8.826  0.4728  0.9881 -1.4073
 9770SOL     OW41188   1.001   4.439  13.778  0.2695  0.3116 -0.1808
 9770SOL    HW141189   0.907   4.436  13.795  0.4440  0.3717  0.8066
 9770SOL    HW241190   1.009   4.433  13.683 -0.6336 -2.2186 -0.1025
 9771SOL     OW41191   1.273   0.704   0.273  0.3635  0.5625 -0.8991
 9771SOL    HW141192   1.324   0.750   0.206  1.9918  0.6249  0.3893
 9771SOL    HW241193   1.238   0.773   0.329  3.4611  0.1857  1.5010
 9772SOL     OW41194   3.675   3.441   4.438 -0.1361 -0.0262 -0.3596
 9772SOL    HW141195   3.717   3.495   4.505  1.8925 -1.2109 -0.6627
 9772SOL    HW241196   3.718   3.356   4.447 -3.2028 -1.5511  0.0337
 9773SOL     OW41197   2.748   3.498  11.855  0.5330 -0.5256 -0.1478
 9773SOL    HW141198   2.784   3.565  11.797  3.5776 -0.3321  2.0054
 9773SOL    HW241199   2.727   3.425  11.797 -0.8994  1.5171 -2.2003
 9774SOL     OW41200   1.668   4.222   0.941 -0.0520  0.0804 -0.1423
 9774SOL    HW141201   1.645   4.310   0.968  0.3652 -0.1036  0.8100
 9774SOL    HW241202   1.760   4.212   0.964 -0.6446 -1.3126  1.6205
 9775SOL     OW41203   3.837   3.590  11.102  0.6719 -0.4948  0.3059
 9775SOL    HW141204   3.849   3.519  11.165 -0.8432 -1.3206 -0.3415
 9775SOL    HW241205   3.801   3.662  11.154 -1.0586 -1.3468  0.2685
 9776SOL     OW41206   3.806   0.673  19.617 -0.0442  0.2670  0.2975
 9776SOL    HW141207   3.781   0.594  19.666  0.7684 -0.0801  0.1530
 9776SOL    HW241208   3.829   0.641  19.530 -1.1221  0.8448 -0.2047
 9777SOL     OW41209   0.601   3.804   0.451  0.2496  0.1616 -0.6364
 9777SOL    HW141210   0.599   3.897   0.429 -0.7277  0.2104 -0.3494
 9777SOL    HW241211   0.529   3.792   0.513  0.9472 -0.6061  0.0304
 9778SOL     OW41212   0.479   3.189   2.048 -0.1457  0.0980  0.5628
 9778SOL    HW141213   0.453   3.137   1.972  2.3606 -1.3078  0.6782
 9778SOL    HW241214   0.489   3.278   2.015  3.4138 -0.9969 -1.2279
 9779SOL     OW41215   2.008   3.599  17.772 -0.0308  0.3361 -0.5216
 9779SOL    HW141216   2.080   3.643  17.728  1.6271 -2.0008 -0.1265
 9779SOL    HW241217   1.997   3.648  17.854  0.7206  1.0517 -0.8508
 9780SOL     OW41218   2.907   2.539   8.189  0.7006  0.2304 -0.1968
 9780SOL    HW141219   2.881   2.606   8.253  1.3658 -0.4775  0.8054
 9780SOL    HW241220   2.834   2.535   8.128  0.1552  1.0675  0.3964
 9781SOL     OW41221   4.058   1.552   2.568 -0.0282  0.1570 -0.8376
 9781SOL    HW141222   4.139   1.561   2.620 -0.7938  1.5411  0.1253
 9781SOL    HW241223   4.064   1.622   2.504 -2.0564  2.3371  1.3606
 9782SOL     OW41224   3.234   1.038  14.827  0.0347  0.2876 -0.3411
 9782SOL    HW141225   3.322   1.055  14.860 -0.2057  0.0738  0.4008
 9782SOL    HW241226   3.198   1.124  14.806  0.2784  0.4012 -0.2888
 9783SOL     OW41227   3.908   3.671  18.144 -0.7544 -0.5018  0.0320
 9783SOL    HW141228   3.940   3.754  18.110 -1.1736 -0.6621 -0.7515
 9783SOL    HW241229   3.889   3.689  18.236  0.8957 -0.2171  0.3147
 9784SOL     OW41230   2.586   2.722  14.797  0.6118  0.0306 -0.4495
 9784SOL    HW141231   2.604   2.663  14.870 -2.6633  0.2700  0.5611
 9784SOL    HW241232   2.578   2.808  14.837 -3.1542 -0.1276 -0.8250
 9785SOL     OW41233   3.863   3.580  19.773  0.0689  0.3077 -0.0582
 9785SOL    HW141234   3.849   3.486  19.780  1.3304  0.1578  0.5976
 9785SOL    HW241235   3.958   3.590  19.771 -0.0589  1.5567 -0.2693
 9786SOL     OW41236   4.147   4.296  18.025 -0.1547  0.1441  0.5849
 9786SOL    HW141237   4.215   4.282  18.092  2.2831  0.3927 -1.8302
 9786SOL    HW241238   4.159   4.224  17.963 -1.9044  0.3602  0.0102
 9787SOL     OW41239   0.612   0.112   4.553 -0.0586 -0.4148 -0.0760
 9787SOL    HW141240   0.708   0.113   4.560 -0.2435  1.0202  2.2029
 9787SOL    HW241241   0.592   0.189   4.500 -0.0157 -0.3289  0.0335
 9788SOL     OW41242   3.594   1.278   6.218 -0.1352 -0.7542  0.0813
 9788SOL    HW141243   3.560   1.314   6.300 -0.2923 -1.3073  0.2592
 9788SOL    HW241244   3.558   1.335   6.150 -1.5025 -1.4016  0.2666
 9789SOL     OW41245   3.382   3.896  17.919  0.0022  0.0545 -0.3870
 9789SOL    HW141246   3.308   3.839  17.943  0.1760  0.8362  2.0275
 9789SOL    HW241247   3.341   3.978  17.892 -0.0403  0.2461  0.2647
 9790SOL     OW41248   3.712   2.860   6.417  0.1604  0.6304 -0.5941
 9790SOL    HW141249   3.749   2.778   6.450 -0.1076  0.7342 -0.0307
 9790SOL    HW241250   3.772   2.887   6.347  1.4682  1.1044  0.7141
 9791SOL     OW41251   2.299   3.001  20.238 -0.4842 -0.2597  0.5243
 9791SOL    HW141252   2.338   2.935  20.181 -1.2658 -0.3450  0.0945
 9791SOL    HW241253   2.373   3.057  20.263  0.2727 -1.6256  1.3366
 9792SOL     OW41254   1.104   2.787  15.212  0.2743 -0.5113  0.7442
 9792SOL    HW141255   1.067   2.699  15.225  1.1616 -0.6809  2.1719
 9792SOL    HW241256   1.198   2.776  15.225  0.6441  0.2285 -1.3322
 9793SOL     OW41257   0.738   2.877  15.877  0.6860 -0.0323  0.7444
 9793SOL    HW141258   0.723   2.914  15.964 -3.0746  0.0487  0.0663
 9793SOL    HW241259   0.696   2.791  15.880  0.9932 -0.2442 -0.8113
 9794SOL     OW41260   2.489   4.497  11.787  0.0752 -0.8351  0.5828
 9794SOL    HW141261   2.488   4.467  11.878  1.7731  0.8624  1.1729
 9794SOL    HW241262   2.456   4.587  11.791 -2.2918 -1.6450 -0.8056
 9795SOL     OW41263   3.358   0.431   0.692  0.3628 -0.3201  0.2807
 9795SOL    HW141264   3.399   0.490   0.755 -1.2444  0.2357  0.8044
 9795SOL    HW241265   3.358   0.481   0.610 -0.2450  0.0848  0.5289
 9796SOL     OW41266   2.455   1.075   3.762  0.3185 -0.2818 -0.2569
 9796SOL    HW141267   2.439   1.103   3.852  0.2004 -0.0943 -0.3351
 9796SOL    HW241268   2.550   1.075   3.753  0.3028  0.4903 -0.3807
 9797SOL     OW41269   0.902   4.341  20.144  1.0333 -0.1866  0.0875
 9797SOL    HW141270   0.930   4.348  20.236 -1.0979 -1.7528  0.8411
 9797SOL    HW241271   0.913   4.429  20.109 -0.6449  0.9766  2.5444
 9798SOL     OW41272   1.734   4.309   1.240 -0.3322 -0.3547  0.2898
 9798SOL    HW141273   1.736   4.273   1.329 -0.6393 -0.4130  0.2728
 9798SOL    HW241274   1.657   4.270   1.200 -0.9727  0.7322  0.4518
 9799SOL     OW41275   2.902   3.183   5.445 -0.3271 -1.1098  0.5349
 9799SOL    HW141276   2.914   3.183   5.540  2.1048  0.5407  0.2297
 9799SOL    HW241277   2.934   3.269   5.417  0.9179 -2.4160 -2.0224
 9800SOL     OW41278   4.619   2.571  18.944  0.3564  0.4932 -0.1746
 9800SOL    HW141279   4.699   2.623  18.955  0.1160  0.9746 -0.7304
 9800SOL    HW241280   4.548   2.635  18.948  0.1672  0.4151 -2.6057
 9801SOL     OW41281   2.650   0.255   2.721  0.0928  0.3170 -0.1299
 9801SOL    HW141282   2.631   0.349   2.719 -2.5497 -0.1917  0.6499
 9801SOL    HW241283   2.688   0.240   2.808 -0.2083  0.5469  0.0439
 9802SOL     OW41284   0.455   3.384  10.179  0.5913  0.4470 -0.4418
 9802SOL    HW141285   0.507   3.307  10.200  1.2638  0.9994 -0.1108
 9802SOL    HW241286   0.374   3.373  10.229  1.1789  0.5463  0.5132
 9803SOL     OW41287   1.997   1.163  16.735 -0.4543 -0.0160 -0.4364
 9803SOL    HW141288   1.938   1.125  16.670  0.0312 -1.7839  0.1589
 9803SOL    HW241289   2.043   1.233  16.688  0.1057 -1.4769 -2.0674
 9804SOL     OW41290   3.235   2.372  16.861  0.2195 -0.1009  0.2708
 9804SOL    HW141291   3.311   2.320  16.887  1.6817  1.8167 -0.1294
 9804SOL    HW241292   3.179   2.374  16.938  1.2521 -0.3130  1.0274
 9805SOL     OW41293   0.009   0.831   1.483 -0.7290  0.3800  0.0080
 9805SOL    HW141294   0.002   0.811   1.577 -1.8219  0.9478  0.0548
 9805SOL    HW241295   4.694   0.830   1.452 -0.5075  2.0430 -0.6646
 9806SOL     OW41296   1.753   3.270   9.835  0.4911 -0.5656 -0.2438
 9806SOL    HW141297   1.815   3.210   9.794  0.5013 -0.2125 -0.7431
 9806SOL    HW241298   1.726   3.329   9.765 -1.0333 -1.2312 -0.2154
 9807SOL     OW41299   2.249   3.203   4.060 -0.1266  0.3122 -0.7281
 9807SOL    HW141300   2.328   3.213   4.114 -0.5718  1.6897 -0.3450
 9807SOL    HW241301   2.237   3.108   4.054 -0.5991  0.1627  2.3811
 9808SOL     OW41302   2.910   2.847   2.179 -0.0406  0.2504 -0.0079
 9808SOL    HW141303   2.940   2.844   2.269 -0.6560 -1.8780  0.1168
 9808SOL    HW241304   2.983   2.815   2.127  1.2855  4.0223 -0.5051
 9809SOL     OW41305   0.580   3.334  18.056 -0.3401  1.0282  0.1553
 9809SOL    HW141306   0.547   3.267  17.995 -0.3076  0.2446  1.0092
 9809SOL    HW241307   0.661   3.364  18.016  0.6425 -0.8171  0.7619
 9810SOL     OW41308   2.120   1.638   1.283  0.5785 -0.4314 -0.6238
 9810SOL    HW141309   2.211   1.608   1.279  0.7812  0.1308 -0.1857
 9810SOL    HW241310   2.103   1.650   1.377  0.4472  0.6763 -0.7938
 9811SOL     OW41311   1.074   0.728  19.647 -0.7095  0.5373  0.6663
 9811SOL    HW141312   1.082   0.727  19.551 -0.6582  0.1940  0.6729
 9811SOL    HW241313   0.980   0.738  19.663 -0.5941  1.7053  0.5813
 9812SOL     OW41314   1.825   2.193   1.862 -0.0278 -0.6852 -0.0522
 9812SOL    HW141315   1.787   2.109   1.837 -0.3774 -0.5445  0.0056
 9812SOL    HW241316   1.898   2.205   1.800 -0.5437 -0.5999 -0.6462
 9813SOL     OW41317   1.975   4.196   6.073 -0.1855  0.1689 -0.1434
 9813SOL    HW141318   1.880   4.187   6.070 -0.1357 -0.6159  0.5523
 9813SOL    HW241319   2.003   4.179   5.983 -0.7305  0.6829 -0.4089
 9814SOL     OW41320   4.322   1.545  16.610 -0.3020  0.2163  0.5118
 9814SOL    HW141321   4.400   1.529  16.556  0.1083 -1.5033  1.6023
 9814SOL    HW241322   4.266   1.469  16.594 -1.3428  0.9843  0.4847
 9815SOL     OW41323   1.898   1.792  20.133 -0.2699 -0.8727  0.1499
 9815SOL    HW141324   1.924   1.737  20.207  1.0031  0.5387  0.7450
 9815SOL    HW241325   1.874   1.730  20.064 -1.2452 -2.1926  1.6742
 9816SOL     OW41326   0.847   1.342  18.205 -0.3609 -0.0187  0.7172
 9816SOL    HW141327   0.816   1.357  18.116  2.8747  2.3794  0.0274
 9816SOL    HW241328   0.791   1.397  18.260 -0.1066  1.0461 -0.1132
 9817SOL     OW41329   1.083   2.838   1.666 -0.3621  0.1414  0.0617
 9817SOL    HW141330   1.166   2.879   1.643  0.3873 -1.1805  0.3866
 9817SOL    HW241331   1.018   2.908   1.659  0.9923  1.5075  1.1565
 9818SOL     OW41332   2.420   2.513  13.935  0.1208  0.6245  0.2553
 9818SOL    HW141333   2.438   2.486  13.845 -1.5616 -0.1269  0.1273
 9818SOL    HW241334   2.443   2.606  13.938  0.0585  0.6767 -0.9964
 9819SOL     OW41335   1.089   2.793  20.319 -0.0952 -0.1640  0.3075
 9819SOL    HW141336   1.133   2.862  20.370  1.6737  0.4610 -2.0607
 9819SOL    HW241337   1.066   2.727  20.384 -0.1673  1.8263  2.3298
 9820SOL     OW41338   0.610   4.470   2.220  0.3640  0.2589  0.4844
 9820SOL    HW141339   0.697   4.482   2.182  0.8061 -1.4850  0.9732
 9820SOL    HW241340   0.550   4.506   2.154  1.2835 -0.6870 -0.8596
 9821SOL     OW41341   4.125   4.031  13.442  0.1119 -0.1603 -0.1808
 9821SOL    HW141342   4.129   4.052  13.535  0.0644  0.0410 -0.2244
 9821SOL    HW241343   4.046   3.978  13.432  0.9328 -1.4359  0.1453
 9822SOL     OW41344   2.113   2.614  17.845 -0.3871 -0.3906 -0.1491
 9822SOL    HW141345   2.096   2.586  17.935 -0.6880  0.5102  0.0831
 9822SOL    HW241346   2.067   2.698  17.838 -0.0926 -0.3087 -1.0424
 9823SOL     OW41347   4.306   0.381  18.962 -0.0293  0.1729  0.0797
 9823SOL    HW141348   4.276   0.291  18.957  2.6327 -0.7730  1.0449
 9823SOL    HW241349   4.324   0.395  19.055 -1.8983  2.1567  0.1324
 9824SOL     OW41350   1.105   1.640   0.362 -0.7416 -0.5211 -0.0078
 9824SOL    HW141351   1.077   1.728   0.340  1.1640 -0.0682 -0.6205
 9824SOL    HW241352   1.146   1.648   0.448  0.4578 -0.5991 -0.5635
 9825SOL     OW41353   4.260   0.029  19.530  0.6947 -0.1192  0.6250
 9825SOL    HW141354   4.323   0.081  19.481  0.3986 -0.7988 -0.4771
 9825SOL    HW241355   4.182   0.027  19.474 -0.3755  0.8919  2.0688
 9826SOL     OW41356   1.133   3.918  19.722 -0.2455 -0.5920 -0.5462
 9826SOL    HW141357   1.215   3.911  19.771 -1.5829  0.4375  1.8425
 9826SOL    HW241358   1.121   4.012  19.710 -2.2502 -0.6552  1.0463
 9827SOL     OW41359   0.863   2.703  20.728 -0.5893 -0.3965 -0.3321
 9827SOL    HW141360   0.804   2.659  20.789 -0.4135 -0.2943 -0.0839
 9827SOL    HW241361   0.882   2.638  20.661 -2.2073  0.0855 -1.2374
 9828SOL     OW41362   3.378   2.750   0.161  0.0276 -0.1025 -0.0084
 9828SOL    HW141363   3.299   2.731   0.109  0.9823 -0.1776 -1.4199
 9828SOL    HW241364   3.344   2.791   0.241 -1.5566 -1.4454  0.0185
 9829SOL     OW41365   4.760   3.139  11.063 -0.1608  0.0754  0.3166
 9829SOL    HW141366   0.001   3.190  11.143 -0.2722 -0.0754  0.4372
 9829SOL    HW241367   4.753   3.049  11.094 -0.7213  0.0831  0.2039
 9830SOL     OW41368   2.363   2.387   3.722  0.2887  0.5143  0.4933
 9830SOL    HW141369   2.391   2.316   3.664 -1.2763 -0.1364  0.5297
 9830SOL    HW241370   2.435   2.450   3.719  1.6082 -0.9880  0.3222
 9831SOL     OW41371   1.965   4.229  14.198  0.5419  0.2655  0.2741
 9831SOL    HW141372   1.875   4.209  14.174  0.5623  2.4532 -1.6618
 9831SOL    HW241373   1.970   4.325  14.197  2.9209  0.1600  0.1431
 9832SOL     OW41374   0.501   4.697  17.894 -0.6611 -0.4030  0.5353
 9832SOL    HW141375   0.584   4.669  17.933 -0.2034 -0.5717 -0.5578
 9832SOL    HW241376   0.441   4.625  17.912 -0.1338 -1.0034 -0.1136
 9833SOL     OW41377   0.370   4.359  19.712  0.5821 -0.0959  0.8452
 9833SOL    HW141378   0.368   4.264  19.723 -2.0515 -0.1507  0.0840
 9833SOL    HW241379   0.378   4.372  19.618  2.5267  0.4318  1.0856
 9834SOL     OW41380   3.875   3.852  17.891  0.0805  0.1241  0.3183
 9834SOL    HW141381   3.905   3.850  17.800  2.4920 -0.0316  1.1272
 9834SOL    HW241382   3.794   3.800  17.890  0.7355 -0.8825 -1.5073
 9835SOL     OW41383   1.271   0.581   4.733 -0.1241 -0.2845 -0.0819
 9835SOL    HW141384   1.263   0.641   4.807  0.9199 -0.5393  0.2411
 9835SOL    HW241385   1.183   0.578   4.695 -0.7970 -0.6218  1.5065
 9836SOL     OW41386   2.473   4.221   3.829 -0.2701  0.4946  0.3832
 9836SOL    HW141387   2.428   4.137   3.839 -1.5599  1.1631  0.1791
 9836SOL    HW241388   2.465   4.262   3.915  1.5720 -0.1967  0.8816
 9837SOL     OW41389   0.796   0.992   4.228 -0.3258 -0.0139 -0.0279
 9837SOL    HW141390   0.878   1.039   4.246 -0.7954  1.0143 -0.5670
 9837SOL    HW241391   0.814   0.941   4.149 -0.6662  1.3402 -0.9804
 9838SOL     OW41392   2.172   2.970  12.834 -0.5022  0.2415 -0.0400
 9838SOL    HW141393   2.203   3.040  12.776 -0.6367 -0.4346 -0.9211
 9838SOL    HW241394   2.083   2.952  12.804 -1.6223  1.9272  2.2583
 9839SOL     OW41395   3.970   1.747   2.320  0.4230 -0.0079  0.0600
 9839SOL    HW141396   3.957   1.657   2.290  0.0235  0.2659 -0.5993
 9839SOL    HW241397   3.890   1.793   2.292  0.9600  0.7175 -0.2872
 9840SOL     OW41398   0.394   4.039  12.093 -0.5560 -0.2428  0.5334
 9840SOL    HW141399   0.332   4.050  12.021 -1.1723  0.4559  1.1670
 9840SOL    HW241400   0.366   3.958  12.136  0.7032 -1.4333 -0.8923
 9841SOL     OW41401   4.589   3.127   1.911  0.9940 -0.2120 -0.5633
 9841SOL    HW141402   4.569   3.177   1.832 -1.7202  0.5114  0.5883
 9841SOL    HW241403   4.628   3.191   1.971  1.0193 -0.2858 -0.5005
 9842SOL     OW41404   0.960   3.331  12.060 -0.6630 -0.4703 -0.1841
 9842SOL    HW141405   0.891   3.277  12.098 -0.2196 -1.7658 -1.2087
 9842SOL    HW241406   0.980   3.396  12.127 -2.4469 -0.4767  0.3482
 9843SOL     OW41407   2.710   2.406   9.945  0.0670  0.4698 -0.4140
 9843SOL    HW141408   2.804   2.399   9.964  0.3304  1.2639 -1.4539
 9843SOL    HW241409   2.674   2.323   9.976  1.0339  0.3588  0.4385
 9844SOL     OW41410   0.069   3.320  19.816 -0.1917 -0.5238 -0.5022
 9844SOL    HW141411   0.145   3.307  19.759 -0.5011 -0.4046 -0.9453
 9844SOL    HW241412   0.019   3.239  19.807 -0.1636 -0.5651 -0.2823
 9845SOL     OW41413   4.350   1.555   5.219 -0.0292 -0.1190 -0.1642
 9845SOL    HW141414   4.330   1.564   5.126  2.4092  0.7566 -0.6050
 9845SOL    HW241415   4.281   1.498   5.253 -1.8941  0.9698 -2.1544
 9846SOL     OW41416   1.299   0.252   6.391  0.5442  0.6712  0.0067
 9846SOL    HW141417   1.225   0.247   6.331  2.0110  1.3049 -1.8545
 9846SOL    HW241418   1.348   0.171   6.374  1.2865  1.1393 -0.0585
 9847SOL     OW41419   3.754   4.369  19.776  0.2491  0.4027  0.1535
 9847SOL    HW141420   3.661   4.383  19.794  0.7438  1.2669  2.1466
 9847SOL    HW241421   3.759   4.348  19.683 -1.8301  1.3462 -0.1523
 9848SOL     OW41422   3.225   2.945   7.594 -0.2400 -0.3951 -0.3844
 9848SOL    HW141423   3.281   2.962   7.670 -2.3566  1.1107  0.8634
 9848SOL    HW241424   3.240   3.020   7.536 -3.1302  1.4448  1.2492
 9849SOL     OW41425   4.504   0.556  18.519  0.4152 -0.2740 -0.4641
 9849SOL    HW141426   4.420   0.569  18.476 -0.3825  1.3668  1.5751
 9849SOL    HW241427   4.560   0.517  18.452 -1.7601 -0.6954 -2.0307
 9850SOL     OW41428   3.150   2.635  19.238 -0.1348 -0.1484 -0.0529
 9850SOL    HW141429   3.137   2.637  19.333 -0.1427  2.0696 -0.1080
 9850SOL    HW241430   3.101   2.710  19.206 -0.9331 -1.4793 -1.9110
 9851SOL     OW41431   2.843   4.622  16.947 -0.4648  0.4114 -0.0589
 9851SOL    HW141432   2.787   4.685  16.902 -1.7897 -1.6071 -1.2479
 9851SOL    HW241433   2.896   4.583  16.878  1.0273  0.9259  0.8037
 9852SOL     OW41434   4.029   2.728   0.887  0.0583  0.7547  0.5969
 9852SOL    HW141435   3.965   2.664   0.919  0.0182  0.9577  0.9223
 9852SOL    HW241436   3.978   2.808   0.876  0.0432  0.6545 -0.0931
 9853SOL     OW41437   4.373   0.880  20.789  0.0344  0.7743  0.3432
 9853SOL    HW141438   4.421   0.800  20.770 -3.5392 -0.6179 -2.7003
 9853SOL    HW241439   4.314   0.857  20.861  0.2202  1.1021  0.6003
 9854SOL     OW41440   0.194   3.524  19.284 -0.4678  0.3795 -0.2182
 9854SOL    HW141441   0.255   3.517  19.357 -0.5209  2.3958  0.0360
 9854SOL    HW241442   0.249   3.520  19.206 -0.3011 -0.7207 -0.0409
 9855SOL     OW41443   2.259   4.350  14.331  0.1669  0.4847 -0.2534
 9855SOL    HW141444   2.209   4.283  14.378  0.5791  0.2431 -0.1566
 9855SOL    HW241445   2.193   4.404  14.287 -0.1218 -0.7399 -1.3303
 9856SOL     OW41446   3.457   2.174   5.676  0.4261  0.3090  0.2501
 9856SOL    HW141447   3.362   2.166   5.686  0.4280  0.5148  0.4432
 9856SOL    HW241448   3.477   2.122   5.599  0.2671 -0.4480  0.7146
 9857SOL     OW41449   3.264   1.778  14.881  0.4336 -0.3753  0.0236
 9857SOL    HW141450   3.239   1.863  14.918  0.5145 -0.9087  1.3235
 9857SOL    HW241451   3.181   1.733  14.865  0.4320 -0.5381  0.4932
 9858SOL     OW41452   0.553   4.538   0.706  0.7198 -0.1727  0.1114
 9858SOL    HW141453   0.487   4.577   0.763 -1.2371 -0.1520 -2.2269
 9858SOL    HW241454   0.534   4.444   0.708 -0.2363 -0.0182 -1.6723
 9859SOL     OW41455   0.326   1.437   0.191 -0.3121  0.6606  0.1206
 9859SOL    HW141456   0.333   1.458   0.285 -1.9845 -0.9151  0.5978
 9859SOL    HW241457   0.264   1.501   0.157 -1.9351 -0.6324  0.6664
 9860SOL     OW41458   0.004   3.301   2.082 -0.3761  0.0271  0.7226
 9860SOL    HW141459   0.069   3.362   2.046 -0.3590  0.0456  0.7861
 9860SOL    HW241460   0.049   3.217   2.086 -0.4144 -0.0011  0.5893
 9861SOL     OW41461   1.843   1.623  20.785  0.2315  0.7296  0.7214
 9861SOL    HW141462   1.832   1.541  20.834 -2.1874  0.1040 -0.8467
 9861SOL    HW241463   1.847   1.691  20.853  0.4726 -0.5020  1.9497
 9862SOL     OW41464   3.838   1.499  12.184 -0.0590  0.0314 -0.3885
 9862SOL    HW141465   3.806   1.567  12.244  1.2638  0.4609 -0.1498
 9862SOL    HW241466   3.811   1.417  12.224  0.7603  0.3206  0.7802
 9863SOL     OW41467   0.225   1.599  18.011  0.2503 -0.0643  0.4166
 9863SOL    HW141468   0.295   1.581  18.073  1.1167  0.8042 -0.3023
 9863SOL    HW241469   0.230   1.528  17.947  2.5686  1.8136 -1.4656
 9864SOL     OW41470   4.440   1.960  19.668  0.0584 -0.3218 -0.1627
 9864SOL    HW141471   4.517   2.017  19.668 -0.4283  0.3311  0.6087
 9864SOL    HW241472   4.411   1.959  19.576  0.0155  0.7499 -0.1640
 9865SOL     OW41473   2.405   1.636  13.726  0.2642 -0.5386 -0.3906
 9865SOL    HW141474   2.393   1.620  13.633 -1.4280 -2.7234  0.1970
 9865SOL    HW241475   2.320   1.616  13.765  1.0853 -0.0698  1.6626
 9866SOL     OW41476   2.197   2.966   3.594 -0.1199 -0.2328 -0.0663
 9866SOL    HW141477   2.186   2.953   3.500  1.5114 -1.7771 -0.0395
 9866SOL    HW241478   2.274   2.914   3.617  1.6072  2.9455  1.4698
 9867SOL     OW41479   0.890   3.916  16.255 -0.2880  0.1208  0.2370
 9867SOL    HW141480   0.797   3.918  16.231 -0.1155  1.0005 -0.3413
 9867SOL    HW241481   0.935   3.889  16.176 -0.1029 -0.9126  0.6907
 9868SOL     OW41482   2.062   1.475   3.640  0.1575 -0.8728 -0.4008
 9868SOL    HW141483   2.071   1.446   3.549 -0.5140 -0.3560 -0.6287
 9868SOL    HW241484   2.000   1.547   3.636 -0.4601 -1.3512  0.5746
 9869SOL     OW41485   2.646   3.204  16.664  0.3048 -0.1047  0.2665
 9869SOL    HW141486   2.700   3.191  16.742  1.6026  0.6118 -0.5068
 9869SOL    HW241487   2.670   3.132  16.606 -0.2501 -0.3212  0.3133
 9870SOL     OW41488   0.603   3.889   7.122  0.1725 -0.2247  0.3043
 9870SOL    HW141489   0.642   3.804   7.145  0.4341  0.0767  0.9863
 9870SOL    HW241490   0.679   3.948   7.114  0.1039 -0.4024 -1.6360
 9871SOL     OW41491   3.394   0.586   1.206 -0.0960 -0.0788  0.3014
 9871SOL    HW141492   3.311   0.552   1.172 -0.1672 -0.4034  0.7984
 9871SOL    HW241493   3.452   0.510   1.209 -0.2889 -0.1828  1.5145
 9872SOL     OW41494   1.412   1.168   1.873 -0.8077  0.3526  0.2989
 9872SOL    HW141495   1.349   1.132   1.811 -0.3110 -0.7758  0.4498
 9872SOL    HW241496   1.372   1.158   1.959 -0.6629  0.1448  0.3427
 9873SOL     OW41497   3.522   2.409  15.254  0.5671 -0.2478 -0.1851
 9873SOL    HW141498   3.603   2.426  15.206  0.9936 -2.2823 -0.1987
 9873SOL    HW241499   3.478   2.341  15.204 -1.0750  0.7259 -0.0726
 9874SOL     OW41500   2.109   4.117  14.456 -0.1543  0.2560 -0.5928
 9874SOL    HW141501   2.067   4.062  14.390  0.2856 -1.6482  0.7235
 9874SOL    HW241502   2.196   4.079  14.467  0.5823  1.9462 -0.5870
 9875SOL     OW41503   0.726   2.992  16.238 -0.1539  0.0053 -0.1905
 9875SOL    HW141504   0.793   3.055  16.264 -0.6728  0.3052  0.3976
 9875SOL    HW241505   0.760   2.908  16.269  0.1330  0.1012 -0.2391
 9876SOL     OW41506   0.227   0.199  15.263 -0.0183  0.0679 -0.4191
 9876SOL    HW141507   0.277   0.135  15.313 -0.4732  0.6506  0.7683
 9876SOL    HW241508   0.141   0.159  15.251 -0.9097  1.2758  1.9584
 9877SOL     OW41509   0.865   3.897   5.851 -0.0373 -0.5573  0.6398
 9877SOL    HW141510   0.819   3.844   5.915  1.1389 -1.8696  0.3926
 9877SOL    HW241511   0.931   3.839   5.814 -0.1236  0.4546 -1.1155
 9878SOL     OW41512   1.706   0.000  12.686  0.0930 -0.1036 -0.3095
 9878SOL    HW141513   1.613   0.013  12.667  0.4939  0.6275 -1.7741
 9878SOL    HW241514   1.728   0.071  12.746  0.1261  0.8073 -1.3737
 9879SOL     OW41515   2.593   1.675  16.822  0.0354  0.1506 -0.2734
 9879SOL    HW141516   2.597   1.699  16.915  0.2333 -0.0947 -0.2191
 9879SOL    HW241517   2.502   1.647  16.808  0.3311 -1.0251  0.1402
 9880SOL     OW41518   3.484   2.069   5.427 -0.3732  0.5673  0.2086
 9880SOL    HW141519   3.519   2.140   5.373  1.9909 -1.0697 -0.3723
 9880SOL    HW241520   3.447   2.007   5.364 -0.7091  0.3355  0.6337
 9881SOL     OW41521   1.345   2.247  20.677 -0.2673  0.0438 -0.6335
 9881SOL    HW141522   1.296   2.202  20.745 -0.2081  1.6738  0.4891
 9881SOL    HW241523   1.304   2.333  20.671  1.9156  1.0951 -0.3151
 9882SOL     OW41524   2.980   4.614  12.765 -0.3174 -0.5871  0.4426
 9882SOL    HW141525   3.023   4.682  12.816 -0.4811  1.1365 -1.7337
 9882SOL    HW241526   3.052   4.559  12.733  0.2284  2.0367 -2.8270
 9883SOL     OW41527   2.022   1.489   5.398 -0.0998 -0.3498  0.4693
 9883SOL    HW141528   1.942   1.518   5.442  0.8365 -0.0875  2.0174
 9883SOL    HW241529   2.007   1.397   5.378 -0.8897 -0.2377  0.5697
 9884SOL     OW41530   4.233   0.824  10.361 -0.1520  0.2633  0.7186
 9884SOL    HW141531   4.294   0.819  10.434  0.6199 -3.6124 -0.2060
 9884SOL    HW241532   4.214   0.733  10.338 -3.0749  1.4500 -1.6559
 9885SOL     OW41533   3.160   3.743   0.295  0.1544  0.2206 -0.2249
 9885SOL    HW141534   3.074   3.749   0.336 -0.0100  0.1283 -0.5540
 9885SOL    HW241535   3.155   3.802   0.220 -0.2650 -1.2384 -1.3635
 9886SOL     OW41536   3.470   1.416   5.363  0.1848 -0.5063 -0.4430
 9886SOL    HW141537   3.442   1.386   5.449 -0.0380 -1.3228 -0.8010
 9886SOL    HW241538   3.543   1.358   5.341  0.6513  0.1103 -0.5296
 9887SOL     OW41539   2.745   2.159  21.063  0.1190  0.0598  0.0385
 9887SOL    HW141540   2.669   2.198  21.019  0.6876 -0.1758 -1.1268
 9887SOL    HW241541   2.819   2.180  21.008  0.9116  0.2554  1.1734
 9888SOL     OW41542   0.466   0.746   9.465 -0.1632 -0.3638  0.1212
 9888SOL    HW141543   0.550   0.789   9.481  0.3777 -1.1480 -0.5842
 9888SOL    HW241544   0.433   0.786   9.384 -0.5074 -0.0038  0.4373
 9889SOL     OW41545   0.956   1.264   5.042 -0.4993  0.1689  0.7383
 9889SOL    HW141546   1.024   1.231   5.101  0.3011 -0.5606 -0.5895
 9889SOL    HW241547   0.978   1.226   4.957 -1.0124  2.1227 -0.2609
 9890SOL     OW41548   1.567   0.045   3.741 -0.1423 -0.1747 -0.2675
 9890SOL    HW141549   1.485   0.044   3.790  0.6966 -0.0516  1.1316
 9890SOL    HW241550   1.635   0.059   3.807  0.8092  1.9396 -1.7072
 9891SOL     OW41551   4.497   0.131   2.185  0.1636  0.4897  0.3430
 9891SOL    HW141552   4.519   0.152   2.276 -2.0764  0.4611  0.8912
 9891SOL    HW241553   4.433   0.197   2.160  0.2123  0.0376 -0.9771
 9892SOL     OW41554   1.136   2.172  14.096  0.0103  0.0017  0.6995
 9892SOL    HW141555   1.064   2.163  14.034  0.5398 -2.2957  0.4135
 9892SOL    HW241556   1.201   2.226  14.050 -0.5113  0.0964  0.0744
 9893SOL     OW41557   3.841   1.007   4.808  0.2123  0.0806 -0.7791
 9893SOL    HW141558   3.899   1.068   4.762  0.3558 -0.7595 -1.7092
 9893SOL    HW241559   3.763   1.059   4.828  0.8836  0.9450 -0.3874
 9894SOL     OW41560   0.441   0.622  21.021  0.3266 -0.8191 -0.0764
 9894SOL    HW141561   0.471   0.711  21.042  1.4710 -0.8187 -1.7473
 9894SOL    HW241562   0.367   0.635  20.963  0.8290 -0.9800 -0.7475
 9895SOL     OW41563   0.645   3.468  13.672 -0.2254 -0.3406  0.2196
 9895SOL    HW141564   0.717   3.500  13.727 -0.0094 -0.6811  0.1338
 9895SOL    HW241565   0.593   3.547  13.653  0.0491 -0.1169  0.3905
 9896SOL     OW41566   2.167   1.786   5.611  0.6386 -0.3112  0.2144
 9896SOL    HW141567   2.215   1.732   5.549  2.8549  3.1731 -1.1086
 9896SOL    HW241568   2.113   1.843   5.557 -0.3995 -0.0147  1.5650
 9897SOL     OW41569   0.264   1.533   5.873  0.5541  0.5868  0.0697
 9897SOL    HW141570   0.202   1.605   5.887 -1.0814 -0.8940  0.4006
 9897SOL    HW241571   0.242   1.499   5.786 -0.2725 -1.1103  0.9508
 9898SOL     OW41572   0.600   4.190   5.652 -0.4715 -0.4725 -0.1242
 9898SOL    HW141573   0.677   4.144   5.619 -0.2575  0.5837 -1.0994
 9898SOL    HW241574   0.526   4.132   5.631 -0.1760 -0.4765 -1.1281
 9899SOL     OW41575   4.131   2.242   3.038 -0.1947  0.1145  0.1308
 9899SOL    HW141576   4.174   2.318   3.000  0.3007 -0.8537 -1.2707
 9899SOL    HW241577   4.049   2.275   3.074 -0.0180  1.2871 -0.5631
 9900SOL     OW41578   4.446   3.800  16.378 -0.0842 -0.2872 -0.7001
 9900SOL    HW141579   4.454   3.795  16.283 -0.2900  3.3922 -0.9262
 9900SOL    HW241580   4.526   3.846  16.406  0.3831 -2.1221  0.9604
 9901SOL     OW41581   4.262   3.961  18.747  0.1136 -0.4413  0.1518
 9901SOL    HW141582   4.234   3.994  18.832 -1.5688  0.0113 -0.5709
 9901SOL    HW241583   4.317   4.031  18.711 -2.0252  0.8366 -0.6290
 9902SOL     OW41584   3.626   0.818   1.154 -0.2461  0.6664 -0.3751
 9902SOL    HW141585   3.614   0.909   1.127 -1.8346 -0.0363 -2.0278
 9902SOL    HW241586   3.539   0.778   1.145  1.1420 -1.8464 -2.8397
 9903SOL     OW41587   3.600   3.196  19.887 -0.8644 -0.3830 -0.0851
 9903SOL    HW141588   3.571   3.174  19.799 -0.9061  0.5179 -0.2993
 9903SOL    HW241589   3.545   3.270  19.913  0.0327  0.1947  0.1887
 9904SOL     OW41590   1.035   2.676  18.002 -0.2621  0.4535 -0.5639
 9904SOL    HW141591   0.956   2.627  17.980 -0.6552  0.9624 -0.3018
 9904SOL    HW241592   1.107   2.625  17.965 -0.7332  0.0903 -0.9727
 9905SOL     OW41593   1.760   2.928   3.401  0.5997 -0.4884  0.1493
 9905SOL    HW141594   1.782   2.978   3.480  1.8414 -0.7338 -0.0350
 9905SOL    HW241595   1.681   2.880   3.424  0.1169  0.5893  0.7541
 9906SOL     OW41596   3.868   3.164  18.316 -0.2565  0.0219  0.1344
 9906SOL    HW141597   3.879   3.251  18.357 -1.1028  0.4243 -0.4936
 9906SOL    HW241598   3.790   3.173  18.261  1.1623 -0.4022 -1.9338
 9907SOL     OW41599   1.890   3.699   3.074 -0.1672  0.0464  0.3834
 9907SOL    HW141600   1.887   3.608   3.103 -1.2135  0.6186  2.0259
 9907SOL    HW241601   1.956   3.740   3.129 -0.4691  0.5513  0.3671
 9908SOL     OW41602   0.291   3.494   4.436  0.5579 -0.5044 -0.0986
 9908SOL    HW141603   0.232   3.492   4.511 -0.9182 -0.1107 -1.2435
 9908SOL    HW241604   0.345   3.572   4.451 -0.1027 -0.1126  0.2795
 9909SOL     OW41605   2.425   0.345  15.709 -0.1598  0.7401 -0.0457
 9909SOL    HW141606   2.461   0.432  15.695  0.3117  0.6365  0.5354
 9909SOL    HW241607   2.341   0.346  15.663  0.1890  1.2560 -0.6671
 9910SOL     OW41608   2.689   3.939   1.339  0.3135 -0.2090  0.0708
 9910SOL    HW141609   2.715   3.847   1.339  1.5828  0.1576 -0.7685
 9910SOL    HW241610   2.607   3.941   1.388  0.2507 -1.8020  0.0069
 9911SOL     OW41611   0.699   3.840  17.378  0.2661 -0.2815  0.0437
 9911SOL    HW141612   0.611   3.822  17.344  0.3607  0.7062 -0.7289
 9911SOL    HW241613   0.700   3.800  17.465 -0.7295 -0.8708 -0.2153
 9912SOL     OW41614   2.608   1.441   3.481 -0.2562  0.1087  0.1093
 9912SOL    HW141615   2.605   1.466   3.574  1.0368 -0.6350  0.3596
 9912SOL    HW241616   2.613   1.346   3.482 -1.5187  0.0266 -0.7643
 9913SOL     OW41617   3.319   0.468  18.782 -0.2367  0.0872  0.6382
 9913SOL    HW141618   3.305   0.413  18.705  0.8970  1.7538 -0.7550
 9913SOL    HW241619   3.231   0.479  18.819 -0.9625  0.3215 -1.1189
 9914SOL     OW41620   3.524   4.008   0.943 -0.3536 -0.1335  0.1234
 9914SOL    HW141621   3.582   3.957   0.887 -1.4995 -0.2111 -0.9741
 9914SOL    HW241622   3.546   4.099   0.924 -1.8936 -0.1356 -1.6366
 9915SOL     OW41623   0.424   2.062  11.848  0.4064 -0.2088 -0.0319
 9915SOL    HW141624   0.503   2.105  11.815  0.7439 -1.2604 -0.5913
 9915SOL    HW241625   0.453   1.973  11.870 -0.1726  0.0222  1.6177
 9916SOL     OW41626   2.129   1.112  19.193 -0.3855 -0.1739  0.5223
 9916SOL    HW141627   2.072   1.181  19.229 -2.8297 -1.2503 -1.2926
 9916SOL    HW241628   2.068   1.043  19.166  1.9552 -2.2667  0.6459
 9917SOL     OW41629   3.330   4.256  18.584 -0.5058  0.2469 -0.1059
 9917SOL    HW141630   3.320   4.215  18.497  0.4283  1.1438 -0.6384
 9917SOL    HW241631   3.301   4.346  18.571 -0.0985  0.4553  0.4534
 9918SOL     OW41632   0.840   3.601  13.792 -0.4604 -0.0377  0.0586
 9918SOL    HW141633   0.847   3.683  13.744 -0.6969 -0.1530 -0.1748
 9918SOL    HW241634   0.887   3.617  13.874 -0.0354  0.1502 -0.2204
 9919SOL     OW41635   0.667   2.058   3.479 -0.3351 -0.8787  0.2020
 9919SOL    HW141636   0.758   2.040   3.504  0.5485  0.9951 -1.6791
 9919SOL    HW241637   0.619   1.981   3.508  1.5410 -1.0352  2.9922
 9920SOL     OW41638   2.600   1.174   5.390 -0.8840 -0.5028  0.1237
 9920SOL    HW141639   2.549   1.118   5.331 -1.1399  1.1201 -1.1994
 9920SOL    HW241640   2.561   1.260   5.380  0.9339  0.3532  0.5331
 9921SOL     OW41641   1.672   2.393   3.622  0.2001 -0.2482  0.0765
 9921SOL    HW141642   1.585   2.414   3.658  1.1582  0.4682  1.9917
 9921SOL    HW241643   1.705   2.324   3.680  1.7430  0.8802  0.5223
 9922SOL     OW41644   1.708   1.922   1.858  0.1635 -0.1409  0.1767
 9922SOL    HW141645   1.649   1.859   1.899  0.0728  0.6423  1.2606
 9922SOL    HW241646   1.796   1.885   1.870 -0.0993 -1.2226 -1.2889
 9923SOL     OW41647   3.122   1.349   0.342 -0.5131 -0.6761  0.0999
 9923SOL    HW141648   3.154   1.429   0.383 -1.9489 -0.5641  1.0190
 9923SOL    HW241649   3.113   1.287   0.414 -1.3874 -1.0123 -0.2924
 9924SOL     OW41650   2.600   3.194  13.875 -0.1495 -0.2285 -0.0302
 9924SOL    HW141651   2.561   3.269  13.919 -0.5195  0.5818 -1.7378
 9924SOL    HW241652   2.691   3.194  13.903 -0.5076 -0.0089  1.1301
 9925SOL     OW41653   4.074   0.515  13.915 -0.2909 -0.1670 -0.1476
 9925SOL    HW141654   4.158   0.551  13.942 -0.4667 -0.0029  0.1803
 9925SOL    HW241655   4.035   0.481  13.996 -0.3577 -0.6169 -0.3666
 9926SOL     OW41656   1.860   1.319   9.885 -0.0170  0.1284  0.4612
 9926SOL    HW141657   1.830   1.361   9.966 -1.4593  2.3675 -1.2462
 9926SOL    HW241658   1.779   1.294   9.840  0.7980 -2.3497  0.3442
 9927SOL     OW41659   4.749   3.628  20.915  0.2701 -0.0709  0.2549
 9927SOL    HW141660   0.015   3.691  20.857 -0.2347  1.7110  1.8140
 9927SOL    HW241661   4.662   3.615  20.878  0.8914 -0.9158 -0.8744
 9928SOL     OW41662   2.958   3.173   2.155  0.1582 -0.1479  0.2698
 9928SOL    HW141663   2.898   3.099   2.164  0.6661 -0.2562  2.6906
 9928SOL    HW241664   3.028   3.140   2.098 -0.8727 -0.7658 -0.6241
 9929SOL     OW41665   0.027   2.055   0.144  0.2304  0.3668 -0.1940
 9929SOL    HW141666   4.723   2.021   0.104  0.7264 -0.9310 -0.0918
 9929SOL    HW241667   0.079   2.088   0.071  1.3055 -2.3562 -0.6496
 9930SOL     OW41668   1.894   2.787   0.839 -0.1875  0.0062  0.4506
 9930SOL    HW141669   1.863   2.697   0.826  1.2485 -0.3123 -0.6407
 9930SOL    HW241670   1.822   2.829   0.886 -1.6653 -1.1878 -0.7219
 9931SOL     OW41671   0.178   1.121  18.777 -0.2071 -0.3080 -0.5280
 9931SOL    HW141672   0.168   1.040  18.827 -1.7094 -0.8848 -1.7654
 9931SOL    HW241673   0.245   1.100  18.712  1.3936  0.2914  0.9244
 9932SOL     OW41674   2.062   4.509   0.127 -0.0978  0.6994 -0.2983
 9932SOL    HW141675   2.118   4.586   0.118 -0.2632  0.8212 -0.2932
 9932SOL    HW241676   2.032   4.513   0.218  1.1740 -0.2503  0.1626
 9933SOL     OW41677   0.192   1.856   2.537 -0.1936  0.5241  0.3432
 9933SOL    HW141678   0.266   1.798   2.521 -0.2944  0.3331  0.5661
 9933SOL    HW241679   0.232   1.936   2.571 -0.0840  0.4491  0.3919
 9934SOL     OW41680   4.280   1.120  13.286 -0.2774  0.3484 -0.5785
 9934SOL    HW141681   4.252   1.059  13.354 -1.1811  1.8994  0.4681
 9934SOL    HW241682   4.218   1.107  13.214  0.4615 -1.0447 -0.9589
 9935SOL     OW41683   4.658   2.561  20.715  0.5320  0.4814  0.2538
 9935SOL    HW141684   4.679   2.496  20.648  0.7278 -0.2970  1.0588
 9935SOL    HW241685   4.616   2.510  20.785  2.3397  0.9368  1.6802
 9936SOL     OW41686   1.840   3.627   5.361  0.1273 -0.2151 -0.5795
 9936SOL    HW141687   1.788   3.561   5.315 -0.3850 -0.8817  0.9306
 9936SOL    HW241688   1.827   3.606   5.454  0.1090  1.9104 -0.1014
 9937SOL     OW41689   3.020   2.369  18.732  0.1872 -0.0349  0.6869
 9937SOL    HW141690   2.943   2.316  18.752 -1.3750  1.9284 -0.1234
 9937SOL    HW241691   3.082   2.350  18.803 -1.6159 -0.4806  2.1287
 9938SOL     OW41692   0.825   0.129   4.068  0.0687  0.0906  0.2840
 9938SOL    HW141693   0.796   0.038   4.073 -0.4283  0.1666 -1.2700
 9938SOL    HW241694   0.894   0.136   4.134  0.4766 -1.5461  0.0199
 9939SOL     OW41695   3.929   4.556  17.023 -0.7034 -0.5030  0.2775
 9939SOL    HW141696   3.875   4.608  16.965 -0.5831 -0.4159  0.2429
 9939SOL    HW241697   3.876   4.544  17.102 -0.2899  0.6253  0.7283
 9940SOL     OW41698   3.084   3.531   4.241  0.0383  0.1180  0.0060
 9940SOL    HW141699   3.139   3.508   4.316  0.5779  1.0769 -0.0981
 9940SOL    HW241700   3.027   3.600   4.274 -1.5362 -1.3348  0.2990
 9941SOL     OW41701   0.143   1.084   6.837 -0.5755  0.0938  0.0750
 9941SOL    HW141702   0.112   0.999   6.869 -0.9433  0.3939  0.5297
 9941SOL    HW241703   0.116   1.145   6.906 -0.5205  0.6085 -0.3690
 9942SOL     OW41704   0.274   4.551   2.993 -0.0673 -0.0088 -0.1216
 9942SOL    HW141705   0.182   4.534   3.011 -0.6920  0.2620 -3.0086
 9942SOL    HW241706   0.275   4.636   2.949  1.5821  0.2012  0.3385
 9943SOL     OW41707   2.233   0.836  19.220  0.6791  0.0057  0.0171
 9943SOL    HW141708   2.263   0.793  19.139  1.6560  0.4591  0.1366
 9943SOL    HW241709   2.139   0.820  19.222  0.4481  1.1678 -1.9149
 9944SOL     OW41710   1.505   0.844   1.104  0.1864 -0.1339  0.0914
 9944SOL    HW141711   1.584   0.817   1.149  0.1244 -1.9839 -0.9210
 9944SOL    HW241712   1.530   0.849   1.012 -0.5965  0.2825 -0.1009
 9945SOL     OW41713   3.964   0.928   6.560 -0.4426  0.7033  0.5601
 9945SOL    HW141714   3.953   1.023   6.569 -0.6673  0.7778 -0.5835
 9945SOL    HW241715   4.043   0.917   6.509 -0.7959  0.2742  0.1085
 9946SOL     OW41716   2.086   1.128  18.138 -0.1381 -0.0207 -0.0576
 9946SOL    HW141717   2.073   1.141  18.232 -0.3707  0.2294 -0.1226
 9946SOL    HW241718   2.031   1.195  18.098  1.7752  1.3849 -0.3422
 9947SOL     OW41719   4.500   0.807  13.865 -0.1765 -0.4346 -0.5581
 9947SOL    HW141720   4.536   0.871  13.927 -0.0120  0.1319 -1.2417
 9947SOL    HW241721   4.431   0.762  13.914 -0.5093  0.4945 -0.1853
 9948SOL     OW41722   1.315   4.581  21.069  0.2082 -0.2608 -0.2620
 9948SOL    HW141723   1.374   4.522  21.115 -0.3724 -1.9342 -1.6428
 9948SOL    HW241724   1.288   4.531  20.991 -1.6829  1.1346 -0.4938
 9949SOL     OW41725   2.118   4.019   0.667 -0.0638  0.4185  0.3335
 9949SOL    HW141726   2.192   4.030   0.607  0.2034 -1.2168  0.3562
 9949SOL    HW241727   2.156   4.026   0.754 -0.1606  1.0352  0.3209
 9950SOL     OW41728   2.221   1.097  10.137 -0.1575 -0.3670  0.2034
 9950SOL    HW141729   2.227   1.022  10.078  2.3952 -0.1769  0.2116
 9950SOL    HW241730   2.171   1.162  10.089 -1.6999 -1.8038 -0.1182
 9951SOL     OW41731   2.103   3.141  10.464 -0.2899 -0.4853 -1.0807
 9951SOL    HW141732   2.169   3.082  10.500 -0.8573 -0.2292  0.3876
 9951SOL    HW241733   2.033   3.142  10.530 -1.4615 -0.2425 -2.3179
 9952SOL     OW41734   0.367   3.312   1.282 -0.2621  0.3462 -0.1372
 9952SOL    HW141735   0.304   3.272   1.342 -0.5776  0.9894 -0.0342
 9952SOL    HW241736   0.324   3.394   1.255  0.3370  0.5634 -0.4142
 9953SOL     OW41737   3.746   1.485   2.394  0.0685 -0.2388 -1.2386
 9953SOL    HW141738   3.819   1.423   2.389 -0.1633 -0.5814 -0.4005
 9953SOL    HW241739   3.740   1.521   2.305  1.9671  0.6187 -1.0266
 9954SOL     OW41740   1.719   3.028   0.907 -0.5261 -0.2417  1.0895
 9954SOL    HW141741   1.657   2.955   0.917 -2.0094  0.4781 -2.6356
 9954SOL    HW241742   1.663   3.105   0.900  0.8467  0.5581 -1.0214
 9955SOL     OW41743   1.159   0.275  21.099  0.2674  0.3757 -0.5304
 9955SOL    HW141744   1.072   0.243  21.121  0.1469  0.3177 -1.0891
 9955SOL    HW241745   1.184   0.331  21.172  0.7329 -1.5014  0.7471
 9956SOL     OW41746   1.032   0.106   4.747 -0.1580  0.1550  0.2877
 9956SOL    HW141747   1.088   0.029   4.755 -0.6254 -0.1559  0.6207
 9956SOL    HW241748   1.079   0.175   4.793  0.3868  0.1338 -0.2431
 9957SOL     OW41749   3.550   2.244   3.806 -0.0310 -0.5148  0.2630
 9957SOL    HW141750   3.504   2.326   3.823 -0.9273 -1.3456  1.7635
 9957SOL    HW241751   3.503   2.205   3.732 -0.3117 -0.2542  0.3042
 9958SOL     OW41752   0.272   1.870   0.050  0.0673 -0.2972  0.0935
 9958SOL    HW141753   0.195   1.815   0.058 -0.7112  0.9450  1.1866
 9958SOL    HW241754   0.329   1.843   0.122  0.6771 -1.2828 -0.7741
 9959SOL     OW41755   4.430   2.616  16.128 -0.3213 -0.4543 -0.0515
 9959SOL    HW141756   4.386   2.686  16.079 -0.2635 -2.6528 -3.2379
 9959SOL    HW241757   4.484   2.571  16.063  2.3346 -1.2931  2.7185
 9960SOL     OW41758   4.199   1.191  20.072  0.3178 -0.0191  0.1446
 9960SOL    HW141759   4.187   1.190  19.977 -0.7085 -3.2126  0.3129
 9960SOL    HW241760   4.280   1.143  20.086  0.2580  0.1073  0.9326
 9961SOL     OW41761   1.855   2.670   1.268  0.1973 -0.7602 -0.1810
 9961SOL    HW141762   1.766   2.686   1.300  0.5096 -0.5021  0.5341
 9961SOL    HW241763   1.849   2.687   1.174 -0.0035  1.2973  0.2105
 9962SOL     OW41764   0.802   3.730   5.231  0.4611 -0.2750  0.1723
 9962SOL    HW141765   0.800   3.647   5.183  0.0164 -0.2742  0.1834
 9962SOL    HW241766   0.870   3.718   5.296  0.7492 -0.4487 -0.1598
 9963SOL     OW41767   2.483   1.037   7.085 -0.0053 -0.8043  0.3760
 9963SOL    HW141768   2.486   0.974   7.156  0.3100 -2.2933 -0.9525
 9963SOL    HW241769   2.575   1.061   7.070  0.0269 -1.3244 -0.2683
 9964SOL     OW41770   3.037   2.526  18.341 -0.6340  0.4423 -0.4698
 9964SOL    HW141771   3.106   2.584  18.309 -0.3918 -0.0737 -0.9085
 9964SOL    HW241772   3.083   2.445  18.363 -1.0339  0.2569 -0.3169
 9965SOL     OW41773   3.072   3.991  14.997 -0.5775 -0.4334 -0.0399
 9965SOL    HW141774   3.131   3.944  14.938 -1.3857 -1.8266  0.2644
 9965SOL    HW241775   3.103   3.968  15.085  1.4836  2.7351  0.0584
 9966SOL     OW41776   2.319   1.301   1.668 -0.6687  0.3863  0.4649
 9966SOL    HW141777   2.246   1.295   1.606 -0.6042 -0.1193  0.4371
 9966SOL    HW241778   2.278   1.328   1.750 -0.7325  1.2065  0.1614
 9967SOL     OW41779   1.307   1.376   5.396  0.9920  0.7719  0.2018
 9967SOL    HW141780   1.347   1.322   5.464 -0.9677 -1.2912 -0.2950
 9967SOL    HW241781   1.377   1.391   5.333  1.2572 -1.8975 -0.0968
 9968SOL     OW41782   2.561   3.031  10.104  0.3863 -0.3310  0.0664
 9968SOL    HW141783   2.486   2.976  10.127  0.8310 -0.5996  0.8928
 9968SOL    HW241784   2.586   3.003  10.016 -0.4057 -0.3246 -0.1609
 9969SOL     OW41785   0.725   2.119  16.813  0.0655  0.4861  0.1401
 9969SOL    HW141786   0.736   2.139  16.720  0.2128 -1.0450 -0.1793
 9969SOL    HW241787   0.814   2.105  16.845 -0.0261  0.4914  0.3967
 9970SOL     OW41788   2.213   2.943   4.027 -0.2131 -0.3069 -0.2899
 9970SOL    HW141789   2.299   2.912   4.055 -0.2837 -0.3045 -0.0687
 9970SOL    HW241790   2.191   2.889   3.951 -0.1233 -0.4733 -0.1972
 9971SOL     OW41791   3.950   1.979  21.033 -0.4769 -0.0279 -0.2287
 9971SOL    HW141792   3.928   1.998  20.942  1.6474 -1.8453 -1.1106
 9971SOL    HW241793   4.021   2.040  21.054 -0.1567 -0.4297 -0.1454
 9972SOL     OW41794   3.944   1.702  21.073 -0.0597 -0.1118 -0.1823
 9972SOL    HW141795   3.985   1.647  21.007  3.1383 -0.8332  2.3973
 9972SOL    HW241796   3.963   1.792  21.045 -1.7097 -0.3818 -2.1373
 9973SOL     OW41797   2.510   4.507   0.096 -0.2041  0.1073 -0.6118
 9973SOL    HW141798   2.519   4.603   0.101  0.8986  0.0244 -0.9339
 9973SOL    HW241799   2.466   4.492   0.012 -0.1037  0.3143 -0.7029
 9974SOL     OW41800   4.126   3.830   4.339  0.3938 -0.3229  0.2522
 9974SOL    HW141801   4.191   3.769   4.302  1.0758  0.0467  0.8600
 9974SOL    HW241802   4.044   3.781   4.336  0.4095 -0.2299 -1.9618
 9975SOL     OW41803   0.337   0.674   4.114 -0.3558  0.8995  0.2149
 9975SOL    HW141804   0.281   0.722   4.053 -0.4376  1.6721  0.9042
 9975SOL    HW241805   0.402   0.738   4.143  0.2771  0.2674  0.1862
 9976SOL     OW41806   4.334   2.081   3.994 -0.4159  0.4578  0.3462
 9976SOL    HW141807   4.370   2.064   4.081 -2.6951 -0.7957  1.0549
 9976SOL    HW241808   4.367   2.009   3.940  2.6359  2.3414 -0.2931
 9977SOL     OW41809   0.211   1.647  19.540  0.5711  0.3248 -0.1909
 9977SOL    HW141810   0.254   1.686  19.464  1.0155  2.7548  1.3029
 9977SOL    HW241811   0.120   1.677  19.534  0.5631  0.3629  0.1404
 9978SOL     OW41812   3.657   4.534  19.082  0.4108 -0.7299 -0.2144
 9978SOL    HW141813   3.645   4.454  19.029  1.1981  0.0214 -1.5379
 9978SOL    HW241814   3.633   4.508  19.171 -1.5786 -1.8369 -1.0714
 9979SOL     OW41815   4.196   2.831   3.105  0.1634  0.0322 -0.8470
 9979SOL    HW141816   4.266   2.771   3.131  0.2895 -0.0812 -1.4674
 9979SOL    HW241817   4.237   2.918   3.108 -0.1740  0.1452  0.6106
 9980SOL     OW41818   4.164   3.585   5.638 -0.2547 -0.6538  0.4387
 9980SOL    HW141819   4.228   3.638   5.686  0.3840  0.4133 -1.6136
 9980SOL    HW241820   4.204   3.499   5.632  0.4745 -0.2964  0.1884
 9981SOL     OW41821   3.519   3.028  14.948  0.0377  0.0299 -0.9006
 9981SOL    HW141822   3.581   2.981  14.892 -0.4146 -0.7277 -0.7703
 9981SOL    HW241823   3.561   3.112  14.966  0.0839  0.3831 -2.5974
 9982SOL     OW41824   1.727   1.360   1.608 -0.6526  0.0863 -0.0148
 9982SOL    HW141825   1.640   1.389   1.633 -1.7075 -2.4301 -0.6976
 9982SOL    HW241826   1.736   1.387   1.517 -0.3976  1.1128  0.3213
 9983SOL     OW41827   1.908   0.538   6.560  0.2853  0.3778  0.4882
 9983SOL    HW141828   1.982   0.572   6.510 -0.1072 -0.8333 -0.9187
 9983SOL    HW241829   1.858   0.616   6.585  0.2129  0.9538 -1.4368
 9984SOL     OW41830   2.985   0.417   0.202 -0.0011 -0.1915 -0.3311
 9984SOL    HW141831   2.921   0.429   0.132 -1.4728  3.6722  1.6834
 9984SOL    HW241832   3.061   0.470   0.175 -0.2564  0.6438  0.6047
 9985SOL     OW41833   4.539   4.763  20.932 -0.3290  0.4118 -0.2424
 9985SOL    HW141834   4.485   0.009  21.008 -0.0259  1.0607 -0.2116
 9985SOL    HW241835   4.626   4.746  20.969  0.1186  1.9386 -0.5776
 9986SOL     OW41836   1.105   2.276   9.255 -0.2237  0.1059 -0.0057
 9986SOL    HW141837   1.020   2.299   9.293  0.2221  1.0688  0.4125
 9986SOL    HW241838   1.162   2.261   9.331 -0.1584 -1.0342 -0.2864
 9987SOL     OW41839   1.519   0.739   5.906 -0.5389 -0.0887  0.5480
 9987SOL    HW141840   1.451   0.767   5.967  0.0593 -0.0559  1.2048
 9987SOL    HW241841   1.481   0.755   5.819 -1.6779 -0.8556  0.9058
 9988SOL     OW41842   4.651   0.114  13.802 -0.0697  0.4841 -0.2587
 9988SOL    HW141843   4.613   0.026  13.809  0.3875  0.3523  0.5606
 9988SOL    HW241844   4.734   0.108  13.849 -0.2040  1.4595  0.1029
 9989SOL     OW41845   2.149   1.013   2.974 -0.2201  0.3788  0.8947
 9989SOL    HW141846   2.125   0.926   2.942 -0.1671  0.6239  0.1841
 9989SOL    HW241847   2.245   1.012   2.976 -0.1690  1.0758 -0.9487
 9990SOL     OW41848   2.254   1.420  17.061 -0.5620  0.0636  0.0287
 9990SOL    HW141849   2.325   1.411  17.124 -1.5802 -1.0849  0.9953
 9990SOL    HW241850   2.184   1.465  17.108 -0.6143  0.8966 -0.8263
 9991SOL     OW41851   2.376   3.328  16.404 -0.4132  0.1879 -0.0908
 9991SOL    HW141852   2.350   3.264  16.471 -2.1785  0.6961 -0.2849
 9991SOL    HW241853   2.356   3.285  16.321 -2.7931  1.5061 -0.1950
 9992SOL     OW41854   4.441   3.354   8.364 -0.1691 -0.4107 -0.0092
 9992SOL    HW141855   4.395   3.327   8.285  2.4060 -1.9013 -0.9907
 9992SOL    HW241856   4.372   3.384   8.423 -2.2012 -0.6029 -2.3071
 9993SOL     OW41857   3.173   0.491  11.878  0.7063 -0.6938 -0.4139
 9993SOL    HW141858   3.107   0.451  11.822  0.3123 -0.6129 -0.0083
 9993SOL    HW241859   3.131   0.571  11.912  0.8840 -0.8223  0.1146
 9994SOL     OW41860   3.109   2.248  20.432  0.0417 -0.3070  0.4760
 9994SOL    HW141861   3.185   2.192  20.448 -0.6733 -1.9534 -1.7778
 9994SOL    HW241862   3.129   2.292  20.349 -1.1792 -0.3066  0.1735
 9995SOL     OW41863   0.266   0.017  17.212 -0.6058 -0.3325 -0.0297
 9995SOL    HW141864   0.296   4.724  17.153 -2.9183 -0.4165 -1.1213
 9995SOL    HW241865   0.335   0.083  17.208 -0.4837 -0.5782 -2.4320
 9996SOL     OW41866   0.993   1.700  20.473 -0.2420 -0.5730 -0.3944
 9996SOL    HW141867   0.909   1.742  20.460  0.7661  0.5050 -3.3095
 9996SOL    HW241868   1.048   1.733  20.402  2.1171 -2.6105  0.4882
 9997SOL     OW41869   2.428   0.150   2.396  0.6487 -0.4752  0.1450
 9997SOL    HW141870   2.470   0.111   2.473  1.1841 -0.2160 -0.0138
 9997SOL    HW241871   2.454   0.242   2.398  0.6532 -0.4651 -0.3359
 9998SOL     OW41872   0.189   1.278  16.051  0.4353 -0.1469  0.5298
 9998SOL    HW141873   0.209   1.350  16.111 -2.8027  2.4565 -1.4772
 9998SOL    HW241874   0.177   1.202  16.107  1.7906  1.3555  2.8366
 9999SOL     OW41875   0.331   3.445  20.701 -0.0433  0.0282  0.3349
 9999SOL    HW141876   0.272   3.435  20.776  0.4218 -1.3342  0.5263
 9999SOL    HW241877   0.308   3.373  20.643 -1.2534  1.8153 -1.4215
10000SOL     OW41878   2.550   0.839   4.462  0.3357  0.2423  0.1095
10000SOL    HW141879   2.555   0.928   4.498  0.5122  0.4814 -0.5047
10000SOL    HW241880   2.641   0.810   4.458  0.5422  1.2695 -2.7766
10001SOL     OW41881   2.457   3.195  14.645 -0.3016 -0.0168  0.1551
10001SOL    HW141882   2.540   3.155  14.619 -0.5062  0.8397 -1.7764
10001SOL    HW241883   2.397   3.176  14.573 -1.1163  1.4610  0.4448
10002SOL     OW41884   2.703   3.624   5.791  0.4464  0.0228 -0.4177
10002SOL    HW141885   2.726   3.564   5.863  0.6232  0.8260  0.1910
10002SOL    HW241886   2.652   3.693   5.833 -0.0280  0.1293 -1.1855
10003SOL     OW41887   1.875   3.885   0.157  0.0103 -0.4427  0.1441
10003SOL    HW141888   1.798   3.829   0.145  0.1222  0.2381 -3.5143
10003SOL    HW241889   1.846   3.972   0.130  1.4598  0.2375  0.7649
10004SOL     OW41890   4.585   3.621   0.108  0.0763 -0.4707  0.2082
10004SOL    HW141891   4.550   3.668   0.033  1.7841 -0.5511 -0.6523
10004SOL    HW241892   4.639   3.685   0.154  1.1801 -1.1465 -0.1260
10005SOL     OW41893   3.043   1.555   8.379  0.1541 -0.3084  0.0351
10005SOL    HW141894   3.132   1.580   8.401  0.2826  0.1266 -0.9902
10005SOL    HW241895   3.000   1.636   8.354 -0.2835 -0.6465 -0.3201
10006SOL     OW41896   1.027   3.050  15.224  0.0957 -0.1701 -0.5809
10006SOL    HW141897   0.959   3.079  15.285 -0.6859 -0.1119 -1.4684
10006SOL    HW241898   1.044   2.959  15.248  0.4116  0.1172  0.2815
10007SOL     OW41899   0.575   3.967   8.561 -0.2414 -0.0490 -0.2529
10007SOL    HW141900   0.654   3.981   8.509 -0.5335  1.3860 -0.3051
10007SOL    HW241901   0.578   4.035   8.628 -2.0735  0.7876 -1.0080
10008SOL     OW41902   2.381   2.538  20.806  0.1347  0.3242 -0.0816
10008SOL    HW141903   2.349   2.607  20.863  1.3593 -1.5136  2.8173
10008SOL    HW241904   2.312   2.472  20.805  0.2177  0.2395 -0.4977
10009SOL     OW41905   1.120   0.197   4.084 -0.5481 -0.0397  0.0344
10009SOL    HW141906   1.091   0.170   3.997  0.4047 -1.3612  0.1285
10009SOL    HW241907   1.129   0.293   4.077 -1.5073 -0.0182 -1.0060
10010SOL     OW41908   2.334   4.760  20.128 -0.1485 -0.7414  0.6497
10010SOL    HW141909   2.391   4.704  20.180 -0.7187 -0.1749  1.8679
10010SOL    HW241910   2.296   0.046  20.191  1.9132  2.1725 -0.9373
10011SOL     OW41911   1.766   4.483   4.776  0.5707 -0.1369  0.1320
10011SOL    HW141912   1.850   4.471   4.733  0.4297  0.9645 -0.4431
10011SOL    HW241913   1.709   4.520   4.709 -0.4103 -0.9739  0.4840
10012SOL     OW41914   0.400   2.754  13.570 -0.1969 -0.1907  0.0837
10012SOL    HW141915   0.365   2.712  13.492 -0.6382  0.5994 -0.1452
10012SOL    HW241916   0.339   2.827  13.588  0.6950  0.4959  0.3302
10013SOL     OW41917   0.658   0.211   5.937  0.0686 -0.0027 -0.2079
10013SOL    HW141918   0.737   0.196   5.989  0.6099 -2.3414 -1.7095
10013SOL    HW241919   0.591   0.155   5.978  0.0567 -0.5498 -0.9632
10014SOL     OW41920   0.289   4.657  16.243  0.7593 -0.3735  0.6263
10014SOL    HW141921   0.381   4.678  16.230  0.8248 -0.5669  0.7686
10014SOL    HW241922   0.286   4.561  16.241  0.5103 -0.3566  0.2832
10015SOL     OW41923   4.381   2.801  13.527  0.0389 -0.2111  0.1957
10015SOL    HW141924   4.342   2.756  13.452 -0.6734 -0.6569  0.8370
10015SOL    HW241925   4.326   2.878  13.540  0.9078  0.5356 -0.5296
10016SOL     OW41926   1.729   4.078   3.079 -0.3069  0.2447  0.2558
10016SOL    HW141927   1.652   4.135   3.076  0.0090  0.5981 -1.1483
10016SOL    HW241928   1.708   4.008   3.017 -0.4779 -0.8900  1.6015
10017SOL     OW41929   2.048   2.615  20.412 -0.0947 -0.1344 -0.7000
10017SOL    HW141930   2.102   2.694  20.413 -0.6779  0.2751 -2.0388
10017SOL    HW241931   2.110   2.543  20.401  0.2070  0.3003 -1.7961
10018SOL     OW41932   2.602   1.418   1.916 -0.2471 -0.3969  0.3585
10018SOL    HW141933   2.551   1.345   1.950 -0.0537 -1.7149 -2.1969
10018SOL    HW241934   2.541   1.465   1.859 -0.2481  1.1618  1.6704
10019SOL     OW41935   2.670   2.635   1.272  0.3717 -0.5606  0.2904
10019SOL    HW141936   2.685   2.668   1.360 -1.7334  1.1080  0.0283
10019SOL    HW241937   2.749   2.586   1.250  1.6906  0.6751  2.3468
10020SOL     OW41938   3.268   2.857  16.454  0.5735 -0.2703 -0.0945
10020SOL    HW141939   3.350   2.811  16.439  0.7792 -0.2395  0.9569
10020SOL    HW241940   3.254   2.852  16.548  0.1365  1.0423 -0.0838
10021SOL     OW41941   0.454   1.355  16.786  0.4502 -0.1994  0.6230
10021SOL    HW141942   0.430   1.330  16.876  1.3032 -0.1916  0.8559
10021SOL    HW241943   0.470   1.449  16.791 -0.3232 -0.0517  0.2817
10022SOL     OW41944   3.756   2.519  18.999  0.2729  0.6027 -0.3945
10022SOL    HW141945   3.703   2.582  18.949 -1.6724 -1.4348 -0.8899
10022SOL    HW241946   3.841   2.519  18.956  0.3800  3.1625 -0.1929
10023SOL     OW41947   4.054   1.081   5.935 -0.9200  0.0011  0.6650
10023SOL    HW141948   4.069   0.991   5.905 -0.8573  0.2144  0.0673
10023SOL    HW241949   4.121   1.133   5.891 -1.2706  0.4220  0.6299
10024SOL     OW41950   3.043   3.891  11.981 -0.3754 -0.2124 -0.2692
10024SOL    HW141951   3.136   3.898  12.006 -0.5040  0.3922  0.0417
10024SOL    HW241952   3.014   3.982  11.972 -0.6045 -0.4156 -1.5922
10025SOL     OW41953   0.603   3.165   3.377 -0.4665  0.0321 -0.2492
10025SOL    HW141954   0.640   3.137   3.460  1.3685  0.0756 -1.0592
10025SOL    HW241955   0.583   3.083   3.331  1.8906  0.0258 -1.2710
10026SOL     OW41956   1.591   4.704  18.433  0.2552  0.0422  0.3540
10026SOL    HW141957   1.669   4.707  18.489  0.5309  0.1713 -0.0418
10026SOL    HW241958   1.579   0.017  18.402  1.9086 -0.6684 -2.2948
10027SOL     OW41959   1.320   2.664  18.561 -0.0588  0.2051  0.0088
10027SOL    HW141960   1.314   2.759  18.547  1.7950  0.3399  0.1118
10027SOL    HW241961   1.336   2.654  18.654  1.8271 -0.1111 -0.3325
10028SOL     OW41962   2.287   3.434   2.080  0.6728 -0.0985 -0.6130
10028SOL    HW141963   2.217   3.460   2.020  0.7196 -0.4690 -0.8285
10028SOL    HW241964   2.246   3.370   2.139  0.0982  1.7940  1.0336
10029SOL     OW41965   2.097   3.301  19.952 -0.2113 -0.2363 -0.2915
10029SOL    HW141966   2.137   3.344  20.028  0.1679 -0.5396 -0.3227
10029SOL    HW241967   2.067   3.216  19.985  2.0990 -1.3411 -1.0748
10030SOL     OW41968   0.083   0.015   5.110  0.6929 -0.2836  0.3001
10030SOL    HW141969   4.775   0.057   5.092  1.1907 -0.5024 -2.5251
10030SOL    HW241970   0.061   4.699   5.126  0.4200 -0.4006 -0.7353
10031SOL     OW41971   0.147   3.334  20.962 -0.3631 -0.6366  0.3556
10031SOL    HW141972   0.060   3.342  21.001 -0.4813 -1.8868  0.3394
10031SOL    HW241973   0.205   3.315  21.035 -0.1770 -0.2731  0.3011
10032SOL     OW41974   2.434   0.004  19.432  0.0683 -0.0238  1.0140
10032SOL    HW141975   2.367   4.772  19.364 -0.4866 -0.0915  1.5741
10032SOL    HW241976   2.469   0.092  19.421  0.4008 -0.2445  0.2465
10033SOL     OW41977   4.093   2.162  11.828 -0.3532 -0.0576  0.3103
10033SOL    HW141978   4.084   2.098  11.758  2.1790  0.4917 -0.5086
10033SOL    HW241979   4.129   2.240  11.786  2.7895 -0.2921  2.5260
10034SOL     OW41980   4.489   1.853  14.983  0.8482 -0.0141  0.0814
10034SOL    HW141981   4.551   1.923  15.005  0.8568 -0.6618  2.1496
10034SOL    HW241982   4.463   1.817  15.068 -1.7673 -0.2577 -0.8311
10035SOL     OW41983   0.750   0.034  19.369  0.2753  0.0594 -0.2289
10035SOL    HW141984   0.817   0.081  19.320 -0.5392  2.6142  1.1428
10035SOL    HW241985   0.667   0.073  19.340 -0.6053 -2.8282 -1.6312
10036SOL     OW41986   0.716   3.701  20.909 -0.4574 -0.0616 -0.4399
10036SOL    HW141987   0.657   3.660  20.846  0.7999 -1.3977 -0.7565
10036SOL    HW241988   0.743   3.783  20.868 -0.1645 -0.6191 -1.3605
10037SOL     OW41989   2.777   2.380   1.212 -0.4103  0.2877  0.0611
10037SOL    HW141990   2.788   2.319   1.285  0.7277 -2.1091 -2.1326
10037SOL    HW241991   2.741   2.327   1.142  0.2170  2.2497 -1.7338
10038SOL     OW41992   1.834   4.208  15.598 -0.5369 -0.0943  0.5231
10038SOL    HW141993   1.879   4.210  15.682 -0.4589  3.2028  0.3741
10038SOL    HW241994   1.851   4.293  15.558 -0.3224 -1.7509 -2.9664
10039SOL     OW41995   4.470   3.780  21.101 -0.8137  0.0543 -0.0981
10039SOL    HW141996   4.513   3.865  21.093  0.0013 -0.2704  0.9578
10039SOL    HW241997   4.433   3.764  21.014  0.1636  0.8776 -0.6625
10040SOL     OW41998   4.293   3.117   5.927 -0.5796 -0.5650  0.2929
10040SOL    HW141999   4.228   3.152   5.866  1.3988  0.0195 -1.4788
10040SOL    HW242000   4.311   3.029   5.895  1.0589  0.0343 -0.4428
10041SOL     OW42001   3.197   0.722  19.047 -0.2288 -0.0006  0.5650
10041SOL    HW142002   3.158   0.749  19.130 -1.4663  1.0605 -0.3859
10041SOL    HW242003   3.284   0.762  19.047  0.4048 -1.3476  2.0949
10042SOL     OW42004   0.390   3.345  18.373  0.0548 -0.0561  0.4556
10042SOL    HW142005   0.341   3.386  18.301 -0.8377 -0.5479  0.7715
10042SOL    HW242006   0.323   3.328  18.439  1.3393  2.7101  2.4278
10043SOL     OW42007   2.647   2.762   0.906 -0.1245 -0.0028 -0.2490
10043SOL    HW142008   2.727   2.719   0.935 -0.2030 -0.2122 -0.3466
10043SOL    HW242009   2.598   2.781   0.986 -1.6881 -3.1757 -0.4449
10044SOL     OW42010   2.622   1.906  15.952 -0.0073  0.0238  0.2149
10044SOL    HW142011   2.709   1.871  15.933 -0.6898 -0.6849 -1.5838
10044SOL    HW242012   2.621   1.991  15.909 -0.0809  0.1945  0.5529
10045SOL     OW42013   3.992   3.959   3.313  0.0404 -1.0102 -0.3134
10045SOL    HW142014   4.050   3.967   3.388 -1.2745 -0.7888  0.6919
10045SOL    HW242015   4.011   4.035   3.259  1.6810 -1.6919 -0.6716
10046SOL     OW42016   4.654   0.656  16.524  0.2376 -0.2545 -0.4265
10046SOL    HW142017   4.670   0.730  16.583 -1.4420 -0.5955  0.4545
10046SOL    HW242018   4.692   0.684  16.440  1.3984  0.7841  0.4402
10047SOL     OW42019   1.045   2.830  15.535  0.3775 -0.1771  0.3964
10047SOL    HW142020   0.958   2.820  15.495  0.2593  0.3891  0.5055
10047SOL    HW242021   1.101   2.772  15.485  0.0873  0.0209 -0.1611
10048SOL     OW42022   1.799   4.695   3.827  0.6238 -0.0124 -0.6937
10048SOL    HW142023   1.883   4.700   3.780  1.1321 -0.8678  0.1184
10048SOL    HW242024   1.810   4.622   3.888 -0.5614  0.1559 -0.2761
10049SOL     OW42025   0.957   1.475   5.694  0.0957  0.4592  0.0544
10049SOL    HW142026   0.879   1.420   5.689 -0.1896  0.9071 -0.5196
10049SOL    HW242027   1.028   1.419   5.662 -0.1280  0.2977 -0.1617
10050SOL     OW42028   3.912   3.688   5.710  0.2358 -0.0204 -0.9244
10050SOL    HW142029   3.945   3.775   5.732 -0.4124  0.3133 -1.2823
10050SOL    HW242030   3.990   3.633   5.709  0.2194 -0.1228  2.6621
10051SOL     OW42031   1.657   4.296   5.263  0.1277 -0.3174  0.0957
10051SOL    HW142032   1.574   4.340   5.282  1.0472  0.9639  1.1636
10051SOL    HW242033   1.702   4.355   5.203  0.7529 -0.5083  0.3862
10052SOL     OW42034   0.693   2.799  17.623 -0.2624 -0.6545  0.0778
10052SOL    HW142035   0.636   2.768  17.694 -1.2359  0.5751 -0.1577
10052SOL    HW242036   0.678   2.736  17.552 -0.2537 -1.1547  0.5156
10053SOL     OW42037   4.048   0.583  18.299 -0.4422  0.7201  0.2175
10053SOL    HW142038   3.977   0.551  18.244  0.2111  0.5169 -0.4941
10053SOL    HW242039   4.075   0.507  18.350 -0.5884  0.7488  0.3402
10054SOL     OW42040   3.485   0.669  19.662 -0.1635 -0.2290 -0.0201
10054SOL    HW142041   3.469   0.598  19.723 -2.0560  0.5338  0.3868
10054SOL    HW242042   3.530   0.736  19.713 -2.6745  0.8434  0.8380
10055SOL     OW42043   0.442   0.558   6.404 -0.4607 -0.0020  0.3001
10055SOL    HW142044   0.537   0.571   6.400 -0.5628  0.9649  0.8750
10055SOL    HW242045   0.430   0.465   6.388  0.5205  0.0570 -0.8363
10056SOL     OW42046   3.382   3.121  19.183  0.2431  0.0832  0.3540
10056SOL    HW142047   3.290   3.101  19.197  0.0516  0.2526 -0.7187
10056SOL    HW242048   3.408   3.168  19.263 -0.5618 -0.0813  0.7114
10057SOL     OW42049   1.977   3.327   5.337  0.3913  0.6588  0.1754
10057SOL    HW142050   1.946   3.270   5.408  1.7512 -1.4900 -0.9596
10057SOL    HW242051   1.900   3.377   5.311 -0.3053  0.8486  2.6330
10058SOL     OW42052   2.312   4.092   3.140 -0.0842 -0.0363  0.2165
10058SOL    HW142053   2.314   4.151   3.064 -2.4473  0.8588  0.8448
10058SOL    HW242054   2.252   4.134   3.201 -0.8044 -2.5019  1.1892
10059SOL     OW42055   3.440   1.065   0.951 -0.1203  0.4612 -0.2443
10059SOL    HW142056   3.530   1.085   0.977 -0.5139  2.9278 -0.7643
10059SOL    HW242057   3.387   1.087   1.028 -0.5292  1.1766 -0.7327
10060SOL     OW42058   3.865   3.197   1.855  0.4572  0.8176 -0.6143
10060SOL    HW142059   3.815   3.238   1.926  2.2917 -0.0311  1.1609
10060SOL    HW242060   3.864   3.263   1.785  0.0516  2.3180  0.7852
10061SOL     OW42061   1.531   4.257  11.756  0.1714  0.3584  0.5344
10061SOL    HW142062   1.507   4.315  11.684  0.8070 -0.4866 -0.3594
10061SOL    HW242063   1.615   4.220  11.731  0.9635  0.9694  2.2706
10062SOL     OW42064   0.130   0.928  10.186  0.2009 -0.0894  0.2947
10062SOL    HW142065   0.077   0.861  10.143 -1.4937  0.8202  0.9644
10062SOL    HW242066   0.072   1.004  10.193  1.1129  0.4016  2.4395
10063SOL     OW42067   2.437   2.914  19.147 -0.7750  0.7105 -0.1284
10063SOL    HW142068   2.498   2.909  19.220  0.1487  1.0446 -0.8684
10063SOL    HW242069   2.487   2.956  19.077 -1.6992  0.5386 -0.8971
10064SOL     OW42070   1.556   2.170  11.133  0.1163 -1.0882 -0.4790
10064SOL    HW142071   1.531   2.146  11.222  0.5762  1.6326  0.3831
10064SOL    HW242072   1.473   2.190  11.089  0.0614 -0.3467 -0.0419
10065SOL     OW42073   0.804   0.250  12.088  0.2904  0.9003 -0.4038
10065SOL    HW142074   0.837   0.339  12.074  1.0868  0.7736  0.6489
10065SOL    HW242075   0.714   0.251  12.054  1.4382  1.2080 -3.4402
10066SOL     OW42076   3.156   1.197  17.322 -0.1470 -0.3033 -0.1804
10066SOL    HW142077   3.194   1.113  17.296  0.3708 -0.3400  0.7088
10066SOL    HW242078   3.066   1.194  17.289 -0.2051 -1.3121  0.0893
10067SOL     OW42079   3.874   2.195   2.634  0.1868 -0.0963 -0.0927
10067SOL    HW142080   3.811   2.153   2.692  2.8488 -0.3061  2.6175
10067SOL    HW242081   3.917   2.123   2.589 -1.5561  0.0505 -2.0040
10068SOL     OW42082   4.246   3.686  20.089 -0.4253  0.3206  0.5811
10068SOL    HW142083   4.185   3.617  20.061  1.7093 -1.3547  0.1276
10068SOL    HW242084   4.288   3.716  20.009  0.4864  0.4177  1.0934
10069SOL     OW42085   2.476   1.831   0.282 -0.2660  0.4107 -0.1467
10069SOL    HW142086   2.475   1.752   0.229  1.0570  0.4147 -0.1741
10069SOL    HW242087   2.563   1.869   0.267 -0.3678  1.0966  0.9853
10070SOL     OW42088   3.998   0.877   5.166  0.1177  0.8554  0.4987
10070SOL    HW142089   3.924   0.825   5.199 -0.1702  0.4974 -0.7132
10070SOL    HW242090   3.994   0.957   5.217 -1.4398  1.0604  0.0750
10071SOL     OW42091   0.631   0.346  14.199 -0.2207  0.2169 -0.2846
10071SOL    HW142092   0.707   0.385  14.154 -0.8062  0.6524 -0.8945
10071SOL    HW242093   0.563   0.344  14.132 -0.7313 -0.2202  0.2587
10072SOL     OW42094   2.908   1.353  16.313  0.0194 -0.1680 -0.6472
10072SOL    HW142095   2.934   1.445  16.307 -0.9869  0.1623  0.0540
10072SOL    HW242096   2.849   1.340  16.239 -0.4852 -0.0342 -0.2692
10073SOL     OW42097   0.248   0.653  18.215  0.1589  0.0967  0.1880
10073SOL    HW142098   0.275   0.657  18.123 -0.5247 -0.4598 -0.0351
10073SOL    HW242099   0.206   0.737  18.232 -1.6745 -0.6546 -0.6155
10074SOL     OW42100   1.784   2.359  17.868  0.3060  0.0590 -0.5703
10074SOL    HW142101   1.757   2.376  17.958 -0.2146 -1.0817 -0.5105
10074SOL    HW242102   1.868   2.314  17.876 -0.1420 -0.7990 -0.6236
10075SOL     OW42103   3.000   1.075  18.340 -0.1279 -0.0261 -0.6975
10075SOL    HW142104   2.937   1.012  18.375  1.0851 -0.9704 -0.2309
10075SOL    HW242105   2.969   1.160  18.372  0.9745 -0.8823  2.6683
10076SOL     OW42106   1.192   3.437   1.109  0.0186  0.0456  0.0904
10076SOL    HW142107   1.115   3.418   1.161 -0.6710 -0.0782 -0.9807
10076SOL    HW242108   1.164   3.424   1.018  1.2682  0.0640 -0.3004
10077SOL     OW42109   1.357   4.300   1.539 -0.0433 -0.0822  0.3295
10077SOL    HW142110   1.427   4.265   1.593  1.7620  1.7120 -0.8600
10077SOL    HW242111   1.308   4.358   1.597 -0.7743 -1.6418  1.2643
10078SOL     OW42112   3.919   4.309  10.984 -0.0839  0.2806  0.4536
10078SOL    HW142113   3.896   4.217  10.996 -0.3686  0.1966 -0.7412
10078SOL    HW242114   4.002   4.319  11.031 -0.1828 -0.5208  0.8008
10079SOL     OW42115   4.401   1.885  18.314 -0.2805 -0.0680  0.3255
10079SOL    HW142116   4.360   1.805  18.279  0.7114  0.2145 -1.4750
10079SOL    HW242117   4.330   1.949  18.313 -1.0641 -0.8914  1.7049
10080SOL     OW42118   4.057   0.310  15.620 -0.2732  0.0930  0.1099
10080SOL    HW142119   4.098   0.393  15.643  0.9573 -0.2710 -0.7997
10080SOL    HW242120   4.090   0.248  15.684 -2.8133  0.7684  2.0615
10081SOL     OW42121   1.752   3.908  16.437  0.0639 -0.5466 -0.1580
10081SOL    HW142122   1.764   3.832  16.380 -1.7967 -1.6541  0.9106
10081SOL    HW242123   1.831   3.908  16.492  2.1199  0.8820 -3.1418
10082SOL     OW42124   2.233   0.706  15.657 -0.1137 -0.3034 -0.4029
10082SOL    HW142125   2.285   0.745  15.727  1.1833 -1.6198 -0.6320
10082SOL    HW242126   2.199   0.781  15.608  1.3235  0.5741 -0.0615
10083SOL     OW42127   0.941   3.614   0.749 -0.1886  0.8665 -0.0149
10083SOL    HW142128   0.867   3.579   0.699  0.0926 -0.6565  0.6506
10083SOL    HW242129   1.018   3.582   0.703  0.0646  1.2223  0.1623
10084SOL     OW42130   2.829   3.294   1.560  0.3839  0.3311  0.2959
10084SOL    HW142131   2.794   3.378   1.529 -0.1042  0.4957  1.3086
10084SOL    HW242132   2.812   3.294   1.654  2.1235 -0.0544  0.6213
10085SOL     OW42133   2.155   2.983   3.317 -0.3824 -0.4392 -0.1262
10085SOL    HW142134   2.218   3.032   3.265  2.1178 -2.6080  0.8174
10085SOL    HW242135   2.073   3.032   3.310  1.2264  1.9444 -2.0091
10086SOL     OW42136   2.530   1.691  12.846 -0.1442  0.2270 -0.7108
10086SOL    HW142137   2.528   1.667  12.939 -0.8058  0.2892 -0.7065
10086SOL    HW242138   2.584   1.770  12.843  2.0073 -1.2623 -0.7194
10087SOL     OW42139   2.939   3.838   8.441  0.2447  0.3510 -0.7139
10087SOL    HW142140   2.986   3.895   8.502 -1.0134  2.0390 -1.3216
10087SOL    HW242141   3.002   3.820   8.371  1.2365 -0.4807  0.4043
10088SOL     OW42142   0.087   3.287   0.967 -0.2996 -0.0481 -0.2836
10088SOL    HW142143   0.057   3.241   1.045  0.4214  0.6104  0.3821
10088SOL    HW242144   0.013   3.343   0.942 -1.2344 -1.6968 -1.1915
10089SOL     OW42145   4.636   0.077   6.329  0.3609 -0.4106  0.0334
10089SOL    HW142146   4.716   0.025   6.319 -0.4585 -1.7973  0.5805
10089SOL    HW242147   4.666   0.167   6.335  1.7880 -0.8097 -1.1493
10090SOL     OW42148   3.176   1.648  19.804 -0.1214 -0.1129 -0.5639
10090SOL    HW142149   3.265   1.614  19.804 -0.0974 -0.0300  0.7202
10090SOL    HW242150   3.183   1.733  19.849 -0.7547  0.1291 -0.9211
10091SOL     OW42151   1.791   3.031  15.917 -0.0499  0.0230  0.0574
10091SOL    HW142152   1.807   3.072  16.002  0.7808 -0.0534 -0.0658
10091SOL    HW242153   1.699   3.049  15.899 -0.3153 -0.2540  1.1362
10092SOL     OW42154   2.942   1.267  12.293 -0.1253  0.2266 -0.2834
10092SOL    HW142155   2.916   1.175  12.290 -0.0014  0.1967 -0.4423
10092SOL    HW242156   2.978   1.284  12.206  2.2499 -0.2693  0.6309
10093SOL     OW42157   3.145   2.654  18.803  0.3578 -0.5688 -0.5472
10093SOL    HW142158   3.129   2.642  18.710  1.6378 -0.7311 -0.7498
10093SOL    HW242159   3.206   2.583  18.826  1.1015  0.2830  0.1125
10094SOL     OW42160   0.625   4.490   2.743  0.1739  0.2955  0.3284
10094SOL    HW142161   0.606   4.415   2.799 -1.2394  0.7154  0.4051
10094SOL    HW242162   0.690   4.457   2.681  1.6090 -0.2135  2.0977
10095SOL     OW42163   2.957   2.047   3.744 -0.1098  0.0491  0.3697
10095SOL    HW142164   3.046   2.018   3.765  0.0621 -0.2130 -0.7555
10095SOL    HW242165   2.901   1.992   3.799  0.4471  0.5960  1.4993
10096SOL     OW42166   2.865   3.600   3.053  0.7491  0.3769 -0.4520
10096SOL    HW142167   2.910   3.520   3.081 -1.0050 -0.0525  1.1102
10096SOL    HW242168   2.868   3.658   3.129 -0.6162  0.6818 -0.6295
10097SOL     OW42169   3.057   0.836   3.652  0.2103 -0.5657 -0.3627
10097SOL    HW142170   2.989   0.838   3.584  0.1701 -0.3368 -0.3145
10097SOL    HW242171   3.117   0.767   3.623 -0.8407 -1.7703  0.3691
10098SOL     OW42172   1.251   4.324   0.127 -0.1743 -0.0888  0.0446
10098SOL    HW142173   1.284   4.290   0.210  0.0405  0.3252  0.1294
10098SOL    HW242174   1.329   4.328   0.071 -0.4475 -1.0475 -0.4006
10099SOL     OW42175   0.831   0.397   2.048 -0.2116 -0.2586  0.0083
10099SOL    HW142176   0.886   0.473   2.067 -1.1081  0.0860  1.2325
10099SOL    HW242177   0.769   0.429   1.982  0.1454 -0.2429 -0.3179
10100SOL     OW42178   1.631   4.036   5.453 -0.8173 -0.1637 -0.2651
10100SOL    HW142179   1.602   4.087   5.377 -1.2809 -1.5716 -1.0296
10100SOL    HW242180   1.710   3.992   5.424 -1.7682 -1.7982 -0.3691
10101SOL     OW42181   1.380   2.840  19.366  0.1122  0.6632  0.6240
10101SOL    HW142182   1.383   2.932  19.393  0.6396  0.7424  0.2902
10101SOL    HW242183   1.289   2.814  19.381  0.0605  1.1172  1.1195
10102SOL     OW42184   3.160   0.248   2.174  0.1248 -0.8832  0.0408
10102SOL    HW142185   3.104   0.203   2.237 -0.0280 -0.2889  0.3257
10102SOL    HW242186   3.158   0.192   2.096 -2.9573  0.4659 -0.8557
10103SOL     OW42187   3.724   0.940  18.251  0.2952  0.1273  0.1590
10103SOL    HW142188   3.654   0.910  18.308  0.1606  1.1579  0.5455
10103SOL    HW242189   3.804   0.909  18.293  0.2221  1.2286  1.1297
10104SOL     OW42190   3.469   0.537   0.125 -0.2483  0.0037  0.2337
10104SOL    HW142191   3.438   0.456   0.086  0.0782 -0.1890  0.3801
10104SOL    HW242192   3.544   0.512   0.178 -0.4598  0.3260  0.6828
10105SOL     OW42193   2.754   2.293  17.065 -0.3803 -0.2460  0.1446
10105SOL    HW142194   2.665   2.293  17.031 -0.4512 -1.3199  0.3258
10105SOL    HW242195   2.787   2.206  17.045  0.6731  0.1890 -0.0245
10106SOL     OW42196   4.470   2.021  20.517 -0.1941 -0.8095 -0.2008
10106SOL    HW142197   4.428   2.106  20.528  1.9986  0.2270  0.3776
10106SOL    HW242198   4.492   2.016  20.424  1.5322  0.1699  0.1387
10107SOL     OW42199   4.305   1.633   2.667 -0.3563  0.2021  0.0897
10107SOL    HW142200   4.376   1.671   2.615  1.0580 -1.2682  0.9177
10107SOL    HW242201   4.329   1.540   2.674 -2.4329 -0.3135  0.2625
10108SOL     OW42202   2.548   2.831  15.671 -0.1828 -0.1344  0.6102
10108SOL    HW142203   2.581   2.744  15.653 -0.3940 -0.0856 -0.0093
10108SOL    HW242204   2.626   2.884  15.688  0.0211 -0.1716 -0.1961
10109SOL     OW42205   4.343   4.410  17.774  0.1826  0.2837 -0.2969
10109SOL    HW142206   4.402   4.481  17.799 -0.6744  1.3987 -1.4555
10109SOL    HW242207   4.365   4.391  17.683 -0.4175 -0.1087 -0.3606
10110SOL     OW42208   0.102   1.651   6.122  0.1860  0.2527  0.5614
10110SOL    HW142209   0.021   1.625   6.078  1.4424 -0.8670 -1.0687
10110SOL    HW242210   0.133   1.727   6.073  0.6584  0.0815  0.5967
10111SOL     OW42211   3.938   1.097   0.379 -0.4326  0.0453  0.2618
10111SOL    HW142212   3.908   1.118   0.290  0.6584 -1.4770 -0.4601
10111SOL    HW242213   3.915   1.174   0.431 -0.9998  0.9620 -1.3622
10112SOL     OW42214   0.334   4.741  19.145 -0.4946 -0.1700 -0.2124
10112SOL    HW142215   0.410   4.738  19.088 -1.6036  0.5282 -1.7510
10112SOL    HW242216   0.359   4.690  19.223  2.3850  2.0941  0.3417
10113SOL     OW42217   1.173   2.558  20.490  0.0158 -0.0032 -0.8241
10113SOL    HW142218   1.186   2.521  20.577  0.0259 -2.2355 -1.7603
10113SOL    HW242219   1.229   2.634  20.487  1.2514 -0.8637  0.5490
10114SOL     OW42220   4.198   4.087   2.282  0.6141  0.2202  0.1054
10114SOL    HW142221   4.146   4.096   2.362  0.7801 -0.0507  0.2426
10114SOL    HW242222   4.283   4.056   2.311  0.1271 -1.5200 -0.3379
10115SOL     OW42223   3.164   0.154   0.338 -0.7345 -0.4889 -0.4921
10115SOL    HW142224   3.153   0.110   0.253  1.4355 -1.2818 -0.3841
10115SOL    HW242225   3.238   0.213   0.324  0.2448 -1.3221  1.1201
10116SOL     OW42226   1.001   2.946   5.147 -0.4346 -0.0486 -0.2283
10116SOL    HW142227   0.929   2.988   5.194 -0.7450 -0.8618  0.0265
10116SOL    HW242228   0.997   2.854   5.175 -0.4342 -0.4689 -1.6127
10117SOL     OW42229   0.437   3.564   2.544  0.3785 -0.4449 -0.3414
10117SOL    HW142230   0.529   3.544   2.526  1.0627  1.4454  0.9885
10117SOL    HW242231   0.408   3.614   2.468  1.2489  1.3662  0.5028
10118SOL     OW42232   1.061   4.251  15.814 -0.1581  0.1579 -0.0636
10118SOL    HW142233   1.112   4.266  15.894  0.0990 -3.1406  0.3590
10118SOL    HW242234   1.117   4.197  15.759 -2.5030 -1.9770 -0.3280
10119SOL     OW42235   4.412   3.553   2.226 -0.0594  0.6190  0.3405
10119SOL    HW142236   4.370   3.606   2.294  0.1002  2.0074 -0.6602
10119SOL    HW242237   4.502   3.585   2.224  0.5377 -1.0374  1.1343
10120SOL     OW42238   0.217   2.457   0.726 -0.2181 -0.3308  0.0946
10120SOL    HW142239   0.259   2.522   0.782 -0.0050  0.5295 -1.0695
10120SOL    HW242240   0.139   2.501   0.692 -1.2888 -1.4431  1.1176
10121SOL     OW42241   2.694   0.262   1.474  0.2861 -0.2501  0.0392
10121SOL    HW142242   2.710   0.330   1.409  2.6154 -0.6370  0.2235
10121SOL    HW242243   2.639   0.304   1.540  1.9251  1.5018  0.2664
10122SOL     OW42244   4.142   1.612   4.066 -0.2184 -0.4959  0.7664
10122SOL    HW142245   4.204   1.583   3.999  0.6565  0.9063  0.9524
10122SOL    HW242246   4.125   1.704   4.043 -1.0406 -0.4469  1.6111
10123SOL     OW42247   0.428   2.408   7.583  0.5684  0.2382  0.5721
10123SOL    HW142248   0.364   2.364   7.638  2.0668  1.7298  3.4686
10123SOL    HW242249   0.382   2.485   7.550 -0.2649 -0.5611 -0.1392
10124SOL     OW42250   4.009   0.206  19.838 -0.0572  0.2966 -0.1181
10124SOL    HW142251   4.016   0.281  19.897 -0.6838  0.3116 -0.0717
10124SOL    HW242252   4.097   0.167  19.840 -0.6581 -0.8997  2.3710
10125SOL     OW42253   1.828   1.706  19.318 -0.2694  0.0182 -0.1659
10125SOL    HW142254   1.913   1.749  19.310 -0.0860 -0.3863 -0.4070
10125SOL    HW242255   1.775   1.767  19.369 -0.6851  1.4842 -2.3388
10126SOL     OW42256   1.606   2.680   0.268  0.1671 -0.2506  0.2013
10126SOL    HW142257   1.512   2.661   0.261 -0.0565  0.1460  2.1585
10126SOL    HW242258   1.639   2.668   0.179 -1.8403  0.1424 -0.6033
10127SOL     OW42259   2.179   2.588  15.747 -0.0648 -1.0388  0.0590
10127SOL    HW142260   2.150   2.579  15.838 -0.8634 -0.9401 -0.1812
10127SOL    HW242261   2.128   2.523  15.699  0.9789 -1.6674 -0.1768
10128SOL     OW42262   2.172   1.145   6.784  0.2458 -0.1940 -0.2448
10128SOL    HW142263   2.247   1.089   6.806 -0.6264 -0.6554  1.5794
10128SOL    HW242264   2.107   1.126   6.852 -1.3126  0.6242 -1.5044
10129SOL     OW42265   1.621   0.691   5.335 -0.3046  0.1410 -0.2715
10129SOL    HW142266   1.675   0.765   5.363 -1.5282  1.2755 -0.9090
10129SOL    HW242267   1.683   0.632   5.293  0.7384  0.6502  0.5345
10130SOL     OW42268   4.626   1.588  19.182  0.0050  0.2419  0.3351
10130SOL    HW142269   4.682   1.582  19.259  0.3894  1.2137  0.1316
10130SOL    HW242270   4.567   1.513  19.189  1.1144 -0.5962  0.7222
10131SOL     OW42271   3.839   2.402  14.676 -0.8304  0.4077 -0.4729
10131SOL    HW142272   3.827   2.309  14.693  0.5084  0.3654  0.2165
10131SOL    HW242273   3.893   2.433  14.749  0.1839  1.3649 -1.6250
10132SOL     OW42274   0.403   4.624  19.375 -0.0448  0.6753 -0.1960
10132SOL    HW142275   0.453   4.547  19.402  2.7038  2.1773 -1.0251
10132SOL    HW242276   0.417   4.688  19.444 -1.5917  0.7459  0.0447
10133SOL     OW42277   1.842   3.946  18.961  0.1651  0.5258 -0.0392
10133SOL    HW142278   1.890   3.956  19.043  0.9845  1.1744 -0.5969
10133SOL    HW242279   1.895   3.886  18.909 -0.1744  0.3904 -0.2292
10134SOL     OW42280   3.547   2.190   0.162  0.3285  0.5405  0.2302
10134SOL    HW142281   3.630   2.150   0.135  0.1410  0.5744 -0.3990
10134SOL    HW242282   3.573   2.273   0.202  0.5055  1.1291 -1.1113
10135SOL     OW42283   3.330   3.529   1.030  0.1616  0.1044  0.0640
10135SOL    HW142284   3.398   3.469   0.998  0.8993  0.6569  0.6059
10135SOL    HW242285   3.277   3.548   0.953  0.6333 -0.3081 -0.3640
10136SOL     OW42286   2.658   4.348  11.449  1.2141 -0.0944 -0.2247
10136SOL    HW142287   2.689   4.355  11.539  0.4458  0.2777  0.0135
10136SOL    HW242288   2.564   4.329  11.457  1.6241 -2.4391 -0.9320
10137SOL     OW42289   2.453   1.713  17.793 -0.6565  0.6750 -0.3580
10137SOL    HW142290   2.464   1.619  17.803  2.1880  0.8464 -2.0163
10137SOL    HW242291   2.360   1.724  17.770 -1.1332 -1.6400  0.4610
10138SOL     OW42292   0.309   1.347   6.895  0.1763  0.1710  0.1969
10138SOL    HW142293   0.325   1.281   6.828  0.1635  2.5766 -2.1733
10138SOL    HW242294   0.338   1.306   6.977  1.8086 -2.0981 -1.5324
10139SOL     OW42295   4.528   3.506  17.307 -0.3160  0.4150 -0.2064
10139SOL    HW142296   4.556   3.592  17.279 -1.1807  1.5469  2.4067
10139SOL    HW242297   4.608   3.460  17.331  0.0794  0.7053 -0.9910
10140SOL     OW42298   3.499   3.681  18.283 -0.4282  0.2403 -0.3817
10140SOL    HW142299   3.444   3.606  18.260  1.1314 -1.3575  1.1661
10140SOL    HW242300   3.562   3.687  18.211 -1.6863  1.1814 -1.4166
10141SOL     OW42301   2.247   1.621   5.396  0.1534  0.2497  0.0055
10141SOL    HW142302   2.229   1.679   5.321 -0.4817 -0.1783 -0.1653
10141SOL    HW242303   2.166   1.573   5.410  1.4886 -2.4530 -1.4640
10142SOL     OW42304   3.442   1.738  21.111 -0.5954  0.2762 -0.9117
10142SOL    HW142305   3.455   1.700  21.024 -1.8572 -1.9350 -0.1208
10142SOL    HW242306   3.357   1.781  21.107 -2.2405 -2.9098  0.3752
10143SOL     OW42307   0.684   1.342   6.234  0.0534 -0.4924  0.3109
10143SOL    HW142308   0.735   1.401   6.179 -0.0085 -0.6363  0.0977
10143SOL    HW242309   0.593   1.359   6.211  0.0863 -1.4208 -0.5180
10144SOL     OW42310   0.877   0.881  17.601 -0.4701  0.1762  0.5615
10144SOL    HW142311   0.887   0.821  17.527  1.2220 -0.7131  1.5220
10144SOL    HW242312   0.825   0.954  17.566 -0.5288 -0.7385 -1.2274
10145SOL     OW42313   2.632   1.186  12.447  0.5153  0.0583 -0.3787
10145SOL    HW142314   2.649   1.201  12.354  2.0915 -0.4614 -0.1755
10145SOL    HW242315   2.713   1.210  12.490 -0.2742  0.4292  0.8867
10146SOL     OW42316   2.152   4.263   3.767 -0.5930  0.7612  0.2156
10146SOL    HW142317   2.176   4.192   3.706 -2.3544  0.1809  0.1847
10146SOL    HW242318   2.199   4.339   3.735  0.7053 -0.2256 -0.2225
10147SOL     OW42319   3.260   1.751   0.284  0.1651  0.2561  0.3679
10147SOL    HW142320   3.278   1.686   0.217 -1.0837 -0.2767  0.5602
10147SOL    HW242321   3.311   1.828   0.257 -1.1956  0.4092 -1.7728
10148SOL     OW42322   0.015   4.634  19.510 -0.6839 -0.3244 -0.1357
10148SOL    HW142323   0.071   4.631  19.587 -0.0949  1.5459 -0.4821
10148SOL    HW242324   4.704   4.655  19.544 -1.1356 -3.0213  0.3797
10149SOL     OW42325   0.905   0.385   1.587 -0.0945 -0.3475 -0.4664
10149SOL    HW142326   0.953   0.422   1.661 -1.4080 -2.2148  1.3181
10149SOL    HW242327   0.971   0.341   1.535 -0.0174 -4.0333  2.6727
10150SOL     OW42328   0.099   0.646   0.204  0.6598 -0.8242 -0.0986
10150SOL    HW142329   0.014   0.638   0.248  0.5485 -0.0904 -0.1809
10150SOL    HW242330   0.162   0.654   0.275  0.5128  0.0358 -0.0561
10151SOL     OW42331   4.463   2.248   8.372  0.0654 -0.0944 -0.3323
10151SOL    HW142332   4.477   2.154   8.383  0.2663 -0.1330 -0.9088
10151SOL    HW242333   4.385   2.254   8.316  0.4060  0.0754 -0.7924
10152SOL     OW42334   4.563   0.562  10.718 -0.3265  0.1428 -0.6255
10152SOL    HW142335   4.524   0.479  10.690  1.0438 -1.1383  1.3128
10152SOL    HW242336   4.504   0.594  10.786  1.7600 -1.5712  1.9862
10153SOL     OW42337   3.220   0.039   8.350 -0.4255 -0.2938 -0.2716
10153SOL    HW142338   3.156   4.747   8.332  1.8581 -2.3895 -0.4793
10153SOL    HW242339   3.251   0.021   8.438  0.4972  0.1953 -0.4909
10154SOL     OW42340   3.253   1.227   4.319  0.2508 -0.3158  0.0586
10154SOL    HW142341   3.294   1.208   4.403  2.3397  3.1871 -0.2057
10154SOL    HW242342   3.325   1.227   4.256 -0.8660  0.5063 -1.2264
10155SOL     OW42343   3.660   4.572   4.934  0.8777  0.0251  0.0067
10155SOL    HW142344   3.716   4.503   4.899  0.2225 -0.8347  0.6813
10155SOL    HW242345   3.675   4.647   4.875  1.1588 -0.8521 -1.0315
10156SOL     OW42346   3.536   4.481  13.250  0.0481  0.4255 -0.1311
10156SOL    HW142347   3.458   4.450  13.296 -0.3080 -0.2789 -1.2017
10156SOL    HW242348   3.579   4.539  13.312 -1.1414  0.5316  0.5954
10157SOL     OW42349   1.025   0.148   1.420  0.5616 -0.2581 -0.1289
10157SOL    HW142350   0.946   0.094   1.417 -1.0412  1.9797  1.7468
10157SOL    HW242351   1.017   0.207   1.345 -0.3803  1.0811  1.0026
10158SOL     OW42352   2.005   4.663   1.320 -0.2450 -0.7522  0.1905
10158SOL    HW142353   1.933   4.628   1.372 -1.3876 -0.4424 -1.2013
10158SOL    HW242354   2.061   4.588   1.301  0.0207 -0.9132  1.6359
10159SOL     OW42355   0.412   3.874  15.530 -0.0707 -0.3960  0.0234
10159SOL    HW142356   0.380   3.836  15.448  0.6432 -0.6389 -0.1362
10159SOL    HW242357   0.362   3.956  15.539 -0.2463 -0.4373 -0.5808
10160SOL     OW42358   1.121   1.897  19.688  0.4691  0.2313 -0.0622
10160SOL    HW142359   1.178   1.963  19.726  0.8240 -0.7520  1.1260
10160SOL    HW242360   1.038   1.907  19.734 -0.0206  1.0140 -1.1099
10161SOL     OW42361   1.624   2.731  14.336 -0.2732  0.3147  0.6505
10161SOL    HW142362   1.584   2.690  14.413 -0.9132 -0.4748 -0.0943
10161SOL    HW242363   1.718   2.728  14.352 -0.2928 -1.9390  0.3647
10162SOL     OW42364   2.674   1.540   4.713  0.4239 -0.1117  0.0022
10162SOL    HW142365   2.635   1.559   4.627  1.1890 -0.5857 -0.4490
10162SOL    HW242366   2.695   1.627   4.749  1.0308  0.0435 -0.7242
10163SOL     OW42367   0.943   1.395  10.120 -0.5387  0.0098 -0.0262
10163SOL    HW142368   0.945   1.392  10.024 -0.2432 -0.0603 -0.0175
10163SOL    HW242369   0.923   1.487  10.140  0.8623  0.3406 -0.1352
10164SOL     OW42370   3.943   1.208  17.509 -0.7339 -0.1239  0.1854
10164SOL    HW142371   3.983   1.262  17.441 -0.2488 -2.3585 -1.3378
10164SOL    HW242372   3.930   1.267  17.583  0.7982  1.7982 -1.0771
10165SOL     OW42373   3.717   2.939  17.716  0.3019 -0.4413  0.0998
10165SOL    HW142374   3.707   2.869  17.781 -1.1377  2.2426  2.7806
10165SOL    HW242375   3.636   2.935  17.665 -0.6485  0.5587  1.5212
10166SOL     OW42376   3.211   1.946  17.315  0.1265  0.1792  0.1143
10166SOL    HW142377   3.161   1.904  17.246 -0.5612  3.0916 -1.1494
10166SOL    HW242378   3.165   1.924  17.396  0.5703 -2.6791 -0.4113
10167SOL     OW42379   2.374   1.056  12.549 -0.2189 -0.1432  0.5984
10167SOL    HW142380   2.463   1.073  12.517 -0.2774  1.6220  1.3111
10167SOL    HW242381   2.362   1.123  12.617 -1.8955 -0.7242  0.8465
10168SOL     OW42382   2.929   1.007  15.626  0.2644 -0.0387 -0.1109
10168SOL    HW142383   2.863   1.017  15.557 -0.3522 -3.0763  0.0267
10168SOL    HW242384   2.888   1.043  15.704 -0.3122  0.3368 -0.5928
10169SOL     OW42385   4.660   0.399   0.291  0.2252 -0.6625  0.0227
10169SOL    HW142386   4.641   0.486   0.327 -1.9988 -0.9676 -0.4165
10169SOL    HW242387   4.739   0.371   0.337  0.5419  1.2855  0.6950
10170SOL     OW42388   4.704   3.924  16.392  0.5390 -0.4829  0.2554
10170SOL    HW142389   4.748   4.001  16.357 -0.1968 -0.4833 -0.6726
10170SOL    HW242390   4.723   3.854  16.331 -0.5691 -0.5313 -0.0454
10171SOL     OW42391   3.945   4.055   2.069 -0.1939  0.1130  0.2653
10171SOL    HW142392   3.971   3.963   2.073 -0.8715 -0.1413 -1.1374
10171SOL    HW242393   4.006   4.094   2.006 -1.7350  0.0053 -1.2984
10172SOL     OW42394   1.737   3.372  19.351  0.5244  0.5507 -0.1939
10172SOL    HW142395   1.827   3.341  19.365  0.5763  0.4088 -0.8364
10172SOL    HW242396   1.747   3.456  19.307  0.2660 -1.1750 -3.5227
10173SOL     OW42397   3.710   4.088  13.220  0.2829  0.1919 -0.2100
10173SOL    HW142398   3.666   4.071  13.137 -0.9423 -0.7258  0.6232
10173SOL    HW242399   3.803   4.091  13.197  0.1506 -2.6680 -1.2116
10174SOL     OW42400   2.732   1.276   2.719 -0.5411 -0.0109  0.2138
10174SOL    HW142401   2.652   1.228   2.739  0.1207 -1.5038 -0.7046
10174SOL    HW242402   2.705   1.344   2.657 -1.2015 -0.1771  0.3245
10175SOL     OW42403   1.521   4.620   1.270  0.9379 -0.0512 -0.0896
10175SOL    HW142404   1.458   4.692   1.274  0.5910 -0.2208 -2.1138
10175SOL    HW242405   1.601   4.655   1.309  0.8685  1.5276 -1.3708
10176SOL     OW42406   0.154   0.701   4.345  0.3509 -0.2698  0.3362
10176SOL    HW142407   0.140   0.782   4.393 -1.1052  0.5156 -1.4602
10176SOL    HW242408   0.202   0.727   4.267 -1.6488 -0.9436 -1.0919
10177SOL     OW42409   3.101   1.836   3.009  0.2483 -0.1298  0.6136
10177SOL    HW142410   3.091   1.854   3.102  1.7317 -2.5523  1.2457
10177SOL    HW242411   3.016   1.800   2.982 -0.4309  1.3043  0.8719
10178SOL     OW42412   2.879   2.034   4.238  0.0676 -0.4428 -0.3047
10178SOL    HW142413   2.864   1.987   4.320  1.2803  2.3045  1.4712
10178SOL    HW242414   2.969   2.013   4.214  0.9026  1.6747  0.9484
10179SOL     OW42415   2.332   4.542  15.476 -0.1940 -0.0352  0.3869
10179SOL    HW142416   2.278   4.505  15.545 -0.4738  0.4904  0.4470
10179SOL    HW242417   2.401   4.590  15.523 -1.3426  1.7159  0.2916
10180SOL     OW42418   3.978   4.342  20.249  0.2631 -0.0129  0.0939
10180SOL    HW142419   4.056   4.378  20.291  2.0000 -1.4572 -1.8643
10180SOL    HW242420   3.908   4.353  20.313  2.0985  1.2928  1.8509
10181SOL     OW42421   2.596   2.624  20.360 -0.2636  0.1207  0.0742
10181SOL    HW142422   2.682   2.583  20.360  0.5303  1.7963  0.7963
10181SOL    HW242423   2.583   2.652  20.269  0.8233  1.7034  0.4113
10182SOL     OW42424   4.247   2.755   5.469 -0.0374  0.4021 -0.2894
10182SOL    HW142425   4.231   2.764   5.563  1.4469 -1.1157  0.1069
10182SOL    HW242426   4.341   2.771   5.459 -0.1282  0.1993 -1.4662
10183SOL     OW42427   0.261   3.155  13.792  0.5886 -0.1056  0.2731
10183SOL    HW142428   0.352   3.183  13.781 -0.0628  1.4414 -1.1750
10183SOL    HW242429   0.249   3.145  13.887  2.0396  0.4150  0.4970
10184SOL     OW42430   1.086   3.026  18.666 -0.1065  0.3662 -0.4472
10184SOL    HW142431   1.071   2.933  18.683 -1.4388  0.5343 -0.7003
10184SOL    HW242432   1.127   3.058  18.747 -1.0986 -0.1045  0.2509
10185SOL     OW42433   3.309   0.836  18.178 -0.0517  0.2249 -1.0152
10185SOL    HW142434   3.286   0.747  18.204  4.0255 -0.3768  0.4088
10185SOL    HW242435   3.225   0.882  18.175 -2.3033 -3.9994 -3.0873
10186SOL     OW42436   2.963   3.238   5.755 -0.5729  0.5232 -0.0435
10186SOL    HW142437   2.922   3.315   5.714  1.8354  1.9222  0.1984
10186SOL    HW242438   3.035   3.216   5.696 -0.2795 -0.5846  0.7432
10187SOL     OW42439   1.433   0.439   6.266 -0.1360  0.1248  0.4856
10187SOL    HW142440   1.399   0.358   6.304 -0.2996  0.4101  0.9458
10187SOL    HW242441   1.516   0.414   6.226  1.4559  0.4591  3.6197
10188SOL     OW42442   0.080   3.126  10.324 -0.1044 -1.1899 -0.2629
10188SOL    HW142443   0.104   3.219  10.316 -0.3386 -1.4158 -3.6437
10188SOL    HW242444   0.161   3.079  10.304  0.1448 -1.7124  1.9607
10189SOL     OW42445   1.759   4.427   4.428 -0.5360  0.3106 -0.1848
10189SOL    HW142446   1.675   4.407   4.386 -0.3680 -0.0259 -0.3634
10189SOL    HW242447   1.756   4.521   4.446 -0.7936  0.3680 -0.5353
10190SOL     OW42448   3.354   0.768   8.908  0.3062  0.2094 -0.0454
10190SOL    HW142449   3.308   0.725   8.980 -0.7649 -0.1218 -0.9232
10190SOL    HW242450   3.421   0.705   8.882 -0.0696 -0.1701 -0.1046
10191SOL     OW42451   3.927   1.095   3.239 -0.5064 -0.0169  0.4317
10191SOL    HW142452   3.891   1.015   3.277 -3.1264  0.6087 -0.7171
10191SOL    HW242453   3.855   1.158   3.240  0.4104  1.1340 -2.2469
10192SOL     OW42454   4.103   1.875  15.569 -0.2806  0.3152 -0.2052
10192SOL    HW142455   4.034   1.809  15.561  1.4001 -1.3069 -1.3155
10192SOL    HW242456   4.066   1.953  15.528 -0.8999 -0.9973 -2.1381
10193SOL     OW42457   3.021   1.793  17.947 -0.0656  0.3393 -0.2675
10193SOL    HW142458   3.106   1.775  17.906 -0.8102 -0.6323 -1.3636
10193SOL    HW242459   3.014   1.889  17.946  1.0631  0.4278 -0.0857
10194SOL     OW42460   3.617   1.259   6.825 -0.7998  0.2848 -0.2509
10194SOL    HW142461   3.588   1.171   6.805  2.6085 -0.2673 -2.6968
10194SOL    HW242462   3.541   1.314   6.806 -1.9082 -1.7488 -1.6798
10195SOL     OW42463   4.604   3.164  17.111  0.1465  0.4424 -0.6385
10195SOL    HW142464   4.629   3.182  17.202 -0.0836  0.7344 -0.6328
10195SOL    HW242465   4.584   3.250  17.074  1.3259  0.4329 -1.2852
10196SOL     OW42466   1.564   1.790   3.807  0.6327  0.4504  0.3664
10196SOL    HW142467   1.585   1.864   3.750 -0.8437  1.8378  1.6233
10196SOL    HW242468   1.474   1.766   3.784  1.0234 -0.8040  0.1241
10197SOL     OW42469   1.240   3.889  19.436  0.0631  0.1162  0.0418
10197SOL    HW142470   1.206   3.868  19.522 -0.8431  1.5959  0.0446
10197SOL    HW242471   1.176   3.852  19.375  0.6522 -0.8443  0.0202
10198SOL     OW42472   0.167   1.780  17.389 -0.5297 -0.3220 -0.2397
10198SOL    HW142473   0.206   1.720  17.452  1.6636 -1.2962 -2.5446
10198SOL    HW242474   0.136   1.723  17.318 -1.9585  0.8827 -0.5732
10199SOL     OW42475   1.024   3.792  19.295 -0.3657  0.5336  0.3482
10199SOL    HW142476   0.944   3.739  19.296 -1.8128  2.6928 -0.0720
10199SOL    HW242477   1.039   3.812  19.203  0.7025  0.0532  0.4212
10200SOL     OW42478   4.212   3.373  15.517 -0.3766  0.2393  0.1536
10200SOL    HW142479   4.254   3.293  15.486  1.3722  0.4903  1.8090
10200SOL    HW242480   4.124   3.370  15.481 -0.0836 -2.0941 -0.3708
10201SOL     OW42481   2.099   0.933   4.854 -0.7248 -0.5171  0.9290
10201SOL    HW142482   2.122   0.844   4.879 -0.6900 -0.7796 -0.0454
10201SOL    HW242483   2.009   0.927   4.822 -0.2916 -0.4345 -0.3368
10202SOL     OW42484   0.986   2.103  16.969 -0.2733  0.4916 -0.1876
10202SOL    HW142485   1.069   2.149  16.962 -0.4787  0.8802 -0.0881
10202SOL    HW242486   0.932   2.158  17.026 -0.9181  0.7207 -1.0003
10203SOL     OW42487   0.246   2.201   5.253  0.1355  0.9237  0.0600
10203SOL    HW142488   0.342   2.198   5.254  0.1652  2.2681  0.2939
10203SOL    HW242489   0.221   2.115   5.218  1.4653  1.2388 -1.7129
10204SOL     OW42490   1.693   3.005   1.245  0.0676  0.3745  0.0465
10204SOL    HW142491   1.626   3.071   1.258 -0.1113  0.4194 -1.0806
10204SOL    HW242492   1.763   3.050   1.196  0.0872 -0.1729 -0.4339
10205SOL     OW42493   0.497   0.162   8.537 -0.1788  0.6509  0.5268
10205SOL    HW142494   0.464   0.252   8.536  1.3119  1.2065 -0.3813
10205SOL    HW242495   0.581   0.168   8.584  0.5237 -0.0342 -0.6350
10206SOL     OW42496   3.062   3.153  17.712 -0.4109  0.3046  0.3165
10206SOL    HW142497   3.031   3.168  17.623  1.5743 -0.2409 -0.4700
10206SOL    HW242498   3.073   3.241  17.749 -0.3179  0.5435 -0.2867
10207SOL     OW42499   2.281   4.562   4.796 -0.3393  0.3844 -0.2386
10207SOL    HW142500   2.195   4.600   4.814 -0.4801  0.9229 -2.0507
10207SOL    HW242501   2.302   4.511   4.875 -1.5018  1.7390  0.9429
10208SOL     OW42502   3.137   3.293  20.263  0.0845  0.4168 -0.0792
10208SOL    HW142503   3.150   3.266  20.354 -0.6005  2.4188  0.6305
10208SOL    HW242504   3.217   3.342  20.241 -0.1000  0.6279 -0.2837
10209SOL     OW42505   3.764   4.195   3.461  0.0451 -0.2274 -0.0749
10209SOL    HW142506   3.715   4.133   3.406 -1.6760  1.5637 -0.5506
10209SOL    HW242507   3.810   4.252   3.400  0.7792 -0.3522  0.3598
10210SOL     OW42508   2.426   2.834  10.723 -0.4416 -0.2273 -0.2663
10210SOL    HW142509   2.474   2.875  10.795  0.4538 -2.3032  0.3147
10210SOL    HW242510   2.335   2.831  10.753 -0.5702  1.6751 -0.4627
10211SOL     OW42511   2.354   3.931  17.248  0.4880 -0.1121 -0.8249
10211SOL    HW142512   2.424   3.873  17.219  1.4104 -0.2399  1.6459
10211SOL    HW242513   2.283   3.918  17.184  1.6148 -2.1369 -1.6363
10212SOL     OW42514   2.039   1.198  17.014  1.1629  0.0891 -0.0363
10212SOL    HW142515   2.015   1.199  16.922  0.7759 -1.0314  0.0527
10212SOL    HW242516   2.135   1.207  17.014  0.9103  2.7642 -0.4453
10213SOL     OW42517   3.216   2.800  19.821 -0.5276  1.0557 -0.0960
10213SOL    HW142518   3.271   2.876  19.838  0.7519  0.4848 -1.6662
10213SOL    HW242519   3.146   2.833  19.766 -0.7950  1.4083  0.4520
10214SOL     OW42520   0.071   1.690   1.045  0.4458 -0.3281 -0.1342
10214SOL    HW142521   0.063   1.665   0.952 -0.1730 -1.1874  0.1454
10214SOL    HW242522   0.141   1.755   1.046  0.5184 -0.3790 -1.2016
10215SOL     OW42523   0.124   1.985  13.824 -0.0978 -0.0474  0.2561
10215SOL    HW142524   0.182   2.022  13.757 -0.3055 -0.4918 -0.1684
10215SOL    HW242525   0.104   2.059  13.882 -0.1295  0.4007 -0.3252
10216SOL     OW42526   2.014   2.758  14.135  0.1307  0.1353  0.5430
10216SOL    HW142527   2.013   2.852  14.152  1.8740  0.1360  0.7195
10216SOL    HW242528   2.103   2.741  14.102  0.3852 -1.7240  2.1816
10217SOL     OW42529   0.002   3.666  20.095  0.0637 -0.5827 -0.4326
10217SOL    HW142530   0.077   3.694  20.042 -0.1685  1.9174  0.5914
10217SOL    HW242531   0.034   3.670  20.185 -1.6954  1.6437  0.0817
10218SOL     OW42532   4.078   1.064  18.499 -0.7439 -0.0308 -0.1911
10218SOL    HW142533   3.994   1.110  18.505  0.1645  1.7766 -1.0032
10218SOL    HW242534   4.068   1.005  18.425 -1.0177  0.7941 -0.8115
10219SOL     OW42535   0.252   2.221   0.574  0.2670  0.3846 -0.7932
10219SOL    HW142536   0.294   2.175   0.647  0.2261  0.6888 -0.5799
10219SOL    HW242537   0.222   2.303   0.612 -1.2026 -0.1710 -0.7653
10220SOL     OW42538   4.570   2.006   1.775  0.3161 -0.2621  0.1038
10220SOL    HW142539   4.529   1.950   1.709  0.1141  2.2835 -1.9060
10220SOL    HW242540   4.498   2.057   1.812  0.9392  0.6199  0.0836
10221SOL     OW42541   0.404   2.320   4.139  0.0279 -0.7462 -0.0288
10221SOL    HW142542   0.475   2.285   4.193 -1.4418 -1.5408  1.3964
10221SOL    HW242543   0.336   2.343   4.201  0.3887  3.2076 -1.1364
10222SOL     OW42544   3.332   3.440   8.892 -0.0122 -0.3918  0.0148
10222SOL    HW142545   3.271   3.439   8.965  0.1154 -1.1572  0.1029
10222SOL    HW242546   3.294   3.502   8.830  1.0136  1.9726  1.7264
10223SOL     OW42547   2.042   0.839   5.667  0.1844  0.3487 -0.2002
10223SOL    HW142548   2.129   0.806   5.689  0.8106  0.9241 -1.8358
10223SOL    HW242549   2.026   0.910   5.729  0.0387 -1.1055  1.4287
10224SOL     OW42550   1.569   3.775   8.486 -0.2899 -0.3022  0.2646
10224SOL    HW142551   1.487   3.728   8.475  0.2664 -1.6106  1.6743
10224SOL    HW242552   1.637   3.710   8.468  0.4197  1.0078 -1.7987
10225SOL     OW42553   2.324   3.524   0.685 -0.8976 -0.1683 -0.1283
10225SOL    HW142554   2.374   3.605   0.674  0.3003 -1.1296 -1.6720
10225SOL    HW242555   2.277   3.513   0.602 -2.7725  0.1128  0.8894
10226SOL     OW42556   0.810   3.987   0.814  0.7332  0.0357  0.4563
10226SOL    HW142557   0.858   3.924   0.760 -1.2889 -2.1703  1.2191
10226SOL    HW242558   0.876   4.023   0.873  1.9857 -1.0473 -0.2843
10227SOL     OW42559   3.874   3.491   3.950 -0.0052 -0.6221  0.7552
10227SOL    HW142560   3.936   3.432   3.907  0.0705 -0.7585  1.0491
10227SOL    HW242561   3.791   3.443   3.950  0.2768 -1.1157  1.8349
10228SOL     OW42562   0.270   3.624   1.210  0.0494  0.0883 -0.2276
10228SOL    HW142563   0.203   3.566   1.244  1.8915 -0.7745  1.8998
10228SOL    HW242564   0.230   3.711   1.210 -0.9061 -0.3611  1.4531
10229SOL     OW42565   2.362   2.857  14.553  0.7202  0.2915  0.1020
10229SOL    HW142566   2.419   2.911  14.498  2.2512  0.2397  1.6536
10229SOL    HW242567   2.420   2.796  14.597 -0.8190 -1.4151 -0.2340
10230SOL     OW42568   1.530   1.676  17.780 -0.8782  0.2885  0.1392
10230SOL    HW142569   1.605   1.720  17.740 -1.9571  1.1475 -0.9363
10230SOL    HW242570   1.490   1.627  17.708 -0.8455 -0.8554  0.9003
10231SOL     OW42571   1.886   3.910   1.140 -0.5367  0.5620 -0.5288
10231SOL    HW142572   1.948   3.843   1.169 -1.3284 -0.2005 -0.6163
10231SOL    HW242573   1.800   3.870   1.150 -1.0416  1.7840 -0.0077
10232SOL     OW42574   2.972   2.865   3.273  0.5829  0.1413  0.4991
10232SOL    HW142575   3.040   2.898   3.215  0.4470  1.0632  0.8755
10232SOL    HW242576   3.014   2.860   3.359  0.1165  0.8851  0.7663
10233SOL     OW42577   1.442   3.194   0.213  0.0539  0.2441 -0.5995
10233SOL    HW142578   1.368   3.136   0.230  0.2235  0.2862  0.2986
10233SOL    HW242579   1.406   3.282   0.225  0.5088  0.2307  0.8623
10234SOL     OW42580   1.760   2.274  16.245  0.0239 -0.4880 -0.1943
10234SOL    HW142581   1.785   2.366  16.233 -0.5679 -0.5693 -2.1282
10234SOL    HW242582   1.708   2.274  16.325  1.3064  0.6267  0.6406
10235SOL     OW42583   1.341   4.670  19.668 -0.3191 -0.3862 -0.1024
10235SOL    HW142584   1.253   4.691  19.636  0.6375  0.5733 -2.0631
10235SOL    HW242585   1.368   4.748  19.717 -0.1224 -0.2710 -0.3959
10236SOL     OW42586   2.876   3.198  16.817  0.4617 -0.5813 -0.3660
10236SOL    HW142587   2.919   3.143  16.883 -0.0060 -1.1363 -0.5231
10236SOL    HW242588   2.914   3.170  16.734 -0.8940 -1.7078 -0.5902
10237SOL     OW42589   2.102   1.184  20.481 -0.3388 -0.2578  0.4307
10237SOL    HW142590   2.155   1.261  20.499 -0.4519 -0.1925  0.4812
10237SOL    HW242591   2.166   1.117  20.455 -0.1645 -0.3674  1.1173
10238SOL     OW42592   0.417   3.765  11.998 -0.0015  0.1823  0.1893
10238SOL    HW142593   0.511   3.777  11.989  0.4623 -1.4843  3.0007
10238SOL    HW242594   0.397   3.687  11.947  0.7406 -1.8693  3.0712
10239SOL     OW42595   3.984   1.826   7.992  0.0105 -0.3674  1.0496
10239SOL    HW142596   3.929   1.884   8.044 -1.1702 -1.2850  0.8257
10239SOL    HW242597   3.965   1.738   8.027  0.2729 -0.8320  0.0166
10240SOL     OW42598   3.999   3.748   0.234  0.4059  0.8977  0.1493
10240SOL    HW142599   4.017   3.808   0.305  2.9869  0.4414 -0.1033
10240SOL    HW242600   4.011   3.661   0.272  0.0632  0.6212 -0.3688
10241SOL     OW42601   4.213   3.835   0.732  0.3393 -0.1263 -0.7079
10241SOL    HW142602   4.284   3.771   0.738  0.1143  0.1291  5.0290
10241SOL    HW242603   4.257   3.919   0.720  1.0014 -0.1247  1.6273
10242SOL     OW42604   1.226   0.921   2.888 -0.0726 -0.4006 -0.3744
10242SOL    HW142605   1.198   0.982   2.957 -0.5135 -0.7592 -0.2363
10242SOL    HW242606   1.156   0.857   2.883  0.4303 -0.9395 -0.4767
10243SOL     OW42607   2.693   3.509   3.949  0.4565 -0.0275 -0.0005
10243SOL    HW142608   2.708   3.456   4.027  0.0737  1.9985  1.4418
10243SOL    HW242609   2.644   3.452   3.890 -0.7927 -0.9249  1.9221
10244SOL     OW42610   3.717   3.080   6.647 -0.6646 -0.2766  0.1713
10244SOL    HW142611   3.645   3.039   6.694  0.5444 -1.2637  1.1347
10244SOL    HW242612   3.737   3.019   6.576  1.5899 -1.6479  2.0149
10245SOL     OW42613   4.760   3.723  16.241  0.2926  0.0909 -0.7012
10245SOL    HW142614   4.691   3.728  16.175  1.4095  0.6006 -1.8377
10245SOL    HW242615   0.014   3.632  16.237 -1.1520 -0.4408  0.6482
10246SOL     OW42616   2.518   1.568  12.340  0.7831 -0.4019 -0.3877
10246SOL    HW142617   2.493   1.660  12.336  2.5233  0.0588 -0.8125
10246SOL    HW242618   2.484   1.530  12.259  0.3736 -0.0650 -0.3738
10247SOL     OW42619   0.824   3.743  17.843  0.0809 -0.3592  0.3490
10247SOL    HW142620   0.801   3.730  17.934 -2.6217 -0.9744 -0.4269
10247SOL    HW242621   0.837   3.655  17.808  0.1134 -0.1655 -0.1337
10248SOL     OW42622   1.485   1.982  15.542 -0.0174  0.0665 -0.3433
10248SOL    HW142623   1.451   1.920  15.606 -0.6047  1.3807  0.6372
10248SOL    HW242624   1.538   1.930  15.482  3.5284 -0.6051  3.3767
10249SOL     OW42625   3.752   2.609   1.439  0.3410  0.5764 -0.2263
10249SOL    HW142626   3.759   2.591   1.533  0.1901  0.4276 -0.2442
10249SOL    HW242627   3.799   2.537   1.397  1.3254  1.2076 -0.2223
10250SOL     OW42628   2.160   4.116   1.790 -0.5189  0.0570  0.2483
10250SOL    HW142629   2.142   4.038   1.737  1.3990  0.6597 -1.3018
10250SOL    HW242630   2.244   4.098   1.831  0.1641  1.4978 -0.4899
10251SOL     OW42631   4.719   2.107   8.212 -0.3164  0.0143 -0.0373
10251SOL    HW142632   4.697   2.128   8.303  0.4907 -1.2656  0.4686
10251SOL    HW242633   4.642   2.060   8.179 -1.4793  2.3754 -0.6845
10252SOL     OW42634   1.475   3.445   1.511  0.2128 -0.2897  0.0842
10252SOL    HW142635   1.517   3.503   1.448  0.4936 -0.1694  0.3809
10252SOL    HW242636   1.381   3.456   1.496  0.2109  2.1148  1.8292
10253SOL     OW42637   0.133   3.283  14.708 -0.6693 -0.6895  0.1020
10253SOL    HW142638   0.205   3.231  14.742  0.8352  1.2881 -0.0210
10253SOL    HW242639   0.108   3.239  14.627  0.5266 -1.3097  0.0675
10254SOL     OW42640   4.669   4.162   1.137 -0.8528 -0.5737 -0.2233
10254SOL    HW142641   4.644   4.084   1.087  0.8684 -1.3056  0.0250
10254SOL    HW242642   4.677   4.231   1.071 -0.9101 -0.9682 -0.6485
10255SOL     OW42643   0.391   3.025   3.768 -0.6889  0.2553  0.0498
10255SOL    HW142644   0.400   3.017   3.673  0.9532  0.5636  0.1794
10255SOL    HW242645   0.303   3.059   3.781 -1.0389 -0.1182 -1.3480
10256SOL     OW42646   1.716   4.755   1.388 -0.3813 -0.1514 -0.1171
10256SOL    HW142647   1.770   4.725   1.462 -1.4178 -1.2948  0.1893
10256SOL    HW242648   1.723   0.074   1.390  1.1908 -0.2729  0.2543
10257SOL     OW42649   1.117   1.180   6.518 -0.4977  0.0287  0.2654
10257SOL    HW142650   1.116   1.238   6.594  0.2392 -0.5875  0.7433
10257SOL    HW242651   1.070   1.229   6.450  0.2770  1.2676  0.6219
10258SOL     OW42652   4.328   1.264   5.962 -0.0602  0.3529 -0.2258
10258SOL    HW142653   4.359   1.176   5.983 -0.2000 -0.0984 -1.9518
10258SOL    HW242654   4.296   1.299   6.046 -0.9970 -1.6175  0.2308
10259SOL     OW42655   2.712   2.956   8.488 -0.5389 -0.2270  0.1012
10259SOL    HW142656   2.628   2.996   8.466 -0.7506 -0.7275  0.0051
10259SOL    HW242657   2.777   3.022   8.465 -1.0404  1.0190  2.2118
10260SOL     OW42658   2.327   1.279   7.820  0.2570  0.5619 -0.2244
10260SOL    HW142659   2.304   1.187   7.813 -0.2843  0.5456  1.7701
10260SOL    HW242660   2.364   1.301   7.734  1.7191 -1.8827 -0.2395
10261SOL     OW42661   1.561   4.768  15.760 -0.1547  0.6410  0.2680
10261SOL    HW142662   1.533   4.679  15.779  2.5623 -0.2757  0.0637
10261SOL    HW242663   1.504   0.021  15.688 -2.1399 -0.3331  1.4586
10262SOL     OW42664   4.174   0.481   3.291  0.2963 -0.6732 -0.3129
10262SOL    HW142665   4.123   0.420   3.345 -0.3652  1.4274  1.4410
10262SOL    HW242666   4.261   0.442   3.287  0.4464 -0.6514  2.5908
10263SOL     OW42667   3.496   4.252  10.975 -0.4058 -0.7107 -0.4175
10263SOL    HW142668   3.497   4.181  11.039  1.9737 -1.0220 -0.7778
10263SOL    HW242669   3.589   4.267  10.954 -1.0513  0.6247 -2.4079
10264SOL     OW42670   1.186   4.251   4.297 -0.3862 -0.0484  0.1713
10264SOL    HW142671   1.099   4.244   4.335 -0.8171 -2.7049 -1.3317
10264SOL    HW242672   1.235   4.177   4.333 -0.5051 -1.9769 -3.6041
10265SOL     OW42673   4.299   3.819  17.284  0.3137  0.3252 -0.1853
10265SOL    HW142674   4.284   3.801  17.377  0.8192 -1.3506 -0.4200
10265SOL    HW242675   4.315   3.913  17.280  1.1857  0.2587  1.5582
10266SOL     OW42676   1.075   3.019  19.188  0.1584 -0.4086  0.4918
10266SOL    HW142677   1.048   3.104  19.153  0.6927 -0.8317 -0.9694
10266SOL    HW242678   1.031   2.955  19.131  0.4110 -1.1023  1.0739
10267SOL     OW42679   1.919   2.574  19.332  0.1494 -0.0267 -0.0356
10267SOL    HW142680   1.838   2.528  19.354 -0.9807  2.0999  0.2034
10267SOL    HW242681   1.959   2.520  19.264 -1.4635 -1.0719 -0.1580
10268SOL     OW42682   2.545   1.538  17.406  0.5010  0.1333 -0.0113
10268SOL    HW142683   2.591   1.621  17.419  0.9498 -0.0020 -0.7828
10268SOL    HW242684   2.555   1.519  17.313 -0.5542 -0.2258 -0.0442
10269SOL     OW42685   4.602   4.085  18.155 -0.1882  0.4347 -0.2810
10269SOL    HW142686   4.619   4.179  18.143  1.0285  0.5432  2.1118
10269SOL    HW242687   4.607   4.048  18.068 -0.5379  2.6052 -1.2260
10270SOL     OW42688   2.399   0.822   3.629 -0.2344  0.0456  0.3259
10270SOL    HW142689   2.430   0.878   3.701 -1.7415 -0.5255  1.4157
10270SOL    HW242690   2.328   0.872   3.589 -1.7261 -1.1890  1.4355
10271SOL     OW42691   4.055   3.254  21.158  0.1118 -0.1325 -0.2682
10271SOL    HW142692   4.121   3.214   0.018  0.6633  0.6763 -0.3334
10271SOL    HW242693   4.073   3.348  21.163 -0.8407  0.0680 -0.5303
10272SOL     OW42694   2.334   4.209   2.630  0.1211 -0.0289  0.5416
10272SOL    HW142695   2.421   4.177   2.607  0.3608  0.3816  0.8682
10272SOL    HW242696   2.333   4.210   2.725 -0.9234 -1.8711  0.5528
10273SOL     OW42697   4.724   0.320   3.893  0.2770 -0.0638 -0.0337
10273SOL    HW142698   0.012   0.258   3.859  0.5918  1.0996 -1.5920
10273SOL    HW242699   4.774   0.401   3.907 -0.9822  1.0270 -1.8350
10274SOL     OW42700   1.138   1.337   0.745  0.6060 -0.2267 -0.7145
10274SOL    HW142701   1.116   1.329   0.838 -0.4012 -1.1540 -1.0484
10274SOL    HW242702   1.227   1.374   0.746  0.3137  0.4773  0.6089
10275SOL     OW42703   2.447   4.745   1.868  0.1752 -0.0170 -0.3787
10275SOL    HW142704   2.463   4.772   1.777  0.4765  0.9981 -0.0255
10275SOL    HW242705   2.454   4.650   1.866  0.7322  0.0412 -1.3225
10276SOL     OW42706   1.334   2.559   4.920 -0.2424 -0.0283  0.4961
10276SOL    HW142707   1.277   2.558   4.843  1.6307  2.7001 -0.9024
10276SOL    HW242708   1.374   2.472   4.920 -1.7876 -0.7446 -0.4907
10277SOL     OW42709   1.831   4.581  20.976 -0.4380 -0.6193 -0.3572
10277SOL    HW142710   1.795   4.622  21.054  1.8079 -1.7354  1.2848
10277SOL    HW242711   1.899   4.642  20.946  0.5012 -1.4470  0.0805
10278SOL     OW42712   1.803   3.147   5.486 -0.2319  0.4109 -0.2067
10278SOL    HW142713   1.725   3.092   5.481  0.7399 -1.0310  0.1468
10278SOL    HW242714   1.782   3.214   5.550 -1.1716 -0.0083 -0.0805
10279SOL     OW42715   3.245   2.189   3.950  0.0093 -0.0844 -0.0068
10279SOL    HW142716   3.230   2.123   3.882  0.5629  0.2368 -0.4363
10279SOL    HW242717   3.260   2.271   3.903 -1.2958  0.4698  0.5501
10280SOL     OW42718   4.384   2.668   1.145 -0.3247  0.1221  0.2416
10280SOL    HW142719   4.468   2.664   1.098  0.0234  4.4553  0.4950
10280SOL    HW242720   4.409   2.660   1.237 -0.4158 -1.2614  0.1476
10281SOL     OW42721   3.663   1.662  17.752  0.3740  0.2112 -0.6123
10281SOL    HW142722   3.703   1.745  17.729 -2.9636  1.6123 -1.3285
10281SOL    HW242723   3.689   1.646  17.843  0.6902  2.1760 -0.3732
10282SOL     OW42724   3.053   4.152   6.462 -0.4582  0.4087 -0.7254
10282SOL    HW142725   3.097   4.177   6.381 -0.6246 -0.5707 -1.1225
10282SOL    HW242726   3.114   4.177   6.532  0.9239 -1.3337 -1.2923
10283SOL     OW42727   4.451   2.237  15.736 -0.7114  0.1564 -0.0276
10283SOL    HW142728   4.450   2.253  15.642 -0.2108  1.7609  0.2550
10283SOL    HW242729   4.365   2.200  15.755 -1.0293  0.4106 -1.0062
10284SOL     OW42730   3.557   2.144  17.206 -0.1148  0.2251 -0.0840
10284SOL    HW142731   3.533   2.066  17.256  0.3284 -1.0332 -1.8328
10284SOL    HW242732   3.634   2.179  17.252  0.8959 -1.4805 -0.4625
10285SOL     OW42733   0.979   2.148   1.115  0.2063  0.6080 -0.7197
10285SOL    HW142734   1.034   2.151   1.193 -0.1097  0.1675 -0.4774
10285SOL    HW242735   1.041   2.151   1.042  0.5898 -0.4532 -0.4454
10286SOL     OW42736   1.501   0.827   8.736  0.0580  0.6893  0.4670
10286SOL    HW142737   1.468   0.780   8.660  0.4067 -1.4196  1.6129
10286SOL    HW242738   1.535   0.910   8.701 -2.5232  1.0067 -1.2546
10287SOL     OW42739   2.917   2.614  11.461  0.4965 -0.8113  0.3061
10287SOL    HW142740   2.872   2.574  11.387  1.4422 -1.7689  0.2523
10287SOL    HW242741   3.010   2.595  11.447  0.8698  0.6569  0.7242
10288SOL     OW42742   0.323   0.641   5.597  0.5858  0.2312  0.0640
10288SOL    HW142743   0.418   0.632   5.606  0.7079  0.9301 -0.5504
10288SOL    HW242744   0.305   0.616   5.507 -0.2048 -3.0621  1.1519
10289SOL     OW42745   1.499   3.776   0.315 -0.5004  0.3554  0.0569
10289SOL    HW142746   1.531   3.860   0.346 -0.3029 -0.1284  1.1768
10289SOL    HW242747   1.532   3.769   0.225  0.9181  0.7240  0.5457
10290SOL     OW42748   4.417   1.381  19.163 -0.3582 -0.1461  0.1201
10290SOL    HW142749   4.500   1.342  19.135 -0.3413 -0.1364  0.1559
10290SOL    HW242750   4.350   1.332  19.117 -0.1686  2.0407 -2.5002
10291SOL     OW42751   2.991   1.172  11.607  0.3283 -0.5370 -0.0502
10291SOL    HW142752   3.048   1.210  11.540  0.8403 -1.7699 -0.3172
10291SOL    HW242753   2.971   1.245  11.665 -1.8750  1.0219 -2.7654
10292SOL     OW42754   0.771   3.649   2.651 -0.0603  0.0893 -0.1902
10292SOL    HW142755   0.841   3.698   2.608 -0.8609  0.7083 -0.7965
10292SOL    HW242756   0.750   3.580   2.589 -1.1329  0.9083 -0.7355
10293SOL     OW42757   2.561   1.061  20.141 -0.4691  0.2939 -0.3894
10293SOL    HW142758   2.531   1.145  20.105 -1.7968  0.1738  0.4596
10293SOL    HW242759   2.493   0.999  20.117  0.3093 -0.4579 -0.6335
10294SOL     OW42760   3.505   2.640  20.498  0.2907 -0.1128 -0.0061
10294SOL    HW142761   3.553   2.662  20.578 -0.1463 -0.1722  0.2762
10294SOL    HW242762   3.557   2.573  20.456  1.0182  0.6127 -0.2614
10295SOL     OW42763   1.003   1.516   6.142  0.2227 -0.3957  0.6557
10295SOL    HW142764   1.006   1.447   6.076 -0.0782 -1.4842  1.7691
10295SOL    HW242765   0.934   1.575   6.112  2.5982  1.0545 -1.9003
10296SOL     OW42766   4.179   4.608  16.282 -0.0736 -0.0290 -0.4590
10296SOL    HW142767   4.118   4.539  16.255 -0.1707 -0.1369  0.0308
10296SOL    HW242768   4.127   4.664  16.340  0.8944 -1.3497  1.7119
10297SOL     OW42769   0.938   0.075   6.560 -0.7839 -0.0086  0.6877
10297SOL    HW142770   0.906   0.023   6.634 -0.2859  1.2144  1.7727
10297SOL    HW242771   1.019   0.115   6.592 -2.2158  3.0481  0.5563
10298SOL     OW42772   1.316   0.481  20.673 -0.1921 -0.4343  0.1721
10298SOL    HW142773   1.310   0.576  20.663  1.0616 -0.5111 -1.2754
10298SOL    HW242774   1.283   0.446  20.591 -3.1389 -1.2871  1.7414
10299SOL     OW42775   1.494   2.090  20.487 -0.2654 -1.0332  0.3186
10299SOL    HW142776   1.423   2.142  20.525  1.2775  0.8388  0.6722
10299SOL    HW242777   1.553   2.072  20.561  1.9143  1.2448 -0.8784
10300SOL     OW42778   1.791   2.253  19.923  0.5986  0.0981  0.6110
10300SOL    HW142779   1.813   2.331  19.873  1.2004 -1.0894 -0.9625
10300SOL    HW242780   1.695   2.255  19.930  0.5788  0.6907  0.1029
10301SOL     OW42781   1.160   0.612   2.562  0.4961 -0.3002 -0.0996
10301SOL    HW142782   1.166   0.655   2.648 -0.4206 -1.5652  0.5889
10301SOL    HW242783   1.110   0.532   2.579  0.6831 -0.7480 -1.7379
10302SOL     OW42784   2.491   3.099  10.996 -0.2562 -0.0567  0.3908
10302SOL    HW142785   2.399   3.074  11.001  0.3225 -2.2382 -0.0188
10302SOL    HW242786   2.507   3.115  10.902 -0.2016  0.2473  0.4515
10303SOL     OW42787   0.710   2.454   4.538 -0.2827  0.2000 -0.0182
10303SOL    HW142788   0.750   2.476   4.623  0.8847  2.0121 -1.0200
10303SOL    HW242789   0.772   2.394   4.498 -0.6275 -0.3248  0.2418
10304SOL     OW42790   2.544   2.163  14.576 -0.1543 -0.3664  0.1332
10304SOL    HW142791   2.542   2.257  14.561  0.0732 -0.3025  0.5126
10304SOL    HW242792   2.595   2.128  14.502 -1.4442 -0.3353 -0.7723
10305SOL     OW42793   0.888   3.579   4.976  0.4210  0.3845  0.1380
10305SOL    HW142794   0.854   3.492   4.957  0.9731  0.6558 -2.1152
10305SOL    HW242795   0.983   3.570   4.969  0.4932  1.1073  0.1527
10306SOL     OW42796   0.721   4.491  18.024 -0.8404 -0.4841  0.6116
10306SOL    HW142797   0.783   4.518  17.957  1.8517 -0.4131  3.1127
10306SOL    HW242798   0.686   4.408  17.992  1.1494 -0.9295 -0.4137
10307SOL     OW42799   1.486   3.709   1.418  0.7377 -0.3050  0.3553
10307SOL    HW142800   1.408   3.765   1.420  0.2585 -0.9971  0.9465
10307SOL    HW242801   1.517   3.714   1.328 -0.8076 -1.1616 -0.2296
10308SOL     OW42802   0.303   1.145   6.555  0.2805 -0.5669  0.0184
10308SOL    HW142803   0.326   1.228   6.513  0.4314 -0.3308  0.5769
10308SOL    HW242804   0.336   1.153   6.644  2.8613 -2.3531 -0.7592
10309SOL     OW42805   0.218   0.895  17.304 -0.5173  0.5051  0.3873
10309SOL    HW142806   0.309   0.865  17.313 -0.0924  1.8429  0.6454
10309SOL    HW242807   0.214   0.973  17.359 -1.5936  0.9582 -0.3475
10310SOL     OW42808   2.617   1.501   3.747 -0.4462  0.5561  0.2893
10310SOL    HW142809   2.524   1.524   3.753 -0.6113 -0.0991  0.2343
10310SOL    HW242810   2.628   1.428   3.808 -0.0397  0.4136  0.0499
10311SOL     OW42811   2.250   1.978   0.328 -0.0226  0.2419 -0.3909
10311SOL    HW142812   2.234   1.989   0.422 -1.5321 -1.0446 -0.4878
10311SOL    HW242813   2.320   1.913   0.324  1.4352  1.7846 -0.1085
10312SOL     OW42814   3.003   4.202   5.530  0.0124  0.2970  0.0542
10312SOL    HW142815   2.968   4.121   5.566  0.8894 -0.0172  0.2025
10312SOL    HW242816   3.096   4.199   5.550 -0.1134  1.7691  0.8660
10313SOL     OW42817   2.770   0.130  15.577  0.5901 -0.2194 -0.6627
10313SOL    HW142818   2.853   0.125  15.624  0.5832 -0.8909 -0.7312
10313SOL    HW242819   2.738   0.040  15.574  0.8952 -0.2666 -2.5161
10314SOL     OW42820   3.099   2.760  11.130  0.2064  0.4351  0.2519
10314SOL    HW142821   3.163   2.746  11.201 -0.1167 -1.3245  0.2005
10314SOL    HW242822   3.136   2.712  11.056  0.4423  2.1140 -0.7130
10315SOL     OW42823   3.254   0.324  16.718  0.3717 -0.4748 -0.0327
10315SOL    HW142824   3.310   0.296  16.790 -1.7647 -1.7005  1.1391
10315SOL    HW242825   3.298   0.291  16.640  0.6295 -2.4891  0.9634
10316SOL     OW42826   2.438   1.012  16.125 -0.2281  0.0746 -0.0785
10316SOL    HW142827   2.364   1.047  16.076 -0.7402  0.0305  0.6572
10316SOL    HW242828   2.457   1.078  16.191 -0.2160 -0.3394  0.3343
10317SOL     OW42829   1.362   1.214   4.802  0.3722  0.9892  0.9309
10317SOL    HW142830   1.405   1.154   4.863 -0.2205 -0.4254 -0.0465
10317SOL    HW242831   1.273   1.181   4.793  0.9536  0.1784 -2.0183
10318SOL     OW42832   3.500   2.020   0.703 -0.0181 -0.0934  0.3985
10318SOL    HW142833   3.580   2.058   0.665  1.3241 -0.3079  3.0382
10318SOL    HW242834   3.445   2.002   0.627  2.5432 -0.1799 -1.4684
10319SOL     OW42835   1.798   3.540   4.255 -0.5778 -0.4839  0.6014
10319SOL    HW142836   1.720   3.488   4.238  0.4023 -1.9226  0.4714
10319SOL    HW242837   1.870   3.478   4.247  0.8193  1.4963 -2.3372
10320SOL     OW42838   3.646   3.472   9.928  0.0338 -0.3645 -0.3871
10320SOL    HW142839   3.629   3.429   9.844  1.1259  0.1318 -0.8621
10320SOL    HW242840   3.739   3.496   9.924  0.0214 -0.1194  0.8614
10321SOL     OW42841   3.516   3.616  20.395  0.0033  0.1391  0.3419
10321SOL    HW142842   3.525   3.536  20.448 -0.1388  0.3594  0.6968
10321SOL    HW242843   3.599   3.662  20.408  1.1472 -1.2629 -2.0115
10322SOL     OW42844   0.639   3.970  15.652  0.2604 -0.1864 -0.9105
10322SOL    HW142845   0.653   4.065  15.651 -1.5061  0.0840  0.4736
10322SOL    HW242846   0.572   3.954  15.586 -0.4111 -0.3261 -0.1908
10323SOL     OW42847   1.196   3.889   4.603 -0.3999  0.2071  0.2224
10323SOL    HW142848   1.225   3.816   4.658 -1.0997 -0.9631 -0.9796
10323SOL    HW242849   1.121   3.855   4.555 -0.7346  1.7244 -0.3301
10324SOL     OW42850   2.429   1.919  16.148  0.1577 -0.3387  0.0803
10324SOL    HW142851   2.428   1.824  16.137 -0.9079 -0.0648 -2.2046
10324SOL    HW242852   2.493   1.950  16.084  2.0213  0.3115  2.2412
10325SOL     OW42853   3.926   2.024   1.171 -0.1830 -0.2060  0.3191
10325SOL    HW142854   3.968   2.108   1.151  0.0618 -0.1093  1.2502
10325SOL    HW242855   3.833   2.039   1.153 -0.1155  0.2040  0.3023
10326SOL     OW42856   3.444   4.553   1.742  0.2227 -0.0407  0.4826
10326SOL    HW142857   3.465   4.494   1.815 -0.0457  0.1117  0.6836
10326SOL    HW242858   3.415   4.634   1.785  2.5587  0.9471  0.2165
10327SOL     OW42859   1.551   0.820  15.709  0.0591 -0.3777 -0.1308
10327SOL    HW142860   1.509   0.754  15.764  2.7086 -1.4748  0.6183
10327SOL    HW242861   1.630   0.844  15.759  0.9309  0.7495 -2.0808
10328SOL     OW42862   2.073   3.400  18.086  0.1366  0.4295  0.1777
10328SOL    HW142863   2.124   3.343  18.028  0.7796  1.1490  0.0392
10328SOL    HW242864   2.126   3.480  18.094 -0.9834  1.1953 -0.0077
10329SOL     OW42865   1.575   3.084   1.980 -0.4280 -0.1003 -0.5557
10329SOL    HW142866   1.508   3.025   2.013 -0.8068  0.5707 -0.1170
10329SOL    HW242867   1.532   3.169   1.976  1.1038  0.7976  2.0682
10330SOL     OW42868   4.389   2.489  17.721  0.5336  0.1568 -0.0329
10330SOL    HW142869   4.438   2.564  17.689  0.2716  0.1821 -0.3747
10330SOL    HW242870   4.298   2.519  17.725  0.3364 -0.3218 -0.7496
10331SOL     OW42871   3.185   3.818  13.244 -0.1700 -0.1285  0.1304
10331SOL    HW142872   3.257   3.878  13.224 -1.4934  0.0801 -3.9597
10331SOL    HW242873   3.106   3.868  13.224 -1.3665 -1.8221  0.6392
10332SOL     OW42874   3.411   1.835  18.716 -0.1762 -0.3843  0.1227
10332SOL    HW142875   3.490   1.863  18.762 -0.5330  1.7579 -0.5570
10332SOL    HW242876   3.340   1.885  18.756 -0.8067 -0.2285 -1.1776
10333SOL     OW42877   3.084   1.228   4.931  0.4040  0.7358 -0.2754
10333SOL    HW142878   3.162   1.282   4.939  0.2500  0.6242  2.0400
10333SOL    HW242879   3.013   1.284   4.964 -0.0440 -0.1604  0.2850
10334SOL     OW42880   0.636   0.032   9.494  0.0389 -0.1171  0.4649
10334SOL    HW142881   0.597   4.721   9.486  0.6149 -0.2159 -1.3041
10334SOL    HW242882   0.726   0.015   9.523 -0.0496 -0.0860  0.7539
10335SOL     OW42883   4.409   3.098  16.577 -0.4031  0.0501 -0.0548
10335SOL    HW142884   4.327   3.091  16.626 -0.1713 -3.2036 -0.1168
10335SOL    HW242885   4.476   3.068  16.638  0.3871 -0.1407 -1.0164
10336SOL     OW42886   0.974   1.827  16.913  0.0067 -0.2258  0.2068
10336SOL    HW142887   0.972   1.919  16.939  2.1997  0.1851 -1.0814
10336SOL    HW242888   0.980   1.779  16.995  0.2579  0.8214  0.8022
10337SOL     OW42889   0.734   3.275  16.470 -0.0204 -0.1716  0.6349
10337SOL    HW142890   0.807   3.260  16.410  0.6777 -0.7612  1.6389
10337SOL    HW242891   0.758   3.228  16.550 -0.4530  1.5344  1.7666
10338SOL     OW42892   4.263   1.610   1.892  0.1490  0.3715  0.1780
10338SOL    HW142893   4.222   1.610   1.979  0.4830  1.3381  0.3320
10338SOL    HW242894   4.322   1.535   1.893  0.6722  0.7979  1.0241
10339SOL     OW42895   0.560   3.944  12.356 -0.0117 -0.1927  0.3732
10339SOL    HW142896   0.599   4.002  12.290  1.7017 -1.3518  0.3752
10339SOL    HW242897   0.517   4.003  12.417  0.2610  1.0031 -0.5800
10340SOL     OW42898   1.594   1.502  19.136  0.1207  0.1143  0.8367
10340SOL    HW142899   1.649   1.438  19.091  1.2258 -0.0419  2.4014
10340SOL    HW242900   1.533   1.533  19.069  0.9455 -1.0372 -0.4455
10341SOL     OW42901   2.087   3.968  19.573  0.1037 -0.2004  0.7641
10341SOL    HW142902   2.007   3.998  19.531 -1.7322 -1.1545  3.6101
10341SOL    HW242903   2.100   4.028  19.647  0.3191 -2.0063  2.1832
10342SOL     OW42904   1.871   3.206  10.689 -0.9816  0.0140 -0.3690
10342SOL    HW142905   1.912   3.265  10.753  1.6434 -1.0941 -1.0004
10342SOL    HW242906   1.843   3.130  10.740 -1.4761  0.4000 -0.0681
10343SOL     OW42907   1.150   4.213  19.703  0.5432 -0.3811 -0.6811
10343SOL    HW142908   1.230   4.265  19.695  1.9294 -2.2479  1.2555
10343SOL    HW242909   1.114   4.237  19.789 -0.9089  0.3487 -1.4808
10344SOL     OW42910   4.738   1.477   2.385  0.6063  0.1507  0.6329
10344SOL    HW142911   4.727   1.570   2.366  0.3437 -0.2107 -1.0095
10344SOL    HW242912   4.662   1.454   2.437 -0.2964  0.4199 -0.5650
10345SOL     OW42913   4.033   2.863  20.445  0.1142  0.2537  0.1995
10345SOL    HW142914   3.958   2.922  20.452  0.1425  0.3658 -0.4588
10345SOL    HW242915   4.040   2.845  20.351  2.2168  1.9048  0.0414
10346SOL     OW42916   2.171   2.543  15.255  0.6830  0.8342 -0.3353
10346SOL    HW142917   2.099   2.569  15.313  1.0682 -3.2179  1.9514
10346SOL    HW242918   2.222   2.623  15.243 -2.0293  2.7944  1.1590
10347SOL     OW42919   3.340   1.359   4.939  0.1116 -0.7089  0.1818
10347SOL    HW142920   3.409   1.386   4.878 -1.5793  1.6769 -0.6939
10347SOL    HW242921   3.347   1.264   4.943  1.8303 -0.6765 -1.8350
10348SOL     OW42922   2.890   2.001  19.402 -0.7839  0.6621 -0.0930
10348SOL    HW142923   2.851   2.082  19.434 -0.3777  0.6859  0.3408
10348SOL    HW242924   2.963   2.029  19.347 -2.8568  0.6617 -2.8050
10349SOL     OW42925   1.013   1.435   1.612 -0.6217  0.1974 -0.3997
10349SOL    HW142926   0.963   1.400   1.538  1.2735 -0.5479 -1.3296
10349SOL    HW242927   1.008   1.530   1.601 -0.2325  0.0881 -1.5587
10350SOL     OW42928   1.827   2.360   1.417  0.1371 -0.0734  0.1777
10350SOL    HW142929   1.837   2.415   1.495 -0.8771 -0.0286  0.2758
10350SOL    HW242930   1.823   2.271   1.451  0.2765 -0.1010  0.1248
10351SOL     OW42931   2.593   4.764  17.567  0.3020  0.0154  0.1195
10351SOL    HW142932   2.612   0.074  17.529  0.2807  0.3612  0.8906
10351SOL    HW242933   2.678   4.720  17.572  0.7981  1.3380  3.0203
10352SOL     OW42934   3.611   3.460  20.881  0.2616  0.0041 -0.0061
10352SOL    HW142935   3.662   3.383  20.858  1.7549  0.1994  2.5492
10352SOL    HW242936   3.533   3.425  20.924 -0.5134 -0.2178 -1.6382
10353SOL     OW42937   3.177   0.917  15.741 -0.0867  0.3863  0.3071
10353SOL    HW142938   3.123   0.995  15.724 -1.7033 -0.8154 -0.0781
10353SOL    HW242939   3.235   0.910  15.666 -1.2688  0.0869 -0.5644
10354SOL     OW42940   4.216   2.862   1.070 -0.1744  0.0152  0.4477
10354SOL    HW142941   4.146   2.821   1.122  0.0031 -0.4502  0.3169
10354SOL    HW242942   4.295   2.814   1.094  0.2293  1.0205  1.1498
10355SOL     OW42943   0.454   3.022   4.229  0.0391  0.0231  0.4028
10355SOL    HW142944   0.487   3.103   4.190 -0.7832 -0.1006 -0.5634
10355SOL    HW242945   0.427   3.047   4.317  0.8706  0.5533  0.5018
10356SOL     OW42946   0.358   1.381   6.425  0.0648  0.1784 -0.2135
10356SOL    HW142947   0.303   1.458   6.411  0.7615  0.4152 -1.6442
10356SOL    HW242948   0.363   1.339   6.338 -1.2461 -2.0717  0.7963
10357SOL     OW42949   2.430   1.002  20.942 -0.4923  0.1064  0.5513
10357SOL    HW142950   2.469   1.073  20.994  0.2856  1.4026 -1.7904
10357SOL    HW242951   2.412   0.933  21.005  2.3996  0.8670  2.2060
10358SOL     OW42952   2.984   3.931  19.500  0.4969 -0.6969  0.0081
10358SOL    HW142953   3.071   3.972  19.503 -0.1045  0.7191 -2.1961
10358SOL    HW242954   2.949   3.956  19.415 -1.5842 -2.2974  0.4130
10359SOL     OW42955   1.410   3.232   3.845  0.2736 -0.1527 -0.7674
10359SOL    HW142956   1.349   3.158   3.840  0.7172 -0.7608  3.3914
10359SOL    HW242957   1.354   3.307   3.865  0.3996 -0.1011 -0.6095
10360SOL     OW42958   3.597   4.587  20.131  0.2187 -0.3340 -0.0845
10360SOL    HW142959   3.635   4.514  20.082  2.1302  0.9907 -0.6040
10360SOL    HW242960   3.560   4.644  20.063 -1.1636 -0.7701  0.3088
10361SOL     OW42961   3.760   1.703   2.593 -0.2466  0.0620 -0.4690
10361SOL    HW142962   3.770   1.635   2.525 -0.6640 -1.0053  0.5452
10361SOL    HW242963   3.751   1.785   2.543  0.1868 -0.6301 -1.6961
10362SOL     OW42964   1.558   1.665  18.344  0.1608 -0.0979  0.3951
10362SOL    HW142965   1.542   1.743  18.291  1.8888  0.8256  1.2225
10362SOL    HW242966   1.595   1.699  18.426 -0.4528 -1.6772  1.3183
10363SOL     OW42967   1.054   3.422  20.002 -0.2353  0.2490 -0.4427
10363SOL    HW142968   1.102   3.440  19.921  1.1667  0.6023  0.4533
10363SOL    HW242969   1.017   3.335  19.990  0.2823  0.1520 -1.3164
10364SOL     OW42970   4.413   3.111  19.987 -0.3541 -0.7405  0.9457
10364SOL    HW142971   4.358   3.038  19.958  0.9390 -1.8580  1.3360
10364SOL    HW242972   4.480   3.120  19.919 -1.9926  1.6851 -0.3575
10365SOL     OW42973   1.464   2.648   8.100 -0.3013  0.4428  0.2231
10365SOL    HW142974   1.392   2.587   8.081 -0.1069 -0.1697  1.4435
10365SOL    HW242975   1.533   2.593   8.137  1.1649  0.8946 -1.8670
10366SOL     OW42976   4.676   2.152  13.011 -0.1985 -0.5608 -0.4669
10366SOL    HW142977   4.606   2.143  13.076  0.8582 -2.3387  0.4061
10366SOL    HW242978   4.633   2.135  12.927 -1.1296 -0.2234 -0.0628
10367SOL     OW42979   0.408   3.252  16.140  0.0971 -0.5299  0.1783
10367SOL    HW142980   0.336   3.305  16.105  0.3136 -0.9152 -0.8345
10367SOL    HW242981   0.424   3.289  16.227  0.9242  1.7438 -0.9254
10368SOL     OW42982   0.820   4.024  19.409 -0.1800  0.1918  0.4367
10368SOL    HW142983   0.870   4.104  19.422 -2.4366  1.7229 -0.4210
10368SOL    HW242984   0.886   3.958  19.388  1.5740  2.0068  0.2345
10369SOL     OW42985   3.749   4.140   6.532  0.0925  0.0811  0.4260
10369SOL    HW142986   3.698   4.078   6.582  0.7036  0.0590  1.0289
10369SOL    HW242987   3.702   4.223   6.541 -0.1647 -0.0708  0.4707
10370SOL     OW42988   0.614   1.221  16.595  0.1604 -0.0075  0.2287
10370SOL    HW142989   0.580   1.242  16.682 -0.6566 -1.0106  0.1547
10370SOL    HW242990   0.678   1.151  16.611  0.1131 -0.0922  0.0422
10371SOL     OW42991   3.032   2.413  13.811  0.5632  0.0641 -0.3978
10371SOL    HW142992   2.982   2.333  13.792  0.1430  0.0164  0.9001
10371SOL    HW242993   3.060   2.444  13.725 -0.5930 -0.6313 -1.0403
10372SOL     OW42994   4.182   0.223   0.119 -0.0933 -0.1895  0.2718
10372SOL    HW142995   4.131   0.297   0.149 -0.4719 -0.3079 -0.0703
10372SOL    HW242996   4.200   0.242   0.026 -1.5209 -1.2666 -0.2199
10373SOL     OW42997   3.762   3.549  16.351 -0.0551  0.2848 -0.3189
10373SOL    HW142998   3.841   3.507  16.316 -0.0121  1.3849 -1.5483
10373SOL    HW242999   3.710   3.477  16.386  2.0787 -0.3014  1.6243
10374SOL     OW43000   1.559   4.284  15.937  0.0069  0.6565  0.0306
10374SOL    HW143001   1.552   4.245  15.850 -0.1804  0.4710  0.1284
10374SOL    HW243002   1.496   4.235  15.990 -0.1410  1.0121  0.1807
10375SOL     OW43003   0.011   2.608  13.004  0.1249 -0.0954 -0.4332
10375SOL    HW143004   4.750   2.644  12.924  0.0807 -2.1371 -1.3321
10375SOL    HW243005   0.080   2.669  13.029 -1.6733  1.9817 -0.5605
10376SOL     OW43006   3.124   4.196   2.011 -0.0073  0.2946  0.4066
10376SOL    HW143007   3.118   4.255   1.936  1.4707 -3.1153 -2.3931
10376SOL    HW243008   3.216   4.172   2.015 -0.6186 -1.8625  1.5553
10377SOL     OW43009   2.009   0.260  21.021 -0.2496  0.3421  0.0819
10377SOL    HW143010   1.945   0.321  20.984  1.0399  0.9277 -1.1711
10377SOL    HW243011   2.040   0.303  21.101 -0.6845  0.5124  0.1544
10378SOL     OW43012   4.268   0.600   4.618 -0.2723  0.7091 -0.1694
10378SOL    HW143013   4.212   0.523   4.613 -0.7157  1.0552 -0.5012
10378SOL    HW243014   4.237   0.657   4.548 -0.0036  1.2294  0.1321
10379SOL     OW43015   2.192   2.752   3.827 -0.6266  0.0037  0.4096
10379SOL    HW143016   2.148   2.777   3.746 -0.1837 -0.1333  0.1257
10379SOL    HW243017   2.269   2.703   3.798 -0.0896  0.5681  0.8942
10380SOL     OW43018   0.835   4.558  16.186 -0.1868 -0.1922 -0.2423
10380SOL    HW143019   0.843   4.569  16.091  0.3393  0.5275 -0.1143
10380SOL    HW243020   0.747   4.590  16.206 -0.1461  0.0474 -0.4345
10381SOL     OW43021   3.481   2.893   3.192  0.2984  0.4653 -0.2386
10381SOL    HW143022   3.576   2.899   3.207  0.1907  0.6338  0.3689
10381SOL    HW243023   3.469   2.808   3.151  0.8814  1.0013 -1.5386
10382SOL     OW43024   2.151   2.310  17.027 -0.3177  0.0690  0.4129
10382SOL    HW143025   2.141   2.403  17.049  0.4224  0.1901  0.2202
10382SOL    HW243026   2.062   2.281  17.005 -0.3859  0.9597 -0.4510
10383SOL     OW43027   0.998   1.430   3.749 -0.4613  0.0797  0.5806
10383SOL    HW143028   0.991   1.370   3.675 -0.7592  3.2316 -1.9936
10383SOL    HW243029   0.908   1.451   3.772 -0.3635 -0.6876  1.6172
10384SOL     OW43030   0.514   1.412   3.989 -0.0494 -0.0942  0.0659
10384SOL    HW143031   0.580   1.348   4.014 -0.0173 -0.2096 -0.3208
10384SOL    HW243032   0.432   1.375   4.022  0.0215 -0.1427  0.1911
10385SOL     OW43033   0.039   3.782   4.591 -0.1234  0.1688 -0.3555
10385SOL    HW143034   0.050   3.873   4.563 -0.3627  0.1456 -0.5287
10385SOL    HW243035   0.007   3.737   4.513  1.1154 -0.3078 -0.5864
10386SOL     OW43036   0.760   4.225  14.102 -0.1280  0.0716 -0.7544
10386SOL    HW143037   0.851   4.218  14.129 -0.6069  0.8116  1.0744
10386SOL    HW243038   0.710   4.184  14.173 -1.3501  1.6574 -0.6693
10387SOL     OW43039   3.577   1.457   6.024  0.3004  0.3442 -0.6963
10387SOL    HW143040   3.505   1.435   5.965 -1.5020  0.0915  1.5947
10387SOL    HW243041   3.579   1.553   6.024 -0.4033  0.3634 -0.3414
10388SOL     OW43042   4.666   4.179   0.261  0.4385  0.5360  0.0413
10388SOL    HW143043   4.611   4.107   0.230 -1.5080  1.1125  2.0958
10388SOL    HW243044   4.638   4.254   0.208 -1.5082  1.0621  1.7669
10389SOL     OW43045   1.124   3.403  19.339  0.7529  0.0063 -0.8104
10389SOL    HW143046   1.069   3.422  19.416  0.4232 -0.6665 -0.8770
10389SOL    HW243047   1.065   3.358  19.279  1.8325 -2.2705 -0.1726
10390SOL     OW43048   4.756   2.940  12.343 -0.0320  0.2513 -1.1462
10390SOL    HW143049   0.041   3.013  12.354 -0.2581  0.1988  0.5619
10390SOL    HW243050   4.697   2.968  12.273  0.7556  1.1116 -1.4661
10391SOL     OW43051   0.911   4.520   4.767 -0.2267 -0.2084 -0.0248
10391SOL    HW143052   0.882   4.441   4.813  1.8556 -1.7715 -1.4144
10391SOL    HW243053   0.891   4.503   4.675 -0.7689  1.3381 -0.1938
10392SOL     OW43054   2.693   4.537   4.012 -0.5404  0.0630  0.4463
10392SOL    HW143055   2.669   4.592   4.086 -1.5048 -2.0217  1.6711
10392SOL    HW243056   2.626   4.556   3.946 -0.1730  1.2714  0.4185
10393SOL     OW43057   3.737   2.313   5.965  0.0269 -0.0898  0.3057
10393SOL    HW143058   3.729   2.224   5.999  0.6514  0.2413  1.3238
10393SOL    HW243059   3.829   2.320   5.938 -0.0314  0.2259  0.1885
10394SOL     OW43060   1.944   1.033   0.665  0.3880  0.1712 -0.3330
10394SOL    HW143061   1.905   1.103   0.613 -1.4673 -1.8697 -1.6819
10394SOL    HW243062   1.982   0.973   0.601  2.7871  0.4133  0.8551
10395SOL     OW43063   3.529   1.440   2.583  0.4661  0.2280 -0.4490
10395SOL    HW143064   3.606   1.411   2.534  0.0054 -1.3769 -0.2252
10395SOL    HW243065   3.490   1.508   2.528  0.4548 -0.9298 -1.8872
10396SOL     OW43066   1.659   1.085   1.967 -0.3341 -0.0165 -0.0186
10396SOL    HW143067   1.580   1.126   1.933 -0.1588  0.2029 -0.1591
10396SOL    HW243068   1.704   1.154   2.015 -0.9046 -0.4928  1.2176
10397SOL     OW43069   3.019   0.454   2.034  0.5961  0.2555 -0.2286
10397SOL    HW143070   3.097   0.435   2.086  0.4516 -1.7368 -0.7537
10397SOL    HW243071   3.053   0.501   1.958  1.4892 -2.1407 -1.3178
10398SOL     OW43072   1.056   0.899  16.759 -0.2389 -0.6450  0.0461
10398SOL    HW143073   0.979   0.927  16.808  1.4257 -0.7916  2.7512
10398SOL    HW243074   1.070   0.969  16.696 -1.0537  0.6422  1.2805
10399SOL     OW43075   3.285   1.796  17.905  0.2487  0.5157 -0.0902
10399SOL    HW143076   3.321   1.755  17.984  0.3082  3.6585  1.5278
10399SOL    HW243077   3.360   1.838  17.863 -0.1145  0.4372 -0.8096
10400SOL     OW43078   3.746   0.354  13.957 -0.6641 -0.0864  0.5371
10400SOL    HW143079   3.670   0.409  13.938 -0.0344  0.4695 -0.3491
10400SOL    HW243080   3.759   0.303  13.877  0.9664  1.0666  0.0746
10401SOL     OW43081   2.726   0.191   2.131 -0.1812 -0.0484 -0.1495
10401SOL    HW143082   2.806   0.153   2.096  0.7361  0.1202  1.7887
10401SOL    HW243083   2.744   0.206   2.223 -2.3713  0.1611  0.2616
10402SOL     OW43084   4.305   0.724  17.469  0.1429  0.2937 -0.1815
10402SOL    HW143085   4.261   0.689  17.546  1.0174 -0.8671 -0.2236
10402SOL    HW243086   4.361   0.794  17.503  1.2611 -0.8594  0.3528
10403SOL     OW43087   2.983   4.695   4.570  1.1132 -0.2891  0.1769
10403SOL    HW143088   2.963   4.700   4.664  0.9921 -0.4096  0.1577
10403SOL    HW243089   3.011   4.604   4.557  0.3651 -0.4860 -0.0569
10404SOL     OW43090   2.278   2.658  16.679 -0.1907  0.3368 -0.1253
10404SOL    HW143091   2.185   2.653  16.699  0.1305 -0.1380  1.3053
10404SOL    HW243092   2.317   2.587  16.731  0.9932  0.6791 -0.5446
10405SOL     OW43093   2.892   2.219   3.385 -0.5341  0.0560 -0.7357
10405SOL    HW143094   2.833   2.287   3.352  0.2766  0.8433 -0.5676
10405SOL    HW243095   2.949   2.199   3.310  0.4311  0.8889 -0.2362
10406SOL     OW43096   1.938   1.956  21.143  0.0450 -0.0633 -0.5153
10406SOL    HW143097   1.878   2.018  21.184 -0.4562 -1.3505  0.7037
10406SOL    HW243098   1.882   1.900  21.090 -0.0150 -2.1591  1.7251
10407SOL     OW43099   3.114   1.189   2.769  0.1087  0.0193 -0.3325
10407SOL    HW143100   3.133   1.210   2.861 -0.7789  1.7687 -0.5341
10407SOL    HW243101   3.159   1.258   2.720 -1.8083  0.7579 -1.0693
10408SOL     OW43102   0.775   3.480  10.760 -0.0523 -0.0545 -0.4181
10408SOL    HW143103   0.840   3.549  10.749 -0.4219  0.4551  0.6459
10408SOL    HW243104   0.742   3.464  10.671  0.4911  0.6868 -0.7489
10409SOL     OW43105   0.925   0.669  14.831 -0.6561  0.3015 -0.2120
10409SOL    HW143106   0.918   0.704  14.742 -1.8698  1.3646  0.2943
10409SOL    HW243107   0.913   0.574  14.820  1.9702  0.1084 -1.5042
10410SOL     OW43108   1.007   0.082  11.198 -0.0331 -0.3785 -0.0469
10410SOL    HW143109   0.989   4.767  11.221 -0.7550  0.0759  1.2191
10410SOL    HW243110   1.038   0.122  11.279 -1.6870  1.0045 -0.0776
10411SOL     OW43111   2.540   0.378   7.861 -0.0040 -0.5308 -0.3028
10411SOL    HW143112   2.559   0.441   7.791  0.3985 -0.5504 -0.2127
10411SOL    HW243113   2.534   0.294   7.817  0.1834 -0.5329 -0.3270
10412SOL     OW43114   2.439   1.402   4.189  0.3252 -0.1605 -1.0664
10412SOL    HW143115   2.482   1.464   4.130  0.6033 -0.3143 -1.0261
10412SOL    HW243116   2.348   1.402   4.162 -0.1524  2.1322  0.5141
10413SOL     OW43117   2.501   1.820  11.374 -0.3710 -0.3565 -0.1020
10413SOL    HW143118   2.407   1.825  11.393  0.0153  0.7762  1.5150
10413SOL    HW243119   2.506   1.819  11.278 -2.0508 -0.9170 -0.1896
10414SOL     OW43120   2.645   3.637   4.570  0.3820  0.0778 -0.6452
10414SOL    HW143121   2.621   3.665   4.482  2.4900 -1.1573 -1.6083
10414SOL    HW243122   2.593   3.558   4.586 -1.8378  1.7087  0.1555
10415SOL     OW43123   3.619   3.290   0.135 -0.0435  0.7864  0.5163
10415SOL    HW143124   3.692   3.245   0.092 -0.4066  1.2762 -0.6226
10415SOL    HW243125   3.541   3.260   0.088 -0.5511  0.4193  1.5977
10416SOL     OW43126   2.368   1.759   2.495  0.3726 -0.1701 -0.0323
10416SOL    HW143127   2.420   1.799   2.425 -1.9628  1.0950 -1.0300
10416SOL    HW243128   2.293   1.818   2.506  0.1225 -0.9998  2.7107
10417SOL     OW43129   2.022   0.031  16.391  0.1568 -0.1431  0.1280
10417SOL    HW143130   1.952   0.077  16.439 -0.7108  0.4413 -1.7106
10417SOL    HW243131   1.992   0.029  16.300  3.0349  1.0615 -0.8531
10418SOL     OW43132   2.798   1.843  16.223  0.3874  0.1228  0.3732
10418SOL    HW143133   2.796   1.925  16.271 -3.7156  1.1441 -1.5505
10418SOL    HW243134   2.742   1.858  16.147  1.3824 -3.7300 -1.1295
10419SOL     OW43135   3.921   2.886   6.216 -0.2413 -0.5076  0.5666
10419SOL    HW143136   3.996   2.939   6.244 -0.4403  2.0505 -3.7677
10419SOL    HW243137   3.959   2.800   6.196  1.3281  0.3266 -0.1264
10420SOL     OW43138   3.417   1.022   5.280  0.0054 -0.0459 -0.2266
10420SOL    HW143139   3.474   1.099   5.283  0.9825 -0.6602 -2.7156
10420SOL    HW243140   3.456   0.966   5.213 -1.3527 -2.2017  0.7722
10421SOL     OW43141   3.875   4.197   1.577  0.0545 -0.1091 -0.2885
10421SOL    HW143142   3.932   4.258   1.622  0.0723 -0.6283  0.3777
10421SOL    HW243143   3.806   4.177   1.640  0.8455 -1.9165 -0.0036
10422SOL     OW43144   3.894   2.337  16.981  0.3059  0.4524  0.3523
10422SOL    HW143145   3.881   2.429  17.008  0.3172  0.5873 -0.1105
10422SOL    HW243146   3.972   2.309  17.029 -0.0495  0.5010  0.9634
10423SOL     OW43147   2.184   0.845   3.458  0.2970  0.0251  0.4044
10423SOL    HW143148   2.091   0.850   3.439  0.0542 -1.1319  1.2464
10423SOL    HW243149   2.195   0.758   3.497  2.1048 -0.7653 -1.8762
10424SOL     OW43150   2.731   4.279  16.091  0.7740 -0.2893 -0.1452
10424SOL    HW143151   2.757   4.229  16.013  0.6319 -1.2193  0.4011
10424SOL    HW243152   2.776   4.235  16.163  0.8153  0.5101  0.3092
10425SOL     OW43153   3.323   1.792  16.925  0.2214 -0.4957  0.4307
10425SOL    HW143154   3.394   1.801  16.989  1.0122 -0.0725 -0.5053
10425SOL    HW243155   3.243   1.808  16.976  0.8893  0.5408  1.1700
10426SOL     OW43156   4.258   2.803   5.115 -0.3168  0.7901  0.5221
10426SOL    HW143157   4.192   2.829   5.179 -0.1183  0.5627  0.8143
10426SOL    HW243158   4.275   2.710   5.133 -0.1779  0.7534  0.2165
10427SOL     OW43159   3.847   1.209   1.519 -0.5734  0.0129 -0.0042
10427SOL    HW143160   3.815   1.179   1.604 -0.1476  0.1039  0.1874
10427SOL    HW243161   3.809   1.147   1.456 -1.2187  0.1925  0.2092
10428SOL     OW43162   0.793   4.282   5.427  0.0386 -0.1014  0.2825
10428SOL    HW143163   0.706   4.300   5.392  0.2994 -1.4176 -1.0329
10428SOL    HW243164   0.844   4.252   5.352  1.5942  0.5555  1.0758
10429SOL     OW43165   2.108   4.499  19.587 -0.7130  0.2147  0.5974
10429SOL    HW143166   2.188   4.481  19.538 -2.7233 -0.6800 -2.4139
10429SOL    HW243167   2.109   4.594  19.601 -1.0273  0.7276 -2.8215
10430SOL     OW43168   1.841   0.070  19.163  0.3331  0.3485 -0.3303
10430SOL    HW143169   1.779   0.037  19.097  1.5021 -1.4889 -0.5109
10430SOL    HW243170   1.831   0.010  19.237  0.4338  1.2564  0.4227
10431SOL     OW43171   0.683   2.634   1.574 -0.6332 -0.9508  0.2822
10431SOL    HW143172   0.713   2.721   1.549  0.8166 -0.8690  2.2433
10431SOL    HW243173   0.686   2.583   1.494 -3.6805  1.4341 -1.3364
10432SOL     OW43174   2.360   0.169   8.385 -0.1887 -0.3116  0.4951
10432SOL    HW143175   2.401   0.252   8.362 -1.0829  0.1325  0.4911
10432SOL    HW243176   2.347   0.125   8.301 -2.3359  0.7836  0.2501
10433SOL     OW43177   1.417   1.596   1.329  0.4714  0.2924 -0.0678
10433SOL    HW143178   1.441   1.503   1.323  2.1360  0.6676  1.0300
10433SOL    HW243179   1.375   1.615   1.245 -1.4737 -1.9198  0.3839
10434SOL     OW43180   1.625   3.678  16.204  0.2568 -1.0355 -0.8212
10434SOL    HW143181   1.631   3.617  16.278 -1.0641 -0.0310  0.1052
10434SOL    HW243182   1.712   3.673  16.162  1.2207 -1.0595  1.1927
10435SOL     OW43183   3.944   0.843  17.832 -0.1135 -0.3400  0.4183
10435SOL    HW143184   3.925   0.887  17.749  1.0041 -3.2226 -1.3481
10435SOL    HW243185   3.868   0.862  17.887 -0.2064  2.7541 -0.7972
10436SOL     OW43186   0.064   1.815  18.611 -0.4638 -0.0808  0.0542
10436SOL    HW143187   4.745   1.822  18.615 -0.3211  0.8632  1.5877
10436SOL    HW243188   0.087   1.763  18.688  0.2801 -0.2478 -0.2799
10437SOL     OW43189   2.915   2.101  12.778  0.3079  0.2187  0.7900
10437SOL    HW143190   2.844   2.103  12.715  1.4993  2.4655 -0.4706
10437SOL    HW243191   2.960   2.185  12.767  1.9936 -0.4028  2.8884
10438SOL     OW43192   0.515   0.251   4.772 -0.1853  0.5899  0.1843
10438SOL    HW143193   0.450   0.303   4.724 -0.0480  0.0225 -0.6148
10438SOL    HW243194   0.560   0.201   4.704 -0.7200 -1.0237  1.0139
10439SOL     OW43195   4.284   3.526  14.037  0.1683 -0.4892 -0.2168
10439SOL    HW143196   4.320   3.581  13.968 -1.0383  0.9727  0.3293
10439SOL    HW243197   4.313   3.566  14.119 -0.7398 -0.6311  0.1799
10440SOL     OW43198   0.834   0.356  19.573  0.1540  0.3595  0.3131
10440SOL    HW143199   0.891   0.362  19.650 -1.1125  0.5152  1.2421
10440SOL    HW243200   0.884   0.303  19.511 -0.9260 -4.0234  3.1680
10441SOL     OW43201   2.487   2.409  18.603 -0.2098 -0.2959 -0.4324
10441SOL    HW143202   2.532   2.452  18.529 -0.2297  1.3620  0.5174
10441SOL    HW243203   2.541   2.432  18.679 -0.2777 -1.8871  0.0787
10442SOL     OW43204   0.216   0.145  15.851  1.0736 -0.3214 -0.2393
10442SOL    HW143205   0.181   0.234  15.855 -0.8317 -1.0587 -0.8401
10442SOL    HW243206   0.257   0.132  15.937 -0.8436  0.2138  0.7526
10443SOL     OW43207   0.448   4.439  17.471  0.1747  0.8413  1.0045
10443SOL    HW143208   0.536   4.415  17.498  0.9038  2.0650 -0.2714
10443SOL    HW243209   0.461   4.494  17.394 -1.7098  0.8651  0.7029
10444SOL     OW43210   2.173   0.614  16.638 -0.3666 -0.5040 -0.2715
10444SOL    HW143211   2.146   0.543  16.579 -1.3399 -1.6426  1.5339
10444SOL    HW243212   2.263   0.633  16.612 -0.3524 -1.8729 -1.2841
10445SOL     OW43213   0.258   0.730   6.261 -0.0511  0.2508 -0.1373
10445SOL    HW143214   0.325   0.685   6.312  2.5785  0.2992 -3.5254
10445SOL    HW243215   0.251   0.817   6.301  1.7102  0.1436  0.3880
10446SOL     OW43216   4.300   4.156   5.040  0.0461  0.0566 -0.2241
10446SOL    HW143217   4.327   4.136   4.951 -0.5154 -3.2646  0.3632
10446SOL    HW243218   4.213   4.117   5.048  0.3247 -0.0872  1.9675
10447SOL     OW43219   4.729   1.779   3.312  0.2771  0.1738  0.1064
10447SOL    HW143220   4.658   1.823   3.264 -0.3109 -0.4790  0.3721
10447SOL    HW243221   4.696   1.690   3.326  0.3838  0.4356  1.9167
10448SOL     OW43222   2.462   3.518   9.319 -0.1392  0.0752 -0.3448
10448SOL    HW143223   2.497   3.574   9.389 -0.4870 -1.2945  0.9398
10448SOL    HW243224   2.371   3.503   9.345 -0.5708  0.4308 -1.6562
10449SOL     OW43225   1.675   2.258   3.135  0.3075 -0.1532 -0.1599
10449SOL    HW143226   1.703   2.221   3.051 -0.4384 -1.4991  0.1921
10449SOL    HW243227   1.755   2.269   3.185  0.6404 -0.3167 -0.6571
10450SOL     OW43228   3.995   0.124   4.882 -0.3230 -0.2480  0.8663
10450SOL    HW143229   3.993   0.140   4.976  1.7487 -1.8534  1.1938
10450SOL    HW243230   4.029   0.205   4.844 -0.5211  0.1584  1.5619
10451SOL     OW43231   3.039   3.344   3.115 -0.0234  0.1077 -0.0781
10451SOL    HW143232   3.057   3.306   3.202  0.1299 -1.7955 -0.9505
10451SOL    HW243233   3.123   3.339   3.069 -0.0633  1.2885 -0.2758
10452SOL     OW43234   1.554   3.680  18.609  0.3278  0.0912  0.3077
10452SOL    HW143235   1.506   3.728  18.677  1.9037  0.5522  1.0927
10452SOL    HW243236   1.486   3.629  18.564 -0.5741 -1.0007  2.8773
10453SOL     OW43237   0.213   2.006   4.314  0.0227  0.0850  0.2170
10453SOL    HW143238   0.236   2.017   4.222  0.5376 -0.8211  0.2362
10453SOL    HW243239   0.162   2.084   4.336  0.2041  0.4674 -0.7385
10454SOL     OW43240   3.791   4.578   2.060 -0.6542 -0.3103  0.1239
10454SOL    HW143241   3.807   4.592   2.154 -0.9005 -0.1048  0.1375
10454SOL    HW243242   3.833   4.495   2.041  1.5871  0.8772 -0.1436
10455SOL     OW43243   2.295   3.600  13.737 -0.1368  0.6914  0.5056
10455SOL    HW143244   2.329   3.684  13.768  0.6191  0.9483 -1.0207
10455SOL    HW243245   2.260   3.618  13.650 -2.4630  0.0100  1.2879
10456SOL     OW43246   0.993   1.168  21.097  0.0350 -0.5436 -0.2732
10456SOL    HW143247   0.920   1.229  21.088  1.0109  1.1444  3.0606
10456SOL    HW243248   0.952   1.087  21.128 -0.6134  0.0100  0.3393
10457SOL     OW43249   3.236   3.970  16.741  0.2998 -0.1244 -0.1618
10457SOL    HW143250   3.296   3.981  16.667 -1.8951 -0.1566 -1.9640
10457SOL    HW243251   3.188   4.053  16.745 -0.2254 -0.4632  0.6501
10458SOL     OW43252   1.470   3.546  16.627  0.0914 -0.8219 -0.0275
10458SOL    HW143253   1.395   3.604  16.640  0.3257 -0.3697 -0.6723
10458SOL    HW243254   1.540   3.586  16.679  0.5176 -0.0080 -1.2201
10459SOL     OW43255   1.316   4.231   9.996 -0.5091 -0.0506  0.3901
10459SOL    HW143256   1.221   4.242  10.000 -0.3613  0.7769  1.3302
10459SOL    HW243257   1.328   4.136   9.989 -1.3912 -0.1806  0.6125
10460SOL     OW43258   1.810   2.523  20.286  0.5687 -0.4754 -0.4325
10460SOL    HW143259   1.859   2.604  20.299  1.0640 -0.9626  0.6990
10460SOL    HW243260   1.874   2.454  20.303  0.0274 -1.0992 -0.9650
10461SOL     OW43261   2.909   2.604   3.219  0.0017  0.2329 -0.4653
10461SOL    HW143262   2.921   2.699   3.218  0.2305  0.2126  1.5274
10461SOL    HW243263   2.984   2.570   3.268 -0.3461 -0.9470 -0.7371
10462SOL     OW43264   1.504   2.234  19.341 -0.1364 -0.4106 -0.3759
10462SOL    HW143265   1.420   2.193  19.360 -1.0800  1.5648 -0.2654
10462SOL    HW243266   1.527   2.281  19.421  0.9345 -0.7106 -0.5056
10463SOL     OW43267   1.999   1.955   1.352 -0.2271  0.9445 -0.5012
10463SOL    HW143268   2.073   2.017   1.355  0.7602 -0.2512 -0.0221
10463SOL    HW243269   2.037   1.872   1.382 -1.2286 -0.2185 -2.5314
10464SOL     OW43270   3.701   2.899   5.271  0.2563 -0.1541 -0.1658
10464SOL    HW143271   3.783   2.908   5.319  1.1550  1.5798 -1.9917
10464SOL    HW243272   3.725   2.914   5.179 -1.9629 -0.3363 -0.7887
10465SOL     OW43273   4.714   1.031   5.393  0.1577  0.2391  0.4702
10465SOL    HW143274   4.645   0.995   5.337 -0.3443  1.0209  0.5862
10465SOL    HW243275   4.770   0.957   5.412 -1.3687 -0.6584  1.4428
10466SOL     OW43276   3.980   2.123   0.393  0.1024  0.3651  0.0943
10466SOL    HW143277   4.008   2.105   0.483  0.0625 -0.0350  0.0240
10466SOL    HW243278   4.031   2.064   0.339 -0.9657 -0.4583 -0.0247
10467SOL     OW43279   0.981   0.053  17.826  0.2590 -0.2239  0.0168
10467SOL    HW143280   1.025   0.043  17.742  0.3842 -0.7999  0.1458
10467SOL    HW243281   1.053   0.053  17.890  0.3122  2.3912 -0.0466
10468SOL     OW43282   3.376   4.072  14.962 -0.0038  0.1201 -0.1317
10468SOL    HW143283   3.327   4.153  14.974  0.5102  0.4980 -0.5624
10468SOL    HW243284   3.332   4.028  14.889  0.2654  0.4365 -0.4875
10469SOL     OW43285   2.073   2.438   7.292  0.8533  0.0400 -0.8272
10469SOL    HW143286   2.075   2.534   7.294 -1.4536  0.0317  1.1555
10469SOL    HW243287   2.009   2.416   7.224 -0.5402 -0.1137  0.5419
10470SOL     OW43288   2.885   4.116   2.122 -0.4095 -0.1972  0.3780
10470SOL    HW143289   2.897   4.081   2.210  0.2409 -0.4264  0.1932
10470SOL    HW243290   2.973   4.140   2.094 -0.8765  1.6704  0.5459
10471SOL     OW43291   1.340   1.871  19.234 -0.0489  0.4974  0.1819
10471SOL    HW143292   1.265   1.826  19.196  1.1742 -2.1936  1.0030
10471SOL    HW243293   1.328   1.865  19.328  0.9426  0.5124  0.3159
10472SOL     OW43294   2.088   0.757   2.856 -0.0523 -0.1549 -0.1184
10472SOL    HW143295   2.044   0.786   2.776 -0.6537  1.3877  0.7827
10472SOL    HW243296   2.017   0.727   2.913  0.2381  0.4173  0.5396
10473SOL     OW43297   3.968   3.258   4.912 -0.3516 -0.4812  0.3306
10473SOL    HW143298   4.026   3.264   4.837 -0.2851 -3.5139  0.1122
10473SOL    HW243299   4.011   3.308   4.981  1.7691 -1.4740 -0.2897
10474SOL     OW43300   0.580   0.127   8.249  0.3452  0.2344  0.7551
10474SOL    HW143301   0.623   0.041   8.248  0.4045  0.2728 -0.6320
10474SOL    HW243302   0.572   0.149   8.342 -0.5620 -1.7252  1.1383
10475SOL     OW43303   0.559   1.066   4.807 -0.2613  0.6032  0.0828
10475SOL    HW143304   0.560   1.068   4.711  0.2837  1.8357  0.1118
10475SOL    HW243305   0.593   1.151   4.833  1.0414 -0.3119  1.3786
10476SOL     OW43306   4.362   1.909   2.413 -0.3846  0.5811 -0.0683
10476SOL    HW143307   4.332   1.867   2.332  0.7556 -0.1007 -0.1480
10476SOL    HW243308   4.326   1.997   2.410 -1.7165  0.0117 -0.5347
10477SOL     OW43309   4.675   1.761  12.517  0.0439 -0.0174  0.2729
10477SOL    HW143310   4.684   1.852  12.491  0.7197 -0.3503 -0.6565
10477SOL    HW243311   4.653   1.764  12.610  1.1451  1.0617  0.4967
10478SOL     OW43312   0.076   0.091   8.766 -0.2647 -0.3464  0.4277
10478SOL    HW143313   0.147   0.043   8.810 -0.6430 -0.6062  0.7560
10478SOL    HW243314   4.773   0.069   8.816 -0.5870 -0.0924  0.0352
10479SOL     OW43315   1.622   2.149   4.001  0.6918  0.4160  0.0907
10479SOL    HW143316   1.527   2.154   4.003  0.7267  0.8721  0.3267
10479SOL    HW243317   1.651   2.198   4.077  1.0632 -0.9364  0.8117
10480SOL     OW43318   0.766   1.478   0.923  0.0154  0.3573  0.3965
10480SOL    HW143319   0.845   1.463   0.975  0.3473  1.8662  0.3211
10480SOL    HW243320   0.792   1.541   0.856 -0.8548 -0.2948 -0.5603
10481SOL     OW43321   3.750   2.852  16.606 -0.0581 -0.0211  0.3475
10481SOL    HW143322   3.819   2.797  16.641 -0.6242 -1.5079 -0.8800
10481SOL    HW243323   3.747   2.927  16.665  2.2566 -0.2000  0.6778
10482SOL     OW43324   4.542   3.633   4.203 -0.0322 -0.7762  0.5806
10482SOL    HW143325   4.492   3.634   4.121 -0.8998 -0.5462  1.1182
10482SOL    HW243326   4.518   3.550   4.244  0.5754 -0.9932  0.4903
10483SOL     OW43327   3.547   2.909  20.355  0.1538 -0.4751  0.7193
10483SOL    HW143328   3.537   2.819  20.386 -0.7525 -0.7360 -0.3270
10483SOL    HW243329   3.637   2.914  20.323  0.3376 -0.8885  1.1767
10484SOL     OW43330   3.493   1.560  18.299 -0.1965  0.9853  0.4670
10484SOL    HW143331   3.490   1.639  18.352 -1.4353  1.8753 -0.9187
10484SOL    HW243332   3.450   1.494  18.353  1.1935  1.1753  1.7810
10485SOL     OW43333   4.005   0.317  10.266  0.0305 -0.1732  0.7275
10485SOL    HW143334   4.058   0.391  10.239  1.8695 -0.6483  3.0007
10485SOL    HW243335   3.915   0.350  10.266  0.7439  1.7433  0.6527
10486SOL     OW43336   1.280   0.148  16.614  0.2628 -0.0933 -0.0512
10486SOL    HW143337   1.326   0.097  16.680  0.5970 -0.9613 -0.9420
10486SOL    HW243338   1.261   0.085  16.544  1.1370  1.1055 -1.3779
10487SOL     OW43339   3.905   4.342  20.678  0.1678 -0.1079  0.3046
10487SOL    HW143340   3.923   4.431  20.707 -1.6245  0.8656 -1.4903
10487SOL    HW243341   3.831   4.314  20.732  0.5614 -0.4079  0.6868
10488SOL     OW43342   0.651   2.885  19.627 -0.7846  0.3255 -0.5003
10488SOL    HW143343   0.656   2.796  19.592 -0.0836  0.3217 -0.4008
10488SOL    HW243344   0.688   2.878  19.715  1.1644  1.1130 -1.2483
10489SOL     OW43345   2.106   4.342   4.940 -0.3870 -0.0755  0.5697
10489SOL    HW143346   2.100   4.301   4.854  0.1522  0.6041  0.2048
10489SOL    HW243347   2.069   4.430   4.927 -1.2262 -0.3197  1.2618
10490SOL     OW43348   2.189   3.512   2.611 -0.4346 -0.1327 -0.6269
10490SOL    HW143349   2.210   3.604   2.625 -1.5076 -0.3528  2.3655
10490SOL    HW243350   2.104   3.513   2.567 -0.2706  0.3269 -0.9253
10491SOL     OW43351   3.020   0.921  12.930 -0.1782 -0.0010 -0.4028
10491SOL    HW143352   2.988   0.928  13.020 -2.3426  3.2793 -1.4246
10491SOL    HW243353   2.948   0.879  12.882 -0.1825  0.9184 -1.2061
10492SOL     OW43354   4.242   0.755  16.044  0.1847  0.5709  0.3019
10492SOL    HW143355   4.232   0.726  16.134 -1.0568 -0.3331 -0.1295
10492SOL    HW243356   4.179   0.702  15.994  2.5177 -0.5542 -1.4382
10493SOL     OW43357   2.009   2.492  14.230  0.1412  0.0964 -0.3957
10493SOL    HW143358   2.000   2.573  14.180  0.4409  0.5305  0.2544
10493SOL    HW243359   1.946   2.501  14.301 -1.2004 -1.0751 -1.4251
10494SOL     OW43360   4.655   4.045   2.287 -0.2007  0.4669  0.3932
10494SOL    HW143361   4.678   4.095   2.209 -1.0224  0.6429  0.2632
10494SOL    HW243362   4.731   4.054   2.345 -0.2202  1.5883  0.2318
10495SOL     OW43363   3.445   3.762   4.129  0.7366 -0.1911 -0.0356
10495SOL    HW143364   3.352   3.780   4.143  0.9455  1.3001 -0.6319
10495SOL    HW243365   3.490   3.811   4.198  1.2508  1.0570 -1.2533
10496SOL     OW43366   4.206   1.069  12.102  0.4641 -0.2802  1.0535
10496SOL    HW143367   4.256   1.118  12.037 -1.4926  0.1054 -0.1553
10496SOL    HW243368   4.133   1.032  12.053  0.0146 -1.5172  2.6676
10497SOL     OW43369   3.081   2.980   5.295 -0.4677  0.8051 -0.5996
10497SOL    HW143370   3.056   3.014   5.382 -1.2950  1.8411 -1.2335
10497SOL    HW243371   3.028   2.901   5.285  0.7524 -0.1530  0.4795
10498SOL     OW43372   2.682   3.080   3.992  0.0270 -0.2870  0.5304
10498SOL    HW143373   2.746   3.140   3.953 -0.0027  0.5920  1.8352
10498SOL    HW243374   2.620   3.137   4.037 -0.5474 -1.2521  0.9697
10499SOL     OW43375   0.406   0.817  20.135 -0.4429 -0.3733  0.2366
10499SOL    HW143376   0.391   0.743  20.076 -0.6541 -1.3563  1.4975
10499SOL    HW243377   0.476   0.867  20.094 -0.9321 -0.7836 -1.0927
10500SOL     OW43378   1.179   0.208   6.649  0.2472  0.3108  0.1863
10500SOL    HW143379   1.238   0.206   6.573 -0.3906  1.1420 -0.3335
10500SOL    HW243380   1.238   0.205   6.725  0.9317  0.4893 -0.3346
10501SOL     OW43381   1.171   3.846   0.940 -0.1233  0.1850 -0.1334
10501SOL    HW143382   1.266   3.840   0.943 -0.0295  1.6629 -0.4637
10501SOL    HW243383   1.151   3.939   0.946 -1.4774  0.0272 -1.8043
10502SOL     OW43384   4.246   0.983  12.667 -0.6295  0.3822  0.9335
10502SOL    HW143385   4.274   1.008  12.579  0.2987  0.9800  1.3909
10502SOL    HW243386   4.326   0.990  12.720 -1.0057 -0.7565  1.6550
10503SOL     OW43387   3.733   3.145  11.916 -0.3406  0.3616  0.2463
10503SOL    HW143388   3.657   3.123  11.970  0.3679 -0.3641  0.9307
10503SOL    HW243389   3.793   3.189  11.976 -0.3112  1.1456 -0.3541
10504SOL     OW43390   3.948   3.664  21.171 -0.2210 -0.3613  0.9456
10504SOL    HW143391   4.032   3.620  21.176 -0.6387 -1.0154  2.1954
10504SOL    HW243392   3.940   3.710   0.058 -0.8089  0.2260  0.5648
10505SOL     OW43393   3.174   4.293  15.262 -0.1727 -0.7757  0.4798
10505SOL    HW143394   3.197   4.384  15.244 -1.4617 -0.5616 -0.1059
10505SOL    HW243395   3.254   4.244  15.246 -0.4716 -0.1847 -2.7968
10506SOL     OW43396   2.263   1.401  13.952 -0.1284  0.3505 -0.8807
10506SOL    HW143397   2.313   1.392  13.870  1.7983 -2.8673  0.6400
10506SOL    HW243398   2.283   1.490  13.982  0.6953  0.8540 -2.8795
10507SOL     OW43399   0.230   0.915   0.242 -0.9952 -0.6588 -0.2551
10507SOL    HW143400   0.203   0.929   0.333  1.4842 -0.7422  0.4941
10507SOL    HW243401   0.246   1.002   0.208  0.2724 -0.7605  0.0693
10508SOL     OW43402   4.032   3.200  16.426  0.1797  0.5502 -0.2565
10508SOL    HW143403   4.101   3.134  16.418  0.9352  1.4385 -1.0773
10508SOL    HW243404   4.045   3.238  16.513  0.6182  0.6049 -0.3489
10509SOL     OW43405   0.849   3.006   2.017 -0.1424  0.0218  0.3684
10509SOL    HW143406   0.783   3.035   2.080  0.6083 -0.7323  1.5100
10509SOL    HW243407   0.929   2.996   2.069  0.3790 -0.9968 -0.6275
10510SOL     OW43408   3.748   2.738  20.051  0.5273 -0.0246  0.9370
10510SOL    HW143409   3.668   2.784  20.026 -0.0941 -0.6204  1.8167
10510SOL    HW243410   3.761   2.672  19.983  2.5386  2.8088 -1.4116
10511SOL     OW43411   2.000   3.531   3.704 -0.0788 -0.5323  0.2888
10511SOL    HW143412   2.022   3.482   3.783  1.5588 -0.3413 -0.0554
10511SOL    HW243413   1.971   3.463   3.642 -2.5630 -0.5552  1.4533
10512SOL     OW43414   3.403   3.285  11.004 -0.5994  0.1525 -0.1417
10512SOL    HW143415   3.479   3.342  11.014 -0.7777  0.3635  0.0075
10512SOL    HW243416   3.426   3.206  11.053 -0.4856  0.2249 -0.0782
10513SOL     OW43417   1.728   0.225  15.829 -0.6288  0.6175  0.4465
10513SOL    HW143418   1.658   0.179  15.782 -0.9605  2.2591 -0.6744
10513SOL    HW243419   1.746   0.170  15.904 -0.7786 -1.5384 -1.0941
10514SOL     OW43420   0.966   3.994  13.099  0.4716 -0.2224 -0.3799
10514SOL    HW143421   1.034   3.942  13.142 -1.3122 -1.1800  1.2694
10514SOL    HW243422   0.921   3.932  13.042  0.2145  0.1536 -0.5843
10515SOL     OW43423   1.549   4.054  21.115 -0.0717 -0.1296  0.1068
10515SOL    HW143424   1.637   4.086  21.096 -0.3191  1.2958  1.3694
10515SOL    HW243425   1.493   4.098  21.050  0.3951 -2.4442 -1.8831
10516SOL     OW43426   3.159   2.030  15.922  0.0160 -0.1293 -0.1047
10516SOL    HW143427   3.144   2.121  15.945 -0.6487 -0.0275 -0.9309
10516SOL    HW243428   3.149   1.982  16.004 -2.4384  0.2108 -0.2183
10517SOL     OW43429   4.442   1.318  10.935  0.6153 -0.3283 -0.2554
10517SOL    HW143430   4.436   1.401  10.887  0.1646  0.2982  0.8709
10517SOL    HW243431   4.433   1.251  10.868  0.3534  0.5408 -1.0983
10518SOL     OW43432   2.138   4.515   0.849 -0.2805  0.3233  0.1622
10518SOL    HW143433   2.115   4.422   0.852  0.2515  0.1752 -0.4714
10518SOL    HW243434   2.079   4.555   0.913 -2.5586  0.0019 -1.7227
10519SOL     OW43435   0.942   2.770  18.711  0.0565 -0.3537 -0.1881
10519SOL    HW143436   0.862   2.819  18.697 -1.4279 -2.8545 -0.4731
10519SOL    HW243437   0.929   2.688  18.664  1.2301 -2.3737  2.9516
10520SOL     OW43438   1.081   4.137   6.309  0.3732 -0.0544 -0.3522
10520SOL    HW143439   1.126   4.115   6.228  0.0413 -0.2865 -0.4772
10520SOL    HW243440   0.988   4.124   6.289  0.2590  0.3011 -0.0635
10521SOL     OW43441   0.197   0.821   6.020 -0.0861  0.5558  0.0857
10521SOL    HW143442   0.198   0.742   5.966 -1.3527  0.6687 -0.1257
10521SOL    HW243443   0.236   0.796   6.103  2.4529  0.5369 -1.1340
10522SOL     OW43444   4.259   1.590  19.229  0.3347  0.4335  1.1571
10522SOL    HW143445   4.320   1.520  19.206 -2.8227 -1.3155 -1.8326
10522SOL    HW243446   4.210   1.556  19.304  0.4135  0.3439  1.1677
10523SOL     OW43447   0.204   1.871   5.994  0.4134  0.0712 -0.1320
10523SOL    HW143448   0.241   1.900   5.910  0.0203  0.9681  0.0065
10523SOL    HW243449   0.234   1.936   6.057 -1.5945  0.9137 -0.0659
10524SOL     OW43450   4.184   0.591  15.658  0.0965 -0.4751 -0.1751
10524SOL    HW143451   4.272   0.566  15.688  0.9709  2.4919 -0.2016
10524SOL    HW243452   4.141   0.626  15.736 -0.5121 -0.4965 -0.5025
10525SOL     OW43453   1.974   4.455  17.185 -0.0653 -0.5705  0.4233
10525SOL    HW143454   1.973   4.430  17.092 -0.9644 -2.1994  0.8674
10525SOL    HW243455   2.000   4.375  17.231  0.8034  0.3608  1.5409
10526SOL     OW43456   1.878   1.336  14.802 -0.1161  0.1886 -0.2334
10526SOL    HW143457   1.859   1.294  14.886  2.8526 -1.7678 -0.5124
10526SOL    HW243458   1.964   1.376  14.814 -0.0570  0.6277 -2.0769
10527SOL     OW43459   3.825   1.504   4.962  0.2383  0.6475  0.4285
10527SOL    HW143460   3.874   1.583   4.985  0.2383  0.0541  2.5204
10527SOL    HW243461   3.738   1.518   5.000 -0.5932  0.8523 -1.5835
10528SOL     OW43462   0.114   0.334   3.148 -0.1450 -0.2367 -0.4416
10528SOL    HW143463   0.049   0.292   3.091 -1.1110 -0.0078  0.4968
10528SOL    HW243464   0.166   0.388   3.089 -0.5758 -0.7058 -1.2517
10529SOL     OW43465   3.987   2.640  20.617 -0.9105  0.1089 -0.7519
10529SOL    HW143466   4.069   2.653  20.664 -1.3102 -0.8691  0.2228
10529SOL    HW243467   3.983   2.713  20.555  0.5322  0.3345 -0.5766
10530SOL     OW43468   3.670   1.543  17.508  0.1221 -0.1349 -0.2707
10530SOL    HW143469   3.673   1.602  17.583  2.0993  0.8494 -1.1130
10530SOL    HW243470   3.761   1.515  17.496  0.3039  2.0107 -4.1101
10531SOL     OW43471   1.560   1.302  16.016 -0.2699  0.8607  0.4735
10531SOL    HW143472   1.554   1.298  15.921 -1.4092  0.3450  0.5669
10531SOL    HW243473   1.649   1.334  16.033  0.1197  0.4372 -0.7423
10532SOL     OW43474   2.190   2.269  13.412 -0.0846 -0.4719 -0.2772
10532SOL    HW143475   2.131   2.201  13.444  1.0756 -1.9591 -1.2808
10532SOL    HW243476   2.137   2.348  13.409 -1.5556 -1.4366  0.4695
10533SOL     OW43477   2.899   4.525  18.721 -0.1005  0.0513  0.0607
10533SOL    HW143478   2.863   4.534  18.633 -0.9780 -0.7903  0.3260
10533SOL    HW243479   2.993   4.542  18.711 -0.8590  3.9416 -0.3529
10534SOL     OW43480   3.565   4.026   6.740 -0.5105 -0.7681  0.3153
10534SOL    HW143481   3.538   4.118   6.739 -0.5637 -0.7942 -0.3437
10534SOL    HW243482   3.501   3.984   6.798  0.3576 -0.1270  1.7322
10535SOL     OW43483   2.032   1.277  19.473  0.0804 -0.1855 -0.0385
10535SOL    HW143484   2.105   1.215  19.486 -1.6433 -1.8724  1.6273
10535SOL    HW243485   1.955   1.229  19.502 -1.6031  1.8901 -1.1183
10536SOL     OW43486   1.447   4.454   5.215 -0.3328 -0.1754  0.2342
10536SOL    HW143487   1.485   4.541   5.208 -0.7325  0.0095  0.4135
10536SOL    HW243488   1.451   4.419   5.126  0.6759 -0.3249  0.3386
10537SOL     OW43489   2.607   3.492  16.318  0.4636  0.1484 -0.4573
10537SOL    HW143490   2.554   3.416  16.341  0.4997 -0.0674 -1.0790
10537SOL    HW243491   2.551   3.567  16.338 -0.2821 -0.0962 -1.6383
10538SOL     OW43492   2.046   4.147  16.062  0.2876 -0.3339 -0.6391
10538SOL    HW143493   2.106   4.214  16.094  1.5612 -1.6833 -0.2141
10538SOL    HW243494   2.082   4.064  16.096 -2.1841 -1.0581  0.1884
10539SOL     OW43495   3.342   4.708  16.129 -0.4364  0.1800  0.7774
10539SOL    HW143496   3.248   4.687  16.131 -0.4146 -0.1456 -1.6609
10539SOL    HW243497   3.385   4.624  16.144 -0.5617  0.4114  2.3609
10540SOL     OW43498   4.554   4.509   5.147  0.0411  0.0269 -0.1936
10540SOL    HW143499   4.593   4.548   5.225 -0.0952 -0.2702  0.0241
10540SOL    HW243500   4.507   4.432   5.180  2.5167 -1.8335 -0.9574
10541SOL     OW43501   2.613   2.846   7.008  0.1581 -0.5309  0.1833
10541SOL    HW143502   2.620   2.848   6.912 -0.4914  0.0039  0.1458
10541SOL    HW243503   2.618   2.938   7.034 -3.6580 -0.3521  0.3585
10542SOL     OW43504   0.745   4.305   4.700  0.3296  0.2480  0.1722
10542SOL    HW143505   0.744   4.219   4.659 -0.0347  0.3216  0.0213
10542SOL    HW243506   0.653   4.329   4.707  0.3927  0.1286  1.2750
10543SOL     OW43507   2.934   4.061   4.102  0.0787 -0.1865 -0.5505
10543SOL    HW143508   2.886   3.994   4.054 -0.6420 -0.1443  0.1245
10543SOL    HW243509   2.876   4.137   4.102  1.4850  0.8959 -2.5596
10544SOL     OW43510   2.785   3.926  18.633  0.1511  0.4171  0.0588
10544SOL    HW143511   2.851   3.919  18.565  0.5338  0.1945  0.4507
10544SOL    HW243512   2.809   4.004  18.683  0.1982  0.2624  0.2822
10545SOL     OW43513   0.167   3.486  16.301  0.7606 -0.3178 -0.4540
10545SOL    HW143514   0.131   3.401  16.325 -1.0831 -0.0064 -2.0998
10545SOL    HW243515   0.261   3.470  16.288  0.6509 -1.7921  0.6254
10546SOL     OW43516   3.878   0.178  19.556 -0.1676  0.2729 -0.1459
10546SOL    HW143517   3.783   0.190  19.549 -0.1626  0.4669  0.0981
10546SOL    HW243518   3.898   0.202  19.646 -0.2037 -1.9905  0.4593
10547SOL     OW43519   3.328   2.203  17.718  0.0241 -0.0074 -0.5697
10547SOL    HW143520   3.394   2.228  17.654 -0.2377  0.3512 -0.7015
10547SOL    HW243521   3.276   2.136  17.674  0.5483 -0.5676 -0.3219
10548SOL     OW43522   3.773   4.716  20.281  0.0465 -0.0368 -0.2847
10548SOL    HW143523   3.859   4.673  20.274 -0.4610 -0.8778 -1.3643
10548SOL    HW243524   3.711   4.651  20.249 -0.8842  0.9604 -0.5160
10549SOL     OW43525   3.095   0.478  16.006  1.4532  0.0710  0.3982
10549SOL    HW143526   3.077   0.558  15.957  1.1604 -0.5068 -0.4356
10549SOL    HW243527   3.096   0.506  16.097  0.8558  0.9351  0.1446
10550SOL     OW43528   2.345   4.470  19.914 -0.2918 -0.2270 -0.4222
10550SOL    HW143529   2.415   4.441  19.855  0.5452 -0.2855  0.5907
10550SOL    HW243530   2.347   4.407  19.986  2.9956  3.6109  2.8481
10551SOL     OW43531   2.797   0.383  19.580 -0.1692 -0.2081 -0.0332
10551SOL    HW143532   2.808   0.313  19.516  0.5959  1.1459 -1.3925
10551SOL    HW243533   2.820   0.343  19.664 -0.2474 -1.7279 -0.7442
10552SOL     OW43534   2.366   0.800  15.884  0.0647 -0.5369 -0.1490
10552SOL    HW143535   2.413   0.764  15.959  0.6508 -0.3670 -0.4322
10552SOL    HW243536   2.434   0.842  15.831 -0.3288 -0.7656 -0.8381
10553SOL     OW43537   3.693   3.798   0.173 -0.1472  0.1653 -0.1193
10553SOL    HW143538   3.641   3.751   0.108 -1.2547  0.4109  0.5761
10553SOL    HW243539   3.773   3.746   0.183 -0.1882 -0.1263 -1.3195
10554SOL     OW43540   3.554   4.309  16.544 -0.4471 -0.3429  0.2323
10554SOL    HW143541   3.579   4.356  16.623  0.3609 -1.4827  0.6580
10554SOL    HW243542   3.569   4.372  16.473  0.2112  0.1904  0.8449
10555SOL     OW43543   3.895   1.497  17.348 -0.6450  0.5634 -0.2912
10555SOL    HW143544   3.980   1.469  17.381 -0.7492  0.8807  0.2519
10555SOL    HW243545   3.874   1.435  17.279 -0.5376 -0.2450  0.4002
10556SOL     OW43546   4.667   3.219  19.054  0.2210 -0.2004  0.3979
10556SOL    HW143547   4.698   3.294  19.002  1.7903 -0.7731  0.5014
10556SOL    HW243548   4.584   3.249  19.092  0.9298  1.5600  0.5833
10557SOL     OW43549   2.541   1.899   2.341 -0.0175 -0.1314  0.1650
10557SOL    HW143550   2.597   1.822   2.349  2.0751  1.0309 -3.2356
10557SOL    HW243551   2.589   1.968   2.387 -0.7607 -0.3100  1.1780
10558SOL     OW43552   3.343   1.625   7.539  0.2118 -0.0508  0.2389
10558SOL    HW143553   3.369   1.533   7.543  1.4845  0.2428 -1.7146
10558SOL    HW243554   3.383   1.659   7.459 -0.4970  2.1280  0.7935
10559SOL     OW43555   0.566   0.761  19.678  0.1588 -0.4841  0.7646
10559SOL    HW143556   0.647   0.809  19.663  0.2447 -0.9496 -0.2224
10559SOL    HW243557   0.593   0.680  19.721  0.1999 -0.5401  0.6340
10560SOL     OW43558   0.756   4.573  15.912 -0.1755 -0.0796  0.5051
10560SOL    HW143559   0.747   4.668  15.901 -3.0834 -0.0905  2.7616
10560SOL    HW243560   0.716   4.535  15.834  1.7333  0.5799 -0.7915
10561SOL     OW43561   1.459   4.012  14.787  0.8800 -0.3668 -0.3653
10561SOL    HW143562   1.527   3.963  14.740  2.7001  0.3840  1.4877
10561SOL    HW243563   1.434   3.953  14.858  0.5755 -0.0694 -0.2320
10562SOL     OW43564   3.385   3.405  19.961 -0.1488  0.6581 -0.4359
10562SOL    HW143565   3.293   3.387  19.939 -0.5879  1.0498  1.1003
10562SOL    HW243566   3.382   3.442  20.049  1.5012  0.5623 -0.3403
10563SOL     OW43567   1.254   1.763  15.274  0.8479 -0.4835 -0.4871
10563SOL    HW143568   1.203   1.686  15.248  1.5026 -1.0665 -0.0439
10563SOL    HW243569   1.276   1.807  15.192 -0.8109  0.0519 -0.6528
10564SOL     OW43570   0.948   0.023  20.391 -0.0264 -0.2704 -0.0120
10564SOL    HW143571   0.982   0.070  20.315  0.1537 -0.0890  0.1810
10564SOL    HW243572   1.006   4.724  20.402 -0.2093 -0.4405 -0.2139
10565SOL     OW43573   4.103   0.362   4.719  0.0646 -0.2300  0.1394
10565SOL    HW143574   4.182   0.383   4.770 -0.1868  2.9223 -0.8038
10565SOL    HW243575   4.135   0.350   4.630 -0.4600  0.3539 -0.1171
10566SOL     OW43576   4.521   4.640  19.628 -0.1403  0.2177  0.2380
10566SOL    HW143577   4.432   4.676  19.627 -0.1204  0.3479  2.9693
10566SOL    HW243578   4.560   4.674  19.709  2.4704  0.3609 -1.0894
10567SOL     OW43579   4.613   1.190   9.818 -0.0220 -0.6772 -0.0733
10567SOL    HW143580   4.637   1.245   9.743 -2.1928 -1.8096 -1.5980
10567SOL    HW243581   4.590   1.105   9.780 -0.6764 -1.4084  1.9124
10568SOL     OW43582   2.743   3.915   3.532 -0.1858  0.6301  0.0894
10568SOL    HW143583   2.656   3.956   3.542  0.4194  1.3502  2.4681
10568SOL    HW243584   2.799   3.986   3.502 -0.3007  0.2770 -0.9711
10569SOL     OW43585   1.368   0.787   9.222 -0.2444  0.5536 -1.0489
10569SOL    HW143586   1.318   0.857   9.263 -0.2849 -1.0188  1.5606
10569SOL    HW243587   1.359   0.804   9.128 -2.2919  2.6292 -0.4940
10570SOL     OW43588   0.779   4.729   3.416  0.2729  0.4443 -0.2643
10570SOL    HW143589   0.748   4.640   3.398  0.6761 -0.1802  2.1304
10570SOL    HW243590   0.709   0.010   3.385 -0.6040 -0.7650 -0.4924
10571SOL     OW43591   1.384   1.904   2.898 -0.0051 -0.3752  0.6935
10571SOL    HW143592   1.298   1.893   2.857  0.3868 -0.0944 -0.2102
10571SOL    HW243593   1.365   1.939   2.985 -0.8959 -2.0152  1.1552
10572SOL     OW43594   0.839   2.446   1.844  0.4842 -0.3636  0.6394
10572SOL    HW143595   0.847   2.532   1.802 -0.0591  0.3205  1.8930
10572SOL    HW243596   0.907   2.392   1.805  1.0282  0.7484  0.0683
10573SOL     OW43597   0.479   0.025   2.456  0.0084  0.3945 -0.3785
10573SOL    HW143598   0.559   0.060   2.495 -0.1530  1.1966 -0.7673
10573SOL    HW243599   0.450   4.733   2.517  0.6885  0.4773  0.0330
10574SOL     OW43600   4.126   2.278  15.516 -0.5389 -0.2913  0.2053
10574SOL    HW143601   4.058   2.213  15.495  0.1617 -0.8352 -0.3726
10574SOL    HW243602   4.088   2.362  15.491 -1.6498 -0.4285  1.4293
10575SOL     OW43603   1.244   4.588  19.121  0.0468 -0.3985 -0.4886
10575SOL    HW143604   1.188   4.556  19.051  0.8969  0.0311 -1.3629
10575SOL    HW243605   1.271   4.675  19.092 -0.0867  0.0199  0.6424
10576SOL     OW43606   0.419   0.016   0.242 -0.5658  0.3107 -0.8207
10576SOL    HW143607   0.468   0.042   0.164 -1.0725  1.0908 -0.8728
10576SOL    HW243608   0.442   4.700   0.255 -0.3062  0.2453 -1.7605
10577SOL     OW43609   1.912   3.514  18.913 -0.0142 -0.1922  0.0858
10577SOL    HW143610   1.855   3.437  18.917  0.3375 -0.4342  0.4156
10577SOL    HW243611   1.969   3.497  18.838  0.6566 -0.6636  0.6993
10578SOL     OW43612   0.099   3.154  14.478 -0.0599  0.1675 -0.4454
10578SOL    HW143613   0.101   3.059  14.470  0.6952  0.2105 -0.8055
10578SOL    HW243614   0.062   3.184  14.395  1.2019  0.2650 -0.9768
10579SOL     OW43615   0.848   0.876   0.727 -0.0115 -0.4536 -0.2947
10579SOL    HW143616   0.928   0.895   0.775 -0.9410  0.0267  1.0636
10579SOL    HW243617   0.820   0.791   0.760 -1.2384  0.3758  0.7699
10580SOL     OW43618   1.973   2.880   0.337  0.2407  0.1069 -0.3708
10580SOL    HW143619   2.032   2.805   0.327 -0.2897 -0.3742  0.0385
10580SOL    HW243620   1.989   2.934   0.260  0.2215 -0.7206 -0.9575
10581SOL     OW43621   4.481   1.192  11.186 -0.7201 -0.6599  0.7202
10581SOL    HW143622   4.430   1.217  11.109  0.8767  1.4749  0.3719
10581SOL    HW243623   4.548   1.133  11.151 -0.4492 -0.2700  0.5788
10582SOL     OW43624   0.895   3.021   0.652 -0.0367 -0.6217  1.1316
10582SOL    HW143625   0.841   2.986   0.722 -3.5047  2.1665 -0.1859
10582SOL    HW243626   0.898   3.116   0.669 -0.5537 -0.0051 -2.2890
10583SOL     OW43627   0.120   2.668   3.595 -0.6220  0.3551  0.2062
10583SOL    HW143628   0.186   2.729   3.563  0.2428 -0.6967 -0.0300
10583SOL    HW243629   0.138   2.661   3.689  0.5879 -1.1225 -0.1283
10584SOL     OW43630   2.088   1.367   1.900 -0.3753  0.6298 -0.2705
10584SOL    HW143631   2.019   1.383   1.836 -0.5308  1.4260  0.0955
10584SOL    HW243632   2.068   1.280   1.936 -1.1645  0.8454 -0.1870
10585SOL     OW43633   3.740   4.309   5.141 -0.0182 -0.3408 -0.3269
10585SOL    HW143634   3.828   4.328   5.109 -0.4917 -0.2921 -1.6262
10585SOL    HW243635   3.753   4.253   5.217  1.1646  0.2927 -0.0693
10586SOL     OW43636   2.178   2.478  17.456  0.1288  0.2723 -0.4165
10586SOL    HW143637   2.110   2.531  17.414 -0.8188  0.4228  1.3192
10586SOL    HW243638   2.213   2.534  17.525 -0.5330 -1.1767  1.1013
10587SOL     OW43639   3.790   4.066  16.476  0.4548  0.0160  0.3247
10587SOL    HW143640   3.859   4.126  16.503 -0.7394  0.7823  1.6438
10587SOL    HW243641   3.813   4.042  16.386  1.4763  1.6256  0.1609
10588SOL     OW43642   0.468   1.091   0.903  0.0981  0.2473  0.0893
10588SOL    HW143643   0.536   1.082   0.969 -0.1308  0.0546  0.2962
10588SOL    HW243644   0.506   1.150   0.837  0.9636 -0.9391 -0.4646
10589SOL     OW43645   4.561   2.195   5.833 -0.4951 -0.3342 -0.8265
10589SOL    HW143646   4.536   2.184   5.741  0.4934 -1.9059 -0.9113
10589SOL    HW243647   4.656   2.183   5.834 -0.4734 -0.0886  0.3671
10590SOL     OW43648   3.052   4.570  16.744 -0.0560 -0.6174 -0.6252
10590SOL    HW143649   2.986   4.622  16.697 -1.9919 -3.4998 -1.1242
10590SOL    HW243650   3.095   4.518  16.676  2.4256  0.9170 -0.2356
10591SOL     OW43651   1.418   0.837   0.082 -0.1839 -0.0856  0.6840
10591SOL    HW143652   1.511   0.837   0.058 -0.2543  0.9475  0.4384
10591SOL    HW243653   1.378   0.777   0.019 -0.0626  1.2298 -0.6526
10592SOL     OW43654   2.928   0.466   3.140  0.3128 -0.1991 -0.2094
10592SOL    HW143655   2.895   0.440   3.226 -1.1215 -1.3592 -1.1076
10592SOL    HW243656   2.856   0.514   3.100  1.3123  1.1306 -0.3924
10593SOL     OW43657   0.449   0.730   0.475 -0.7370 -0.1119  0.0565
10593SOL    HW143658   0.470   0.775   0.393 -1.4464 -1.6019 -0.9278
10593SOL    HW243659   0.533   0.696   0.506 -0.6071 -0.2911 -0.4945
10594SOL     OW43660   1.992   2.330   5.546 -0.0776 -0.0834 -0.4917
10594SOL    HW143661   1.943   2.358   5.623 -2.6848  0.2076 -2.2524
10594SOL    HW243662   2.033   2.411   5.513 -2.0399  0.4636 -1.6016
10595SOL     OW43663   3.312   4.138   2.846 -0.2531  0.8583  0.1872
10595SOL    HW143664   3.362   4.063   2.876 -0.2403  0.9791  0.4644
10595SOL    HW243665   3.296   4.120   2.753 -0.2976  0.4892  0.2666
10596SOL     OW43666   3.770   0.713   6.303 -0.5348 -0.9358 -0.3247
10596SOL    HW143667   3.719   0.740   6.226 -1.4386  0.6086  0.8255
10596SOL    HW243668   3.746   0.776   6.371  1.1633 -1.6060  0.8829
10597SOL     OW43669   3.646   3.807  13.657  0.1170 -0.1465 -0.0444
10597SOL    HW143670   3.649   3.841  13.568  1.1436  0.2295  0.1336
10597SOL    HW243671   3.558   3.770  13.666 -0.9551  2.3576 -0.2644
10598SOL     OW43672   1.497   0.351  18.448 -0.0326  0.4307 -0.7178
10598SOL    HW143673   1.589   0.347  18.422  0.2940 -0.6532  0.5915
10598SOL    HW243674   1.495   0.312  18.535 -1.5586  1.5037 -0.2651
10599SOL     OW43675   2.863   3.699   1.424  0.5035 -0.6259  0.2012
10599SOL    HW143676   2.804   3.682   1.350 -1.3041  1.0442  1.2514
10599SOL    HW243677   2.949   3.710   1.383  0.0558 -2.8814 -1.3459
10600SOL     OW43678   2.936   1.582  19.634 -0.0654  0.2121 -0.0789
10600SOL    HW143679   2.941   1.649  19.566  0.7151 -0.1990 -0.4195
10600SOL    HW243680   3.025   1.578  19.670 -0.5836  0.7605  1.2694
10601SOL     OW43681   1.590   4.313  18.646 -1.0039 -0.3844  0.1430
10601SOL    HW143682   1.629   4.269  18.571 -1.3964 -1.4191  0.5498
10601SOL    HW243683   1.498   4.284  18.647 -1.4754  1.1021 -0.1007
10602SOL     OW43684   3.921   1.176  10.171  0.2387  0.4604  0.0449
10602SOL    HW143685   3.961   1.115  10.233  1.2877 -0.8849 -1.9240
10602SOL    HW243686   3.946   1.263  10.201  2.1988 -0.2671  0.4886
10603SOL     OW43687   0.449   1.341   1.093 -0.3141  0.1986 -0.1423
10603SOL    HW143688   0.494   1.259   1.074 -1.9645 -0.7040 -0.2377
10603SOL    HW243689   0.375   1.315   1.149  0.3156  1.8830  1.4808
10604SOL     OW43690   0.869   0.387   8.370  0.2313  0.3651  0.3481
10604SOL    HW143691   0.857   0.393   8.464  0.2586  0.2866  0.3563
10604SOL    HW243692   0.811   0.455   8.334  0.1536  0.3345  0.4161
10605SOL     OW43693   1.302   2.097  20.892  0.1849  0.3624  0.7987
10605SOL    HW143694   1.291   2.002  20.900 -1.2670  0.5491  0.9867
10605SOL    HW243695   1.379   2.117  20.945  1.9897 -1.0674 -1.2915
10606SOL     OW43696   2.937   0.183  21.064  0.1737 -0.0729  0.1547
10606SOL    HW143697   2.931   0.190  20.969 -1.6699  2.7461  0.4860
10606SOL    HW243698   2.919   0.090  21.082 -2.6479  0.0549 -2.0028
10607SOL     OW43699   1.735   0.021  21.134 -0.2179  0.1921  0.1007
10607SOL    HW143700   1.827   0.048  21.144  0.3879 -1.5701 -0.5633
10607SOL    HW243701   1.691   0.058   0.013  1.2853  0.0667  1.0526
10608SOL     OW43702   1.771   2.973  10.911 -0.1104  0.2742 -0.4451
10608SOL    HW143703   1.792   2.882  10.894 -1.0946 -0.2139  0.9660
10608SOL    HW243704   1.684   2.985  10.873 -0.9937  0.0017  1.5024
10609SOL     OW43705   2.554   4.230   4.197 -0.6321  0.0789 -0.1002
10609SOL    HW143706   2.491   4.157   4.197 -1.2094  0.5723 -1.5032
10609SOL    HW243707   2.621   4.203   4.134  0.5409 -0.4321  1.3717
10610SOL     OW43708   2.160   1.053  17.539  0.3925 -0.6012 -0.2834
10610SOL    HW143709   2.104   1.093  17.605 -0.1318 -0.3757 -0.8643
10610SOL    HW243710   2.134   0.961  17.539 -0.7600 -0.2888 -1.3317
10611SOL     OW43711   3.339   2.405  14.894  0.2070  0.5618 -0.4581
10611SOL    HW143712   3.283   2.364  14.828  0.5735 -1.8306  0.7429
10611SOL    HW243713   3.419   2.427  14.847 -0.7242  1.6090 -1.5504
10612SOL     OW43714   3.253   4.438  18.206 -0.6754 -0.3054  0.3863
10612SOL    HW143715   3.254   4.511  18.144 -1.9814 -0.8346 -0.2487
10612SOL    HW243716   3.165   4.437  18.242 -1.2104 -2.7057 -0.9500
10613SOL     OW43717   1.058   4.261  16.609  0.5652  0.2331  0.7863
10613SOL    HW143718   1.120   4.213  16.555  0.2094  0.9794 -0.2804
10613SOL    HW243719   0.972   4.240  16.573  0.4753  2.5701 -0.4121
10614SOL     OW43720   3.057   0.130  13.340  0.1708 -0.1349 -0.2860
10614SOL    HW143721   2.964   0.138  13.359  0.2655 -0.0754  0.1465
10614SOL    HW243722   3.094   0.215  13.362  0.9366 -1.3130  2.9814
10615SOL     OW43723   2.369   3.983   3.908 -0.3587 -0.3613 -0.1618
10615SOL    HW143724   2.380   3.888   3.907  0.3757 -0.2840  0.1688
10615SOL    HW243725   2.299   3.998   3.972 -0.7964 -0.7113 -0.5601
10616SOL     OW43726   3.309   3.031  10.804  0.0557  0.2950  0.3787
10616SOL    HW143727   3.351   3.115  10.787  0.5995 -0.3232 -1.2959
10616SOL    HW243728   3.334   3.010  10.894  0.2395  1.7332  0.6719
10617SOL     OW43729   3.192   2.116   5.733  0.0474  0.0331 -0.7479
10617SOL    HW143730   3.099   2.134   5.729  0.3305  1.1662 -2.2934
10617SOL    HW243731   3.202   2.032   5.687 -0.0854  0.3862 -1.4242
10618SOL     OW43732   1.989   0.444   5.307 -0.0157  0.3086  0.4147
10618SOL    HW143733   1.896   0.425   5.293 -0.5307  1.7548  1.8725
10618SOL    HW243734   1.990   0.507   5.379  1.9677  2.3553 -1.4158
10619SOL     OW43735   1.294   0.986  19.362  0.0437  0.1796 -0.2301
10619SOL    HW143736   1.287   0.941  19.446  0.8336 -1.8200 -1.2402
10619SOL    HW243737   1.210   1.031  19.351  0.5050  1.6698  2.3278
10620SOL     OW43738   1.646   2.073  17.642  0.2001 -0.1120  0.0043
10620SOL    HW143739   1.696   2.152  17.624  1.9306 -1.3664 -0.5804
10620SOL    HW243740   1.635   2.030  17.557 -1.8728  0.1813  0.1190
10621SOL     OW43741   1.804   4.523   8.842 -0.4651 -0.2532  0.7116
10621SOL    HW143742   1.788   4.479   8.926  0.1173  0.6119  1.2877
10621SOL    HW243743   1.890   4.563   8.853 -1.2181  1.4552  0.3918
10622SOL     OW43744   3.529   4.742  15.080  0.1009  0.1734 -0.1598
10622SOL    HW143745   3.548   0.029  15.011 -1.3508 -2.3717 -2.8548
10622SOL    HW243746   3.446   4.773  15.118  0.8046  1.4605  0.3462
10623SOL     OW43747   3.309   0.906   0.564  0.1618  0.0661  0.0341
10623SOL    HW143748   3.298   0.943   0.652  1.8396 -1.0717  0.7217
10623SOL    HW243749   3.392   0.940   0.534  0.5982 -1.2562 -0.2659
10624SOL     OW43750   0.772   2.082   9.679 -0.1492 -0.1186 -0.0117
10624SOL    HW143751   0.851   2.078   9.625  1.2943  1.0356  2.0311
10624SOL    HW243752   0.720   2.007   9.650  1.7087 -0.9121 -1.3366
10625SOL     OW43753   1.258   4.040  20.837 -0.2486  0.0347  0.1435
10625SOL    HW143754   1.240   3.949  20.817 -1.5951  0.4669 -0.6005
10625SOL    HW243755   1.179   4.071  20.882  0.1234  0.8854  0.2100
10626SOL     OW43756   4.014   0.261  20.851 -0.2161 -0.4274 -0.8037
10626SOL    HW143757   3.957   0.207  20.795 -1.3230 -0.7425  0.6243
10626SOL    HW243758   4.101   0.222  20.840 -0.5731 -0.9953 -1.6815
10627SOL     OW43759   1.733   3.412   5.233  0.2225 -0.3640 -0.6634
10627SOL    HW143760   1.717   3.395   5.140 -0.6028 -0.6721 -0.4684
10627SOL    HW243761   1.723   3.326   5.275  0.4970 -0.2072 -0.2841
10628SOL     OW43762   1.623   0.464  10.313 -0.3670  0.3980 -0.5734
10628SOL    HW143763   1.579   0.543  10.344 -0.0903  1.0861 -1.9452
10628SOL    HW243764   1.558   0.419  10.259  0.4113  1.0916 -2.0769
10629SOL     OW43765   2.830   0.992  19.075  0.8103  0.2543 -0.3356
10629SOL    HW143766   2.779   0.918  19.045 -0.3744  0.9982 -0.1587
10629SOL    HW243767   2.821   0.991  19.170  1.7097 -0.0484 -0.2578
10630SOL     OW43768   0.095   2.272  15.187 -0.3658  0.2498  0.0202
10630SOL    HW143769   0.188   2.262  15.203 -0.4109  0.3964  0.3750
10630SOL    HW243770   0.053   2.237  15.265 -0.5945  0.6661  0.0858
10631SOL     OW43771   2.809   3.991  19.250  0.7862 -0.0650  0.4171
10631SOL    HW143772   2.753   4.010  19.325  0.6062  1.5086 -0.1191
10631SOL    HW243773   2.748   3.975  19.178  0.9764 -0.2780  0.3052
10632SOL     OW43774   2.444   1.500  15.948  0.0251  0.0417 -0.1782
10632SOL    HW143775   2.381   1.572  15.942 -0.8056 -0.7294 -0.8620
10632SOL    HW243776   2.471   1.484  15.857  0.3813 -0.3463 -0.0053
10633SOL     OW43777   3.393   2.362   2.453 -0.0079 -0.6600  0.2423
10633SOL    HW143778   3.395   2.332   2.362  0.2738  0.4179 -0.1066
10633SOL    HW243779   3.484   2.377   2.476 -0.1248 -0.3297  0.4977
10634SOL     OW43780   1.520   0.525   7.415  0.7209 -0.5277 -0.0719
10634SOL    HW143781   1.458   0.564   7.476  0.2181 -1.5105  0.0531
10634SOL    HW243782   1.474   0.525   7.331  0.9147 -0.3646 -0.1768
10635SOL     OW43783   1.487   1.718   2.718  0.5349 -0.4232 -0.1633
10635SOL    HW143784   1.424   1.767   2.770 -0.4585 -0.7887 -1.0354
10635SOL    HW243785   1.463   1.626   2.730  0.6364 -0.5409 -0.8408
10636SOL     OW43786   3.750   1.145  16.637 -0.0991  0.4115 -0.1616
10636SOL    HW143787   3.827   1.200  16.652 -1.9410  3.0818 -0.4813
10636SOL    HW243788   3.758   1.075  16.702  2.0676  1.2324  0.4609
10637SOL     OW43789   1.085   1.635  20.726  0.0452  0.0877  0.3616
10637SOL    HW143790   1.041   1.553  20.750 -0.2240  0.2312  0.3541
10637SOL    HW243791   1.052   1.654  20.638  0.0032  0.2768  0.4189
10638SOL     OW43792   0.945   0.427  20.132  0.4815 -0.1994  0.6166
10638SOL    HW143793   0.912   0.511  20.100 -0.2428 -0.0868  1.6469
10638SOL    HW243794   0.966   0.443  20.224 -1.9256 -1.8182  1.4350
10639SOL     OW43795   2.300   1.610   8.780 -0.0360  0.1159 -0.1239
10639SOL    HW143796   2.392   1.594   8.759  0.8711  2.1165  2.2724
10639SOL    HW243797   2.255   1.528   8.761  2.5148 -1.3369  0.2122
10640SOL     OW43798   0.271   4.577   4.927  0.0098  0.4512  0.6640
10640SOL    HW143799   0.316   4.632   4.862  2.4404 -1.2454  0.8863
10640SOL    HW243800   0.186   4.618   4.939 -0.1141  1.2653 -2.9703
10641SOL     OW43801   4.377   2.853  17.164 -1.2070  0.0743  0.0664
10641SOL    HW143802   4.326   2.934  17.161 -1.2590  0.0283 -0.3566
10641SOL    HW243803   4.429   2.861  17.244  0.1056  1.3334 -0.9031
10642SOL     OW43804   2.441   1.598   0.540  0.3118 -0.1970 -0.3015
10642SOL    HW143805   2.536   1.602   0.530  0.3018 -0.6708 -0.6138
10642SOL    HW243806   2.410   1.558   0.459 -0.0951 -0.6713  0.0820
10643SOL     OW43807   3.326   4.430   2.956 -0.0165 -0.0434  0.3626
10643SOL    HW143808   3.345   4.351   2.906 -0.6978 -0.6568  1.0645
10643SOL    HW243809   3.337   4.404   3.047  1.8863  1.2604  0.4955
10644SOL     OW43810   2.715   1.429  17.649  0.6442 -0.3300 -0.4013
10644SOL    HW143811   2.764   1.348  17.659 -0.4394 -0.9027  0.2213
10644SOL    HW243812   2.653   1.411  17.578  1.3707  0.4141 -1.2284
10645SOL     OW43813   3.736   0.394  17.491 -0.3053  0.2071  0.1726
10645SOL    HW143814   3.723   0.315  17.543  0.0892  0.6140  0.8855
10645SOL    HW243815   3.649   0.432  17.483 -0.2382  0.5989  1.2563
10646SOL     OW43816   4.019   2.547  14.853  0.1936 -0.3543 -0.2759
10646SOL    HW143817   4.092   2.587  14.807  1.0789 -1.2806  0.3312
10646SOL    HW243818   4.033   2.569  14.945 -1.1036  0.7610 -0.3479
10647SOL     OW43819   3.397   3.968   6.372  0.0005 -0.2050 -0.3236
10647SOL    HW143820   3.465   3.906   6.398  0.6244  0.8033  0.4968
10647SOL    HW243821   3.401   3.971   6.277  0.5321 -0.8018 -0.3168
10648SOL     OW43822   2.876   3.439  18.300  0.0599  0.5418  0.8749
10648SOL    HW143823   2.863   3.438  18.206 -0.7467 -0.2398  0.9989
10648SOL    HW243824   2.961   3.482  18.312  0.0582  0.8325 -0.1894
10649SOL     OW43825   4.458   0.300   4.251 -0.4896  0.3481 -0.2468
10649SOL    HW143826   4.502   0.358   4.313 -1.1813 -1.4633  1.9604
10649SOL    HW243827   4.374   0.342   4.235 -0.1403  1.0393 -0.2785
10650SOL     OW43828   4.228   1.183   2.969  0.1266 -0.0203 -0.0067
10650SOL    HW143829   4.232   1.165   3.063 -1.3539  0.9579  0.2538
10650SOL    HW243830   4.278   1.113   2.929 -1.9820 -2.2454  1.2830
10651SOL     OW43831   2.091   0.570  16.885  0.8020  0.0824 -0.5089
10651SOL    HW143832   2.124   0.559  16.796 -0.2317  1.0169 -1.0109
10651SOL    HW243833   2.103   0.663  16.903 -2.6219  0.6614 -1.1170
10652SOL     OW43834   0.254   0.819   3.554 -1.1204  0.0279  0.1169
10652SOL    HW143835   0.324   0.881   3.577 -1.2659 -0.0307  0.7189
10652SOL    HW243836   0.264   0.747   3.617 -1.5237 -0.1298  0.0016
10653SOL     OW43837   4.662   0.297  10.511 -0.3034  0.3878  0.2519
10653SOL    HW143838   4.601   0.288  10.584 -2.6506  1.5055 -1.5422
10653SOL    HW243839   4.655   0.214  10.463  1.0858 -0.2686  1.1914
10654SOL     OW43840   2.426   2.441  14.583  0.2574  0.1887 -0.2926
10654SOL    HW143841   2.496   2.483  14.633  0.7109  1.3517 -1.9087
10654SOL    HW243842   2.351   2.441  14.642  1.2720  0.0687  0.9892
10655SOL     OW43843   3.266   3.577  13.321  0.2937  0.5061 -0.4721
10655SOL    HW143844   3.221   3.659  13.302 -0.1006 -0.1065 -2.1605
10655SOL    HW243845   3.286   3.540  13.235  2.3997 -0.1040  0.2643
10656SOL     OW43846   4.602   1.482   4.581 -0.1270 -0.2702  0.4515
10656SOL    HW143847   4.579   1.455   4.670  2.0965 -0.9174  0.8417
10656SOL    HW243848   4.685   1.529   4.591  0.0525 -0.2233 -1.2460
10657SOL     OW43849   1.126   4.533   9.359  0.1036 -0.2393  0.1316
10657SOL    HW143850   1.137   4.603   9.294 -0.0805 -1.0655 -0.7760
10657SOL    HW243851   1.091   4.459   9.310 -0.8331 -0.5930  1.3290
10658SOL     OW43852   2.394   2.202  16.434 -0.1360  0.3536 -0.9278
10658SOL    HW143853   2.376   2.243  16.519  1.8217  0.0167 -0.3486
10658SOL    HW243854   2.307   2.179  16.400 -0.9585  0.9095  0.7691
10659SOL     OW43855   1.020   1.435  15.882 -0.3359 -0.3876 -0.3539
10659SOL    HW143856   1.094   1.483  15.845  0.8795 -2.4871 -0.6219
10659SOL    HW243857   0.949   1.448  15.820  0.7816 -1.2381 -1.7977
10660SOL     OW43858   1.409   2.836  20.175  0.0243  0.0762 -0.1979
10660SOL    HW143859   1.362   2.888  20.240 -2.6090 -1.8515 -0.5567
10660SOL    HW243860   1.413   2.748  20.212  1.6082 -0.2255 -1.0699
10661SOL     OW43861   0.309   0.155  14.896 -0.2224  0.0765 -0.6032
10661SOL    HW143862   0.227   0.139  14.850 -0.5420  0.1269 -0.0579
10661SOL    HW243863   0.340   0.067  14.920 -1.2268  0.1728  1.0967
10662SOL     OW43864   2.499   0.598  20.046  0.4907  0.5285  0.0926
10662SOL    HW143865   2.519   0.546  20.124 -0.2065  0.1817  0.0356
10662SOL    HW243866   2.413   0.568  20.018  0.9511  0.3140 -1.0992
10663SOL     OW43867   1.838   4.718  15.716  0.6132  0.3298 -0.2191
10663SOL    HW143868   1.820   4.756  15.630  1.2157  0.8066 -0.1333
10663SOL    HW243869   1.756   4.731  15.765  0.8312  1.5727 -0.1728
10664SOL     OW43870   2.150   4.082   8.930 -0.3193 -0.2554 -0.1733
10664SOL    HW143871   2.115   4.171   8.927 -2.0535 -0.9673 -1.1123
10664SOL    HW243872   2.169   4.066   9.022  0.6330  1.3564 -0.1068
10665SOL     OW43873   2.742   1.525   8.489  0.5491 -0.3750 -0.7559
10665SOL    HW143874   2.825   1.495   8.524  0.1324 -1.1650 -0.4483
10665SOL    HW243875   2.741   1.494   8.399  0.7357 -0.0779 -0.8598
10666SOL     OW43876   3.273   2.582  16.682 -0.0633 -0.1739  0.2935
10666SOL    HW143877   3.367   2.583  16.666 -0.1193 -1.0523 -0.1330
10666SOL    HW243878   3.258   2.505  16.737 -0.4171  0.4402  1.0439
10667SOL     OW43879   3.650   3.624  18.073  0.4287 -0.1099 -0.6565
10667SOL    HW143880   3.738   3.642  18.105 -0.0272  0.5172  0.2629
10667SOL    HW243881   3.655   3.638  17.978  1.4560 -0.6668 -0.6868
10668SOL     OW43882   1.624   3.488   1.760  0.1117 -0.3985 -0.1142
10668SOL    HW143883   1.593   3.505   1.671 -0.4862 -0.1295  0.1457
10668SOL    HW243884   1.646   3.575   1.794  2.1160 -0.7013 -0.6602
10669SOL     OW43885   4.711   4.588  10.389  0.3318 -0.6408  0.2510
10669SOL    HW143886   0.024   4.575  10.422  0.2312 -0.6659  0.5167
10669SOL    HW243887   4.656   4.573  10.465  0.2696  2.2626  0.7638
10670SOL     OW43888   1.888   4.493   1.882 -0.4180  0.4874 -0.1119
10670SOL    HW143889   1.911   4.401   1.868 -1.0925  0.3669 -0.4019
10670SOL    HW243890   1.793   4.492   1.897 -0.2977  1.0380  0.7107
10671SOL     OW43891   2.168   1.807  20.040 -0.2036 -0.1190  0.5125
10671SOL    HW143892   2.210   1.733  19.997  0.3447  0.9297 -0.7346
10671SOL    HW243893   2.074   1.791  20.029 -0.0066  1.3714 -3.0789
10672SOL     OW43894   0.277   1.378  13.378  0.4206 -0.4637 -0.0449
10672SOL    HW143895   0.218   1.365  13.303  1.3897 -2.2930 -0.4852
10672SOL    HW243896   0.246   1.459  13.418 -0.8475 -0.0961 -1.7399
10673SOL     OW43897   0.799   4.526   5.161  0.2024  0.0685  0.5596
10673SOL    HW143898   0.779   4.445   5.115 -2.3489 -0.4177  2.4833
10673SOL    HW243899   0.813   4.591   5.092 -1.3472 -1.1825 -0.9314
10674SOL     OW43900   1.612   3.253   4.722 -0.3139  0.1544  0.2730
10674SOL    HW143901   1.577   3.165   4.736 -1.0679  0.5367  0.7893
10674SOL    HW243902   1.677   3.242   4.653 -0.5710 -0.7690  0.1753
10675SOL     OW43903   0.200   0.713  20.858  0.4364  0.1382  0.1062
10675SOL    HW143904   0.150   0.777  20.807  1.4909  0.8196 -0.0487
10675SOL    HW243905   0.173   0.729  20.948 -0.3292 -0.1131 -0.0681
10676SOL     OW43906   3.361   2.241  19.162  0.2270 -0.3888  0.3768
10676SOL    HW143907   3.273   2.255  19.197  0.5146  1.3338  0.4145
10676SOL    HW243908   3.357   2.155  19.120 -1.2255 -0.6976  1.1640
10677SOL     OW43909   2.906   0.905  17.072  0.0862  0.1973 -0.0862
10677SOL    HW143910   2.827   0.861  17.042  0.8411  0.1575 -2.0256
10677SOL    HW243911   2.972   0.883  17.006  1.2632  1.6355  0.6087
10678SOL     OW43912   1.545   0.833   3.750  0.7676 -0.1901  0.7670
10678SOL    HW143913   1.553   0.751   3.798 -0.4476 -1.4991 -1.2576
10678SOL    HW243914   1.577   0.812   3.662  1.5158  1.7891  0.5572
10679SOL     OW43915   4.539   3.456   9.380 -0.1724 -0.4480  0.4671
10679SOL    HW143916   4.477   3.431   9.311 -0.3105 -1.0904  0.8274
10679SOL    HW243917   4.536   3.384   9.443 -0.1474  0.2017  1.2157
10680SOL     OW43918   4.086   4.182   8.275 -0.4275  0.1900 -0.7811
10680SOL    HW143919   4.157   4.223   8.226  0.9368 -1.0268  0.1459
10680SOL    HW243920   4.007   4.202   8.225  0.5514  1.7023 -1.7278
10681SOL     OW43921   0.758   0.151   9.279  0.0922  0.6684  0.3663
10681SOL    HW143922   0.741   0.088   9.350 -2.0866  2.2553  1.2565
10681SOL    HW243923   0.696   0.222   9.295 -0.8654  0.6937 -3.5544
10682SOL     OW43924   1.418   0.014   2.734  0.2071  0.2663 -0.8056
10682SOL    HW143925   1.357   4.774   2.663  0.8499  0.0297 -1.3025
10682SOL    HW243926   1.403   4.718   2.795 -1.0277  0.9998 -0.2314
10683SOL     OW43927   0.870   4.010   2.105  0.0141 -0.5485 -0.0124
10683SOL    HW143928   0.838   4.087   2.152  0.1013 -0.1421 -0.6179
10683SOL    HW243929   0.954   3.989   2.146  0.1994 -0.0537 -0.1383
10684SOL     OW43930   0.660   4.651   3.693 -0.3450  0.1203 -0.3134
10684SOL    HW143931   0.715   4.696   3.629 -0.2526 -0.9092 -0.9636
10684SOL    HW243932   0.640   4.567   3.652 -1.4027  0.0011  0.4352
10685SOL     OW43933   4.178   4.714  13.836  0.0448 -1.0232 -0.0176
10685SOL    HW143934   4.108   4.712  13.772 -0.1859 -0.1750  0.2145
10685SOL    HW243935   4.232   0.013  13.812  1.1553 -1.9728 -0.4972
10686SOL     OW43936   2.212   0.137   3.612 -0.0640  0.2927  1.1949
10686SOL    HW143937   2.304   0.137   3.639  0.2032 -2.3734  0.2730
10686SOL    HW243938   2.211   0.190   3.532  0.1859  2.8493  2.9101
10687SOL     OW43939   3.260   1.696   5.140 -0.4681 -0.3517 -0.1529
10687SOL    HW143940   3.303   1.615   5.166 -0.6009 -0.4819 -0.3444
10687SOL    HW243941   3.168   1.673   5.131 -0.4544 -0.2564 -0.5342
10688SOL     OW43942   3.767   3.846   1.895 -0.3013 -0.2650 -0.2406
10688SOL    HW143943   3.703   3.844   1.966 -1.4310 -2.2997 -1.3226
10688SOL    HW243944   3.851   3.832   1.938 -0.6759  1.3377  1.0457
10689SOL     OW43945   2.704   2.884   2.884  0.0395 -0.1259  0.4995
10689SOL    HW143946   2.704   2.970   2.925 -0.6583  0.5967 -1.0267
10689SOL    HW243947   2.790   2.847   2.907  1.4406  2.0740 -1.1621
10690SOL     OW43948   3.835   2.815   4.712 -0.5109 -0.0914 -0.1332
10690SOL    HW143949   3.755   2.764   4.701 -1.5347  1.6536 -0.7118
10690SOL    HW243950   3.850   2.816   4.806 -1.1637 -0.4105 -0.0294
10691SOL     OW43951   1.362   3.645  20.513 -0.1206 -0.0448  0.2268
10691SOL    HW143952   1.350   3.618  20.604 -0.4585 -1.4852 -0.2551
10691SOL    HW243953   1.375   3.740  20.518 -2.1288  0.1535  1.5928
10692SOL     OW43954   4.647   1.462  15.548 -0.4782 -0.7811  0.1746
10692SOL    HW143955   4.666   1.515  15.625  0.1981 -1.1788  0.2752
10692SOL    HW243956   4.552   1.449  15.552 -0.5990  0.1131  0.3450
10693SOL     OW43957   3.280   3.943   6.624  0.0432 -0.3619 -0.4046
10693SOL    HW143958   3.332   3.966   6.547 -0.1042 -1.5293 -0.8511
10693SOL    HW243959   3.253   4.027   6.661  1.5529  0.2255 -0.6546
10694SOL     OW43960   4.627   1.073  20.275 -0.2877 -0.4100  0.5967
10694SOL    HW143961   4.676   1.046  20.197 -0.3477 -0.2215  0.4953
10694SOL    HW243962   4.538   1.045  20.259 -0.3309 -0.2354  0.5325
10695SOL     OW43963   3.148   1.784   3.989  0.5934  0.1443 -0.0381
10695SOL    HW143964   3.177   1.748   3.906 -0.3704 -0.0471 -0.2971
10695SOL    HW243965   3.063   1.824   3.969  0.6542  0.6413  0.7128
10696SOL     OW43966   0.126   1.964   5.105  0.4827  0.6252 -0.4766
10696SOL    HW143967   0.217   1.991   5.102  0.6304  0.1079 -0.5360
10696SOL    HW243968   0.099   1.959   5.014  0.3158  1.0512 -0.4511
10697SOL     OW43969   3.305   4.012  19.073 -0.0611 -0.4607  0.4601
10697SOL    HW143970   3.211   4.013  19.088 -0.1739 -2.3512 -0.1023
10697SOL    HW243971   3.315   4.004  18.978  0.6656  1.5201  0.3613
10698SOL     OW43972   1.640   0.766  13.227 -0.6036  0.1154 -0.7033
10698SOL    HW143973   1.647   0.860  13.244 -0.1037  0.2122 -1.4384
10698SOL    HW243974   1.620   0.760  13.134  0.6367 -0.5449 -0.9302
10699SOL     OW43975   2.459   1.831  19.417  0.3792  0.4528 -0.1667
10699SOL    HW143976   2.456   1.744  19.376  1.1623 -0.3658  1.4712
10699SOL    HW243977   2.386   1.878  19.378  0.9851 -0.3830 -2.3252
10700SOL     OW43978   1.211   3.097  19.608  0.5995  0.0375  0.6591
10700SOL    HW143979   1.159   3.028  19.568  1.2242  0.2257 -0.4825
10700SOL    HW243980   1.150   3.144  19.664 -0.2949 -0.1567 -0.1557
10701SOL     OW43981   3.699   1.677   6.820  0.5277  0.2544  0.4582
10701SOL    HW143982   3.668   1.664   6.730  0.9646  0.5578  0.2639
10701SOL    HW243983   3.779   1.730   6.810  0.1426  0.9427  1.0762
10702SOL     OW43984   2.469   0.417   8.304  0.4496 -0.3967 -0.5310
10702SOL    HW143985   2.440   0.473   8.376  0.7076 -1.4355  0.3906
10702SOL    HW243986   2.497   0.477   8.235  2.9198  0.5864  1.3420
10703SOL     OW43987   0.847   0.222   2.291 -0.1548  0.2317  0.1926
10703SOL    HW143988   0.820   0.133   2.268 -0.6795  0.6877 -0.9296
10703SOL    HW243989   0.846   0.270   2.208  0.5789  1.1650  0.7284
10704SOL     OW43990   1.189   4.372   2.058  0.6920 -0.1591 -0.2181
10704SOL    HW143991   1.165   4.298   2.002  0.9400 -0.1550 -0.3260
10704SOL    HW243992   1.162   4.345   2.146 -0.2262  0.0684 -0.4226
10705SOL     OW43993   4.758   1.345  15.812 -0.3881  0.5590 -0.1918
10705SOL    HW143994   0.071   1.342  15.848 -0.4256 -0.4286 -0.1793
10705SOL    HW243995   4.730   1.436  15.823 -0.0352  0.4727  1.4168
10706SOL     OW43996   4.537   3.166   3.495 -0.1580 -0.6440  0.0728
10706SOL    HW143997   4.466   3.117   3.453 -1.7714  1.5128  0.2424
10706SOL    HW243998   4.617   3.124   3.465 -1.4520 -1.6389 -1.9723
10707SOL     OW43999   0.087   4.115   1.856 -0.4378  0.0564  0.1912
10707SOL    HW144000   0.015   4.153   1.805  0.7486  0.2495 -1.3397
10707SOL    HW244001   0.157   4.102   1.792 -0.0928 -2.7074  1.1428
10708SOL     OW44002   3.702   3.153   3.057  0.0941  0.0051 -0.0432
10708SOL    HW144003   3.756   3.142   3.134  0.3908  0.0123 -0.2521
10708SOL    HW244004   3.753   3.210   2.999  0.5741 -1.3500 -0.9334
10709SOL     OW44005   3.319   1.139   1.579  0.0738  0.4603  0.3195
10709SOL    HW144006   3.411   1.127   1.602  0.5129 -0.3676 -1.9745
10709SOL    HW244007   3.316   1.133   1.484 -2.2385  1.2523  0.3328
10710SOL     OW44008   3.018   1.217   7.066  0.3894  0.4257  0.3144
10710SOL    HW144009   3.037   1.274   7.141 -1.0322 -1.0284  1.7964
10710SOL    HW244010   3.088   1.152   7.067  0.0562  0.0739  0.7139
10711SOL     OW44011   4.659   3.446  19.982  0.3887 -0.4868  0.0172
10711SOL    HW144012   4.738   3.405  19.946  0.6976 -0.5399  0.7579
10711SOL    HW244013   4.692   3.503  20.052 -0.3731 -1.5846  1.2718
10712SOL     OW44014   1.653   3.276  14.922  0.2012  0.5454 -0.2195
10712SOL    HW144015   1.742   3.244  14.905 -0.2576 -0.3598 -0.9209
10712SOL    HW244016   1.628   3.233  15.004  0.2872  0.5329 -0.1996
10713SOL     OW44017   4.177   2.636  18.589 -0.1418  0.2623  0.0803
10713SOL    HW144018   4.147   2.605  18.503 -0.5497 -0.6480  0.5438
10713SOL    HW244019   4.248   2.576  18.612  0.0410  0.5770  0.3312
10714SOL     OW44020   1.378   3.602   9.543  0.8115 -0.4056  0.1667
10714SOL    HW144021   1.365   3.669   9.476  0.1515 -0.7909 -0.0924
10714SOL    HW244022   1.295   3.597   9.589  0.8703 -1.0181  0.2129
10715SOL     OW44023   4.609   0.136   5.145  0.2257 -0.0249  0.0526
10715SOL    HW144024   4.528   0.129   5.095 -0.2781 -2.0197  1.1446
10715SOL    HW244025   4.582   0.167   5.232  0.5285 -1.4100  0.6545
10716SOL     OW44026   0.470   2.859   1.022 -0.2321  0.0394  0.0678
10716SOL    HW144027   0.447   2.890   1.110  0.0759  1.4498 -0.3482
10716SOL    HW244028   0.564   2.840   1.026 -0.0702  0.8135 -0.1776
10717SOL     OW44029   1.091   2.254  13.568  0.4539 -0.6695  0.4547
10717SOL    HW144030   1.082   2.159  13.565  2.1770 -0.8313  0.0869
10717SOL    HW244031   1.058   2.285  13.484 -1.3100 -0.8504  1.0956
10718SOL     OW44032   4.639   2.342   2.873  0.7980  0.0393 -0.0417
10718SOL    HW144033   4.590   2.261   2.879 -2.3859  1.9586  0.0014
10718SOL    HW244034   4.628   2.383   2.959  1.2585  1.1542 -0.5096
10719SOL     OW44035   0.152   2.990  17.336 -0.1426  0.5432  0.2231
10719SOL    HW144036   0.245   2.968  17.327 -0.0116  0.7898  0.9851
10719SOL    HW244037   0.121   3.000  17.246  0.6156  0.6600 -0.0259
10720SOL     OW44038   3.353   2.907  15.153  0.5749 -0.7468 -0.0346
10720SOL    HW144039   3.338   2.815  15.132  1.2150 -0.6958 -0.7103
10720SOL    HW244040   3.393   2.944  15.074 -0.1893  0.2343  0.0376
10721SOL     OW44041   0.026   3.603   2.556  0.4504 -0.1019  0.6838
10721SOL    HW144042   0.040   3.521   2.508  0.9182 -0.5206  1.5344
10721SOL    HW244043   0.000   3.575   2.644 -1.0768  0.6626  0.4775
10722SOL     OW44044   0.267   2.842  12.783  0.0257  0.1744 -0.7192
10722SOL    HW144045   0.228   2.917  12.828  0.7434  1.3642 -2.1038
10722SOL    HW244046   0.195   2.803  12.734 -0.0574  0.7166 -1.0267
10723SOL     OW44047   3.514   1.708  15.993 -0.0497 -0.2262  0.1612
10723SOL    HW144048   3.488   1.683  15.905  1.9364  0.5132 -0.6452
10723SOL    HW244049   3.432   1.730  16.037 -1.0003 -0.1337 -1.6500
10724SOL     OW44050   1.909   3.801   4.319 -0.1842  1.1715  0.0902
10724SOL    HW144051   1.839   3.852   4.358 -0.9124  0.1287  0.1247
10724SOL    HW244052   1.866   3.725   4.279  0.8760  0.6787 -0.1398
10725SOL     OW44053   1.399   3.071   7.360 -0.7266  0.3767 -0.5600
10725SOL    HW144054   1.367   2.990   7.321  0.0810  0.0821 -0.6131
10725SOL    HW244055   1.397   3.055   7.455  0.3591 -0.0615 -0.6047
10726SOL     OW44056   1.697   3.841  10.183 -0.1713  0.2867 -0.1007
10726SOL    HW144057   1.714   3.862  10.275  0.5987 -2.6010  0.4323
10726SOL    HW244058   1.660   3.921  10.146  1.3644  2.0849  2.2556
10727SOL     OW44059   4.560   0.529   5.324 -0.5465 -0.2744  0.0846
10727SOL    HW144060   4.635   0.476   5.296 -1.2106 -0.6751 -0.9290
10727SOL    HW244061   4.525   0.566   5.243  0.0874  1.9512  0.8251
10728SOL     OW44062   1.078   2.154   2.938  0.1570 -0.1568  0.0613
10728SOL    HW144063   1.000   2.114   2.899  1.4113 -0.4453 -2.1088
10728SOL    HW244064   1.057   2.247   2.944 -0.5868 -0.3213  0.0557
10729SOL     OW44065   4.519   0.196   8.131  0.4693  0.0850 -0.3050
10729SOL    HW144066   4.440   0.217   8.180  1.1092 -2.1317  1.6493
10729SOL    HW244067   4.578   0.270   8.147 -0.9274  1.4166 -1.2260
10730SOL     OW44068   4.677   2.388  11.664 -0.2422 -0.4315  0.2919
10730SOL    HW144069   4.626   2.438  11.600  0.8539  0.2974 -0.0046
10730SOL    HW244070   4.617   2.320  11.694 -0.4050 -1.4228 -2.2973
10731SOL     OW44071   1.315   2.211   4.815  0.3688 -0.0965 -0.4432
10731SOL    HW144072   1.288   2.120   4.826  2.0444 -0.8899 -3.1360
10731SOL    HW244073   1.383   2.224   4.882  0.7432 -1.0570 -0.6370
10732SOL     OW44074   0.962   1.291   6.310 -0.0574  0.5588  0.4648
10732SOL    HW144075   1.000   1.366   6.265 -0.3847  0.9263  0.8114
10732SOL    HW244076   0.868   1.304   6.305 -0.1515 -0.5793 -0.7773
10733SOL     OW44077   0.119   1.624   0.129 -0.1000 -0.2403  0.1762
10733SOL    HW144078   0.037   1.577   0.110 -0.0499 -0.3316  0.1860
10733SOL    HW244079   0.091   1.703   0.175 -0.3447  0.7845 -1.7429
10734SOL     OW44080   4.365   2.631   3.141  0.2341 -0.1074 -0.6796
10734SOL    HW144081   4.451   2.637   3.098 -0.1428  0.7543 -1.3074
10734SOL    HW244082   4.315   2.570   3.086  0.0207  0.3728 -1.0188
10735SOL     OW44083   4.129   2.722   1.503 -0.1232  0.2100 -0.3121
10735SOL    HW144084   4.091   2.770   1.429 -1.5375  0.2968  0.4794
10735SOL    HW244085   4.110   2.775   1.580  0.2923 -0.4856  0.2809
10736SOL     OW44086   4.450   4.390  20.610 -0.0405  0.1467  0.4524
10736SOL    HW144087   4.428   4.334  20.536 -1.5559 -0.7798  1.6095
10736SOL    HW244088   4.546   4.396  20.608  0.0488 -1.5824 -0.3024
10737SOL     OW44089   3.253   4.157  20.563  0.8138 -0.5714  0.4510
10737SOL    HW144090   3.167   4.116  20.557  0.3226  0.2442  1.7335
10737SOL    HW244091   3.300   4.127  20.485 -0.2644 -1.8613  0.2902
10738SOL     OW44092   4.371   4.716   0.576 -0.0309 -0.0023  0.4468
10738SOL    HW144093   4.386   4.629   0.614 -2.0889 -0.6489 -0.2008
10738SOL    HW244094   4.368   4.701   0.481 -1.9144  0.5465  0.4199
10739SOL     OW44095   1.350   3.398  21.174 -0.4351  0.3738 -0.5450
10739SOL    HW144096   1.421   3.404  21.109  0.6203  1.3830  0.6992
10739SOL    HW244097   1.388   3.435   0.058 -1.2097 -2.3959  1.0916
10740SOL     OW44098   1.878   4.239  17.353  0.8111  0.4067  0.5014
10740SOL    HW144099   1.884   4.260  17.447  1.6194  1.7716  0.1376
10740SOL    HW244100   1.964   4.204  17.331  0.9428  1.0378  0.0261
10741SOL     OW44101   1.936   0.159   9.941 -0.3310 -0.5592  0.1856
10741SOL    HW144102   1.955   0.252   9.955  1.5223 -0.8879 -0.1843
10741SOL    HW244103   1.916   0.153   9.847  3.3531 -1.2128 -0.5494
10742SOL     OW44104   3.186   2.869   3.102  0.4371  0.0151  0.2042
10742SOL    HW144105   3.240   2.945   3.081  0.8552 -0.2465  0.3428
10742SOL    HW244106   3.238   2.794   3.073 -0.3145 -0.1732 -0.6466
10743SOL     OW44107   2.413   2.372  17.657  0.5590 -0.2884 -0.1490
10743SOL    HW144108   2.386   2.304  17.596  1.6336 -2.1911  1.4802
10743SOL    HW244109   2.371   2.452  17.626  0.4275 -1.4422 -2.8616
10744SOL     OW44110   4.110   4.390   1.608 -0.3357  0.0445  0.2591
10744SOL    HW144111   4.117   4.334   1.531 -0.8590  0.1062  0.1673
10744SOL    HW244112   4.160   4.343   1.676  1.1256  0.5821 -0.4511
10745SOL     OW44113   1.367   2.223  18.541  0.2341  0.6274  0.1047
10745SOL    HW144114   1.273   2.220  18.526 -0.1963  1.1697  2.7000
10745SOL    HW244115   1.401   2.146  18.495 -1.8483 -1.3109  1.8241
10746SOL     OW44116   2.491   3.091   5.229  0.2854 -0.2119  0.1679
10746SOL    HW144117   2.565   3.071   5.172  0.5406  0.2465  0.3426
10746SOL    HW244118   2.496   3.185   5.244 -0.5355 -0.1203 -0.1008
10747SOL     OW44119   1.924   2.937  18.313 -0.4453  0.7211 -0.0621
10747SOL    HW144120   1.966   3.018  18.342  1.2843 -1.0145  2.1849
10747SOL    HW244121   1.833   2.947  18.341 -0.3174  2.0528 -0.1076
10748SOL     OW44122   2.877   0.266  16.044 -0.1639  0.0361 -0.2190
10748SOL    HW144123   2.929   0.345  16.028 -1.4087  1.0312  0.6141
10748SOL    HW244124   2.794   0.282  15.999 -0.0363 -1.2014 -0.8669
10749SOL     OW44125   3.308   2.723  10.890  0.1166  0.1260  0.5556
10749SOL    HW144126   3.374   2.679  10.837 -1.1930 -1.2169  0.0160
10749SOL    HW244127   3.260   2.779  10.828 -0.9514 -0.9017  0.4465
10750SOL     OW44128   3.203   0.698  19.485  0.4074 -0.1363 -0.0480
10750SOL    HW144129   3.212   0.671  19.576  0.4620 -1.8188 -0.5613
10750SOL    HW244130   3.291   0.724  19.458  0.7842 -1.7403 -0.3105
10751SOL     OW44131   4.718   4.721  13.129 -0.0978  0.0663  0.0090
10751SOL    HW144132   4.673   0.012  13.180 -0.3469 -0.1180  0.0291
10751SOL    HW244133   4.649   4.661  13.101  0.3296 -1.0045  1.2515
10752SOL     OW44134   3.740   1.104   5.518 -0.3141 -0.2839  0.8641
10752SOL    HW144135   3.772   1.186   5.556 -0.2484  0.6691 -1.2644
10752SOL    HW244136   3.812   1.042   5.532  0.7272  0.7306  0.0068
10753SOL     OW44137   1.165   1.920  17.239 -0.6044 -0.3402 -0.0230
10753SOL    HW144138   1.073   1.911  17.213 -0.4550 -0.3481 -0.5545
10753SOL    HW244139   1.204   1.834  17.219  0.0543  0.4111 -1.9768
10754SOL     OW44140   1.481   0.649   2.882 -0.8204 -0.6614  0.0936
10754SOL    HW144141   1.565   0.608   2.901 -0.7363  0.0249  1.1801
10754SOL    HW244142   1.466   0.632   2.789  0.3355 -1.1106 -0.0012
10755SOL     OW44143   2.960   1.665  14.784 -0.0275  0.1176 -0.0375
10755SOL    HW144144   2.944   1.756  14.757  1.6535  0.3657 -0.1710
10755SOL    HW244145   2.991   1.622  14.705  2.6465  0.2809  0.9405
10756SOL     OW44146   1.806   2.283  15.279 -0.3676 -0.7396 -0.5424
10756SOL    HW144147   1.830   2.353  15.219 -0.7253 -2.0668 -2.2359
10756SOL    HW244148   1.886   2.268  15.330 -0.1594  0.6048 -0.4800
10757SOL     OW44149   1.283   3.658  12.385 -0.1380  0.0847  0.1739
10757SOL    HW144150   1.354   3.606  12.345 -0.0445  0.4671 -0.1487
10757SOL    HW244151   1.328   3.735  12.420 -0.8051  1.6555 -2.4248
10758SOL     OW44152   4.087   4.709  18.614 -0.5030 -0.3667  0.3048
10758SOL    HW144153   4.102   4.653  18.538 -0.7684 -0.4541  0.3190
10758SOL    HW244154   4.105   4.653  18.689 -2.1712 -0.8214  0.3430
10759SOL     OW44155   4.615   0.848  11.223  0.1877  0.2329  0.1723
10759SOL    HW144156   4.608   0.867  11.317 -0.0498  0.4153  0.1187
10759SOL    HW244157   4.639   0.931  11.183  0.1832  0.1799  0.0582
10760SOL     OW44158   2.476   1.346  17.204  0.2214  0.0995  0.3072
10760SOL    HW144159   2.447   1.268  17.252 -0.7414 -0.7164 -1.5878
10760SOL    HW244160   2.571   1.343  17.208  0.2391 -2.2954 -1.5215
10761SOL     OW44161   3.170   4.632  10.187 -0.4588  0.1036 -0.0027
10761SOL    HW144162   3.236   4.626  10.256 -0.5796  0.4564  0.1435
10761SOL    HW244163   3.197   4.567  10.122  0.1247  0.3706 -0.0232
10762SOL     OW44164   0.526   1.059   3.946 -0.6796  0.3750 -0.3011
10762SOL    HW144165   0.500   1.010   4.024  1.1429  0.6613  0.4903
10762SOL    HW244166   0.452   1.049   3.886 -2.3258  0.6425  1.6778
10763SOL     OW44167   3.452   2.589  20.919 -0.0545 -0.0151 -0.1168
10763SOL    HW144168   3.517   2.528  20.955  0.3410  1.8640  2.3539
10763SOL    HW244169   3.505   2.659  20.881 -0.5892  0.6179  0.3035
10764SOL     OW44170   1.132   3.355   7.371  0.7270  0.5178 -0.3886
10764SOL    HW144171   1.227   3.355   7.362  0.5864  3.7193 -1.8030
10764SOL    HW244172   1.102   3.294   7.304  1.8494 -1.1528  0.6313
10765SOL     OW44173   3.722   0.525   9.791  0.1300  0.6911 -0.1737
10765SOL    HW144174   3.789   0.491   9.850 -0.3957 -1.1624 -0.6523
10765SOL    HW244175   3.649   0.464   9.800 -1.0871  2.1080 -0.4664
10766SOL     OW44176   3.374   4.143  15.224 -0.3022  0.4735 -0.2935
10766SOL    HW144177   3.359   4.086  15.149  0.6551  1.0951 -0.9644
10766SOL    HW244178   3.420   4.088  15.287  1.5608  0.8088 -1.3655
10767SOL     OW44179   1.769   2.666  19.642  0.2016 -0.2193 -0.3180
10767SOL    HW144180   1.820   2.621  19.709  0.5662  2.0729  0.9567
10767SOL    HW244181   1.704   2.717  19.692 -0.5871  0.1772 -1.7595
10768SOL     OW44182   3.599   1.606   2.792  0.3593  0.6231  0.4959
10768SOL    HW144183   3.670   1.659   2.756 -0.0679 -0.0235 -1.3103
10768SOL    HW244184   3.586   1.536   2.728 -0.9074 -0.1007  1.5410
10769SOL     OW44185   4.762   3.831  17.611  0.9538  0.0536  0.7941
10769SOL    HW144186   4.772   3.741  17.580 -1.1072  0.1756 -0.2492
10769SOL    HW244187   0.074   3.857  17.638  2.3670 -0.8157 -2.9134
10770SOL     OW44188   1.092   3.751  12.775  1.1314  0.8948 -0.0083
10770SOL    HW144189   1.103   3.765  12.869 -2.0871 -2.5542  0.8900
10770SOL    HW244190   1.058   3.834  12.742  1.0159  1.6943  2.0836
10771SOL     OW44191   1.195   0.421  12.335  0.5234  0.0725 -0.6861
10771SOL    HW144192   1.111   0.455  12.364 -0.5773 -2.7064 -0.5903
10771SOL    HW244193   1.213   0.468  12.254 -0.1160  2.2097  0.4191
10772SOL     OW44194   4.465   0.427   6.307 -0.0292 -0.3517  0.8640
10772SOL    HW144195   4.526   0.426   6.233 -1.2106 -0.8039 -0.1109
10772SOL    HW244196   4.484   0.508   6.353 -0.1499  0.5420 -0.6645
10773SOL     OW44197   1.265   3.147  19.956  0.3102  0.9350 -0.2729
10773SOL    HW144198   1.188   3.099  19.986  0.1281  1.4178  0.0272
10773SOL    HW244199   1.250   3.160  19.862 -0.3169  1.6723 -0.0717
10774SOL     OW44200   1.403   0.010  17.012  0.0859 -0.0460 -0.1980
10774SOL    HW144201   1.466   0.079  17.034  0.4921 -0.6689  0.6042
10774SOL    HW244202   1.339   0.013  17.084  0.4166 -0.8826  0.1288
10775SOL     OW44203   2.036   1.983  18.749 -0.1847 -0.1404  0.4493
10775SOL    HW144204   2.128   1.972  18.726 -0.6020 -0.8102 -0.8925
10775SOL    HW244205   2.034   2.062  18.802  0.7662  1.4308 -1.8607
10776SOL     OW44206   2.814   3.502   9.309  0.7275  0.0555  0.3987
10776SOL    HW144207   2.738   3.486   9.365  0.4811  0.0380  0.0583
10776SOL    HW244208   2.815   3.597   9.298  1.5901  0.1818  1.5765
10777SOL     OW44209   2.579   3.806   4.801 -0.1708 -0.7850 -0.0057
10777SOL    HW144210   2.485   3.823   4.805  0.0719  0.4514  0.3213
10777SOL    HW244211   2.591   3.760   4.717 -0.6969  1.3665 -1.2699
10778SOL     OW44212   3.208   1.003   3.817 -0.1500 -0.3439  0.2699
10778SOL    HW144213   3.288   0.967   3.780 -0.0386  0.6702 -0.4927
10778SOL    HW244214   3.137   0.960   3.770 -0.0492 -1.2657  0.9684
10779SOL     OW44215   0.961   3.439  19.567 -0.6478  0.6370  0.4284
10779SOL    HW144216   0.878   3.444  19.521  0.3213  3.3397 -0.9985
10779SOL    HW244217   0.971   3.525  19.607  1.8699  0.5765 -0.0955
10780SOL     OW44218   2.407   2.369   7.295 -0.7233  0.2716  0.8942
10780SOL    HW144219   2.443   2.350   7.382  0.6605 -0.0655  0.2497
10780SOL    HW244220   2.341   2.301   7.281  0.6326 -1.0075  0.7341
10781SOL     OW44221   3.077   2.688  17.415 -0.4300  0.1594  0.2225
10781SOL    HW144222   3.112   2.599  17.418  0.0824  0.3785  0.6567
10781SOL    HW244223   3.067   2.713  17.506 -2.8154 -0.3419  0.1061
10782SOL     OW44224   2.565   0.748  16.083 -0.2298 -0.0717 -0.5543
10782SOL    HW144225   2.542   0.840  16.099  1.5517  0.5099 -1.3152
10782SOL    HW244226   2.650   0.737  16.126  0.0862 -1.0597 -1.4311
10783SOL     OW44227   3.428   3.003  13.408 -0.1994 -0.3072 -0.9473
10783SOL    HW144228   3.334   2.986  13.399 -0.1969 -1.5894  1.4129
10783SOL    HW244229   3.449   2.973  13.496  2.1158  1.4252 -0.9171
10784SOL     OW44230   3.201   3.659  19.245 -0.5262 -0.2619  0.4019
10784SOL    HW144231   3.275   3.621  19.198 -0.7446  1.0086 -0.9826
10784SOL    HW244232   3.224   3.752  19.253 -0.9130 -0.3189  1.9855
10785SOL     OW44233   3.149   1.965  18.753 -0.2834  0.3561  0.3312
10785SOL    HW144234   3.138   2.035  18.816 -0.2726 -0.1681  0.9137
10785SOL    HW244235   3.083   1.900  18.777 -0.2643  0.1482 -0.1766
10786SOL     OW44236   3.930   2.600  19.758  0.0013  0.0915  0.0192
10786SOL    HW144237   4.011   2.558  19.786  0.4386  0.9143 -0.0073
10786SOL    HW244238   3.862   2.559  19.812  0.4995 -0.2241  0.4105
10787SOL     OW44239   4.461   4.578  18.359  1.0978 -0.4195  0.1857
10787SOL    HW144240   4.451   4.525  18.280  2.7635 -0.9852  0.3392
10787SOL    HW244241   4.547   4.552  18.395  2.2980  2.9491 -0.1960
10788SOL     OW44242   2.481   1.215  21.117  0.0531 -0.5527  0.0160
10788SOL    HW144243   2.530   1.247  21.192 -0.8872 -0.7032  0.6868
10788SOL    HW244244   2.449   1.294  21.073  0.2271 -0.4802  0.0217
10789SOL     OW44245   3.774   3.360  18.867 -0.1614 -0.0304 -0.2385
10789SOL    HW144246   3.699   3.307  18.891 -1.2854  1.4194 -0.5619
10789SOL    HW244247   3.845   3.297  18.855 -1.3951 -1.4186 -0.2233
10790SOL     OW44248   0.482   0.440  17.769 -0.7920  0.7840  0.4316
10790SOL    HW144249   0.468   0.349  17.794 -0.7028  1.3024  2.3859
10790SOL    HW244250   0.560   0.437  17.713 -1.7895 -0.5548 -0.8867
10791SOL     OW44251   0.474   3.033  18.213  0.0661  0.2967  0.0548
10791SOL    HW144252   0.476   3.112  18.267  1.7161 -0.2452  0.7859
10791SOL    HW244253   0.458   3.065  18.124  0.7681  1.4529  0.3420
10792SOL     OW44254   4.594   0.432   3.139  0.0291 -0.6330  0.4909
10792SOL    HW144255   4.517   0.382   3.111  0.0894 -0.8788  0.7730
10792SOL    HW244256   4.641   0.373   3.197  0.3950 -0.4532  0.3727
10793SOL     OW44257   0.038   3.030  19.392 -0.2866  0.3046  0.3455
10793SOL    HW144258   0.078   3.089  19.327 -2.1289  1.4346  0.2455
10793SOL    HW244259   4.732   3.002  19.352  0.3070 -1.8645  0.6616
10794SOL     OW44260   4.018   1.202   1.041 -0.1710  0.4762 -0.1622
10794SOL    HW144261   3.999   1.295   1.055  1.0982  0.9289 -1.5177
10794SOL    HW244262   3.978   1.181   0.956 -0.0007 -0.1018 -0.1024
10795SOL     OW44263   2.347   0.647  17.900 -0.2193  0.4902 -0.2516
10795SOL    HW144264   2.286   0.700  17.951 -1.0017  0.9964 -1.7088
10795SOL    HW244265   2.432   0.689  17.911 -0.1506 -0.1490  1.6894
10796SOL     OW44266   3.971   3.405  10.480  0.2086 -0.5031 -0.5524
10796SOL    HW144267   3.949   3.423  10.571  1.1344 -1.6567 -0.0948
10796SOL    HW244268   3.895   3.359  10.446  0.3681 -1.1742 -0.0106
10797SOL     OW44269   0.343   2.618   7.464  0.2676 -0.5991 -0.4078
10797SOL    HW144270   0.307   2.706   7.473  0.4592 -0.5124 -0.4793
10797SOL    HW244271   0.403   2.624   7.390  0.2482 -0.8013 -0.4419
10798SOL     OW44272   4.205   1.227  15.227 -0.3406 -0.4840 -0.3252
10798SOL    HW144273   4.291   1.185  15.223  0.2079  0.6199 -0.4061
10798SOL    HW244274   4.220   1.308  15.277 -1.5925 -0.9000  0.7257
10799SOL     OW44275   3.237   1.431   7.035 -0.4543  0.1237 -0.3671
10799SOL    HW144276   3.229   1.526   7.028  1.5374  0.2384 -0.9867
10799SOL    HW244277   3.204   1.410   7.122  0.2033  1.5014  0.2079
10800SOL     OW44278   2.694   1.811   4.811 -0.8574 -0.7891 -0.0591
10800SOL    HW144279   2.612   1.845   4.774 -0.9881 -1.7725 -0.6807
10800SOL    HW244280   2.713   1.869   4.884 -1.4151  0.2421 -0.7319
10801SOL     OW44281   2.913   2.393   2.422 -0.1661 -0.0535 -0.3098
10801SOL    HW144282   2.980   2.409   2.488 -0.0912 -0.2653 -0.3356
10801SOL    HW244283   2.830   2.403   2.469 -0.1311  1.3364 -0.5339
10802SOL     OW44284   4.378   2.280  21.124 -0.0386  0.0621 -0.4781
10802SOL    HW144285   4.312   2.290  21.192  0.3576 -1.6171  0.1631
10802SOL    HW244286   4.339   2.219  21.062 -0.9191  2.6049 -2.4000
10803SOL     OW44287   3.173   2.324  20.148 -0.0918  0.4206 -0.4472
10803SOL    HW144288   3.101   2.355  20.093 -1.7682 -1.0297  0.9040
10803SOL    HW244289   3.229   2.273  20.089 -1.5853 -0.6611 -0.9349
10804SOL     OW44290   1.114   1.984  13.625  0.2586  0.6089 -0.5122
10804SOL    HW144291   1.200   1.943  13.630 -0.3113 -0.3289  1.6396
10804SOL    HW244292   1.065   1.928  13.564  0.7268  0.3188 -0.6234
10805SOL     OW44293   2.518   0.477  20.308 -0.0931 -0.2158  0.0869
10805SOL    HW144294   2.427   0.506  20.315  0.0272  0.1795 -0.0407
10805SOL    HW244295   2.514   0.383  20.330 -0.5430 -0.2217 -0.0161
10806SOL     OW44296   2.816   4.006   7.375 -0.0722  0.5434  0.0819
10806SOL    HW144297   2.758   3.986   7.448  0.0131  1.2765  0.3554
10806SOL    HW244298   2.771   4.075   7.327 -0.3559 -0.2856 -0.8368
10807SOL     OW44299   1.787   4.368   7.296  0.0257  0.4026 -0.8314
10807SOL    HW144300   1.786   4.433   7.366  2.4545 -2.5277  1.9548
10807SOL    HW244301   1.695   4.346   7.282 -0.4923  1.3622  1.1223
10808SOL     OW44302   4.099   3.801   4.814 -0.5238 -0.2458 -0.3721
10808SOL    HW144303   4.149   3.878   4.790 -1.2643  0.1325 -0.6935
10808SOL    HW244304   4.164   3.730   4.819  0.3307  0.6449  1.0992
10809SOL     OW44305   4.329   2.298   1.556  0.0990 -0.6045 -0.0291
10809SOL    HW144306   4.341   2.212   1.517 -1.0397 -1.2066  0.9685
10809SOL    HW244307   4.236   2.302   1.578  0.0136  1.1159 -0.6729
10810SOL     OW44308   1.074   2.409  20.159 -0.0521 -0.1533  0.3232
10810SOL    HW144309   1.158   2.364  20.169  1.3509  2.6607  1.0731
10810SOL    HW244310   1.047   2.430  20.249 -1.2041 -0.3904  0.0388
10811SOL     OW44311   1.901   0.919   8.502  0.7015  0.1999  0.1058
10811SOL    HW144312   1.984   0.882   8.472  0.3527  0.2794 -0.9814
10811SOL    HW244313   1.841   0.903   8.429 -0.3524 -0.2662  1.0812
10812SOL     OW44314   1.317   4.030   2.834  0.2647  0.0350  0.3090
10812SOL    HW144315   1.363   4.004   2.913  2.3467  2.0878 -0.1978
10812SOL    HW244316   1.257   4.099   2.862  0.9814  0.7420  0.1151
10813SOL     OW44317   3.923   2.077  11.565 -0.0755 -0.5483 -0.0112
10813SOL    HW144318   3.888   1.988  11.557  1.4502 -1.1228 -0.2065
10813SOL    HW244319   3.956   2.097  11.477  0.2095 -0.0433  0.2120
10814SOL     OW44320   1.320   2.201   4.012  0.2953  0.1253  0.4213
10814SOL    HW144321   1.264   2.139   3.965  0.8403 -0.6389  0.7975
10814SOL    HW244322   1.278   2.286   3.997 -1.0129 -0.4523  0.7564
10815SOL     OW44323   4.338   2.260  11.258  0.3227  0.1310 -0.0897
10815SOL    HW144324   4.341   2.293  11.168  1.5838  0.7090  0.1630
10815SOL    HW244325   4.371   2.170  11.252  3.4346  1.2416  0.2841
10816SOL     OW44326   0.567   2.983   1.485 -0.0242 -0.0372 -0.3954
10816SOL    HW144327   0.654   2.942   1.481 -0.1435 -0.3173 -0.0802
10816SOL    HW244328   0.507   2.910   1.496 -0.4504  0.0147 -2.3333
10817SOL     OW44329   3.402   0.279  20.765 -1.1135  0.0148 -0.2263
10817SOL    HW144330   3.417   0.191  20.800  0.3003  0.1642 -0.4282
10817SOL    HW244331   3.315   0.303  20.796 -0.7945 -0.7734  1.2744
10818SOL     OW44332   3.912   3.297  14.532  0.0637 -0.4966 -0.4203
10818SOL    HW144333   3.823   3.274  14.558 -0.6537  1.1267 -1.4942
10818SOL    HW244334   3.925   3.385  14.566  1.4488 -0.9541  0.2191
10819SOL     OW44335   2.076   3.663  15.263  0.3616 -0.2048  0.3978
10819SOL    HW144336   2.149   3.654  15.202  0.3733  0.6049  0.2921
10819SOL    HW244337   2.090   3.594  15.328  1.1313 -0.1540  0.2841
10820SOL     OW44338   1.168   1.196   5.224 -0.7447 -0.5854  0.1458
10820SOL    HW144339   1.226   1.264   5.259 -0.4363 -0.5664 -0.3902
10820SOL    HW244340   1.228   1.129   5.190 -1.0495 -1.1554  0.7477
10821SOL     OW44341   1.307   2.471   6.844  0.2767  0.8394  0.4797
10821SOL    HW144342   1.221   2.435   6.826  0.0282  1.1828  0.9624
10821SOL    HW244343   1.308   2.556   6.800  1.3383 -0.3223 -1.7572
10822SOL     OW44344   1.263   3.031  20.328  0.1609 -0.5626  0.1652
10822SOL    HW144345   1.278   3.099  20.261  0.8698 -2.1680 -1.3146
10822SOL    HW244346   1.254   3.080  20.409 -0.2632  1.3950 -1.0435
10823SOL     OW44347   3.902   2.635   5.029 -1.0848 -0.3673 -0.0229
10823SOL    HW144348   3.959   2.709   5.007  0.2093 -1.1062  0.8650
10823SOL    HW244349   3.814   2.666   5.009 -0.6150  1.7356  1.2368
10824SOL     OW44350   1.113   2.187  18.560  0.1381 -0.0930  0.5500
10824SOL    HW144351   1.126   2.258  18.623  0.8294 -0.6512  1.0334
10824SOL    HW244352   1.018   2.171  18.562 -0.1270  1.3712 -0.1659
10825SOL     OW44353   3.529   3.449   1.395 -0.1976  0.0450 -0.1913
10825SOL    HW144354   3.548   3.473   1.305  1.8031  2.8422  0.9597
10825SOL    HW244355   3.589   3.376   1.414  1.6867  1.6461 -0.0527
10826SOL     OW44356   4.504   1.374  17.166 -0.2167 -0.0070  0.1115
10826SOL    HW144357   4.412   1.390  17.146  0.0470  1.1961 -0.1109
10826SOL    HW244358   4.537   1.326  17.090 -0.5653 -0.1054  0.0243
10827SOL     OW44359   4.252   3.314   1.662 -0.4764  0.1783  0.2966
10827SOL    HW144360   4.195   3.379   1.620  0.1687 -0.4392 -1.5119
10827SOL    HW244361   4.334   3.361   1.679 -0.2052 -0.0139 -0.5023
10828SOL     OW44362   1.065   0.810  15.356  0.2212 -0.2035 -0.0256
10828SOL    HW144363   1.117   0.730  15.365 -0.3601 -0.6590 -0.6360
10828SOL    HW244364   1.018   0.798  15.273 -2.2422 -0.6124  1.4213
10829SOL     OW44365   1.381   1.577   5.027  0.3554 -0.2420 -0.4702
10829SOL    HW144366   1.434   1.572   5.107  0.9528  5.6704 -0.5131
10829SOL    HW244367   1.445   1.592   4.957 -0.6772 -0.2296 -1.3999
10830SOL     OW44368   3.317   1.183   6.560 -0.3944  0.0083  0.0733
10830SOL    HW144369   3.275   1.211   6.642  1.0052  0.4146  0.6405
10830SOL    HW244370   3.383   1.120   6.588  1.0868  1.2581 -0.6437
10831SOL     OW44371   1.709   4.377  20.366 -0.1238  0.0638  0.1055
10831SOL    HW144372   1.778   4.364  20.301  0.6592 -0.4444  1.0439
10831SOL    HW244373   1.639   4.423  20.318 -0.0291 -1.3475 -1.3840
10832SOL     OW44374   0.729   0.896  17.839 -0.4450 -1.1345 -0.5882
10832SOL    HW144375   0.779   0.894  17.758  0.8925 -0.9862  0.2308
10832SOL    HW244376   0.738   0.808  17.875 -2.4995 -1.7060 -1.4922
10833SOL     OW44377   4.006   4.261   0.885 -0.3492 -0.4138  0.5329
10833SOL    HW144378   3.979   4.349   0.909 -0.4235 -0.3903  0.3666
10833SOL    HW244379   4.088   4.273   0.837 -1.6456 -0.2353 -1.6270
10834SOL     OW44380   1.954   3.300  17.149  0.2830 -0.0614 -0.2099
10834SOL    HW144381   1.994   3.336  17.069 -0.3306  1.0090 -0.0385
10834SOL    HW244382   2.028   3.282  17.207  0.5925  0.9201 -0.3009
10835SOL     OW44383   3.680   0.471   6.325 -0.1014 -0.2008  0.4604
10835SOL    HW144384   3.751   0.411   6.348  0.2774 -0.3971 -1.2604
10835SOL    HW244385   3.722   0.556   6.314 -0.1455 -0.2929 -0.4437
10836SOL     OW44386   4.462   4.439  17.055 -0.1964 -0.0985 -0.3550
10836SOL    HW144387   4.421   4.484  16.980 -1.0463 -0.0528  0.1375
10836SOL    HW244388   4.526   4.502  17.088 -0.1089  0.0430 -0.7903
10837SOL     OW44389   1.638   1.613  10.210 -0.3651 -0.0036 -0.6073
10837SOL    HW144390   1.641   1.698  10.165  0.1696  1.7847  2.7879
10837SOL    HW244391   1.725   1.576  10.197  0.2077  1.0995  0.0833
10838SOL     OW44392   3.782   1.733  20.266  0.1411 -0.6427  0.3121
10838SOL    HW144393   3.801   1.657  20.321  1.5931 -0.2827  0.3227
10838SOL    HW244394   3.790   1.700  20.177 -0.9838 -0.9307  0.3221
10839SOL     OW44395   3.063   3.943  20.445 -0.0900 -0.0812  0.4619
10839SOL    HW144396   3.089   3.852  20.454  0.9038  0.1446 -0.1497
10839SOL    HW244397   2.967   3.940  20.440 -0.1005 -1.0151  1.2332
10840SOL     OW44398   2.832   4.455  12.578 -0.5239 -0.0843 -0.6297
10840SOL    HW144399   2.865   4.503  12.502 -2.1696  1.3243 -0.4655
10840SOL    HW244400   2.868   4.501  12.653  0.7802 -1.2389 -0.5517
10841SOL     OW44401   2.028   4.271   2.841 -0.1921 -0.2815 -0.4155
10841SOL    HW144402   1.983   4.242   2.921 -1.3949  1.5338 -0.4417
10841SOL    HW244403   2.092   4.202   2.824 -2.3903 -2.4547  0.1044
10842SOL     OW44404   4.124   2.389  11.414  0.5138 -0.2213 -0.4707
10842SOL    HW144405   4.072   2.319  11.374  0.2127 -0.1147 -0.2714
10842SOL    HW244406   4.204   2.393  11.362  0.8133 -1.1638 -0.0819
10843SOL     OW44407   2.313   0.392  19.552 -0.4274 -0.2586  0.1787
10843SOL    HW144408   2.328   0.455  19.482  0.1621 -1.5930 -0.9044
10843SOL    HW244409   2.383   0.410  19.615  0.5880 -0.7565 -0.7963
10844SOL     OW44410   3.779   3.971  18.251  0.5062  0.2742  0.5369
10844SOL    HW144411   3.685   3.978  18.236  0.5859 -0.2856 -0.2583
10844SOL    HW244412   3.813   4.059  18.231  0.0818  0.6367  1.3993
10845SOL     OW44413   3.914   0.432   0.826  0.1782  0.0785  0.2982
10845SOL    HW144414   3.896   0.363   0.762 -0.9890  0.6537  0.0087
10845SOL    HW244415   3.839   0.429   0.886  1.0629 -0.1736  1.3885
10846SOL     OW44416   2.222   0.604  20.369  0.3039  0.1760  0.2465
10846SOL    HW144417   2.172   0.528  20.339  2.2810 -0.7280 -0.8065
10846SOL    HW244418   2.172   0.638  20.443 -0.9024 -1.8079  0.3556
10847SOL     OW44419   1.696   2.830  14.007 -0.5839  0.4804  0.4176
10847SOL    HW144420   1.786   2.810  14.032  0.4850  1.4831 -2.5664
10847SOL    HW244421   1.653   2.745  14.000  0.4933 -0.0618  0.4676
10848SOL     OW44422   2.483   3.190   1.163  0.3017  0.0487 -0.0492
10848SOL    HW144423   2.426   3.139   1.106  0.6413 -0.4264  0.0378
10848SOL    HW244424   2.522   3.126   1.221 -0.1129  0.5491  0.7781
10849SOL     OW44425   4.741   3.165  12.147  0.2300  0.5533  0.2211
10849SOL    HW144426   0.051   3.184  12.186  0.5155  0.9905 -0.6112
10849SOL    HW244427   4.749   3.196  12.056 -1.3769  2.1544  0.6299
10850SOL     OW44428   2.547   0.415  16.596 -0.4521  0.3490 -0.6897
10850SOL    HW144429   2.603   0.490  16.578  2.5039 -1.6832 -0.0392
10850SOL    HW244430   2.482   0.447  16.658  0.7192  2.3864 -0.5172
10851SOL     OW44431   1.159   3.628   4.687  0.1510  0.1440  0.5135
10851SOL    HW144432   1.139   3.609   4.778  0.7992  0.3455  0.6964
10851SOL    HW244433   1.076   3.657   4.649  0.3156  1.9541  1.5264
10852SOL     OW44434   3.812   4.057  13.606 -0.2225 -0.1166 -0.2609
10852SOL    HW144435   3.720   4.078  13.594  0.0733  0.4423 -1.5831
10852SOL    HW244436   3.838   4.105  13.685 -1.3326 -1.1176  0.7038
10853SOL     OW44437   0.708   4.221   8.632 -0.0048  0.2506  0.9901
10853SOL    HW144438   0.705   4.315   8.618  2.6437  0.5822  2.7065
10853SOL    HW244439   0.750   4.186   8.553 -0.1093  0.5828  0.7885
10854SOL     OW44440   0.572   4.529   1.541 -0.3108  0.0880  0.2057
10854SOL    HW144441   0.667   4.521   1.550 -0.1273 -0.6262 -2.4514
10854SOL    HW244442   0.539   4.439   1.539 -0.9796  0.3268  0.2694
10855SOL     OW44443   3.224   4.219   6.993 -0.8894  0.1343 -0.3816
10855SOL    HW144444   3.147   4.263   7.030 -0.3261  0.4339  0.4240
10855SOL    HW244445   3.224   4.132   7.034  1.2384  1.4094  2.2899
10856SOL     OW44446   2.489   2.993   0.171 -0.0323  0.3194  0.1347
10856SOL    HW144447   2.505   3.008   0.264  0.1541 -1.0851  0.3303
10856SOL    HW244448   2.552   3.050   0.126 -1.0367  2.0000  0.8636
10857SOL     OW44449   4.028   2.779  16.162 -0.1143  0.4455 -0.4167
10857SOL    HW144450   3.993   2.751  16.246 -1.3858  0.1103 -1.0538
10857SOL    HW244451   3.959   2.833  16.123  1.7712  3.2824  0.1776
10858SOL     OW44452   0.960   4.001   5.586 -0.6687 -0.0270 -0.0804
10858SOL    HW144453   1.040   4.015   5.536  0.0062 -2.9130  0.1627
10858SOL    HW244454   0.973   4.050   5.667 -0.5400  2.2582 -1.5023
10859SOL     OW44455   2.630   3.145   5.514  0.0541  0.0884  0.7379
10859SOL    HW144456   2.593   3.057   5.516 -1.4488  0.6858 -1.2222
10859SOL    HW244457   2.718   3.133   5.477  0.5612 -0.8408  2.2316
10860SOL     OW44458   0.420   1.029  16.214 -0.5435  0.5956  0.3245
10860SOL    HW144459   0.458   1.020  16.127 -0.4512  1.7225  0.2411
10860SOL    HW244460   0.485   0.991  16.273  0.2058  1.5047  0.0795
10861SOL     OW44461   0.402   0.247  12.185 -0.3516  0.0083  0.6921
10861SOL    HW144462   0.416   0.167  12.237 -0.2456  0.3661  1.2201
10861SOL    HW244463   0.324   0.287  12.223 -0.4325  0.1293  0.3958
10862SOL     OW44464   2.240   3.635   6.771 -0.4243 -0.6296 -0.4312
10862SOL    HW144465   2.156   3.633   6.816 -0.1669 -0.9212  0.0259
10862SOL    HW244466   2.270   3.544   6.771  1.4082 -0.0247  2.2051
10863SOL     OW44467   4.390   2.542   5.155  0.5318 -0.7975 -0.1137
10863SOL    HW144468   4.428   2.455   5.146  3.6878  0.5165  0.4530
10863SOL    HW244469   4.432   2.594   5.086 -2.3300 -0.0574 -1.3306
10864SOL     OW44470   0.367   0.520   0.311  0.2516 -0.5315  0.4095
10864SOL    HW144471   0.403   0.562   0.389 -0.0474  0.9368 -0.2340
10864SOL    HW244472   0.444   0.506   0.255  0.2944 -0.4290  0.4413
10865SOL     OW44473   3.092   1.153  17.913  0.6258 -0.2428  0.3002
10865SOL    HW144474   3.180   1.189  17.905  0.0753  1.4210  1.8283
10865SOL    HW244475   3.041   1.222  17.955 -1.2263 -1.5080  0.1468
10866SOL     OW44476   0.242   2.217   9.028  0.5488 -0.6426  0.2628
10866SOL    HW144477   0.337   2.227   9.035  0.4303 -0.4619  1.7058
10866SOL    HW244478   0.207   2.299   9.064 -0.1338 -0.4384 -0.8801
10867SOL     OW44479   0.488   1.921   4.475 -0.2958  0.4348 -0.1514
10867SOL    HW144480   0.407   1.877   4.448  0.0150  0.0780 -0.5059
10867SOL    HW244481   0.521   1.869   4.548  0.0774  0.0755 -0.5778
10868SOL     OW44482   4.640   1.413  17.908 -0.1899 -0.0913 -0.0862
10868SOL    HW144483   4.658   1.335  17.961 -0.0913 -0.3429 -0.4946
10868SOL    HW244484   4.727   1.444  17.881 -0.1965  0.5163  0.5994
10869SOL     OW44485   1.646   4.291  19.198  0.1024  0.8714 -0.1987
10869SOL    HW144486   1.656   4.275  19.104  0.5462  0.1237 -0.0253
10869SOL    HW244487   1.581   4.361  19.204  1.5170  2.2781 -1.1443
10870SOL     OW44488   2.866   2.579   0.989 -0.4271 -0.7491  0.6186
10870SOL    HW144489   2.836   2.551   0.902  2.2682  0.9188 -0.8505
10870SOL    HW244490   2.889   2.497   1.033  1.3582 -1.3658 -1.4186
10871SOL     OW44491   4.322   2.659  19.703  0.3502  0.6188 -0.0655
10871SOL    HW144492   4.263   2.692  19.635 -0.2043  0.0197  0.1210
10871SOL    HW244493   4.263   2.625  19.771  0.9121 -0.0538  0.0846
10872SOL     OW44494   2.547   3.167  17.124 -0.1172  0.0271 -0.0871
10872SOL    HW144495   2.593   3.200  17.047 -0.2496  1.5213  0.4829
10872SOL    HW244496   2.498   3.242  17.157  1.1007 -0.2435  2.3166
10873SOL     OW44497   4.215   1.218   0.326 -0.1179 -0.6950  0.3369
10873SOL    HW144498   4.305   1.190   0.313 -0.2749 -0.2783 -1.5610
10873SOL    HW244499   4.177   1.152   0.385  1.2745 -1.1275  0.7391
10874SOL     OW44500   2.167   2.224   5.247  0.0652  0.5347  0.5948
10874SOL    HW144501   2.227   2.288   5.286  0.5104  0.3543  0.2039
10874SOL    HW244502   2.178   2.236   5.152 -0.1921  0.1966  0.5230
10875SOL     OW44503   3.318   2.178   1.657 -0.2297 -0.3853 -0.3122
10875SOL    HW144504   3.244   2.196   1.599  0.4448  0.1896 -0.9962
10875SOL    HW244505   3.381   2.133   1.601  0.9582  1.3302 -0.3583
10876SOL     OW44506   2.862   1.891   8.032 -0.0388  0.4591  0.4527
10876SOL    HW144507   2.770   1.911   8.050  0.0859  0.9910  0.4915
10876SOL    HW244508   2.860   1.838   7.952 -0.3966  0.2494  0.6005
10877SOL     OW44509   1.078   2.693  14.922  0.3241  0.3658  0.2417
10877SOL    HW144510   1.157   2.733  14.886 -0.1830  1.3396  0.2345
10877SOL    HW244511   1.022   2.678  14.846  1.2196 -1.9072  0.0276
10878SOL     OW44512   0.055   0.484  10.733  0.4194  0.2291 -0.4043
10878SOL    HW144513   4.750   0.506  10.687  0.3689  0.8807  0.0055
10878SOL    HW244514   0.033   0.491  10.826  0.3451 -1.7049 -0.2620
10879SOL     OW44515   1.889   1.866   5.265  0.3027  0.3270 -0.0927
10879SOL    HW144516   1.849   1.779   5.263  0.7071  0.1138  0.7576
10879SOL    HW244517   1.827   1.922   5.220 -0.7078 -0.1072  0.7502
10880SOL     OW44518   2.740   1.925   0.222  0.6015 -0.0832  0.1166
10880SOL    HW144519   2.806   1.958   0.283 -0.0272 -0.1004  0.8038
10880SOL    HW244520   2.782   1.852   0.178  0.1704 -1.6373  2.3111
10881SOL     OW44521   2.392   1.960  19.885 -0.3913  0.0833  0.8958
10881SOL    HW144522   2.437   1.910  19.953 -0.7758  0.1364  1.1933
10881SOL    HW244523   2.299   1.941  19.900 -0.3945 -0.8936 -0.3966
10882SOL     OW44524   0.180   4.305   1.458  0.2159  0.1832  0.0654
10882SOL    HW144525   0.118   4.361   1.412 -0.0076 -0.2876 -0.2124
10882SOL    HW244526   0.228   4.364   1.516  1.8027  1.0705 -2.1456
10883SOL     OW44527   2.197   0.194   1.518  0.3497  0.0220 -0.3709
10883SOL    HW144528   2.233   0.280   1.494  0.4450 -0.1771 -0.9338
10883SOL    HW244529   2.128   0.178   1.455 -0.3862  0.1656  0.3982
10884SOL     OW44530   3.468   0.558  17.800 -0.3157 -0.2176 -0.2261
10884SOL    HW144531   3.374   0.545  17.786 -0.1750  0.0126 -1.3780
10884SOL    HW244532   3.474   0.621  17.873 -1.0475 -0.0704 -0.2991
10885SOL     OW44533   1.579   0.916  20.982 -0.0639  0.4993 -0.3028
10885SOL    HW144534   1.648   0.862  21.021 -0.0237  0.2776 -0.6722
10885SOL    HW244535   1.563   0.875  20.897  0.8969  1.8667 -1.1473
10886SOL     OW44536   0.649   4.389   3.603  0.0084  0.0712  0.4621
10886SOL    HW144537   0.711   4.320   3.581 -0.8087 -0.0889 -1.3525
10886SOL    HW244538   0.571   4.343   3.634 -0.2507  0.2141  0.0142
10887SOL     OW44539   4.142   3.464  19.982  0.2186 -0.0917  0.0860
10887SOL    HW144540   4.164   3.496  19.895  0.7790  1.6998  0.9008
10887SOL    HW244541   4.215   3.407  20.006 -0.2217 -1.0653 -0.8568
10888SOL     OW44542   0.376   1.407  19.396 -0.0374 -0.0202  0.3948
10888SOL    HW144543   0.429   1.331  19.420 -1.5476 -1.5156 -1.0447
10888SOL    HW244544   0.413   1.437  19.313 -0.7244 -0.3891 -0.0458
10889SOL     OW44545   2.790   0.340  12.638 -0.3126  0.0756  0.5315
10889SOL    HW144546   2.750   0.413  12.590 -2.4998 -0.1047  2.0664
10889SOL    HW244547   2.884   0.359  12.637 -0.4291  0.4411 -3.1860
10890SOL     OW44548   4.253   1.859   4.324 -0.2039 -0.1941  0.3531
10890SOL    HW144549   4.273   1.937   4.376 -0.5698 -0.7643  1.3298
10890SOL    HW244550   4.318   1.795   4.352 -0.4214 -0.5107  0.1279
10891SOL     OW44551   1.194   0.739  12.320  0.0625 -0.0172 -0.5423
10891SOL    HW144552   1.138   0.814  12.299 -0.1466 -0.1288 -0.3845
10891SOL    HW244553   1.198   0.689  12.238  0.6968  0.4876 -0.8184
10892SOL     OW44554   1.437   1.659  17.472  0.8714 -0.4581  0.3359
10892SOL    HW144555   1.516   1.607  17.486  2.0795  1.6982  1.3944
10892SOL    HW244556   1.451   1.739  17.522 -1.8624  0.0375  0.2980
10893SOL     OW44557   2.604   3.559   2.312 -0.0656  0.3082  0.3451
10893SOL    HW144558   2.542   3.629   2.335  1.1404  2.1448 -1.9743
10893SOL    HW244559   2.687   3.587   2.351  0.4030  0.1393 -0.5344
10894SOL     OW44560   2.896   1.222  19.327  0.0076 -0.6836  0.2631
10894SOL    HW144561   2.968   1.244  19.385 -0.5218  0.5371  0.4555
10894SOL    HW244562   2.819   1.217  19.385 -0.9168  2.7038 -0.6579
10895SOL     OW44563   3.273   4.209  16.183  1.0096 -0.0204 -0.3471
10895SOL    HW144564   3.275   4.207  16.087 -0.2489 -0.2456 -0.3691
10895SOL    HW244565   3.308   4.124  16.209 -0.6331 -0.7681 -0.6233
10896SOL     OW44566   1.406   0.973  15.077 -0.0217  0.0143  0.3829
10896SOL    HW144567   1.356   0.897  15.046  0.9337  0.1702 -1.5240
10896SOL    HW244568   1.488   0.936  15.110 -0.0007  0.1108  0.4388
10897SOL     OW44569   4.390   1.320  17.407  0.0991  0.7975 -0.0502
10897SOL    HW144570   4.455   1.289  17.471 -1.6121 -0.3811  1.1316
10897SOL    HW244571   4.435   1.314  17.323  1.5439 -0.0071  0.7599
10898SOL     OW44572   1.589   2.980   7.798  0.5058  0.8839  0.1818
10898SOL    HW144573   1.601   2.895   7.839  0.6277  0.9469  0.2771
10898SOL    HW244574   1.673   2.997   7.754 -1.4456 -1.5750 -4.5060
10899SOL     OW44575   0.542   0.208  11.966 -0.4512 -0.2112  0.1497
10899SOL    HW144576   0.477   0.259  11.918  0.2197  0.4751 -0.0250
10899SOL    HW244577   0.505   0.199  12.054 -0.2876  1.0720  0.3453
10900SOL     OW44578   4.134   2.701  15.743 -0.5875  0.0438 -0.3178
10900SOL    HW144579   4.050   2.673  15.778 -0.0109  1.5884  2.3034
10900SOL    HW244580   4.113   2.753  15.665 -2.0326  0.5095  0.4005
10901SOL     OW44581   3.416   0.639  12.307  0.5739 -0.0206  0.3325
10901SOL    HW144582   3.402   0.580  12.234 -0.2053  1.9950 -1.1435
10901SOL    HW244583   3.502   0.614  12.342  1.5267 -0.1371 -2.0722
10902SOL     OW44584   0.944   1.843  17.825 -0.1502 -0.7202  0.2033
10902SOL    HW144585   0.928   1.933  17.795 -2.1785 -1.2624 -0.3247
10902SOL    HW244586   0.942   1.790  17.745 -1.3379 -1.5746  0.7967
10903SOL     OW44587   1.726   0.216   4.678  0.2169 -0.2563 -0.1170
10903SOL    HW144588   1.725   0.310   4.659 -0.9459 -0.8765 -3.0052
10903SOL    HW244589   1.645   0.200   4.726 -0.1188 -0.0181 -0.6132
10904SOL     OW44590   0.354   0.029   8.750  0.0812 -0.5491 -0.1155
10904SOL    HW144591   0.365   0.053   8.657  1.3610 -0.6649  0.0058
10904SOL    HW244592   0.415   0.087   8.796  0.7324 -1.7354  0.4955
10905SOL     OW44593   3.057   1.373  20.719  0.4720 -0.3275 -0.5203
10905SOL    HW144594   3.067   1.347  20.628  2.1597  0.5987 -0.5850
10905SOL    HW244595   3.145   1.396  20.748 -0.3943  1.3820  0.7414
10906SOL     OW44596   3.766   3.088   2.256 -0.0110  0.2732  0.2216
10906SOL    HW144597   3.843   3.052   2.212  0.3984 -0.0086  1.1791
10906SOL    HW244598   3.754   3.033   2.333 -0.3314  1.1998  0.8318
10907SOL     OW44599   2.540   3.246  18.819  0.2722 -0.3144 -0.2198
10907SOL    HW144600   2.497   3.233  18.734  2.4840  0.7510 -1.5052
10907SOL    HW244601   2.572   3.336  18.816  1.2019 -0.6002  1.3724
10908SOL     OW44602   2.370   1.400  20.920 -0.6029 -0.0873 -0.4479
10908SOL    HW144603   2.286   1.435  20.890 -0.8796  0.8627  1.4776
10908SOL    HW244604   2.426   1.405  20.843 -2.2082 -0.3694 -1.6340
10909SOL     OW44605   0.047   3.341   3.729 -0.0739 -0.4651  0.3863
10909SOL    HW144606   0.072   3.305   3.644 -1.5912 -0.7819  0.0738
10909SOL    HW244607   0.057   3.268   3.790 -0.2393 -0.6021  0.2517
10910SOL     OW44608   0.205   1.556  17.201  0.4463 -0.3172 -0.7711
10910SOL    HW144609   0.113   1.540  17.182 -0.0560 -0.7215  2.0838
10910SOL    HW244610   0.249   1.473  17.180 -0.0222 -0.5538 -0.8084
10911SOL     OW44611   1.453   0.366  18.013 -0.1847  0.4050 -0.5018
10911SOL    HW144612   1.366   0.371  18.053 -0.4705 -1.5356 -0.8839
10911SOL    HW244613   1.513   0.358  18.087 -0.5842 -1.4913 -0.3772
10912SOL     OW44614   1.875   0.082  18.260  0.1102  0.0886 -0.4393
10912SOL    HW144615   1.919   0.049  18.339 -0.5882 -1.5131 -0.7041
10912SOL    HW244616   1.915   0.033  18.188 -1.6973 -0.9756 -0.7379
10913SOL     OW44617   1.714   2.559  17.230 -0.5832  0.1658  0.4146
10913SOL    HW144618   1.645   2.623  17.246  0.2257  1.2234 -0.3202
10913SOL    HW244619   1.697   2.526  17.142  0.3467  1.0263 -0.0766
10914SOL     OW44620   0.720   4.198  21.066 -0.1463  0.0988  0.2280
10914SOL    HW144621   0.781   4.180  21.137  0.5659 -2.9394 -1.1789
10914SOL    HW244622   0.646   4.139  21.081 -1.5310  1.8344  0.3577
10915SOL     OW44623   3.200   3.731   6.766  0.0986  0.1663  0.1597
10915SOL    HW144624   3.282   3.692   6.796  0.9733  2.3854  0.6776
10915SOL    HW244625   3.227   3.806   6.713 -1.5604  0.0004 -0.9027
10916SOL     OW44626   2.606   3.420   1.294  0.0660  0.0512 -0.0883
10916SOL    HW144627   2.534   3.370   1.255  0.7772  1.1324 -2.8401
10916SOL    HW244628   2.684   3.367   1.278  0.0476 -0.5420  1.8126
10917SOL     OW44629   1.391   4.122   7.118  0.1584 -0.1881  0.3063
10917SOL    HW144630   1.325   4.055   7.133 -0.1615  0.5120  2.0317
10917SOL    HW244631   1.473   4.073   7.107 -0.6406 -1.0470 -1.7936
10918SOL     OW44632   3.129   1.863   1.839 -0.0026  0.0393 -0.3102
10918SOL    HW144633   3.128   1.770   1.814  1.0164 -0.2348  0.6370
10918SOL    HW244634   3.107   1.910   1.759 -3.0837 -1.1705 -0.1730
10919SOL     OW44635   1.368   2.529   1.090  0.3957  0.0082 -0.1220
10919SOL    HW144636   1.422   2.534   1.011 -0.4878  2.4072 -0.5641
10919SOL    HW244637   1.417   2.576   1.157 -2.0845  3.8704 -1.0457
10920SOL     OW44638   2.915   2.902  20.532  0.1725  0.5153 -0.6837
10920SOL    HW144639   2.975   2.830  20.550 -0.3211  0.6712  1.4607
10920SOL    HW244640   2.847   2.896  20.599 -0.1551  2.6396 -0.8104
10921SOL     OW44641   1.532   1.801   2.027 -0.4050 -0.4781  0.0307
10921SOL    HW144642   1.511   1.726   2.082 -1.2983  0.2328  0.6586
10921SOL    HW244643   1.569   1.865   2.087 -0.0198 -0.2559 -0.4389
10922SOL     OW44644   2.279   0.648   4.018 -0.0908  0.1978  0.3255
10922SOL    HW144645   2.248   0.732   4.051  1.4594  0.9543 -0.1319
10922SOL    HW244646   2.203   0.590   4.024 -1.3516  1.8183 -0.0221
10923SOL     OW44647   2.173   1.432  16.594 -0.5095 -0.4952  0.6356
10923SOL    HW144648   2.242   1.445  16.658 -0.5264 -0.9319  0.7445
10923SOL    HW244649   2.139   1.520  16.576 -0.3569 -0.3536  1.0553
10924SOL     OW44650   4.472   2.396   7.451  0.3275 -0.3966  0.1728
10924SOL    HW144651   4.539   2.463   7.471 -0.3633  0.0545  0.9918
10924SOL    HW244652   4.512   2.343   7.382  1.2955  0.2457  0.2228
10925SOL     OW44653   2.871   0.239  14.624 -0.1262  0.1254  0.2327
10925SOL    HW144654   2.914   0.207  14.545  0.2067 -0.5559  0.6877
10925SOL    HW244655   2.812   0.307  14.594 -1.5348 -1.5896 -0.8460
10926SOL     OW44656   0.446   0.535   7.040 -0.6154 -0.0465  0.4472
10926SOL    HW144657   0.425   0.477   7.114 -2.1941 -2.2288 -1.7205
10926SOL    HW244658   0.379   0.604   7.044 -1.0933 -0.5202  0.6524
10927SOL     OW44659   2.884   2.442  17.254  0.3026 -0.0440 -0.2181
10927SOL    HW144660   2.902   2.527  17.216  0.5347  0.2701  0.5793
10927SOL    HW244661   2.821   2.401  17.195 -0.7817  1.1950  0.0967
10928SOL     OW44662   2.419   3.909   1.456  0.2472 -0.1283  0.0956
10928SOL    HW144663   2.342   3.853   1.460  0.9772 -0.9865  2.0524
10928SOL    HW244664   2.385   3.996   1.438 -1.0637 -0.7840 -0.5611
10929SOL     OW44665   1.218   2.731  21.165  0.1756  0.5608  0.0982
10929SOL    HW144666   1.284   2.680  21.118 -0.2710  0.3579 -0.3119
10929SOL    HW244667   1.163   2.768  21.096 -0.8748 -0.2787  0.4827
10930SOL     OW44668   1.182   3.873   5.011  0.1672 -0.4064 -0.2171
10930SOL    HW144669   1.195   3.932   5.085 -1.0217  1.3847 -1.4230
10930SOL    HW244670   1.163   3.788   5.050 -1.6757  0.8056  1.5279
10931SOL     OW44671   1.944   0.852  21.075  0.1728  0.1146 -0.0586
10931SOL    HW144672   2.007   0.789  21.111  0.5292  0.1818 -0.5539
10931SOL    HW244673   1.983   0.938  21.094  1.0866  0.1134 -1.9014
10932SOL     OW44674   2.283   2.469   2.464 -0.0775 -0.0563 -0.1168
10932SOL    HW144675   2.243   2.522   2.533  2.1469  0.0874  1.0608
10932SOL    HW244676   2.241   2.499   2.383 -0.6198  1.7702  0.8348
10933SOL     OW44677   1.349   0.045  12.196 -0.1118  0.2559  0.4812
10933SOL    HW144678   1.258   0.054  12.223  0.0438  0.1597  1.0226
10933SOL    HW244679   1.384   0.134  12.198 -0.1267  0.2613  0.4982
10934SOL     OW44680   4.198   0.109   1.838 -0.3599  0.0651 -0.3998
10934SOL    HW144681   4.181   0.197   1.872  0.5471  0.2606 -0.4715
10934SOL    HW244682   4.132   0.054   1.882  0.7551  0.3348  1.6188
10935SOL     OW44683   4.403   1.265   8.110  0.2192 -0.3944 -0.3404
10935SOL    HW144684   4.344   1.331   8.075 -0.4421 -0.6241  0.3409
10935SOL    HW244685   4.491   1.302   8.097 -0.3978  2.7045  4.3925
10936SOL     OW44686   3.171   1.644   1.637  0.6097 -0.3726  0.0936
10936SOL    HW144687   3.206   1.555   1.635  1.3865 -0.0944  1.3962
10936SOL    HW244688   3.076   1.633   1.634  0.7247 -1.2364 -0.1416
10937SOL     OW44689   3.891   1.142  14.614 -0.2704  0.6004 -0.2886
10937SOL    HW144690   3.881   1.060  14.564 -1.5563  1.1755 -0.9799
10937SOL    HW244691   3.985   1.151  14.625 -0.1214 -1.0256 -0.1391
10938SOL     OW44692   2.461   0.254   0.735 -0.2210  0.4936  0.1315
10938SOL    HW144693   2.370   0.235   0.756 -0.3948  0.5905 -0.5190
10938SOL    HW244694   2.499   0.169   0.713  0.1496  0.2981  1.5752
10939SOL     OW44695   1.571   1.229  17.172  0.4112 -0.1310  0.2811
10939SOL    HW144696   1.638   1.161  17.179  0.0670 -0.3829  1.1256
10939SOL    HW244697   1.603   1.287  17.103  0.9474 -0.8807 -0.0982
10940SOL     OW44698   4.046   0.223  16.719  0.0063 -0.2846  0.1318
10940SOL    HW144699   3.953   0.205  16.711  0.0432 -0.7329  0.6486
10940SOL    HW244700   4.065   0.210  16.812  0.3976  0.7102  0.1936
10941SOL     OW44701   3.373   0.772  20.714 -0.0215 -0.0053 -0.2134
10941SOL    HW144702   3.305   0.828  20.751  0.6220  0.6159  0.0287
10941SOL    HW244703   3.429   0.750  20.788 -2.2625 -3.8351  0.3565
10942SOL     OW44704   2.818   3.488  17.593  0.2480  0.5956 -0.1277
10942SOL    HW144705   2.811   3.558  17.659 -0.6457  1.0760 -0.7374
10942SOL    HW244706   2.905   3.502  17.555  1.7279 -1.1345  2.5865
10943SOL     OW44707   1.127   4.153  19.220  0.0407 -0.4293 -0.7494
10943SOL    HW144708   1.087   4.165  19.306  0.2877 -0.1388 -0.6756
10943SOL    HW244709   1.222   4.158  19.237  0.0096  2.4249 -1.4665
10944SOL     OW44710   0.583   4.727  16.847  0.5185  0.0385  0.1498
10944SOL    HW144711   0.624   4.656  16.799 -1.5538  0.5883 -2.4488
10944SOL    HW244712   0.607   0.030  16.800 -1.5196  0.5801  0.0058
10945SOL     OW44713   2.115   0.133   8.540  0.1883 -0.0109  0.0703
10945SOL    HW144714   2.068   0.145   8.458 -0.1151  1.3978  0.4489
10945SOL    HW244715   2.208   0.142   8.515  0.1132  0.0840 -0.1789
10946SOL     OW44716   2.853   3.748  18.379  0.5506  0.1376 -0.4701
10946SOL    HW144717   2.814   3.685  18.439  1.0630 -0.1932 -0.4864
10946SOL    HW244718   2.779   3.802  18.349  0.3521  0.4976  0.6881
10947SOL     OW44719   4.129   4.601   3.522  0.6827  0.0953 -0.8824
10947SOL    HW144720   4.104   4.512   3.549 -0.3734 -0.1019 -2.4931
10947SOL    HW244721   4.110   4.655   3.598  0.5159 -0.9291 -0.1907
10948SOL     OW44722   3.779   3.581  20.715  0.0640 -0.0511 -0.2156
10948SOL    HW144723   3.854   3.628  20.753 -1.5481  3.2540 -1.1034
10948SOL    HW244724   3.712   3.584  20.784 -0.3937 -0.1658 -0.6572
10949SOL     OW44725   2.612   0.008  21.179  0.4926  0.0052  0.3546
10949SOL    HW144726   2.707   4.773  21.179  0.5465  0.4150 -1.4205
10949SOL    HW244727   2.599   0.098   0.013  0.7307  0.3026 -0.4003
10950SOL     OW44728   2.113   2.120   5.670 -0.4655  0.0830  0.1053
10950SOL    HW144729   2.044   2.178   5.636  2.8940  3.3371 -1.1496
10950SOL    HW244730   2.145   2.074   5.592 -0.7528 -0.9147  0.5857
10951SOL     OW44731   0.974   1.650  12.684 -0.0910 -0.2900 -0.2955
10951SOL    HW144732   1.043   1.603  12.731  1.1312  2.0154  0.1833
10951SOL    HW244733   0.893   1.608  12.713  0.9481 -1.6089  0.7175
10952SOL     OW44734   1.099   3.862  15.251 -0.4919 -0.3424 -0.3361
10952SOL    HW144735   1.017   3.864  15.201  0.4165 -2.9269 -1.9683
10952SOL    HW244736   1.104   3.772  15.284  1.4869 -0.0736  0.0782
10953SOL     OW44737   2.485   0.675  18.286  0.2297  0.3340  0.3495
10953SOL    HW144738   2.422   0.746  18.302  1.2067  0.9479  1.4706
10953SOL    HW244739   2.555   0.691  18.349  0.7530 -1.2655  0.1628
10954SOL     OW44740   2.588   4.106   3.235 -0.0688 -0.6216  0.2951
10954SOL    HW144741   2.517   4.059   3.190  0.0831 -2.5050  2.0250
10954SOL    HW244742   2.545   4.147   3.310  0.7579 -1.9673  1.4819
10955SOL     OW44743   2.785   0.475  13.058  0.4963  0.5027  0.0383
10955SOL    HW144744   2.852   0.529  13.016  0.3668 -1.1312 -2.2866
10955SOL    HW244745   2.833   0.401  13.094 -0.1003 -0.9047 -2.0310
10956SOL     OW44746   0.155   4.652  17.499 -0.4576  0.7888  0.2198
10956SOL    HW144747   0.225   4.698  17.546  0.3375  1.3552 -1.5047
10956SOL    HW244748   0.163   4.683  17.409 -2.2521  0.0225 -0.1926
10957SOL     OW44749   2.417   0.255  18.647 -0.0130  0.2954 -0.7332
10957SOL    HW144750   2.440   0.343  18.618 -1.6109  0.9278 -0.0440
10957SOL    HW244751   2.387   0.266  18.737 -0.5892 -0.9037 -0.7798
10958SOL     OW44752   0.780   3.675   4.003  0.3823 -0.1148  0.3265
10958SOL    HW144753   0.727   3.753   4.022 -0.1063 -0.5589  0.7982
10958SOL    HW244754   0.789   3.675   3.908 -0.8282 -0.2716  0.2076
10959SOL     OW44755   0.728   3.405  19.123  0.4063 -0.2593 -0.4567
10959SOL    HW144756   0.701   3.446  19.041  0.4446 -1.2489 -0.9569
10959SOL    HW244757   0.681   3.322  19.125 -0.5095  0.2879  1.0880
10960SOL     OW44758   1.441   0.434   5.637 -0.1802  0.1009 -0.0703
10960SOL    HW144759   1.446   0.430   5.732 -1.6389 -1.4214 -0.0677
10960SOL    HW244760   1.512   0.378   5.607 -0.4359 -0.3111  0.1039
10961SOL     OW44761   2.958   3.818   0.694 -0.0747 -0.2457 -0.2394
10961SOL    HW144762   2.870   3.853   0.704  0.0064 -0.8212  2.5339
10961SOL    HW244763   2.946   3.739   0.642 -1.3351 -0.8758  0.9992
10962SOL     OW44764   2.094   3.228   2.996 -0.0128 -0.2311  0.3892
10962SOL    HW144765   2.080   3.299   2.934  1.5879 -0.4574 -0.2270
10962SOL    HW244766   2.125   3.272   3.075  1.1515 -0.2744 -0.0513
10963SOL     OW44767   4.728   0.793  10.599  0.3461 -0.0690 -0.2747
10963SOL    HW144768   4.775   0.766  10.520  1.6035  0.5139  0.2764
10963SOL    HW244769   4.724   0.714  10.653 -0.7895 -0.5490 -1.0546
10964SOL     OW44770   1.748   0.699   8.737 -0.2904  0.2035  0.4770
10964SOL    HW144771   1.661   0.741   8.737  0.1299  1.0644  3.2869
10964SOL    HW244772   1.733   0.612   8.773  0.2180  0.7487  1.9921
10965SOL     OW44773   3.944   3.122   2.708  0.1163 -0.2486  0.8122
10965SOL    HW144774   3.860   3.147   2.746  0.6470  1.0358  1.1518
10965SOL    HW244775   3.947   3.170   2.625  0.0419 -1.1221  0.3068
10966SOL     OW44776   1.155   4.056   6.032 -0.6283  0.3661 -0.2582
10966SOL    HW144777   1.118   4.087   5.949 -1.4232  1.1867  0.3955
10966SOL    HW244778   1.162   3.961   6.021  1.5910  0.7478 -2.1913
10967SOL     OW44779   1.160   0.755  20.932  0.3942  0.0079 -0.0621
10967SOL    HW144780   1.193   0.799  21.010 -0.4064  0.5974 -0.0575
10967SOL    HW244781   1.068   0.780  20.927  0.4081 -0.1450 -1.1186
10968SOL     OW44782   0.373   4.172  15.592  0.3373  0.2812 -0.3268
10968SOL    HW144783   0.431   4.220  15.651  1.7289 -0.1128 -1.3814
10968SOL    HW244784   0.410   4.186  15.505  0.9504 -3.0172 -0.5826
10969SOL     OW44785   1.623   1.858  15.346 -0.2686  0.0708 -0.2003
10969SOL    HW144786   1.675   1.781  15.323  1.6955  0.9679  1.2004
10969SOL    HW244787   1.575   1.880  15.266 -0.2739 -2.1547 -0.8162
10970SOL     OW44788   0.392   0.875  17.926  0.3667  0.1630 -0.2669
10970SOL    HW144789   0.446   0.954  17.918  1.1247 -0.1580  1.6954
10970SOL    HW244790   0.356   0.862  17.839  0.2577  2.6769 -0.5832
10971SOL     OW44791   1.310   3.466  19.555  0.1299  0.1221 -0.7273
10971SOL    HW144792   1.398   3.471  19.517  0.2061  0.6529 -0.4741
10971SOL    HW244793   1.252   3.453  19.480  0.5557 -1.5584 -0.7702
10972SOL     OW44794   2.165   2.743  16.943 -0.0346 -0.3538  0.4531
10972SOL    HW144795   2.112   2.671  16.979 -0.4542 -0.0215  0.4957
10972SOL    HW244796   2.241   2.746  17.000  0.0121 -0.8046  0.4190
10973SOL     OW44797   1.782   4.489   2.266 -0.0752  0.4481 -0.2558
10973SOL    HW144798   1.715   4.425   2.242 -0.0933  1.0211 -1.7695
10973SOL    HW244799   1.847   4.439   2.315 -0.5023 -0.5730 -0.7357
10974SOL     OW44800   1.776   3.311   4.500  0.4914 -0.2150 -0.2847
10974SOL    HW144801   1.831   3.332   4.424  2.3253 -1.8937  0.5772
10974SOL    HW244802   1.816   3.358   4.573  0.4745 -0.9933  0.2320
10975SOL     OW44803   1.249   1.167   3.722 -0.4039  0.4805 -0.3559
10975SOL    HW144804   1.211   1.222   3.790 -0.9035  0.0268 -0.2748
10975SOL    HW244805   1.341   1.159   3.746 -0.0236  2.4593 -1.1276
10976SOL     OW44806   3.335   1.243  17.660 -0.4149 -0.6701 -0.9598
10976SOL    HW144807   3.352   1.152  17.686  0.4425 -0.2433 -0.0176
10976SOL    HW244808   3.420   1.274  17.628 -0.2408  0.4140  0.5543
10977SOL     OW44809   1.693   3.410  17.445 -0.6700 -0.5186  0.1181
10977SOL    HW144810   1.600   3.389  17.439 -1.0569  1.7274 -1.4111
10977SOL    HW244811   1.705   3.441  17.535 -1.6175  0.3816 -0.0736
10978SOL     OW44812   1.631   1.769  15.714 -0.4797  0.1081  0.0643
10978SOL    HW144813   1.585   1.754  15.797 -0.5248 -2.5482 -0.4494
10978SOL    HW244814   1.723   1.751  15.735 -0.4373 -0.1726 -0.3835
10979SOL     OW44815   2.318   3.352   3.512 -0.3733  0.5633  0.0028
10979SOL    HW144816   2.247   3.366   3.449  0.1009  1.2382 -0.3765
10979SOL    HW244817   2.282   3.288   3.574 -0.1577 -1.5298 -2.0214
10980SOL     OW44818   1.209   2.193  19.011 -0.2569 -0.8862 -0.2684
10980SOL    HW144819   1.195   2.204  19.105  0.0248  0.3087 -0.3709
10980SOL    HW244820   1.171   2.272  18.972  1.3178 -0.5109 -1.0123
10981SOL     OW44821   3.840   1.892   1.724  0.6860  0.3842 -0.0534
10981SOL    HW144822   3.823   1.911   1.632  0.0335  0.5839  0.1091
10981SOL    HW244823   3.911   1.827   1.722  0.9018  0.6379 -0.6816
10982SOL     OW44824   3.985   3.620  20.382  0.1100  0.0879 -0.1054
10982SOL    HW144825   3.906   3.666  20.354  1.8852  1.1121 -3.5281
10982SOL    HW244826   4.018   3.671  20.457 -1.2571  0.9372 -0.0942
10983SOL     OW44827   3.669   3.809  14.364  0.0428 -0.2638  0.3564
10983SOL    HW144828   3.719   3.865  14.424 -0.0774 -1.6948  1.7912
10983SOL    HW244829   3.584   3.798  14.406  0.6813 -2.9957  0.9227
10984SOL     OW44830   0.172   3.178  15.622  0.1497 -0.0927  0.0225
10984SOL    HW144831   0.093   3.230  15.611 -0.2513 -0.2585  2.0288
10984SOL    HW244832   0.142   3.098  15.666  1.1620 -0.8851 -0.7218
10985SOL     OW44833   1.095   1.351  20.667 -0.3999  0.1279  0.7538
10985SOL    HW144834   1.123   1.360  20.758 -0.5200 -0.0738  0.8116
10985SOL    HW244835   1.076   1.257  20.657 -0.1622  0.1120  0.4571
10986SOL     OW44836   4.608   1.099  16.657  0.7670 -0.4098 -0.0200
10986SOL    HW144837   4.666   1.174  16.653  2.4642 -1.7168 -0.0717
10986SOL    HW244838   4.526   1.130  16.619  0.5959  2.2154  2.5542
10987SOL     OW44839   1.243   4.103  15.203 -0.4305 -0.5884  0.0276
10987SOL    HW144840   1.179   4.033  15.214 -0.0636 -0.8509  0.4477
10987SOL    HW244841   1.298   4.075  15.130 -0.1439 -0.8366  0.3418
10988SOL     OW44842   0.636   4.239  20.457  0.5236  0.1895 -0.5570
10988SOL    HW144843   0.705   4.211  20.517  2.2253  2.3415 -1.5308
10988SOL    HW244844   0.660   4.201  20.373  0.0643  0.1934 -0.6885
10989SOL     OW44845   0.378   4.121   5.348  0.2135  0.6159  0.3517
10989SOL    HW144846   0.429   4.198   5.371 -0.4199  1.4259 -0.9420
10989SOL    HW244847   0.304   4.155   5.297 -0.1019 -0.8241 -0.1600
10990SOL     OW44848   0.938   4.137   1.392 -0.2045 -0.1261  0.0588
10990SOL    HW144849   0.876   4.142   1.464  0.7196 -0.2964  0.8615
10990SOL    HW244850   1.024   4.140   1.433  0.3118  2.9704 -1.2654
10991SOL     OW44851   1.329   3.171  19.366  0.4504  0.1144  0.6039
10991SOL    HW144852   1.283   3.251  19.342  1.0304  0.0867 -0.5665
10991SOL    HW244853   1.293   3.148  19.452 -0.6931  0.8777  0.3238
10992SOL     OW44854   1.695   4.362   0.179 -0.3209 -0.7118  0.2355
10992SOL    HW144855   1.661   4.388   0.265 -0.5200 -1.0326  0.2536
10992SOL    HW244856   1.753   4.289   0.196 -0.1774 -0.6256  0.1220
10993SOL     OW44857   3.269   2.400   4.634  0.3296  0.1273 -0.0483
10993SOL    HW144858   3.321   2.404   4.554  1.1707 -2.2213  0.3852
10993SOL    HW244859   3.281   2.485   4.676  2.5736  0.1223 -0.7218
10994SOL     OW44860   2.050   3.183  18.406  0.5250 -0.2889 -0.4941
10994SOL    HW144861   2.014   3.268  18.380  0.9798  0.1258  0.2441
10994SOL    HW244862   2.087   3.198  18.492  1.3201 -1.0455 -0.7085
10995SOL     OW44863   3.672   3.272   2.037  0.4543 -0.3523 -0.4424
10995SOL    HW144864   3.576   3.278   2.036  0.5449  1.3546  1.6599
10995SOL    HW244865   3.692   3.207   2.104  0.8060 -0.4199 -0.6083
10996SOL     OW44866   4.640   3.847  12.204 -0.3877  0.4976  0.2377
10996SOL    HW144867   4.735   3.860  12.199 -0.2806 -0.2803  0.1327
10996SOL    HW244868   4.612   3.905  12.274  0.3255 -0.0547  0.9911
10997SOL     OW44869   3.592   0.922  17.284 -0.4914  0.6134 -0.2229
10997SOL    HW144870   3.674   0.878  17.258 -0.4984 -0.8479  2.2826
10997SOL    HW244871   3.565   0.970  17.205  2.5723  0.7685 -1.1774
10998SOL     OW44872   0.010   2.942   9.248 -0.5174 -0.5668 -0.1981
10998SOL    HW144873   0.073   2.924   9.179 -0.7966 -0.3492 -0.5092
10998SOL    HW244874   4.740   3.021   9.220 -0.5451 -0.4039  0.2929
10999SOL     OW44875   3.022   2.497   4.377 -0.0482 -0.2409  0.1397
10999SOL    HW144876   3.081   2.571   4.362 -1.3929  0.7400 -0.3746
10999SOL    HW244877   3.067   2.422   4.340  0.6066  0.6097 -0.7840
11000SOL     OW44878   2.689   2.986   4.460  0.2202 -0.1680 -0.2038
11000SOL    HW144879   2.724   2.908   4.417  1.3280  0.5804 -0.6670
11000SOL    HW244880   2.595   2.972   4.461  0.3652 -1.2381 -0.8324
11001SOL     OW44881   3.722   1.056   6.370  0.5159 -0.2936 -0.2518
11001SOL    HW144882   3.639   1.092   6.339  1.4693  0.7737 -1.5484
11001SOL    HW244883   3.779   1.056   6.294  1.9033 -0.4602  0.7771
11002SOL     OW44884   3.255   3.796  18.177  0.0014 -0.0801  0.0180
11002SOL    HW144885   3.214   3.742  18.244 -0.8606  0.9239  0.2879
11002SOL    HW244886   3.186   3.856  18.148  0.9837  0.9467 -0.2153
11003SOL     OW44887   2.814   1.346  21.072  0.0720  0.2698 -0.2227
11003SOL    HW144888   2.869   1.371  20.999 -2.7038  0.7157 -2.1731
11003SOL    HW244889   2.809   1.251  21.069  0.9438  0.2163  0.1083
11004SOL     OW44890   0.555   3.657  10.513 -0.4435  0.1184 -0.2080
11004SOL    HW144891   0.622   3.724  10.520  1.2417 -1.4170 -1.5894
11004SOL    HW244892   0.603   3.577  10.490 -2.1531 -2.0321  3.6069
11005SOL     OW44893   1.751   0.333  18.367  0.1550 -0.0348  0.2192
11005SOL    HW144894   1.822   0.364  18.423  1.0424 -0.0418 -0.9067
11005SOL    HW244895   1.792   0.271  18.307 -0.8637 -0.3125 -0.2000
11006SOL     OW44896   2.139   3.688   4.450 -0.2387  0.1927  0.3360
11006SOL    HW144897   2.073   3.711   4.384  0.3927  0.8459 -0.0697
11006SOL    HW244898   2.112   3.736   4.528 -0.7764 -0.2853  0.4440
11007SOL     OW44899   0.460   2.373   5.324 -0.1835 -0.5504 -0.0023
11007SOL    HW144900   0.540   2.400   5.369 -0.6214  0.0939  0.3766
11007SOL    HW244901   0.417   2.455   5.300 -0.2600 -0.8929 -1.0450
11008SOL     OW44902   3.362   2.817   0.615  0.0156 -0.0795  0.9915
11008SOL    HW144903   3.275   2.779   0.627 -1.1703  2.7200  1.0644
11008SOL    HW244904   3.401   2.815   0.702  0.3033 -1.9733  0.8332
11009SOL     OW44905   3.023   0.765   1.598 -0.5483 -0.0650  0.3628
11009SOL    HW144906   2.993   0.740   1.511 -0.2496 -2.0993  0.8340
11009SOL    HW244907   3.116   0.742   1.598  0.0597  2.4453  0.2847
11010SOL     OW44908   0.076   0.723   2.665 -0.0090  0.4129  0.1473
11010SOL    HW144909   0.074   0.731   2.570  0.2701 -0.6973  0.0480
11010SOL    HW244910   0.169   0.709   2.686 -0.5333 -2.7104  0.3149
11011SOL     OW44911   1.517   0.448  16.649  0.0827  0.1280 -0.1121
11011SOL    HW144912   1.425   0.450  16.620  0.0902 -5.0019 -0.5043
11011SOL    HW244913   1.566   0.426  16.570  1.5175  1.1632  0.4911
11012SOL     OW44914   1.183   3.183   3.548 -0.7007 -0.8890 -0.1951
11012SOL    HW144915   1.148   3.263   3.587  4.0347  0.7863  0.6225
11012SOL    HW244916   1.195   3.124   3.622  1.3904 -0.3025 -0.0894
11013SOL     OW44917   0.074   0.379  17.634 -0.8514  0.2685  0.4900
11013SOL    HW144918   0.155   0.429  17.623  0.3117 -1.9515 -1.1590
11013SOL    HW244919   0.082   0.338  17.720 -0.8823  1.2427  0.9570
11014SOL     OW44920   1.392   3.769  20.950 -0.0554  0.3157 -0.2120
11014SOL    HW144921   1.399   3.845  21.009  0.9799 -1.2093  1.6093
11014SOL    HW244922   1.482   3.746  20.929 -0.3698 -0.5907 -0.5790
11015SOL     OW44923   3.753   2.059   3.483 -0.3866  0.1312  0.1518
11015SOL    HW144924   3.749   2.131   3.420 -1.3897 -0.0397  0.0283
11015SOL    HW244925   3.683   2.077   3.546  0.2276 -0.0154  0.8870
11016SOL     OW44926   4.234   2.142  19.070 -0.3426  0.4994  0.4085
11016SOL    HW144927   4.262   2.214  19.127 -1.9909  1.2613  0.2525
11016SOL    HW244928   4.208   2.073  19.131 -0.4857  0.6980  0.5760
11017SOL     OW44929   1.900   0.577   0.089 -0.4662 -0.1054  0.3724
11017SOL    HW144930   1.956   0.541   0.157 -0.6124 -1.3329 -0.1638
11017SOL    HW244931   1.960   0.594   0.015  0.0150  2.9006  1.4313
11018SOL     OW44932   0.994   4.728   1.999  0.2203 -0.3537  0.1936
11018SOL    HW144933   1.071   4.757   1.950 -0.0797 -1.1083 -0.7310
11018SOL    HW244934   0.931   0.023   1.991  0.2851 -0.3498 -0.2722
11019SOL     OW44935   2.151   2.282   0.474  0.7448  0.1563 -0.7833
11019SOL    HW144936   2.064   2.252   0.500 -0.0298  1.0570 -2.2850
11019SOL    HW244937   2.205   2.273   0.552 -1.2490  1.6891  0.7567
11020SOL     OW44938   3.791   3.928   2.501 -0.3533 -0.0181 -0.0341
11020SOL    HW144939   3.815   3.896   2.588 -0.3421  0.8574  0.2870
11020SOL    HW244940   3.801   3.852   2.444  2.0170  0.0167  0.3058
11021SOL     OW44941   1.958   0.523   2.679  0.0684 -0.0350 -0.1977
11021SOL    HW144942   2.045   0.523   2.720  0.4320 -1.2489 -0.9772
11021SOL    HW244943   1.966   0.462   2.606 -0.8043  1.6142 -1.6535
11022SOL     OW44944   0.475   1.006   3.628 -0.0616  0.3623  0.8438
11022SOL    HW144945   0.475   1.010   3.532 -1.4029 -0.7507  0.7973
11022SOL    HW244946   0.564   1.032   3.653 -0.4807  3.1968 -0.5918
11023SOL     OW44947   2.027   1.905  19.398  0.3214  0.1693  0.0720
11023SOL    HW144948   2.095   1.925  19.462  0.3551 -0.2033  0.1497
11023SOL    HW244949   2.050   1.957  19.321  0.7523 -0.0492  0.0578
11024SOL     OW44950   2.658   3.179  21.145 -0.0294 -0.8245 -0.2888
11024SOL    HW144951   2.617   3.258  21.108 -1.4854 -1.1285  0.6864
11024SOL    HW244952   2.750   3.202  21.153 -0.2500  0.3823 -1.0994
11025SOL     OW44953   1.010   4.665  15.763 -0.2254 -0.1111  0.0003
11025SOL    HW144954   0.978   4.613  15.837 -1.5331 -0.6049 -0.9088
11025SOL    HW244955   1.006   4.755  15.794 -0.4194 -0.3508  0.6719
11026SOL     OW44956   4.669   3.093  19.830 -0.0444 -0.0907  0.2159
11026SOL    HW144957   4.716   3.039  19.894 -0.0666  1.2902  1.3934
11026SOL    HW244958   4.604   3.033  19.792 -0.6266 -0.6705  2.1159
11027SOL     OW44959   4.400   2.972  19.343 -0.2333  0.3586  0.0785
11027SOL    HW144960   4.408   2.877  19.347 -0.5427  0.2081 -2.4835
11027SOL    HW244961   4.423   3.003  19.430  0.5883 -2.0327  0.6866
11028SOL     OW44962   1.995   1.061   2.552  0.0335 -0.1500 -0.0543
11028SOL    HW144963   1.905   1.034   2.533 -0.2082  0.5131  0.1497
11028SOL    HW244964   1.986   1.135   2.612  0.7220 -0.2641  0.1973
11029SOL     OW44965   4.572   1.292   3.207  0.2781 -0.6059  0.9462
11029SOL    HW144966   4.613   1.216   3.165  0.9569 -0.1387  0.7753
11029SOL    HW244967   4.535   1.342   3.134  0.1437 -0.5836  1.0300
11030SOL     OW44968   2.865   0.940  16.004 -0.4600 -0.7026 -0.3245
11030SOL    HW144969   2.888   1.019  16.053  0.9586 -1.0639 -0.4053
11030SOL    HW244970   2.850   0.874  16.072  0.7877 -1.0090 -0.3319
11031SOL     OW44971   0.059   2.167   5.841  0.1990  0.6416  0.1118
11031SOL    HW144972   0.082   2.077   5.817 -0.3881  0.6703 -0.5265
11031SOL    HW244973   0.128   2.221   5.803 -0.1674  0.5886 -0.6279
11032SOL     OW44974   3.169   1.926  17.657  0.1976 -0.3402 -0.2009
11032SOL    HW144975   3.146   1.857  17.595 -1.2282 -1.0706  1.1467
11032SOL    HW244976   3.218   1.881  17.725 -2.7068 -0.3973  1.8371
11033SOL     OW44977   0.158   1.345   6.160 -0.0836  0.1287 -0.1606
11033SOL    HW144978   0.123   1.304   6.240  3.2056 -0.1293  1.1285
11033SOL    HW244979   0.108   1.426   6.151 -1.2272 -0.3885  1.5517
11034SOL     OW44980   3.257   2.039   1.100  0.0587  0.0481 -0.0561
11034SOL    HW144981   3.172   2.068   1.132  1.4542  0.7591  2.9365
11034SOL    HW244982   3.313   2.117   1.106  1.4327 -0.9209 -0.3028
11035SOL     OW44983   2.699   0.723   4.228 -0.0001  0.1264  0.9616
11035SOL    HW144984   2.658   0.681   4.303 -1.4922  1.0925  0.6903
11035SOL    HW244985   2.653   0.687   4.152 -0.1470  0.9764  0.6475
11036SOL     OW44986   0.934   2.892  11.555  0.2478  0.2661  0.0588
11036SOL    HW144987   0.852   2.914  11.598  0.7884  1.1719  0.6268
11036SOL    HW244988   0.931   2.936  11.470  0.4128  0.7792  0.3244
11037SOL     OW44989   3.052   2.452  19.930 -0.2931 -0.2396  0.0059
11037SOL    HW144990   2.958   2.444  19.913 -0.4713  4.2556 -1.2325
11037SOL    HW244991   3.093   2.438  19.845  0.0070  0.5984  0.0121
11038SOL     OW44992   2.439   1.382   5.385  0.4922  0.1664  0.4592
11038SOL    HW144993   2.374   1.342   5.327  1.3411 -1.2817  0.4974
11038SOL    HW244994   2.390   1.445   5.436 -0.8306 -0.6899  0.2479
11039SOL     OW44995   1.711   0.156  12.242 -0.2702  0.6134  0.7835
11039SOL    HW144996   1.642   0.205  12.286  0.4566  1.4335  0.9920
11039SOL    HW244997   1.676   0.067  12.235 -2.1772  1.4970 -0.9328
11040SOL     OW44998   3.593   4.648   0.816  0.3336  0.1812 -0.5410
11040SOL    HW144999   3.553   4.652   0.729  0.8650  1.6256 -0.7140
11040SOL    HW245000   3.609   4.555   0.831 -0.1544 -0.1022 -1.8101
11041SOL     OW45001   4.528   0.834  14.437 -0.1060 -0.0296  0.2573
11041SOL    HW145002   4.447   0.851  14.485  0.0774 -0.7577  0.8298
11041SOL    HW245003   4.597   0.871  14.492  0.0531 -0.3723  0.2870
11042SOL     OW45004   2.801   3.982   5.186 -0.0900  0.2195  0.7105
11042SOL    HW145005   2.730   4.045   5.174  0.5315  0.8560  0.3368
11042SOL    HW245006   2.815   3.980   5.281 -0.2836  0.4628  0.7435
11043SOL     OW45007   0.304   0.810  17.671  0.3480  0.0712 -0.0704
11043SOL    HW145008   0.308   0.906  17.663  0.7442  0.1618  1.2069
11043SOL    HW245009   0.374   0.778  17.615 -0.9311  0.4727 -1.8832
11044SOL     OW45010   0.605   0.119  16.241  0.5880 -0.0670 -0.1432
11044SOL    HW145011   0.608   0.040  16.295 -2.3025  0.3791  0.6479
11044SOL    HW245012   0.544   0.177  16.286  1.4272  1.9607 -1.6184
11045SOL     OW45013   3.350   2.716   0.893 -0.6468  0.0325  0.2093
11045SOL    HW145014   3.314   2.674   0.971 -3.2185  1.1745 -0.3506
11045SOL    HW245015   3.392   2.796   0.926 -0.2734 -0.3289  0.6178
11046SOL     OW45016   0.662   4.592  20.613 -0.0499 -0.1013  0.2892
11046SOL    HW145017   0.714   4.532  20.559 -0.7116 -0.4526  0.0434
11046SOL    HW245018   0.632   4.659  20.551 -0.0623 -0.0070  0.3972
11047SOL     OW45019   0.863   0.978   1.743  0.4536 -0.3955 -0.3869
11047SOL    HW145020   0.898   1.066   1.758 -0.3565 -0.0397 -0.5945
11047SOL    HW245021   0.769   0.986   1.759  0.2161 -0.9636 -1.4803
11048SOL     OW45022   3.204   0.373   4.399  0.2032 -0.2203 -0.0404
11048SOL    HW145023   3.210   0.411   4.312  1.5513 -2.1468 -0.7932
11048SOL    HW245024   3.197   0.278   4.383  0.8129 -0.5942  1.9509
11049SOL     OW45025   1.774   3.155  20.958  0.6325 -0.6297  0.2076
11049SOL    HW145026   1.847   3.170  20.898  0.6546  2.5173  1.0064
11049SOL    HW245027   1.696   3.174  20.906  0.4935 -1.2911  0.1690
11050SOL     OW45028   1.346   3.551  18.491  0.4160 -0.5640 -0.4578
11050SOL    HW145029   1.331   3.520  18.402 -0.2217  1.7495 -1.1639
11050SOL    HW245030   1.284   3.500  18.544 -0.7392 -0.4011 -1.6322
11051SOL     OW45031   2.349   2.769   2.757  0.1155  0.1066  0.0318
11051SOL    HW145032   2.353   2.783   2.852 -0.9244  1.4621 -0.1157
11051SOL    HW245033   2.427   2.813   2.723  0.8883 -1.0277  0.3313
11052SOL     OW45034   2.040   0.031   3.972 -0.6623  0.5228 -0.1705
11052SOL    HW145035   2.038   0.016   3.878 -1.3015  0.0845 -0.0848
11052SOL    HW245036   2.121   0.081   3.987  0.1713 -0.6617 -0.7610
11053SOL     OW45037   3.100   4.081   0.837 -0.6772  0.6207 -0.1637
11053SOL    HW145038   3.107   4.013   0.770 -0.3866  0.1613  0.3333
11053SOL    HW245039   3.112   4.163   0.789  0.5727  0.2338 -0.5204
11054SOL     OW45040   0.865   3.106  17.796 -0.3393  0.7997  0.2187
11054SOL    HW145041   0.821   3.110  17.881 -0.3950 -0.0885  0.2265
11054SOL    HW245042   0.958   3.117  17.816 -0.3526  0.5829  0.3886
11055SOL     OW45043   2.253   1.787  16.886 -0.1211  0.0731  0.5628
11055SOL    HW145044   2.296   1.776  16.971 -0.0214 -1.4628  0.3163
11055SOL    HW245045   2.159   1.782  16.906 -0.1487  2.1989  0.9313
11056SOL     OW45046   4.592   0.176  16.252 -0.5683  0.2427 -0.3867
11056SOL    HW145047   4.602   0.271  16.253  0.6488  0.1150 -0.5041
11056SOL    HW245048   4.592   0.152  16.160  0.0828  0.0246 -0.3296
11057SOL     OW45049   4.384   3.893   3.358 -0.2235  0.3110  0.0965
11057SOL    HW145050   4.331   3.928   3.430  0.3571  3.1928 -0.8689
11057SOL    HW245051   4.473   3.893   3.392 -0.1649  0.2026 -0.0606
11058SOL     OW45052   3.436   1.038   6.304 -0.0630 -0.0655  0.6219
11058SOL    HW145053   3.358   0.986   6.287 -0.1531 -0.6203  2.8408
11058SOL    HW245054   3.433   1.057   6.397  0.8864  2.4411  0.1363
11059SOL     OW45055   2.468   4.684  19.092  0.4594  0.0508  0.0319
11059SOL    HW145056   2.504   4.654  19.009 -0.4640  1.3779 -0.8544
11059SOL    HW245057   2.506   4.772  19.104 -0.5234  0.4280  0.3284
11060SOL     OW45058   2.380   2.493   0.087  0.1569 -0.0211 -0.1180
11060SOL    HW145059   2.319   2.429   0.124 -1.2143  0.7234 -1.1025
11060SOL    HW245060   2.337   2.577   0.098  1.1290  0.5385 -0.5700
11061SOL     OW45061   0.709   0.921  12.743 -0.3022 -0.0557 -0.2377
11061SOL    HW145062   0.627   0.878  12.766  0.5215 -1.5010 -0.0331
11061SOL    HW245063   0.769   0.899  12.814  0.6961 -0.1880 -1.1267
11062SOL     OW45064   0.154   1.672   5.360  0.3148 -0.2770  0.5300
11062SOL    HW145065   0.196   1.608   5.302 -1.7674 -1.3737  0.2472
11062SOL    HW245066   0.133   1.622   5.439 -2.2989 -0.1947 -0.1202
11063SOL     OW45067   1.641   4.764  15.087  0.7312 -0.2135 -0.0908
11063SOL    HW145068   1.603   4.747  15.173 -0.6016 -1.8932 -1.0231
11063SOL    HW245069   1.657   4.677  15.050  1.3835  0.5091 -1.5193
11064SOL     OW45070   1.933   4.063  12.574  1.1131  0.2356 -0.4221
11064SOL    HW145071   2.012   4.043  12.524 -0.4543  0.5967 -3.0787
11064SOL    HW245072   1.929   4.159  12.576  0.2555  0.2123 -1.0649
11065SOL     OW45073   0.278   4.435  17.687 -0.0732 -0.5798 -0.0349
11065SOL    HW145074   0.354   4.436  17.629  1.7336 -0.2658  2.3497
11065SOL    HW245075   0.218   4.500  17.649  1.3227 -0.0134 -1.2675
11066SOL     OW45076   3.362   3.248   0.936 -0.3916 -0.1128  0.0705
11066SOL    HW145077   3.405   3.162   0.936 -3.4263 -1.6336  2.3996
11066SOL    HW245078   3.271   3.230   0.917 -0.7182  2.7894 -1.1614
11067SOL     OW45079   0.765   2.635   0.275 -0.3398  0.1558  0.3801
11067SOL    HW145080   0.725   2.722   0.275 -0.0555  0.2814 -0.4648
11067SOL    HW245081   0.696   2.577   0.304 -1.0221  0.4295 -0.7113
11068SOL     OW45082   2.376   3.199  16.648  0.1117 -0.1992  0.0509
11068SOL    HW145083   2.470   3.217  16.647  0.3533 -1.4523  0.1163
11068SOL    HW245084   2.370   3.103  16.645 -1.1750 -0.0904 -0.8630
11069SOL     OW45085   1.259   4.476  17.912  0.4769  0.1491  0.3904
11069SOL    HW145086   1.307   4.411  17.963  0.1332 -0.2616  0.1916
11069SOL    HW245087   1.309   4.484  17.831 -0.2784 -0.9086 -0.1664
11070SOL     OW45088   3.250   2.354  18.924  0.0490  0.1543 -0.0967
11070SOL    HW145089   3.289   2.358  18.837 -0.3796 -0.5778 -0.3237
11070SOL    HW245090   3.321   2.325  18.982  0.2662  0.3962 -0.2428
11071SOL     OW45091   0.898   4.314   1.059  0.3243 -0.3998 -0.3132
11071SOL    HW145092   0.894   4.229   1.103  3.4762  0.8947  2.4166
11071SOL    HW245093   0.961   4.302   0.989 -1.7460 -1.2875 -2.0449
11072SOL     OW45094   0.470   1.522  18.172  0.0110  0.2109  0.0240
11072SOL    HW145095   0.536   1.568  18.224  0.3257  0.4275 -0.5690
11072SOL    HW245096   0.445   1.447  18.226  0.0339  0.6673  0.6695
11073SOL     OW45097   3.064   0.719   5.303 -0.1243 -0.0922  0.1916
11073SOL    HW145098   3.015   0.794   5.270  1.3624  0.3993 -0.9156
11073SOL    HW245099   3.052   0.651   5.237 -0.6764 -0.5134  0.7248
11074SOL     OW45100   1.486   0.585  20.896 -0.4852 -0.1730 -0.2538
11074SOL    HW145101   1.574   0.548  20.897 -0.7449 -0.7494  2.0652
11074SOL    HW245102   1.451   0.563  20.810  1.6415  0.0796 -1.1843
11075SOL     OW45103   2.193   2.675   3.346  0.4130 -0.1027 -0.0312
11075SOL    HW145104   2.216   2.757   3.301 -0.3578  0.3328  0.3578
11075SOL    HW245105   2.099   2.683   3.361  0.8918  0.2722  2.7283
11076SOL     OW45106   4.144   2.773   0.260 -0.3737  0.4923  0.8322
11076SOL    HW145107   4.179   2.855   0.295  1.0940  0.0778  0.3316
11076SOL    HW245108   4.094   2.799   0.183 -0.1623  0.9583  0.8517
11077SOL     OW45109   1.194   1.902  14.062 -0.3426 -0.5916  0.2009
11077SOL    HW145110   1.136   1.862  14.127 -0.5201  1.8856  1.5452
11077SOL    HW245111   1.169   1.994  14.061  0.6937 -0.3468 -2.2978
11078SOL     OW45112   2.238   1.566  15.125  0.0323  0.5495  0.1848
11078SOL    HW145113   2.277   1.543  15.041 -1.8125  0.9096 -0.7859
11078SOL    HW245114   2.248   1.487  15.179 -0.2302 -0.2362 -0.9179
11079SOL     OW45115   3.967   4.566   0.832 -0.0694  0.0933  0.1278
11079SOL    HW145116   3.958   4.660   0.846  0.4711  0.1453  0.1197
11079SOL    HW245117   4.037   4.558   0.768 -0.9180 -0.2587 -0.7559
11080SOL     OW45118   3.827   2.216  20.074 -0.4104  0.3640 -0.2472
11080SOL    HW145119   3.811   2.258  19.990 -1.5502 -0.3805 -0.4090
11080SOL    HW245120   3.914   2.244  20.100 -0.0566  0.5656 -1.6960
11081SOL     OW45121   1.625   4.674  12.195 -0.7622 -0.0290  0.5720
11081SOL    HW145122   1.606   4.616  12.268 -0.3095 -2.0701 -0.9282
11081SOL    HW245123   1.605   4.623  12.117  0.4441  1.5215 -0.7753
11082SOL     OW45124   3.516   1.779  18.473 -0.1259 -0.5513  0.0974
11082SOL    HW145125   3.605   1.753  18.496  0.8888  1.8508 -1.0667
11082SOL    HW245126   3.478   1.811  18.554  0.8948  0.7300  0.0649
11083SOL     OW45127   1.186   4.094   1.497 -0.4769  0.0757  0.1387
11083SOL    HW145128   1.155   4.073   1.585 -0.1048 -0.3169  0.1762
11083SOL    HW245129   1.245   4.169   1.509  0.1320 -0.4285  0.3149
11084SOL     OW45130   0.837   1.006  10.860  0.0665  0.5913 -0.4027
11084SOL    HW145131   0.786   1.014  10.780 -1.1680 -1.6641  0.1566
11084SOL    HW245132   0.928   1.000  10.830 -0.2793  1.2062 -1.5660
11085SOL     OW45133   0.457   0.926   4.169  0.7399  0.7371 -0.6437
11085SOL    HW145134   0.531   0.958   4.221  0.8240  0.1267 -0.3908
11085SOL    HW245135   0.381   0.972   4.205  0.4166 -1.7534  1.8200
11086SOL     OW45136   0.870   0.567  14.536  0.0433  0.0212 -0.1166
11086SOL    HW145137   0.786   0.536  14.503  0.0210 -0.1069  0.0599
11086SOL    HW245138   0.936   0.521  14.484  0.0016  0.3366 -0.4490
11087SOL     OW45139   1.188   1.633   4.645 -0.0520  0.4875 -0.6003
11087SOL    HW145140   1.158   1.709   4.595 -3.0946 -0.4938 -0.2856
11087SOL    HW245141   1.229   1.576   4.580  0.1546  1.3574 -1.2213
11088SOL     OW45142   3.272   4.018   1.046 -0.0837  0.3020 -0.8784
11088SOL    HW145143   3.210   4.030   0.974  0.6698 -0.8702 -1.7340
11088SOL    HW245144   3.358   4.021   1.003  0.3101 -1.7218 -0.1900
11089SOL     OW45145   3.740   1.386  14.885 -0.0908  0.3904  0.5514
11089SOL    HW145146   3.809   1.338  14.931 -1.3915 -1.3119  0.7181
11089SOL    HW245147   3.770   1.389  14.794 -0.1043 -0.8935  0.5059
11090SOL     OW45148   0.525   1.071  10.123  0.1474 -0.7313 -0.1060
11090SOL    HW145149   0.485   1.009  10.184 -1.4325  0.2455 -0.1440
11090SOL    HW245150   0.584   1.124  10.179 -0.0487 -0.9207  0.2797
11091SOL     OW45151   2.893   2.166  19.789 -0.0586 -0.4022 -0.4837
11091SOL    HW145152   2.837   2.164  19.712 -0.1613  1.4182 -0.4599
11091SOL    HW245153   2.848   2.224  19.850  0.6675 -0.8077  0.4425
11092SOL     OW45154   0.766   1.512   1.939  0.0104  0.3351  0.2956
11092SOL    HW145155   0.775   1.448   1.868 -0.2588  0.2022  0.3795
11092SOL    HW245156   0.854   1.547   1.951  0.2159 -0.2238  0.4401
11093SOL     OW45157   0.459   0.051  12.915 -0.3503 -0.4688 -0.2642
11093SOL    HW145158   0.414   4.748  12.946 -0.3624 -0.3585  0.0018
11093SOL    HW245159   0.548   0.022  12.898  0.9914  0.6559  4.8577
11094SOL     OW45160   0.603   0.581   0.115 -0.0959  0.8363  0.6361
11094SOL    HW145161   0.575   0.548   0.029 -0.2198  0.1939  0.9266
11094SOL    HW245162   0.693   0.550   0.124 -1.0486 -1.5134  1.9961
11095SOL     OW45163   4.345   0.957   3.432 -0.1000  0.2299 -0.6210
11095SOL    HW145164   4.311   0.886   3.377 -0.1334  0.7272 -1.2437
11095SOL    HW245165   4.270   0.984   3.486  0.0889 -0.6581  0.0947
11096SOL     OW45166   0.506   3.020  17.661  0.2586  0.2801  0.0816
11096SOL    HW145167   0.592   3.000  17.625 -0.5572  0.7993 -2.1499
11096SOL    HW245168   0.449   2.950  17.630  0.2317 -0.9110  2.8635
11097SOL     OW45169   0.257   4.028   1.650  0.3591 -0.0865  0.4650
11097SOL    HW145170   0.324   4.073   1.598 -1.7653  1.8290 -0.6206
11097SOL    HW245171   0.186   4.012   1.589 -0.5923 -1.2254  1.8702
11098SOL     OW45172   2.136   0.290   2.523  0.0064 -0.2800  0.3737
11098SOL    HW145173   2.050   0.261   2.551  0.5026 -2.0634  0.0828
11098SOL    HW245174   2.182   0.312   2.604 -0.6173  0.3561  0.5494
11099SOL     OW45175   1.217   2.291  16.468 -0.3557  0.3410 -0.2394
11099SOL    HW145176   1.174   2.206  16.480  0.4654 -0.1958 -1.1086
11099SOL    HW245177   1.203   2.337  16.551  1.5638 -1.7013  1.2200
11100SOL     OW45178   3.880   1.659  19.885  0.5766 -0.1243  0.0921
11100SOL    HW145179   3.957   1.605  19.903 -0.8119 -2.4206 -0.8635
11100SOL    HW245180   3.807   1.611  19.925 -0.4634  1.6530  0.3137
11101SOL     OW45181   3.243   1.014   7.956  0.4376 -0.8294  0.1080
11101SOL    HW145182   3.222   0.968   8.038  0.9632  1.7598  1.7100
11101SOL    HW245183   3.338   1.011   7.951  0.4514 -0.2744  0.0189
11102SOL     OW45184   1.911   1.887   2.900 -0.0118  0.5220  0.5218
11102SOL    HW145185   1.856   1.893   2.822  0.6752 -1.2044 -0.0832
11102SOL    HW245186   1.864   1.827   2.958  1.4694 -1.3361 -0.1903
11103SOL     OW45187   1.106   3.322   0.277  0.1023 -0.0850  0.1422
11103SOL    HW145188   1.111   3.396   0.216 -0.4663 -0.1369  0.0296
11103SOL    HW245189   1.025   3.338   0.327  0.4045 -0.2063  0.6672
11104SOL     OW45190   1.654   2.515  20.498  0.3653  0.6032  0.1454
11104SOL    HW145191   1.638   2.609  20.505 -0.5215  0.5905 -1.8954
11104SOL    HW245192   1.682   2.502  20.407  1.1284 -1.0019  0.6097
11105SOL     OW45193   0.979   0.722  17.399  0.3262 -0.3739 -0.5155
11105SOL    HW145194   1.068   0.749  17.377  1.1129 -2.6606 -0.1800
11105SOL    HW245195   0.943   0.690  17.316 -0.4092  1.1533 -0.7900
11106SOL     OW45196   1.219   4.772  15.156 -0.0093  0.1496 -0.4309
11106SOL    HW145197   1.230   0.055  15.082 -2.0517  1.5415  0.3720
11106SOL    HW245198   1.149   4.712  15.130  0.7348 -0.6939 -0.4809
11107SOL     OW45199   2.240   0.840  18.092  0.1834 -0.4737 -0.4504
11107SOL    HW145200   2.243   0.929  18.055  0.4091 -0.6677 -0.8999
11107SOL    HW245201   2.234   0.854  18.186 -1.3872  0.0295 -0.6190
11108SOL     OW45202   2.685   4.376   1.817  0.3100 -0.0963  0.0184
11108SOL    HW145203   2.772   4.416   1.814  0.1046  0.3404 -0.1404
11108SOL    HW245204   2.672   4.341   1.729  0.7326 -1.0306  0.3276
11109SOL     OW45205   4.344   3.878  12.927  0.3927  0.4600 -0.0267
11109SOL    HW145206   4.414   3.827  12.969  0.5812  0.8750  0.1632
11109SOL    HW245207   4.275   3.883  12.993  0.7394  1.2176  0.2749
11110SOL     OW45208   3.283   2.337  20.768 -0.0914  0.1314  0.1682
11110SOL    HW145209   3.309   2.398  20.838 -0.4224  0.6658 -0.1740
11110SOL    HW245210   3.273   2.392  20.691  2.0445 -0.7532 -0.7228
11111SOL     OW45211   4.046   4.029  16.986 -0.3729  0.5445  0.2131
11111SOL    HW145212   4.139   4.007  16.987 -0.6633 -0.7902 -1.1173
11111SOL    HW245213   4.041   4.110  16.935  0.0169  0.4191 -0.0282
11112SOL     OW45214   4.442   2.693   1.408 -0.6417 -0.1587 -0.5333
11112SOL    HW145215   4.463   2.600   1.418  0.1497  0.0978  0.1245
11112SOL    HW245216   4.382   2.712   1.480  0.1009  0.1287  0.0046
11113SOL     OW45217   0.548   1.267  20.986 -0.4658  0.2636 -0.6034
11113SOL    HW145218   0.606   1.336  20.955 -1.1481  0.7285 -0.8490
11113SOL    HW245219   0.465   1.312  21.005 -0.3546 -0.1826  0.9333
11114SOL     OW45220   4.248   0.684  15.412 -0.4111  0.5044 -0.2349
11114SOL    HW145221   4.341   0.700  15.429 -0.4779  1.8092 -1.0588
11114SOL    HW245222   4.215   0.647  15.493  0.6914  0.6385  0.2789
11115SOL     OW45223   0.803   0.312  16.283 -0.5322 -0.1501 -0.4097
11115SOL    HW145224   0.844   0.262  16.354 -1.5340 -0.4451 -0.0325
11115SOL    HW245225   0.736   0.253  16.248 -1.3076  0.7048 -0.3686
11116SOL     OW45226   3.295   0.332  11.666  0.7415 -0.0127 -0.6461
11116SOL    HW145227   3.254   0.384  11.736  0.3152 -0.3560 -0.6428
11116SOL    HW245228   3.278   0.241  11.691  4.7825 -0.2213  1.3405
11117SOL     OW45229   0.545   4.150   2.388  0.2438  0.0734  0.2183
11117SOL    HW145230   0.604   4.078   2.411  0.7076  0.9160  1.6939
11117SOL    HW245231   0.508   4.125   2.303  1.2151 -1.3953  0.2265
11118SOL     OW45232   4.246   4.580  20.593  0.7594 -0.1652 -0.0994
11118SOL    HW145233   4.327   4.530  20.603  0.5616 -0.5131 -0.2301
11118SOL    HW245234   4.226   4.612  20.680  1.0618 -0.0504 -0.0747
11119SOL     OW45235   1.697   3.989  19.298 -0.1898 -0.3445 -0.3247
11119SOL    HW145236   1.602   3.986  19.295 -0.2076  0.4229 -0.3997
11119SOL    HW245237   1.719   4.081  19.284  0.5033 -0.2992  0.9952
11120SOL     OW45238   0.983   3.431   9.517  0.0122  0.3271  0.1144
11120SOL    HW145239   0.927   3.355   9.503  0.5129  0.1538 -0.9408
11120SOL    HW245240   0.940   3.502   9.469  0.2784  0.3769 -0.0520
11121SOL     OW45241   2.319   3.397  20.959 -0.5287 -0.4095 -0.4441
11121SOL    HW145242   2.326   3.474  21.015  0.3839 -0.7798 -0.0369
11121SOL    HW245243   2.366   3.422  20.879 -0.0108 -0.6258 -0.2119
11122SOL     OW45244   2.393   0.610  15.075 -0.5896  0.3123 -0.2172
11122SOL    HW145245   2.299   0.606  15.091 -0.5417  0.1589  0.0168
11122SOL    HW245246   2.433   0.576  15.155 -0.3146  1.2183  0.0376
11123SOL     OW45247   1.594   4.151  12.695 -0.6388  0.2333  0.5728
11123SOL    HW145248   1.635   4.096  12.762 -0.1672 -1.2931 -0.9684
11123SOL    HW245249   1.555   4.089  12.633 -2.3735  1.6520  0.2262
11124SOL     OW45250   2.357   4.295   4.626  0.1609 -0.3913 -0.8740
11124SOL    HW145251   2.282   4.354   4.620  1.4109  1.1839 -0.8837
11124SOL    HW245252   2.433   4.351   4.610  1.5313 -1.4319  2.0599
11125SOL     OW45253   1.380   0.909  17.466 -0.1265 -0.1472 -0.0528
11125SOL    HW145254   1.395   1.002  17.454  0.5520 -0.2219  0.2346
11125SOL    HW245255   1.341   0.880  17.384  0.2731  0.2547 -0.3821
11126SOL     OW45256   2.911   0.792  19.609  0.6168  0.1149 -0.0859
11126SOL    HW145257   2.990   0.830  19.648  0.8458  1.3917 -1.8158
11126SOL    HW245258   2.943   0.745  19.532 -0.4668  1.4886 -1.3589
11127SOL     OW45259   3.039   2.378  13.028 -0.4057 -0.4926 -0.3019
11127SOL    HW145260   3.091   2.335  12.960 -1.1634  0.5928 -1.5637
11127SOL    HW245261   2.950   2.382  12.991 -0.6745  0.6632  0.4940
11128SOL     OW45262   3.828   3.131   0.089  0.1580 -0.9309  0.4474
11128SOL    HW145263   3.850   3.040   0.108  1.4177 -0.3249  1.8785
11128SOL    HW245264   3.906   3.166   0.047  0.0992 -0.1646  0.9816
11129SOL     OW45265   3.414   2.309  16.353 -0.2961  0.4088 -0.3530
11129SOL    HW145266   3.383   2.252  16.424 -0.5842 -0.6725 -1.3417
11129SOL    HW245267   3.346   2.302  16.285 -0.0078  1.4148 -0.7520
11130SOL     OW45268   2.130   1.527  19.317  0.0678 -0.4226  0.1471
11130SOL    HW145269   2.135   1.611  19.271  0.7260 -0.5917 -0.0875
11130SOL    HW245270   2.065   1.476  19.267  1.7934 -1.1098 -1.4059
11131SOL     OW45271   0.588   1.726   0.032 -0.0263  0.0619  0.7102
11131SOL    HW145272   0.675   1.686   0.035 -0.3252 -0.5332  1.3824
11131SOL    HW245273   0.599   1.809   0.078  0.2836  0.1619  0.4560
11132SOL     OW45274   4.442   3.894  17.953  0.0176  0.2296 -0.1178
11132SOL    HW145275   4.456   3.941  17.872 -1.2423 -0.7034 -0.8788
11132SOL    HW245276   4.472   3.805  17.935 -0.9301 -0.1571  0.2276
11133SOL     OW45277   4.361   2.969  18.071 -0.4229 -0.1302 -0.3540
11133SOL    HW145278   4.343   2.924  18.154 -1.4558  0.5494 -0.2099
11133SOL    HW245279   4.355   3.062  18.092  2.5040  0.0999 -0.4760
11134SOL     OW45280   4.508   3.848   1.541  0.2225  0.2404  0.8056
11134SOL    HW145281   4.595   3.811   1.527 -0.3758 -0.6585 -0.4784
11134SOL    HW245282   4.522   3.915   1.608  1.9439  0.2925  0.4038
11135SOL     OW45283   4.527   3.347  16.515 -0.0588  0.6463 -0.2740
11135SOL    HW145284   4.574   3.322  16.435  1.0635  0.2454  0.5091
11135SOL    HW245285   4.479   3.267  16.539 -0.1535  0.6750 -0.3632
11136SOL     OW45286   0.124   2.417  21.165  0.3250 -0.3801 -0.0055
11136SOL    HW145287   0.171   2.464  21.096 -0.9059  0.6864 -0.1051
11136SOL    HW245288   0.193   2.380   0.024  1.3164 -2.1624 -2.4426
11137SOL     OW45289   2.728   4.398   4.413  0.4711  0.2662  0.6068
11137SOL    HW145290   2.683   4.472   4.454  0.6946  0.7824 -0.0744
11137SOL    HW245291   2.657   4.345   4.377  0.4181  1.2406 -0.7348
11138SOL     OW45292   0.205   2.834  14.731  0.0263  0.3267  0.4461
11138SOL    HW145293   0.187   2.863  14.641 -0.5272  1.7118  1.0006
11138SOL    HW245294   0.136   2.874  14.783  0.0889 -0.8619  1.4217
11139SOL     OW45295   1.789   4.172  21.046  0.2251  0.4923 -0.3787
11139SOL    HW145296   1.861   4.221  21.086  1.1151 -0.4183 -0.8798
11139SOL    HW245297   1.827   4.135  20.966 -0.4830 -0.9784 -0.0212
11140SOL     OW45298   2.466   3.619  17.174 -0.7836 -0.0747 -0.6440
11140SOL    HW145299   2.444   3.527  17.161 -1.6175  0.2810 -1.7522
11140SOL    HW245300   2.494   3.650  17.088 -3.4801  1.5068 -0.9533
11141SOL     OW45301   2.115   0.645  21.103  0.8383  0.0352 -0.1344
11141SOL    HW145302   2.171   0.579  21.144  0.6575  0.1715  0.3282
11141SOL    HW245303   2.171   0.685  21.036  0.9556 -0.5671 -0.4006
11142SOL     OW45304   0.018   4.361  21.175 -0.1718 -0.1684 -0.4793
11142SOL    HW145305   4.710   4.372   0.023 -0.9719 -1.8567 -1.5806
11142SOL    HW245306   0.012   4.416  21.097  0.1409  0.5505  0.0095
11143SOL     OW45307   0.713   3.159  11.013 -0.0682 -0.4419 -0.3145
11143SOL    HW145308   0.805   3.137  11.003 -0.1701 -0.5023 -1.1081
11143SOL    HW245309   0.668   3.103  10.949 -0.5832  0.1010 -0.4267
11144SOL     OW45310   1.139   4.511   6.644 -0.1151 -0.4105 -0.1162
11144SOL    HW145311   1.133   4.420   6.674  0.0388  0.2064  1.7742
11144SOL    HW245312   1.155   4.562   6.724  2.0313  1.0410 -1.4731
11145SOL     OW45313   2.244   0.163   1.819  1.2326 -0.3226 -0.0442
11145SOL    HW145314   2.239   0.161   1.724 -0.4149  1.3262 -0.0018
11145SOL    HW245315   2.329   0.124   1.840  0.3406 -3.3799 -2.0580
11146SOL     OW45316   4.028   1.396   5.895  0.2423 -0.6825  0.0183
11146SOL    HW145317   4.088   1.370   5.825 -1.5747 -1.1754 -1.3662
11146SOL    HW245318   4.055   1.343   5.970  0.4984 -2.1260 -1.0682
11147SOL     OW45319   3.032   4.288   5.225  0.3472 -0.4444  0.0303
11147SOL    HW145320   3.003   4.227   5.292 -0.8330 -0.0572 -0.1303
11147SOL    HW245321   2.960   4.351   5.216  0.6254 -0.3181 -1.3694
11148SOL     OW45322   1.604   0.110  16.571  0.8070 -0.2794 -0.0760
11148SOL    HW145323   1.517   0.105  16.532  0.0852  1.5675  1.2883
11148SOL    HW245324   1.588   0.115  16.665  2.4229 -1.1752  0.2447
11149SOL     OW45325   2.326   1.289  12.696 -0.0191  0.2319 -0.3046
11149SOL    HW145326   2.270   1.272  12.771  1.4505  0.1903  0.7748
11149SOL    HW245327   2.347   1.382  12.701  0.6465  0.0804 -0.2761
11150SOL     OW45328   0.964   4.614  11.276  0.3848 -0.0064 -0.0644
11150SOL    HW145329   0.991   4.528  11.306 -2.5563 -1.2813 -1.0945
11150SOL    HW245330   0.889   4.598  11.219 -0.3883  3.2543 -0.0052
11151SOL     OW45331   3.622   4.099   1.326 -0.1052  0.4295  0.7327
11151SOL    HW145332   3.595   4.190   1.339 -0.0784  0.3444  1.3575
11151SOL    HW245333   3.686   4.103   1.255  0.7942  1.0312  1.5855
11152SOL     OW45334   4.037   0.342  16.354  0.2270 -0.5175  0.3247
11152SOL    HW145335   4.127   0.326  16.327  0.6466  0.6142  1.0517
11152SOL    HW245336   4.036   0.434  16.381 -1.2636 -0.3817 -0.2010
11153SOL     OW45337   4.538   1.864  11.584 -0.5776  0.4409  0.5444
11153SOL    HW145338   4.469   1.891  11.645  0.3609  3.1728  0.3982
11153SOL    HW245339   4.617   1.907  11.616  0.6918 -1.1843 -0.3919
11154SOL     OW45340   4.062   1.825  16.531 -0.6624 -0.4639 -0.4765
11154SOL    HW145341   4.120   1.782  16.468 -0.3123  0.1108 -0.5487
11154SOL    HW245342   4.000   1.757  16.556 -0.3878 -0.8876 -0.9307
11155SOL     OW45343   1.892   4.500   3.064 -0.1311 -0.4643  0.2017
11155SOL    HW145344   1.820   4.500   3.127  1.5076 -1.4113  2.0460
11155SOL    HW245345   1.930   4.413   3.071  0.9576 -0.0924 -1.0836
11156SOL     OW45346   2.503   1.307  19.969 -0.1621 -0.3127  0.3822
11156SOL    HW145347   2.477   1.388  19.926  2.1535 -0.1447 -0.7228
11156SOL    HW245348   2.487   1.238  19.905  3.3349 -0.0570 -0.7734
11157SOL     OW45349   0.252   1.694  20.341 -0.0845 -0.6170  0.0397
11157SOL    HW145350   0.274   1.628  20.406 -1.2881 -0.9062  0.1480
11157SOL    HW245351   0.162   1.720  20.362  1.3490  3.0269  1.6824
11158SOL     OW45352   4.770   1.730   5.157  0.1232  0.1304  0.1651
11158SOL    HW145353   0.028   1.680   5.231  1.4638 -0.1031 -0.5987
11158SOL    HW245354   0.064   1.793   5.137  0.0460 -0.2524 -1.3185
11159SOL     OW45355   3.558   1.396   4.763  0.4894  0.1182 -0.0734
11159SOL    HW145356   3.589   1.408   4.673  1.1310 -0.6448  0.0524
11159SOL    HW245357   3.558   1.485   4.800 -0.3463  0.5089 -1.0160
11160SOL     OW45358   2.613   4.299   3.481 -0.5485 -0.0446 -0.2645
11160SOL    HW145359   2.596   4.363   3.412  0.3958  0.3655 -0.1216
11160SOL    HW245360   2.708   4.305   3.496 -1.0682  1.3072  2.4707
11161SOL     OW45361   0.126   0.417  10.477 -0.3677 -0.3343  0.2278
11161SOL    HW145362   0.160   0.462  10.554 -0.5100 -1.2747  0.8435
11161SOL    HW245363   0.043   0.379  10.506 -1.5248  1.2623 -1.0409
11162SOL     OW45364   2.440   1.829  18.214  0.6290 -0.2884  0.2047
11162SOL    HW145365   2.490   1.794  18.288  0.7425 -0.8273 -0.1270
11162SOL    HW245366   2.437   1.757  18.150 -0.0281 -0.0428 -0.0418
11163SOL     OW45367   2.357   1.448   0.326  0.3176 -0.2663  0.5359
11163SOL    HW145368   2.314   1.418   0.246  1.1170  1.2440 -0.4527
11163SOL    HW245369   2.438   1.397   0.330 -0.3276 -1.2482  1.0402
11164SOL     OW45370   2.002   1.149  17.716 -0.0243  0.5285 -0.2662
11164SOL    HW145371   1.941   1.172  17.786 -0.3065 -0.3646 -0.2186
11164SOL    HW245372   1.949   1.154  17.636 -0.2181 -0.4675 -0.2009
11165SOL     OW45373   1.370   2.231  15.436 -0.2546 -0.4999  0.6595
11165SOL    HW145374   1.420   2.163  15.482 -1.4804 -1.2803  0.8666
11165SOL    HW245375   1.376   2.207  15.344 -1.8273 -1.6741  0.8530
11166SOL     OW45376   0.108   0.789  19.379 -0.5976  0.2741  0.4160
11166SOL    HW145377   0.184   0.778  19.437 -0.2211  0.4474 -0.0366
11166SOL    HW245378   0.124   0.873  19.335  0.1965 -0.8770 -1.5157
11167SOL     OW45379   1.307   3.799   3.328  0.3150  0.3805  0.2043
11167SOL    HW145380   1.271   3.816   3.414 -1.1404  1.4338 -0.6138
11167SOL    HW245381   1.310   3.885   3.285 -5.0262 -1.0559 -3.1122
11168SOL     OW45382   4.158   0.910  19.813  0.5615  0.4733 -0.1295
11168SOL    HW145383   4.210   0.981  19.775 -0.9189  1.7709  0.2638
11168SOL    HW245384   4.217   0.868  19.875  0.9068  2.4535  0.8984
11169SOL     OW45385   2.663   4.049  13.764 -0.0025  0.1184 -0.2617
11169SOL    HW145386   2.701   3.968  13.797 -2.4078 -0.5178  0.8978
11169SOL    HW245387   2.739   4.106  13.748  1.6224 -2.1398 -0.5256
11170SOL     OW45388   4.148   3.990  20.687  0.4038  0.6474  0.2606
11170SOL    HW145389   4.114   4.034  20.608 -0.0010  0.1272  0.1440
11170SOL    HW245390   4.161   4.061  20.750 -3.9226  0.4253  1.3664
11171SOL     OW45391   1.361   0.686   1.874  0.1790  0.4398 -0.1825
11171SOL    HW145392   1.398   0.758   1.821 -1.1642  1.7599  0.6654
11171SOL    HW245393   1.335   0.620   1.810  0.8592  0.9709 -1.0132
11172SOL     OW45394   3.074   2.461   2.623  0.3596  0.2484  0.0877
11172SOL    HW145395   3.036   2.427   2.704 -1.4836  0.2654 -0.7751
11172SOL    HW245396   3.143   2.520   2.653 -1.0998  1.1723  1.6718
11173SOL     OW45397   3.216   2.029  18.493  0.1440  0.4813 -0.1747
11173SOL    HW145398   3.194   1.998  18.581 -0.8305  0.5219 -0.4043
11173SOL    HW245399   3.134   2.024  18.445  0.6137  0.7543 -0.9989
11174SOL     OW45400   0.691   2.217   1.404 -0.1554  0.4736  0.1608
11174SOL    HW145401   0.747   2.275   1.352  0.6314 -0.8526 -0.4895
11174SOL    HW245402   0.698   2.250   1.493  1.2332  0.6653 -0.0159
11175SOL     OW45403   3.358   3.126   6.634 -0.1741 -0.1384 -0.1832
11175SOL    HW145404   3.348   3.135   6.539 -1.3023 -0.9976 -0.1476
11175SOL    HW245405   3.339   3.034   6.652  0.5734 -0.0976  0.8085
11176SOL     OW45406   0.101   3.903   9.649  0.1921  0.3528  0.5206
11176SOL    HW145407   0.131   3.865   9.732 -0.5796 -0.7704  0.2786
11176SOL    HW245408   0.013   3.869   9.637  0.8549 -0.6833 -1.5071
11177SOL     OW45409   2.224   2.111  11.663  0.0024 -0.0360  0.2589
11177SOL    HW145410   2.219   2.113  11.759 -0.0944 -2.2028  0.3011
11177SOL    HW245411   2.152   2.167  11.634  1.6085  2.6805  1.4953
11178SOL     OW45412   4.611   4.577  18.653  0.2624 -0.8332  0.2437
11178SOL    HW145413   4.547   4.646  18.670  0.7858 -0.2388 -0.2017
11178SOL    HW245414   4.558   4.498  18.640 -0.4117 -0.2285 -0.6808
11179SOL     OW45415   4.143   4.521   3.807  0.2305 -0.1366 -0.6669
11179SOL    HW145416   4.068   4.579   3.791 -0.9619 -1.2025  1.1169
11179SOL    HW245417   4.191   4.564   3.878  0.1481 -0.5722 -0.3481
11180SOL     OW45418   1.340   3.375   4.835 -0.3841  0.2304  0.3917
11180SOL    HW145419   1.361   3.300   4.779 -1.4851 -0.1746  0.5320
11180SOL    HW245420   1.345   3.450   4.776  2.8021  0.2894  0.7026
11181SOL     OW45421   4.713   1.664  16.711  0.0782 -0.0085 -0.2059
11181SOL    HW145422   4.646   1.705  16.765 -0.1078 -0.1169 -0.3555
11181SOL    HW245423   4.720   1.575  16.743 -1.4269 -0.6504 -1.6574
11182SOL     OW45424   0.196   2.225   1.686 -0.0999  0.5095  0.0279
11182SOL    HW145425   0.201   2.130   1.683 -1.6230  0.4645 -1.0702
11182SOL    HW245426   0.135   2.244   1.758 -1.2880  0.6235 -1.0170
11183SOL     OW45427   1.602   4.210   9.928 -0.4735  0.4578  0.1156
11183SOL    HW145428   1.510   4.225   9.950 -0.0124  1.4199  1.3930
11183SOL    HW245429   1.606   4.220   9.833 -1.7919 -0.1109  0.0001
11184SOL     OW45430   1.917   2.481  19.798  0.2719  0.2400  0.1444
11184SOL    HW145431   1.968   2.525  19.866  0.8762  0.5619 -0.5347
11184SOL    HW245432   1.970   2.487  19.719  0.7149 -2.3933  0.2350
11185SOL     OW45433   1.252   0.014   5.787 -0.0537 -0.0172 -0.0224
11185SOL    HW145434   1.221   4.737   5.861  1.3049 -0.0713  0.5012
11185SOL    HW245435   1.330   4.745   5.756  2.0915  2.6129  1.5145
11186SOL     OW45436   1.199   4.684   4.743  0.6127  0.4758  0.2394
11186SOL    HW145437   1.168   4.593   4.735 -0.5150  1.0053 -1.3357
11186SOL    HW245438   1.228   4.691   4.834  0.9012 -1.5341  0.3096
11187SOL     OW45439   2.430   4.711  17.819 -0.1739 -0.1667 -0.4617
11187SOL    HW145440   2.498   4.659  17.863 -1.3239 -1.2256  0.0753
11187SOL    HW245441   2.478   4.771  17.762  1.3784  1.9327  3.0396
11188SOL     OW45442   2.915   1.768  18.527 -0.2226 -0.0732 -0.0589
11188SOL    HW145443   2.851   1.837  18.512 -1.1900 -1.1102 -0.7227
11188SOL    HW245444   2.958   1.756  18.443 -0.2129 -0.4255 -0.0055
11189SOL     OW45445   1.997   2.940   0.631  0.2734 -0.2822  0.5693
11189SOL    HW145446   1.997   2.894   0.547  3.1008 -1.1478  1.0319
11189SOL    HW245447   1.966   2.875   0.694 -2.3376  0.5230  0.0984
11190SOL     OW45448   3.877   0.774   6.975 -0.2479  0.6333  0.5227
11190SOL    HW145449   3.784   0.776   6.996 -0.0245 -0.2358  1.6125
11190SOL    HW245450   3.917   0.726   7.047  0.9037  0.0679 -0.4849
11191SOL     OW45451   2.667   4.059   2.001 -0.3571  0.2531 -0.3829
11191SOL    HW145452   2.757   4.085   2.018  0.3002 -0.9955 -1.9063
11191SOL    HW245453   2.662   3.968   2.030 -0.5803 -0.3036 -2.1653
11192SOL     OW45454   0.232   1.522   3.799 -0.2661  0.3671  0.5371
11192SOL    HW145455   0.318   1.486   3.778 -1.0303 -1.0924 -0.0227
11192SOL    HW245456   0.250   1.613   3.822  1.3451  0.2769 -0.3452
11193SOL     OW45457   2.338   0.219  17.549  0.1041 -0.1025 -0.1436
11193SOL    HW145458   2.423   0.212  17.505 -0.0148 -0.3806 -0.3286
11193SOL    HW245459   2.304   0.305  17.522  0.6037  0.2731  0.4298
11194SOL     OW45460   3.262   3.545   2.828 -0.4616 -0.0632 -0.6650
11194SOL    HW145461   3.199   3.484   2.790 -0.8493 -0.7074  1.0303
11194SOL    HW245462   3.328   3.489   2.869  0.9258  0.6163 -2.0015
11195SOL     OW45463   0.167   4.280   0.748  0.5907  0.5691  0.4455
11195SOL    HW145464   0.223   4.310   0.819  1.3296  1.4191 -0.5008
11195SOL    HW245465   0.112   4.355   0.726 -0.5105 -0.0884  0.9903
11196SOL     OW45466   3.025   3.138  18.494 -0.1380 -0.3432  0.1123
11196SOL    HW145467   3.112   3.160  18.528 -0.3055  0.2243  0.1575
11196SOL    HW245468   2.997   3.064  18.548 -0.7319  1.0410  1.7069
11197SOL     OW45469   0.258   1.584   3.164 -0.3051  0.5610  0.1310
11197SOL    HW145470   0.331   1.563   3.105 -1.1289  1.2872 -1.1557
11197SOL    HW245471   0.255   1.680   3.164 -0.1320  0.5677  1.5716
11198SOL     OW45472   4.362   0.969  15.567 -0.2755 -0.1647 -0.3816
11198SOL    HW145473   4.320   0.983  15.482 -0.1007  1.3499 -0.2306
11198SOL    HW245474   4.455   0.985  15.551 -0.1803 -0.3307 -0.0060
11199SOL     OW45475   4.192   0.062   3.375 -0.5523 -0.4795  0.1716
11199SOL    HW145476   4.193   4.768   3.441 -2.7757 -0.3022  0.3744
11199SOL    HW245477   4.177   0.016   3.293  1.4575 -0.6140 -0.1329
11200SOL     OW45478   4.042   3.622   5.233  0.4714  0.1369 -0.1934
11200SOL    HW145479   4.033   3.537   5.190  2.1092 -0.5226  0.7743
11200SOL    HW245480   3.982   3.618   5.307 -0.8315  0.5181 -1.2183
11201SOL     OW45481   1.889   4.205   0.335 -0.1077 -0.3522 -0.0165
11201SOL    HW145482   1.875   4.248   0.419  0.6097  0.3787 -0.2719
11201SOL    HW245483   1.817   4.143   0.327  0.4535 -1.2337  1.6740
11202SOL     OW45484   3.811   4.585   7.840  0.1668  0.1131  0.5565
11202SOL    HW145485   3.898   4.625   7.834  0.0460  0.6235  2.1487
11202SOL    HW245486   3.827   4.491   7.826  0.6403  0.5223 -1.6501
11203SOL     OW45487   1.019   1.869  12.576  0.7613  0.4365 -0.1198
11203SOL    HW145488   1.000   1.782  12.612  1.7150  0.7558  1.1432
11203SOL    HW245489   1.101   1.894  12.618  1.0482  1.4751 -1.3303
11204SOL     OW45490   4.234   0.563   3.599 -0.0959  0.5541 -0.4776
11204SOL    HW145491   4.315   0.578   3.549  1.7504 -0.7608  2.0897
11204SOL    HW245492   4.237   0.470   3.620 -0.1956  1.4038  3.2798
11205SOL     OW45493   1.152   4.441  20.621  0.5185  0.2072  0.2287
11205SOL    HW145494   1.156   4.345  20.627  0.2045  0.1495 -0.5124
11205SOL    HW245495   1.223   4.464  20.561  0.4522  0.4260  0.2337
11206SOL     OW45496   2.867   0.993   3.929 -0.2895  0.1327  0.5007
11206SOL    HW145497   2.874   0.994   4.024  0.0517 -0.8229  0.4856
11206SOL    HW245498   2.957   1.004   3.898 -0.2648 -0.7095  0.2873
11207SOL     OW45499   3.032   0.551  19.328  0.0441 -0.1502 -0.0174
11207SOL    HW145500   3.091   0.590  19.392  0.9832 -0.5217 -0.6468
11207SOL    HW245501   3.011   0.622  19.267  0.3022 -0.1644 -0.1231
11208SOL     OW45502   0.287   1.216   0.441 -0.5652 -0.1078 -0.2108
11208SOL    HW145503   0.257   1.266   0.516  1.2758 -1.0282  1.1552
11208SOL    HW245504   0.288   1.125   0.472  1.3111 -0.3476 -0.9643
11209SOL     OW45505   2.713   1.167   2.160 -0.1188  0.1657  0.0941
11209SOL    HW145506   2.743   1.096   2.103 -1.0396  0.0270 -0.2157
11209SOL    HW245507   2.788   1.226   2.165  0.5003 -0.6157  0.0091
11210SOL     OW45508   1.900   2.574   3.736 -0.2294  0.2700  0.4767
11210SOL    HW145509   1.830   2.526   3.692  1.5151 -0.9187 -1.0156
11210SOL    HW245510   1.972   2.511   3.742  1.4125  2.1167  0.1999
11211SOL     OW45511   1.702   3.135   0.167  0.8848 -0.3438  0.1398
11211SOL    HW145512   1.670   3.078   0.236  2.0017  1.9424  2.5464
11211SOL    HW245513   1.632   3.200   0.155  1.1186 -0.1549 -0.2179
11212SOL     OW45514   2.518   2.107  13.470  0.5520  0.1870 -0.3433
11212SOL    HW145515   2.517   2.202  13.459 -1.7868  0.3013  0.8071
11212SOL    HW245516   2.560   2.093  13.555  0.9377  0.1932 -0.5336
11213SOL     OW45517   3.889   1.207  18.015  0.5130 -0.0025  0.4781
11213SOL    HW145518   3.978   1.206  18.051  0.9964 -1.0920 -0.7427
11213SOL    HW245519   3.871   1.298  17.995  1.1895  0.2750  1.1446
11214SOL     OW45520   0.721   2.755  20.452  0.4599  0.5352 -0.0330
11214SOL    HW145521   0.760   2.806  20.523 -0.8473  1.6061 -0.0945
11214SOL    HW245522   0.627   2.765  20.464  0.2258 -1.6548 -0.2089
11215SOL     OW45523   3.657   3.535   2.553  0.2849  0.2660  0.1879
11215SOL    HW145524   3.676   3.568   2.641  0.8452  0.3828  0.0262
11215SOL    HW245525   3.569   3.567   2.533  0.3553  0.6571  0.5060
11216SOL     OW45526   4.093   0.203   2.316 -0.4762  0.0229  0.2501
11216SOL    HW145527   4.117   0.160   2.399 -3.3110 -0.3209  0.8888
11216SOL    HW245528   4.038   0.277   2.343  0.0675  0.9390 -1.2067
11217SOL     OW45529   2.879   0.946   2.052  0.5008 -0.2882  0.1102
11217SOL    HW145530   2.965   0.987   2.065  0.2132  0.2568  0.3029
11217SOL    HW245531   2.882   0.911   1.963  1.0649 -0.5953  0.2562
11218SOL     OW45532   4.031   4.004  17.467 -0.0408  0.3375 -0.5738
11218SOL    HW145533   3.967   4.066  17.503  0.2284  0.2148  0.1250
11218SOL    HW245534   4.109   4.018  17.521  0.0542 -0.5350 -0.4935
11219SOL     OW45535   2.501   3.372  17.994 -0.2398 -0.2389 -0.2553
11219SOL    HW145536   2.546   3.327  17.923  0.1002  1.4797 -1.1364
11219SOL    HW245537   2.566   3.435  18.027 -0.2482 -1.3120  1.8470
11220SOL     OW45538   0.603   3.639  16.314  0.0335 -0.1544  0.0716
11220SOL    HW145539   0.639   3.629  16.226 -1.5543 -0.9809 -0.4787
11220SOL    HW245540   0.519   3.682  16.301 -0.7293 -1.3287  1.0927
11221SOL     OW45541   4.061   3.912  18.116  0.0039 -0.5608  0.5657
11221SOL    HW145542   4.015   3.943  18.038  2.4275  1.6197 -0.0187
11221SOL    HW245543   4.124   3.848  18.083  1.0817  0.4171  0.7283
11222SOL     OW45544   3.036   1.328  12.036  0.5967 -0.3685 -0.1468
11222SOL    HW145545   3.017   1.377  11.956  3.3612 -1.7953 -1.6749
11222SOL    HW245546   3.085   1.390  12.091 -1.5339  0.6966  0.5571
11223SOL     OW45547   4.167   4.677   5.530 -0.0766 -0.7110 -0.3311
11223SOL    HW145548   4.097   4.691   5.466  0.8906 -0.8670 -1.4322
11223SOL    HW245549   4.172   4.759   5.579 -0.0464 -0.1792 -1.2189
11224SOL     OW45550   4.311   0.185  11.644  0.7024 -0.3602  0.2413
11224SOL    HW145551   4.373   0.249  11.678  0.3231  0.3143 -0.3580
11224SOL    HW245552   4.250   0.235  11.589  1.6765 -1.5298 -1.9367
11225SOL     OW45553   3.696   2.046  18.563  0.0797  0.0335 -0.1120
11225SOL    HW145554   3.684   2.105  18.637  2.9708  2.3543 -1.5021
11225SOL    HW245555   3.750   1.974  18.598 -0.3247  0.0767  0.5950
11226SOL     OW45556   2.486   0.295   4.528  0.0102  0.4230 -0.8317
11226SOL    HW145557   2.510   0.387   4.518  0.2691  0.5320  0.8522
11226SOL    HW245558   2.394   0.297   4.556  0.2180  0.1770 -0.1449
11227SOL     OW45559   4.572   2.005  21.178  0.9261 -0.4706  0.6694
11227SOL    HW145560   4.503   1.945  21.149 -1.4945  1.0094  3.2694
11227SOL    HW245561   4.573   2.074  21.112 -1.0573  0.2394  1.3802
11228SOL     OW45562   3.461   0.203  18.808  0.1502  0.4435  0.0487
11228SOL    HW145563   3.397   0.179  18.874 -0.8308  1.0555 -0.6830
11228SOL    HW245564   3.462   0.129  18.747  0.7265  0.0767  0.5092
11229SOL     OW45565   3.087   4.077   2.642 -0.0871 -0.2732  0.1166
11229SOL    HW145566   3.099   3.986   2.670 -0.3470  0.9374  4.1386
11229SOL    HW245567   3.157   4.091   2.578  0.5501 -3.0365  0.1820
11230SOL     OW45568   0.183   1.624  20.677 -0.1436  0.2838 -0.0367
11230SOL    HW145569   0.158   1.625  20.770  1.8773 -0.0690  0.5134
11230SOL    HW245570   0.248   1.693  20.669 -1.0920  1.0135 -1.4128
11231SOL     OW45571   4.050   2.251   5.337 -0.1233  0.3733  0.0975
11231SOL    HW145572   3.983   2.186   5.359  1.5548 -1.2862  0.2997
11231SOL    HW245573   4.004   2.316   5.284 -1.6389 -1.3493 -0.6900
11232SOL     OW45574   1.548   1.011   7.138 -0.7899  0.5451  0.6393
11232SOL    HW145575   1.565   0.965   7.221 -0.3934 -0.5112 -0.0235
11232SOL    HW245576   1.469   1.062   7.155 -0.7447  0.2905  1.6572
11233SOL     OW45577   2.105   0.028  19.488  0.5890 -0.7063  0.2178
11233SOL    HW145578   2.157   0.004  19.411  0.3518 -0.4314 -0.0275
11233SOL    HW245579   2.170   0.057  19.552  0.7097  0.0374 -0.2401
11234SOL     OW45580   3.431   4.489   4.544  0.2423 -0.1606  0.4966
11234SOL    HW145581   3.410   4.536   4.464 -0.7193  1.0348  1.4413
11234SOL    HW245582   3.373   4.413   4.545 -0.7828  0.6377  0.8134
11235SOL     OW45583   0.033   4.143  12.259  0.2514 -0.5761 -0.2921
11235SOL    HW145584   4.755   4.096  12.322  0.3887  4.1227  3.3196
11235SOL    HW245585   0.123   4.129  12.289  0.1635  3.7785  2.0021
11236SOL     OW45586   0.464   3.136  19.550  0.0918  0.3135 -0.1838
11236SOL    HW145587   0.402   3.068  19.574  1.8511 -1.0449  0.5360
11236SOL    HW245588   0.548   3.104  19.583  1.1604  2.1467 -1.1396
11237SOL     OW45589   3.248   3.890   0.030  0.2483  0.0998  0.1398
11237SOL    HW145590   3.191   3.912  21.152  1.8133  2.7343 -0.2690
11237SOL    HW245591   3.281   3.802   0.009 -1.2135 -0.1559 -1.1308
11238SOL     OW45592   1.234   4.511   6.385  0.0827 -0.4327  0.2957
11238SOL    HW145593   1.168   4.477   6.325  0.0562  3.4155 -1.8893
11238SOL    HW245594   1.195   4.503   6.472 -2.9585  1.2084 -0.9488
11239SOL     OW45595   3.610   0.193   5.071 -1.0750  0.2501 -0.6052
11239SOL    HW145596   3.679   0.127   5.070 -1.2445  0.0909 -2.0664
11239SOL    HW245597   3.529   0.144   5.059 -1.2742  0.6154 -0.7750
11240SOL     OW45598   4.741   0.544  16.993  0.3032  0.0354 -0.4320
11240SOL    HW145599   4.703   0.506  16.914  0.6060 -0.4265 -0.3531
11240SOL    HW245600   4.716   0.637  16.989 -0.3174 -0.1390 -0.6913
11241SOL     OW45601   1.366   4.207  11.448 -0.1976 -0.5421 -0.6882
11241SOL    HW145602   1.413   4.273  11.499  0.2690 -1.5695  0.2241
11241SOL    HW245603   1.397   4.219  11.358  0.6591 -0.2041 -0.3511
11242SOL     OW45604   4.068   4.486   2.961 -0.0271 -0.0156  0.6788
11242SOL    HW145605   4.098   4.498   2.871  1.2523 -0.2989  1.0586
11242SOL    HW245606   3.997   4.549   2.972 -0.9632 -0.8000 -0.9014
11243SOL     OW45607   1.847   4.427   4.011  0.5938 -0.1379 -0.3596
11243SOL    HW145608   1.755   4.452   4.014  0.7629  0.5898 -0.8985
11243SOL    HW245609   1.857   4.360   4.078 -0.3960 -0.4475 -0.5204
11244SOL     OW45610   4.159   3.994  19.531  0.6094  0.0181  0.4885
11244SOL    HW145611   4.224   4.064  19.539  1.8009 -1.1394  0.9030
11244SOL    HW245612   4.209   3.913  19.543 -0.9719 -0.8526  1.2433
11245SOL     OW45613   1.895   4.308  19.570 -0.7808 -0.4117 -0.0725
11245SOL    HW145614   1.978   4.355  19.578 -0.2882 -1.5637  1.6138
11245SOL    HW245615   1.901   4.261  19.487  0.0336 -0.0469 -0.2163
11246SOL     OW45616   1.205   2.287   7.059  0.1178  0.4526  0.1357
11246SOL    HW145617   1.192   2.211   7.002 -2.7325  0.3817  0.9013
11246SOL    HW245618   1.234   2.250   7.142  1.4931  0.3710 -0.3865
11247SOL     OW45619   2.386   1.797  17.120  0.1933  0.1986 -0.5272
11247SOL    HW145620   2.461   1.801  17.178  1.6589  0.7789 -2.4744
11247SOL    HW245621   2.334   1.874  17.142  0.0505 -0.3189  0.9613
11248SOL     OW45622   2.505   0.303  10.090  0.3835 -0.5400  0.1567
11248SOL    HW145623   2.574   0.242  10.118 -0.6447 -1.7362  0.0884
11248SOL    HW245624   2.468   0.337  10.172 -0.2585 -1.3706  0.2075
11249SOL     OW45625   2.781   1.064  16.710 -0.4796 -0.3185  0.1043
11249SOL    HW145626   2.771   0.970  16.698 -1.7750 -0.3171  1.1669
11249SOL    HW245627   2.726   1.103  16.642  0.0682 -0.3170 -0.3452
11250SOL     OW45628   4.686   3.426   4.812  0.5842 -0.5542  0.2515
11250SOL    HW145629   4.738   3.346   4.810  0.8615 -0.3971  1.2995
11250SOL    HW245630   4.685   3.452   4.904 -1.1563 -0.4268  0.2031
11251SOL     OW45631   3.429   3.411  16.909 -0.5919  0.4578 -0.0038
11251SOL    HW145632   3.420   3.506  16.915 -0.9159  0.4898 -0.9687
11251SOL    HW245633   3.488   3.388  16.981 -0.2239  1.4202  0.0039
11252SOL     OW45634   2.110   1.360   0.845 -0.1604 -1.2452  0.3969
11252SOL    HW145635   2.094   1.411   0.766 -0.7312 -1.5814  0.2972
11252SOL    HW245636   2.093   1.421   0.917 -1.8016 -1.5896  0.2920
11253SOL     OW45637   0.614   4.023  17.030 -0.1237 -0.8067  0.1183
11253SOL    HW145638   0.568   4.030  17.114 -3.6628 -1.2554 -1.7719
11253SOL    HW245639   0.583   4.098  16.979  0.4054 -1.7391 -1.5764
11254SOL     OW45640   2.076   4.736  18.093  0.3487 -0.2446  0.1764
11254SOL    HW145641   2.046   4.685  18.018 -3.1606  1.8091  0.1955
11254SOL    HW245642   2.129   0.030  18.055  1.5135 -1.3233 -0.1618
11255SOL     OW45643   3.501   0.324   5.559  1.0389  0.5200  0.3350
11255SOL    HW145644   3.535   0.261   5.496 -0.4192  0.8271 -0.7569
11255SOL    HW245645   3.504   0.279   5.644  0.9564 -0.6254 -0.2854
11256SOL     OW45646   0.769   0.561  20.405 -0.1296 -0.1796  0.2903
11256SOL    HW145647   0.792   0.653  20.396  0.6628 -0.5153 -1.0824
11256SOL    HW245648   0.720   0.540  20.325 -1.4160 -0.6074  1.1890
11257SOL     OW45649   2.025   4.511  15.039 -0.0124  0.0499  0.2276
11257SOL    HW145650   2.071   4.466  15.110 -0.1743 -0.7708 -0.1895
11257SOL    HW245651   2.061   4.600  15.040  1.7274 -0.6615 -0.2385
11258SOL     OW45652   3.366   3.103  13.815  0.4177  0.6706 -0.0614
11258SOL    HW145653   3.417   3.065  13.886  0.1678 -0.0767 -0.2856
11258SOL    HW245654   3.282   3.126  13.855  1.0968  2.3360  0.4201
11259SOL     OW45655   4.229   1.885  17.066  0.1843  0.1624 -0.3961
11259SOL    HW145656   4.291   1.938  17.017  0.5218 -0.3863 -0.5595
11259SOL    HW245657   4.163   1.859  17.002  1.0074 -1.1460 -0.7120
11260SOL     OW45658   0.565   0.737  17.596  0.4359  0.1168  0.0717
11260SOL    HW145659   0.603   0.677  17.531 -1.3534  0.1785 -1.0146
11260SOL    HW245660   0.635   0.750  17.660  2.0516 -0.2665 -1.6284
11261SOL     OW45661   3.093   1.311   1.016  0.3079  0.2484 -0.5582
11261SOL    HW145662   3.027   1.334   1.083  0.2109  1.3198 -1.0166
11261SOL    HW245663   3.061   1.229   0.979  1.4057 -1.3710  2.0956
11262SOL     OW45664   0.170   2.288  18.924  0.0064 -0.4746 -0.0315
11262SOL    HW145665   0.204   2.207  18.885  0.2403 -1.3600  2.0017
11262SOL    HW245666   0.112   2.259  18.994 -1.2664  1.1061 -0.4232
11263SOL     OW45667   2.541   3.523  12.304  0.1869  0.3000  0.5448
11263SOL    HW145668   2.522   3.589  12.371  0.1445  2.2832 -1.4558
11263SOL    HW245669   2.630   3.541  12.276  0.4500 -0.9711  0.5726
11264SOL     OW45670   0.633   1.272  17.637  0.3227 -0.1037  0.5546
11264SOL    HW145671   0.721   1.248  17.610  0.4360  0.9320  0.0064
11264SOL    HW245672   0.578   1.252  17.561  0.1505 -0.3090  0.7319
11265SOL     OW45673   3.392   1.870  16.511  0.1545  0.1044  0.7924
11265SOL    HW145674   3.480   1.871  16.474 -0.4712 -0.7641 -0.7004
11265SOL    HW245675   3.390   1.947  16.568  1.8656  0.1589  0.8002
11266SOL     OW45676   0.394   2.234   9.388 -0.1914  0.2527  0.0410
11266SOL    HW145677   0.387   2.257   9.295  1.7941 -2.4132 -0.7702
11266SOL    HW245678   0.444   2.306   9.427 -0.6525  1.1569 -1.0305
11267SOL     OW45679   4.023   3.066  18.547 -0.7587  0.1935 -0.1229
11267SOL    HW145680   3.996   3.085  18.457 -2.8971  2.2614  0.9632
11267SOL    HW245681   4.103   3.116  18.560 -0.2278 -0.4247 -0.9968
11268SOL     OW45682   1.692   1.796   8.768 -0.4186  0.3831 -0.0422
11268SOL    HW145683   1.642   1.878   8.767  1.6082  1.5954 -0.7884
11268SOL    HW245684   1.722   1.786   8.678  1.5597  0.1662  0.6570
11269SOL     OW45685   2.525   2.067  18.971 -0.5082 -0.4959  0.4446
11269SOL    HW145686   2.592   2.056  18.904  0.3088  1.3430  0.9549
11269SOL    HW245687   2.487   1.980  18.982 -0.1650 -0.9388 -1.9083
11270SOL     OW45688   0.782   0.383  11.506 -0.3196 -0.0511  0.3169
11270SOL    HW145689   0.852   0.430  11.460 -0.8495 -1.5179 -1.9975
11270SOL    HW245690   0.704   0.438  11.493  0.3304  1.3742  2.5434
11271SOL     OW45691   0.471   0.310   6.351 -0.2127  0.1022  0.3296
11271SOL    HW145692   0.561   0.293   6.325 -0.7351 -3.2009  0.7073
11271SOL    HW245693   0.421   0.235   6.320 -2.6441  1.3440  1.1629
11272SOL     OW45694   3.896   3.021   0.472  0.4330  0.1130 -0.4709
11272SOL    HW145695   3.832   3.004   0.402 -0.1228 -0.1040  0.0913
11272SOL    HW245696   3.901   2.939   0.520  1.8529 -0.1594 -1.0980
11273SOL     OW45697   3.485   0.077  19.283 -0.3860 -0.4329  0.0475
11273SOL    HW145698   3.398   0.116  19.276 -0.3504 -0.3158  0.2833
11273SOL    HW245699   3.499   0.064  19.377  0.1181  0.1529  0.0571
11274SOL     OW45700   0.558   1.300   0.400 -0.1477 -0.0614  0.0279
11274SOL    HW145701   0.567   1.207   0.381 -2.2631 -0.3470  0.4780
11274SOL    HW245702   0.464   1.317   0.394 -0.0565  1.3961  3.0826
11275SOL     OW45703   2.626   1.345   9.394  0.4107 -0.1230 -0.0463
11275SOL    HW145704   2.582   1.261   9.382 -0.9465  0.4001  1.1700
11275SOL    HW245705   2.677   1.358   9.315 -0.0182 -1.7271 -0.5738
11276SOL     OW45706   2.025   2.152  16.630  0.1035  0.4024  0.0773
11276SOL    HW145707   2.009   2.083  16.694 -0.8525  0.7094  0.1737
11276SOL    HW245708   2.078   2.111  16.562 -1.5687 -0.7694 -0.5257
11277SOL     OW45709   1.258   3.293  20.246  0.2734  0.3720 -0.1006
11277SOL    HW145710   1.230   3.378  20.280 -2.1214 -1.0959  1.6257
11277SOL    HW245711   1.188   3.267  20.185  1.6500  0.2630 -1.6245
11278SOL     OW45712   0.979   1.731  14.674  0.0972  0.1791 -0.6986
11278SOL    HW145713   0.982   1.776  14.589 -0.2142 -0.1224 -0.8687
11278SOL    HW245714   1.067   1.741  14.709 -0.3656  2.1694 -0.0984
11279SOL     OW45715   2.444   1.022   0.101 -0.0665 -0.0621  0.0449
11279SOL    HW145716   2.478   1.071   0.027 -2.1779 -1.7013 -2.0286
11279SOL    HW245717   2.512   1.027   0.168  2.0376  0.9709 -2.2049
11280SOL     OW45718   1.721   0.793   0.657 -0.0243 -0.2926 -0.0262
11280SOL    HW145719   1.642   0.813   0.707 -0.2777 -2.2950  0.3692
11280SOL    HW245720   1.754   0.878   0.630 -1.0289  0.6749  1.7933
11281SOL     OW45721   1.857   2.135   7.219 -0.4364 -0.0749 -0.1534
11281SOL    HW145722   1.943   2.093   7.223  0.0612  1.1034  1.4207
11281SOL    HW245723   1.839   2.142   7.125  1.8645  1.0687 -0.5154
11282SOL     OW45724   2.289   0.669   3.015  0.1227 -0.5710 -0.3152
11282SOL    HW145725   2.229   0.696   2.946 -0.0034  0.7702  0.3223
11282SOL    HW245726   2.376   0.689   2.981  0.0305  0.6024  0.1458
11283SOL     OW45727   3.561   0.030  16.992 -0.4818  0.1976  0.0632
11283SOL    HW145728   3.566   4.710  16.984  0.0973  0.3629 -1.6379
11283SOL    HW245729   3.584   0.047  17.084 -1.1492 -1.3346  0.5209
11284SOL     OW45730   1.979   4.363   2.431 -0.3589  0.0196 -0.1803
11284SOL    HW145731   1.997   4.403   2.516  2.1884  0.2358 -0.8193
11284SOL    HW245732   2.030   4.283   2.431  0.5963  0.6313 -2.0072
11285SOL     OW45733   4.366   3.482   0.179 -0.1340  0.1743 -0.4882
11285SOL    HW145734   4.449   3.522   0.153 -0.2967  0.6131 -0.3256
11285SOL    HW245735   4.382   3.448   0.267 -0.3383  0.8628 -0.1874
11286SOL     OW45736   4.664   3.910   3.986  0.2923  0.2445  0.3346
11286SOL    HW145737   4.749   3.955   3.988 -0.0449  0.9022 -0.0735
11286SOL    HW245738   4.647   3.894   3.893  0.7213 -1.3249  0.5218
11287SOL     OW45739   4.470   0.116   8.537 -0.7706 -0.3837  1.1790
11287SOL    HW145740   4.453   0.115   8.631  2.8981  0.7573  1.8641
11287SOL    HW245741   4.506   0.030   8.518 -0.4362 -0.2045  1.0072
11288SOL     OW45742   1.436   1.243  18.929 -0.1505 -0.5176  0.3388
11288SOL    HW145743   1.451   1.331  18.963 -1.1777 -1.0501  2.1336
11288SOL    HW245744   1.476   1.244  18.842  1.6901  1.0693  1.2169
11289SOL     OW45745   4.769   1.082   4.388 -0.0562 -0.0083 -0.8320
11289SOL    HW145746   4.733   1.000   4.354 -0.8537  0.7056 -1.7013
11289SOL    HW245747   4.699   1.119   4.441  0.5635 -0.2517  0.1485
11290SOL     OW45748   1.476   3.747  15.928 -0.0992  0.0179  0.3989
11290SOL    HW145749   1.421   3.801  15.872 -0.1788 -0.6911 -0.2087
11290SOL    HW245750   1.422   3.670  15.947  0.0331  0.1239  1.2154
11291SOL     OW45751   0.002   3.434  16.960  0.0456  0.3176 -0.1570
11291SOL    HW145752   4.689   3.412  16.985  0.9274 -1.9949  0.9791
11291SOL    HW245753   0.000   3.529  16.944 -2.5924  0.2524 -0.1643
11292SOL     OW45754   1.036   4.365  17.809  0.5658 -0.3338 -0.0474
11292SOL    HW145755   0.974   4.434  17.785 -0.1681 -1.0056 -0.1112
11292SOL    HW245756   1.118   4.410  17.826 -0.2162  0.6701  1.0501
11293SOL     OW45757   2.165   0.500   0.665  0.2281 -0.2945  0.3702
11293SOL    HW145758   2.078   0.460   0.659 -0.5831  1.3665  1.0808
11293SOL    HW245759   2.221   0.431   0.700 -1.2993 -0.6583  2.0977
11294SOL     OW45760   3.481   0.629  13.563  0.0002 -0.3641  0.1215
11294SOL    HW145761   3.395   0.624  13.520 -0.3213 -0.4771  0.7821
11294SOL    HW245762   3.535   0.566  13.515 -0.0863  0.2368 -0.7567
11295SOL     OW45763   0.601   3.492  20.406 -0.0783  0.1148  0.1079
11295SOL    HW145764   0.637   3.415  20.450 -1.6101  0.8884  2.6924
11295SOL    HW245765   0.526   3.459  20.357 -0.6061 -0.0513  1.0418
11296SOL     OW45766   1.507   2.166  13.983  0.0075  0.3087 -0.5782
11296SOL    HW145767   1.509   2.081  14.027 -0.3677  0.2820 -0.6120
11296SOL    HW245768   1.446   2.218  14.035  0.1268  0.5119 -0.6426
11297SOL     OW45769   0.363   2.033   2.694 -0.1367  0.2616  0.0102
11297SOL    HW145770   0.397   1.976   2.763 -0.1448 -1.0458 -1.0454
11297SOL    HW245771   0.326   2.108   2.740 -0.7515 -0.9319  1.4666
11298SOL     OW45772   3.439   2.387   4.438 -0.3591 -0.4492  0.1808
11298SOL    HW145773   3.449   2.296   4.409  4.2425 -0.4890  1.8888
11298SOL    HW245774   3.529   2.418   4.452 -1.9756  3.9128  0.9821
11299SOL     OW45775   2.493   1.326   4.455 -0.2428  0.2744  0.1196
11299SOL    HW145776   2.541   1.408   4.467 -0.2231  0.1822  0.7024
11299SOL    HW245777   2.477   1.321   4.361  0.2294  0.6799  0.0145
11300SOL     OW45778   4.043   1.680   4.766  0.3513  0.3451  0.2244
11300SOL    HW145779   4.080   1.627   4.696  0.4637  0.7886 -0.0530
11300SOL    HW245780   4.064   1.770   4.741  2.0515  0.3863  1.7837
11301SOL     OW45781   1.483   2.953   0.619  0.2842  0.0151  0.3484
11301SOL    HW145782   1.420   3.025   0.621 -1.0093 -1.1116 -0.2221
11301SOL    HW245783   1.550   2.981   0.557 -0.2450  0.7023  0.0907
11302SOL     OW45784   3.840   2.145   7.904  0.3588 -0.5529 -0.3691
11302SOL    HW145785   3.764   2.120   7.853 -0.3079 -0.3092  0.5099
11302SOL    HW245786   3.904   2.176   7.839 -0.7199  0.3501 -0.9957
11303SOL     OW45787   3.512   2.904   5.938  0.0865  0.1543  0.1072
11303SOL    HW145788   3.543   2.943   5.857  0.2238  0.4659  0.3084
11303SOL    HW245789   3.588   2.857   5.972 -0.4289 -1.2917 -0.7497
11304SOL     OW45790   0.567   4.546  16.175 -0.0452 -0.0635  0.3677
11304SOL    HW145791   0.500   4.477  16.177 -1.4674  1.3510  1.7256
11304SOL    HW245792   0.570   4.574  16.084 -2.2744  0.8145  0.5538
11305SOL     OW45793   2.855   0.750  16.202  0.2739 -0.7846 -0.1737
11305SOL    HW145794   2.838   0.657  16.189  1.4413 -1.1254  0.7633
11305SOL    HW245795   2.914   0.754  16.278  1.4894  0.6046 -1.1735
11306SOL     OW45796   4.300   0.304   2.167 -0.1067  0.5274  0.3122
11306SOL    HW145797   4.245   0.254   2.229 -1.0756  1.3877  0.1458
11306SOL    HW245798   4.307   0.391   2.206  0.7762  0.5490  0.1063
11307SOL     OW45799   0.727   3.488   0.652 -0.3918 -0.1799  0.5885
11307SOL    HW145800   0.672   3.414   0.676  0.2423 -0.0244  2.5286
11307SOL    HW245801   0.695   3.560   0.706 -0.7538  0.8691 -1.0088
11308SOL     OW45802   0.672   2.081   0.645 -0.2241  0.3749  0.0730
11308SOL    HW145803   0.620   2.001   0.641 -1.8924  1.4125  1.0600
11308SOL    HW245804   0.716   2.077   0.730  0.2314  0.1782 -0.1695
11309SOL     OW45805   1.941   3.694   5.765  0.1392  0.3784  0.6141
11309SOL    HW145806   1.881   3.628   5.729 -0.3788  0.6326  1.0241
11309SOL    HW245807   2.023   3.678   5.718 -0.2592  0.0710  0.0077
11310SOL     OW45808   4.423   3.887   5.503 -0.1472 -0.2618  0.0280
11310SOL    HW145809   4.419   3.831   5.581  0.9512  0.2478  0.4521
11310SOL    HW245810   4.340   3.871   5.458  0.2211 -2.3595  0.0699
11311SOL     OW45811   2.823   0.664   6.081  0.5764  0.4620  0.5265
11311SOL    HW145812   2.870   0.747   6.076 -1.5997  1.6519 -0.0106
11311SOL    HW245813   2.826   0.639   6.173  1.1300  1.1798  0.6984
11312SOL     OW45814   0.260   1.921  16.536 -0.2790  0.4933 -0.2297
11312SOL    HW145815   0.172   1.886  16.550 -0.1971 -0.1174 -1.3047
11312SOL    HW245816   0.266   1.994  16.598 -1.2578  0.0454  0.3992
11313SOL     OW45817   0.873   0.814  19.990 -0.4298 -0.4060  0.1229
11313SOL    HW145818   0.887   0.726  19.954  1.4606 -0.0736  0.0626
11313SOL    HW245819   0.955   0.860  19.973 -1.2708  1.2391  0.5511
11314SOL     OW45820   3.124   3.888  17.053 -0.2681 -0.0431  0.0378
11314SOL    HW145821   3.061   3.828  17.094  0.9166  0.2587  2.3094
11314SOL    HW245822   3.184   3.830  17.006 -0.9652 -0.4679 -0.3289
11315SOL     OW45823   1.486   1.120   9.557  0.4244 -0.1964  0.2182
11315SOL    HW145824   1.438   1.157   9.483  0.0771  2.5763  1.8053
11315SOL    HW245825   1.572   1.099   9.523 -0.2963 -0.4601 -1.4069
11316SOL     OW45826   0.060   1.789   7.915 -0.1511  0.1909  0.0819
11316SOL    HW145827   4.743   1.809   7.902 -0.4045  0.5608  2.3516
11316SOL    HW245828   0.104   1.828   7.840 -1.7029  1.1676 -0.3200
11317SOL     OW45829   2.128   1.474   3.093 -0.8965 -0.1252  0.8299
11317SOL    HW145830   2.205   1.426   3.061 -1.0422  0.4441 -0.3508
11317SOL    HW245831   2.070   1.479   3.017 -0.9636  1.7773  1.0290
11318SOL     OW45832   0.971   0.628   3.895 -0.5269  0.0011  0.4973
11318SOL    HW145833   0.933   0.709   3.860  0.2841  0.1358 -0.0645
11318SOL    HW245834   1.007   0.583   3.819 -0.7119 -0.7454  0.8535
11319SOL     OW45835   0.230   1.192   1.181 -0.4194  0.0399  0.3922
11319SOL    HW145836   0.169   1.190   1.254 -1.3554  1.0290 -0.3629
11319SOL    HW245837   0.277   1.109   1.186 -0.1384  0.3282  2.4068
11320SOL     OW45838   4.667   4.393  10.206  0.2966 -0.2342  0.7774
11320SOL    HW145839   4.667   4.467  10.267 -0.0452 -1.2277  1.9893
11320SOL    HW245840   4.758   4.384  10.178  0.0347  1.7194 -0.6741
11321SOL     OW45841   4.679   1.353   1.865  0.0646 -0.2409  0.6248
11321SOL    HW145842   4.727   1.337   1.946 -1.2331  2.2112  1.8691
11321SOL    HW245843   4.733   1.414   1.815 -1.0281  1.3656  1.3862
11322SOL     OW45844   1.421   0.287  18.945  0.1277  0.1050  0.3474
11322SOL    HW145845   1.451   0.378  18.952 -0.9577  0.4245  0.8319
11322SOL    HW245846   1.439   0.263  18.854  1.5910  0.3921  0.5581
11323SOL     OW45847   2.332   1.221  11.302  0.0210  0.3773  0.3762
11323SOL    HW145848   2.366   1.311  11.303  0.1580  0.3514 -1.6832
11323SOL    HW245849   2.271   1.220  11.228  0.6989 -1.4688 -0.1467
11324SOL     OW45850   0.368   0.068   5.751 -0.8928  0.2882 -0.2882
11324SOL    HW145851   0.369   0.156   5.789  0.3467  1.4914 -3.1471
11324SOL    HW245852   0.459   0.041   5.751 -0.8657  0.3940 -2.6903
11325SOL     OW45853   2.043   3.569   0.786 -0.6110 -0.0093  0.2012
11325SOL    HW145854   2.003   3.656   0.786  0.1863  0.3613 -0.0186
11325SOL    HW245855   2.101   3.570   0.710 -0.4597 -0.6713  0.3072
11326SOL     OW45856   3.452   4.232  19.840  0.1740  0.0695 -0.1596
11326SOL    HW145857   3.423   4.193  19.758  0.7258  0.5341 -0.5765
11326SOL    HW245858   3.416   4.321  19.839 -1.0700 -0.4159  0.7821
11327SOL     OW45859   4.662   2.339  20.195 -0.9442 -0.0736 -1.1339
11327SOL    HW145860   4.750   2.347  20.157 -1.1158 -1.0801 -1.7178
11327SOL    HW245861   4.629   2.429  20.196  0.0901  0.3073 -0.9190
11328SOL     OW45862   2.728   0.848   7.148 -0.7166  0.0697  0.3469
11328SOL    HW145863   2.790   0.777   7.165 -0.9428 -0.2058  0.0272
11328SOL    HW245864   2.718   0.849   7.053 -1.4053 -0.0588  0.4186
11329SOL     OW45865   4.204   0.219   1.346  0.3391  0.1977 -0.4135
11329SOL    HW145866   4.244   0.304   1.365 -2.0491  1.1014  0.5823
11329SOL    HW245867   4.200   0.174   1.430 -1.5504  0.4569 -0.3537
11330SOL     OW45868   4.317   3.565   7.470 -0.2207  0.7091  0.2233
11330SOL    HW145869   4.231   3.600   7.491 -0.5790 -0.2175  0.2849
11330SOL    HW245870   4.368   3.641   7.441 -1.7753  0.8369 -2.1208
11331SOL     OW45871   1.707   3.590  20.614 -0.7929  0.2381  0.1626
11331SOL    HW145872   1.758   3.530  20.667  1.4246  2.0781  0.0926
11331SOL    HW245873   1.719   3.558  20.524  0.8803  1.1767  0.0616
11332SOL     OW45874   3.049   4.460  20.010 -0.2960 -0.1219 -0.2339
11332SOL    HW145875   2.975   4.444  20.069  0.0661 -0.7859  0.0415
11332SOL    HW245876   3.106   4.384  20.022  0.3850  0.3429 -0.5195
11333SOL     OW45877   4.009   0.460   9.072  0.5514  0.1588 -0.1980
11333SOL    HW145878   3.964   0.379   9.096  0.9813 -0.3976 -1.2783
11333SOL    HW245879   3.939   0.526   9.067  0.0992 -0.3167 -0.1155
11334SOL     OW45880   1.595   1.007   3.385 -0.1486 -0.2524  0.0755
11334SOL    HW145881   1.680   1.047   3.363  0.5919 -0.6862  2.1263
11334SOL    HW245882   1.531   1.074   3.365  0.7496  0.3531 -0.7716
11335SOL     OW45883   3.919   3.262   6.714  0.1287  0.1224 -0.1518
11335SOL    HW145884   3.858   3.191   6.695  0.2842  0.3523 -1.5137
11335SOL    HW245885   3.870   3.321   6.772 -0.1256 -0.8974  0.6580
11336SOL     OW45886   2.069   3.001  21.144 -0.0257 -0.0052 -0.2630
11336SOL    HW145887   2.036   3.082  21.185 -1.7055 -0.4768 -0.6638
11336SOL    HW245888   2.145   3.029  21.093 -0.2714  1.2415  0.0435
11337SOL     OW45889   4.457   1.617   1.626 -0.0426 -0.4887  0.4715
11337SOL    HW145890   4.410   1.698   1.647 -2.4613 -2.2002  1.6059
11337SOL    HW245891   4.495   1.633   1.540 -2.4233  1.0276 -0.2977
11338SOL     OW45892   1.344   3.226   4.248  0.2486  0.0743 -0.9300
11338SOL    HW145893   1.269   3.209   4.191  0.0111 -0.4373 -0.4666
11338SOL    HW245894   1.398   3.147   4.241  0.8881  0.5628 -1.4888
11339SOL     OW45895   2.229   3.024  15.378  0.0727 -0.2209 -0.8702
11339SOL    HW145896   2.219   3.032  15.473 -1.5943 -0.9810 -0.9801
11339SOL    HW245897   2.257   3.110  15.349  2.8007 -0.6237  0.6108
11340SOL     OW45898   0.007   0.317  18.901  0.0055 -0.0028 -0.2099
11340SOL    HW145899   0.059   0.236  18.901  1.0845  0.6937  1.0887
11340SOL    HW245900   4.735   0.315  18.984 -1.8290 -0.4960 -1.2705
11341SOL     OW45901   0.676   4.062  16.632 -0.2455 -0.2929  0.2120
11341SOL    HW145902   0.750   4.006  16.608 -0.0014 -0.8669  2.3264
11341SOL    HW245903   0.610   4.002  16.667 -0.7539  0.5133  0.6486
11342SOL     OW45904   1.907   2.696  10.090 -0.1585  0.6832  0.0648
11342SOL    HW145905   1.912   2.737  10.003 -2.0589  1.1787  0.1786
11342SOL    HW245906   1.960   2.751  10.146  0.0274  1.0946 -0.5112
11343SOL     OW45907   2.386   0.462   8.568 -0.4231  0.0757  0.0929
11343SOL    HW145908   2.305   0.458   8.619 -0.5901 -0.2638 -0.1967
11343SOL    HW245909   2.453   0.489   8.631 -0.6184 -0.4026  0.5081
11344SOL     OW45910   0.759   2.558   3.262  0.6375 -0.4334  0.1827
11344SOL    HW145911   0.778   2.502   3.337 -0.3139 -1.7844 -0.5787
11344SOL    HW245912   0.838   2.554   3.209  2.0322  2.0490  2.0609
11345SOL     OW45913   2.091   2.920   8.052 -0.1195  0.2790  0.3873
11345SOL    HW145914   2.080   2.896   8.143  0.1836 -0.3751  0.2491
11345SOL    HW245915   2.084   3.016   8.051  0.5174  0.3289  1.1780
11346SOL     OW45916   1.820   2.154  17.266  0.2306 -0.6781 -0.3022
11346SOL    HW145917   1.861   2.218  17.324 -0.7475 -0.1640 -0.1650
11346SOL    HW245918   1.853   2.175  17.179  1.2021 -1.0417 -0.0207
11347SOL     OW45919   2.285   2.389  18.985 -0.3431 -0.2592 -0.7185
11347SOL    HW145920   2.271   2.336  18.907 -0.7147  0.1807 -0.9492
11347SOL    HW245921   2.368   2.435  18.967  0.1045 -0.9515 -0.4132
11348SOL     OW45922   2.346   1.566   8.220 -0.3510 -0.3735  0.1865
11348SOL    HW145923   2.280   1.604   8.278  0.0429  0.8292 -0.1487
11348SOL    HW245924   2.428   1.606   8.247  0.1143 -1.2106  0.0194
11349SOL     OW45925   1.400   3.590   7.405  0.5781  0.2241 -0.7734
11349SOL    HW145926   1.456   3.513   7.415  1.1246  0.5809 -1.0911
11349SOL    HW245927   1.312   3.558   7.423  0.8845 -0.3397 -0.2804
11350SOL     OW45928   0.926   1.355   1.366  0.2454 -0.3010 -0.1663
11350SOL    HW145929   0.901   1.262   1.374 -0.3213 -0.4319 -3.3594
11350SOL    HW245930   0.844   1.399   1.342  0.7476  0.8726  0.3220
11351SOL     OW45931   3.112   0.954  18.654 -0.9780  0.0339  0.0631
11351SOL    HW145932   3.091   0.980  18.743 -0.6488  2.1084 -0.4590
11351SOL    HW245933   3.205   0.974  18.644 -0.3342 -2.8608  0.1839
11352SOL     OW45934   3.965   2.502   4.388  0.0865  0.1405  0.3298
11352SOL    HW145935   3.987   2.548   4.470  1.6888  0.0986 -0.0829
11352SOL    HW245936   4.031   2.532   4.326 -1.6808  0.8680 -1.1998
11353SOL     OW45937   3.862   0.977  19.762  0.0591  0.7802  0.1887
11353SOL    HW145938   3.869   0.914  19.691  1.0182  1.9481 -0.7429
11353SOL    HW245939   3.947   0.975  19.805 -0.2408  0.6994  0.7779
11354SOL     OW45940   1.168   3.432  17.312 -0.0365 -0.5252  0.5068
11354SOL    HW145941   1.085   3.468  17.282 -0.4872 -0.5711  1.6981
11354SOL    HW245942   1.163   3.339  17.292  0.3882 -0.2314 -0.9177
11355SOL     OW45943   3.025   3.307   9.272 -0.0009 -0.5596 -0.2095
11355SOL    HW145944   2.944   3.358   9.280 -0.0630 -0.7538  0.4026
11355SOL    HW245945   3.025   3.250   9.349  0.3647 -1.0611 -0.5781
11356SOL     OW45946   4.112   4.271  17.215  0.0364 -0.6352  0.2785
11356SOL    HW145947   4.042   4.215  17.248 -1.5901  0.3585 -1.4455
11356SOL    HW245948   4.103   4.267  17.119  1.9195  0.0094  0.0728
11357SOL     OW45949   3.066   3.371   1.152  0.5783  0.0555 -0.5331
11357SOL    HW145950   3.017   3.439   1.108  0.7523 -0.8998 -2.1829
11357SOL    HW245951   3.154   3.408   1.165  0.0236  0.9779  0.5619
11358SOL     OW45952   2.728   1.253   5.612  0.1837  0.0432 -0.0514
11358SOL    HW145953   2.689   1.219   5.532 -0.2510  0.9709 -0.2372
11358SOL    HW245954   2.726   1.348   5.601  1.3680  0.1253  0.4763
11359SOL     OW45955   1.594   1.406   3.588 -0.1504 -0.3542 -0.3186
11359SOL    HW145956   1.542   1.368   3.518 -1.0202  0.8108 -0.3016
11359SOL    HW245957   1.670   1.348   3.596 -1.6437 -2.2501 -0.0640
11360SOL     OW45958   4.108   3.227  11.191  0.1011 -0.0829  0.1291
11360SOL    HW145959   4.065   3.225  11.106  1.0774 -1.8834 -0.3386
11360SOL    HW245960   4.074   3.150  11.237 -0.6624  1.0567  1.4721
11361SOL     OW45961   0.712   0.584   0.473  0.3311  0.0598 -0.3819
11361SOL    HW145962   0.670   0.510   0.430  1.0218  0.1150 -1.1476
11361SOL    HW245963   0.805   0.576   0.450  0.2296  1.7756 -1.3705
11362SOL     OW45964   3.695   0.239   6.131  0.2245 -0.1478  0.2412
11362SOL    HW145965   3.771   0.282   6.170  0.7748  0.7309 -1.8357
11362SOL    HW245966   3.626   0.306   6.133  0.0734 -0.3039  0.2652
11363SOL     OW45967   1.836   0.786  15.404 -0.5076 -0.2555  0.7618
11363SOL    HW145968   1.863   0.705  15.359 -2.7872 -1.1363  0.9609
11363SOL    HW245969   1.741   0.781  15.406 -0.5182  1.0482  3.3805
11364SOL     OW45970   0.023   0.236   1.143  0.2062  0.3488  0.3865
11364SOL    HW145971   4.766   0.280   1.221 -2.4114 -0.1112 -0.4606
11364SOL    HW245972   4.722   0.223   1.088  1.6115 -1.7550 -1.0948
11365SOL     OW45973   0.380   4.113  19.205 -0.1067  0.0595 -0.0217
11365SOL    HW145974   0.452   4.077  19.257  0.0046 -0.7377 -0.7259
11365SOL    HW245975   0.419   4.130  19.119 -0.1763  1.7879  0.2781
11366SOL     OW45976   2.999   3.547   3.623 -0.1622 -0.5369 -0.1882
11366SOL    HW145977   2.958   3.611   3.681 -1.5393  0.5002 -2.3075
11366SOL    HW245978   3.014   3.594   3.541  0.4636 -2.4028 -1.1613
11367SOL     OW45979   4.030   2.166  19.772  0.2565  0.3463 -0.0644
11367SOL    HW145980   3.963   2.155  19.705 -0.2853 -0.4665  0.6201
11367SOL    HW245981   4.081   2.086  19.769 -0.0114  0.1445  0.7725
11368SOL     OW45982   0.341   1.458  17.450 -0.3278  0.3766 -0.6376
11368SOL    HW145983   0.289   1.509  17.513  0.4500  0.6425 -0.2062
11368SOL    HW245984   0.320   1.495  17.365  1.2046  2.2404 -0.1910
11369SOL     OW45985   0.720   2.303   2.929 -0.1523  0.3934 -0.0455
11369SOL    HW145986   0.730   2.248   2.851 -1.2440 -1.3562  1.0542
11369SOL    HW245987   0.809   2.315   2.961  0.2078  0.3395 -1.0051
11370SOL     OW45988   0.168   2.930  21.031 -0.3713  0.4040  0.1245
11370SOL    HW145989   0.238   2.963  20.975  0.8981 -0.0576  1.4473
11370SOL    HW245990   0.163   2.837  21.009 -1.0443  0.5843 -0.4819
11371SOL     OW45991   3.453   1.412  14.777 -0.1009 -0.8960 -0.0063
11371SOL    HW145992   3.548   1.412  14.788  0.1894  1.3404 -2.3535
11371SOL    HW245993   3.419   1.446  14.860  1.2421  0.0513  0.1529
11372SOL     OW45994   2.383   2.996  14.157 -0.6060 -0.1024  0.2126
11372SOL    HW145995   2.405   3.063  14.091 -0.9633  0.1241  0.3245
11372SOL    HW245996   2.313   2.945  14.116  0.3042 -0.9875 -0.2494
11373SOL     OW45997   2.135   1.438  13.289  0.4956  0.1232 -0.7937
11373SOL    HW145998   2.204   1.475  13.235 -0.0821 -1.5354 -2.6804
11373SOL    HW245999   2.061   1.428  13.229 -0.3478 -1.1174  0.4651
11374SOL     OW46000   4.497   0.441  18.768  0.2406 -0.0165 -0.3996
11374SOL    HW146001   4.434   0.420  18.837  0.5607 -1.6402 -0.6099
11374SOL    HW246002   4.443   0.472  18.695 -0.0400  2.5343  0.9005
11375SOL     OW46003   1.615   2.769  15.935  0.0123  0.2012 -0.1575
11375SOL    HW146004   1.613   2.825  16.013 -0.8547  0.7253 -0.5591
11375SOL    HW246005   1.704   2.734  15.933 -0.9653 -2.3700  2.8537
11376SOL     OW46006   4.266   0.502  10.265  0.1664  0.5660 -0.0355
11376SOL    HW146007   4.357   0.532  10.275 -0.1020  1.2710  0.2860
11376SOL    HW246008   4.258   0.431  10.330  0.3962  0.7050  0.1479
11377SOL     OW46009   2.778   0.432   5.305 -0.3142 -0.0535  0.2031
11377SOL    HW146010   2.722   0.355   5.300  0.7750 -0.7478 -1.2844
11377SOL    HW246011   2.830   0.418   5.384 -0.1550 -0.8180 -0.0377
11378SOL     OW46012   0.608   0.141  20.636  1.2092  0.1704  0.4522
11378SOL    HW146013   0.601   0.236  20.632 -1.8473 -0.0646  0.0142
11378SOL    HW246014   0.541   0.114  20.700 -1.6478 -2.0676 -3.4287
11379SOL     OW46015   1.012   0.124  15.949  0.4046 -0.5801 -0.3740
11379SOL    HW146016   0.919   0.123  15.970  0.0118 -3.0925 -2.2584
11379SOL    HW246017   1.026   0.210  15.908 -1.3545 -0.7614 -1.3500
11380SOL     OW46018   1.615   2.268   2.131 -0.3151 -0.1196 -0.2376
11380SOL    HW146019   1.708   2.256   2.112 -0.2723  0.7587 -0.5683
11380SOL    HW246020   1.613   2.326   2.207 -0.6500  1.6562 -1.6137
11381SOL     OW46021   1.503   3.839   5.608  0.8429  0.3448  0.1528
11381SOL    HW146022   1.534   3.861   5.696  0.8665 -1.6896  0.6408
11381SOL    HW246023   1.529   3.914   5.555  0.5527  1.7273  1.9408
11382SOL     OW46024   2.063   0.862  16.939 -0.7588  0.0668 -0.3174
11382SOL    HW146025   2.135   0.907  16.896 -0.3897  1.5351  1.8316
11382SOL    HW246026   2.059   0.900  17.027 -2.5165 -1.7905  0.4303
11383SOL     OW46027   0.212   3.939  17.706  0.2318 -0.1287  0.3389
11383SOL    HW146028   0.248   4.023  17.736  0.5138 -0.7846  1.8543
11383SOL    HW246029   0.247   3.875  17.768 -1.8314 -1.0491  0.5561
11384SOL     OW46030   0.605   1.291   0.765  0.1682 -0.3851  0.2265
11384SOL    HW146031   0.654   1.314   0.686 -1.3680  1.8996 -0.0772
11384SOL    HW246032   0.643   1.346   0.833  0.3189 -1.0844  0.7019
11385SOL     OW46033   1.003   3.166   9.194 -0.3089  0.5155  0.0631
11385SOL    HW146034   1.051   3.248   9.203 -0.4569  0.6222 -0.1053
11385SOL    HW246035   1.006   3.146   9.101  0.5861 -0.1975  0.2536
11386SOL     OW46036   3.287   3.280   3.884 -0.1848  0.6384  0.0411
11386SOL    HW146037   3.290   3.206   3.945  0.9290 -0.4284 -1.3038
11386SOL    HW246038   3.280   3.357   3.939 -1.7362 -0.5176  1.4473
11387SOL     OW46039   2.959   0.281  20.143  0.3432  0.4427  0.4185
11387SOL    HW146040   3.054   0.291  20.147  0.3829 -0.1444  1.0182
11387SOL    HW246041   2.926   0.331  20.218  0.2256  0.0479  0.6293
11388SOL     OW46042   4.394   1.279  15.523 -0.2130  0.2963  0.0667
11388SOL    HW146043   4.312   1.233  15.542 -1.0280  2.2323  1.2050
11388SOL    HW246044   4.371   1.340  15.454  0.4760  0.2146 -0.2273
11389SOL     OW46045   4.752   4.271   3.038  0.3270 -0.8727 -0.3251
11389SOL    HW146046   4.753   4.183   3.074 -0.1426 -0.4454  0.7568
11389SOL    HW246047   0.000   4.327   3.112 -1.9607  0.1295 -0.3293
11390SOL     OW46048   1.712   0.620   8.481 -0.5349 -0.4114 -0.5010
11390SOL    HW146049   1.756   0.650   8.560 -2.0461  1.1636 -0.2478
11390SOL    HW246050   1.716   0.694   8.421 -2.6424 -0.3216 -0.5524
11391SOL     OW46051   1.888   4.121  10.523  0.1895  0.5789  0.0674
11391SOL    HW146052   1.904   4.122  10.429  2.2552  0.7060  0.4321
11391SOL    HW246053   1.961   4.071  10.560 -1.9004 -1.5937  1.3463
11392SOL     OW46054   3.059   1.099  13.351  0.0462  0.4597 -0.3923
11392SOL    HW146055   3.142   1.052  13.363 -0.5888 -0.7831 -0.9020
11392SOL    HW246056   3.059   1.164  13.421  0.6100 -0.7446  0.7495
11393SOL     OW46057   1.430   3.716  19.260 -0.4230  0.7205  0.2742
11393SOL    HW146058   1.395   3.635  19.222 -0.8081  1.5744 -1.2109
11393SOL    HW246059   1.512   3.690  19.301 -1.4920 -0.7890  1.4654
11394SOL     OW46060   2.678   3.486  14.415  0.4896 -0.1218 -0.2543
11394SOL    HW146061   2.672   3.568  14.365  2.3751  0.2586  0.1499
11394SOL    HW246062   2.625   3.502  14.493  0.1530  0.4099 -0.5887
11395SOL     OW46063   1.944   3.149  14.610  0.2548 -0.4632 -0.1904
11395SOL    HW146064   1.992   3.097  14.675 -1.3706 -2.4427 -0.5995
11395SOL    HW246065   1.920   3.229  14.657  2.1444 -0.3696  0.6330
11396SOL     OW46066   3.792   2.549   2.409  0.3825  0.4003 -0.2279
11396SOL    HW146067   3.745   2.632   2.410  2.2803  1.4728 -1.2838
11396SOL    HW246068   3.788   2.519   2.319  0.2870 -0.3263  0.0146
11397SOL     OW46069   4.275   4.575  16.863 -0.2580 -0.0948  0.0849
11397SOL    HW146070   4.186   4.546  16.842  0.3922 -1.9299 -0.1474
11397SOL    HW246071   4.322   4.567  16.780 -0.2359  2.2110 -0.1195
11398SOL     OW46072   4.172   3.206   1.375 -0.0606  0.3771  0.4651
11398SOL    HW146073   4.133   3.129   1.416  0.2593  0.3795  0.7685
11398SOL    HW246074   4.127   3.280   1.415 -1.0421  0.3132 -0.5206
11399SOL     OW46075   3.613   4.299  20.228  0.0477  0.0340 -0.2515
11399SOL    HW146076   3.544   4.365  20.222  0.1542  0.2834  1.1918
11399SOL    HW246077   3.672   4.333  20.296 -0.1725 -1.7918  0.8431
11400SOL     OW46078   1.552   0.335  16.136 -0.9885  0.4662  0.3072
11400SOL    HW146079   1.628   0.286  16.168 -0.4539  1.5145  0.6517
11400SOL    HW246080   1.497   0.269  16.094 -0.7061 -0.5866  1.5677
11401SOL     OW46081   2.309   0.505  17.445 -0.1161  0.2557 -0.0919
11401SOL    HW146082   2.214   0.511  17.453 -0.1045 -0.5691  0.6986
11401SOL    HW246083   2.343   0.568  17.508 -0.1498  1.0216 -0.8437
11402SOL     OW46084   4.420   1.440  20.864 -0.3862  0.3025 -0.1721
11402SOL    HW146085   4.506   1.399  20.867 -0.0525  0.9614 -0.6432
11402SOL    HW246086   4.365   1.378  20.815  0.0333  0.2710 -0.6063
11403SOL     OW46087   1.112   2.021  11.636 -1.0013 -0.0432 -0.9328
11403SOL    HW146088   1.183   1.989  11.692 -0.6601  1.0675 -0.7201
11403SOL    HW246089   1.037   1.966  11.658 -0.6409 -0.1595  0.0075
11404SOL     OW46090   1.481   3.473   5.298  0.0004 -0.1696 -0.1795
11404SOL    HW146091   1.515   3.517   5.376 -2.7381 -0.8480  1.3709
11404SOL    HW246092   1.560   3.451   5.247  1.9136 -1.8108  3.4964
11405SOL     OW46093   1.139   2.243  14.601 -0.3870 -0.1980 -0.2084
11405SOL    HW146094   1.132   2.268  14.509  2.7572 -0.7135 -0.5913
11405SOL    HW246095   1.135   2.325  14.649 -2.2237  0.0582 -0.7958
11406SOL     OW46096   1.845   1.968  11.017  0.5454  0.4216 -0.4090
11406SOL    HW146097   1.845   2.027  11.092 -0.6116 -0.6165  0.4141
11406SOL    HW246098   1.908   1.900  11.040 -0.8065 -0.6228  0.1929
11407SOL     OW46099   1.405   1.860  13.639 -0.0962 -0.5510  0.4343
11407SOL    HW146100   1.440   1.816  13.562 -0.4857  0.7254 -0.4738
11407SOL    HW246101   1.455   1.942  13.645 -0.0098 -0.6858  1.5794
11408SOL     OW46102   2.717   4.000  17.106 -0.2032 -0.1239 -0.4782
11408SOL    HW146103   2.800   3.987  17.153  0.3942  1.3269 -1.1097
11408SOL    HW246104   2.718   3.934  17.037  0.4889 -0.0162 -0.5722
11409SOL     OW46105   3.125   2.649  15.377  0.1307 -0.4995 -0.6750
11409SOL    HW146106   3.039   2.690  15.374 -0.5702 -1.8525  0.6632
11409SOL    HW246107   3.126   2.588  15.303 -0.4296 -1.1953 -0.1135
11410SOL     OW46108   1.394   1.824  17.984  0.6816 -0.3385  0.0246
11410SOL    HW146109   1.414   1.903  17.934 -1.5803  0.9699  1.1884
11410SOL    HW246110   1.419   1.751  17.927 -0.0284  1.1892 -2.1917
11411SOL     OW46111   2.498   1.812  20.123 -0.1967 -0.0776 -0.1083
11411SOL    HW146112   2.546   1.794  20.204 -0.5094 -0.7820 -0.0784
11411SOL    HW246113   2.418   1.855  20.153  0.4540  1.1638 -0.1642
11412SOL     OW46114   4.184   1.623   7.592  0.0739  0.1816  0.2977
11412SOL    HW146115   4.104   1.648   7.637 -0.1028  1.7511 -0.8951
11412SOL    HW246116   4.164   1.538   7.553  0.0007 -0.8503  2.5975
11413SOL     OW46117   1.349   2.745  17.588 -0.0823 -0.2809  0.2846
11413SOL    HW146118   1.332   2.746  17.682 -1.5206 -0.3812  0.0340
11413SOL    HW246119   1.267   2.713  17.549 -0.4801  2.4851 -1.2043
11414SOL     OW46120   0.147   2.040  18.042  0.1018 -0.1922  0.0528
11414SOL    HW146121   0.190   2.097  18.105  0.5247  0.1023 -0.5008
11414SOL    HW246122   0.119   1.964  18.093 -0.8612  0.7105  0.8783
11415SOL     OW46123   1.690   2.633   0.016  0.0605  0.0133  0.6687
11415SOL    HW146124   1.653   2.580  21.142 -0.1869  0.6662  0.3005
11415SOL    HW246125   1.703   2.719  21.173  0.4336  0.2324  1.2660
11416SOL     OW46126   1.530   2.137  12.504 -0.1863 -0.1266 -0.1048
11416SOL    HW146127   1.512   2.230  12.517  1.0555  0.2992 -1.4260
11416SOL    HW246128   1.470   2.110  12.435  0.9671  0.1910 -1.2233
11417SOL     OW46129   4.762   4.129  20.413 -0.3057 -0.2555  0.3968
11417SOL    HW146130   4.696   4.198  20.400  0.8766  0.9876  1.0119
11417SOL    HW246131   0.066   4.176  20.435  1.1332 -1.7284 -1.7294
11418SOL     OW46132   0.143   4.038   8.472  0.3792 -0.6570 -0.0495
11418SOL    HW146133   0.199   3.961   8.463  0.8820 -0.1136 -1.6841
11418SOL    HW246134   0.204   4.110   8.488 -0.0022 -0.4231  0.3374
11419SOL     OW46135   3.447   2.422   6.200  0.1560  0.0689 -0.0734
11419SOL    HW146136   3.404   2.413   6.285  1.3224  2.0701  0.7293
11419SOL    HW246137   3.381   2.465   6.145  0.3642  1.2203  0.5710
11420SOL     OW46138   1.259   3.168   1.139  0.1894 -1.0036 -0.0235
11420SOL    HW146139   1.215   3.252   1.129 -0.4619 -1.1923  1.1675
11420SOL    HW246140   1.191   3.103   1.120  0.0954 -1.2861  1.2570
11421SOL     OW46141   3.525   1.769  13.682  0.2780  0.2358 -0.4867
11421SOL    HW146142   3.558   1.808  13.763  0.4245  0.3213 -0.5874
11421SOL    HW246143   3.603   1.754  13.630  0.2836 -0.7598 -0.1965
11422SOL     OW46144   2.147   0.674  12.346 -0.3481  0.0977 -0.0686
11422SOL    HW146145   2.090   0.627  12.408 -0.7407 -0.7889 -1.1101
11422SOL    HW246146   2.216   0.711  12.401 -1.8590  1.0540  1.1878
11423SOL     OW46147   2.031   2.219  20.958  0.7514  0.0771 -0.6062
11423SOL    HW146148   2.090   2.161  21.006  1.1483  0.0327 -1.1532
11423SOL    HW246149   2.089   2.275  20.905  0.3423  0.5325 -0.5753
11424SOL     OW46150   2.467   1.054  15.228  0.1989 -0.2082 -0.0193
11424SOL    HW146151   2.465   1.003  15.146 -1.3919 -1.9018  1.0468
11424SOL    HW246152   2.530   1.124  15.212  1.1673 -1.5519 -2.1066
11425SOL     OW46153   3.468   0.702  19.392 -0.4319  0.2283  0.0621
11425SOL    HW146154   3.493   0.626  19.340 -0.7948  0.5385 -0.5677
11425SOL    HW246155   3.484   0.675  19.483  0.5130 -0.1903 -0.2273
11426SOL     OW46156   2.456   1.151   4.078  0.1135 -0.5091  0.7231
11426SOL    HW146157   2.430   1.242   4.092 -0.7768 -0.7518  0.6553
11426SOL    HW246158   2.405   1.102   4.143 -0.0968 -1.0550  0.1411
11427SOL     OW46159   0.047   1.185  16.294 -0.5194  0.1308  0.2210
11427SOL    HW146160   4.728   1.197  16.290 -0.5109  0.0081 -0.5187
11427SOL    HW246161   0.061   1.094  16.266 -0.0898  0.5868 -1.0807
11428SOL     OW46162   2.844   4.389  20.223 -0.0678 -0.4030  0.0294
11428SOL    HW146163   2.761   4.426  20.252  1.1521  1.9281  0.5774
11428SOL    HW246164   2.848   4.303  20.266 -2.8568 -1.1341 -1.1882
11429SOL     OW46165   2.165   0.019  15.870  0.4933  0.0177 -0.2068
11429SOL    HW146166   2.098   4.727  15.870  1.5454 -1.0147  0.7801
11429SOL    HW246167   2.229   4.766  15.805  0.3255  0.6703 -0.6654
11430SOL     OW46168   4.358   0.278   4.780  0.1454 -0.0533 -0.3584
11430SOL    HW146169   4.420   0.351   4.785 -0.8491  0.8188 -0.8196
11430SOL    HW246170   4.380   0.234   4.698  1.0554 -0.5500  0.1518
11431SOL     OW46171   1.531   1.594   2.200 -0.1828  0.2032  0.6282
11431SOL    HW146172   1.537   1.505   2.234  3.3687  0.2133  0.0623
11431SOL    HW246173   1.495   1.645   2.272 -2.1203 -1.6579  0.9829
11432SOL     OW46174   1.473   3.962   8.679 -0.4521 -0.2464  0.4834
11432SOL    HW146175   1.539   3.961   8.748 -1.2383  2.7368  1.2625
11432SOL    HW246176   1.500   3.892   8.619  1.5045 -1.2940  2.5791
11433SOL     OW46177   4.355   3.126  16.306 -0.1845  0.5783  0.1020
11433SOL    HW146178   4.294   3.053  16.315  0.1136  0.4867  1.3958
11433SOL    HW246179   4.391   3.138  16.394  0.2541  1.8556 -0.2526
11434SOL     OW46180   2.891   1.846   3.926  0.7389  0.3211 -0.4298
11434SOL    HW146181   2.858   1.839   4.016  0.8754 -0.7144 -0.4641
11434SOL    HW246182   2.855   1.771   3.881 -0.6768  1.7614 -1.6792
11435SOL     OW46183   2.332   3.586  18.254 -0.2497  0.4212 -0.3216
11435SOL    HW146184   2.319   3.674  18.220  0.2420 -0.2680 -2.3133
11435SOL    HW246185   2.416   3.558  18.218 -0.7976 -1.1732 -0.3848
11436SOL     OW46186   3.215   1.853   6.619 -0.2091  0.7748 -0.3029
11436SOL    HW146187   3.168   1.897   6.548  1.2681  1.2085 -0.9980
11436SOL    HW246188   3.307   1.871   6.602  0.1523  0.8026  1.6684
11437SOL     OW46189   0.819   2.224  16.562 -0.2372  0.3962 -0.3070
11437SOL    HW146190   0.791   2.315  16.553 -2.8047 -0.4214 -0.6017
11437SOL    HW246191   0.781   2.180  16.486  1.6291 -0.7639 -0.5572
11438SOL     OW46192   0.026   3.041   0.468  0.2993 -0.1754  0.0909
11438SOL    HW146193   0.093   2.998   0.521 -1.5858 -1.4141  1.4347
11438SOL    HW246194   4.741   3.078   0.532 -1.5826 -1.0625 -1.2162
11439SOL     OW46195   1.729   1.242  19.070  0.2104 -0.3122  0.4904
11439SOL    HW146196   1.734   1.286  18.986  0.3693 -0.1748  0.5724
11439SOL    HW246197   1.751   1.150  19.050  1.4563 -0.0433  0.5780
11440SOL     OW46198   1.536   1.072  18.400  0.0947  0.1333  0.4045
11440SOL    HW146199   1.511   0.995  18.349 -2.5625 -0.0606  2.0243
11440SOL    HW246200   1.494   1.146  18.355  0.3720  0.3217  0.4531
11441SOL     OW46201   4.510   1.830   9.633  0.0724 -0.1151 -0.4514
11441SOL    HW146202   4.493   1.752   9.686  2.4495 -0.2075  0.1940
11441SOL    HW246203   4.593   1.811   9.590  0.3944  1.8580 -0.6842
11442SOL     OW46204   3.423   2.118   3.557 -0.0145  0.3177  0.7427
11442SOL    HW146205   3.352   2.059   3.529 -0.7701  1.2023  0.7919
11442SOL    HW246206   3.467   2.143   3.476  0.0869 -0.0282  0.6889
11443SOL     OW46207   4.105   3.500  18.110  0.3824 -0.5331 -0.5749
11443SOL    HW146208   4.181   3.548  18.078 -0.1436 -0.0266 -1.0419
11443SOL    HW246209   4.037   3.566  18.123  0.7458 -0.6590  2.0423
11444SOL     OW46210   1.898   0.941   3.839  0.3682 -0.3500  0.5207
11444SOL    HW146211   1.852   0.985   3.910  1.5088  0.2575  0.8774
11444SOL    HW246212   1.981   0.989   3.831  0.4354 -0.7066 -0.8956
11445SOL     OW46213   1.959   2.871  18.667  0.0226  0.2759 -0.3207
11445SOL    HW146214   1.981   2.835  18.581  1.3245 -0.6287  0.3951
11445SOL    HW246215   2.018   2.827  18.727 -0.8575  0.9557  1.0383
11446SOL     OW46216   1.162   1.840   2.682  0.5137 -0.0439  0.3580
11446SOL    HW146217   1.098   1.853   2.753 -1.4603 -0.8155 -1.2850
11446SOL    HW246218   1.194   1.928   2.663 -1.0180  0.5061  0.2889
11447SOL     OW46219   4.015   1.072   4.307 -0.2694  0.2802  0.0926
11447SOL    HW146220   4.057   1.115   4.381 -0.6132  3.4131 -1.5591
11447SOL    HW246221   3.938   1.029   4.345  0.6654  0.1932  1.8958
11448SOL     OW46222   0.943   0.300   6.414  0.1230 -0.1354 -0.4120
11448SOL    HW146223   0.941   0.368   6.481 -3.0512  0.1283 -0.7494
11448SOL    HW246224   0.937   0.218   6.462 -1.9228  0.0455 -0.3467
11449SOL     OW46225   2.401   0.867  20.037 -0.4257 -0.3119 -0.5517
11449SOL    HW146226   2.437   0.862  19.948 -1.9521 -1.3381 -1.1112
11449SOL    HW246227   2.416   0.780  20.074 -0.1085  0.0072  0.0613
11450SOL     OW46228   2.485   2.234  19.909  0.1940 -0.3282 -0.4158
11450SOL    HW146229   2.503   2.144  19.879 -1.8920 -0.9596  0.2322
11450SOL    HW246230   2.434   2.222  19.989  0.2225  1.4491 -0.1440
11451SOL     OW46231   0.373   0.099  19.564  0.3250 -0.7281  0.0760
11451SOL    HW146232   0.407   0.082  19.651 -0.1220  0.8092  0.5512
11451SOL    HW246233   0.421   0.176  19.534 -0.0518 -0.8094 -0.7384
11452SOL     OW46234   1.411   3.697  10.160 -0.0487 -0.9820 -0.8134
11452SOL    HW146235   1.432   3.650  10.079  0.0983 -2.0564 -0.1494
11452SOL    HW246236   1.484   3.678  10.219 -0.1214 -0.1508 -0.4507
11453SOL     OW46237   3.466   2.785   9.387 -0.4852  0.4957  0.0037
11453SOL    HW146238   3.371   2.800   9.387 -0.7825 -1.4397  2.5400
11453SOL    HW246239   3.502   2.860   9.436 -0.7366  1.0541 -0.6701
11454SOL     OW46240   2.966   2.118  17.590  0.2854 -0.2012  0.0594
11454SOL    HW146241   3.043   2.062  17.599  0.7885  0.9175  2.8221
11454SOL    HW246242   3.000   2.200  17.554 -0.0728 -0.7662 -1.5777
11455SOL     OW46243   1.240   1.738  16.980  0.5215 -0.1222  0.8082
11455SOL    HW146244   1.329   1.724  16.947 -0.3670  0.2234 -1.7562
11455SOL    HW246245   1.188   1.757  16.901 -1.5729  0.8921  2.4294
11456SOL     OW46246   0.222   2.106  16.748 -0.0681  0.3433 -0.9998
11456SOL    HW146247   0.287   2.174  16.763 -0.4262  0.7402 -1.2614
11456SOL    HW246248   0.209   2.065  16.834  1.4235 -0.5337 -1.1868
11457SOL     OW46249   2.020   3.493   1.056 -0.2714  1.0665  0.4824
11457SOL    HW146250   2.084   3.423   1.068 -1.5620 -0.1424  0.3655
11457SOL    HW246251   2.045   3.535   0.973 -0.5643 -0.3966 -0.3493
11458SOL     OW46252   1.901   4.681  14.662  0.0145  0.1779 -0.2989
11458SOL    HW146253   1.979   4.686  14.606 -0.1975  0.8511 -0.5291
11458SOL    HW246254   1.881   4.587  14.667  1.0983 -0.0352  0.1091
11459SOL     OW46255   0.752   1.687  16.803 -0.6241  0.1822 -0.3069
11459SOL    HW146256   0.802   1.612  16.770  0.4823  0.5217  0.6103
11459SOL    HW246257   0.818   1.745  16.839 -1.5655  1.2680 -0.3562
11460SOL     OW46258   1.150   1.777  11.115  0.0269  0.1697 -0.2293
11460SOL    HW146259   1.148   1.846  11.182 -0.1741  0.8084 -0.8951
11460SOL    HW246260   1.144   1.696  11.165 -1.8589  0.7100  0.4359
11461SOL     OW46261   0.473   1.967   3.802  0.5730  0.5150  0.6362
11461SOL    HW146262   0.542   2.030   3.822  0.1529  0.8693  0.9890
11461SOL    HW246263   0.392   2.016   3.817  0.2484  0.3831 -0.6792
11462SOL     OW46264   0.340   3.969   5.618  0.5446 -0.4582 -0.0760
11462SOL    HW146265   0.372   3.989   5.531  1.4164 -1.0819  0.1102
11462SOL    HW246266   0.288   4.046   5.643  0.9223  0.0320 -0.8314
11463SOL     OW46267   2.735   3.578  17.336  0.3886  0.1719 -0.3549
11463SOL    HW146268   2.750   3.571  17.431  0.9333  0.6451 -0.4038
11463SOL    HW246269   2.648   3.616  17.328  0.2361 -0.1091 -0.0470
11464SOL     OW46270   0.956   0.967  15.824  0.0248  0.4642 -0.6721
11464SOL    HW146271   0.988   0.881  15.854 -1.2742  0.8599  1.8926
11464SOL    HW246272   1.029   1.027  15.844  0.5234  0.1300 -1.4950
11465SOL     OW46273   4.209   0.895   5.579 -0.3078  0.1799 -0.2663
11465SOL    HW146274   4.181   0.804   5.570 -0.1729  0.2705 -1.5386
11465SOL    HW246275   4.298   0.889   5.614 -0.1887 -0.1812 -0.6265
11466SOL     OW46276   2.295   2.641  17.637  0.3035 -0.2473  0.7359
11466SOL    HW146277   2.230   2.638  17.707 -1.1682 -1.1532 -0.6721
11466SOL    HW246278   2.358   2.707  17.665 -1.8156  1.4012  1.5735
11467SOL     OW46279   3.664   2.566   3.137  0.2475  0.2730 -0.1694
11467SOL    HW146280   3.746   2.517   3.133  0.7330  1.2926 -2.7473
11467SOL    HW246281   3.691   2.655   3.159 -0.2758  0.3581  0.1373
11468SOL     OW46282   3.341   2.196  12.070  0.4064 -0.3692  0.2199
11468SOL    HW146283   3.284   2.269  12.048  1.2245  0.1522 -0.1787
11468SOL    HW246284   3.427   2.236  12.083  0.1994 -0.8532  3.0401
11469SOL     OW46285   4.458   2.809  16.884  0.1784 -0.3666 -0.0949
11469SOL    HW146286   4.400   2.840  16.953  2.0170  0.6293  0.9795
11469SOL    HW246287   4.494   2.727  16.918 -0.0138 -0.6084 -0.4659
11470SOL     OW46288   2.563   3.602   8.398  0.0199  0.7555  0.0184
11470SOL    HW146289   2.541   3.508   8.394 -1.0681  1.0637 -1.0751
11470SOL    HW246290   2.590   3.624   8.309 -0.8184  1.7657  0.0250
11471SOL     OW46291   1.724   2.784   3.036 -0.0044  0.2776  0.3137
11471SOL    HW146292   1.709   2.821   2.949  2.6932 -2.5618 -1.3698
11471SOL    HW246293   1.803   2.827   3.067 -0.4961  0.6734  1.0193
11472SOL     OW46294   0.755   4.124   6.015 -0.2867  0.5494 -0.4268
11472SOL    HW146295   0.816   4.070   5.965 -0.0771  0.2998  0.1018
11472SOL    HW246296   0.737   4.199   5.957 -1.3872 -0.6001 -1.5752
11473SOL     OW46297   3.231   4.311  14.942  0.1044 -0.1036 -0.0141
11473SOL    HW146298   3.141   4.337  14.961  0.4140  1.3120 -0.4810
11473SOL    HW246299   3.277   4.394  14.926  1.2434 -0.8976 -0.8158
11474SOL     OW46300   2.579   3.272   0.769 -0.0719 -0.4932  0.1386
11474SOL    HW146301   2.490   3.288   0.799 -0.0423 -1.2572  0.6322
11474SOL    HW246302   2.575   3.188   0.724  0.7387 -1.3513  1.6302
11475SOL     OW46303   2.024   1.511   8.402 -0.1459  0.1027 -0.0976
11475SOL    HW146304   2.013   1.418   8.379  0.1451 -0.1983  0.9840
11475SOL    HW246305   2.068   1.510   8.487  0.7348  1.2538 -0.5407
11476SOL     OW46306   3.534   4.228   3.847  0.0023  0.2117 -0.1524
11476SOL    HW146307   3.583   4.176   3.910  0.1586 -0.3064 -0.7027
11476SOL    HW246308   3.442   4.212   3.868  0.0663  0.8452  0.6019
11477SOL     OW46309   3.939   1.086   9.200 -0.3571 -0.0972 -0.0404
11477SOL    HW146310   3.999   1.157   9.221 -0.9727  0.3685  0.1530
11477SOL    HW246311   3.896   1.114   9.119 -1.5117  0.3153  0.7191
11478SOL     OW46312   0.938   4.259   4.874  0.3829  0.3876  0.0963
11478SOL    HW146313   0.856   4.251   4.824 -0.1085 -0.1716  0.9688
11478SOL    HW246314   1.002   4.210   4.823  0.2636  1.1586 -0.7925
11479SOL     OW46315   1.039   4.680  16.353  0.1486  0.6107  0.1660
11479SOL    HW146316   1.061   4.640  16.268  0.5938 -1.3322  1.1990
11479SOL    HW246317   0.946   4.663  16.364  0.2287  0.2940  0.3635
11480SOL     OW46318   2.576   4.441  16.716 -0.3053  0.3859 -0.2911
11480SOL    HW146319   2.499   4.494  16.737  0.4964  2.1791 -1.9517
11480SOL    HW246320   2.590   4.388  16.794 -1.8409  1.7314  0.8977
11481SOL     OW46321   0.175   2.629   3.862 -0.7271  0.5175  0.1444
11481SOL    HW146322   0.253   2.588   3.898  0.5756  2.8799  0.0436
11481SOL    HW246323   0.148   2.693   3.927 -0.5985  2.1105 -1.3629
11482SOL     OW46324   4.273   1.206   2.133 -0.5461 -0.1755 -0.0368
11482SOL    HW146325   4.194   1.259   2.120 -0.9780 -1.0093 -0.8706
11482SOL    HW246326   4.337   1.241   2.071 -0.3557  0.3235  0.4459
11483SOL     OW46327   1.062   1.650   2.503  0.6117 -0.7303  0.0356
11483SOL    HW146328   1.008   1.704   2.445 -2.7206 -0.9570  3.0007
11483SOL    HW246329   1.120   1.713   2.546  0.9733 -0.2128 -1.1928
11484SOL     OW46330   1.046   3.334   0.906  0.0826  0.5210 -0.3254
11484SOL    HW146331   0.955   3.318   0.932  0.6391  0.1092  1.3860
11484SOL    HW246332   1.043   3.336   0.811 -1.5088 -0.8103 -0.3214
11485SOL     OW46333   4.051   1.472   5.240  0.3013  0.5198  0.4244
11485SOL    HW146334   4.089   1.402   5.186  0.7781  0.3830  0.9388
11485SOL    HW246335   4.033   1.543   5.178  0.8898  0.3761  0.0897
11486SOL     OW46336   2.404   3.249  18.534  0.0957 -0.0485 -0.2500
11486SOL    HW146337   2.378   3.166  18.494 -0.2200 -0.8723  1.6359
11486SOL    HW246338   2.484   3.275  18.488 -0.0969 -1.1490 -1.1829
11487SOL     OW46339   3.662   2.476   0.187 -0.3945 -0.1874  0.8304
11487SOL    HW146340   3.729   2.465   0.120 -1.3310  1.6960 -0.4327
11487SOL    HW246341   3.696   2.546   0.243 -0.9119  0.2036  0.6608
11488SOL     OW46342   4.112   1.163  10.871 -0.6476  0.5112  0.0248
11488SOL    HW146343   4.178   1.093  10.864 -1.8910 -0.5496 -1.0353
11488SOL    HW246344   4.163   1.244  10.874  0.7596 -0.3872  0.2642
11489SOL     OW46345   2.151   3.622  19.206 -0.4909 -0.4705 -0.0738
11489SOL    HW146346   2.237   3.634  19.245 -0.3787 -1.4489 -0.0205
11489SOL    HW246347   2.168   3.592  19.117 -0.7714 -0.4418 -0.1375
11490SOL     OW46348   1.031   1.162  20.272 -0.5861 -0.4956 -0.0805
11490SOL    HW146349   1.072   1.077  20.291  0.2329 -0.0416  0.2062
11490SOL    HW246350   1.093   1.206  20.213 -0.4793  0.3467  0.6519
11491SOL     OW46351   0.347   3.202   3.142  0.3113 -0.5920  0.1933
11491SOL    HW146352   0.368   3.292   3.168  0.7011 -0.4730 -0.5297
11491SOL    HW246353   0.423   3.174   3.090 -0.3623 -0.9118 -0.6094
11492SOL     OW46354   0.485   2.615  20.766 -0.1808 -0.5578 -0.1582
11492SOL    HW146355   0.549   2.584  20.830 -1.1593 -2.1462  0.0633
11492SOL    HW246356   0.501   2.562  20.688 -0.1585  0.1520 -0.6315
11493SOL     OW46357   2.038   3.530  18.659  0.2062 -0.1238  0.2809
11493SOL    HW146358   2.093   3.484  18.596  1.0297 -0.5378  1.3015
11493SOL    HW246359   1.958   3.551  18.611  2.5198  3.2140 -2.0815
11494SOL     OW46360   1.450   2.674   0.717 -0.2775 -0.2860  0.9367
11494SOL    HW146361   1.459   2.763   0.685  0.7562  0.4236  3.1389
11494SOL    HW246362   1.482   2.619   0.646  0.5321  1.1852  0.1732
11495SOL     OW46363   2.567   3.749  15.463  0.4780  0.2938  0.0814
11495SOL    HW146364   2.631   3.784  15.525  0.9787  0.0032 -0.2765
11495SOL    HW246365   2.545   3.823  15.407  2.3110 -0.2444 -1.3302
11496SOL     OW46366   4.109   0.798  19.288  0.9839 -0.0299 -0.8915
11496SOL    HW146367   4.180   0.861  19.275  0.7724  0.5392  0.7584
11496SOL    HW246368   4.134   0.750  19.367 -0.3212 -0.0159 -0.4631
11497SOL     OW46369   2.607   4.259  18.735  0.1616 -0.0231 -0.0617
11497SOL    HW146370   2.535   4.320  18.750  0.8084  0.5455  0.7246
11497SOL    HW246371   2.564   4.176  18.717 -0.7088  0.4444 -0.1709
11498SOL     OW46372   3.759   1.188   5.951  0.1261 -0.2256 -0.0750
11498SOL    HW146373   3.751   1.259   5.887 -0.9684 -0.1420  0.1556
11498SOL    HW246374   3.846   1.199   5.988 -1.0219  2.5842  1.8293
11499SOL     OW46375   4.012   3.109   5.280  0.1874 -0.1445 -0.4074
11499SOL    HW146376   4.013   3.015   5.262 -0.5955 -0.0365 -1.0112
11499SOL    HW246377   3.923   3.136   5.259  0.3054  0.6602  0.1457
11500SOL     OW46378   2.582   1.808   8.317  0.1955  0.1418 -0.1278
11500SOL    HW146379   2.577   1.780   8.408 -3.2898 -0.8265 -0.5957
11500SOL    HW246380   2.500   1.856   8.302  1.0548  0.8863 -2.5451
11501SOL     OW46381   2.389   2.205  19.153 -0.0070  0.0604 -1.1625
11501SOL    HW146382   2.358   2.277  19.099  0.5772  0.5504 -0.8472
11501SOL    HW246383   2.443   2.153  19.094  1.6582  1.2865 -0.7334
11502SOL     OW46384   3.434   2.987  18.380  0.7168  0.1042  0.6249
11502SOL    HW146385   3.423   3.079  18.353 -0.7032  0.2472  1.6491
11502SOL    HW246386   3.422   2.989  18.475  2.1792 -0.9257  0.8252
11503SOL     OW46387   0.848   3.731  18.897  0.6213  0.2876  0.1118
11503SOL    HW146388   0.909   3.790  18.942 -0.9968  0.8584  1.5577
11503SOL    HW246389   0.817   3.781  18.822 -0.3264  1.0681  1.0273
11504SOL     OW46390   2.020   0.157   1.280 -0.4651  0.2687 -0.2217
11504SOL    HW146391   1.933   0.195   1.270 -0.8002 -0.3520  0.4366
11504SOL    HW246392   2.005   0.063   1.290  0.2575  0.2021  0.2206
11505SOL     OW46393   3.372   0.077  20.167 -0.4095 -0.4365 -0.3111
11505SOL    HW146394   3.335   4.772  20.132 -1.6066 -0.1298  0.2591
11505SOL    HW246395   3.451   0.093  20.113 -1.5517 -0.6368 -2.0491
11506SOL     OW46396   1.435   1.555  13.162 -0.2929 -0.3044  0.1199
11506SOL    HW146397   1.484   1.632  13.134 -0.6184  0.0881  0.6256
11506SOL    HW246398   1.379   1.533  13.087 -0.5803  0.2620  0.1725
11507SOL     OW46399   3.743   2.042   6.066  0.4719  0.0126  0.3304
11507SOL    HW146400   3.827   2.012   6.034  0.0519 -1.0444  0.2215
11507SOL    HW246401   3.711   1.971   6.122 -1.5071 -0.6818 -1.6619
11508SOL     OW46402   3.941   1.782   5.860 -0.2709 -0.3562 -0.1482
11508SOL    HW146403   3.915   1.697   5.895 -1.8436 -0.1417 -0.7774
11508SOL    HW246404   4.023   1.802   5.904 -0.8302 -1.3577  1.3624
11509SOL     OW46405   4.001   4.062   3.886 -0.0745  0.0765 -0.0877
11509SOL    HW146406   3.950   4.025   3.814 -0.7222 -0.1082  0.4649
11509SOL    HW246407   4.000   4.157   3.870  1.7749 -0.1787 -1.6249
11510SOL     OW46408   0.892   4.372   3.146  1.0494  0.3415 -0.4381
11510SOL    HW146409   0.949   4.326   3.207  0.5820 -1.6740 -1.5289
11510SOL    HW246410   0.837   4.427   3.201  0.5074 -1.6188  0.9318
11511SOL     OW46411   3.290   0.286   9.643  0.0278  0.6414  0.1647
11511SOL    HW146412   3.327   0.349   9.704 -0.4162  1.9705 -0.9435
11511SOL    HW246413   3.355   0.281   9.572 -0.6015  0.8757 -0.4206
11512SOL     OW46414   1.602   4.056   1.290 -0.1258 -0.3981  0.0340
11512SOL    HW146415   1.521   4.010   1.312 -0.4809 -0.2723 -1.0421
11512SOL    HW246416   1.615   4.039   1.197 -0.0116  1.3109 -0.2579
11513SOL     OW46417   1.113   4.030   2.223  0.6886 -0.2080  0.0496
11513SOL    HW146418   1.081   4.115   2.253  0.9744  0.2603 -0.9671
11513SOL    HW246419   1.178   4.051   2.156  2.2781 -1.1727  1.2696
11514SOL     OW46420   1.601   0.450  16.381 -0.3123 -0.4526 -0.3040
11514SOL    HW146421   1.615   0.544  16.366 -0.9049 -0.4049 -0.5453
11514SOL    HW246422   1.558   0.420  16.301 -1.5281 -0.6298  0.4271
11515SOL     OW46423   1.770   4.506   5.074 -0.1366 -0.4085 -0.0565
11515SOL    HW146424   1.864   4.510   5.059  0.0218 -1.2110  0.6712
11515SOL    HW246425   1.733   4.471   4.993  0.2735 -0.8288 -0.0609
11516SOL     OW46426   0.018   2.438   3.442 -0.0873  0.6528  0.1308
11516SOL    HW146427   0.045   2.512   3.496 -0.0656  0.9202 -0.2412
11516SOL    HW246428   4.745   2.381   3.501  1.5730  0.0001  0.8810
11517SOL     OW46429   0.097   4.711   6.365  0.5695 -0.1207 -0.2982
11517SOL    HW146430   0.082   4.632   6.314  1.6512  0.6417 -1.7782
11517SOL    HW246431   0.133   4.680   6.448  2.1296 -1.0802 -1.3462
11518SOL     OW46432   0.716   0.091  21.076  0.0709 -0.4709 -0.2043
11518SOL    HW146433   0.629   0.126  21.098  1.1267  1.9560  0.1317
11518SOL    HW246434   0.698   0.015  21.021 -2.3231 -0.8854  1.1554
11519SOL     OW46435   2.141   3.389   5.798 -0.0137 -0.1669 -0.1296
11519SOL    HW146436   2.125   3.482   5.781 -1.7437 -0.6145 -0.9432
11519SOL    HW246437   2.235   3.385   5.819  0.1951  1.6826 -0.6290
11520SOL     OW46438   4.473   0.121  18.963 -0.1897 -0.8114 -0.5812
11520SOL    HW146439   4.404   0.086  19.020 -0.1825 -0.7496 -0.5347
11520SOL    HW246440   4.513   0.191  19.015  0.2867 -1.2320 -0.3751
11521SOL     OW46441   4.252   4.133   2.815 -0.0664 -0.0191 -0.1279
11521SOL    HW146442   4.282   4.078   2.887  2.2128 -0.5756 -1.5221
11521SOL    HW246443   4.324   4.194   2.800 -1.6254  1.8233 -0.1639
11522SOL     OW46444   1.362   2.788  20.784 -0.0942  0.4746  0.2200
11522SOL    HW146445   1.273   2.773  20.816 -0.1010  0.6631  0.2874
11522SOL    HW246446   1.382   2.879  20.808  0.9601 -0.2683  2.1649
11523SOL     OW46447   0.716   3.040  20.022 -0.2305  0.2840  0.2910
11523SOL    HW146448   0.646   2.976  20.014  0.6097 -0.6332  0.1844
11523SOL    HW246449   0.784   2.995  20.072  0.2406  1.1978  0.4821
11524SOL     OW46450   0.633   0.579   1.015 -0.1418 -0.1630 -0.1394
11524SOL    HW146451   0.569   0.650   1.011 -0.4993 -0.4792 -0.1225
11524SOL    HW246452   0.657   0.562   0.924 -1.3474 -1.1750 -0.2652
11525SOL     OW46453   1.511   1.225  16.775 -0.3955  0.0160 -0.1666
11525SOL    HW146454   1.471   1.170  16.842  0.4195  1.3015  1.3803
11525SOL    HW246455   1.596   1.187  16.758 -0.0039  0.5594  0.5950
11526SOL     OW46456   4.275   3.716  18.060 -0.1232 -0.0773  0.1291
11526SOL    HW146457   4.322   3.792  18.026  0.8001 -0.9890 -0.6136
11526SOL    HW246458   4.314   3.700  18.146  1.3832 -1.2541 -0.7747
11527SOL     OW46459   3.393   0.812   2.103  0.4274 -0.1397  0.4061
11527SOL    HW146460   3.373   0.727   2.064  1.4925  0.1735 -0.8148
11527SOL    HW246461   3.456   0.791   2.173  0.5365 -0.3828  0.2368
11528SOL     OW46462   3.724   3.392   0.380 -0.1247  0.0028  0.2376
11528SOL    HW146463   3.722   3.347   0.296 -0.1429  0.0116  0.2332
11528SOL    HW246464   3.801   3.357   0.425  0.4383  0.6950 -0.1740
11529SOL     OW46465   0.895   4.663   5.696 -0.0546  0.0863 -0.0173
11529SOL    HW146466   0.959   4.591   5.705 -0.2711 -0.3110 -1.7911
11529SOL    HW246467   0.930   4.732   5.752  0.8665 -0.9032  0.6444
11530SOL     OW46468   2.093   1.115   3.896 -0.4990 -1.1036  0.0013
11530SOL    HW146469   2.166   1.170   3.866 -0.7079  0.0780  1.6655
11530SOL    HW246470   2.026   1.177   3.924 -1.4344 -2.2092  0.2330
11531SOL     OW46471   0.482   1.834  16.362 -0.9884  0.5281  0.2769
11531SOL    HW146472   0.421   1.873  16.425 -2.5498 -4.1281  1.6106
11531SOL    HW246473   0.558   1.809  16.415 -0.8760 -0.2233 -0.2390
11532SOL     OW46474   4.634   2.966  19.173  0.1918  0.4719 -0.0508
11532SOL    HW146475   4.654   3.052  19.137  0.8076  0.0484 -0.7257
11532SOL    HW246476   4.541   2.970  19.195 -0.3033  0.5684 -2.1545
11533SOL     OW46477   1.655   0.054   3.160 -0.0430  0.2033 -0.0519
11533SOL    HW146478   1.564   0.039   3.184 -0.0087  0.0489 -0.0174
11533SOL    HW246479   1.697   0.083   3.241 -0.1629  0.7298 -0.1739
11534SOL     OW46480   1.401   3.601  15.062  0.1307  0.2944  0.9543
11534SOL    HW146481   1.374   3.577  15.151  0.4316 -1.1124  0.6621
11534SOL    HW246482   1.484   3.647  15.074  1.1284 -1.5799  1.2273
11535SOL     OW46483   4.678   0.142   1.800  0.1921  0.2849 -0.2960
11535SOL    HW146484   4.607   0.078   1.801 -0.5593  1.1268  0.1834
11535SOL    HW246485   4.634   0.227   1.790  1.2460  0.6413 -1.9120
11536SOL     OW46486   2.673   1.460  13.518  0.2009 -0.2165 -0.2954
11536SOL    HW146487   2.653   1.379  13.565 -0.3998 -0.6151 -1.2217
11536SOL    HW246488   2.593   1.480  13.470 -0.0445  1.5754  0.8642
11537SOL     OW46489   4.446   3.952   4.522 -0.2003  0.0265  0.1267
11537SOL    HW146490   4.441   3.950   4.426  0.8756  0.9326  0.0486
11537SOL    HW246491   4.505   4.025   4.541  0.8179 -1.1466  1.4325
11538SOL     OW46492   1.782   3.755   5.090  0.7768 -0.6872  0.6319
11538SOL    HW146493   1.823   3.817   5.031  1.6869 -2.8858 -1.0617
11538SOL    HW246494   1.837   3.757   5.168  1.1570  0.1830  0.3435
11539SOL     OW46495   1.109   0.514   4.131 -0.1026  0.0178  0.0372
11539SOL    HW146496   1.194   0.558   4.121 -0.3325  0.4404 -0.0332
11539SOL    HW246497   1.052   0.558   4.068 -0.0085 -1.1800 -0.8768
11540SOL     OW46498   2.312   0.959  17.179  0.0194  0.1099  0.2005
11540SOL    HW146499   2.289   0.922  17.264 -2.1976  0.7842 -0.1163
11540SOL    HW246500   2.352   1.043  17.200  0.2881 -0.1194  0.6211
11541SOL     OW46501   3.734   2.729   1.188  0.3498  0.7157 -0.0744
11541SOL    HW146502   3.728   2.701   1.279  0.6580 -1.4348 -0.7152
11541SOL    HW246503   3.724   2.824   1.191  0.0044  0.5990  2.1661
11542SOL     OW46504   4.022   0.874  18.305  0.3618  0.7290 -0.8889
11542SOL    HW146505   4.019   0.779  18.314  2.6640  0.7805  0.4461
11542SOL    HW246506   4.078   0.889  18.229  0.9432  1.0695 -0.3890
11543SOL     OW46507   0.217   0.278  19.257  0.0479  0.6225  0.4192
11543SOL    HW146508   0.239   0.313  19.171  0.5485 -0.1990  0.2099
11543SOL    HW246509   0.274   0.324  19.318 -0.0837  0.9753  0.2736
11544SOL     OW46510   0.591   2.140  18.762  0.0687 -0.3694 -0.3527
11544SOL    HW146511   0.539   2.220  18.766  0.6321  0.1015 -2.2481
11544SOL    HW246512   0.626   2.129  18.850 -1.4748  0.4978  0.3629
11545SOL     OW46513   2.186   1.423  20.129  0.2471 -0.3220 -0.2788
11545SOL    HW146514   2.107   1.458  20.170  1.4332  1.6929  0.2984
11545SOL    HW246515   2.195   1.474  20.048  1.2707 -0.1693 -0.0663
11546SOL     OW46516   1.808   1.803   8.512 -0.4954  0.2207 -0.0240
11546SOL    HW146517   1.778   1.728   8.461  3.6047 -0.2683 -1.7051
11546SOL    HW246518   1.756   1.877   8.480 -1.5189 -1.0910 -1.3737
11547SOL     OW46519   4.231   0.346   5.492  0.0176 -0.2686  0.2885
11547SOL    HW146520   4.294   0.357   5.563 -1.4855  0.9848  1.3990
11547SOL    HW246521   4.176   0.272   5.519  0.3658 -0.7349 -0.2487
11548SOL     OW46522   2.431   2.108   1.816 -0.0509  0.1202 -1.1342
11548SOL    HW146523   2.477   2.172   1.872 -1.6591  0.9261 -0.7287
11548SOL    HW246524   2.473   2.024   1.837  0.0904  0.5802  0.4918
11549SOL     OW46525   3.817   1.619  13.841  0.2788  0.7319  0.2550
11549SOL    HW146526   3.780   1.624  13.753 -0.5044 -0.6368  0.5168
11549SOL    HW246527   3.873   1.542  13.840 -0.5223  0.1372  1.2653
11550SOL     OW46528   1.634   2.291   4.701 -0.0425 -0.0350 -0.4392
11550SOL    HW146529   1.557   2.250   4.660 -1.1532  1.2058  0.3858
11550SOL    HW246530   1.633   2.259   4.791  0.2804  0.1745 -0.3623
11551SOL     OW46531   2.770   1.154  17.999  0.3879  0.2997 -0.4271
11551SOL    HW146532   2.687   1.202  18.001  0.8111  0.9627  1.1446
11551SOL    HW246533   2.835   1.216  18.032  1.4520 -0.3365 -1.3320
11552SOL     OW46534   1.471   3.381  17.809 -0.0589  0.4246 -0.1363
11552SOL    HW146535   1.501   3.336  17.888 -0.7570 -0.1722 -0.2156
11552SOL    HW246536   1.551   3.421  17.773  0.2184  0.8735  0.9779
11553SOL     OW46537   2.403   1.257  16.241 -0.1185  0.4433  0.1234
11553SOL    HW146538   2.325   1.223  16.284 -1.0606  1.2334 -0.9513
11553SOL    HW246539   2.432   1.329  16.297 -0.8147  0.8814 -0.0849
11554SOL     OW46540   4.668   3.176   4.301  0.0086  0.0543 -0.4623
11554SOL    HW146541   4.616   3.255   4.287  0.0838  0.3417  0.9313
11554SOL    HW246542   4.675   3.168   4.396  0.8562 -1.0694 -0.6204
11555SOL     OW46543   1.068   2.381   4.025 -0.2175  0.6678  0.2558
11555SOL    HW146544   0.981   2.365   3.988 -0.4783 -1.3658  1.7429
11555SOL    HW246545   1.052   2.395   4.118  1.1799 -0.9336  0.7356
11556SOL     OW46546   0.936   1.834   2.315 -0.1540 -0.4208  0.2088
11556SOL    HW146547   0.978   1.901   2.262  1.8779 -2.1152 -0.3212
11556SOL    HW246548   0.895   1.776   2.251  0.9405 -1.5672  0.5413
11557SOL     OW46549   2.659   4.523  19.224 -0.0675 -0.1869  0.3213
11557SOL    HW146550   2.602   4.597  19.202 -0.7074 -0.5739  0.6602
11557SOL    HW246551   2.627   4.451  19.168  0.2960 -0.3098  0.2743
11558SOL     OW46552   0.284   1.509  16.233  0.4154 -0.2792  0.3609
11558SOL    HW146553   0.252   1.598  16.215 -1.6319 -0.9209  0.7814
11558SOL    HW246554   0.364   1.522  16.284  0.5773  1.3453 -0.3108
11559SOL     OW46555   3.842   1.462   6.838 -0.0461 -0.3408  0.0171
11559SOL    HW146556   3.777   1.532   6.834  1.2623  0.8317 -0.9569
11559SOL    HW246557   3.798   1.386   6.801 -1.7995 -0.2755  2.0027
11560SOL     OW46558   3.307   3.037   4.004  0.0309  0.3769  0.0272
11560SOL    HW146559   3.251   3.080   4.069 -0.3058 -0.0914  0.0479
11560SOL    HW246560   3.329   2.953   4.044  0.8509  0.6139  0.0707
11561SOL     OW46561   2.853   4.668  19.381  0.1823  0.0789 -0.2168
11561SOL    HW146562   2.816   4.588  19.344 -1.2680  0.8830 -0.4900
11561SOL    HW246563   2.843   4.658  19.476 -0.0116 -0.0563 -0.2514
11562SOL     OW46564   0.039   0.297   0.051  0.0815  0.3903 -0.0836
11562SOL    HW146565   0.117   0.351   0.040  1.0421 -0.7823  1.0052
11562SOL    HW246566   4.748   0.358   0.082  0.9494  1.1233  0.3618
11563SOL     OW46567   2.937   3.887  19.933  0.4086  0.0612 -0.5098
11563SOL    HW146568   2.951   3.828  19.859 -3.2975 -0.9965 -0.3832
11563SOL    HW246569   2.894   3.963  19.895 -0.2864  0.0872  0.3254
11564SOL     OW46570   0.206   4.757   5.553 -0.0280  0.0675  0.3662
11564SOL    HW146571   0.271   4.775   5.621 -0.8751 -0.3447  1.2846
11564SOL    HW246572   0.192   0.066   5.510  0.4638  0.3371  0.7388
11565SOL     OW46573   0.310   3.575   0.651  0.3520 -0.1611  0.1180
11565SOL    HW146574   0.329   3.669   0.660 -0.5753  0.0461 -0.1117
11565SOL    HW246575   0.264   3.552   0.732  1.6627 -0.6937  0.7233
11566SOL     OW46576   1.883   4.266   9.847  0.6344 -0.4236  0.3397
11566SOL    HW146577   1.806   4.284   9.901 -0.0309  2.8061 -1.6863
11566SOL    HW246578   1.853   4.199   9.786  0.0284 -0.6984  0.9382
11567SOL     OW46579   2.035   3.430  13.977  0.1229  0.4757  0.3158
11567SOL    HW146580   1.968   3.370  14.009  1.1400 -1.1256 -0.6174
11567SOL    HW246581   2.037   3.500  14.043 -2.5776  0.5912  0.2486
11568SOL     OW46582   4.135   1.508   6.774  0.3119  0.3442 -0.0703
11568SOL    HW146583   4.046   1.499   6.808  1.2357 -0.6275  2.1137
11568SOL    HW246584   4.145   1.602   6.759 -0.9454  0.5091  0.0894
11569SOL     OW46585   0.478   4.536   0.271  0.3122  0.4681 -0.3426
11569SOL    HW146586   0.394   4.509   0.308  1.1804 -0.9775  0.5691
11569SOL    HW246587   0.542   4.514   0.339  1.6980 -0.6460 -2.0078
11570SOL     OW46588   4.560   4.133  18.416 -0.3859  0.0119  0.6693
11570SOL    HW146589   4.559   4.096  18.328 -0.9385 -0.7066  0.9693
11570SOL    HW246590   4.616   4.210  18.410  1.0754 -1.0974  0.1202
11571SOL     OW46591   1.905   0.750   5.100  0.6305 -0.5125 -0.6617
11571SOL    HW146592   1.958   0.827   5.120  0.4037 -0.2913 -0.9108
11571SOL    HW246593   1.961   0.675   5.121 -0.1252 -0.2856  2.2625
11572SOL     OW46594   1.832   0.705   3.941  0.3562 -0.4846 -0.0396
11572SOL    HW146595   1.873   0.629   3.901  0.7729  0.3806 -1.2432
11572SOL    HW246596   1.869   0.780   3.895 -0.4199  0.4296  0.8088
11573SOL     OW46597   4.309   3.636  15.545  0.2960  0.0715 -0.6120
11573SOL    HW146598   4.232   3.688  15.524  0.3506 -0.6080 -2.4900
11573SOL    HW246599   4.285   3.546  15.525  0.5655 -0.5111  1.6382
11574SOL     OW46600   0.276   3.614   4.939  0.6042  0.8553 -0.5395
11574SOL    HW146601   0.222   3.675   4.888  0.1812  0.2858 -0.7733
11574SOL    HW246602   0.235   3.528   4.924  1.3992  0.4701 -0.4829
11575SOL     OW46603   1.073   1.066   3.053 -0.0544 -0.7085  0.1512
11575SOL    HW146604   1.013   1.080   2.980  0.0295 -0.6758  0.0891
11575SOL    HW246605   1.021   1.017   3.117 -0.7242  1.0078  0.9057
11576SOL     OW46606   1.898   3.942   3.506 -0.5428 -0.2418  0.4648
11576SOL    HW146607   1.966   3.907   3.564  0.2967 -0.4200 -0.6402
11576SOL    HW246608   1.900   4.036   3.522  0.6004 -0.1441 -0.2726
11577SOL     OW46609   2.535   2.476   1.523  0.0529 -0.2959 -0.1626
11577SOL    HW146610   2.518   2.570   1.525 -2.3703 -0.8132  3.2679
11577SOL    HW246611   2.508   2.449   1.435 -0.2769  2.0073 -0.7897
11578SOL     OW46612   3.407   3.577  17.816  0.2063 -0.4457  0.7645
11578SOL    HW146613   3.462   3.551  17.742 -0.6787  1.0650 -0.4277
11578SOL    HW246614   3.411   3.673  17.816 -2.7874 -0.3426  0.4376
11579SOL     OW46615   0.448   0.842   4.872  0.3505 -0.0215  0.2590
11579SOL    HW146616   0.501   0.922   4.878  1.0671 -0.5468  0.9312
11579SOL    HW246617   0.467   0.809   4.784 -1.2997  1.4821 -0.6768
11580SOL     OW46618   0.413   4.062   9.551 -0.3167 -0.0282 -0.1126
11580SOL    HW146619   0.470   4.101   9.484  0.4208  0.7262  0.9516
11580SOL    HW246620   0.376   4.137   9.597  0.2145 -0.5783  1.1898
11581SOL     OW46621   3.495   0.547   8.784 -0.9747  0.0957 -0.3501
11581SOL    HW146622   3.455   0.537   8.697  1.4824 -1.2407 -1.3340
11581SOL    HW246623   3.583   0.511   8.774 -0.1317  1.4442  2.2855
11582SOL     OW46624   3.125   0.595  21.065 -0.0782 -0.0920 -0.2318
11582SOL    HW146625   3.122   0.605  21.160  0.4470 -1.9849 -0.0239
11582SOL    HW246626   3.067   0.664  21.032 -0.0172  0.7509  1.4470
11583SOL     OW46627   3.525   3.520   1.721 -0.3500 -0.1452 -0.1877
11583SOL    HW146628   3.534   3.471   1.640 -0.1466 -0.4211  0.0012
11583SOL    HW246629   3.592   3.588   1.716 -0.0411 -0.4385 -0.0523
11584SOL     OW46630   0.847   4.056   1.148 -0.0514 -0.0329 -0.5611
11584SOL    HW146631   0.836   3.961   1.151 -0.3239  0.0094 -0.3159
11584SOL    HW246632   0.908   4.075   1.219  0.0470 -0.0297 -0.6459
11585SOL     OW46633   4.770   2.936   3.599  0.2243 -0.4330 -0.1719
11585SOL    HW146634   4.761   2.884   3.519 -1.0738  1.6614 -1.3972
11585SOL    HW246635   0.030   3.019   3.568  0.2913  0.1473  1.5038
11586SOL     OW46636   3.135   3.007  20.189 -0.1802  0.1854  0.0324
11586SOL    HW146637   3.182   3.077  20.143 -0.0956 -0.0843 -0.2849
11586SOL    HW246638   3.192   2.986  20.263  0.8222 -1.0493 -1.0847
11587SOL     OW46639   3.130   2.968   1.418 -0.1029 -0.8724  0.2643
11587SOL    HW146640   3.074   2.901   1.457  0.8550 -1.1630  1.1488
11587SOL    HW246641   3.137   3.036   1.484  1.0985 -1.1320  0.4176
11588SOL     OW46642   4.246   1.425  17.045  0.2034  0.1743 -0.7498
11588SOL    HW146643   4.191   1.498  17.015 -1.8630 -0.8151  0.7000
11588SOL    HW246644   4.200   1.347  17.014  0.9783 -0.6327  0.1802
11589SOL     OW46645   1.484   3.219   2.604 -0.1008 -0.1864  0.2622
11589SOL    HW146646   1.498   3.137   2.652 -1.3700 -0.7745 -0.3814
11589SOL    HW246647   1.390   3.235   2.610 -0.0258  0.6140 -0.6283
11590SOL     OW46648   0.054   1.053   3.400 -0.0384 -0.1404  0.4297
11590SOL    HW146649   0.059   1.115   3.328  1.9934 -1.5345 -0.6251
11590SOL    HW246650   4.755   0.997   3.379  0.8870 -0.8834 -0.8432
11591SOL     OW46651   4.244   4.265   2.075 -0.2161 -0.1949  0.2627
11591SOL    HW146652   4.239   4.203   2.147  0.8435 -1.6230 -0.8844
11591SOL    HW246653   4.320   4.236   2.024 -1.3415  0.4265 -1.7719
11592SOL     OW46654   3.648   4.014   0.013 -0.5749  0.5153 -0.1011
11592SOL    HW146655   3.668   3.944   0.076 -3.4158  0.4932  0.7606
11592SOL    HW246656   3.670   4.095   0.060 -2.6405  0.4946  0.8991
11593SOL     OW46657   0.805   3.170  15.324  0.0532 -0.2816  0.2493
11593SOL    HW146658   0.790   3.261  15.302 -1.4519 -0.8964 -1.2752
11593SOL    HW246659   0.816   3.169  15.419  0.0965  1.4753  0.2501
11594SOL     OW46660   2.286   0.456  11.078  0.0080  0.4895  0.2753
11594SOL    HW146661   2.243   0.399  11.142 -1.3075  1.0382 -0.1106
11594SOL    HW246662   2.374   0.469  11.112  0.1739 -1.4627  0.5681
11595SOL     OW46663   0.119   0.023   6.975 -0.2128 -0.2645  0.0457
11595SOL    HW146664   0.101   0.011   6.882  1.9959  0.9308 -0.5209
11595SOL    HW246665   0.140   0.115   6.985  1.2766 -0.7417  1.4513
11596SOL     OW46666   2.247   1.120  15.408 -0.2993  0.3585  0.2912
11596SOL    HW146667   2.194   1.190  15.370 -1.2910  0.4859  1.9197
11596SOL    HW246668   2.307   1.094  15.337 -2.1858  0.5550 -1.3653
11597SOL     OW46669   3.746   4.368  19.510 -0.0553 -0.3078 -0.4931
11597SOL    HW146670   3.714   4.457  19.523 -1.7948 -0.5293 -3.1168
11597SOL    HW246671   3.685   4.330  19.447  1.0948 -3.1268  0.0856
11598SOL     OW46672   0.849   2.368  13.817 -0.2210 -0.3789 -0.4654
11598SOL    HW146673   0.754   2.372  13.831 -0.3405 -1.5893 -0.9423
11598SOL    HW246674   0.885   2.426  13.884 -1.2148 -0.8848  0.5162
11599SOL     OW46675   4.500   0.823   9.150  0.0368  0.1274 -0.7322
11599SOL    HW146676   4.523   0.853   9.062  0.5070 -1.2140 -1.0751
11599SOL    HW246677   4.404   0.826   9.152  0.0391  0.4956 -1.1758
11600SOL     OW46678   0.023   1.584  10.910 -0.5841  0.3841  0.2584
11600SOL    HW146679   4.776   1.531  10.834 -1.2345  0.1204  0.6325
11600SOL    HW246680   4.739   1.554  10.979  0.1078  0.4969  0.9185
11601SOL     OW46681   3.256   2.906  20.414  0.0216 -0.5569  0.5378
11601SOL    HW146682   3.348   2.894  20.437 -0.2304 -1.0505  1.3170
11601SOL    HW246683   3.217   2.820  20.430 -0.6166 -0.2893  0.4074
11602SOL     OW46684   1.064   4.269   8.610 -0.3205  0.0454 -0.5039
11602SOL    HW146685   1.012   4.328   8.556 -0.7276 -0.5166 -0.7300
11602SOL    HW246686   1.101   4.206   8.549 -1.2734 -0.9517 -0.0594
11603SOL     OW46687   3.595   0.140  20.050 -0.2526  0.0171  0.0657
11603SOL    HW146688   3.657   0.085  20.003 -0.6561  0.1479 -0.6078
11603SOL    HW246689   3.645   0.174  20.124  1.2007  2.1418 -1.9009
11604SOL     OW46690   0.204   1.417   5.268  0.3356 -0.0334 -0.2409
11604SOL    HW146691   0.127   1.361   5.260 -0.5310  1.1408 -0.1510
11604SOL    HW246692   0.258   1.394   5.192  1.1876 -2.8273  1.2235
11605SOL     OW46693   0.729   3.654  19.625 -0.0184  0.0288  0.5369
11605SOL    HW146694   0.723   3.586  19.558 -1.1799  0.4350  0.2394
11605SOL    HW246695   0.639   3.673  19.649  0.3295  1.0463  1.0519
11606SOL     OW46696   4.367   2.546   4.480  0.0163  0.1322 -0.1996
11606SOL    HW146697   4.361   2.528   4.574  0.4914  1.4082  0.0702
11606SOL    HW246698   4.447   2.597   4.470 -0.2404  0.3286 -1.2491
11607SOL     OW46699   4.629   0.049  12.502  0.1313  0.5263 -0.5029
11607SOL    HW146700   4.575   0.087  12.433 -0.3502  0.1117 -0.3508
11607SOL    HW246701   4.572   0.045  12.579 -0.1098 -1.3822 -0.7739
11608SOL     OW46702   1.531   1.927  15.093  0.1072  0.5952 -0.1578
11608SOL    HW146703   1.622   1.949  15.071 -0.2638  2.1286 -0.1466
11608SOL    HW246704   1.505   1.865  15.025  1.4858 -0.6102  0.4090
11609SOL     OW46705   0.073   4.447   1.237  0.5197  0.1947  0.0651
11609SOL    HW146706   4.756   4.438   1.258  0.4594  0.6875  0.0178
11609SOL    HW246707   0.100   4.528   1.280  1.2858 -0.7019  1.2968
11610SOL     OW46708   1.679   1.416  16.981 -0.5295  0.2362 -0.5656
11610SOL    HW146709   1.632   1.402  16.899 -0.3490 -1.4721 -0.3730
11610SOL    HW246710   1.760   1.461  16.954 -0.9899  0.6942 -1.1966
11611SOL     OW46711   0.660   3.350  15.578 -0.6386 -0.4430 -0.7420
11611SOL    HW146712   0.675   3.257  15.590 -0.2770 -0.5338 -1.9059
11611SOL    HW246713   0.565   3.361  15.589 -0.8271 -1.1107 -1.7114
11612SOL     OW46714   0.952   0.326   5.920 -0.7684  0.5070 -0.1137
11612SOL    HW146715   0.918   0.264   5.855 -0.4370  0.0021  0.1966
11612SOL    HW246716   1.047   0.316   5.916 -0.7234  0.8598  0.0715
11613SOL     OW46717   3.471   2.755   4.534  0.4402 -0.5484  0.6748
11613SOL    HW146718   3.485   2.844   4.564 -0.4868 -0.0731 -0.2828
11613SOL    HW246719   3.536   2.741   4.465  0.7676 -0.7095  1.0151
11614SOL     OW46720   3.880   1.407  17.700 -0.0917  0.6182 -0.0910
11614SOL    HW146721   3.833   1.423  17.782  1.3808 -0.1989  0.9182
11614SOL    HW246722   3.960   1.460  17.708 -0.9522  2.2011 -1.9022
11615SOL     OW46723   1.798   1.062  18.493  0.3112  0.0368  0.3797
11615SOL    HW146724   1.842   1.147  18.492  1.7867 -0.7566 -2.6587
11615SOL    HW246725   1.719   1.075  18.440  0.8152 -0.6333 -0.5368
11616SOL     OW46726   0.093   2.649   4.452 -0.0939  0.2427 -0.0613
11616SOL    HW146727   0.111   2.739   4.424  0.7484  0.6095  1.6952
11616SOL    HW246728   0.123   2.645   4.543 -1.2136 -1.4770  0.2421
11617SOL     OW46729   0.826   0.943  18.963 -0.0877 -0.4860 -0.6468
11617SOL    HW146730   0.788   0.857  18.984  1.5381 -1.6244 -2.3353
11617SOL    HW246731   0.819   0.949  18.868 -2.9279  2.5298 -0.2177
11618SOL     OW46732   3.142   4.672   4.069  0.5719 -0.2152 -0.0926
11618SOL    HW146733   3.072   4.667   4.134 -0.0085  2.8967 -0.4681
11618SOL    HW246734   3.099   4.708   3.991  2.6889  1.9781 -0.2282
11619SOL     OW46735   0.957   0.081  21.181 -1.0434  0.0276  0.0263
11619SOL    HW146736   0.976   4.773  21.140 -0.9287  0.3843 -0.6546
11619SOL    HW246737   0.871   0.106  21.147 -1.2013  0.0540  0.4412
11620SOL     OW46738   1.478   4.700  14.683  0.3633 -0.4407 -0.3759
11620SOL    HW146739   1.552   4.753  14.712  0.3916 -1.8581  2.1294
11620SOL    HW246740   1.517   4.616  14.658 -0.3761 -1.1604  0.8799
11621SOL     OW46741   1.431   4.026  19.332  0.1381  0.5812 -0.3406
11621SOL    HW146742   1.356   3.979  19.370  1.4851 -0.0525  1.5339
11621SOL    HW246743   1.425   4.114  19.371  0.0836  0.6862 -0.5855
11622SOL     OW46744   1.847   3.618  10.114  0.2177 -0.1666  0.1573
11622SOL    HW146745   1.900   3.631  10.193 -0.9581 -0.9061  1.0612
11622SOL    HW246746   1.776   3.681  10.122 -0.4499 -0.9207  0.1655
11623SOL     OW46747   1.553   3.005  15.270 -0.4217  0.2696  0.0013
11623SOL    HW146748   1.616   2.975  15.205 -0.0444  0.4327  0.2918
11623SOL    HW246749   1.558   3.101  15.265 -1.2146  0.2840 -0.5286
11624SOL     OW46750   3.582   2.828  21.175 -0.3575 -0.3932  0.5550
11624SOL    HW146751   3.499   2.779  21.172 -1.3970  1.2361  2.6929
11624SOL    HW246752   3.576   2.880   0.059  2.3021  0.5124  0.1568
11625SOL     OW46753   1.090   1.136   0.317  0.2207 -0.4622 -0.5738
11625SOL    HW146754   0.997   1.154   0.303  0.4951  0.7017 -0.9707
11625SOL    HW246755   1.130   1.223   0.322  1.0677 -0.9573  1.0823
11626SOL     OW46756   4.316   1.387  13.262  1.1206 -0.2743 -0.2355
11626SOL    HW146757   4.407   1.400  13.290  1.0485 -1.4648  0.5371
11626SOL    HW246758   4.303   1.292  13.265  0.1200 -0.1671 -1.2045
11627SOL     OW46759   3.886   4.312   3.872  0.1378 -0.0316  0.3728
11627SOL    HW146760   3.804   4.349   3.904  0.7633  1.5588  0.1200
11627SOL    HW246761   3.921   4.379   3.812  1.7180 -0.6220  0.6401
11628SOL     OW46762   0.033   2.946  11.413  0.3146 -0.2036  0.3612
11628SOL    HW146763   0.016   2.853  11.427  1.1209 -0.5438 -0.8951
11628SOL    HW246764   4.744   2.973  11.349  1.8550 -0.5381 -1.3333
11629SOL     OW46765   1.121   3.425  20.670 -0.0146  0.3176  0.1907
11629SOL    HW146766   1.178   3.488  20.715 -1.0917  0.3762  1.4411
11629SOL    HW246767   1.033   3.446  20.699 -0.4572 -1.2939  0.0377
11630SOL     OW46768   3.327   4.106  17.072  0.0898  0.3373 -0.0367
11630SOL    HW146769   3.406   4.083  17.121  0.1981  0.8476  0.0298
11630SOL    HW246770   3.281   4.023  17.060  0.1965  0.1681  0.7048
11631SOL     OW46771   1.964   2.226  20.185  0.1194  0.1735  0.1288
11631SOL    HW146772   1.882   2.267  20.156 -0.7522 -0.3905  1.7712
11631SOL    HW246773   2.009   2.203  20.104 -1.1018  0.9987 -0.7899
11632SOL     OW46774   3.306   4.107   0.453  0.0432 -0.3081  0.0574
11632SOL    HW146775   3.226   4.059   0.475 -1.0702  1.3677 -0.3530
11632SOL    HW246776   3.334   4.070   0.370  0.1587 -1.4846  0.6162
11633SOL     OW46777   1.304   0.638   0.839 -0.0771 -0.0517  0.0691
11633SOL    HW146778   1.328   0.548   0.815  0.5630 -0.1015  0.8914
11633SOL    HW246779   1.209   0.642   0.825 -0.1950 -1.0268  0.5931
11634SOL     OW46780   0.151   0.671  20.510 -0.6488 -0.2913  0.0570
11634SOL    HW146781   0.242   0.687  20.534 -0.0497 -2.0823 -1.0261
11634SOL    HW246782   0.115   0.620  20.583 -0.9459  0.9427  0.7682
11635SOL     OW46783   3.766   0.733   5.543 -0.0940 -0.1130  0.5355
11635SOL    HW146784   3.824   0.806   5.563  0.8261 -0.6796 -0.0528
11635SOL    HW246785   3.686   0.751   5.592 -0.2487  1.8230 -0.4194
11636SOL     OW46786   1.818   2.921  21.136 -0.0065  0.1934  0.5186
11636SOL    HW146787   1.798   3.007  21.100 -0.5629 -0.3844 -0.5523
11636SOL    HW246788   1.906   2.929  21.171  1.1761  0.2420 -2.5033
11637SOL     OW46789   0.115   2.721  18.740  0.0285 -0.5843  0.3419
11637SOL    HW146790   0.123   2.756  18.652  0.4316  0.0387  0.6288
11637SOL    HW246791   0.059   2.784  18.786  0.5408 -0.4507  0.7823
11638SOL     OW46792   3.861   0.608  13.749 -0.2686 -0.6126 -0.5684
11638SOL    HW146793   3.809   0.571  13.678  2.4161 -0.2022 -2.7368
11638SOL    HW246794   3.887   0.532  13.801  0.3543 -1.2000 -1.7412
11639SOL     OW46795   2.616   2.325  20.605  0.3383 -0.6988  0.0476
11639SOL    HW146796   2.556   2.272  20.552  0.6974  0.2601 -1.3386
11639SOL    HW246797   2.703   2.303  20.571  0.3823  1.7738 -1.4222
11640SOL     OW46798   1.469   1.419  20.947  0.1112 -0.0978  0.0610
11640SOL    HW146799   1.407   1.348  20.964 -0.9952  1.1953  1.4627
11640SOL    HW246800   1.421   1.478  20.889  1.3124 -0.8957 -1.7426
11641SOL     OW46801   2.980   1.017   2.613  0.3264  0.1317 -0.2128
11641SOL    HW146802   2.928   0.974   2.681  1.9156 -3.8202 -1.5295
11641SOL    HW246803   3.045   1.068   2.662  1.1144 -2.2742  1.2401
11642SOL     OW46804   1.006   4.388  18.224  0.1020  0.4731  0.4676
11642SOL    HW146805   1.080   4.419  18.172 -0.1844 -1.2324 -0.9540
11642SOL    HW246806   0.932   4.386  18.162 -0.5292 -0.3216  1.2443
11643SOL     OW46807   1.327   4.010  15.768 -0.1873 -0.1232  0.6866
11643SOL    HW146808   1.402   4.039  15.716  0.7144 -0.8783  1.5588
11643SOL    HW246809   1.252   4.019  15.710  0.9404 -1.7540 -0.9870
11644SOL     OW46810   2.169   3.144   1.697  0.2741  0.0747  0.4697
11644SOL    HW146811   2.248   3.158   1.750  0.4106 -0.7507  0.4926
11644SOL    HW246812   2.122   3.073   1.743 -1.0483  1.3593  1.0944
11645SOL     OW46813   0.831   3.189   1.818 -0.2141  0.2458  0.0161
11645SOL    HW146814   0.828   3.124   1.888 -0.9628 -1.0218 -1.1953
11645SOL    HW246815   0.892   3.152   1.754 -0.6857  0.7188 -0.7060
11646SOL     OW46816   4.189   1.458   5.563 -0.3028  0.0258  0.6994
11646SOL    HW146817   4.242   1.538   5.566 -0.1192 -0.1092  1.0538
11646SOL    HW246818   4.139   1.465   5.482  0.4629  0.0273  0.2313
11647SOL     OW46819   1.703   1.378  13.061 -0.0364 -0.3005  0.1236
11647SOL    HW146820   1.633   1.442  13.078 -0.2040 -0.3417 -0.4004
11647SOL    HW246821   1.658   1.303  13.024  0.3611 -0.0975 -0.7715
11648SOL     OW46822   3.587   2.177   6.255  0.2470 -0.1237 -0.2900
11648SOL    HW146823   3.621   2.150   6.169  1.1250 -0.7942  0.2686
11648SOL    HW246824   3.557   2.267   6.242 -0.2904 -0.4815 -1.4925
11649SOL     OW46825   2.665   1.687  13.725 -0.2138 -0.4888  0.2317
11649SOL    HW146826   2.571   1.672  13.739 -0.1097 -0.9971  0.3910
11649SOL    HW246827   2.694   1.611  13.674  0.0749 -0.2446  0.0364
11650SOL     OW46828   1.096   3.444   3.644 -0.2276 -0.6113  0.0439
11650SOL    HW146829   1.185   3.443   3.609 -0.6013 -0.4058 -0.9214
11650SOL    HW246830   1.070   3.536   3.640  0.0176 -0.4799  1.5980
11651SOL     OW46831   3.644   0.111   1.248  0.7582  0.4406 -0.0795
11651SOL    HW146832   3.590   0.056   1.304  0.1397 -1.8128 -2.9239
11651SOL    HW246833   3.728   0.065   1.244  0.9670  0.8741 -0.5976
11652SOL     OW46834   3.548   3.266  17.159  0.4085 -0.1858  0.5686
11652SOL    HW146835   3.506   3.342  17.200  1.6647 -0.0088  1.5302
11652SOL    HW246836   3.635   3.298  17.135  0.5564 -1.0235  0.0215
11653SOL     OW46837   3.596   0.098   0.058  0.4920 -0.3060  0.5933
11653SOL    HW146838   3.672   0.133   0.012  1.2758 -1.5539  0.9164
11653SOL    HW246839   3.593   0.145   0.140  0.8252 -0.1413  0.5086
11654SOL     OW46840   0.304   3.802  10.611  0.2668  0.1926  0.6274
11654SOL    HW146841   0.320   3.889  10.647  1.0757 -0.2084  1.2625
11654SOL    HW246842   0.391   3.761  10.608 -0.1591 -0.7389  0.7226
11655SOL     OW46843   3.901   4.481   0.301  0.2565 -0.0721 -0.9831
11655SOL    HW146844   3.878   4.469   0.393 -1.1942  1.0916 -1.2104
11655SOL    HW246845   3.992   4.451   0.296  0.5443  0.4797  0.9471
11656SOL     OW46846   4.004   1.402  15.726 -0.2303  0.4843 -0.1171
11656SOL    HW146847   3.964   1.378  15.809 -0.9465 -0.5475 -0.7706
11656SOL    HW246848   3.962   1.485  15.703 -0.3592  0.5427  0.3171
11657SOL     OW46849   1.562   2.663   2.024  0.3155 -0.3271 -0.1924
11657SOL    HW146850   1.508   2.619   2.089  1.1902 -0.5993  0.3551
11657SOL    HW246851   1.646   2.677   2.068 -0.1526  2.4151 -0.1684
11658SOL     OW46852   3.367   1.237   5.549 -0.4705 -0.3409  0.0737
11658SOL    HW146853   3.346   1.161   5.494  0.1814 -1.1938  1.0088
11658SOL    HW246854   3.346   1.208   5.638 -0.5311  0.6882  0.3898
11659SOL     OW46855   2.968   4.163  16.898  0.2508  0.3092  0.0363
11659SOL    HW146856   2.965   4.157  16.803  0.5634  0.3199  0.0282
11659SOL    HW246857   2.964   4.072  16.928  0.6351  0.2850  0.0051
11660SOL     OW46858   2.133   3.183  20.564  0.5839  0.6326 -0.0573
11660SOL    HW146859   2.101   3.092  20.559  0.8335  0.4591  1.4435
11660SOL    HW246860   2.104   3.223  20.482 -0.3009 -0.5639 -0.3355
11661SOL     OW46861   2.646   3.204  14.311  0.3123  0.5367  0.1337
11661SOL    HW146862   2.737   3.177  14.297  0.1042 -1.0578  1.9289
11661SOL    HW246863   2.651   3.300  14.319  2.2232  0.1978  3.1452
11662SOL     OW46864   3.642   0.875  16.528  0.7279  0.5194 -0.3715
11662SOL    HW146865   3.573   0.841  16.585  1.3618  0.4285  0.3366
11662SOL    HW246866   3.661   0.962  16.562  1.8374  0.0580  0.1877
11663SOL     OW46867   0.064   0.896   2.052  0.2495  0.4753  0.1237
11663SOL    HW146868   0.155   0.871   2.071 -0.1429 -0.6314  0.5511
11663SOL    HW246869   0.016   0.872   2.131 -0.8057 -1.0174 -0.9953
11664SOL     OW46870   2.553   2.533   2.208  0.2295 -0.2781 -0.0316
11664SOL    HW146871   2.615   2.542   2.281 -0.3232 -2.0772  0.6759
11664SOL    HW246872   2.545   2.621   2.172  2.3575  0.1559  0.5795
11665SOL     OW46873   3.707   2.268  18.723  0.0376  0.2788  0.7954
11665SOL    HW146874   3.720   2.358  18.693  0.6074  0.5473  1.8701
11665SOL    HW246875   3.679   2.276  18.814 -0.7292 -0.5963  0.6375
11666SOL     OW46876   0.037   4.086   1.452 -0.3490  0.0203  0.1737
11666SOL    HW146877   0.089   4.167   1.452  0.8312 -0.7440 -2.9213
11666SOL    HW246878   4.722   4.115   1.456  0.0699  1.4805 -1.1290
11667SOL     OW46879   3.624   1.105  19.464 -0.1998 -0.2690  0.3341
11667SOL    HW146880   3.649   1.022  19.424  2.2218  1.2028 -1.1720
11667SOL    HW246881   3.692   1.121  19.530 -1.0349  0.1862  1.0889
11668SOL     OW46882   1.778   4.048  17.978  0.2974  0.1066 -0.2137
11668SOL    HW146883   1.833   4.013  17.908  0.5034  0.3708 -0.1860
11668SOL    HW246884   1.711   4.098  17.932 -0.3880 -0.8798 -0.2793
11669SOL     OW46885   1.041   1.222  19.562  0.1719 -0.1582 -0.1209
11669SOL    HW146886   0.977   1.193  19.627  0.2364  0.7516  0.3470
11669SOL    HW246887   1.115   1.253  19.614 -0.6770  2.6170 -0.6079
11670SOL     OW46888   0.003   4.259   2.083  0.1496  0.2000 -0.1821
11670SOL    HW146889   0.068   4.273   2.151 -0.1143 -0.5998  0.2440
11670SOL    HW246890   0.043   4.193   2.025  0.5348  1.1691 -1.0068
11671SOL     OW46891   3.091   0.619  12.888 -0.1885  0.0891 -0.1435
11671SOL    HW146892   3.048   0.700  12.915 -0.2086 -0.1247  0.4603
11671SOL    HW246893   3.159   0.647  12.827  0.8229  0.6930  1.2588
11672SOL     OW46894   3.422   2.616   5.806  0.0481  0.0365  0.1401
11672SOL    HW146895   3.515   2.635   5.819 -0.0369 -0.0622  0.9440
11672SOL    HW246896   3.420   2.536   5.753  0.4191  0.5858 -0.6942
11673SOL     OW46897   4.709   2.865   4.799  0.1791  0.8327  0.4381
11673SOL    HW146898   4.719   2.929   4.869  1.4877  2.1211 -0.9124
11673SOL    HW246899   4.770   2.895   4.731 -0.0562 -1.1931 -0.6586
11674SOL     OW46900   3.234   3.651  17.334 -0.4641  0.1861  0.0574
11674SOL    HW146901   3.157   3.682  17.286 -0.3703  0.0922 -0.1525
11674SOL    HW246902   3.307   3.703  17.300 -0.7011  1.4021  1.4055
11675SOL     OW46903   3.276   4.608   0.334  0.0045 -0.0105  0.4192
11675SOL    HW146904   3.242   4.636   0.249  2.0087  0.2236 -0.2864
11675SOL    HW246905   3.276   4.512   0.329  0.0372  0.0013  0.2088
11676SOL     OW46906   3.760   0.982  18.892 -0.5433 -0.1591 -0.3269
11676SOL    HW146907   3.705   0.930  18.950  0.2215  0.6613  1.1189
11676SOL    HW246908   3.812   0.918  18.844  1.1222 -0.6436  2.1821
11677SOL     OW46909   2.566   2.970  20.582 -0.9749 -0.2171  0.4431
11677SOL    HW146910   2.642   2.962  20.639 -0.5060  1.1412 -0.0073
11677SOL    HW246911   2.517   2.889  20.597  1.6564 -2.0440 -0.8692
11678SOL     OW46912   2.726   2.572   4.759 -0.1385 -0.4023  0.3131
11678SOL    HW146913   2.767   2.519   4.691  2.4909  1.4083  0.5282
11678SOL    HW246914   2.644   2.601   4.720  1.2697  0.4640 -1.9751
11679SOL     OW46915   1.940   0.383  16.981  0.6567  0.2596 -0.8633
11679SOL    HW146916   2.005   0.448  16.954  0.2594  0.8483 -0.4039
11679SOL    HW246917   1.856   0.430  16.978  0.5419  0.1482  0.7619
11680SOL     OW46918   2.974   3.182  10.772 -0.2043  0.0709  0.1790
11680SOL    HW146919   3.007   3.164  10.684 -1.0600  0.6609 -0.2566
11680SOL    HW246920   3.051   3.211  10.821 -0.4346  3.1671 -1.3085
11681SOL     OW46921   2.396   4.230   0.847  0.1766  0.2879  0.3457
11681SOL    HW146922   2.472   4.183   0.883 -0.0427  0.1893  0.6765
11681SOL    HW246923   2.405   4.319   0.882 -0.3912  0.0240  1.1708
11682SOL     OW46924   0.389   0.804  19.065  0.4836  0.4390 -0.5693
11682SOL    HW146925   0.439   0.731  19.101 -0.6659  0.4116  0.9619
11682SOL    HW246926   0.413   0.806  18.972  4.0492  1.0734  0.3925
11683SOL     OW46927   4.549   4.533   9.659  0.0725 -0.3934 -0.5124
11683SOL    HW146928   4.604   4.562   9.732  1.1254 -0.5980 -1.2350
11683SOL    HW246929   4.574   4.442   9.644 -0.3319 -0.4308 -0.9580
11684SOL     OW46930   3.261   2.939  14.629 -0.4817 -0.4978 -0.1674
11684SOL    HW146931   3.330   2.937  14.563  0.3102  0.1223  0.6432
11684SOL    HW246932   3.268   2.855  14.674 -0.4806 -0.5781 -0.3189
11685SOL     OW46933   1.013   0.915  21.162  0.4611 -0.2737  0.0348
11685SOL    HW146934   1.078   0.981  21.187  0.1308 -0.1141  0.4715
11685SOL    HW246935   0.988   0.874   0.049 -0.1373 -0.2034 -0.1104
11686SOL     OW46936   3.532   2.160  15.784 -0.0166 -0.4395  0.0011
11686SOL    HW146937   3.509   2.077  15.743 -0.6924 -0.0546 -0.4126
11686SOL    HW246938   3.542   2.221  15.710 -2.0702  0.4549  0.4699
11687SOL     OW46939   2.551   1.476  20.561  0.1619  0.2204 -0.7124
11687SOL    HW146940   2.582   1.531  20.634  0.2988  0.8337 -1.2322
11687SOL    HW246941   2.631   1.435  20.527 -0.1689 -1.6944  0.8224
11688SOL     OW46942   1.055   1.106  16.567 -0.0608  0.3363  0.4424
11688SOL    HW146943   1.029   1.165  16.497  1.4632  0.3959 -0.0814
11688SOL    HW246944   1.151   1.105  16.563 -0.0842 -2.3472  0.2708
11689SOL     OW46945   0.317   0.597   5.331 -0.1986 -0.0698  0.2932
11689SOL    HW146946   0.229   0.576   5.298 -0.1160  0.5810 -0.3361
11689SOL    HW246947   0.368   0.616   5.253  1.1334 -2.8221  0.5224
11690SOL     OW46948   0.352   3.068   2.766  0.3024 -0.0814 -0.3616
11690SOL    HW146949   0.366   3.116   2.684  0.4058 -4.0726 -2.7072
11690SOL    HW246950   0.257   3.060   2.774  0.2510  1.7556  0.7292
11691SOL     OW46951   4.011   0.965  19.506  0.4437 -0.0937 -0.2418
11691SOL    HW146952   4.074   0.897  19.528  0.2594  0.6161  2.5041
11691SOL    HW246953   3.953   0.924  19.442  2.4475 -1.4034 -1.2204
11692SOL     OW46954   1.437   3.324  19.778 -0.1664 -0.2654 -0.1202
11692SOL    HW146955   1.374   3.376  19.727  1.1768  3.3816  1.9199
11692SOL    HW246956   1.402   3.325  19.867  1.5228 -0.1843  0.5496
11693SOL     OW46957   2.118   0.391   4.039 -0.7860  0.0428  0.1856
11693SOL    HW146958   2.040   0.369   3.988 -1.0906  1.6703 -0.0577
11693SOL    HW246959   2.182   0.324   4.016 -1.6202 -0.4205 -0.7660
11694SOL     OW46960   3.639   4.653   3.608 -0.2296 -0.2391 -0.1698
11694SOL    HW146961   3.630   4.591   3.681  2.5359 -2.2378 -1.5365
11694SOL    HW246962   3.557   4.644   3.560 -0.2144 -2.2125  0.1484
11695SOL     OW46963   0.114   0.481  20.725 -0.1089 -0.0201 -0.0552
11695SOL    HW146964   0.200   0.460  20.688  0.0027 -0.0172  0.1970
11695SOL    HW246965   0.130   0.561  20.776 -0.0148 -0.6566  0.9140
11696SOL     OW46966   3.555   1.269  12.145 -0.7151  0.4201 -0.2184
11696SOL    HW146967   3.533   1.343  12.202 -0.9892 -0.0068  0.2345
11696SOL    HW246968   3.637   1.235  12.181 -1.6885 -0.8087  0.8762
11697SOL     OW46969   1.964   3.000   3.720  0.1398 -0.1227 -0.0483
11697SOL    HW146970   1.904   3.059   3.673  1.0038  0.3675 -0.5529
11697SOL    HW246971   2.042   2.998   3.665  0.7764 -0.3541  0.8685
11698SOL     OW46972   0.383   2.383   6.086  0.5188 -0.2446 -0.5766
11698SOL    HW146973   0.370   2.307   6.142 -0.0897 -0.3204 -0.8239
11698SOL    HW246974   0.413   2.348   6.003  2.0332 -0.0872 -0.0906
11699SOL     OW46975   1.694   1.478  19.397  0.2742  0.0241  0.2787
11699SOL    HW146976   1.676   1.474  19.303 -1.8810  0.7662  0.6610
11699SOL    HW246977   1.753   1.552  19.407  0.3273  0.0816 -0.4565
11700SOL     OW46978   0.265   2.972   6.014  0.3055  0.3851 -0.3550
11700SOL    HW146979   0.179   2.966   5.972  0.6964  1.1971 -1.2689
11700SOL    HW246980   0.300   2.883   6.011 -0.6751 -0.0310  0.3837
11701SOL     OW46981   3.180   2.743  21.124  0.3789 -0.1870 -0.0797
11701SOL    HW146982   3.201   2.830  21.157  0.6389  0.0713 -0.9264
11701SOL    HW246983   3.183   2.752  21.029 -1.4567 -0.6550 -0.1948
11702SOL     OW46984   3.579   1.754   0.442  0.3415 -0.1374 -0.0051
11702SOL    HW146985   3.662   1.772   0.398 -0.4884  1.8607 -0.7560
11702SOL    HW246986   3.512   1.767   0.375 -0.6273 -1.0900  0.7664
11703SOL     OW46987   1.209   1.224   1.613 -0.2922 -0.4527  0.3158
11703SOL    HW146988   1.147   1.296   1.606 -0.0206 -0.2158  0.3259
11703SOL    HW246989   1.239   1.210   1.524  0.5113  0.2086  0.4774
11704SOL     OW46990   3.528   3.247   5.157  0.0003  0.3587  0.0210
11704SOL    HW146991   3.536   3.333   5.116  0.5050  0.6957  0.8301
11704SOL    HW246992   3.619   3.221   5.176 -0.1579 -0.2921 -0.0920
11705SOL     OW46993   1.030   0.518   3.659 -0.6860 -0.2034  0.1825
11705SOL    HW146994   0.955   0.463   3.634 -0.1019 -0.9072 -0.0197
11705SOL    HW246995   1.094   0.504   3.590  0.3498 -0.9996  1.2909
11706SOL     OW46996   0.466   3.667   7.373 -0.5064 -0.1154  0.5693
11706SOL    HW146997   0.461   3.744   7.430  1.1041  1.2087 -1.0875
11706SOL    HW246998   0.559   3.642   7.375 -0.4630 -0.1146 -1.4150
11707SOL     OW46999   0.051   2.054  19.148  0.0578 -0.1604  0.3651
11707SOL    HW147000   0.018   2.053  19.238 -1.6906  1.0743 -0.2763
11707SOL    HW247001   4.749   2.044  19.093  0.9203  1.1144 -1.0919
11708SOL     OW47002   1.462   2.262  15.781 -0.4621 -0.3367  0.1545
11708SOL    HW147003   1.384   2.214  15.750 -1.2989 -0.2937  2.1925
11708SOL    HW247004   1.450   2.267  15.876  1.7479  0.1981  0.3846
11709SOL     OW47005   3.212   4.630   3.466 -1.0810  0.1722 -0.2386
11709SOL    HW147006   3.280   4.696   3.472 -0.9430 -0.1623  2.0225
11709SOL    HW247007   3.182   4.634   3.376  2.0921  0.1742 -1.2960
11710SOL     OW47008   2.416   3.478   5.175  0.6534  0.0669 -0.4362
11710SOL    HW147009   2.453   3.405   5.226  0.1684 -0.7660 -1.2823
11710SOL    HW247010   2.452   3.556   5.217  0.6477 -0.6320  0.8943
11711SOL     OW47011   3.425   2.208  15.081  0.6601  0.3273 -0.0208
11711SOL    HW147012   3.474   2.153  15.020 -1.5392 -0.2511 -1.2664
11711SOL    HW247013   3.359   2.252  15.027 -1.2509 -0.1369  1.9184
11712SOL     OW47014   1.121   3.168  17.841  0.4397 -0.0449 -0.2378
11712SOL    HW147015   1.177   3.212  17.776  1.0211 -0.8154 -0.2639
11712SOL    HW247016   1.180   3.107  17.885 -0.0541  0.1993  0.7488
11713SOL     OW47017   1.250   0.592   5.505  0.1397  0.0174  0.3573
11713SOL    HW147018   1.300   0.520   5.543  0.9719  0.6877  0.5333
11713SOL    HW247019   1.211   0.637   5.580 -0.1044 -0.0594  0.2736
11714SOL     OW47020   2.932   1.775  13.721  0.2203  0.1052  0.6353
11714SOL    HW147021   2.845   1.738  13.713 -0.0506  1.6572 -3.7491
11714SOL    HW247022   2.988   1.717  13.669  1.0169  1.6247 -0.2413
11715SOL     OW47023   0.017   2.267   4.674 -0.3630  0.0535  0.3406
11715SOL    HW147024   4.704   2.238   4.692  0.3492 -1.8196  0.8741
11715SOL    HW247025   0.070   2.223   4.741  0.9988  0.8818 -0.1970
11716SOL     OW47026   0.104   1.356  15.448  0.5253 -0.5521  0.2103
11716SOL    HW147027   0.015   1.374  15.480  0.3465 -0.6224 -0.2458
11716SOL    HW247028   0.093   1.282  15.388  1.0271 -1.1710  0.8761
11717SOL     OW47029   1.037   1.731  15.801 -0.1393  0.0530  0.0937
11717SOL    HW147030   1.042   1.826  15.805  2.4702 -0.0435 -0.7144
11717SOL    HW247031   0.998   1.712  15.716  2.3462  0.2987 -1.0934
11718SOL     OW47032   3.498   3.492  17.282  0.1452  0.1529 -0.1385
11718SOL    HW147033   3.532   3.486  17.371 -0.1886 -0.2462 -0.0406
11718SOL    HW247034   3.421   3.549  17.290 -0.2087 -0.3358 -0.0828
11719SOL     OW47035   4.085   0.727   4.362  0.4987 -0.7986  0.0138
11719SOL    HW147036   4.046   0.813   4.345  1.1185 -0.1885  1.6426
11719SOL    HW247037   4.112   0.695   4.276 -0.1027  0.4628 -0.6425
11720SOL     OW47038   1.317   1.409  19.307  0.1711  0.2729  0.4308
11720SOL    HW147039   1.351   1.485  19.260  1.2123 -0.6000 -0.2557
11720SOL    HW247040   1.368   1.406  19.388 -0.0545  0.4745  0.5770
11721SOL     OW47041   1.196   1.208  20.915  0.0341 -0.0167  0.1893
11721SOL    HW147042   1.253   1.137  20.944 -0.1050 -0.4137 -0.5079
11721SOL    HW247043   1.121   1.205  20.975  0.7511  0.5112  1.1124
11722SOL     OW47044   2.411   2.811   5.225  0.4548  1.0365 -0.0768
11722SOL    HW147045   2.498   2.785   5.195 -0.6016  0.6762 -2.7565
11722SOL    HW247046   2.406   2.905   5.204 -0.1128  0.8783 -0.6432
11723SOL     OW47047   4.377   2.602   2.308 -0.1431  0.4964  0.3887
11723SOL    HW147048   4.383   2.526   2.250  2.4729  0.5831  0.5232
11723SOL    HW247049   4.391   2.677   2.250  0.8947  0.6652  0.8507
11724SOL     OW47050   1.974   2.400   2.299 -0.0792  0.0325  0.0816
11724SOL    HW147051   1.931   2.476   2.338  2.0439  0.3810  1.7272
11724SOL    HW247052   2.062   2.430   2.279  0.2882 -1.5523 -0.6479
11725SOL     OW47053   2.880   3.322  14.523  0.0607 -0.6188  0.1336
11725SOL    HW147054   2.820   3.272  14.578  0.5697  0.3578  1.5545
11725SOL    HW247055   2.824   3.386  14.478  0.1614  0.8140  2.0520
11726SOL     OW47056   2.318   2.597  20.119  1.0907 -0.5752  0.6563
11726SOL    HW147057   2.347   2.619  20.031 -0.3218  0.2530  0.4019
11726SOL    HW247058   2.375   2.525  20.146  0.6303 -1.7399 -1.4568
11727SOL     OW47059   3.546   0.823  15.306 -0.0520 -0.0897 -0.3124
11727SOL    HW147060   3.603   0.749  15.328  0.7210  0.8836  0.9490
11727SOL    HW247061   3.469   0.812  15.361 -0.2251 -0.3195 -0.6003
11728SOL     OW47062   0.990   1.269   4.615  0.3533 -0.0579 -0.4465
11728SOL    HW147063   1.008   1.195   4.672  0.9193  0.1438 -0.3696
11728SOL    HW247064   1.032   1.343   4.657 -0.0804  0.2815 -0.6054
11729SOL     OW47065   1.617   2.523   3.143  0.0712  0.8448  0.1030
11729SOL    HW147066   1.631   2.431   3.118  0.9813  1.0638 -0.1770
11729SOL    HW247067   1.690   2.570   3.103 -0.9844  1.8379 -0.6241
11730SOL     OW47068   1.247   1.820  20.986  0.3711 -0.1769 -0.3569
11730SOL    HW147069   1.271   1.838  21.077  0.1431  0.5976 -0.4535
11730SOL    HW247070   1.160   1.782  20.991 -0.4507  1.6860 -0.4050
11731SOL     OW47071   2.351   3.891  13.527  0.0359  0.1317  0.2585
11731SOL    HW147072   2.343   3.902  13.622 -0.5459 -0.6850  0.3076
11731SOL    HW247073   2.293   3.817  13.507 -1.3504  1.5428 -0.9841
11732SOL     OW47074   3.436   0.440   6.185  0.1107  0.6139 -0.0215
11732SOL    HW147075   3.372   0.440   6.255  1.7162 -3.0830  1.4587
11732SOL    HW247076   3.515   0.478   6.224  1.2932 -2.3163  0.4315
11733SOL     OW47077   4.764   1.816  20.431 -0.6516 -0.2267 -0.3489
11733SOL    HW147078   4.711   1.738  20.417 -1.8928  0.4182  0.7076
11733SOL    HW247079   4.739   1.875  20.360 -1.8654  0.3481  0.5532
11734SOL     OW47080   4.014   2.925   1.652 -0.2168  0.5191 -0.0049
11734SOL    HW147081   3.989   2.995   1.591 -0.6992  1.5447  1.3723
11734SOL    HW247082   3.934   2.907   1.701  0.8255  1.3299  1.9687
11735SOL     OW47083   2.588   4.142  11.675 -0.3403  0.3440 -0.5984
11735SOL    HW147084   2.635   4.067  11.711 -1.4842 -0.7049 -1.3210
11735SOL    HW247085   2.538   4.177  11.748  0.8415  0.8939 -0.0581
11736SOL     OW47086   3.472   3.112  15.949  0.6129 -0.1517  0.1451
11736SOL    HW147087   3.404   3.068  16.000  1.6437  1.1567  2.6155
11736SOL    HW247088   3.423   3.163  15.883 -0.7063 -1.3839  0.1752
11737SOL     OW47089   2.239   1.493  17.413 -0.3041 -0.0959  0.0735
11737SOL    HW147090   2.193   1.463  17.492  0.5257  0.8381  0.9225
11737SOL    HW247091   2.331   1.501  17.441  0.5490 -2.9502 -1.8852
11738SOL     OW47092   1.874   0.215  19.509  0.3299  0.3053  0.1844
11738SOL    HW147093   1.951   0.159  19.498  0.1229  0.0625 -0.0188
11738SOL    HW247094   1.818   0.194  19.435  0.6144  1.3644 -0.3325
11739SOL     OW47095   3.745   1.285   8.285  0.1123 -0.4726 -0.6360
11739SOL    HW147096   3.829   1.327   8.304  0.4180 -1.3557 -0.0146
11739SOL    HW247097   3.756   1.248   8.197 -0.7024  2.1118 -1.8217
11740SOL     OW47098   3.329   0.703  20.150  0.4264  0.2594 -0.7394
11740SOL    HW147099   3.302   0.741  20.234  1.0963 -0.4631 -0.2005
11740SOL    HW247100   3.416   0.741  20.134 -0.0855  1.0959 -1.5435
11741SOL     OW47101   2.496   1.725  13.406 -0.2959 -0.0504  0.1616
11741SOL    HW147102   2.591   1.726  13.395 -0.1100  1.5785  1.9516
11741SOL    HW247103   2.467   1.811  13.375 -1.0987 -0.2308  0.4000
11742SOL     OW47104   1.823   0.840  18.670  0.1943  0.0674  0.1333
11742SOL    HW147105   1.757   0.800  18.613  0.0980  0.1111  0.2138
11742SOL    HW247106   1.843   0.924  18.628 -0.1440  0.2637  0.3560
11743SOL     OW47107   1.256   1.231   2.801  0.2538 -0.3073 -0.6635
11743SOL    HW147108   1.172   1.261   2.766 -0.2208  1.3381  1.9031
11743SOL    HW247109   1.256   1.136   2.785 -1.9107 -0.2549 -1.0294
11744SOL     OW47110   4.468   0.721   1.681 -0.1987  0.7251 -0.1653
11744SOL    HW147111   4.479   0.764   1.596  1.4909  2.1781  0.7892
11744SOL    HW247112   4.542   0.752   1.733 -1.5679  0.2784  2.0276
11745SOL     OW47113   4.405   0.820   4.221  0.2033 -0.6655  0.3307
11745SOL    HW147114   4.326   0.842   4.171 -0.2706 -1.9970  0.5055
11745SOL    HW247115   4.445   0.749   4.173  1.3298  0.0508  0.2177
11746SOL     OW47116   3.730   2.770   2.061 -0.1794  0.7409  0.1872
11746SOL    HW147117   3.683   2.714   1.999  0.7735  1.1463 -0.9035
11746SOL    HW247118   3.747   2.850   2.012  0.4491  1.1208  1.0301
11747SOL     OW47119   2.770   2.288   3.669 -0.0378 -0.1160  0.2152
11747SOL    HW147120   2.850   2.235   3.682 -0.3910  0.1985  3.6595
11747SOL    HW247121   2.716   2.234   3.611  0.5938 -2.5439  1.8420
11748SOL     OW47122   1.330   3.360   5.664 -0.5125  0.0186 -0.6035
11748SOL    HW147123   1.318   3.321   5.578  0.3206 -1.2313 -0.1550
11748SOL    HW247124   1.393   3.302   5.708  0.0631  1.3814  0.3613
11749SOL     OW47125   1.034   2.675   1.471 -0.2025  0.6206 -0.3057
11749SOL    HW147126   1.094   2.604   1.495 -0.5931  0.2926 -0.2808
11749SOL    HW247127   1.049   2.742   1.538 -0.3083  0.2785  0.0661
11750SOL     OW47128   3.467   2.165   4.655  0.2793 -0.1268  0.6169
11750SOL    HW147129   3.405   2.170   4.728  1.1397 -0.9531  1.3992
11750SOL    HW247130   3.514   2.248   4.658 -0.8671  0.5504 -0.0455
11751SOL     OW47131   2.757   0.186  10.518 -0.1643  0.1422  0.4737
11751SOL    HW147132   2.836   0.217  10.562  0.7541 -1.6423  0.1105
11751SOL    HW247133   2.687   0.244  10.548  1.1343  1.1864  1.4552
11752SOL     OW47134   2.190   0.835   6.966  0.4582 -0.3831  0.7085
11752SOL    HW147135   2.119   0.832   6.902  1.0263 -1.4974  0.1211
11752SOL    HW247136   2.259   0.886   6.923  0.4263 -0.2289  0.8428
11753SOL     OW47137   2.638   2.787   2.130 -0.2212  0.0308 -0.2475
11753SOL    HW147138   2.734   2.793   2.128 -0.2812  0.3070 -2.0566
11753SOL    HW247139   2.609   2.876   2.152 -0.1128  0.2266 -0.9021
11754SOL     OW47140   0.128   0.152   3.817  0.1068 -0.9296 -0.0348
11754SOL    HW147141   0.140   0.077   3.758 -1.5114 -1.7238  0.6472
11754SOL    HW247142   0.177   0.130   3.895 -0.7144 -1.4544  0.3289
11755SOL     OW47143   0.762   3.792   0.049  0.2866 -0.6113 -0.1757
11755SOL    HW147144   0.856   3.775   0.051  0.3943  0.0960  0.9114
11755SOL    HW247145   0.732   3.756  21.161  1.5419 -0.7355 -0.5619
11756SOL     OW47146   1.370   3.777   9.338  0.1633  0.2063  0.2240
11756SOL    HW147147   1.416   3.860   9.327  0.8803 -0.2551 -0.2089
11756SOL    HW247148   1.336   3.755   9.252 -0.4188  0.2843  0.4336
11757SOL     OW47149   3.405   4.102  20.780 -0.0990  0.6098  0.2142
11757SOL    HW147150   3.366   4.126  20.695 -0.9058  1.8803  0.9547
11757SOL    HW247151   3.499   4.116  20.768 -0.3183  1.8126 -0.1365
11758SOL     OW47152   3.304   3.897   1.817  0.5927  0.1334  0.0330
11758SOL    HW147153   3.324   3.867   1.728  0.2999 -1.5858  0.5363
11758SOL    HW247154   3.209   3.911   1.817  0.3993 -1.1282  0.4383
11759SOL     OW47155   3.726   2.487   1.757 -0.3480  0.5256 -0.1570
11759SOL    HW147156   3.657   2.474   1.691  0.5569  0.9768 -1.1974
11759SOL    HW247157   3.679   2.493   1.840 -1.3900 -1.6070 -0.5747
11760SOL     OW47158   4.192   2.293  14.504  0.0168  0.1177 -0.4731
11760SOL    HW147159   4.266   2.352  14.493 -2.0943  2.6870 -0.9676
11760SOL    HW247160   4.165   2.306  14.595  0.4182 -1.0850 -0.1868
11761SOL     OW47161   1.007   3.119   1.631 -0.0464 -0.1528 -0.0659
11761SOL    HW147162   1.101   3.129   1.618  0.1368  0.1520  1.4597
11761SOL    HW247163   0.968   3.190   1.579  0.5619 -0.2732 -0.6866
11762SOL     OW47164   2.761   1.596  15.816  0.1352  0.0296 -0.2993
11762SOL    HW147165   2.680   1.580  15.768  0.1035 -0.4139 -0.0994
11762SOL    HW247166   2.810   1.658  15.762  0.3589 -0.9264 -1.1918
11763SOL     OW47167   1.036   3.907  19.041 -0.0945 -0.1366  0.3069
11763SOL    HW147168   1.088   3.919  18.961  0.6590 -0.9537  0.6761
11763SOL    HW247169   1.066   3.976  19.100  0.0865 -0.1836  0.2695
11764SOL     OW47170   0.115   2.861  16.070  0.2044  0.0840  0.1794
11764SOL    HW147171   0.147   2.771  16.078 -0.6930 -0.3064 -0.6879
11764SOL    HW247172   0.061   2.861  15.991 -3.6605  0.2378  2.8208
11765SOL     OW47173   2.569   2.513  19.016  0.1315  0.0448 -0.1949
11765SOL    HW147174   2.618   2.522  19.097 -0.3169 -3.4202  0.4658
11765SOL    HW247175   2.622   2.560  18.951  1.3507  1.3409  1.7443
11766SOL     OW47176   0.134   0.318   5.885  0.3371 -0.2032 -0.2735
11766SOL    HW147177   0.209   0.369   5.856 -0.0533  1.5121  1.7979
11766SOL    HW247178   0.172   0.247   5.936  0.6298 -0.0316 -0.2530
11767SOL     OW47179   4.408   3.361  20.027 -0.0512 -0.6211 -0.7749
11767SOL    HW147180   4.413   3.267  20.013  0.0506 -0.8108  0.5505
11767SOL    HW247181   4.498   3.392  20.019 -0.1192 -0.5992 -1.4608
11768SOL     OW47182   2.184   2.711   4.718 -0.1309 -0.1091 -0.6771
11768SOL    HW147183   2.187   2.691   4.625 -0.0679  0.3141 -0.7641
11768SOL    HW247184   2.138   2.794   4.723  1.4091  0.7252 -0.4525
11769SOL     OW47185   4.142   1.180   7.397 -0.1913 -0.6414  0.2453
11769SOL    HW147186   4.149   1.268   7.361 -0.3969 -0.3276  0.9653
11769SOL    HW247187   4.158   1.122   7.323  0.1485  0.0051 -0.1864
11770SOL     OW47188   2.599   2.596  10.211  0.3634  0.1290  0.4231
11770SOL    HW147189   2.575   2.634  10.295 -0.3833 -0.2913  0.3986
11770SOL    HW247190   2.525   2.539  10.188  1.0352 -0.5814 -0.0009
11771SOL     OW47191   2.159   3.906  16.110  0.0494 -0.2554 -0.0816
11771SOL    HW147192   2.231   3.865  16.062  1.5649  1.1965  0.9551
11771SOL    HW247193   2.159   3.861  16.194  0.4391  0.5039  0.3208
11772SOL     OW47194   1.097   1.125  11.589 -0.3717 -0.4405 -0.4822
11772SOL    HW147195   1.171   1.068  11.571 -1.1395 -1.2559 -1.0814
11772SOL    HW247196   1.045   1.123  11.509 -1.2298 -0.1527  0.0660
11773SOL     OW47197   4.223   0.099  10.636 -0.5179 -0.0567 -0.2792
11773SOL    HW147198   4.221   0.078  10.730 -0.8486 -1.3162 -0.5703
11773SOL    HW247199   4.186   0.022  10.593  0.5320  0.1132 -1.5129
11774SOL     OW47200   3.458   0.234   1.099 -1.0830 -0.1017 -0.2265
11774SOL    HW147201   3.412   0.155   1.070  0.6010 -0.5877 -1.5365
11774SOL    HW247202   3.534   0.202   1.147  0.4048  0.7304 -2.0209
11775SOL     OW47203   0.426   1.591   5.083  0.2423  0.1835 -0.1054
11775SOL    HW147204   0.436   1.682   5.055 -3.6830  0.9967  1.2418
11775SOL    HW247205   0.473   1.587   5.167  0.2552  0.9799 -0.0762
11776SOL     OW47206   2.801   0.893   5.220 -0.4354  0.2996  0.3335
11776SOL    HW147207   2.738   0.826   5.247  0.9134 -1.4065 -0.7595
11776SOL    HW247208   2.759   0.937   5.146 -0.1171 -1.1916 -0.7351
11777SOL     OW47209   4.158   4.674  17.790  0.2825 -0.4907 -0.6785
11777SOL    HW147210   4.145   4.642  17.879 -0.7541  0.1903 -0.5718
11777SOL    HW247211   4.202   4.603  17.744 -0.1311 -1.2483  0.1006
11778SOL     OW47212   2.538   2.841  17.568  0.3596  0.1734 -0.4324
11778SOL    HW147213   2.498   2.862  17.652 -1.3507  0.5966 -1.3583
11778SOL    HW247214   2.515   2.913  17.511 -0.4754 -1.2862 -1.9420
11779SOL     OW47215   0.872   2.029   1.424 -0.5235  0.2664  0.0214
11779SOL    HW147216   0.805   2.096   1.408 -0.9657  0.1623  1.4351
11779SOL    HW247217   0.859   2.004   1.515 -0.8140 -2.2433 -0.7056
11780SOL     OW47218   0.781   3.928   9.533 -0.8318 -0.3081  0.3294
11780SOL    HW147219   0.766   3.899   9.443 -0.2925 -1.5036  0.6135
11780SOL    HW247220   0.820   4.015   9.524 -0.4101 -0.5885 -0.6070
11781SOL     OW47221   1.555   2.073  17.112  0.1891 -0.3540  0.6644
11781SOL    HW147222   1.463   2.089  17.136  0.1825 -0.3075  0.6067
11781SOL    HW247223   1.605   2.128  17.173  0.1222  0.8372 -0.3575
11782SOL     OW47224   0.252   2.555  17.307 -0.2394  0.7821  0.0758
11782SOL    HW147225   0.218   2.630  17.258 -0.0706  0.9471  0.2082
11782SOL    HW247226   0.203   2.480  17.274  0.0800  0.8474 -0.5535
11783SOL     OW47227   1.746   3.489   3.460  0.4640  0.0999 -0.1468
11783SOL    HW147228   1.729   3.540   3.539  0.2606 -0.3338  0.0883
11783SOL    HW247229   1.671   3.509   3.403  0.2809 -0.0928  0.0251
11784SOL     OW47230   2.212   0.473  19.201 -0.5890 -0.0718  0.7031
11784SOL    HW147231   2.173   0.386  19.200  0.9434 -0.7621  0.1901
11784SOL    HW247232   2.181   0.514  19.120  0.5058 -0.9529 -0.1600
11785SOL     OW47233   1.468   0.242  15.400  0.6566 -0.5755  0.6861
11785SOL    HW147234   1.426   0.314  15.447 -0.8858  0.0137 -1.5993
11785SOL    HW247235   1.540   0.284  15.353  1.2003 -0.9050  1.2252
11786SOL     OW47236   0.658   0.593  17.325 -0.2011 -0.3091 -0.0184
11786SOL    HW147237   0.611   0.562  17.248  0.6825 -2.2466  0.2163
11786SOL    HW247238   0.747   0.557  17.315  0.1190  0.0424  1.5261
11787SOL     OW47239   3.692   0.513   2.369  0.9085 -0.3108 -0.5197
11787SOL    HW147240   3.697   0.501   2.274  0.4187 -0.3889 -0.5351
11787SOL    HW247241   3.661   0.429   2.402  1.8041 -0.5195 -0.2227
11788SOL     OW47242   1.808   3.587   0.495 -0.5416 -0.0795  0.5151
11788SOL    HW147243   1.833   3.562   0.584 -0.2746  1.2648  0.8179
11788SOL    HW247244   1.861   3.664   0.476 -2.4842  1.1526  0.1434
11789SOL     OW47245   3.709   1.812   6.230  0.1132  0.0592 -0.3841
11789SOL    HW147246   3.635   1.830   6.287  0.3512 -0.0260 -0.0481
11789SOL    HW247247   3.671   1.764   6.156 -0.1272 -0.1942 -0.0970
11790SOL     OW47248   0.229   2.444  16.964  0.0529 -0.3861 -0.7222
11790SOL    HW147249   0.180   2.526  16.970  3.1302  1.4851 -0.8360
11790SOL    HW247250   0.189   2.387  17.029 -1.4008  1.6065  0.1373
11791SOL     OW47251   4.745   1.763   2.421  0.0792 -0.3494  0.2312
11791SOL    HW147252   0.004   1.840   2.377  0.9896 -0.2303  1.1801
11791SOL    HW247253   0.034   1.740   2.487 -1.5288 -0.2097  1.8781
11792SOL     OW47254   3.362   1.108   9.278 -0.0994  0.4778 -0.6656
11792SOL    HW147255   3.379   1.041   9.211 -0.6353  1.3998 -1.7262
11792SOL    HW247256   3.413   1.080   9.354 -1.1663 -1.7099 -0.7573
11793SOL     OW47257   0.745   0.304   8.058 -0.5284 -0.8760 -0.2324
11793SOL    HW147258   0.824   0.250   8.069 -0.2951 -0.6394 -0.7431
11793SOL    HW247259   0.687   0.277   8.130  0.1552 -0.8029  0.3464
11794SOL     OW47260   0.512   0.815   0.227 -0.1600  0.2183 -0.1165
11794SOL    HW147261   0.548   0.735   0.191 -0.3931 -0.9895  2.3291
11794SOL    HW247262   0.433   0.832   0.176 -0.5175 -1.5104 -0.1169
11795SOL     OW47263   2.035   0.610   1.455 -0.1771  0.4003 -0.5160
11795SOL    HW147264   2.108   0.549   1.461 -0.0713  0.5776 -0.0094
11795SOL    HW247265   2.077   0.696   1.445 -0.3054  0.6258  0.8690
11796SOL     OW47266   1.289   3.340  17.036  0.7437 -0.4296 -0.3845
11796SOL    HW147267   1.352   3.411  17.031  0.8306 -0.4081  0.9980
11796SOL    HW247268   1.206   3.380  17.009  0.9184  0.0197 -0.2532
11797SOL     OW47269   1.897   2.099  16.072 -0.1960 -0.0200 -0.3654
11797SOL    HW147270   1.976   2.069  16.117  0.3834  0.6896 -0.9163
11797SOL    HW247271   1.839   2.129  16.142 -1.4417 -4.0140  0.3281
11798SOL     OW47272   1.847   4.309  19.840 -0.4161 -0.1977  0.1234
11798SOL    HW147273   1.795   4.389  19.844  1.2232  0.9461 -1.2649
11798SOL    HW247274   1.867   4.298  19.747  1.4971 -0.8468  0.6166
11799SOL     OW47275   4.713   2.393  16.439 -0.2523  0.0756 -0.5485
11799SOL    HW147276   0.010   2.333  16.452 -0.3403 -0.1341 -1.0473
11799SOL    HW247277   4.651   2.345  16.384 -0.5201  0.4536 -0.5770
11800SOL     OW47278   2.522   3.305   3.839 -0.1458  0.2045  0.1590
11800SOL    HW147279   2.442   3.256   3.817  0.1860  0.0590 -0.7158
11800SOL    HW247280   2.574   3.302   3.759  0.2891  1.1765  0.4118
11801SOL     OW47281   0.298   2.044   6.205  0.2124 -0.4809  0.3626
11801SOL    HW147282   0.391   2.039   6.186 -0.1614 -0.2863 -1.5813
11801SOL    HW247283   0.291   2.099   6.283  1.5395  1.5112 -0.9207
11802SOL     OW47284   2.727   2.938   3.325  0.0005 -0.3326  0.1889
11802SOL    HW147285   2.812   2.904   3.295  0.1769 -1.0614  1.5034
11802SOL    HW247286   2.723   2.913   3.417 -1.3493  0.3088  0.2989
11803SOL     OW47287   0.463   3.627   4.742 -0.3202  0.7189 -0.3839
11803SOL    HW147288   0.481   3.718   4.764 -0.7415  0.4333  1.0975
11803SOL    HW247289   0.400   3.597   4.807  0.5170 -0.9082 -0.3117
11804SOL     OW47290   1.804   4.239  11.094 -0.1414  0.7554 -0.7648
11804SOL    HW147291   1.893   4.274  11.090  0.6092 -0.9720  0.6752
11804SOL    HW247292   1.771   4.265  11.180 -0.6902  0.6020 -0.9273
11805SOL     OW47293   0.811   1.962   4.470 -0.7740  0.5611 -0.5848
11805SOL    HW147294   0.847   1.886   4.515  0.5816  1.2668 -0.4641
11805SOL    HW247295   0.716   1.956   4.483 -0.5919 -0.6577  0.1213
11806SOL     OW47296   3.769   4.051   4.758  0.0829 -0.2685 -0.2510
11806SOL    HW147297   3.711   3.993   4.807 -0.6496  1.2507  0.6997
11806SOL    HW247298   3.846   4.062   4.814  1.4817 -2.6390 -1.7089
11807SOL     OW47299   2.912   0.067   1.474 -0.2762  0.0894  0.1935
11807SOL    HW147300   2.852   0.140   1.458 -1.8239 -1.0836  0.6710
11807SOL    HW247301   2.941   0.080   1.564 -0.1779  0.4024  0.1152
11808SOL     OW47302   1.049   4.258   2.333  0.2049 -0.1985 -0.7022
11808SOL    HW147303   1.088   4.249   2.420 -0.0734  2.9611 -0.2536
11808SOL    HW247304   0.954   4.253   2.348  0.1804 -0.3093 -0.8921
11809SOL     OW47305   2.747   2.108   2.180  0.0367 -0.2533 -0.1727
11809SOL    HW147306   2.678   2.146   2.125  2.3262  1.6417 -1.7215
11809SOL    HW247307   2.712   2.112   2.268 -2.4796 -0.6609 -1.1489
11810SOL     OW47308   4.542   0.493  20.525  0.0938 -0.3040 -0.3535
11810SOL    HW147309   4.579   0.463  20.443 -1.6721 -0.8040 -0.9593
11810SOL    HW247310   4.568   0.426  20.589 -2.1352 -2.0880 -1.3142
11811SOL     OW47311   1.012   3.103   3.316  0.0910  0.3661  0.4347
11811SOL    HW147312   1.073   3.111   3.390 -0.4042  0.5220  0.8264
11811SOL    HW247313   1.069   3.094   3.239  0.6008 -0.4707  0.9081
11812SOL     OW47314   2.925   4.619   2.756 -0.3095 -0.0111 -0.3724
11812SOL    HW147315   2.975   4.576   2.826 -0.6881 -1.9134 -1.2803
11812SOL    HW247316   2.991   4.670   2.708  0.7581 -2.4231 -1.4954
11813SOL     OW47317   2.058   4.716   3.730 -0.4026 -0.4210  0.3857
11813SOL    HW147318   2.102   4.639   3.693 -2.1870 -0.9834 -0.5694
11813SOL    HW247319   2.103   0.015   3.691  1.9334 -0.9926  2.0138
11814SOL     OW47320   2.008   1.232   8.365  0.5395  0.2278 -0.2044
11814SOL    HW147321   2.090   1.256   8.321  0.1038  0.5123 -0.8614
11814SOL    HW247322   1.967   1.168   8.306  1.4101 -1.6854  1.2517
11815SOL     OW47323   3.410   4.424   7.040  0.6678  0.5653 -0.1355
11815SOL    HW147324   3.499   4.391   7.057  0.9001  0.8357 -0.8156
11815SOL    HW247325   3.356   4.345   7.038  1.1462  0.2657 -1.2541
11816SOL     OW47326   3.556   1.549   3.070 -0.2575 -0.3358  0.1955
11816SOL    HW147327   3.639   1.573   3.110 -1.0718  0.2905  1.5238
11816SOL    HW247328   3.567   1.569   2.977 -0.4268  3.8287  1.0754
11817SOL     OW47329   1.942   2.174   2.456  0.1502 -0.7436 -0.1023
11817SOL    HW147330   1.980   2.244   2.403  1.5217 -0.6996  0.9533
11817SOL    HW247331   1.878   2.218   2.512 -0.4865 -0.6324 -0.9105
11818SOL     OW47332   1.559   0.983  10.660  0.4401  0.0546 -0.1769
11818SOL    HW147333   1.501   0.930  10.715  0.4431 -1.4958 -1.6468
11818SOL    HW247334   1.501   1.045  10.616  0.5838  2.0159  2.4189
11819SOL     OW47335   0.654   3.285  16.977 -0.3042  0.4043 -0.2653
11819SOL    HW147336   0.681   3.261  17.066 -0.0877 -0.7520 -0.6375
11819SOL    HW247337   0.613   3.370  16.987 -1.5864 -0.3658  1.1621
11820SOL     OW47338   4.622   2.792  15.875  0.5781  0.1116 -0.0541
11820SOL    HW147339   4.547   2.844  15.904 -0.2093 -1.1808  0.1866
11820SOL    HW247340   4.585   2.709  15.847  1.9044 -0.4699 -0.0750
11821SOL     OW47341   1.500   0.469  20.215  0.0373  0.4093  0.4025
11821SOL    HW147342   1.480   0.549  20.167 -0.9638  0.1866  0.4467
11821SOL    HW247343   1.595   0.467  20.220  0.1077  0.9130 -0.7644
11822SOL     OW47344   2.076   3.091   2.740  0.7103  0.1964 -0.6736
11822SOL    HW147345   2.074   3.149   2.816  1.4996 -2.7350  1.5954
11822SOL    HW247346   2.156   3.116   2.693  1.9951 -0.3319  1.2730
11823SOL     OW47347   1.033   1.241  19.032  0.5716 -0.1395  0.1272
11823SOL    HW147348   1.084   1.191  18.968 -1.3919 -1.7618 -0.1607
11823SOL    HW247349   1.067   1.212  19.117  0.6695 -0.6482 -0.0843
11824SOL     OW47350   0.050   3.540   3.308  0.3710 -0.3301  0.0828
11824SOL    HW147351   0.063   3.505   3.220 -1.0352  2.7366 -1.3506
11824SOL    HW247352   4.754   3.488   3.344  0.5899 -1.2298 -0.7837
11825SOL     OW47353   3.369   1.950  14.683 -0.0703  0.4776 -0.1182
11825SOL    HW147354   3.335   1.875  14.732 -0.1494  0.3485 -0.3713
11825SOL    HW247355   3.303   1.967  14.616  0.9384 -0.5320 -1.3721
11826SOL     OW47356   1.450   2.029   6.488 -0.4172 -0.2022  0.2231
11826SOL    HW147357   1.438   2.071   6.403  1.1691 -0.7303 -0.2500
11826SOL    HW247358   1.426   2.096   6.552  0.2552  0.7871 -0.5779
11827SOL     OW47359   2.244   3.469   9.452  0.7187 -0.0646 -0.0425
11827SOL    HW147360   2.196   3.409   9.396  3.3901 -1.1664 -1.1536
11827SOL    HW247361   2.262   3.418   9.532  2.1530 -0.4403 -0.6021
11828SOL     OW47362   3.585   0.206   8.462 -0.0138  0.0754  0.2187
11828SOL    HW147363   3.634   0.166   8.533  2.2962  0.5430 -1.0933
11828SOL    HW247364   3.590   0.142   8.391  0.3193  0.9308 -0.5403
11829SOL     OW47365   2.680   0.163  16.909  0.3120  0.0741  0.1833
11829SOL    HW147366   2.707   0.099  16.975 -0.4510  0.9000  1.3015
11829SOL    HW247367   2.604   0.124  16.868  0.9178 -0.5414 -0.3528
11830SOL     OW47368   2.901   1.405   4.480 -0.3581  0.0409  0.1318
11830SOL    HW147369   2.861   1.355   4.551  0.2506  0.2482  0.6224
11830SOL    HW247370   2.828   1.428   4.422 -0.5772 -1.6992 -0.2752
11831SOL     OW47371   4.159   3.413   1.156  0.2400 -0.1057 -0.0754
11831SOL    HW147372   4.177   3.338   1.212 -0.5553 -0.2704 -0.0503
11831SOL    HW247373   4.237   3.469   1.165  0.9756 -1.0881 -0.3684
11832SOL     OW47374   4.459   4.598  16.335 -0.1022 -0.2298 -0.2572
11832SOL    HW147375   4.491   4.508  16.329 -0.9576 -0.4994 -0.7556
11832SOL    HW247376   4.365   4.589  16.348 -0.1321  0.5886  0.0905
11833SOL     OW47377   2.861   0.756   6.926  0.3218  0.1507  0.3725
11833SOL    HW147378   2.873   0.668   6.962  1.9147  0.7635  1.3252
11833SOL    HW247379   2.945   0.777   6.886 -0.5577  0.6046 -1.2430
11834SOL     OW47380   4.533   1.096   4.010  0.5577  0.1438 -0.0484
11834SOL    HW147381   4.490   1.119   4.092  1.0048  1.7943 -0.2768
11834SOL    HW247382   4.462   1.096   3.946  0.3046 -0.5847  0.2345
11835SOL     OW47383   0.837   0.379   5.436 -0.3568  0.5696 -0.0118
11835SOL    HW147384   0.876   0.292   5.425 -1.7107  0.1594 -1.4451
11835SOL    HW247385   0.780   0.370   5.513  0.7644  0.6240  0.8291
11836SOL     OW47386   1.283   0.319  20.133  0.2301 -0.2735  0.3811
11836SOL    HW147387   1.240   0.404  20.122 -0.2574 -0.2050  2.7988
11836SOL    HW247388   1.359   0.338  20.188  0.5648 -1.2642  0.2536
11837SOL     OW47389   1.111   4.375   4.572 -0.6427  0.4326  0.2033
11837SOL    HW147390   1.058   4.298   4.591  0.0602  0.3004  1.6040
11837SOL    HW247391   1.200   4.350   4.598  0.0626  0.7317 -1.9184
11838SOL     OW47392   3.236   1.485   4.536 -0.3832 -0.6963 -0.8063
11838SOL    HW147393   3.146   1.489   4.567 -0.0537 -0.9994  0.1939
11838SOL    HW247394   3.282   1.552   4.587 -0.5203  1.0210 -2.9154
11839SOL     OW47395   2.850   2.348  14.079 -0.1568 -0.2351 -0.1378
11839SOL    HW147396   2.932   2.368  14.124 -0.3806  0.0245  0.1525
11839SOL    HW247397   2.785   2.405  14.120 -0.4055 -0.1592 -0.6351
11840SOL     OW47398   2.264   4.363  17.893 -0.1508  0.3177  0.5025
11840SOL    HW147399   2.254   4.438  17.834 -0.9659 -0.2232 -0.0557
11840SOL    HW247400   2.177   4.351  17.931 -0.4306 -1.4016 -0.6832
11841SOL     OW47401   2.515   4.178  18.352  0.1839  0.1157 -0.7482
11841SOL    HW147402   2.429   4.150  18.383 -0.0920 -0.3237 -1.8954
11841SOL    HW247403   2.503   4.271  18.332  0.8641  0.8251  2.2207
11842SOL     OW47404   1.264   3.878   1.381  0.0827 -0.4727  0.3339
11842SOL    HW147405   1.242   3.963   1.418  1.7073  0.2592 -0.3752
11842SOL    HW247406   1.181   3.842   1.351 -0.5889  0.8900  0.6027
11843SOL     OW47407   4.129   3.984  16.652  0.2400  0.1224  0.5555
11843SOL    HW147408   4.121   3.994  16.557 -0.8923  1.5727  0.8008
11843SOL    HW247409   4.151   4.072  16.683  2.3813 -0.7293  1.4386
11844SOL     OW47410   4.088   2.378   0.391 -0.0592 -0.0966  0.5274
11844SOL    HW147411   4.038   2.297   0.395  0.0985 -0.2297 -0.1594
11844SOL    HW247412   4.022   2.445   0.372  0.4633 -0.7176 -3.5835
11845SOL     OW47413   0.101   0.445   0.464  0.1138  0.0264 -0.2536
11845SOL    HW147414   0.180   0.425   0.414 -0.3907 -2.3270 -0.1387
11845SOL    HW247415   0.131   0.450   0.555  0.0444 -1.5121 -0.1332
11846SOL     OW47416   2.631   0.664   5.280  0.1640 -0.0596 -0.0456
11846SOL    HW147417   2.679   0.582   5.267 -0.7150 -0.6490  0.4115
11846SOL    HW247418   2.539   0.637   5.286 -0.3368  1.1850 -2.0664
11847SOL     OW47419   4.625   4.710  19.883 -0.1933  0.0625  0.8118
11847SOL    HW147420   4.676   0.010  19.912 -0.2756 -0.0102  1.1447
11847SOL    HW247421   4.656   4.638  19.938 -1.6718  0.3270  1.9623
11848SOL     OW47422   0.080   0.695  10.387 -0.3058 -0.4875  0.1777
11848SOL    HW147423   0.147   0.627  10.397  2.2067  2.0586  0.6090
11848SOL    HW247424   0.084   0.719  10.294 -1.5878 -1.3409 -0.0954
11849SOL     OW47425   0.281   1.863  19.131  0.2458  0.1130 -0.4668
11849SOL    HW147426   0.229   1.942  19.143 -1.3380 -1.0247  0.1786
11849SOL    HW247427   0.322   1.848  19.216  2.7218  1.7765 -1.3555
11850SOL     OW47428   1.297   2.437   4.396  0.0165 -0.4181 -0.3015
11850SOL    HW147429   1.271   2.415   4.485 -2.5866 -1.2989 -1.2801
11850SOL    HW247430   1.345   2.360   4.365 -0.3154 -0.6805 -0.1635
11851SOL     OW47431   0.166   0.530   7.831  0.0240 -0.4082 -0.1095
11851SOL    HW147432   0.244   0.501   7.785 -1.7440 -1.7668 -2.2445
11851SOL    HW247433   0.195   0.604   7.885  3.0283 -1.7129  0.0446
11852SOL     OW47434   4.741   1.286   2.814 -0.7229  0.4023  0.4665
11852SOL    HW147435   4.687   1.243   2.880 -1.2571 -0.7678 -0.7226
11852SOL    HW247436   4.711   1.249   2.731  1.4695  0.2265 -0.2562
11853SOL     OW47437   2.531   0.581   4.506  0.3677 -0.1164 -0.7221
11853SOL    HW147438   2.586   0.552   4.578  0.1851 -0.2132 -0.6217
11853SOL    HW247439   2.524   0.676   4.518  1.1485  0.0016 -1.1800
11854SOL     OW47440   2.197   3.840  17.838  0.5729  0.1924 -0.4829
11854SOL    HW147441   2.223   3.922  17.796 -0.0864 -0.0052 -1.2747
11854SOL    HW247442   2.278   3.792  17.851  0.9296  0.8494 -0.2837
11855SOL     OW47443   1.392   0.613  19.835  0.6311  0.2314  0.7666
11855SOL    HW147444   1.457   0.663  19.786  0.0518  0.3858  0.1526
11855SOL    HW247445   1.404   0.640  19.926  2.9308 -1.4059  0.9475
11856SOL     OW47446   0.550   1.126  19.707  0.1795  0.1689 -0.0143
11856SOL    HW147447   0.545   1.073  19.786 -1.9203 -0.7353 -0.7619
11856SOL    HW247448   0.540   1.216  19.737  0.9664 -0.0556  0.9261
11857SOL     OW47449   4.658   4.678   1.478 -0.1406  0.2824  0.2918
11857SOL    HW147450   4.647   4.603   1.538 -1.5809  1.1541  1.1304
11857SOL    HW247451   4.581   4.674   1.421 -0.1763  1.0817  0.2875
11858SOL     OW47452   4.310   3.921   1.995  0.5892 -0.3793  0.8896
11858SOL    HW147453   4.298   3.958   2.083  0.6186  0.1406  0.6752
11858SOL    HW247454   4.269   3.834   2.000 -1.3082  0.4945  0.8139
11859SOL     OW47455   1.738   2.133   5.915  0.2705  0.7852 -1.0891
11859SOL    HW147456   1.734   2.118   6.009 -0.2590 -1.3123 -1.4474
11859SOL    HW247457   1.697   2.219   5.902 -0.0594  0.8694  0.5309
11860SOL     OW47458   4.694   3.831   5.382  0.9269  0.1358  0.0840
11860SOL    HW147459   4.692   3.779   5.302 -0.0887 -1.9894  1.4616
11860SOL    HW247460   4.605   3.866   5.390  0.9927  0.2440  0.3528
11861SOL     OW47461   0.274   1.931   5.414 -0.2830 -0.0548 -0.5111
11861SOL    HW147462   0.363   1.957   5.391  0.2137 -0.8527  0.4772
11861SOL    HW247463   0.272   1.837   5.395 -1.2495  0.1883 -1.5799
11862SOL     OW47464   4.455   1.414   4.822  0.7250  0.2123 -0.1065
11862SOL    HW147465   4.404   1.484   4.863  2.4465  0.9916  0.7042
11862SOL    HW247466   4.516   1.385   4.890  0.6118 -1.4731 -0.7205
11863SOL     OW47467   0.776   2.462  19.331  0.0774  0.8032 -0.2397
11863SOL    HW147468   0.774   2.491  19.239 -0.0809  0.5830 -0.3080
11863SOL    HW247469   0.741   2.536  19.380 -1.7499  0.1792 -0.5659
11864SOL     OW47470   3.633   0.806   4.997  0.5173  0.0117  0.1021
11864SOL    HW147471   3.695   0.821   5.069  1.1219 -0.2833 -0.3475
11864SOL    HW247472   3.688   0.775   4.925 -0.1327 -0.0396 -0.3731
11865SOL     OW47473   1.425   2.755  18.059  0.0262  0.2361  0.3864
11865SOL    HW147474   1.371   2.834  18.069 -0.1768  0.0757  0.5880
11865SOL    HW247475   1.377   2.701  17.997  0.8483  0.8530 -0.7744
11866SOL     OW47476   0.131   2.195  16.426  0.4839  0.5289 -0.3722
11866SOL    HW147477   0.148   2.101  16.427  0.4356  0.5341  0.4799
11866SOL    HW247478   0.192   2.231  16.491 -0.9240  0.8568  0.7541
11867SOL     OW47479   1.573   1.139   1.136  0.0407  0.1295 -0.0093
11867SOL    HW147480   1.522   1.059   1.131 -0.0698  0.1470  0.9007
11867SOL    HW247481   1.660   1.114   1.105  0.0875 -0.4025  0.5612
11868SOL     OW47482   0.664   2.663  15.181 -0.0647  0.4001 -0.3616
11868SOL    HW147483   0.639   2.633  15.094 -0.1536  0.2210 -0.2755
11868SOL    HW247484   0.591   2.716  15.211 -0.8080 -1.0011  0.3202
11869SOL     OW47485   1.133   3.960  15.584 -0.1040 -0.1156 -0.0583
11869SOL    HW147486   1.118   3.879  15.633 -0.8230  0.1596  0.1837
11869SOL    HW247487   1.117   3.936  15.493  0.6359 -0.4826 -0.0850
11870SOL     OW47488   0.225   0.313   5.284  0.3482  0.0456  0.1133
11870SOL    HW147489   0.200   0.300   5.375  0.0148  0.5674  0.0990
11870SOL    HW247490   0.289   0.244   5.266  0.3495 -0.1080  0.7140
11871SOL     OW47491   3.946   3.685   3.725 -0.0012  0.1615 -0.0401
11871SOL    HW147492   3.896   3.631   3.786  0.5046  1.6742  1.7211
11871SOL    HW247493   4.008   3.732   3.781  0.2159  1.8114 -1.6862
11872SOL     OW47494   0.231   3.243  18.955 -0.2108 -0.1734 -0.3862
11872SOL    HW147495   0.204   3.198  19.035 -1.8633 -0.5568 -1.1487
11872SOL    HW247496   0.237   3.335  18.979  0.4433 -0.4439  0.4761
11873SOL     OW47497   4.267   3.720  19.024 -0.1589 -0.0249 -0.1395
11873SOL    HW147498   4.201   3.720  19.094 -0.5817  3.1978 -0.5451
11873SOL    HW247499   4.219   3.747  18.946  0.7121 -1.9262 -1.3498
11874SOL     OW47500   1.164   0.656  19.372 -0.4802  0.1943  0.4909
11874SOL    HW147501   1.183   0.728  19.312 -1.0149 -0.1105 -0.0478
11874SOL    HW247502   1.152   0.580  19.314  0.2546 -0.3560  1.0692
11875SOL     OW47503   0.220   3.285   2.907 -0.1043  0.6813  0.1496
11875SOL    HW147504   0.249   3.251   2.991  0.9697  1.6267  0.1548
11875SOL    HW247505   0.276   3.243   2.843 -0.6670  0.2576 -0.0686
11876SOL     OW47506   3.235   0.245  17.075  0.4237 -0.1548  0.2779
11876SOL    HW147507   3.308   0.278  17.022  1.2367 -0.5066  1.1817
11876SOL    HW247508   3.209   0.164  17.032  0.1663  0.2766 -0.3933
11877SOL     OW47509   1.194   2.094   2.608 -0.2466  0.7409  0.2221
11877SOL    HW147510   1.116   2.127   2.654 -1.0979  0.4560 -1.0129
11877SOL    HW247511   1.233   2.173   2.569 -1.3354  0.5466 -1.2926
11878SOL     OW47512   3.719   4.352   8.729 -1.0309 -0.2042  0.2069
11878SOL    HW147513   3.706   4.431   8.780 -1.2435 -0.8102  1.0885
11878SOL    HW247514   3.730   4.383   8.639 -1.5630  0.7902  0.4875
11879SOL     OW47515   1.384   1.456  16.715 -0.1268  0.1092  0.2688
11879SOL    HW147516   1.294   1.425  16.707 -0.1513  0.5954 -1.4030
11879SOL    HW247517   1.437   1.377  16.719 -0.4151 -0.1476 -1.2222
11880SOL     OW47518   1.598   0.158  17.177  0.1719  0.8084  0.0863
11880SOL    HW147519   1.585   0.101  17.253  0.6208 -1.2961 -1.4553
11880SOL    HW247520   1.693   0.166  17.168  0.1129  2.1509  0.5636
11881SOL     OW47521   2.185   2.347   0.175 -0.0928 -0.5766 -0.0491
11881SOL    HW147522   2.181   2.338   0.271 -0.7025  1.1793  0.0956
11881SOL    HW247523   2.111   2.404   0.154 -1.4155 -3.0010 -1.8245
11882SOL     OW47524   2.297   1.392  18.165  0.0835 -0.1246  0.0576
11882SOL    HW147525   2.230   1.326  18.149 -1.1640  0.8575  1.2164
11882SOL    HW247526   2.271   1.433  18.248  0.7162  1.9734 -0.7809
11883SOL     OW47527   0.844   2.105   3.984 -0.1015 -0.2092 -0.4875
11883SOL    HW147528   0.881   2.033   3.933  0.4382  1.1473 -2.0042
11883SOL    HW247529   0.763   2.128   3.939 -0.2615  0.1372 -0.0225
11884SOL     OW47530   3.565   2.586   2.874 -0.3623 -0.2194 -0.4532
11884SOL    HW147531   3.623   2.514   2.848 -1.0779 -0.9767  0.0674
11884SOL    HW247532   3.620   2.641   2.929  0.0099 -0.6811 -0.3623
11885SOL     OW47533   3.107   2.710   0.690 -0.1093 -0.3451  0.4589
11885SOL    HW147534   3.085   2.618   0.708 -0.7962 -0.3607 -0.4921
11885SOL    HW247535   3.130   2.746   0.776  0.2442 -1.4305  0.8214
11886SOL     OW47536   1.242   2.088  19.511 -0.3118  0.1821  0.0729
11886SOL    HW147537   1.260   2.008  19.560 -0.0793 -0.3339 -0.8616
11886SOL    HW247538   1.184   2.138  19.568 -1.2528 -1.0805  0.2142
11887SOL     OW47539   1.483   2.528  16.828  0.4019 -0.1024 -0.4854
11887SOL    HW147540   1.521   2.462  16.771 -2.6044 -1.8216 -0.5093
11887SOL    HW247541   1.422   2.480  16.884  1.2029  2.0121  2.2365
11888SOL     OW47542   3.400   4.510  18.843  0.5124 -0.6700  0.1069
11888SOL    HW147543   3.439   4.557  18.770  0.9272 -1.2999 -0.0736
11888SOL    HW247544   3.435   4.553  18.921  0.2243 -0.1278 -0.0638
11889SOL     OW47545   0.875   1.159   0.971 -0.4039 -0.5399  0.0751
11889SOL    HW147546   0.915   1.106   0.901  0.0807 -0.9742  0.6859
11889SOL    HW247547   0.940   1.227   0.988  0.7956 -2.2316  2.2384
11890SOL     OW47548   1.547   3.940   2.727 -0.1495  0.1767  0.0222
11890SOL    HW147549   1.574   3.907   2.812 -1.2591  0.9572  0.6761
11890SOL    HW247550   1.457   3.970   2.740 -0.3331  0.2607 -1.4260
11891SOL     OW47551   3.294   1.682   9.941 -0.0137 -0.1828  0.3414
11891SOL    HW147552   3.210   1.673   9.897 -0.4181  1.1892  0.8464
11891SOL    HW247553   3.359   1.661   9.873 -0.7182 -0.3978 -0.2683
11892SOL     OW47554   0.195   3.828   5.784  0.0903 -0.4522 -0.0821
11892SOL    HW147555   0.258   3.876   5.731 -0.6453 -2.2925 -2.6696
11892SOL    HW247556   0.111   3.841   5.740 -1.2214  1.3625  2.9208
11893SOL     OW47557   1.346   2.646   5.495  0.5101 -0.3515  0.2406
11893SOL    HW147558   1.415   2.708   5.472  0.2453 -0.7753 -1.7440
11893SOL    HW247559   1.265   2.693   5.475  0.2661 -0.3576  1.2449
11894SOL     OW47560   4.734   4.313  18.693 -0.0161  0.0584 -0.1069
11894SOL    HW147561   4.720   4.401  18.656 -0.5795  0.5275  1.2136
11894SOL    HW247562   4.664   4.304  18.758 -0.8458 -1.9544 -1.2854
11895SOL     OW47563   2.429   1.116  19.169  0.7828 -0.1481  0.1480
11895SOL    HW147564   2.344   1.078  19.193 -0.2289  3.4067  2.3732
11895SOL    HW247565   2.487   1.092  19.241  1.1911 -1.0907 -0.5066
11896SOL     OW47566   1.840   3.342   0.816 -0.4486  0.2285  0.1910
11896SOL    HW147567   1.884   3.426   0.801 -0.4075 -0.1402 -1.7618
11896SOL    HW247568   1.911   3.278   0.820 -0.5167  0.2206  1.1169
11897SOL     OW47569   3.494   4.726   1.424  0.1698  0.6002 -0.2118
11897SOL    HW147570   3.416   4.723   1.480 -0.6804  1.1604 -1.3746
11897SOL    HW247571   3.474   4.666   1.352  1.4230 -0.4108  0.2917
11898SOL     OW47572   4.775   1.443  19.822 -0.2672 -0.2461  0.2074
11898SOL    HW147573   0.059   1.433  19.747  1.7996 -2.4449  2.1560
11898SOL    HW247574   4.772   1.537  19.837  2.4939 -0.0946 -0.0915
11899SOL     OW47575   4.374   0.122  17.181  0.0866 -0.0983  0.0201
11899SOL    HW147576   4.453   0.172  17.162 -0.8851  1.5964  0.4515
11899SOL    HW247577   4.342   0.093  17.095  0.3961  0.4282 -0.2729
11900SOL     OW47578   0.218   4.465   2.130 -0.0803  0.0607 -0.0403
11900SOL    HW147579   0.166   4.497   2.203  0.7828  0.9214  0.1987
11900SOL    HW247580   0.162   4.478   2.053 -0.4165  0.5095  0.2786
11901SOL     OW47581   3.101   4.249   6.216 -0.2202 -0.5549 -0.0650
11901SOL    HW147582   3.124   4.168   6.171  1.0623  1.1320 -2.4297
11901SOL    HW247583   3.008   4.262   6.195 -0.9536 -2.4686  1.9612
11902SOL     OW47584   4.656   1.172  10.318  0.0232  0.9410  0.2333
11902SOL    HW147585   4.580   1.183  10.261 -0.6109 -0.1337  0.8931
11902SOL    HW247586   4.727   1.215  10.270 -0.7190  0.8635 -0.9462
11903SOL     OW47587   0.996   3.657   6.183 -0.3644  0.2134 -0.4573
11903SOL    HW147588   0.933   3.617   6.123 -0.5688  0.6333 -0.5234
11903SOL    HW247589   0.987   3.607   6.264 -1.6455  1.0567 -0.0885
11904SOL     OW47590   2.930   3.102  16.555  0.1989  0.0368  0.2048
11904SOL    HW147591   2.901   3.014  16.530 -0.6276  0.3970 -0.0830
11904SOL    HW247592   2.993   3.126  16.487  1.2661 -0.7828  0.8877
11905SOL     OW47593   1.748   3.218  10.447 -0.3961 -0.0511 -0.1825
11905SOL    HW147594   1.778   3.199  10.535 -2.8164 -0.4396  0.5652
11905SOL    HW247595   1.736   3.132  10.406  0.0633  0.1128 -0.6658
11906SOL     OW47596   4.175   3.480  18.438  0.2672  0.5487 -1.0777
11906SOL    HW147597   4.240   3.488  18.367  2.3025  3.9516  1.1518
11906SOL    HW247598   4.188   3.559  18.491 -2.0709 -1.4320  2.4204
11907SOL     OW47599   3.780   4.262   4.142 -0.1438  0.4555 -0.3037
11907SOL    HW147600   3.874   4.246   4.133 -0.0339  0.0264  1.5274
11907SOL    HW247601   3.739   4.185   4.102  0.3230 -0.7208  1.4210
11908SOL     OW47602   4.525   1.111  20.834  0.1995  0.2238  0.5702
11908SOL    HW147603   4.489   1.026  20.809  2.5585 -0.2015 -1.3794
11908SOL    HW247604   4.465   1.175  20.796 -0.0610 -0.5296 -0.2890
11909SOL     OW47605   3.291   4.006   1.343 -0.8711  0.0741 -0.3085
11909SOL    HW147606   3.385   4.024   1.340 -0.7172 -0.7144 -0.1479
11909SOL    HW247607   3.267   3.991   1.252 -0.7246 -0.3174 -0.2841
11910SOL     OW47608   0.294   3.679   3.271 -0.8711 -0.4731  0.1162
11910SOL    HW147609   0.266   3.748   3.330 -0.7683 -0.9803  0.7505
11910SOL    HW247610   0.224   3.614   3.274  0.3970 -1.7469  1.7193
11911SOL     OW47611   2.311   1.106  20.720 -0.3112  0.2872  0.5467
11911SOL    HW147612   2.390   1.107  20.666 -1.2769  1.3482 -0.8549
11911SOL    HW247613   2.343   1.099  20.809  1.2753 -1.9447 -0.2051
11912SOL     OW47614   1.249   2.509   1.551 -0.1584 -0.5885  0.1527
11912SOL    HW147615   1.320   2.544   1.605  0.1919 -0.8415 -0.1455
11912SOL    HW247616   1.291   2.442   1.497 -0.5177 -0.3328 -0.4345
11913SOL     OW47617   3.723   0.050  19.181  0.0818  0.6772 -0.0408
11913SOL    HW147618   3.701   0.109  19.108 -0.0364  0.7067  0.0194
11913SOL    HW247619   3.645   0.048  19.235 -0.2936 -0.4027 -0.6243
11914SOL     OW47620   0.483   3.347  11.416 -0.3029 -0.2359  0.3616
11914SOL    HW147621   0.525   3.265  11.392 -0.0268 -0.0697  0.2805
11914SOL    HW247622   0.522   3.412  11.358  1.7208  0.4720  2.5213
11915SOL     OW47623   4.195   1.014   7.190 -0.3324  0.2829  0.0084
11915SOL    HW147624   4.170   0.944   7.251  0.5328  1.0140  1.2250
11915SOL    HW247625   4.138   1.002   7.115  0.0128 -1.9211  0.0818
11916SOL     OW47626   4.397   3.067   2.333 -0.2907 -0.1474 -0.6296
11916SOL    HW147627   4.466   3.130   2.311 -0.5618  0.1843 -0.5410
11916SOL    HW247628   4.355   3.047   2.250 -0.3212 -0.0660 -0.6347
11917SOL     OW47629   4.651   1.094   3.019 -0.3766  0.3765  0.4530
11917SOL    HW147630   4.655   1.032   2.946  1.9101  2.1269 -0.8976
11917SOL    HW247631   4.672   1.041   3.096 -0.9691 -1.0688 -0.3735
11918SOL     OW47632   4.316   2.760   0.804 -0.3109 -0.5582 -0.1112
11918SOL    HW147633   4.233   2.766   0.852  0.0595  0.9627  0.3505
11918SOL    HW247634   4.370   2.702   0.856 -0.1180  0.6226  1.0141
11919SOL     OW47635   2.217   0.305   9.665  0.1508  0.0433  0.2163
11919SOL    HW147636   2.282   0.308   9.735 -0.0869  0.9387  0.3983
11919SOL    HW247637   2.136   0.337   9.706  0.3130  1.7583 -0.7999
11920SOL     OW47638   2.637   1.940  11.573 -0.0285 -0.2798 -0.4530
11920SOL    HW147639   2.594   1.875  11.629  1.8403 -1.6116 -0.5704
11920SOL    HW247640   2.610   1.916  11.484  0.3495 -0.6501 -0.4660
11921SOL     OW47641   0.129   3.875   2.534  0.1403 -0.3397  0.5630
11921SOL    HW147642   0.178   3.857   2.615  0.2420 -0.0374  0.5672
11921SOL    HW247643   0.090   3.791   2.511 -0.3120 -0.3003  1.2105
11922SOL     OW47644   2.787   2.517   2.648  0.0761  0.0179  0.1244
11922SOL    HW147645   2.754   2.510   2.737  1.4659 -1.6698  0.5015
11922SOL    HW247646   2.860   2.579   2.654  0.7195 -0.7680  0.2904
11923SOL     OW47647   3.014   2.113  14.078  0.4075  0.0180  0.0915
11923SOL    HW147648   3.025   2.056  14.002 -0.3872  0.4501 -0.3526
11923SOL    HW247649   2.938   2.168  14.055 -0.7888 -0.9148  1.8471
11924SOL     OW47650   0.514   0.779  16.751 -0.1621 -0.0268 -0.7550
11924SOL    HW147651   0.476   0.857  16.711  0.3706  0.0988 -1.0176
11924SOL    HW247652   0.440   0.735  16.794 -0.0383  1.8736  1.4143
11925SOL     OW47653   2.099   2.295   5.905 -0.1307 -0.4618  0.2949
11925SOL    HW147654   2.116   2.222   5.845 -1.1942 -1.1108  0.7906
11925SOL    HW247655   2.008   2.320   5.889  0.2244  0.7484  0.1329
11926SOL     OW47656   0.788   4.416  20.853  0.1625 -0.1474  0.1540
11926SOL    HW147657   0.811   4.341  20.908  0.9759  0.1829  0.2732
11926SOL    HW247658   0.718   4.384  20.796 -1.7744 -0.0280  2.4538
11927SOL     OW47659   3.434   2.061  17.479  0.2531  0.1132 -0.5447
11927SOL    HW147660   3.521   2.031  17.452  0.9647  0.0164  1.7795
11927SOL    HW247661   3.387   1.981  17.501 -0.4714  0.1565 -1.9483
11928SOL     OW47662   2.318   4.490  16.865  0.2126 -0.1801  0.0248
11928SOL    HW147663   2.267   4.561  16.902  0.0716 -1.5094  2.4282
11928SOL    HW247664   2.399   4.489  16.917  0.7630 -0.9371 -0.8396
11929SOL     OW47665   3.626   1.139  14.716  0.3983  0.2720  0.6169
11929SOL    HW147666   3.712   1.172  14.688  0.1530 -0.5641 -1.1240
11929SOL    HW247667   3.564   1.203  14.682  0.1105 -0.6716 -0.6503
11930SOL     OW47668   2.734   4.445  11.687 -0.0368 -0.0168 -0.0952
11930SOL    HW147669   2.641   4.433  11.705 -0.1717 -0.8474 -1.3675
11930SOL    HW247670   2.778   4.422  11.769 -1.1395  2.8687  1.2964
11931SOL     OW47671   1.196   1.699   6.215 -0.4606 -0.2104 -0.0954
11931SOL    HW147672   1.138   1.636   6.172  0.1787 -2.1833  1.9284
11931SOL    HW247673   1.260   1.722   6.149 -0.8800 -1.4697 -0.9358
11932SOL     OW47674   1.532   3.466  20.211 -0.0752 -0.5971 -0.1865
11932SOL    HW147675   1.518   3.380  20.172  0.9636 -1.2637  0.9279
11932SOL    HW247676   1.522   3.527  20.137 -0.6215 -1.6706 -1.0075
11933SOL     OW47677   1.239   0.179   4.905 -0.3824  0.1899  0.0618
11933SOL    HW147678   1.234   0.105   4.965  0.0171 -0.9590 -1.3262
11933SOL    HW247679   1.236   0.256   4.962 -0.9941 -0.8818  1.4890
11934SOL     OW47680   4.479   4.170   7.123 -0.1949 -0.5627  0.6595
11934SOL    HW147681   4.463   4.170   7.217 -0.3185  0.2485  0.6310
11934SOL    HW247682   4.512   4.082   7.105  0.3018 -0.5533  1.5412
11935SOL     OW47683   0.397   3.857   0.652  0.4515  0.2133 -0.6163
11935SOL    HW147684   0.380   3.873   0.745 -3.5762 -2.0700 -0.9383
11935SOL    HW247685   0.375   3.939   0.609 -0.8513  0.2334  0.0773
11936SOL     OW47686   2.716   4.691  15.800  0.3522 -0.0643 -0.3464
11936SOL    HW147687   2.695   4.775  15.839 -0.5397 -0.2508 -0.4354
11936SOL    HW247688   2.735   4.633  15.874  0.8939  0.1916 -0.2834
11937SOL     OW47689   1.202   2.538   0.499 -0.2633 -0.1339 -0.2670
11937SOL    HW147690   1.113   2.569   0.484 -0.4109 -0.0691  0.7760
11937SOL    HW247691   1.249   2.560   0.418 -0.7619  1.3893 -0.1454
11938SOL     OW47692   0.886   0.100   8.398 -0.2007  0.5855  0.2326
11938SOL    HW147693   0.873   0.187   8.361 -1.2294  0.3565  0.0671
11938SOL    HW247694   0.937   0.115   8.478 -0.5404  1.3521  0.3023
11939SOL     OW47695   0.021   3.022  14.812 -0.1614 -0.2080 -0.1783
11939SOL    HW147696   4.706   3.009  14.786  0.1963  0.4138 -1.7217
11939SOL    HW247697   0.032   3.117  14.817  0.4458 -0.2763 -0.1470
11940SOL     OW47698   3.170   2.576  15.651  0.0030 -0.4182  0.3136
11940SOL    HW147699   3.145   2.610  15.565  2.0621  0.0941 -0.0735
11940SOL    HW247700   3.134   2.487  15.653  2.3340 -1.4164 -2.1449
11941SOL     OW47701   3.635   2.946  16.932 -0.6914 -0.6455  0.3376
11941SOL    HW147702   3.703   2.944  16.999 -0.7397 -1.3020  0.3758
11941SOL    HW247703   3.590   2.861  16.941 -0.1016 -1.1260 -1.1184
11942SOL     OW47704   3.182   0.335  18.593 -0.4454 -0.3261  0.1107
11942SOL    HW147705   3.261   0.295  18.557 -0.0997  0.1573  0.3302
11942SOL    HW247706   3.138   0.264  18.640  0.7678 -0.1413  1.4870
11943SOL     OW47707   2.989   4.623   2.280 -0.2915 -0.0104 -0.6539
11943SOL    HW147708   3.069   4.581   2.311 -0.3471  0.1812 -0.2554
11943SOL    HW247709   2.927   4.552   2.268 -0.4668 -0.0102  0.2687
11944SOL     OW47710   2.220   1.087  13.663 -0.1500  0.7225  0.0481
11944SOL    HW147711   2.163   1.126  13.728 -0.2424 -0.0388  0.4287
11944SOL    HW247712   2.188   1.120  13.579 -0.0245  1.7027  0.3944
11945SOL     OW47713   2.129   0.908   5.195  0.2697 -0.2273 -0.3890
11945SOL    HW147714   2.116   0.990   5.146  0.8062 -0.5407 -1.0494
11945SOL    HW247715   2.155   0.937   5.282 -0.3287  0.3266 -0.3879
11946SOL     OW47716   1.707   3.477   1.125  0.5630 -0.3245 -0.3357
11946SOL    HW147717   1.701   3.403   1.186  0.1619 -1.0077 -1.2116
11946SOL    HW247718   1.801   3.491   1.114  0.6496  2.2803  3.4580
11947SOL     OW47719   2.368   1.611   1.834  0.3021  0.0595  0.2420
11947SOL    HW147720   2.305   1.545   1.867 -0.2849 -0.3643 -1.7543
11947SOL    HW247721   2.410   1.644   1.913 -1.0283 -1.0920  1.4488
11948SOL     OW47722   3.197   4.368   1.705  0.0421 -0.6049 -0.2440
11948SOL    HW147723   3.211   4.293   1.647  0.5455 -0.7991  0.1244
11948SOL    HW247724   3.283   4.409   1.711 -0.1298 -0.2743 -0.0591
11949SOL     OW47725   2.907   0.952  13.190 -0.3839 -0.4176  0.0010
11949SOL    HW147726   2.928   1.036  13.231  0.8389 -1.1404  0.8505
11949SOL    HW247727   2.820   0.965  13.152  0.2904  1.6110 -0.8840
11950SOL     OW47728   4.463   1.873  19.168 -0.2396  0.2780 -0.5248
11950SOL    HW147729   4.436   1.862  19.077 -0.2561  0.6532 -0.5675
11950SOL    HW247730   4.509   1.792  19.190  0.5165  0.5454 -1.1349
11951SOL     OW47731   3.414   2.192  19.720  0.4027  0.4798 -0.0597
11951SOL    HW147732   3.453   2.242  19.647  2.0472  4.5102  3.6014
11951SOL    HW247733   3.321   2.214  19.717  0.6755  1.5991 -0.1313
11952SOL     OW47734   2.470   1.119  15.597 -0.2166 -0.4270  0.2479
11952SOL    HW147735   2.523   1.199  15.588 -0.0163 -0.5053  0.7232
11952SOL    HW247736   2.388   1.140  15.553  0.8784 -0.9056 -2.0226
11953SOL     OW47737   2.362   0.260  20.455  0.0739 -0.1660  0.5606
11953SOL    HW147738   2.302   0.265  20.380  1.3199  0.2808 -0.4097
11953SOL    HW247739   2.306   0.275  20.531 -0.9538  0.8678 -0.3856
11954SOL     OW47740   4.500   1.379   2.504 -0.2940  0.5425 -0.5766
11954SOL    HW147741   4.434   1.424   2.451  1.0054  2.2304 -0.7605
11954SOL    HW247742   4.467   1.290   2.513 -2.0095  1.0706 -1.6876
11955SOL     OW47743   3.401   2.577   5.356 -0.1771  0.7499 -0.1122
11955SOL    HW147744   3.448   2.505   5.313  0.6673  2.6756 -2.3659
11955SOL    HW247745   3.466   2.618   5.413  0.4775  2.4590 -2.0896
11956SOL     OW47746   2.074   2.962  17.833 -0.1412 -0.3346 -0.1681
11956SOL    HW147747   2.066   3.057  17.823  3.2466 -0.2311 -1.6435
11956SOL    HW247748   2.097   2.950  17.925 -1.3211  0.2040  0.2136
11957SOL     OW47749   3.317   3.655   9.181  0.3386  0.3860  0.4222
11957SOL    HW147750   3.405   3.622   9.170  0.8780  2.5820 -1.8533
11957SOL    HW247751   3.260   3.586   9.146  1.2867  0.2732 -0.9031
11958SOL     OW47752   1.395   4.577   5.615  0.3321  0.2399 -0.2476
11958SOL    HW147753   1.313   4.528   5.621  0.2646  0.3305 -0.4456
11958SOL    HW247754   1.378   4.646   5.551  1.1935 -0.9379 -1.7190
11959SOL     OW47755   2.399   1.626  15.463 -0.0254 -0.1952 -0.2177
11959SOL    HW147756   2.485   1.668  15.470 -0.5458  0.7080  0.7035
11959SOL    HW247757   2.339   1.698  15.442 -0.9575 -0.4667  1.5764
11960SOL     OW47758   1.802   2.597   2.132  0.0056  0.0043  0.7774
11960SOL    HW147759   1.853   2.678   2.129  0.1535 -0.1135 -0.0766
11960SOL    HW247760   1.837   2.544   2.060 -3.3674  1.1638 -1.7480
11961SOL     OW47761   0.735   1.111  19.160 -1.2620 -0.4905  0.2592
11961SOL    HW147762   0.672   1.041  19.174 -0.9429 -0.6327  0.9714
11961SOL    HW247763   0.786   1.082  19.084 -0.0004 -1.8301  1.6281
11962SOL     OW47764   1.491   2.281   0.287 -0.2588  0.5304  0.1410
11962SOL    HW147765   1.587   2.281   0.297 -0.3152 -1.0311  0.7173
11962SOL    HW247766   1.468   2.373   0.279  1.4033  0.8487 -0.9588
11963SOL     OW47767   0.078   3.646  15.661  0.3580  0.7269 -0.1795
11963SOL    HW147768   0.039   3.723  15.703  1.8109  1.8311 -0.8375
11963SOL    HW247769   0.048   3.572  15.712 -0.4045  1.8233  0.9408
11964SOL     OW47770   4.374   2.443  16.316 -0.3424 -0.4345 -0.4223
11964SOL    HW147771   4.297   2.412  16.268  0.3479 -0.0721 -1.7733
11964SOL    HW247772   4.417   2.503  16.255  0.0087  0.7801  1.0293
11965SOL     OW47773   1.291   2.008  14.718  0.2899 -0.1990 -0.1627
11965SOL    HW147774   1.213   2.047  14.680 -0.7771 -1.6331  0.5540
11965SOL    HW247775   1.285   1.915  14.697  1.6293 -0.3766  0.1809
11966SOL     OW47776   2.295   4.174  11.161 -1.0509 -0.2177  0.3909
11966SOL    HW147777   2.370   4.190  11.104 -0.6288  1.5192  1.4341
11966SOL    HW247778   2.327   4.116  11.229 -0.7940  0.0647  0.5107
11967SOL     OW47779   4.502   3.944   1.798  0.4132 -0.2252 -0.2663
11967SOL    HW147780   4.434   3.918   1.861  0.8325  1.5306  0.9250
11967SOL    HW247781   4.577   3.966   1.853  0.7372  1.4615 -1.4034
11968SOL     OW47782   3.765   2.313   4.002  0.0723  0.3371  0.1853
11968SOL    HW147783   3.781   2.256   4.078 -0.4937  0.9460  0.7605
11968SOL    HW247784   3.712   2.260   3.942  1.8113 -0.6751 -0.4459
11969SOL     OW47785   0.999   1.674   9.174  0.2579  0.3476 -0.1626
11969SOL    HW147786   1.056   1.634   9.239 -2.2216  1.2854  2.5986
11969SOL    HW247787   0.923   1.616   9.170  0.2338  0.4925 -1.9531
11970SOL     OW47788   2.898   3.791   3.706 -0.5356 -0.3909  0.5138
11970SOL    HW147789   2.846   3.842   3.644 -1.1168 -3.3680 -1.4610
11970SOL    HW247790   2.988   3.816   3.688 -0.7225 -1.0355 -1.3742
11971SOL     OW47791   4.722   1.115  14.981 -0.3492  0.0012  0.2773
11971SOL    HW147792   4.756   1.203  14.971  0.1989 -0.0426  1.8508
11971SOL    HW247793   0.022   1.058  14.970 -0.4828 -0.2321  0.5754
11972SOL     OW47794   1.309   2.495  17.891 -0.0997  0.4378  0.0267
11972SOL    HW147795   1.399   2.486  17.860 -0.1284  0.5013 -0.0756
11972SOL    HW247796   1.255   2.479  17.813 -0.1948 -0.2866  0.2329
11973SOL     OW47797   4.772   2.802  17.447  0.0897 -0.4039 -0.3927
11973SOL    HW147798   0.059   2.861  17.405  0.1346  1.4583  2.3019
11973SOL    HW247799   0.050   2.746  17.503 -0.5747  0.6043  1.2392
11974SOL     OW47800   0.049   1.099   1.364 -0.5609  0.3278 -0.4150
11974SOL    HW147801   0.087   1.151   1.434 -0.6907  2.6784 -2.0828
11974SOL    HW247802   0.038   1.012   1.401  2.0453  0.8657  1.5472
11975SOL     OW47803   0.458   2.770   5.500 -0.3843  0.0375 -0.4381
11975SOL    HW147804   0.477   2.855   5.541  0.2562  0.4588 -1.6116
11975SOL    HW247805   0.462   2.707   5.572  0.3379  0.8462  0.2247
11976SOL     OW47806   0.259   4.107  20.691 -0.4322 -0.4477  0.4356
11976SOL    HW147807   0.265   4.190  20.643  0.1729  0.0518  1.3711
11976SOL    HW247808   0.166   4.097  20.711 -0.3721  0.4440  1.1164
11977SOL     OW47809   1.453   1.463  13.805 -0.0334  0.2903 -0.2495
11977SOL    HW147810   1.400   1.540  13.781 -0.6173 -0.4186 -1.2378
11977SOL    HW247811   1.540   1.483  13.771 -0.5350 -0.1180 -1.7628
11978SOL     OW47812   3.580   0.373   9.088  0.3544 -0.1080  0.6390
11978SOL    HW147813   3.622   0.451   9.052  2.1815 -0.9114  1.0871
11978SOL    HW247814   3.592   0.381   9.183  0.3077 -0.8131  0.7014
11979SOL     OW47815   4.115   4.400   5.618  0.1102  0.0555  0.3892
11979SOL    HW147816   4.065   4.450   5.683 -0.0492  0.6164 -0.1702
11979SOL    HW247817   4.150   4.466   5.559  0.4330 -0.4460  0.0269
11980SOL     OW47818   2.933   1.131   5.709 -0.5709  0.9335  0.4612
11980SOL    HW147819   2.859   1.168   5.661 -0.4481 -1.6359 -1.7553
11980SOL    HW247820   2.893   1.070   5.772 -0.6557  3.3221  2.6939
11981SOL     OW47821   2.020   1.817   6.837 -0.5256  0.1698  0.0221
11981SOL    HW147822   1.983   1.730   6.855  0.8693 -0.7980 -1.7866
11981SOL    HW247823   2.112   1.800   6.820 -0.3975  1.9377 -0.9937
11982SOL     OW47824   2.509   3.163  15.620 -0.0222  0.1389 -0.0599
11982SOL    HW147825   2.432   3.114  15.651 -0.9792  0.0670 -2.5891
11982SOL    HW247826   2.583   3.104  15.637 -0.6912 -0.4470  0.8727
11983SOL     OW47827   2.325   0.478   1.990 -0.4527 -0.3223  0.4642
11983SOL    HW147828   2.294   0.472   1.900 -0.8433 -0.0741  0.5816
11983SOL    HW247829   2.301   0.566   2.018 -0.7611 -0.5641  0.9679
11984SOL     OW47830   0.855   2.158  20.246  0.3126  0.3362 -0.0028
11984SOL    HW147831   0.919   2.135  20.314  2.6760  0.7618 -2.0635
11984SOL    HW247832   0.783   2.097  20.259  1.6764 -0.9328  1.6031
11985SOL     OW47833   0.147   3.623  12.077 -0.0087  0.5227  0.3472
11985SOL    HW147834   0.186   3.710  12.086 -0.9889  1.1253 -1.1803
11985SOL    HW247835   0.220   3.563  12.089  0.4998  1.5307  2.3929
11986SOL     OW47836   2.588   4.232  17.531  0.0030  0.2632  0.0100
11986SOL    HW147837   2.581   4.181  17.450  2.5793 -1.8013  1.0802
11986SOL    HW247838   2.671   4.279  17.523 -0.0729  0.5861  1.1625
11987SOL     OW47839   2.106   2.595   8.109  0.0512 -0.3623  0.3256
11987SOL    HW147840   2.067   2.638   8.033  3.2338  2.1085  0.0933
11987SOL    HW247841   2.148   2.666   8.157  2.3259 -2.7229  1.7857
11988SOL     OW47842   0.474   4.072   3.142  0.2643 -0.4602  0.6502
11988SOL    HW147843   0.408   4.057   3.074 -0.0735 -1.4031  1.1821
11988SOL    HW247844   0.550   4.021   3.113  0.1621 -0.7646  0.9131
11989SOL     OW47845   2.300   4.218  16.860 -0.2288 -0.4898 -0.0661
11989SOL    HW147846   2.264   4.299  16.895 -1.0153  0.3159 -2.8003
11989SOL    HW247847   2.394   4.233  16.857 -0.4257  0.4839 -1.0740
11990SOL     OW47848   3.098   3.720  20.628  0.1319 -0.7778  0.3793
11990SOL    HW147849   3.172   3.664  20.653 -0.2373 -2.2519 -1.8389
11990SOL    HW247850   3.036   3.661  20.588  0.0967  1.3861 -2.7224
11991SOL     OW47851   1.743   3.499   1.423  0.5254  0.1847 -0.0741
11991SOL    HW147852   1.811   3.558   1.456  0.0739  0.8661 -0.3473
11991SOL    HW247853   1.740   3.428   1.486  0.5411  0.8479  0.6815
11992SOL     OW47854   2.258   3.014   1.058  0.6025 -0.7864  0.1666
11992SOL    HW147855   2.202   3.069   1.003  0.0023 -0.0068  1.5798
11992SOL    HW247856   2.234   2.924   1.033 -0.5830 -0.4421  0.0859
11993SOL     OW47857   2.873   4.250   4.566 -0.1380  0.1520 -0.7758
11993SOL    HW147858   2.827   4.168   4.581  0.6658 -0.1346  0.1262
11993SOL    HW247859   2.808   4.308   4.527 -0.9867 -0.5665 -0.4048
11994SOL     OW47860   2.475   4.362   0.628  0.2225 -0.2758 -0.1990
11994SOL    HW147861   2.434   4.326   0.706  0.0778  1.3527  0.4761
11994SOL    HW247862   2.418   4.335   0.556 -2.0759  2.0252  0.7376
11995SOL     OW47863   2.670   0.965  13.037 -0.0182  0.1812 -0.1422
11995SOL    HW147864   2.635   1.033  12.979 -0.0190 -0.7689 -1.2769
11995SOL    HW247865   2.721   0.908  12.979  0.5634 -0.3827  0.9196
11996SOL     OW47866   1.440   3.778  19.595  0.5073  1.0505 -0.4049
11996SOL    HW147867   1.475   3.696  19.562 -1.2484  0.2615 -0.3009
11996SOL    HW247868   1.398   3.819  19.519  0.1814  1.2089 -0.1412
11997SOL     OW47869   2.122   3.665   4.951  0.1167 -0.1249  0.1621
11997SOL    HW147870   2.093   3.574   4.949 -0.5685  0.0866  0.5538
11997SOL    HW247871   2.133   3.684   5.044  0.4526  0.1308  0.0681
11998SOL     OW47872   3.475   1.770   4.316 -0.6737 -0.1035  0.2508
11998SOL    HW147873   3.421   1.764   4.237 -1.2381  1.1842  0.5372
11998SOL    HW247874   3.489   1.679   4.343 -1.7090 -0.4769 -0.4906
11999SOL     OW47875   1.941   4.727   2.924  0.2887  0.2267 -0.0686
11999SOL    HW147876   1.936   0.014   2.996  0.6989  0.2058 -0.0229
11999SOL    HW247877   1.950   4.642   2.968  1.2601  0.2826 -0.1575
12000SOL     OW47878   4.019   3.576   2.457 -0.6174 -0.1937 -0.1039
12000SOL    HW147879   4.088   3.591   2.521  0.5365 -1.2284 -1.1130
12000SOL    HW247880   3.976   3.495   2.487 -2.2622  1.1923  1.2912
12001SOL     OW47881   2.668   0.879   6.765 -0.1076  0.3044 -0.4112
12001SOL    HW147882   2.720   0.887   6.685  0.4580 -0.8916 -0.1560
12001SOL    HW247883   2.721   0.825   6.823 -1.3027 -0.2812  0.1290
12002SOL     OW47884   1.783   1.249  15.059 -0.2833 -0.3767 -0.0730
12002SOL    HW147885   1.713   1.278  15.117  0.3426 -2.2867  1.6352
12002SOL    HW247886   1.798   1.158  15.083  1.1662 -0.6594 -2.0516
12003SOL     OW47887   0.428   4.391  20.010 -0.6844 -0.7466 -0.6082
12003SOL    HW147888   0.500   4.345  20.052 -1.0403 -1.6209 -0.9378
12003SOL    HW247889   0.436   4.367  19.917 -0.0329  0.9848 -0.9867
12004SOL     OW47890   2.205   1.184  16.433  0.4564 -0.1470  0.0566
12004SOL    HW147891   2.140   1.116  16.452 -0.5604  1.3356  1.8623
12004SOL    HW247892   2.167   1.264  16.467  2.0149  1.2042 -1.3830
12005SOL     OW47893   2.312   2.784  15.282  0.9616 -0.3459 -0.0411
12005SOL    HW147894   2.368   2.811  15.209 -1.4707  1.0650 -1.3712
12005SOL    HW247895   2.284   2.866  15.322  0.5738 -1.0800  1.1789
12006SOL     OW47896   3.610   4.635  16.352  0.1259  0.3824  0.1618
12006SOL    HW147897   3.538   4.576  16.332 -0.4018  0.5566  1.5508
12006SOL    HW247898   3.626   4.623  16.446  0.3024  2.1132  0.3563
12007SOL     OW47899   4.408   4.651  16.641  0.1165  0.4135  0.5923
12007SOL    HW147900   4.447   4.563  16.636  0.2329  0.3966  1.9473
12007SOL    HW247901   4.477   4.706  16.677  0.6322  1.4241 -1.8838
12008SOL     OW47902   3.668   2.717  17.882 -0.1383 -0.1102 -0.1584
12008SOL    HW147903   3.624   2.632  17.879  0.6534 -0.5069 -0.5219
12008SOL    HW247904   3.648   2.752  17.969 -0.8298 -0.4744 -0.1745
12009SOL     OW47905   3.598   1.430  16.911  0.6349  0.3375 -0.2774
12009SOL    HW147906   3.633   1.506  16.956  1.3700  0.4195 -0.9848
12009SOL    HW247907   3.573   1.463  16.824 -1.8866  0.4504  0.4814
12010SOL     OW47908   3.658   3.693  19.141  0.2022 -0.1566  0.0300
12010SOL    HW147909   3.720   3.662  19.075 -1.3309  1.9870 -2.4148
12010SOL    HW247910   3.705   3.762  19.187  0.1884  0.4031 -0.7973
12011SOL     OW47911   3.646   2.135  14.285 -0.0312  0.2349 -0.4640
12011SOL    HW147912   3.737   2.110  14.299  0.0919 -0.7528 -3.0650
12011SOL    HW247913   3.609   2.143  14.373  1.8396 -2.0437  0.5061
12012SOL     OW47914   3.157   0.810   5.734 -0.3233 -0.0416 -0.2412
12012SOL    HW147915   3.097   0.769   5.672 -0.8693 -1.2807  1.1042
12012SOL    HW247916   3.223   0.853   5.679 -1.0017 -0.8429 -1.6792
12013SOL     OW47917   1.928   2.736   5.056 -0.2888 -0.2776 -0.1789
12013SOL    HW147918   1.848   2.705   5.013 -1.5829 -1.0226  2.6900
12013SOL    HW247919   1.981   2.657   5.067 -0.2265 -0.1947  0.1212
12014SOL     OW47920   0.023   2.416   3.801 -0.3400  0.3200  0.2392
12014SOL    HW147921   0.089   2.479   3.830 -0.1460  1.1619 -2.0067
12014SOL    HW247922   4.724   2.470   3.776 -0.6005 -0.4050 -0.5605
12015SOL     OW47923   2.096   1.985   4.935 -0.3067  0.3419  0.0838
12015SOL    HW147924   2.027   2.048   4.914  0.1951  0.6476 -0.6415
12015SOL    HW247925   2.177   2.036   4.932 -0.0665  0.0260  1.1281
12016SOL     OW47926   2.581   3.757  20.855 -0.3419 -0.2581  0.3758
12016SOL    HW147927   2.639   3.698  20.807 -0.5644  1.4375 -1.9769
12016SOL    HW247928   2.639   3.802  20.917  0.2632 -1.0455  0.3817
12017SOL     OW47929   1.427   4.652   6.037 -0.1850 -0.1139 -0.2707
12017SOL    HW147930   1.416   4.713   6.109 -1.4949 -1.6396  0.8386
12017SOL    HW247931   1.337   4.629   6.011  0.2883 -2.7639  0.3637
12018SOL     OW47932   4.302   4.146  16.424 -0.4207  0.4857 -0.1145
12018SOL    HW147933   4.378   4.122  16.477  0.5556  1.6297 -0.9939
12018SOL    HW247934   4.255   4.064  16.410  1.4617 -0.4549 -0.8373
12019SOL     OW47935   0.301   0.012  16.885  0.0710  0.1018  0.1680
12019SOL    HW147936   0.282   0.106  16.894  0.0945  0.1492 -0.2526
12019SOL    HW247937   0.397   0.007  16.882  0.0405  0.1930 -1.1173
12020SOL     OW47938   4.431   1.615  16.278 -0.2540  0.1398 -0.4074
12020SOL    HW147939   4.336   1.605  16.265 -0.0610 -2.4583  0.3729
12020SOL    HW247940   4.467   1.612  16.189 -0.6611 -1.1067 -0.5306
12021SOL     OW47941   0.250   2.846  16.893 -0.7498 -0.0860 -0.4621
12021SOL    HW147942   0.320   2.852  16.828  0.5585  1.7172  1.0750
12021SOL    HW247943   0.174   2.885  16.851  0.3583  1.9716 -0.5764
12022SOL     OW47944   3.622   1.689  16.261  0.2008  0.1299 -0.5075
12022SOL    HW147945   3.606   1.685  16.166  1.1293  0.3113 -0.6654
12022SOL    HW247946   3.534   1.685  16.299 -0.2179  0.6920 -1.3961
12023SOL     OW47947   0.859   0.178   5.726 -0.3053  0.1304 -0.0337
12023SOL    HW147948   0.845   0.133   5.643  1.6984 -1.9806  0.7782
12023SOL    HW247949   0.782   0.235   5.735 -1.3437 -0.8563 -2.5231
12024SOL     OW47950   0.930   4.252  19.884 -0.7141 -0.2859  0.3606
12024SOL    HW147951   0.920   4.269  19.977 -0.9787  0.1792  0.2412
12024SOL    HW247952   0.877   4.174  19.868  0.6952 -1.3834  0.9453
12025SOL     OW47953   1.017   0.283  18.553 -0.0806  0.3291 -0.0209
12025SOL    HW147954   1.090   0.324  18.506  0.3822  0.5315  0.8823
12025SOL    HW247955   1.008   0.197  18.511  3.2090 -1.2387  2.4382
12026SOL     OW47956   0.305   3.239  20.479 -0.1412 -0.0161  0.5188
12026SOL    HW147957   0.343   3.297  20.413 -1.1632 -1.2287 -1.1313
12026SOL    HW247958   0.210   3.249  20.468 -0.3185 -2.7005 -0.3994
12027SOL     OW47959   4.405   0.270   0.323  0.8093 -0.4008 -0.3121
12027SOL    HW147960   4.352   0.296   0.248 -0.1315 -1.7102 -0.1061
12027SOL    HW247961   4.492   0.303   0.304  0.2499  0.4893 -1.3298
12028SOL     OW47962   1.692   2.380  12.375  0.2785 -0.0567 -0.6247
12028SOL    HW147963   1.671   2.467  12.341  0.9324  0.1560 -0.4867
12028SOL    HW247964   1.704   2.393  12.469 -0.6165 -0.4767 -0.4548
12029SOL     OW47965   3.850   2.408   0.662  0.0439 -0.6616 -0.0872
12029SOL    HW147966   3.829   2.494   0.698  0.1611 -1.0524  0.9262
12029SOL    HW247967   3.833   2.416   0.568 -3.1508 -0.4878  0.4785
12030SOL     OW47968   2.251   0.546  13.237  0.4686 -0.5011  0.7544
12030SOL    HW147969   2.240   0.641  13.242  0.7652 -0.5050  1.4710
12030SOL    HW247970   2.346   0.532  13.244  0.5357 -0.7672 -0.6349
12031SOL     OW47971   2.186   4.521   3.605  0.6366  0.0498 -0.0171
12031SOL    HW147972   2.279   4.498   3.609  0.9374  1.2205 -0.2786
12031SOL    HW247973   2.170   4.541   3.513  0.6576  2.0561  0.4054
12032SOL     OW47974   4.361   2.427   2.092  0.2771  0.3850  0.1658
12032SOL    HW147975   4.351   2.427   1.997 -0.2864 -1.1125  0.2182
12032SOL    HW247976   4.332   2.339   2.119 -0.0516  0.9805  1.7603
12033SOL     OW47977   1.417   2.181   3.162  0.1376 -0.0540 -0.2124
12033SOL    HW147978   1.380   2.259   3.120  1.3237  0.5077 -0.2331
12033SOL    HW247979   1.512   2.193   3.154  0.3167 -1.5478 -0.2961
12034SOL     OW47980   4.348   0.977   0.992  0.2618 -0.0432  0.2189
12034SOL    HW147981   4.398   1.039   0.939  1.4657 -0.3127  1.0444
12034SOL    HW247982   4.385   0.891   0.969  0.5306 -0.1941  1.2163
12035SOL     OW47983   4.623   0.983  21.069  0.2744  0.1158  0.5949
12035SOL    HW147984   4.596   1.012  20.981 -0.0597  1.2303  1.0580
12035SOL    HW247985   4.716   0.964  21.060  0.2011  0.0392 -0.0515
12036SOL     OW47986   4.507   4.449   2.985  0.0133 -0.0403 -0.0051
12036SOL    HW147987   4.442   4.439   3.054 -2.8582 -0.3060 -2.7305
12036SOL    HW247988   4.568   4.376   2.998 -1.2731 -0.8492  1.4157
12037SOL     OW47989   4.367   3.054   2.999  0.6563 -0.7510  0.2175
12037SOL    HW147990   4.430   3.024   2.933  0.1821  0.6460 -0.8741
12037SOL    HW247991   4.282   3.044   2.957  0.4078  0.8446  0.3574
12038SOL     OW47992   3.347   3.019  20.729  0.1841 -0.5132 -0.3158
12038SOL    HW147993   3.294   3.051  20.801 -1.6957  0.8590 -2.2909
12038SOL    HW247994   3.378   2.933  20.758 -0.9901 -0.1877  1.8973
12039SOL     OW47995   1.078   0.960  19.879  0.6187  0.3067 -0.1054
12039SOL    HW147996   1.073   0.933  19.787 -1.8333 -1.6050  0.5950
12039SOL    HW247997   1.040   1.048  19.880 -0.3930 -0.1156 -0.7416
12040SOL     OW47998   2.644   1.198  12.170 -0.0508 -0.2239 -0.0359
12040SOL    HW147999   2.577   1.265  12.156  0.3723  0.2528  0.2042
12040SOL    HW248000   2.710   1.214  12.102  1.4569  1.3986  1.7991
12041SOL     OW48001   2.276   0.268  16.703 -0.0131 -0.6438  0.2640
12041SOL    HW148002   2.223   0.277  16.624 -1.9563 -0.1136  1.6184
12041SOL    HW248003   2.298   0.358  16.727  0.1907 -0.7765  0.5742
12042SOL     OW48004   2.325   2.330   4.741  0.1883 -0.1852  0.7751
12042SOL    HW148005   2.296   2.307   4.653 -1.3429 -0.8008  1.4461
12042SOL    HW248006   2.391   2.398   4.727 -1.1679  0.8257 -0.7599
12043SOL     OW48007   1.624   4.367  10.866  0.0630 -0.0090 -0.3348
12043SOL    HW148008   1.706   4.383  10.820  0.7787 -1.3413  0.4747
12043SOL    HW248009   1.650   4.318  10.944 -1.0845  2.8342  1.7952
12044SOL     OW48010   3.998   3.622   2.847  1.0625 -0.3662 -0.8689
12044SOL    HW148011   4.064   3.561   2.814  0.7442 -1.8391  1.2584
12044SOL    HW248012   4.048   3.685   2.899  0.8098 -1.3441  0.5470
12045SOL     OW48013   1.355   1.472  19.869  0.0565 -0.7727 -0.0336
12045SOL    HW148014   1.428   1.521  19.831  1.0215 -2.8987 -0.8626
12045SOL    HW248015   1.340   1.514  19.955  0.6229  1.2394 -0.9138
12046SOL     OW48016   2.270   1.486  18.420  0.0259  0.0430  0.1077
12046SOL    HW148017   2.204   1.515  18.483 -0.1164  0.2273 -0.1230
12046SOL    HW248018   2.347   1.467  18.473 -0.9971 -2.5772  0.6434
12047SOL     OW48019   1.071   0.904  19.191 -0.1095  0.3256 -0.4546
12047SOL    HW148020   1.039   0.954  19.116 -2.0765 -0.3766 -0.0807
12047SOL    HW248021   1.072   0.813  19.160 -0.7278  0.0623  0.3000
12048SOL     OW48022   1.258   0.767   4.115  0.1591  0.2783 -0.0152
12048SOL    HW148023   1.185   0.825   4.094 -0.8021 -0.5563  1.0700
12048SOL    HW248024   1.325   0.825   4.151 -0.2696  0.9257 -0.2640
12049SOL     OW48025   3.167   4.224  20.023  0.2088 -0.0855 -0.6757
12049SOL    HW148026   3.149   4.169  20.099  0.1939 -0.3770 -0.8881
12049SOL    HW248027   3.258   4.205  20.001  0.6041  0.9793  0.0673
12050SOL     OW48028   2.147   3.472   2.879 -0.0842  0.1645 -0.3714
12050SOL    HW148029   2.182   3.481   2.791 -1.0737  0.9234 -0.6905
12050SOL    HW248030   2.223   3.483   2.936  0.3757  0.7731 -1.0974
12051SOL     OW48031   4.665   2.579   2.655 -0.4998  0.1782  0.0341
12051SOL    HW148032   4.645   2.503   2.709 -0.1038 -0.0678 -0.1636
12051SOL    HW248033   4.672   2.544   2.566  0.0259  0.3859 -0.0060
12052SOL     OW48034   0.662   4.648  20.889  0.6643  0.5398 -0.1143
12052SOL    HW148035   0.741   4.595  20.894  0.2339  0.0197  1.0436
12052SOL    HW248036   0.640   4.649  20.796  2.0591  0.7305 -0.4416
12053SOL     OW48037   0.163   0.345   1.763  0.8195 -0.2231 -0.2751
12053SOL    HW148038   0.131   0.279   1.825  0.1032  0.9994  0.6513
12053SOL    HW248039   0.149   0.305   1.677 -0.3226 -0.9721  0.2459
12054SOL     OW48040   0.133   2.285  16.176 -0.3858  0.1064 -0.0862
12054SOL    HW148041   0.039   2.274  16.170 -0.1751 -0.8855 -1.3140
12054SOL    HW248042   0.154   2.259  16.266 -1.2569  0.1909  0.1426
12055SOL     OW48043   4.355   0.586  14.010 -0.3446 -0.3150 -0.0038
12055SOL    HW148044   4.407   0.607  14.088 -1.6677 -0.9458  1.0487
12055SOL    HW248045   4.407   0.519  13.964 -1.0421 -2.1965  1.9340
12056SOL     OW48046   4.008   0.966  14.923 -0.7049 -0.2541  0.0452
12056SOL    HW148047   3.930   0.989  14.975  0.5159  1.2389  1.2051
12056SOL    HW248048   3.997   1.012  14.840 -2.0679 -1.6758 -0.5662
12057SOL     OW48049   0.766   2.835   7.555 -0.5390  0.1190  0.0409
12057SOL    HW148050   0.705   2.870   7.490 -1.2954 -1.6670 -0.2171
12057SOL    HW248051   0.792   2.750   7.520  1.2244  0.3755  0.7122
12058SOL     OW48052   2.333   3.710   3.124  0.9364  0.7384  0.0282
12058SOL    HW148053   2.325   3.627   3.077 -1.3576  0.9458  0.0514
12058SOL    HW248054   2.400   3.694   3.190 -0.2696 -1.4297  0.7282
12059SOL     OW48055   2.812   2.236  20.127 -0.4413  0.1315  0.0992
12059SOL    HW148056   2.728   2.193  20.143 -1.1183 -0.0396 -3.9815
12059SOL    HW248057   2.877   2.166  20.130 -0.9622 -0.4130 -1.3719
12060SOL     OW48058   1.601   0.666  17.249 -0.1392 -0.2148  0.1886
12060SOL    HW148059   1.652   0.586  17.259 -1.9005 -1.1813  1.2376
12060SOL    HW248060   1.604   0.685  17.155  2.2672 -0.2065  0.2775
12061SOL     OW48061   2.000   1.201   5.034 -0.8959 -0.1872 -0.1571
12061SOL    HW148062   1.922   1.167   4.991 -0.1383 -1.4179 -0.5406
12061SOL    HW248063   2.034   1.268   4.974 -0.5658 -0.9982 -0.8592
12062SOL     OW48064   1.196   4.302  12.011  0.3868  0.5953  0.2500
12062SOL    HW148065   1.252   4.254  11.950 -1.0574 -0.8948  0.1014
12062SOL    HW248066   1.108   4.269  11.994 -0.7476  4.0509 -0.5643
12063SOL     OW48067   0.429   0.607  17.978 -0.0930  0.1720  0.1156
12063SOL    HW148068   0.426   0.697  17.946  1.9306  0.5096  0.8737
12063SOL    HW248069   0.497   0.565  17.926  1.7845  0.1780  2.6055
12064SOL     OW48070   0.019   0.312  15.657 -0.3234 -0.1145 -0.3272
12064SOL    HW148071   4.731   0.336  15.590 -0.4148  1.8501  0.4451
12064SOL    HW248072   0.100   0.294  15.609 -1.0162 -0.9689 -1.1594
12065SOL     OW48073   2.495   1.123   9.410 -0.5984  0.6626 -0.0816
12065SOL    HW148074   2.546   1.090   9.483  0.8207  2.4673 -0.2534
12065SOL    HW248075   2.421   1.063   9.402  1.2677 -1.6709  0.4488
12066SOL     OW48076   1.190   1.833   8.472  0.5841  0.0382  0.1891
12066SOL    HW148077   1.141   1.819   8.553 -0.7102 -1.0237 -0.7963
12066SOL    HW248078   1.125   1.860   8.408  1.1680 -2.0131 -1.2894
12067SOL     OW48079   1.724   3.056  19.581 -0.0093 -0.4669  0.4300
12067SOL    HW148080   1.631   3.055  19.605 -0.2715  1.1411 -0.5515
12067SOL    HW248081   1.728   3.001  19.503 -0.2021 -0.1745  0.2134
12068SOL     OW48082   2.454   2.093  17.590 -0.4010 -0.4639 -0.2453
12068SOL    HW148083   2.440   2.043  17.671  0.1752 -0.3503 -0.0714
12068SOL    HW248084   2.540   2.134  17.603 -0.0212 -0.9669 -1.1800
12069SOL     OW48085   3.703   3.923   5.215  0.2607  0.4525 -0.0651
12069SOL    HW148086   3.779   3.903   5.270 -1.9315 -0.6375  2.5659
12069SOL    HW248087   3.684   4.015   5.233  0.6470  0.6020 -0.3957
12070SOL     OW48088   3.664   2.640   5.500 -0.2978 -0.0585 -0.0681
12070SOL    HW148089   3.673   2.560   5.551 -1.0136 -0.1030 -0.0152
12070SOL    HW248090   3.736   2.636   5.437  0.4158 -0.1406  0.7405
12071SOL     OW48091   4.285   1.605   4.624 -0.2143 -0.3836  0.1687
12071SOL    HW148092   4.326   1.519   4.618  2.3646  1.0333 -2.4092
12071SOL    HW248093   4.341   1.662   4.571 -2.3934  2.6883  1.1921
12072SOL     OW48094   0.714   0.527  16.417  0.3970  0.2769 -0.2031
12072SOL    HW148095   0.760   0.467  16.357  0.4376  0.1326 -0.0277
12072SOL    HW248096   0.756   0.513  16.501 -0.6848 -0.6423  0.1882
12073SOL     OW48097   0.828   0.149   1.906  0.7320 -0.1268  0.2521
12073SOL    HW148098   0.737   0.121   1.891  0.9980 -0.8387 -0.0106
12073SOL    HW248099   0.824   0.245   1.904 -0.0639 -0.1546  0.5226
12074SOL     OW48100   4.656   2.381  20.493  0.2151  0.3057 -0.0269
12074SOL    HW148101   4.651   2.357  20.400 -0.0331  1.6306 -0.3543
12074SOL    HW248102   4.680   2.300  20.538 -0.3974 -0.4962 -1.1722
12075SOL     OW48103   1.702   2.338  14.112 -0.1254  0.2726  0.1721
12075SOL    HW148104   1.678   2.249  14.089  0.5137  0.4211 -1.0657
12075SOL    HW248105   1.685   2.344  14.207 -3.4795 -0.0948 -0.3814
12076SOL     OW48106   1.256   3.087  14.992 -0.3401 -0.9553  0.0216
12076SOL    HW148107   1.198   3.059  14.921 -0.0558 -0.1850 -0.5143
12076SOL    HW248108   1.273   3.007  15.042 -0.0897 -1.5978 -1.0929
12077SOL     OW48109   0.925   4.153   9.452  0.3331 -0.7543  0.3016
12077SOL    HW148110   0.967   4.168   9.367  0.7241 -2.4900  0.1831
12077SOL    HW248111   0.934   4.237   9.498 -1.4590  0.7160 -2.0326
12078SOL     OW48112   2.696   1.736  10.508  0.2816 -0.8332 -0.2957
12078SOL    HW148113   2.609   1.713  10.476 -0.2329  0.2969  0.3083
12078SOL    HW248114   2.743   1.653  10.511 -1.3239 -1.6812  1.0786
12079SOL     OW48115   2.047   0.151  17.687  0.4409  0.4830 -0.1307
12079SOL    HW148116   2.104   0.109  17.751  0.1632  0.5858  0.1828
12079SOL    HW248117   2.092   0.139  17.603  1.0288  0.7742  0.1493
12080SOL     OW48118   3.598   3.160  18.613 -0.1565 -0.3849  0.2160
12080SOL    HW148119   3.562   3.201  18.534  0.7732  0.7175  0.3699
12080SOL    HW248120   3.658   3.225  18.649  1.5486 -1.9948  0.2980
12081SOL     OW48121   3.385   3.717   2.047 -0.3571  0.1224 -0.3322
12081SOL    HW148122   3.341   3.767   1.979 -0.1527 -0.3367 -0.8006
12081SOL    HW248123   3.476   3.712   2.018 -0.1516  0.4097  0.2519
12082SOL     OW48124   1.304   3.632   5.177  0.1410 -0.0474 -0.0677
12082SOL    HW148125   1.370   3.694   5.147 -0.1625 -0.6517 -1.9661
12082SOL    HW248126   1.348   3.580   5.244  0.4565  2.0820  1.3623
12083SOL     OW48127   3.988   4.146   5.238  0.1216  0.7438 -0.1911
12083SOL    HW148128   4.019   4.108   5.320 -0.1091  1.0992  0.0624
12083SOL    HW248129   4.022   4.088   5.170 -1.8160 -0.9669  0.2978
12084SOL     OW48130   0.162   2.614   4.930  0.1722 -0.1602  0.5824
12084SOL    HW148131   0.139   2.521   4.926 -1.3093  0.2206  0.3381
12084SOL    HW248132   0.123   2.646   5.011  0.5959  0.2680  0.6178
12085SOL     OW48133   3.983   0.555   6.350 -0.1130  0.2824  0.0531
12085SOL    HW148134   3.969   0.558   6.444 -2.1197 -1.4086 -0.2048
12085SOL    HW248135   3.918   0.616   6.314 -1.5133 -1.5549 -0.5085
12086SOL     OW48136   1.962   1.279  18.681  0.2545  0.3558  0.4292
12086SOL    HW148137   2.041   1.311  18.725  1.1438  0.3519 -1.1868
12086SOL    HW248138   1.924   1.358  18.641 -1.2627  0.5921  2.2904
12087MG      MG48139   2.320   0.072   2.244 -0.1420 -0.2423  0.0227
12088CL      CL48140   4.507   4.446   0.692  0.0573  0.1265 -0.2745
12089CL      CL48141   1.107   1.064   4.841 -0.3927 -0.3077 -0.0922
   4.77594   4.77594  21.19621
