Membrane in water t= 560.00000 step= 560000
48143
  945MPD0     C    1   1.412   2.609   7.470
  945MPD0    C1    2   1.452   2.487   7.430
  945MPD0    C2    3   1.555   2.431   7.505
  945MPD0    C3    4   1.606   2.474   7.631
  945MPD0    C4    5   1.547   2.593   7.669
  945MPD0    C5    6   1.457   2.659   7.589
  945MPD0     H    7   1.591   2.337   7.465
  945MPD0    H1    8   1.567   2.636   7.766
  945MPD0    H2    9   1.348   2.665   7.404
  945MPD0    H3   10   1.414   2.753   7.624
  945MPD0     N   11   1.667   2.392   7.719
  945MPD0    H4   12   1.722   2.442   7.789
  945MPD0    H5   13   1.735   2.339   7.664
  945MPD0    N1   14   1.427   2.448   7.301
  945MPD0    H6   15   1.336   2.470   7.262
  945MPD0    H7   16   1.448   2.349   7.290
  946MPD0     C   17   2.811   0.037  11.708
  946MPD0    C1   18   2.769   4.700  11.700
  946MPD0    C2   19   2.833   4.595  11.766
  946MPD0    C3   20   2.945   4.639  11.839
  946MPD0    C4   21   2.995   4.767  11.836
  946MPD0    C5   22   2.926   0.067  11.775
  946MPD0     H   23   2.792   4.495  11.770
  946MPD0    H1   24   3.092   4.789  11.879
  946MPD0    H2   25   2.754   0.121  11.668
  946MPD0    H3   26   2.963   0.169  11.779
  946MPD0     N   27   3.030   4.540  11.887
  946MPD0    H4   28   3.094   4.576  11.957
  946MPD0    H5   29   2.987   4.454  11.921
  946MPD0    N1   30   2.653   4.675  11.624
  946MPD0    H6   31   2.669   4.704  11.528
  946MPD0    H7   32   2.615   4.581  11.630
  947MPD0     C   33   4.514   3.638  13.260
  947MPD0    C1   34   4.520   3.747  13.342
  947MPD0    C2   35   4.404   3.752  13.415
  947MPD0    C3   36   4.293   3.680  13.410
  947MPD0    C4   37   4.298   3.578  13.317
  947MPD0    C5   38   4.403   3.564  13.239
  947MPD0     H   39   4.398   3.838  13.481
  947MPD0    H1   40   4.210   3.519  13.296
  947MPD0    H2   41   4.601   3.618  13.198
  947MPD0    H3   42   4.405   3.498  13.153
  947MPD0     N   43   4.201   3.693  13.516
  947MPD0    H4   44   4.198   3.792  13.543
  947MPD0    H5   45   4.104   3.671  13.497
  947MPD0    N1   46   4.641   3.806  13.373
  947MPD0    H6   47   4.635   3.896  13.422
  947MPD0    H7   48   4.688   3.820  13.284
  948MPD0     C   49   0.981   2.170   6.364
  948MPD0    C1   50   1.112   2.141   6.356
  948MPD0    C2   51   1.178   2.102   6.470
  948MPD0    C3   52   1.112   2.083   6.590
  948MPD0    C4   53   0.973   2.080   6.578
  948MPD0    C5   54   0.919   2.111   6.462
  948MPD0     H   55   1.286   2.091   6.473
  948MPD0    H1   56   0.897   2.051   6.650
  948MPD0    H2   57   0.918   2.204   6.283
  948MPD0    H3   58   0.812   2.101   6.448
  948MPD0     N   59   1.180   2.016   6.697
  948MPD0    H4   60   1.132   2.023   6.787
  948MPD0    H5   61   1.276   2.047   6.702
  948MPD0    N1   62   1.179   2.187   6.238
  948MPD0    H6   63   1.125   2.214   6.156
  948MPD0    H7   64   1.276   2.164   6.217
  949MPD0     C   65   1.418   3.268   7.410
  949MPD0    C1   66   1.394   3.402   7.402
  949MPD0    C2   67   1.352   3.474   7.516
  949MPD0    C3   68   1.353   3.408   7.639
  949MPD0    C4   69   1.390   3.274   7.645
  949MPD0    C5   70   1.425   3.208   7.528
  949MPD0     H   71   1.332   3.580   7.514
  949MPD0    H1   72   1.394   3.224   7.741
  949MPD0    H2   73   1.429   3.211   7.318
  949MPD0    H3   74   1.454   3.104   7.538
  949MPD0     N   75   1.329   3.480   7.760
  949MPD0    H4   76   1.304   3.424   7.842
  949MPD0    H5   77   1.253   3.547   7.749
  949MPD0    N1   78   1.398   3.459   7.271
  949MPD0    H6   79   1.491   3.436   7.236
  949MPD0    H7   80   1.398   3.560   7.262
  950MPD0     C   81   0.754   2.546  12.491
  950MPD0    C1   82   0.757   2.577  12.625
  950MPD0    C2   83   0.666   2.666  12.672
  950MPD0    C3   84   0.589   2.744  12.579
  950MPD0    C4   85   0.602   2.717  12.443
  950MPD0    C5   86   0.678   2.612  12.402
  950MPD0     H   87   0.663   2.702  12.774
  950MPD0    H1   88   0.538   2.762  12.368
  950MPD0    H2   89   0.822   2.470  12.454
  950MPD0    H3   90   0.688   2.585  12.298
  950MPD0     N   91   0.500   2.845  12.625
  950MPD0    H4   92   0.536   2.875  12.715
  950MPD0    H5   93   0.492   2.926  12.565
  950MPD0    N1   94   0.828   2.493  12.720
  950MPD0    H6   95   0.914   2.456  12.680
  950MPD0    H7   96   0.855   2.549  12.801
  951MPD0     C   97   3.023   1.563  12.856
  951MPD0    C1   98   2.961   1.439  12.833
  951MPD0    C2   99   2.845   1.410  12.910
  951MPD0    C3  100   2.783   1.512  12.980
  951MPD0    C4  101   2.826   1.646  12.964
  951MPD0    C5  102   2.953   1.656  12.924
  951MPD0     H  103   2.800   1.312  12.904
  951MPD0    H1  104   2.782   1.730  13.015
  951MPD0    H2  105   3.121   1.590  12.819
  951MPD0    H3  106   3.001   1.753  12.918
  951MPD0     N  107   2.665   1.486  13.048
  951MPD0    H4  108   2.654   1.544  13.131
  951MPD0    H5  109   2.664   1.387  13.072
  951MPD0    N1  110   3.028   1.340  12.754
  951MPD0    H6  111   3.058   1.381  12.666
  951MPD0    H7  112   2.962   1.267  12.728
  952MPD0     C  113   0.433   0.479   3.240
  952MPD0    C1  114   0.498   0.414   3.349
  952MPD0    C2  115   0.524   0.277   3.330
  952MPD0    C3  116   0.478   0.206   3.214
  952MPD0    C4  117   0.410   0.275   3.124
  952MPD0    C5  118   0.396   0.405   3.129
  952MPD0     H  119   0.586   0.222   3.400
  952MPD0    H1  120   0.362   0.215   3.047
  952MPD0    H2  121   0.423   0.587   3.239
  952MPD0    H3  122   0.355   0.452   3.041
  952MPD0     N  123   0.493   0.067   3.208
  952MPD0    H4  124   0.475   0.035   3.113
  952MPD0    H5  125   0.588   0.041   3.235
  952MPD0    N1  126   0.530   0.476   3.462
  952MPD0    H6  127   0.527   0.410   3.540
  952MPD0    H7  128   0.478   0.563   3.469
  953MPD0     C  129   1.160   3.303  11.784
  953MPD0    C1  130   1.039   3.288  11.853
  953MPD0    C2  131   1.043   3.231  11.981
  953MPD0    C3  132   1.156   3.190  12.051
  953MPD0    C4  133   1.273   3.214  11.983
  953MPD0    C5  134   1.272   3.261  11.855
  953MPD0     H  135   0.951   3.216  12.036
  953MPD0    H1  136   1.368   3.181  12.025
  953MPD0    H2  137   1.172   3.346  11.685
  953MPD0    H3  138   1.366   3.262  11.802
  953MPD0     N  139   1.145   3.148  12.185
  953MPD0    H4  140   1.219   3.085  12.214
  953MPD0    H5  141   1.057   3.104  12.210
  953MPD0    N1  142   0.917   3.336  11.795
  953MPD0    H6  143   0.839   3.276  11.820
  953MPD0    H7  144   0.920   3.347  11.694
  954MPD0     C  145   0.242   0.142  14.013
  954MPD0    C1  146   0.179   0.146  14.135
  954MPD0    C2  147   0.135   0.272  14.178
  954MPD0    C3  148   0.172   0.388  14.111
  954MPD0    C4  149   0.221   0.376  13.981
  954MPD0    C5  150   0.263   0.251  13.936
  954MPD0     H  151   0.074   0.281  14.267
  954MPD0    H1  152   0.230   0.461  13.914
  954MPD0    H2  153   0.277   0.046  13.976
  954MPD0    H3  154   0.308   0.233  13.840
  954MPD0     N  155   0.102   0.503  14.141
  954MPD0    H4  156   0.079   0.528  14.237
  954MPD0    H5  157   0.144   0.581  14.090
  954MPD0    N1  158   0.120   0.029  14.199
  954MPD0    H6  159   0.167   4.733  14.177
  954MPD0    H7  160   0.128   0.041  14.300
  955MPD0     C  161   2.887   2.143   7.774
  955MPD0    C1  162   2.985   2.064   7.826
  955MPD0    C2  163   2.964   2.007   7.949
  955MPD0    C3  164   2.847   1.995   8.009
  955MPD0    C4  165   2.746   2.067   7.964
  955MPD0    C5  166   2.767   2.143   7.841
  955MPD0     H  167   3.047   1.955   7.996
  955MPD0    H1  168   2.653   2.081   8.018
  955MPD0    H2  169   2.894   2.205   7.685
  955MPD0    H3  170   2.684   2.203   7.806
  955MPD0     N  171   2.831   1.934   8.133
  955MPD0    H4  172   2.903   1.863   8.147
  955MPD0    H5  173   2.740   1.890   8.147
  955MPD0    N1  174   3.109   2.065   7.773
  955MPD0    H6  175   3.118   2.084   7.673
  955MPD0    H7  176   3.176   1.995   7.806
  956MPD0     C  177   0.336   2.956   7.267
  956MPD0    C1  178   0.273   2.950   7.149
  956MPD0    C2  179   0.269   3.060   7.070
  956MPD0    C3  180   0.318   3.183   7.114
  956MPD0    C4  181   0.365   3.194   7.241
  956MPD0    C5  182   0.377   3.078   7.317
  956MPD0     H  183   0.233   3.050   6.968
  956MPD0    H1  184   0.380   3.290   7.289
  956MPD0    H2  185   0.347   2.869   7.332
  956MPD0    H3  186   0.426   3.083   7.414
  956MPD0     N  187   0.302   3.299   7.040
  956MPD0    H4  188   0.349   3.379   7.082
  956MPD0    H5  189   0.334   3.292   6.943
  956MPD0    N1  190   0.248   2.822   7.090
  956MPD0    H6  191   0.162   2.835   7.035
  956MPD0    H7  192   0.234   2.754   7.164
  957MPD0     C  193   3.333   3.929  11.542
  957MPD0    C1  194   3.397   3.965  11.657
  957MPD0    C2  195   3.332   3.956  11.775
  957MPD0    C3  196   3.202   3.913  11.784
  957MPD0    C4  197   3.141   3.886  11.670
  957MPD0    C5  198   3.198   3.901  11.551
  957MPD0     H  199   3.394   3.964  11.864
  957MPD0    H1  200   3.041   3.843  11.661
  957MPD0    H2  201   3.375   3.923  11.442
  957MPD0    H3  202   3.136   3.886  11.463
  957MPD0     N  203   3.150   3.895  11.913
  957MPD0    H4  204   3.195   3.931  11.997
  957MPD0    H5  205   3.048   3.903  11.916
  957MPD0    N1  206   3.535   3.994  11.655
  957MPD0    H6  207   3.560   4.054  11.576
  957MPD0    H7  208   3.570   4.034  11.741
    1TMC1    C1  209   4.762   3.497   8.387
    1TMC1    C2  210   0.060   3.565   8.469
    1TMC1    C3  211   0.024   3.692   8.508
    1TMC1    C4  212   4.639   3.556   8.350
    1TMC1    C5  213   4.613   3.680   8.389
    1TMC1    C6  214   4.703   3.755   8.459
    1TMC1     C  215   0.002   3.361   8.345
    1TMC1     O  216   4.706   3.289   8.302
    1TMC1     H  217   0.151   3.513   8.496
    1TMC1    H1  218   4.568   3.508   8.283
    1TMC1    H2  219   4.681   3.857   8.488
    1TMC1    C7  220   4.514   3.760   8.316
    1TMC1    C8  221   0.144   3.772   8.538
    1TMC1    O1  222   4.455   3.858   8.359
    1TMC1    O2  223   0.185   3.868   8.477
    1TMC1    O3  224   4.528   3.750   8.180
    1TMC1    H3  225   4.583   3.674   8.154
    1TMC1    O5  226   0.181   3.730   8.659
    1TMC1    H5  227   0.118   3.661   8.687
    2TMC1    C1  228   3.674   3.836   7.854
    2TMC1    C2  229   3.733   3.910   7.759
    2TMC1    C3  230   3.766   3.838   7.648
    2TMC1    C4  231   3.650   3.696   7.846
    2TMC1    C5  232   3.663   3.636   7.726
    2TMC1    C6  233   3.717   3.706   7.622
    2TMC1     C  234   3.715   3.870   7.985
    2TMC1     O  235   3.781   3.789   8.046
    2TMC1     H  236   3.778   4.009   7.760
    2TMC1    H1  237   3.607   3.649   7.934
    2TMC1    H2  238   3.707   3.657   7.526
    2TMC1    C7  239   3.601   3.502   7.716
    2TMC1    C8  240   3.777   3.927   7.529
    2TMC1    O1  241   3.661   3.404   7.672
    2TMC1    O2  242   3.741   4.042   7.533
    2TMC1    O3  243   3.481   3.498   7.780
    2TMC1    H3  244   3.436   3.585   7.782
    2TMC1    O5  245   3.769   3.842   7.428
    2TMC1    H5  246   3.832   3.767   7.432
    3TMC1    C1  247   0.161   0.711   9.332
    3TMC1    C2  248   0.090   0.800   9.405
    3TMC1    C3  249   0.136   0.851   9.517
    3TMC1    C4  250   0.296   0.680   9.365
    3TMC1    C5  251   0.346   0.756   9.471
    3TMC1    C6  252   0.269   0.837   9.552
    3TMC1     C  253   0.104   0.669   9.208
    3TMC1     O  254   0.174   0.657   9.107
    3TMC1     H  255   4.779   0.822   9.376
    3TMC1    H1  256   0.356   0.606   9.314
    3TMC1    H2  257   0.308   0.891   9.639
    3TMC1    C7  258   0.482   0.732   9.498
    3TMC1    C8  259   0.056   0.938   9.607
    3TMC1    O1  260   0.537   0.750   9.605
    3TMC1    O2  261   0.104   1.021   9.678
    3TMC1    O3  262   0.550   0.744   9.382
    3TMC1    H3  263   0.501   0.736   9.298
    3TMC1    O5  264   4.767   0.835   9.650
    3TMC1    H5  265   4.745   0.766   9.584
    4TMC1    C1  266   2.114   4.750  10.150
    4TMC1    C2  267   2.123   4.764  10.009
    4TMC1    C3  268   2.022   4.715   9.933
    4TMC1    C4  269   2.003   4.690  10.202
    4TMC1    C5  270   1.912   4.630  10.119
    4TMC1    C6  271   1.913   4.641   9.985
    4TMC1     C  272   2.180   0.067  10.222
    4TMC1     O  273   2.213   0.158  10.144
    4TMC1     H  274   2.189   0.032   9.946
    4TMC1    H1  275   2.007   4.667  10.308
    4TMC1    H2  276   1.838   4.581   9.935
    4TMC1    C7  277   1.813   4.526  10.170
    4TMC1    C8  278   2.004   4.756   9.801
    4TMC1    O1  279   1.811   4.414  10.113
    4TMC1    O2  280   2.061   0.057   9.744
    4TMC1    O3  281   1.795   4.554  10.300
    4TMC1    H3  282   1.793   4.652  10.304
    4TMC1    O5  283   1.948   4.649   9.737
    4TMC1    H5  284   1.924   4.575   9.797
    5TMC1    C1  285   0.430   4.033   8.156
    5TMC1    C2  286   0.475   4.091   8.040
    5TMC1    C3  287   0.382   4.094   7.937
    5TMC1    C4  288   0.301   3.984   8.163
    5TMC1    C5  289   0.216   3.984   8.058
    5TMC1    C6  290   0.255   4.038   7.944
    5TMC1     C  291   0.487   4.082   8.276
    5TMC1     O  292   0.530   4.197   8.285
    5TMC1     H  293   0.578   4.123   8.033
    5TMC1    H1  294   0.264   3.965   8.263
    5TMC1    H2  295   0.176   4.048   7.871
    5TMC1    C7  296   0.074   4.012   8.086
    5TMC1    C8  297   0.413   4.144   7.811
    5TMC1    O1  298   4.791   4.096   8.047
    5TMC1    O2  299   0.348   4.109   7.712
    5TMC1    O3  300   0.036   3.933   8.184
    5TMC1    H3  301   0.106   3.867   8.203
    5TMC1    O5  302   0.475   4.264   7.831
    5TMC1    H5  303   0.504   4.288   7.921
    6TMC1    C1  304   0.791   3.434  10.927
    6TMC1    C2  305   0.845   3.514  11.020
    6TMC1    C3  306   0.976   3.545  11.008
    6TMC1    C4  307   0.862   3.396  10.822
    6TMC1    C5  308   0.998   3.428  10.816
    6TMC1    C6  309   1.056   3.506  10.906
    6TMC1     C  310   0.649   3.402  10.938
    6TMC1     O  311   0.577   3.471  11.009
    6TMC1     H  312   0.777   3.562  11.090
    6TMC1    H1  313   0.815   3.339  10.743
    6TMC1    H2  314   1.162   3.525  10.893
    6TMC1    C7  315   1.062   3.382  10.693
    6TMC1    C8  316   1.033   3.618  11.121
    6TMC1    O1  317   0.999   3.312  10.613
    6TMC1    O2  318   1.146   3.662  11.128
    6TMC1    O3  319   1.194   3.415  10.684
    6TMC1    H3  320   1.215   3.488  10.746
    6TMC1    O5  321   0.942   3.638  11.217
    6TMC1    H5  322   0.855   3.593  11.209
    7TMC1    C1  323   0.230   3.810   7.656
    7TMC1    C2  324   0.287   3.764   7.770
    7TMC1    C3  325   0.397   3.687   7.771
    7TMC1    C4  326   0.287   3.778   7.532
    7TMC1    C5  327   0.406   3.707   7.533
    7TMC1    C6  328   0.459   3.652   7.650
    7TMC1     C  329   0.092   3.850   7.661
    7TMC1     O  330   0.035   3.842   7.770
    7TMC1     H  331   0.229   3.770   7.861
    7TMC1    H1  332   0.242   3.795   7.435
    7TMC1    H2  333   0.561   3.617   7.641
    7TMC1    C7  334   0.433   3.645   7.405
    7TMC1    C8  335   0.439   3.629   7.899
    7TMC1    O1  336   0.514   3.701   7.330
    7TMC1    O2  337   0.380   3.659   8.002
    7TMC1    O3  338   0.439   3.513   7.442
    7TMC1    H3  339   0.375   3.493   7.514
    7TMC1    O5  340   0.511   3.511   7.890
    7TMC1    H5  341   0.542   3.476   7.804
    8TMC1    C1  342   1.549   1.743  15.233
    8TMC1    C2  343   1.673   1.799  15.262
    8TMC1    C3  344   1.673   1.912  15.343
    8TMC1    C4  345   1.433   1.798  15.274
    8TMC1    C5  346   1.442   1.910  15.356
    8TMC1    C6  347   1.560   1.974  15.389
    8TMC1     C  348   1.547   1.685  15.102
    8TMC1     O  349   1.651   1.690  15.041
    8TMC1     H  350   1.765   1.763  15.218
    8TMC1    H1  351   1.336   1.760  15.245
    8TMC1    H2  352   1.554   2.057  15.459
    8TMC1    C7  353   1.325   1.972  15.403
    8TMC1    C8  354   1.802   1.977  15.368
    8TMC1    O1  355   1.328   2.090  15.435
    8TMC1    O2  356   1.911   1.915  15.375
    8TMC1    O3  357   1.257   1.873  15.462
    8TMC1    H3  358   1.294   1.784  15.448
    8TMC1    O5  359   1.787   2.110  15.337
    8TMC1    H5  360   1.693   2.126  15.312
    9TMC1    C1  361   0.441   2.864   8.011
    9TMC1    C2  362   0.310   2.827   7.982
    9TMC1    C3  363   0.280   2.695   7.970
    9TMC1    C4  364   0.528   2.760   8.038
    9TMC1    C5  365   0.493   2.627   8.017
    9TMC1    C6  366   0.368   2.589   7.982
    9TMC1     C  367   0.474   2.998   8.051
    9TMC1     O  368   0.384   3.078   8.081
    9TMC1     H  369   0.233   2.901   7.960
    9TMC1    H1  370   0.631   2.771   8.071
    9TMC1    H2  371   0.339   2.486   7.963
    9TMC1    C7  372   0.593   2.531   8.050
    9TMC1    C8  373   0.152   2.662   7.909
    9TMC1    O1  374   0.712   2.555   8.025
    9TMC1    O2  375   0.065   2.746   7.927
    9TMC1    O3  376   0.536   2.407   8.070
    9TMC1    H3  377   0.454   2.409   8.123
    9TMC1    O5  378   0.186   2.619   7.785
    9TMC1    H5  379   0.267   2.564   7.792
   10TMC2    C1  380   1.828   3.317  11.099
   10TMC2    C2  381   1.939   3.307  11.020
   10TMC2    C3  382   1.925   3.213  10.920
   10TMC2    C4  383   1.726   3.226  11.107
   10TMC2    C5  384   1.730   3.127  11.018
   10TMC2    C6  385   1.821   3.118  10.916
   10TMC2     C  386   1.870   3.345  11.231
   10TMC2     O  387   1.804   3.427  11.293
   10TMC2     H  388   2.021   3.375  11.036
   10TMC2    H1  389   1.648   3.234  11.182
   10TMC2    H2  390   1.820   3.027  10.857
   10TMC2    C7  391   1.634   3.020  11.028
   10TMC2    C8  392   2.003   3.226  10.798
   10TMC2    O1  393   1.668   2.914  10.975
   10TMC2    O2  394   1.946   3.272  10.698
   10TMC2    O5  395   2.088   3.119  10.803
   10TMC2    H5  396   2.101   3.099  10.898
   11TMC2    C1  397   3.854   3.147  10.633
   11TMC2    C2  398   3.961   3.061  10.621
   11TMC2    C3  399   4.006   2.994  10.732
   11TMC2    C4  400   3.796   3.168  10.751
   11TMC2    C5  401   3.842   3.104  10.859
   11TMC2    C6  402   3.953   3.014  10.852
   11TMC2     C  403   3.806   3.217  10.514
   11TMC2     O  404   3.789   3.142  10.426
   11TMC2     H  405   4.007   3.045  10.524
   11TMC2    H1  406   3.706   3.229  10.752
   11TMC2    H2  407   4.002   2.974  10.940
   11TMC2    C7  408   3.837   3.171  10.985
   11TMC2    C8  409   4.133   2.921  10.717
   11TMC2    O1  410   3.914   3.129  11.074
   11TMC2    O2  411   4.187   2.885  10.818
   11TMC2    O5  412   4.131   2.857  10.596
   11TMC2    H5  413   4.055   2.878  10.537
   12TMC2    C1  414   4.716   4.516  10.681
   12TMC2    C2  415   4.731   4.595  10.570
   12TMC2    C3  416   4.644   4.572  10.465
   12TMC2    C4  417   4.609   4.441  10.702
   12TMC2    C5  418   4.530   4.426  10.593
   12TMC2    C6  419   4.549   4.476  10.469
   12TMC2     C  420   0.013   4.523  10.798
   12TMC2     O  421   4.753   4.513  10.913
   12TMC2     H  422   0.019   4.668  10.560
   12TMC2    H1  423   4.595   4.390  10.796
   12TMC2    H2  424   4.476   4.452  10.392
   12TMC2    C7  425   4.417   4.333  10.617
   12TMC2    C8  426   4.669   4.648  10.341
   12TMC2    O1  427   4.436   4.244  10.695
   12TMC2    O2  428   4.782   4.692  10.322
   12TMC2    O5  429   4.551   4.677  10.281
   12TMC2    H5  430   4.470   4.628  10.307
   13TMC2    C1  431   4.474   2.178   8.911
   13TMC2    C2  432   4.533   2.065   8.961
   13TMC2    C3  433   4.551   2.062   9.098
   13TMC2    C4  434   4.442   2.288   8.991
   13TMC2    C5  435   4.459   2.287   9.125
   13TMC2    C6  436   4.515   2.172   9.178
   13TMC2     C  437   4.432   2.174   8.773
   13TMC2     O  438   4.438   2.285   8.723
   13TMC2     H  439   4.562   1.974   8.909
   13TMC2    H1  440   4.400   2.375   8.942
   13TMC2    H2  441   4.508   2.164   9.286
   13TMC2    C7  442   4.364   2.356   9.215
   13TMC2    C8  443   4.652   1.970   9.150
   13TMC2    O1  444   4.365   2.328   9.334
   13TMC2    O2  445   4.687   1.871   9.082
   13TMC2    O5  446   4.667   1.971   9.282
   13TMC2    H5  447   4.630   2.045   9.334
   14TMC2    C1  448   2.676   4.632   9.089
   14TMC2    C2  449   2.794   4.665   9.160
   14TMC2    C3  450   2.890   4.716   9.077
   14TMC2    C4  451   2.659   4.658   8.959
   14TMC2    C5  452   2.769   4.685   8.885
   14TMC2    C6  453   2.884   4.725   8.943
   14TMC2     C  454   2.557   4.600   9.169
   14TMC2     O  455   2.453   4.586   9.106
   14TMC2     H  456   2.812   4.647   9.265
   14TMC2    H1  457   2.568   4.624   8.911
   14TMC2    H2  458   2.961   4.764   8.878
   14TMC2    C7  459   2.752   4.678   8.742
   14TMC2    C8  460   3.013   4.716   9.147
   14TMC2    O1  461   2.688   4.775   8.705
   14TMC2    O2  462   3.041   4.621   9.216
   14TMC2    O5  463   3.101   4.785   9.069
   14TMC2    H5  464   3.050   0.069   9.032
   15TMC2    C1  465   2.239   1.901  10.701
   15TMC2    C2  466   2.171   1.897  10.818
   15TMC2    C3  467   2.190   1.996  10.904
   15TMC2    C4  468   2.343   1.988  10.687
   15TMC2    C5  469   2.378   2.079  10.786
   15TMC2    C6  470   2.289   2.090  10.891
   15TMC2     C  471   2.239   1.780  10.624
   15TMC2     O  472   2.186   1.676  10.669
   15TMC2     H  473   2.095   1.824  10.841
   15TMC2    H1  474   2.412   1.991  10.604
   15TMC2    H2  475   2.290   2.170  10.964
   15TMC2    C7  476   2.448   2.202  10.744
   15TMC2    C8  477   2.135   1.974  11.036
   15TMC2    O1  478   2.462   2.218  10.623
   15TMC2    O2  479   2.025   1.916  11.051
   15TMC2    O5  480   2.247   1.940  11.100
   15TMC2    H5  481   2.329   1.990  11.079
   16TMC2    C1  482   0.226   0.297  11.617
   16TMC2    C2  483   0.090   0.317  11.630
   16TMC2    C3  484   0.026   0.318  11.748
   16TMC2    C4  485   0.302   0.296  11.730
   16TMC2    C5  486   0.231   0.296  11.849
   16TMC2    C6  487   0.098   0.304  11.861
   16TMC2     C  488   0.285   0.333  11.489
   16TMC2     O  489   0.205   0.380  11.408
   16TMC2     H  490   0.021   0.323  11.547
   16TMC2    H1  491   0.410   0.297  11.727
   16TMC2    H2  492   0.047   0.314  11.956
   16TMC2    C7  493   0.293   0.255  11.974
   16TMC2    C8  494   4.680   0.363  11.761
   16TMC2    O1  495   0.351   0.147  11.976
   16TMC2    O2  496   4.615   0.337  11.859
   16TMC2    O5  497   4.666   0.481  11.693
   16TMC2    H5  498   4.744   0.504  11.637
   17TMC2    C1  499   0.030   3.425   7.565
   17TMC2    C2  500   4.715   3.458   7.646
   17TMC2    C3  501   4.640   3.560   7.600
   17TMC2    C4  502   0.058   3.476   7.444
   17TMC2    C5  503   4.759   3.571   7.400
   17TMC2    C6  504   4.659   3.617   7.477
   17TMC2     C  505   0.146   3.365   7.630
   17TMC2     O  506   0.245   3.436   7.617
   17TMC2     H  507   4.702   3.426   7.749
   17TMC2    H1  508   0.155   3.464   7.396
   17TMC2    H2  509   4.600   3.705   7.451
   17TMC2    C7  510   0.014   3.669   7.297
   17TMC2    C8  511   4.555   3.626   7.700
   17TMC2    O1  512   0.130   3.664   7.256
   17TMC2    O2  513   4.584   3.625   7.822
   17TMC2    O5  514   4.432   3.614   7.648
   17TMC2    H5  515   4.418   3.571   7.561
   18TMC2    C1  516   1.213   4.611   8.294
   18TMC2    C2  517   1.118   4.608   8.197
   18TMC2    C3  518   1.049   4.498   8.178
   18TMC2    C4  519   1.216   4.515   8.392
   18TMC2    C5  520   1.128   4.408   8.377
   18TMC2    C6  521   1.048   4.392   8.267
   18TMC2     C  522   1.340   4.674   8.254
   18TMC2     O  523   1.330   4.763   8.173
   18TMC2     H  524   1.104   4.695   8.133
   18TMC2    H1  525   1.261   4.533   8.489
   18TMC2    H2  526   0.979   4.308   8.263
   18TMC2    C7  527   1.139   4.303   8.466
   18TMC2    C8  528   0.958   4.484   8.068
   18TMC2    O1  529   1.100   4.193   8.428
   18TMC2    O2  530   0.868   4.401   8.069
   18TMC2    O5  531   0.969   4.587   7.981
   18TMC2    H5  532   1.063   4.614   7.973
   19TMC2    C1  533   4.253   4.379   8.729
   19TMC2    C2  534   4.166   4.480   8.700
   19TMC2    C3  535   4.200   4.587   8.625
   19TMC2    C4  536   4.370   4.376   8.672
   19TMC2    C5  537   4.391   4.464   8.563
   19TMC2    C6  538   4.302   4.574   8.534
   19TMC2     C  539   4.204   4.272   8.812
   19TMC2     O  540   4.095   4.225   8.784
   19TMC2     H  541   4.079   4.489   8.764
   19TMC2    H1  542   4.445   4.300   8.691
   19TMC2    H2  543   4.301   4.637   8.446
   19TMC2    C7  544   4.526   4.491   8.520
   19TMC2    C8  545   4.106   4.695   8.601
   19TMC2    O1  546   4.574   4.605   8.538
   19TMC2    O2  547   4.078   4.737   8.487
   19TMC2    O5  548   4.045   4.726   8.714
   19TMC2    H5  549   4.106   4.713   8.790
   20TMC2    C1  550   1.789   1.457  15.334
   20TMC2    C2  551   1.731   1.484  15.456
   20TMC2    C3  552   1.808   1.486  15.568
   20TMC2    C4  553   1.922   1.455  15.313
   20TMC2    C5  554   1.992   1.450  15.427
   20TMC2    C6  555   1.944   1.467  15.553
   20TMC2     C  556   1.698   1.389  15.238
   20TMC2     O  557   1.611   1.317  15.285
   20TMC2     H  558   1.623   1.480  15.454
   20TMC2    H1  559   1.969   1.417  15.222
   20TMC2    H2  560   2.017   1.476  15.633
   20TMC2    C7  561   2.129   1.401  15.414
   20TMC2    C8  562   1.749   1.524  15.692
   20TMC2    O1  563   2.171   1.342  15.516
   20TMC2    O2  564   1.631   1.513  15.710
   20TMC2    O5  565   1.797   1.650  15.698
   20TMC2    H5  566   1.894   1.654  15.683
   21TMC2    C1  567   1.425   0.175  10.377
   21TMC2    C2  568   1.413   0.236  10.501
   21TMC2    C3  569   1.453   0.363  10.513
   21TMC2    C4  570   1.476   0.240  10.272
   21TMC2    C5  571   1.508   0.374  10.284
   21TMC2    C6  572   1.508   0.433  10.410
   21TMC2     C  573   1.359   0.050  10.340
   21TMC2     O  574   1.375   0.008  10.224
   21TMC2     H  575   1.370   0.195  10.592
   21TMC2    H1  576   1.490   0.194  10.175
   21TMC2    H2  577   1.532   0.538  10.418
   21TMC2    C7  578   1.578   0.438  10.175
   21TMC2    C8  579   1.533   0.384  10.630
   21TMC2    O1  580   1.683   0.498  10.211
   21TMC2    O2  581   1.543   0.292  10.709
   21TMC2    O5  582   1.641   0.460  10.599
   21TMC2    H5  583   1.636   0.542  10.546
   22TMC2    C1  584   2.069   2.765  14.562
   22TMC2    C2  585   1.960   2.851  14.567
   22TMC2    C3  586   1.898   2.863  14.689
   22TMC2    C4  587   2.135   2.712  14.670
   22TMC2    C5  588   2.090   2.761  14.785
   22TMC2    C6  589   1.976   2.833  14.801
   22TMC2     C  590   2.116   2.722  14.433
   22TMC2     O  591   2.209   2.644  14.438
   22TMC2     H  592   1.899   2.874  14.481
   22TMC2    H1  593   2.230   2.661  14.658
   22TMC2    H2  594   1.938   2.847  14.901
   22TMC2    C7  595   2.132   2.687  14.909
   22TMC2    C8  596   1.800   2.976  14.703
   22TMC2    O1  597   2.102   2.731  15.019
   22TMC2    O2  598   1.825   3.073  14.771
   22TMC2    O5  599   1.694   2.955  14.618
   22TMC2    H5  600   1.691   2.859  14.598
   23TMC2    C1  601   3.855   0.226   6.479
   23TMC2    C2  602   3.971   0.275   6.421
   23TMC2    C3  603   4.077   0.313   6.499
   23TMC2    C4  604   3.842   0.258   6.614
   23TMC2    C5  605   3.946   0.299   6.688
   23TMC2    C6  606   4.064   0.333   6.630
   23TMC2     C  607   3.743   0.190   6.397
   23TMC2     O  608   3.772   0.163   6.281
   23TMC2     H  609   3.993   0.247   6.319
   23TMC2    H1  610   3.754   0.226   6.669
   23TMC2    H2  611   4.137   0.376   6.697
   23TMC2    C7  612   3.937   0.297   6.831
   23TMC2    C8  613   4.202   0.346   6.437
   23TMC2    O1  614   3.850   0.364   6.880
   23TMC2    O2  615   4.205   0.403   6.328
   23TMC2    O5  616   4.272   0.235   6.458
   23TMC2    H5  617   4.233   0.184   6.533
   24TMC2    C1  618   4.611   0.676   6.954
   24TMC2    C2  619   4.642   0.562   7.022
   24TMC2    C3  620   4.541   0.515   7.103
   24TMC2    C4  621   4.491   0.750   6.975
   24TMC2    C5  622   4.400   0.699   7.065
   24TMC2    C6  623   4.423   0.576   7.129
   24TMC2     C  624   4.712   0.749   6.871
   24TMC2     O  625   4.689   0.868   6.848
   24TMC2     H  626   4.739   0.514   7.025
   24TMC2    H1  627   4.463   0.836   6.915
   24TMC2    H2  628   4.348   0.534   7.196
   24TMC2    C7  629   4.306   0.784   7.134
   24TMC2    C8  630   4.549   0.380   7.157
   24TMC2    O1  631   4.202   0.738   7.179
   24TMC2    O2  632   4.626   0.299   7.108
   24TMC2    O5  633   4.528   0.403   7.290
   24TMC2    H5  634   4.465   0.476   7.308
   25TMC2    C1  635   4.353   2.848   7.890
   25TMC2    C2  636   4.326   2.945   7.985
   25TMC2    C3  637   4.275   3.069   7.948
   25TMC2    C4  638   4.339   2.880   7.759
   25TMC2    C5  639   4.281   2.998   7.725
   25TMC2    C6  640   4.257   3.102   7.818
   25TMC2     C  641   4.407   2.719   7.924
   25TMC2     O  642   4.501   2.678   7.854
   25TMC2     H  643   4.333   2.918   8.090
   25TMC2    H1  644   4.372   2.808   7.685
   25TMC2    H2  645   4.205   3.187   7.773
   25TMC2    C7  646   4.278   3.040   7.585
   25TMC2    C8  647   4.193   3.132   8.052
   25TMC2    O1  648   4.256   3.155   7.551
   25TMC2    O2  649   4.145   3.078   8.155
   25TMC2    O5  650   4.161   3.257   8.013
   25TMC2    H5  651   4.228   3.291   7.951
   26TMC2    C1  652   3.860   1.537  14.532
   26TMC2    C2  653   3.798   1.593  14.644
   26TMC2    C3  654   3.744   1.720  14.631
   26TMC2    C4  655   3.870   1.600  14.409
   26TMC2    C5  656   3.818   1.727  14.403
   26TMC2    C6  657   3.758   1.791  14.510
   26TMC2     C  658   3.922   1.409  14.543
   26TMC2     O  659   3.881   1.347  14.643
   26TMC2     H  660   3.765   1.527  14.723
   26TMC2    H1  661   3.913   1.551  14.322
   26TMC2    H2  662   3.717   1.891  14.502
   26TMC2    C7  663   3.831   1.815  14.283
   26TMC2    C8  664   3.711   1.783  14.751
   26TMC2    O1  665   3.740   1.898  14.284
   26TMC2    O2  666   3.604   1.842  14.763
   26TMC2    O5  667   3.792   1.725  14.847
   26TMC2    H5  668   3.876   1.683  14.821
   27TMC2    C1  669   0.438   4.667   8.564
   27TMC2    C2  670   0.542   4.663   8.642
   27TMC2    C3  671   0.575   4.764   8.730
   27TMC2    C4  672   0.360   4.778   8.552
   27TMC2    C5  673   0.404   0.098   8.628
   27TMC2    C6  674   0.510   0.093   8.716
   27TMC2     C  675   0.371   4.539   8.542
   27TMC2     O  676   0.420   4.439   8.589
   27TMC2     H  677   0.590   4.567   8.650
   27TMC2    H1  678   0.288   0.003   8.473
   27TMC2    H2  679   0.544   0.182   8.766
   27TMC2    C7  680   0.338   0.228   8.609
   27TMC2    C8  681   0.665   4.736   8.838
   27TMC2    O1  682   0.363   0.285   8.504
   27TMC2    O2  683   0.677   4.622   8.876
   27TMC2    O5  684   0.767   0.035   8.827
   27TMC2    H5  685   0.734   0.123   8.801
   28TMC2    C1  686   0.923   2.610  13.626
   28TMC2    C2  687   0.926   2.707  13.521
   28TMC2    C3  688   0.842   2.694  13.415
   28TMC2    C4  689   0.852   2.493  13.602
   28TMC2    C5  690   0.770   2.485  13.488
   28TMC2    C6  691   0.759   2.585  13.398
   28TMC2     C  692   1.043   2.601  13.704
   28TMC2     O  693   1.141   2.646  13.652
   28TMC2     H  694   0.991   2.793  13.526
   28TMC2    H1  695   0.880   2.402  13.654
   28TMC2    H2  696   0.687   2.581  13.317
   28TMC2    C7  697   0.658   2.397  13.496
   28TMC2    C8  698   0.829   2.806  13.326
   28TMC2    O1  699   0.601   2.368  13.391
   28TMC2    O2  700   0.775   2.790  13.216
   28TMC2    O5  701   0.812   2.911  13.414
   28TMC2    H5  702   0.876   2.888  13.485
   29TMC2    C1  703   4.706   3.139  10.231
   29TMC2    C2  704   4.738   3.017  10.278
   29TMC2    C3  705   0.078   3.003  10.324
   29TMC2    C4  706   4.787   3.246  10.223
   29TMC2    C5  707   0.120   3.230  10.269
   29TMC2    C6  708   0.166   3.108  10.326
   29TMC2     C  709   4.565   3.173  10.220
   29TMC2     O  710   4.551   3.294  10.201
   29TMC2     H  711   4.672   2.932  10.273
   29TMC2    H1  712   4.767   3.341  10.173
   29TMC2    H2  713   0.270   3.109  10.357
   29TMC2    C7  714   0.217   3.314  10.214
   29TMC2    C8  715   0.108   2.889  10.411
   29TMC2    O1  716   0.207   3.436  10.200
   29TMC2    O2  717   0.139   2.903  10.528
   29TMC2    O5  718   0.049   2.779  10.360
   29TMC2    H5  719   0.038   2.786  10.262
   30TMC2    C1  720   2.043   4.027   9.615
   30TMC2    C2  721   2.016   3.921   9.697
   30TMC2    C3  722   1.901   3.851   9.679
   30TMC2    C4  723   1.951   4.069   9.518
   30TMC2    C5  724   1.852   3.982   9.485
   30TMC2    C6  725   1.829   3.873   9.559
   30TMC2     C  726   2.132   4.128   9.662
   30TMC2     O  727   2.083   4.240   9.648
   30TMC2     H  728   2.086   3.899   9.777
   30TMC2    H1  729   1.958   4.157   9.455
   30TMC2    H2  730   1.753   3.798   9.537
   30TMC2    C7  731   1.802   3.966   9.349
   30TMC2    C8  732   1.904   3.708   9.724
   30TMC2    O1  733   1.737   3.865   9.331
   30TMC2    O2  734   2.008   3.643   9.725
   30TMC2    O5  735   1.779   3.647   9.715
   30TMC2    H5  736   1.699   3.703   9.720
   31TMC2    C1  737   1.356   0.054  10.907
   31TMC2    C2  738   1.330   4.708  10.937
   31TMC2    C3  739   1.413   4.645  11.034
   31TMC2    C4  740   1.465   0.118  10.963
   31TMC2    C5  741   1.544   0.051  11.054
   31TMC2    C6  742   1.507   4.712  11.095
   31TMC2     C  743   1.247   0.147  10.868
   31TMC2     O  744   1.159   0.092  10.807
   31TMC2     H  745   1.260   4.653  10.875
   31TMC2    H1  746   1.500   0.217  10.936
   31TMC2    H2  747   1.556   4.655  11.173
   31TMC2    C7  748   1.605   0.128  11.161
   31TMC2    C8  749   1.382   4.515  11.081
   31TMC2    O1  750   1.571   0.248  11.162
   31TMC2    O2  751   1.437   4.454  11.175
   31TMC2    O5  752   1.299   4.453  10.996
   31TMC2    H5  753   1.292   4.357  11.011
   32TMC2    C1  754   1.038   0.976   7.520
   32TMC2    C2  755   0.997   0.948   7.651
   32TMC2    C3  756   0.876   1.002   7.684
   32TMC2    C4  757   0.960   1.025   7.428
   32TMC2    C5  758   0.837   1.069   7.467
   32TMC2    C6  759   0.793   1.058   7.593
   32TMC2     C  760   1.130   0.885   7.469
   32TMC2     O  761   1.200   0.924   7.378
   32TMC2     H  762   1.065   0.895   7.716
   32TMC2    H1  763   0.990   1.008   7.326
   32TMC2    H2  764   0.688   1.074   7.616
   32TMC2    C7  765   0.745   1.061   7.363
   32TMC2    C8  766   0.831   0.998   7.823
   32TMC2    O1  767   0.695   1.168   7.322
   32TMC2    O2  768   0.711   0.985   7.855
   32TMC2    O5  769   0.932   1.040   7.898
   32TMC2    H5  770   1.004   1.078   7.844
   33TMC2    C1  771   1.613   0.066  11.912
   33TMC2    C2  772   1.499   0.056  11.989
   33TMC2    C3  773   1.447   0.162  12.056
   33TMC2    C4  774   1.671   0.188  11.888
   33TMC2    C5  775   1.607   0.287  11.960
   33TMC2    C6  776   1.502   0.286  12.040
   33TMC2     C  777   1.613   4.757  11.814
   33TMC2     O  778   1.508   4.728  11.763
   33TMC2     H  779   1.460   4.751  12.023
   33TMC2    H1  780   1.740   0.212  11.808
   33TMC2    H2  781   1.456   0.375  12.081
   33TMC2    C7  782   1.668   0.417  11.941
   33TMC2    C8  783   1.353   0.140  12.155
   33TMC2    O1  784   1.603   0.516  11.957
   33TMC2    O2  785   1.273   0.050  12.145
   33TMC2    O5  786   1.353   0.240  12.247
   33TMC2    H5  787   1.427   0.304  12.245
   34TMC2    C1  788   2.244   3.562  10.453
   34TMC2    C2  789   2.186   3.513  10.565
   34TMC2    C3  790   2.257   3.523  10.683
   34TMC2    C4  791   2.365   3.625  10.453
   34TMC2    C5  792   2.437   3.628  10.570
   34TMC2    C6  793   2.388   3.573  10.685
   34TMC2     C  794   2.206   3.512  10.325
   34TMC2     O  795   2.289   3.452  10.259
   34TMC2     H  796   2.086   3.471  10.566
   34TMC2    H1  797   2.401   3.679  10.367
   34TMC2    H2  798   2.441   3.562  10.779
   34TMC2    C7  799   2.527   3.742  10.579
   34TMC2    C8  800   2.183   3.487  10.807
   34TMC2    O1  801   2.538   3.815  10.479
   34TMC2    O2  802   2.066   3.515  10.817
   34TMC2    O5  803   2.264   3.416  10.884
   34TMC2    H5  804   2.343   3.381  10.838
   35TMC2    C1  805   0.249   4.769   9.376
   35TMC2    C2  806   0.251   4.636   9.339
   35TMC2    C3  807   0.334   4.609   9.235
   35TMC2    C4  808   0.318   0.078   9.315
   35TMC2    C5  809   0.402   0.041   9.206
   35TMC2    C6  810   0.413   4.702   9.169
   35TMC2     C  811   0.178   0.015   9.500
   35TMC2     O  812   0.092   4.725   9.536
   35TMC2     H  813   0.199   4.555   9.389
   35TMC2    H1  814   0.319   0.183   9.340
   35TMC2    H2  815   0.488   4.684   9.094
   35TMC2    C7  816   0.486   0.141   9.143
   35TMC2    C8  817   0.369   4.478   9.197
   35TMC2    O1  818   0.517   0.122   9.029
   35TMC2    O2  819   0.469   4.449   9.140
   35TMC2    O5  820   0.248   4.421   9.166
   35TMC2    H5  821   0.171   4.481   9.165
   36TMC2    C1  822   0.898   0.489  15.275
   36TMC2    C2  823   0.872   0.366  15.235
   36TMC2    C3  824   0.743   0.323  15.246
   36TMC2    C4  825   0.804   0.578  15.308
   36TMC2    C5  826   0.674   0.530  15.314
   36TMC2    C6  827   0.639   0.409  15.273
   36TMC2     C  828   1.036   0.527  15.273
   36TMC2     O  829   1.087   0.572  15.373
   36TMC2     H  830   0.952   0.294  15.219
   36TMC2    H1  831   0.837   0.676  15.341
   36TMC2    H2  832   0.538   0.370  15.268
   36TMC2    C7  833   0.574   0.633  15.319
   36TMC2    C8  834   0.713   0.186  15.202
   36TMC2    O1  835   0.610   0.739  15.366
   36TMC2    O2  836   0.813   0.117  15.197
   36TMC2    O5  837   0.626   0.199  15.095
   36TMC2    H5  838   0.547   0.256  15.107
   37TMC2    C1  839   1.789   2.551  10.810
   37TMC2    C2  840   1.740   2.591  10.936
   37TMC2    C3  841   1.810   2.548  11.051
   37TMC2    C4  842   1.912   2.487  10.800
   37TMC2    C5  843   1.977   2.451  10.916
   37TMC2    C6  844   1.928   2.477  11.040
   37TMC2     C  845   1.783   2.643  10.703
   37TMC2     O  846   1.878   2.659  10.627
   37TMC2     H  847   1.648   2.647  10.938
   37TMC2    H1  848   1.942   2.448  10.703
   37TMC2    H2  849   1.985   2.445  11.127
   37TMC2    C7  850   2.114   2.509  10.911
   37TMC2    C8  851   1.775   2.594  11.180
   37TMC2    O1  852   2.186   2.497  11.010
   37TMC2    O2  853   1.797   2.538  11.284
   37TMC2    O5  854   1.690   2.700  11.171
   37TMC2    H5  855   1.684   2.746  11.084
   38TMC2    C1  856   1.672   3.763  10.173
   38TMC2    C2  857   1.722   3.833  10.064
   38TMC2    C3  858   1.755   3.962  10.081
   38TMC2    C4  859   1.638   3.820  10.289
   38TMC2    C5  860   1.656   3.956  10.301
   38TMC2    C6  861   1.730   4.022  10.203
   38TMC2     C  862   1.595   3.643  10.142
   38TMC2     O  863   1.483   3.637  10.183
   38TMC2     H  864   1.729   3.789   9.965
   38TMC2    H1  865   1.596   3.755  10.365
   38TMC2    H2  866   1.754   4.127  10.208
   38TMC2    C7  867   1.585   4.029  10.402
   38TMC2    C8  868   1.731   4.047   9.962
   38TMC2    O1  869   1.534   3.965  10.492
   38TMC2    O2  870   1.680   4.004   9.858
   38TMC2    O5  871   1.839   4.126   9.962
   38TMC2    H5  872   1.889   4.146  10.044
   39TMC2    C1  873   0.867   4.249   8.738
   39TMC2    C2  874   0.887   4.144   8.654
   39TMC2    C3  875   0.897   4.017   8.709
   39TMC2    C4  876   0.878   4.235   8.875
   39TMC2    C5  877   0.883   4.107   8.922
   39TMC2    C6  878   0.887   3.996   8.839
   39TMC2     C  879   0.867   4.390   8.684
   39TMC2     O  880   0.928   4.474   8.746
   39TMC2     H  881   0.864   4.155   8.549
   39TMC2    H1  882   0.870   4.323   8.938
   39TMC2    H2  883   0.886   3.894   8.877
   39TMC2    C7  884   0.898   4.090   9.064
   39TMC2    C8  885   0.900   3.897   8.630
   39TMC2    O1  886   0.857   3.986   9.118
   39TMC2    O2  887   0.866   3.792   8.677
   39TMC2    O5  888   0.985   3.899   8.525
   39TMC2    H5  889   1.012   3.993   8.513
   40TMC2    C1  890   0.915   0.215  14.867
   40TMC2    C2  891   0.826   0.114  14.878
   40TMC2    C3  892   0.888   4.777  14.872
   40TMC2    C4  893   1.049   0.202  14.874
   40TMC2    C5  894   1.104   0.075  14.889
   40TMC2    C6  895   1.021   4.760  14.877
   40TMC2     C  896   0.864   0.344  14.887
   40TMC2     O  897   0.930   0.423  14.951
   40TMC2     H  898   0.719   0.115  14.893
   40TMC2    H1  899   1.113   0.288  14.861
   40TMC2    H2  900   1.058   4.660  14.901
   40TMC2    C7  901   1.246   0.064  14.877
   40TMC2    C8  902   0.803   4.677  14.942
   40TMC2    O1  903   1.311   0.154  14.824
   40TMC2    O2  904   0.848   4.593  15.013
   40TMC2    O5  905   0.689   4.675  14.868
   40TMC2    H5  906   0.670   4.758  14.819
   41TMC2    C1  907   0.202   4.085   8.932
   41TMC2    C2  908   0.189   4.220   8.924
   41TMC2    C3  909   0.081   4.274   8.864
   41TMC2    C4  910   0.106   4.005   8.887
   41TMC2    C5  911   4.784   4.055   8.838
   41TMC2    C6  912   4.774   4.189   8.816
   41TMC2     C  913   0.309   4.022   9.002
   41TMC2     O  914   0.348   3.911   8.966
   41TMC2     H  915   0.267   4.283   8.965
   41TMC2    H1  916   0.118   3.899   8.906
   41TMC2    H2  917   4.684   4.229   8.773
   41TMC2    C7  918   4.676   3.965   8.796
   41TMC2    C8  919   0.061   4.415   8.852
   41TMC2    O1  920   4.595   4.017   8.721
   41TMC2    O2  921   4.748   4.468   8.814
   41TMC2    O5  922   0.182   4.487   8.865
   41TMC2    H5  923   0.263   4.433   8.862
   42TMC2    C1  924   3.125   3.573   8.068
   42TMC2    C2  925   3.061   3.608   8.189
   42TMC2    C3  926   3.140   3.611   8.301
   42TMC2    C4  927   3.257   3.546   8.059
   42TMC2    C5  928   3.326   3.530   8.174
   42TMC2    C6  929   3.275   3.574   8.294
   42TMC2     C  930   3.039   3.537   7.954
   42TMC2     O  931   3.084   3.568   7.843
   42TMC2     H  932   2.952   3.611   8.190
   42TMC2    H1  933   3.301   3.511   7.966
   42TMC2    H2  934   3.331   3.576   8.387
   42TMC2    C7  935   3.452   3.450   8.169
   42TMC2    C8  936   3.097   3.616   8.433
   42TMC2    O1  937   3.527   3.478   8.074
   42TMC2    O2  938   3.158   3.582   8.534
   42TMC2    O5  939   2.964   3.648   8.424
   42TMC2    H5  940   2.933   3.679   8.336
   43TMC2    C1  941   4.059   2.402   8.552
   43TMC2    C2  942   4.150   2.446   8.652
   43TMC2    C3  943   4.129   2.577   8.697
   43TMC2    C4  944   3.941   2.467   8.528
   43TMC2    C5  945   3.933   2.595   8.570
   43TMC2    C6  946   4.020   2.650   8.657
   43TMC2     C  947   4.113   2.394   8.421
   43TMC2     O  948   4.037   2.423   8.329
   43TMC2     H  949   4.236   2.387   8.683
   43TMC2    H1  950   3.858   2.422   8.475
   43TMC2    H2  951   4.007   2.755   8.681
   43TMC2    C7  952   3.874   2.693   8.482
   43TMC2    C8  953   4.232   2.619   8.785
   43TMC2    O1  954   3.819   2.790   8.532
   43TMC2    O2  955   4.277   2.549   8.875
   43TMC2    O5  956   4.312   2.676   8.697
   43TMC2    H5  957   4.267   2.711   8.617
   44TMC2    C1  958   4.764   0.785  11.938
   44TMC2    C2  959   4.655   0.859  11.955
   44TMC2    C3  960   4.655   0.988  11.905
   44TMC2    C4  961   0.084   0.837  11.884
   44TMC2    C5  962   0.089   0.971  11.848
   44TMC2    C6  963   4.764   1.043  11.847
   44TMC2     C  964   4.775   0.655  12.008
   44TMC2     O  965   0.095   0.606  12.027
   44TMC2     H  966   4.578   0.821  12.021
   44TMC2    H1  967   0.171   0.775  11.869
   44TMC2    H2  968   4.766   1.151  11.844
   44TMC2    C7  969   0.214   1.012  11.787
   44TMC2    C8  970   4.549   1.086  11.937
   44TMC2    O1  971   0.322   0.971  11.827
   44TMC2    O2  972   4.539   1.198  11.887
   44TMC2    O5  973   4.528   1.062  12.070
   44TMC2    H5  974   4.547   0.968  12.094
   45TMC2    C1  975   1.518   4.053  14.682
   45TMC2    C2  976   1.600   4.133  14.753
   45TMC2    C3  977   1.740   4.113  14.737
   45TMC2    C4  978   1.555   3.949  14.603
   45TMC2    C5  979   1.686   3.921  14.608
   45TMC2    C6  980   1.775   3.997  14.670
   45TMC2     C  981   1.394   4.115  14.648
   45TMC2     O  982   1.364   4.102  14.530
   45TMC2     H  983   1.567   4.216  14.815
   45TMC2    H1  984   1.480   3.897  14.545
   45TMC2    H2  985   1.882   3.979  14.670
   45TMC2    C7  986   1.743   3.803  14.557
   45TMC2    C8  987   1.847   4.213  14.744
   45TMC2    O1  988   1.711   3.763  14.446
   45TMC2    O2  989   1.963   4.179  14.757
   45TMC2    O5  990   1.803   4.339  14.758
   45TMC2    H5  991   1.718   4.342  14.709
   46TMC2    C1  992   2.717   1.892  15.102
   46TMC2    C2  993   2.622   1.943  15.011
   46TMC2    C3  994   2.642   2.068  14.961
   46TMC2    C4  995   2.827   1.961  15.133
   46TMC2    C5  996   2.850   2.088  15.079
   46TMC2    C6  997   2.757   2.137  14.992
   46TMC2     C  998   2.704   1.760  15.166
   46TMC2     O  999   2.811   1.701  15.176
   46TMC2     H 1000   2.535   1.885  14.983
   46TMC2    H1 1001   2.885   1.935  15.220
   46TMC2    H2 1002   2.773   2.234  14.944
   46TMC2    C7 1003   2.890   2.190  15.176
   46TMC2    C8 1004   2.561   2.113  14.840
   46TMC2    O1 1005   2.900   2.155  15.293
   46TMC2    O2 1006   2.519   2.038  14.753
   46TMC2    O5 1007   2.591   2.245  14.817
   46TMC2    H5 1008   2.609   2.297  14.899
   47TMC2    C1 1009   4.276   1.867  12.252
   47TMC2    C2 1010   4.291   1.896  12.117
   47TMC2    C3 1011   4.178   1.902  12.042
   47TMC2    C4 1012   4.156   1.825  12.303
   47TMC2    C5 1013   4.052   1.819  12.219
   47TMC2    C6 1014   4.054   1.869  12.090
   47TMC2     C 1015   4.385   1.863  12.347
   47TMC2     O 1016   4.349   1.881  12.465
   47TMC2     H 1017   4.392   1.909  12.080
   47TMC2    H1 1018   4.137   1.784  12.401
   47TMC2    H2 1019   3.969   1.869  12.023
   47TMC2    C7 1020   4.000   1.687  12.236
   47TMC2    C8 1021   4.197   1.860  11.910
   47TMC2    O1 1022   3.948   1.648  12.341
   47TMC2    O2 1023   4.105   1.886  11.834
   47TMC2    O5 1024   4.241   1.730  11.934
   47TMC2    H5 1025   4.329   1.719  11.976
   48TMC2    C1 1026   1.736   2.013  10.225
   48TMC2    C2 1027   1.732   1.880  10.267
   48TMC2    C3 1028   1.833   1.837  10.354
   48TMC2    C4 1029   1.828   2.105  10.270
   48TMC2    C5 1030   1.922   2.060  10.362
   48TMC2    C6 1031   1.925   1.922  10.399
   48TMC2     C 1032   1.639   2.061  10.126
   48TMC2     O 1033   1.660   2.165  10.072
   48TMC2     H 1034   1.668   1.806  10.221
   48TMC2    H1 1035   1.809   2.209  10.247
   48TMC2    H2 1036   2.011   1.877  10.447
   48TMC2    C7 1037   2.043   2.139  10.389
   48TMC2    C8 1038   1.859   1.700  10.347
   48TMC2    O1 1039   2.142   2.084  10.441
   48TMC2    O2 1040   1.782   1.613  10.385
   48TMC2    O5 1041   1.937   1.688  10.238
   48TMC2    H5 1042   1.976   1.772  10.206
   49TMC2    C1 1043   1.876   4.137  11.493
   49TMC2    C2 1044   1.860   4.190  11.367
   49TMC2    C3 1045   1.745   4.148  11.298
   49TMC2    C4 1046   1.782   4.048  11.549
   49TMC2    C5 1047   1.665   4.031  11.480
   49TMC2    C6 1048   1.657   4.067  11.349
   49TMC2     C 1049   2.003   4.156  11.554
   49TMC2     O 1050   2.069   4.253  11.519
   49TMC2     H 1051   1.932   4.255  11.318
   49TMC2    H1 1052   1.788   4.018  11.653
   49TMC2    H2 1053   1.567   4.055  11.290
   49TMC2    C7 1054   1.556   3.949  11.533
   49TMC2    C8 1055   1.756   4.172  11.159
   49TMC2    O1 1056   1.479   3.899  11.449
   49TMC2    O2 1057   1.844   4.245  11.115
   49TMC2    O5 1058   1.693   4.073  11.095
   49TMC2    H5 1059   1.631   4.024  11.154
   50TMC2    C1 1060   3.358   1.459  14.243
   50TMC2    C2 1061   3.255   1.427  14.161
   50TMC2    C3 1062   3.242   1.495  14.046
   50TMC2    C4 1063   3.427   1.574  14.226
   50TMC2    C5 1064   3.405   1.658  14.119
   50TMC2    C6 1065   3.313   1.614  14.021
   50TMC2     C 1066   3.385   1.370  14.351
   50TMC2     O 1067   3.291   1.313  14.401
   50TMC2     H 1068   3.216   1.326  14.167
   50TMC2    H1 1069   3.508   1.600  14.294
   50TMC2    H2 1070   3.313   1.666  13.926
   50TMC2    C7 1071   3.506   1.749  14.073
   50TMC2    C8 1072   3.159   1.435  13.948
   50TMC2    O1 1073   3.620   1.707  14.059
   50TMC2    O2 1074   3.154   1.314  13.941
   50TMC2    O5 1075   3.117   1.529  13.860
   50TMC2    H5 1076   3.130   1.618  13.901
   51TMC2    C1 1077   2.077   1.906  14.829
   51TMC2    C2 1078   2.127   1.925  14.703
   51TMC2    C3 1079   2.037   1.927  14.601
   51TMC2    C4 1080   1.937   1.897  14.850
   51TMC2    C5 1081   1.853   1.896  14.742
   51TMC2    C6 1082   1.905   1.903  14.620
   51TMC2     C 1083   2.149   1.965  14.943
   51TMC2     O 1084   2.125   1.917  15.055
   51TMC2     H 1085   2.231   1.952  14.693
   51TMC2    H1 1086   1.900   1.884  14.951
   51TMC2    H2 1087   1.845   1.910  14.530
   51TMC2    C7 1088   1.714   1.912  14.764
   51TMC2    C8 1089   2.090   1.880  14.467
   51TMC2    O1 1090   1.649   1.865  14.670
   51TMC2    O2 1091   2.013   1.818  14.396
   51TMC2    O5 1092   2.175   1.976  14.426
   51TMC2    H5 1093   2.222   2.029  14.495
   52TMC2    C1 1094   3.859   4.004   9.419
   52TMC2    C2 1095   3.920   3.906   9.343
   52TMC2    C3 1096   4.035   3.955   9.285
   52TMC2    C4 1097   3.917   4.129   9.435
   52TMC2    C5 1098   4.024   4.174   9.357
   52TMC2    C6 1099   4.085   4.080   9.274
   52TMC2     C 1100   3.738   3.970   9.487
   52TMC2     O 1101   3.659   4.058   9.510
   52TMC2     H 1102   3.894   3.802   9.329
   52TMC2    H1 1103   3.858   4.210   9.476
   52TMC2    H2 1104   4.166   4.106   9.206
   52TMC2    C7 1105   4.104   4.298   9.380
   52TMC2    C8 1106   4.121   3.856   9.221
   52TMC2    O1 1107   4.195   4.318   9.295
   52TMC2    O2 1108   4.191   3.888   9.119
   52TMC2    O5 1109   4.141   3.763   9.311
   52TMC2    H5 1110   4.074   3.761   9.382
   53TMC2    C1 1111   1.333   4.587   9.543
   53TMC2    C2 1112   1.410   4.529   9.638
   53TMC2    C3 1113   1.505   4.600   9.701
   53TMC2    C4 1114   1.337   4.721   9.525
   53TMC2    C5 1115   1.438   4.788   9.584
   53TMC2    C6 1116   1.529   4.732   9.669
   53TMC2     C 1117   1.250   4.521   9.448
   53TMC2     O 1118   1.228   4.567   9.333
   53TMC2     H 1119   1.409   4.421   9.651
   53TMC2    H1 1120   1.281   4.776   9.451
   53TMC2    H2 1121   1.598   0.008   9.719
   53TMC2    C7 1122   1.430   0.141   9.617
   53TMC2    C8 1123   1.581   4.549   9.819
   53TMC2    O1 1124   1.539   0.198   9.614
   53TMC2    O2 1125   1.683   4.489   9.793
   53TMC2    O5 1126   1.558   4.635   9.916
   53TMC2    H5 1127   1.473   4.684   9.912
   54TMC2    C1 1128   2.400   3.432  13.949
   54TMC2    C2 1129   2.294   3.457  13.864
   54TMC2    C3 1130   2.167   3.482  13.920
   54TMC2    C4 1131   2.391   3.445  14.089
   54TMC2    C5 1132   2.265   3.470  14.134
   54TMC2    C6 1133   2.154   3.487  14.055
   54TMC2     C 1134   2.533   3.390  13.903
   54TMC2     O 1135   2.608   3.346  13.991
   54TMC2     H 1136   2.309   3.462  13.756
   54TMC2    H1 1137   2.473   3.442  14.159
   54TMC2    H2 1138   2.054   3.480  14.097
   54TMC2    C7 1139   2.250   3.457  14.279
   54TMC2    C8 1140   2.053   3.471  13.841
   54TMC2    O1 1141   2.342   3.409  14.344
   54TMC2    O2 1142   2.051   3.399  13.745
   54TMC2    O5 1143   1.946   3.514  13.909
   54TMC2    H5 1144   1.957   3.584  13.976
   55TMC2    C1 1145   3.861   3.444   8.164
   55TMC2    C2 1146   3.910   3.523   8.065
   55TMC2    C3 1147   3.920   3.475   7.940
   55TMC2    C4 1148   3.813   3.316   8.142
   55TMC2    C5 1149   3.823   3.271   8.007
   55TMC2    C6 1150   3.876   3.348   7.908
   55TMC2     C 1151   3.815   3.495   8.288
   55TMC2     O 1152   3.792   3.408   8.370
   55TMC2     H 1153   3.963   3.614   8.090
   55TMC2    H1 1154   3.740   3.267   8.206
   55TMC2    H2 1155   3.895   3.313   7.807
   55TMC2    C7 1156   3.810   3.129   7.980
   55TMC2    C8 1157   3.988   3.549   7.830
   55TMC2    O1 1158   3.818   3.078   7.869
   55TMC2    O2 1159   4.031   3.504   7.725
   55TMC2    O5 1160   3.958   3.681   7.849
   55TMC2    H5 1161   3.907   3.687   7.933
   56TMC2    C1 1162   2.334   1.213  14.667
   56TMC2    C2 1163   2.348   1.272  14.546
   56TMC2    C3 1164   2.467   1.335  14.524
   56TMC2    C4 1165   2.424   1.223  14.766
   56TMC2    C5 1166   2.534   1.285  14.743
   56TMC2    C6 1167   2.567   1.328  14.615
   56TMC2     C 1168   2.201   1.165  14.695
   56TMC2     O 1169   2.116   1.247  14.663
   56TMC2     H 1170   2.266   1.258  14.477
   56TMC2    H1 1171   2.394   1.166  14.853
   56TMC2    H2 1172   2.656   1.389  14.603
   56TMC2    C7 1173   2.643   1.254  14.835
   56TMC2    C8 1174   2.485   1.418  14.406
   56TMC2    O1 1175   2.750   1.256  14.783
   56TMC2    O2 1176   2.552   1.523  14.405
   56TMC2    O5 1177   2.444   1.347  14.301
   56TMC2    H5 1178   2.429   1.250  14.312
   57TMC2    C1 1179   3.842   0.785   8.686
   57TMC2    C2 1180   3.874   0.888   8.766
   57TMC2    C3 1181   3.996   0.894   8.828
   57TMC2    C4 1182   3.919   0.668   8.692
   57TMC2    C5 1183   4.028   0.674   8.768
   57TMC2    C6 1184   4.074   0.779   8.832
   57TMC2     C 1185   3.711   0.772   8.619
   57TMC2     O 1186   3.669   0.668   8.588
   57TMC2     H 1187   3.800   0.965   8.782
   57TMC2    H1 1188   3.886   0.576   8.646
   57TMC2    H2 1189   4.173   0.781   8.875
   57TMC2    C7 1190   4.097   0.555   8.796
   57TMC2    C8 1191   4.053   1.025   8.852
   57TMC2    O1 1192   4.150   0.545   8.906
   57TMC2    O2 1193   4.141   1.050   8.936
   57TMC2    O5 1194   4.026   1.097   8.746
   57TMC2    H5 1195   3.956   1.060   8.689
   58TMC2    C1 1196   1.372   2.829  14.510
   58TMC2    C2 1197   1.461   2.898  14.438
   58TMC2    C3 1198   1.508   2.837  14.322
   58TMC2    C4 1199   1.331   2.705  14.474
   58TMC2    C5 1200   1.360   2.659  14.346
   58TMC2    C6 1201   1.460   2.718  14.273
   58TMC2     C 1202   1.355   2.879  14.644
   58TMC2     O 1203   1.332   2.794  14.727
   58TMC2     H 1204   1.507   2.987  14.479
   58TMC2    H1 1205   1.247   2.658  14.525
   58TMC2    H2 1206   1.498   2.667  14.185
   58TMC2    C7 1207   1.296   2.540  14.299
   58TMC2    C8 1208   1.634   2.882  14.266
   58TMC2    O1 1209   1.349   2.484  14.203
   58TMC2    O2 1210   1.741   2.831  14.291
   58TMC2    O5 1211   1.595   2.902  14.139
   58TMC2    H5 1212   1.504   2.938  14.137
   59TMC2    C1 1213   2.552   0.170  13.283
   59TMC2    C2 1214   2.635   0.120  13.189
   59TMC2    C3 1215   2.769   0.149  13.205
   59TMC2    C4 1216   2.589   0.252  13.386
   59TMC2    C5 1217   2.724   0.269  13.393
   59TMC2    C6 1218   2.816   0.222  13.305
   59TMC2     C 1219   2.412   0.119  13.270
   59TMC2     O 1220   2.388   0.035  13.187
   59TMC2     H 1221   2.601   0.049  13.115
   59TMC2    H1 1222   2.528   0.273  13.473
   59TMC2    H2 1223   2.917   0.262  13.305
   59TMC2    C7 1224   2.782   0.358  13.496
   59TMC2    C8 1225   2.859   0.069  13.124
   59TMC2    O1 1226   2.891   0.318  13.533
   59TMC2    O2 1227   2.822   4.775  13.045
   59TMC2    O5 1228   2.983   0.060  13.184
   59TMC2    H5 1229   2.996   0.142  13.235
   60TMC2    C1 1230   1.345   2.438  10.876
   60TMC2    C2 1231   1.459   2.372  10.928
   60TMC2    C3 1232   1.450   2.249  10.969
   60TMC2    C4 1233   1.217   2.386  10.888
   60TMC2    C5 1234   1.210   2.261  10.939
   60TMC2    C6 1235   1.323   2.192  10.978
   60TMC2     C 1236   1.354   2.578  10.889
   60TMC2     O 1237   1.444   2.629  10.828
   60TMC2     H 1238   1.549   2.427  10.950
   60TMC2    H1 1239   1.126   2.442  10.867
   60TMC2    H2 1240   1.311   2.092  11.017
   60TMC2    C7 1241   1.080   2.194  10.956
   60TMC2    C8 1242   1.568   2.193  11.035
   60TMC2    O1 1243   1.081   2.092  11.025
   60TMC2    O2 1244   1.672   2.190  10.970
   60TMC2    O5 1245   1.556   2.232  11.164
   60TMC2    H5 1246   1.460   2.243  11.182
   61TMC2    C1 1247   4.504   3.433   9.916
   61TMC2    C2 1248   4.586   3.463   9.809
   61TMC2    C3 1249   4.587   3.380   9.694
   61TMC2    C4 1250   4.418   3.326   9.894
   61TMC2    C5 1251   4.419   3.253   9.786
   61TMC2    C6 1252   4.497   3.272   9.678
   61TMC2     C 1253   4.438   3.534  10.004
   61TMC2     O 1254   4.328   3.499  10.047
   61TMC2     H 1255   4.645   3.553   9.820
   61TMC2    H1 1256   4.355   3.290   9.975
   61TMC2    H2 1257   4.487   3.224   9.581
   61TMC2    C7 1258   4.316   3.148   9.758
   61TMC2    C8 1259   4.654   3.426   9.569
   61TMC2    O1 1260   4.354   3.049   9.696
   61TMC2    O2 1261   4.645   3.399   9.448
   61TMC2    O5 1262   4.766   3.491   9.611
   61TMC2    H5 1263   4.786   3.483   9.706
   62TMC2    C1 1264   0.830   0.488  10.523
   62TMC2    C2 1265   0.791   0.356  10.519
   62TMC2    C3 1266   0.670   0.326  10.570
   62TMC2    C4 1267   0.756   0.589  10.582
   62TMC2    C5 1268   0.643   0.551  10.640
   62TMC2    C6 1269   0.596   0.420  10.628
   62TMC2     C 1270   0.954   0.515  10.469
   62TMC2     O 1271   1.045   0.434  10.486
   62TMC2     H 1272   0.868   0.287  10.486
   62TMC2    H1 1273   0.783   0.693  10.588
   62TMC2    H2 1274   0.499   0.391  10.668
   62TMC2    C7 1275   0.560   0.658  10.693
   62TMC2    C8 1276   0.630   0.186  10.559
   62TMC2    O1 1277   0.617   0.761  10.730
   62TMC2    O2 1278   0.586   0.124  10.653
   62TMC2    O5 1279   0.683   0.129  10.450
   62TMC2    H5 1280   0.691   0.196  10.378
   63TMC2    C1 1281   3.928   3.869   6.997
   63TMC2    C2 1282   3.981   3.894   7.117
   63TMC2    C3 1283   4.108   3.953   7.122
   63TMC2    C4 1284   3.982   3.897   6.875
   63TMC2    C5 1285   4.114   3.940   6.889
   63TMC2    C6 1286   4.173   3.976   7.004
   63TMC2     C 1287   3.803   3.813   7.007
   63TMC2     O 1288   3.760   3.770   7.116
   63TMC2     H 1289   3.933   3.870   7.212
   63TMC2    H1 1290   3.939   3.861   6.783
   63TMC2    H2 1291   4.275   4.012   6.999
   63TMC2    C7 1292   4.203   3.929   6.778
   63TMC2    C8 1293   4.176   3.920   7.243
   63TMC2    O1 1294   4.302   4.001   6.772
   63TMC2    O2 1295   4.171   3.810   7.301
   63TMC2    O5 1296   4.273   4.005   7.251
   63TMC2    H5 1297   4.253   4.085   7.198
   64TMC2    C1 1298   3.594   1.321   7.548
   64TMC2    C2 1299   3.525   1.209   7.498
   64TMC2    C3 1300   3.586   1.141   7.396
   64TMC2    C4 1301   3.731   1.344   7.519
   64TMC2    C5 1302   3.786   1.257   7.423
   64TMC2    C6 1303   3.722   1.157   7.361
   64TMC2     C 1304   3.547   1.357   7.675
   64TMC2     O 1305   3.435   1.312   7.700
   64TMC2     H 1306   3.424   1.186   7.528
   64TMC2    H1 1307   3.788   1.429   7.554
   64TMC2    H2 1308   3.767   1.114   7.272
   64TMC2    C7 1309   3.922   1.288   7.391
   64TMC2    C8 1310   3.526   1.032   7.325
   64TMC2    O1 1311   3.953   1.405   7.398
   64TMC2    O2 1312   3.586   0.944   7.268
   64TMC2    O5 1313   3.393   1.045   7.312
   64TMC2    H5 1314   3.353   1.097   7.385
   65TMC2    C1 1315   0.554   4.181   6.822
   65TMC2    C2 1316   0.669   4.117   6.851
   65TMC2    C3 1317   0.668   4.026   6.951
   65TMC2    C4 1318   0.431   4.159   6.884
   65TMC2    C5 1319   0.439   4.062   6.979
   65TMC2    C6 1320   0.552   3.998   7.016
   65TMC2     C 1321   0.560   4.296   6.732
   65TMC2     O 1322   0.668   4.346   6.696
   65TMC2     H 1323   0.748   4.114   6.777
   65TMC2    H1 1324   0.352   4.232   6.886
   65TMC2    H2 1325   0.562   3.905   7.072
   65TMC2    C7 1326   0.324   4.006   7.040
   65TMC2    C8 1327   0.766   3.912   6.941
   65TMC2    O1 1328   0.348   3.956   7.148
   65TMC2    O2 1329   0.835   3.897   6.841
   65TMC2    O5 1330   0.802   3.896   7.073
   65TMC2    H5 1331   0.742   3.929   7.143
   66TMC2    C1 1332   3.001   0.614  15.036
   66TMC2    C2 1333   2.876   0.672  15.044
   66TMC2    C3 1334   2.792   0.628  15.141
   66TMC2    C4 1335   3.025   0.499  15.113
   66TMC2    C5 1336   2.941   0.462  15.215
   66TMC2    C6 1337   2.818   0.529  15.239
   66TMC2     C 1338   3.053   0.604  14.899
   66TMC2     O 1339   2.981   0.648  14.806
   66TMC2     H 1340   2.853   0.765  14.992
   66TMC2    H1 1341   3.097   0.428  15.072
   66TMC2    H2 1342   2.747   0.504  15.317
   66TMC2    C7 1343   2.984   0.341  15.274
   66TMC2    C8 1344   2.681   0.716  15.160
   66TMC2    O1 1345   2.895   0.268  15.321
   66TMC2    O2 1346   2.596   0.748  15.077
   66TMC2    O5 1347   2.659   0.739  15.290
   66TMC2    H5 1348   2.721   0.708  15.359
   67TMC2    C1 1349   3.572   4.640   7.102
   67TMC2    C2 1350   3.517   4.702   7.209
   67TMC2    C3 1351   3.601   4.704   7.323
   67TMC2    C4 1352   3.705   4.625   7.104
   67TMC2    C5 1353   3.786   4.649   7.208
   67TMC2    C6 1354   3.732   4.668   7.330
   67TMC2     C 1355   3.486   4.632   6.992
   67TMC2     O 1356   3.375   4.583   7.011
   67TMC2     H 1357   3.411   4.725   7.202
   67TMC2    H1 1358   3.755   4.596   7.013
   67TMC2    H2 1359   3.795   4.675   7.418
   67TMC2    C7 1360   3.930   4.612   7.197
   67TMC2    C8 1361   3.555   4.766   7.447
   67TMC2    O1 1362   3.978   4.546   7.101
   67TMC2    O2 1363   3.630   4.750   7.542
   67TMC2    O5 1364   3.425   4.782   7.452
   67TMC2    H5 1365   3.382   4.789   7.364
   68TMC2    C1 1366   3.374   0.616   7.356
   68TMC2    C2 1367   3.457   0.516   7.325
   68TMC2    C3 1368   3.575   0.497   7.395
   68TMC2    C4 1369   3.404   0.706   7.460
   68TMC2    C5 1370   3.523   0.681   7.527
   68TMC2    C6 1371   3.610   0.577   7.495
   68TMC2     C 1372   3.251   0.622   7.281
   68TMC2     O 1373   3.210   0.522   7.221
   68TMC2     H 1374   3.423   0.441   7.254
   68TMC2    H1 1375   3.343   0.795   7.473
   68TMC2    H2 1376   3.710   0.573   7.536
   68TMC2    C7 1377   3.578   0.783   7.609
   68TMC2    C8 1378   3.685   0.429   7.333
   68TMC2    O1 1379   3.699   0.789   7.614
   68TMC2    O2 1380   3.775   0.374   7.398
   68TMC2    O5 1381   3.702   0.488   7.213
   68TMC2    H5 1382   3.644   0.564   7.191
   69TMC2    C1 1383   0.348   1.641   6.934
   69TMC2    C2 1384   0.392   1.715   7.044
   69TMC2    C3 1385   0.304   1.727   7.149
   69TMC2    C4 1386   0.227   1.580   6.930
   69TMC2    C5 1387   0.140   1.597   7.033
   69TMC2    C6 1388   0.179   1.674   7.143
   69TMC2     C 1389   0.461   1.582   6.864
   69TMC2     O 1390   0.574   1.577   6.913
   69TMC2     H 1391   0.492   1.756   7.053
   69TMC2    H1 1392   0.208   1.512   6.848
   69TMC2    H2 1393   0.106   1.717   7.211
   69TMC2    C7 1394   0.047   1.484   7.036
   69TMC2    C8 1395   0.352   1.805   7.258
   69TMC2    O1 1396   0.012   1.424   6.935
   69TMC2    O2 1397   0.435   1.889   7.247
   69TMC2    O5 1398   0.280   1.778   7.374
   69TMC2    H5 1399   0.235   1.692   7.381
   70TMC2    C1 1400   0.661   4.783   6.842
   70TMC2    C2 1401   0.584   4.673   6.867
   70TMC2    C3 1402   0.457   4.691   6.901
   70TMC2    C4 1403   0.617   0.116   6.868
   70TMC2    C5 1404   0.492   0.135   6.920
   70TMC2    C6 1405   0.407   0.026   6.940
   70TMC2     C 1406   0.807   4.773   6.826
   70TMC2     O 1407   0.857   0.038   6.730
   70TMC2     H 1408   0.622   4.571   6.859
   70TMC2    H1 1409   0.675   0.205   6.844
   70TMC2    H2 1410   0.315   0.018   6.996
   70TMC2    C7 1411   0.461   0.268   6.963
   70TMC2    C8 1412   0.388   4.571   6.939
   70TMC2    O1 1413   0.532   0.359   6.926
   70TMC2    O2 1414   0.433   4.459   6.969
   70TMC2    O5 1415   0.264   4.589   6.895
   70TMC2    H5 1416   0.261   4.665   6.833
   71TMC2    C1 1417   0.951   3.233  10.291
   71TMC2    C2 1418   1.073   3.296  10.303
   71TMC2    C3 1419   1.078   3.423  10.339
   71TMC2    C4 1420   0.832   3.296  10.304
   71TMC2    C5 1421   0.840   3.423  10.350
   71TMC2    C6 1422   0.956   3.498  10.366
   71TMC2     C 1423   0.941   3.096  10.343
   71TMC2     O 1424   0.846   3.028  10.305
   71TMC2     H 1425   1.164   3.240  10.288
   71TMC2    H1 1426   0.741   3.239  10.293
   71TMC2    H2 1427   0.961   3.592  10.420
   71TMC2    C7 1428   0.719   3.496  10.388
   71TMC2    C8 1429   1.199   3.496  10.367
   71TMC2    O1 1430   0.714   3.619  10.397
   71TMC2    O2 1431   1.189   3.613  10.409
   71TMC2    O5 1432   1.297   3.438  10.297
   71TMC2    H5 1433   1.361   3.508  10.270
   72TMC2    C1 1434   0.849   4.522  10.859
   72TMC2    C2 1435   0.777   4.408  10.857
   72TMC2    C3 1436   0.757   4.331  10.968
   72TMC2    C4 1437   0.893   4.567  10.982
   72TMC2    C5 1438   0.878   4.481  11.095
   72TMC2    C6 1439   0.817   4.358  11.084
   72TMC2     C 1440   0.908   4.584  10.741
   72TMC2     O 1441   0.923   4.701  10.754
   72TMC2     H 1442   0.729   4.382  10.763
   72TMC2    H1 1443   0.948   4.659  10.989
   72TMC2    H2 1444   0.800   4.296  11.172
   72TMC2    C7 1445   0.950   4.506  11.218
   72TMC2    C8 1446   0.650   4.234  10.959
   72TMC2    O1 1447   0.959   4.412  11.297
   72TMC2    O2 1448   0.589   4.219  10.854
   72TMC2    O5 1449   0.593   4.223  11.084
   72TMC2    H5 1450   0.616   4.299  11.141
   73TMC2    C1 1451   0.193   3.586   6.564
   73TMC2    C2 1452   0.298   3.672   6.601
   73TMC2    C3 1453   0.272   3.807   6.614
   73TMC2    C4 1454   0.062   3.632   6.550
   73TMC2    C5 1455   0.041   3.765   6.581
   73TMC2    C6 1456   0.140   3.850   6.622
   73TMC2     C 1457   0.214   3.438   6.562
   73TMC2     O 1458   0.125   3.369   6.514
   73TMC2     H 1459   0.399   3.639   6.623
   73TMC2    H1 1460   4.779   3.555   6.533
   73TMC2    H2 1461   0.120   3.954   6.644
   73TMC2    C7 1462   4.696   3.811   6.588
   73TMC2    C8 1463   0.376   3.902   6.662
   73TMC2    O1 1464   4.663   3.905   6.663
   73TMC2    O2 1465   0.487   3.867   6.710
   73TMC2    O5 1466   0.345   4.023   6.620
   73TMC2    H5 1467   0.281   4.033   6.546
   74TMC2    C1 1468   1.370   1.968  14.149
   74TMC2    C2 1469   1.289   1.906  14.242
   74TMC2    C3 1470   1.322   1.894  14.371
   74TMC2    C4 1471   1.494   2.005  14.185
   74TMC2    C5 1472   1.522   1.994  14.324
   74TMC2    C6 1473   1.437   1.943  14.419
   74TMC2     C 1474   1.307   2.040  14.042
   74TMC2     O 1475   1.208   1.982  13.999
   74TMC2     H 1476   1.190   1.873  14.216
   74TMC2    H1 1477   1.560   2.052  14.113
   74TMC2    H2 1478   1.473   1.931  14.521
   74TMC2    C7 1479   1.636   2.072  14.369
   74TMC2    C8 1480   1.243   1.811  14.457
   74TMC2    O1 1481   1.726   2.083  14.287
   74TMC2    O2 1482   1.173   1.723  14.410
   74TMC2    O5 1483   1.202   1.887  14.560
   74TMC2    H5 1484   1.260   1.965  14.571
   75TMC2    C1 1485   2.974   0.700   8.548
   75TMC2    C2 1486   2.915   0.777   8.453
   75TMC2    C3 1487   2.927   0.917   8.463
   75TMC2    C4 1488   3.054   0.758   8.652
   75TMC2    C5 1489   3.060   0.900   8.659
   75TMC2    C6 1490   2.997   0.977   8.565
   75TMC2     C 1491   2.957   0.558   8.537
   75TMC2     O 1492   2.877   0.521   8.453
   75TMC2     H 1493   2.849   0.727   8.383
   75TMC2    H1 1494   3.094   0.702   8.735
   75TMC2    H2 1495   3.023   1.082   8.573
   75TMC2    C7 1496   3.117   0.974   8.773
   75TMC2    C8 1497   2.919   0.997   8.338
   75TMC2    O1 1498   3.106   1.093   8.782
   75TMC2    O2 1499   2.981   1.100   8.330
   75TMC2    O5 1500   2.803   0.970   8.266
   75TMC2    H5 1501   2.734   0.918   8.312
   76TMC2    C1 1502   3.251   4.404   7.760
   76TMC2    C2 1503   3.305   4.444   7.876
   76TMC2    C3 1504   3.436   4.495   7.870
   76TMC2    C4 1505   3.325   4.402   7.643
   76TMC2    C5 1506   3.450   4.454   7.642
   76TMC2    C6 1507   3.514   4.495   7.755
   76TMC2     C 1508   3.165   4.292   7.772
   76TMC2     O 1509   3.110   4.282   7.881
   76TMC2     H 1510   3.249   4.455   7.968
   76TMC2    H1 1511   3.277   4.372   7.550
   76TMC2    H2 1512   3.605   4.551   7.742
   76TMC2    C7 1513   3.527   4.417   7.525
   76TMC2    C8 1514   3.514   4.527   7.988
   76TMC2    O1 1515   3.469   4.352   7.440
   76TMC2    O2 1516   3.627   4.575   7.986
   76TMC2    O5 1517   3.477   4.422   8.071
   76TMC2    H5 1518   3.395   4.375   8.048
   77TMC2    C1 1519   0.936   3.205   8.898
   77TMC2    C2 1520   0.822   3.186   8.817
   77TMC2    C3 1521   0.831   3.199   8.678
   77TMC2    C4 1522   1.053   3.253   8.839
   77TMC2    C5 1523   1.041   3.291   8.705
   77TMC2    C6 1524   0.933   3.265   8.622
   77TMC2     C 1525   0.921   3.258   9.032
   77TMC2     O 1526   1.021   3.263   9.100
   77TMC2     H 1527   0.726   3.145   8.847
   77TMC2    H1 1528   1.144   3.268   8.897
   77TMC2    H2 1529   0.942   3.289   8.517
   77TMC2    C7 1530   1.153   3.369   8.648
   77TMC2    C8 1531   0.713   3.211   8.602
   77TMC2    O1 1532   1.168   3.340   8.531
   77TMC2    O2 1533   0.605   3.232   8.656
   77TMC2    O5 1534   0.722   3.142   8.483
   77TMC2    H5 1535   0.809   3.115   8.447
   78TMC2    C1 1536   0.587   3.292   9.585
   78TMC2    C2 1537   0.684   3.190   9.561
   78TMC2    C3 1538   0.817   3.224   9.569
   78TMC2    C4 1539   0.630   3.421   9.602
   78TMC2    C5 1540   0.763   3.449   9.608
   78TMC2    C6 1541   0.857   3.352   9.599
   78TMC2     C 1542   0.445   3.262   9.557
   78TMC2     O 1543   0.371   3.355   9.514
   78TMC2     H 1544   0.655   3.090   9.533
   78TMC2    H1 1545   0.557   3.497   9.623
   78TMC2    H2 1546   0.961   3.356   9.628
   78TMC2    C7 1547   0.790   3.539   9.716
   78TMC2    C8 1548   0.908   3.129   9.617
   78TMC2    O1 1549   0.706   3.551   9.809
   78TMC2    O2 1550   0.952   3.143   9.731
   78TMC2    O5 1551   0.876   3.010   9.564
   78TMC2    H5 1552   0.844   3.011   9.471
   79TMC2    C1 1553   2.251   3.082  14.087
   79TMC2    C2 1554   2.337   3.110  14.188
   79TMC2    C3 1555   2.474   3.097  14.174
   79TMC2    C4 1556   2.298   3.027  13.970
   79TMC2    C5 1557   2.431   3.019  13.956
   79TMC2    C6 1558   2.523   3.057  14.056
   79TMC2     C 1559   2.118   3.135  14.087
   79TMC2     O 1560   2.063   3.148  13.982
   79TMC2     H 1561   2.311   3.145  14.287
   79TMC2    H1 1562   2.222   2.999  13.898
   79TMC2    H2 1563   2.628   3.034  14.044
   79TMC2    C7 1564   2.479   2.908  13.870
   79TMC2    C8 1565   2.559   3.104  14.290
   79TMC2    O1 1566   2.554   2.826  13.920
   79TMC2    O2 1567   2.549   3.049  14.398
   79TMC2    O5 1568   2.644   3.198  14.260
   79TMC2    H5 1569   2.627   3.223  14.167
   80TMC2    C1 1570   0.311   1.410   8.498
   80TMC2    C2 1571   0.252   1.376   8.377
   80TMC2    C3 1572   0.278   1.464   8.271
   80TMC2    C4 1573   0.383   1.530   8.515
   80TMC2    C5 1574   0.402   1.608   8.407
   80TMC2    C6 1575   0.356   1.575   8.284
   80TMC2     C 1576   0.304   1.312   8.608
   80TMC2     O 1577   0.388   1.339   8.689
   80TMC2     H 1578   0.191   1.290   8.353
   80TMC2    H1 1579   0.431   1.558   8.608
   80TMC2    H2 1580   0.384   1.635   8.197
   80TMC2    C7 1581   0.454   1.743   8.419
   80TMC2    C8 1582   0.236   1.430   8.144
   80TMC2    O1 1583   0.484   1.799   8.310
   80TMC2    O2 1584   0.195   1.516   8.063
   80TMC2    O5 1585   0.301   1.316   8.107
   80TMC2    H5 1586   0.339   1.267   8.183
   81TMC2    C1 1587   0.973   4.401   9.895
   81TMC2    C2 1588   1.046   4.498   9.828
   81TMC2    C3 1589   0.972   4.578   9.747
   81TMC2    C4 1590   0.849   4.367   9.848
   81TMC2    C5 1591   0.767   4.458   9.785
   81TMC2    C6 1592   0.840   4.559   9.729
   81TMC2     C 1593   0.964   4.448  10.035
   81TMC2     O 1594   0.999   4.561  10.070
   81TMC2     H 1595   1.143   4.524   9.869
   81TMC2    H1 1596   0.800   4.284   9.898
   81TMC2    H2 1597   0.785   4.640   9.683
   81TMC2    C7 1598   0.660   4.513   9.866
   81TMC2    C8 1599   1.017   4.715   9.743
   81TMC2    O1 1600   0.660   4.634   9.871
   81TMC2    O2 1601   1.135   4.751   9.738
   81TMC2    O5 1602   0.918   4.786   9.808
   81TMC2    H5 1603   0.832   4.748   9.835
   82TMC2    C1 1604   4.712   2.743  14.641
   82TMC2    C2 1605   4.723   2.849  14.722
   82TMC2    C3 1606   0.055   2.876  14.773
   82TMC2    C4 1607   0.023   2.666  14.601
   82TMC2    C5 1608   0.142   2.704  14.646
   82TMC2    C6 1609   0.161   2.808  14.732
   82TMC2     C 1610   4.588   2.727  14.570
   82TMC2     O 1611   4.546   2.615  14.549
   82TMC2     H 1612   4.639   2.904  14.763
   82TMC2    H1 1613   0.006   2.586  14.530
   82TMC2    H2 1614   0.263   2.835  14.756
   82TMC2    C7 1615   0.259   2.640  14.587
   82TMC2    C8 1616   0.059   2.976  14.877
   82TMC2    O1 1617   0.234   2.526  14.544
   82TMC2    O2 1618   4.750   3.049  14.901
   82TMC2    O5 1619   0.166   2.941  14.958
   82TMC2    H5 1620   0.211   2.865  14.916
   83TMC2    C1 1621   2.825   0.146  13.951
   83TMC2    C2 1622   2.772   0.238  14.037
   83TMC2    C3 1623   2.835   0.249  14.161
   83TMC2    C4 1624   2.928   0.060  13.983
   83TMC2    C5 1625   2.962   0.067  14.113
   83TMC2    C6 1626   2.925   0.164  14.202
   83TMC2     C 1627   2.732   0.109  13.842
   83TMC2     O 1628   2.615   0.134  13.861
   83TMC2     H 1629   2.702   0.314  14.003
   83TMC2    H1 1630   2.948   4.764  13.922
   83TMC2    H2 1631   2.967   0.174  14.302
   83TMC2    C7 1632   3.068   4.771  14.153
   83TMC2    C8 1633   2.829   0.378  14.228
   83TMC2    O1 1634   3.155   4.739  14.068
   83TMC2    O2 1635   2.927   0.450  14.229
   83TMC2    O5 1636   2.705   0.421  14.210
   83TMC2    H5 1637   2.631   0.357  14.216
   84TMC2    C1 1638   3.686   4.612   8.355
   84TMC2    C2 1639   3.753   4.725   8.406
   84TMC2    C3 1640   3.679   0.024   8.477
   84TMC2    C4 1641   3.549   4.609   8.350
   84TMC2    C5 1642   3.484   4.705   8.418
   84TMC2    C6 1643   3.544   0.017   8.487
   84TMC2     C 1644   3.769   4.496   8.344
   84TMC2     O 1645   3.868   4.491   8.418
   84TMC2     H 1646   3.860   4.739   8.402
   84TMC2    H1 1647   3.488   4.528   8.312
   84TMC2    H2 1648   3.475   0.083   8.537
   84TMC2    C7 1649   3.342   4.719   8.404
   84TMC2    C8 1650   3.743   0.156   8.503
   84TMC2    O1 1651   3.282   4.613   8.387
   84TMC2    O2 1652   3.676   0.259   8.510
   84TMC2    O5 1653   3.869   0.149   8.544
   84TMC2    H5 1654   3.887   0.052   8.539
   85TMC2    C1 1655   4.433   1.654  14.612
   85TMC2    C2 1656   4.433   1.552  14.704
   85TMC2    C3 1657   4.535   1.553  14.791
   85TMC2    C4 1658   4.528   1.745  14.595
   85TMC2    C5 1659   4.632   1.732  14.687
   85TMC2    C6 1660   4.640   1.637  14.788
   85TMC2     C 1661   4.321   1.653  14.514
   85TMC2     O 1662   4.210   1.638  14.559
   85TMC2     H 1663   4.344   1.490  14.700
   85TMC2    H1 1664   4.528   1.814  14.512
   85TMC2    H2 1665   4.720   1.621  14.858
   85TMC2    C7 1666   4.727   1.842  14.704
   85TMC2    C8 1667   4.550   1.440  14.889
   85TMC2    O1 1668   0.046   1.818  14.745
   85TMC2    O2 1669   4.647   1.360  14.872
   85TMC2    O5 1670   4.423   1.402  14.896
   85TMC2    H5 1671   4.366   1.481  14.908
   86TMC2    C1 1672   2.907   4.088   9.162
   86TMC2    C2 1673   2.871   4.200   9.233
   86TMC2    C3 1674   2.877   4.191   9.372
   86TMC2    C4 1675   2.940   3.969   9.215
   86TMC2    C5 1676   2.963   3.969   9.350
   86TMC2    C6 1677   2.917   4.067   9.434
   86TMC2     C 1678   2.969   4.115   9.030
   86TMC2     O 1679   3.066   4.048   8.999
   86TMC2     H 1680   2.846   4.297   9.191
   86TMC2    H1 1681   2.966   3.885   9.151
   86TMC2    H2 1682   2.955   4.069   9.535
   86TMC2    C7 1683   3.083   3.903   9.391
   86TMC2    C8 1684   2.857   4.313   9.451
   86TMC2    O1 1685   3.101   3.883   9.511
   86TMC2    O2 1686   2.862   4.425   9.406
   86TMC2    O5 1687   2.823   4.282   9.577
   86TMC2    H5 1688   2.779   4.195   9.583
   87MPD1     C 1689   1.232   3.808   7.395
   87MPD1    C1 1690   1.346   3.810   7.320
   87MPD1    C2 1691   1.342   3.772   7.188
   87MPD1    C3 1692   1.231   3.714   7.137
   87MPD1    C4 1693   1.114   3.714   7.209
   87MPD1    C5 1694   1.117   3.768   7.339
   87MPD1     H 1695   1.431   3.774   7.127
   87MPD1    H1 1696   1.024   3.668   7.169
   87MPD1    H2 1697   1.222   3.841   7.498
   87MPD1    H3 1698   1.031   3.770   7.406
   87MPD1     N 1699   1.238   3.664   7.003
   87MPD1    H5 1700   1.321   3.680   6.947
   87MPD1    N1 1701   1.459   3.856   7.384
   87MPD1    H6 1702   1.545   3.822   7.341
   87MPD1    H7 1703   1.456   3.841   7.484
   88MPD1     C 1704   4.099   1.386   9.698
   88MPD1    C1 1705   4.004   1.395   9.796
   88MPD1    C2 1706   4.010   1.489   9.894
   88MPD1    C3 1707   4.113   1.585   9.899
   88MPD1    C4 1708   4.208   1.578   9.797
   88MPD1    C5 1709   4.201   1.482   9.698
   88MPD1     H 1710   3.931   1.493   9.968
   88MPD1    H1 1711   4.289   1.649   9.789
   88MPD1    H2 1712   4.103   1.322   9.611
   88MPD1    H3 1713   4.276   1.492   9.621
   88MPD1     N 1714   4.108   1.687   9.996
   88MPD1    H5 1715   4.041   1.678  10.072
   88MPD1    N1 1716   3.889   1.312   9.780
   88MPD1    H6 1717   3.882   1.243   9.705
   88MPD1    H7 1718   3.859   1.274   9.869
   89MPD1     C 1719   2.419   3.409  11.785
   89MPD1    C1 1720   2.344   3.303  11.730
   89MPD1    C2 1721   2.383   3.174  11.774
   89MPD1    C3 1722   2.465   3.150  11.877
   89MPD1    C4 1723   2.532   3.257  11.925
   89MPD1    C5 1724   2.513   3.382  11.879
   89MPD1     H 1725   2.339   3.089  11.723
   89MPD1    H1 1726   2.603   3.243  12.007
   89MPD1    H2 1727   2.404   3.512  11.756
   89MPD1    H3 1728   2.587   3.455  11.908
   89MPD1     N 1729   2.510   3.024  11.915
   89MPD1    H5 1730   2.576   3.029  11.992
   89MPD1    N1 1731   2.292   3.322  11.602
   89MPD1    H6 1732   2.266   3.418  11.582
   89MPD1    H7 1733   2.209   3.265  11.584
   90MPD1     C 1734   0.833   1.677  13.802
   90MPD1    C1 1735   0.875   1.757  13.701
   90MPD1    C2 1736   1.006   1.781  13.681
   90MPD1    C3 1737   1.100   1.702  13.752
   90MPD1    C4 1738   1.062   1.615  13.852
   90MPD1    C5 1739   0.927   1.603  13.873
   90MPD1     H 1740   1.035   1.843  13.597
   90MPD1    H1 1741   1.135   1.557  13.907
   90MPD1    H2 1742   0.731   1.672  13.838
   90MPD1    H3 1743   0.895   1.539  13.954
   90MPD1     N 1744   1.243   1.727  13.747
   90MPD1    H5 1745   1.304   1.673  13.807
   90MPD1    N1 1746   0.774   1.827  13.629
   90MPD1    H6 1747   0.691   1.768  13.616
   90MPD1    H7 1748   0.811   1.868  13.543
   91MPD1     C 1749   3.061   2.153  10.820
   91MPD1    C1 1750   2.939   2.167  10.755
   91MPD1    C2 1751   2.875   2.052  10.718
   91MPD1    C3 1752   2.921   1.930  10.751
   91MPD1    C4 1753   3.034   1.918  10.831
   91MPD1    C5 1754   3.111   2.031  10.857
   91MPD1     H 1755   2.789   2.049  10.652
   91MPD1    H1 1756   3.083   1.827  10.864
   91MPD1    H2 1757   3.124   2.238  10.842
   91MPD1    H3 1758   3.209   2.021  10.901
   91MPD1     N 1759   2.856   1.813  10.715
   91MPD1    H5 1760   2.770   1.814  10.661
   91MPD1    N1 1761   2.901   2.288  10.710
   91MPD1    H6 1762   2.800   2.290  10.697
   91MPD1    H7 1763   2.939   2.367  10.762
   92MPD1     C 1764   2.893   0.831  10.960
   92MPD1    C1 1765   2.768   0.879  10.932
   92MPD1    C2 1766   2.761   1.008  10.896
   92MPD1    C3 1767   2.862   1.094  10.866
   92MPD1    C4 1768   2.982   1.051  10.917
   92MPD1    C5 1769   3.001   0.918  10.948
   92MPD1     H 1770   2.662   1.045  10.871
   92MPD1    H1 1771   3.076   1.102  10.901
   92MPD1    H2 1772   2.916   0.726  10.978
   92MPD1    H3 1773   3.104   0.886  10.953
   92MPD1     N 1774   2.841   1.220  10.799
   92MPD1    H5 1775   2.928   1.272  10.789
   92MPD1    N1 1776   2.659   0.798  10.926
   92MPD1    H6 1777   2.581   0.849  10.965
   92MPD1    H7 1778   2.689   0.713  10.975
   93MPD1     C 1779   1.904   3.991  11.960
   93MPD1    C1 1780   1.834   4.042  12.069
   93MPD1    C2 1781   1.759   3.951  12.149
   93MPD1    C3 1782   1.778   3.816  12.141
   93MPD1    C4 1783   1.855   3.770  12.037
   93MPD1    C5 1784   1.909   3.856  11.944
   93MPD1     H 1785   1.697   3.993  12.227
   93MPD1    H1 1786   1.875   3.666  12.018
   93MPD1    H2 1787   1.951   4.054  11.886
   93MPD1    H3 1788   1.961   3.813  11.859
   93MPD1     N 1789   1.708   3.721  12.230
   93MPD1    H5 1790   1.725   3.623  12.214
   93MPD1    N1 1791   1.817   4.186  12.078
   93MPD1    H6 1792   1.792   4.207  12.174
   93MPD1    H7 1793   1.896   4.243  12.049
   94MPD1     C 1794   3.339   0.059  12.846
   94MPD1    C1 1795   3.342   0.194  12.816
   94MPD1    C2 1796   3.330   0.284  12.920
   94MPD1    C3 1797   3.308   0.232  13.050
   94MPD1    C4 1798   3.291   0.096  13.074
   94MPD1    C5 1799   3.310   0.010  12.971
   94MPD1     H 1800   3.330   0.390  12.901
   94MPD1    H1 1801   3.274   0.046  13.169
   94MPD1    H2 1802   3.366   4.776  12.772
   94MPD1    H3 1803   3.306   4.695  12.990
   94MPD1     N 1804   3.305   0.325  13.156
   94MPD1    H5 1805   3.332   0.419  13.129
   94MPD1    N1 1806   3.376   0.236  12.684
   94MPD1    H6 1807   3.344   0.333  12.680
   94MPD1    H7 1808   3.331   0.177  12.616
   95MPD1     C 1809   1.412   0.383   6.560
   95MPD1    C1 1810   1.328   0.470   6.626
   95MPD1    C2 1811   1.194   0.465   6.609
   95MPD1    C3 1812   1.140   0.365   6.529
   95MPD1    C4 1813   1.219   0.270   6.470
   95MPD1    C5 1814   1.354   0.284   6.478
   95MPD1     H 1815   1.135   0.540   6.659
   95MPD1    H1 1816   1.181   0.205   6.392
   95MPD1    H2 1817   1.520   0.394   6.557
   95MPD1    H3 1818   1.417   0.208   6.434
   95MPD1     N 1819   1.002   0.371   6.515
   95MPD1    H5 1820   0.960   0.460   6.537
   95MPD1    N1 1821   1.382   0.581   6.696
   95MPD1    H6 1822   1.476   0.577   6.735
   95MPD1    H7 1823   1.321   0.628   6.762
   96MPD1     C 1824   4.781   0.583  13.112
   96MPD1    C1 1825   4.657   0.527  13.119
   96MPD1    C2 1826   4.551   0.616  13.116
   96MPD1    C3 1827   4.559   0.755  13.098
   96MPD1    C4 1828   4.689   0.806  13.081
   96MPD1    C5 1829   0.000   0.715  13.102
   96MPD1     H 1830   4.448   0.582  13.112
   96MPD1    H1 1831   4.711   0.908  13.052
   96MPD1    H2 1832   0.082   0.530  13.135
   96MPD1    H3 1833   0.099   0.758  13.089
   96MPD1     N 1834   4.447   0.846  13.099
   96MPD1    H5 1835   4.460   0.939  13.061
   96MPD1    N1 1836   4.647   0.391  13.152
   96MPD1    H6 1837   4.561   0.359  13.107
   96MPD1    H7 1838   4.724   0.343  13.106
   97MPD1     C 1839   3.999   4.287  12.143
   97MPD1    C1 1840   4.042   4.206  12.045
   97MPD1    C2 1841   4.010   4.066  12.049
   97MPD1    C3 1842   3.967   4.015  12.168
   97MPD1    C4 1843   3.944   4.104  12.275
   97MPD1    C5 1844   3.953   4.234  12.261
   97MPD1     H 1845   4.033   4.002  11.964
   97MPD1    H1 1846   3.911   4.071  12.373
   97MPD1    H2 1847   4.002   4.395  12.131
   97MPD1    H3 1848   3.933   4.295  12.349
   97MPD1     N 1849   3.951   3.884  12.202
   97MPD1    H5 1850   3.915   3.870  12.295
   97MPD1    N1 1851   4.080   4.264  11.925
   97MPD1    H6 1852   4.142   4.205  11.869
   97MPD1    H7 1853   4.114   4.361  11.923
   98MPD1     C 1854   3.255   0.481  11.005
   98MPD1    C1 1855   3.311   0.447  10.886
   98MPD1    C2 1856   3.222   0.428  10.779
   98MPD1    C3 1857   3.090   0.461  10.792
   98MPD1    C4 1858   3.040   0.490  10.915
   98MPD1    C5 1859   3.119   0.500  11.021
   98MPD1     H 1860   3.264   0.380  10.692
   98MPD1    H1 1861   2.936   0.515  10.930
   98MPD1    H2 1862   3.307   0.483  11.100
   98MPD1    H3 1863   3.068   0.531  11.112
   98MPD1     N 1864   3.010   0.440  10.676
   98MPD1    H5 1865   3.067   0.414  10.596
   98MPD1    N1 1866   3.438   0.390  10.894
   98MPD1    H6 1867   3.485   0.415  10.808
   98MPD1    H7 1868   3.425   0.289  10.899
   99MPD1     C 1869   0.526   1.756   6.463
   99MPD1    C1 1870   0.458   1.863   6.522
   99MPD1    C2 1871   0.503   1.905   6.647
   99MPD1    C3 1872   0.625   1.866   6.698
   99MPD1    C4 1873   0.691   1.774   6.628
   99MPD1    C5 1874   0.647   1.720   6.510
   99MPD1     H 1875   0.449   1.978   6.706
   99MPD1    H1 1876   0.781   1.733   6.674
   99MPD1    H2 1877   0.497   1.697   6.376
   99MPD1    H3 1878   0.709   1.642   6.465
   99MPD1     N 1879   0.690   1.912   6.822
   99MPD1    H5 1880   0.786   1.886   6.844
   99MPD1    N1 1881   0.324   1.881   6.476
   99MPD1    H6 1882   0.300   1.861   6.379
   99MPD1    H7 1883   0.282   1.968   6.507
  100MPD1     C 1884   0.141   1.042  14.763
  100MPD1    C1 1885   0.187   1.172  14.743
  100MPD1    C2 1886   0.296   1.194  14.654
  100MPD1    C3 1887   0.354   1.086  14.581
  100MPD1    C4 1888   0.311   0.960  14.610
  100MPD1    C5 1889   0.207   0.936  14.699
  100MPD1     H 1890   0.324   1.298  14.652
  100MPD1    H1 1891   0.359   0.873  14.567
  100MPD1    H2 1892   0.066   1.008  14.834
  100MPD1    H3 1893   0.176   0.835  14.722
  100MPD1     N 1894   0.475   1.101  14.507
  100MPD1    H5 1895   0.524   1.012  14.498
  100MPD1    N1 1896   0.158   1.276  14.832
  100MPD1    H6 1897   0.064   1.269  14.871
  100MPD1    H7 1898   0.170   1.371  14.796
  101MPD1     C 1899   2.146   1.161   7.742
  101MPD1    C1 1900   2.276   1.184   7.769
  101MPD1    C2 1901   2.324   1.309   7.739
  101MPD1    C3 1902   2.256   1.398   7.648
  101MPD1    C4 1903   2.128   1.355   7.611
  101MPD1    C5 1904   2.075   1.239   7.664
  101MPD1     H 1905   2.427   1.327   7.767
  101MPD1    H1 1906   2.075   1.407   7.533
  101MPD1    H2 1907   2.102   1.071   7.783
  101MPD1    H3 1908   1.980   1.199   7.632
  101MPD1     N 1909   2.319   1.513   7.600
  101MPD1    H5 1910   2.408   1.532   7.644
  101MPD1    N1 1911   2.351   1.103   7.857
  101MPD1    H6 1912   2.336   1.006   7.832
  101MPD1    H7 1913   2.449   1.123   7.843
  102MPD1     C 1914   1.090   4.063   7.051
  102MPD1    C1 1915   1.136   4.133   7.159
  102MPD1    C2 1916   1.173   4.268   7.137
  102MPD1    C3 1917   1.181   4.318   7.010
  102MPD1    C4 1918   1.140   4.238   6.907
  102MPD1    C5 1919   1.092   4.112   6.926
  102MPD1     H 1920   1.205   4.327   7.222
  102MPD1    H1 1921   1.152   4.267   6.803
  102MPD1    H2 1922   1.066   3.958   7.061
  102MPD1    H3 1923   1.071   4.041   6.846
  102MPD1     N 1924   1.233   4.450   6.996
  102MPD1    H5 1925   1.226   4.486   6.901
  102MPD1    N1 1926   1.116   4.080   7.289
  102MPD1    H6 1927   1.177   4.123   7.359
  102MPD1    H7 1928   1.120   3.978   7.290
  103MPD1     C 1929   0.890   0.639   6.940
  103MPD1    C1 1930   0.961   0.583   7.043
  103MPD1    C2 1931   1.002   0.455   7.040
  103MPD1    C3 1932   0.985   0.380   6.924
  103MPD1    C4 1933   0.921   0.437   6.818
  103MPD1    C5 1934   0.865   0.561   6.828
  103MPD1     H 1935   1.056   0.413   7.123
  103MPD1    H1 1936   0.889   0.379   6.732
  103MPD1    H2 1937   0.846   0.738   6.948
  103MPD1    H3 1938   0.812   0.616   6.752
  103MPD1     N 1939   1.045   0.255   6.906
  103MPD1    H5 1940   1.064   0.224   6.811
  103MPD1    N1 1941   0.961   0.653   7.170
  103MPD1    H6 1942   0.994   0.748   7.152
  103MPD1    H7 1943   1.032   0.617   7.233
  104MPD1     C 1944   4.591   3.479  12.437
  104MPD1    C1 1945   4.563   3.546  12.322
  104MPD1    C2 1946   4.466   3.651  12.324
  104MPD1    C3 1947   4.416   3.698  12.438
  104MPD1    C4 1948   4.440   3.633  12.556
  104MPD1    C5 1949   4.529   3.524  12.552
  104MPD1     H 1950   4.448   3.696  12.227
  104MPD1    H1 1951   4.419   3.675  12.653
  104MPD1    H2 1952   4.662   3.397  12.438
  104MPD1    H3 1953   4.554   3.460  12.635
  104MPD1     N 1954   4.326   3.812  12.454
  104MPD1    H5 1955   4.301   3.833  12.550
  104MPD1    N1 1956   4.615   3.499  12.205
  104MPD1    H6 1957   4.697   3.447  12.234
  104MPD1    H7 1958   4.632   3.569  12.133
  105MPD1     C 1959   3.351   0.877  14.249
  105MPD1    C1 1960   3.350   0.795  14.137
  105MPD1    C2 1961   3.319   0.845  14.007
  105MPD1    C3 1962   3.313   0.981  13.992
  105MPD1    C4 1963   3.314   1.062  14.095
  105MPD1    C5 1964   3.332   1.006  14.219
  105MPD1     H 1965   3.305   0.780  13.922
  105MPD1    H1 1966   3.294   1.166  14.074
  105MPD1    H2 1967   3.367   0.854  14.353
  105MPD1    H3 1968   3.319   1.074  14.303
  105MPD1     N 1969   3.283   1.038  13.868
  105MPD1    H5 1970   3.237   1.129  13.872
  105MPD1    N1 1971   3.354   0.658  14.156
  105MPD1    H6 1972   3.384   0.619  14.067
  105MPD1    H7 1973   3.430   0.640  14.222
  106MPD1     C 1974   3.152   1.586   7.182
  106MPD1    C1 1975   3.223   1.469   7.176
  106MPD1    C2 1976   3.172   1.377   7.262
  106MPD1    C3 1977   3.058   1.383   7.340
  106MPD1    C4 1978   2.988   1.503   7.331
  106MPD1    C5 1979   3.033   1.595   7.248
  106MPD1     H 1980   3.234   1.288   7.269
  106MPD1    H1 1981   2.892   1.524   7.376
  106MPD1    H2 1982   3.196   1.679   7.146
  106MPD1    H3 1983   2.962   1.677   7.249
  106MPD1     N 1984   3.012   1.287   7.437
  106MPD1    H5 1985   2.929   1.310   7.491
  106MPD1    N1 1986   3.357   1.462   7.128
  106MPD1    H6 1987   3.377   1.516   7.044
  106MPD1    H7 1988   3.395   1.370   7.103
  107MPD1     C 1989   0.055   1.630  13.822
  107MPD1    C1 1990   0.046   1.760  13.885
  107MPD1    C2 1991   4.720   1.829  13.876
  107MPD1    C3 1992   4.604   1.777  13.828
  107MPD1    C4 1993   4.611   1.650  13.761
  107MPD1    C5 1994   4.735   1.584  13.757
  107MPD1     H 1995   4.727   1.931  13.913
  107MPD1    H1 1996   4.532   1.597  13.709
  107MPD1    H2 1997   0.137   1.559  13.832
  107MPD1    H3 1998   4.736   1.491  13.702
  107MPD1     N 1999   4.495   1.872  13.816
  107MPD1    H5 2000   4.507   1.970  13.843
  107MPD1    N1 2001   0.147   1.799  13.979
  107MPD1    H6 2002   0.153   1.900  13.988
  107MPD1    H7 2003   0.236   1.754  13.959
  108MPD1     C 2004   3.186   0.494  11.699
  108MPD1    C1 2005   3.325   0.517  11.651
  108MPD1    C2 2006   3.419   0.416  11.676
  108MPD1    C3 2007   3.379   0.297  11.729
  108MPD1    C4 2008   3.246   0.278  11.769
  108MPD1    C5 2009   3.153   0.378  11.770
  108MPD1     H 2010   3.518   0.428  11.634
  108MPD1    H1 2011   3.219   0.179  11.804
  108MPD1    H2 2012   3.109   0.570  11.688
  108MPD1    H3 2013   3.054   0.360  11.810
  108MPD1     N 2014   3.463   0.189  11.749
  108MPD1    H5 2015   3.423   0.114  11.804
  108MPD1    N1 2016   3.365   0.641  11.595
  108MPD1    H6 2017   3.296   0.696  11.544
  108MPD1    H7 2018   3.446   0.634  11.533
  109MPD1     C 2019   3.951   2.403   9.778
  109MPD1    C1 2020   4.037   2.464   9.694
  109MPD1    C2 2021   3.982   2.556   9.606
  109MPD1    C3 2022   3.852   2.580   9.591
  109MPD1    C4 2023   3.762   2.500   9.663
  109MPD1    C5 2024   3.820   2.421   9.754
  109MPD1     H 2025   4.058   2.611   9.551
  109MPD1    H1 2026   3.655   2.514   9.664
  109MPD1    H2 2027   3.985   2.348   9.866
  109MPD1    H3 2028   3.753   2.373   9.824
  109MPD1     N 2029   3.809   2.678   9.498
  109MPD1    H5 2030   3.885   2.735   9.461
  109MPD1    N1 2031   4.172   2.447   9.711
  109MPD1    H6 2032   4.192   2.350   9.732
  109MPD1    H7 2033   4.229   2.460   9.628
  110MPD1     C 2034   3.037   3.203   8.898
  110MPD1    C1 2035   3.031   3.171   9.030
  110MPD1    C2 2036   3.140   3.130   9.099
  110MPD1    C3 2037   3.265   3.126   9.034
  110MPD1    C4 2038   3.274   3.182   8.904
  110MPD1    C5 2039   3.158   3.217   8.843
  110MPD1     H 2040   3.121   3.080   9.193
  110MPD1    H1 2041   3.371   3.185   8.855
  110MPD1    H2 2042   2.951   3.217   8.834
  110MPD1    H3 2043   3.163   3.249   8.740
  110MPD1     N 2044   3.385   3.082   9.090
  110MPD1    H5 2045   3.461   3.085   9.022
  110MPD1    N1 2046   2.907   3.162   9.090
  110MPD1    H6 2047   2.844   3.230   9.047
  110MPD1    H7 2048   2.917   3.207   9.181
  111MPD1     C 2049   2.488   2.325  12.523
  111MPD1    C1 2050   2.586   2.361  12.435
  111MPD1    C2 2051   2.681   2.454  12.475
  111MPD1    C3 2052   2.665   2.539  12.590
  111MPD1    C4 2053   2.564   2.499  12.676
  111MPD1    C5 2054   2.482   2.392  12.643
  111MPD1     H 2055   2.754   2.479  12.399
  111MPD1    H1 2056   2.546   2.558  12.766
  111MPD1    H2 2057   2.412   2.251  12.502
  111MPD1    H3 2058   2.396   2.374  12.706
  111MPD1     N 2059   2.753   2.632  12.631
  111MPD1    H5 2060   2.731   2.660  12.726
  111MPD1    N1 2061   2.609   2.304  12.308
  111MPD1    H6 2062   2.688   2.340  12.255
  111MPD1    H7 2063   2.533   2.304  12.241
  112MPD1     C 2064   0.149   0.190  13.345
  112MPD1    C1 2065   0.101   0.149  13.473
  112MPD1    C2 2066   0.082   0.015  13.498
  112MPD1    C3 2067   0.100   4.717  13.391
  112MPD1    C4 2068   0.142   4.763  13.267
  112MPD1    C5 2069   0.158   0.103  13.238
  112MPD1     H 2070   0.049   4.771  13.595
  112MPD1    H1 2071   0.163   4.694  13.186
  112MPD1    H2 2072   0.177   0.291  13.317
  112MPD1    H3 2073   0.188   0.139  13.140
  112MPD1     N 2074   0.090   4.573  13.399
  112MPD1    H5 2075   0.121   4.528  13.314
  112MPD1    N1 2076   0.084   0.241  13.576
  112MPD1    H6 2077   0.046   0.332  13.551
  112MPD1    H7 2078   0.041   0.203  13.659
  113MPD1     C 2079   2.755   2.020  13.852
  113MPD1    C1 2080   2.716   1.971  13.975
  113MPD1    C2 2081   2.711   1.834  13.987
  113MPD1    C3 2082   2.762   1.748  13.891
  113MPD1    C4 2083   2.823   1.798  13.776
  113MPD1    C5 2084   2.814   1.932  13.760
  113MPD1     H 2085   2.665   1.791  14.075
  113MPD1    H1 2086   2.854   1.731  13.696
  113MPD1    H2 2087   2.745   2.126  13.831
  113MPD1    H3 2088   2.843   1.972  13.663
  113MPD1     N 2089   2.748   1.613  13.902
  113MPD1    H5 2090   2.798   1.561  13.830
  113MPD1    N1 2091   2.661   2.052  14.074
  113MPD1    H6 2092   2.666   2.009  14.166
  113MPD1    H7 2093   2.714   2.139  14.080
  114MPD1     C 2094   0.852   0.296  14.463
  114MPD1    C1 2095   0.946   0.244  14.375
  114MPD1    C2 2096   1.078   0.296  14.381
  114MPD1    C3 2097   1.105   0.400  14.461
  114MPD1    C4 2098   1.009   0.462  14.533
  114MPD1    C5 2099   0.885   0.399  14.546
  114MPD1     H 2100   1.154   0.257  14.315
  114MPD1    H1 2101   1.027   0.553  14.589
  114MPD1    H2 2102   0.748   0.267  14.458
  114MPD1    H3 2103   0.804   0.454  14.592
  114MPD1     N 2104   1.241   0.447  14.490
  114MPD1    H5 2105   1.260   0.518  14.560
  114MPD1    N1 2106   0.923   0.137  14.284
  114MPD1    H6 2107   0.825   0.139  14.258
  114MPD1    H7 2108   0.972   0.141  14.194
  115MPD1     C 2109   1.223   4.009  13.354
  115MPD1    C1 2110   1.301   4.117  13.320
  115MPD1    C2 2111   1.370   4.103  13.203
  115MPD1    C3 2112   1.378   3.984  13.124
  115MPD1    C4 2113   1.314   3.880  13.174
  115MPD1    C5 2114   1.239   3.893  13.289
  115MPD1     H 2115   1.410   4.195  13.163
  115MPD1    H1 2116   1.306   3.785  13.124
  115MPD1    H2 2117   1.147   4.008  13.431
  115MPD1    H3 2118   1.170   3.817  13.322
  115MPD1     N 2119   1.443   3.972  12.999
  115MPD1    H5 2120   1.455   3.881  12.955
  115MPD1    N1 2121   1.283   4.246  13.370
  115MPD1    H6 2122   1.368   4.301  13.367
  115MPD1    H7 2123   1.234   4.245  13.459
  116MPD1     C 2124   4.278   0.740  10.867
  116MPD1    C1 2125   4.181   0.838  10.837
  116MPD1    C2 2126   4.132   0.907  10.948
  116MPD1    C3 2127   4.173   0.898  11.078
  116MPD1    C4 2128   4.269   0.805  11.097
  116MPD1    C5 2129   4.315   0.734  10.998
  116MPD1     H 2130   4.049   0.975  10.938
  116MPD1    H1 2131   4.318   0.795  11.193
  116MPD1    H2 2132   4.316   0.668  10.795
  116MPD1    H3 2133   4.396   0.666  11.021
  116MPD1     N 2134   4.112   0.989  11.175
  116MPD1    H5 2135   4.071   1.077  11.146
  116MPD1    N1 2136   4.140   0.859  10.705
  116MPD1    H6 2137   4.122   0.953  10.671
  116MPD1    H7 2138   4.184   0.797  10.638
  117MPD1     C 2139   1.046   2.525   7.504
  117MPD1    C1 2140   1.075   2.421   7.418
  117MPD1    C2 2141   1.070   2.440   7.277
  117MPD1    C3 2142   1.046   2.568   7.229
  117MPD1    C4 2143   1.028   2.672   7.321
  117MPD1    C5 2144   1.032   2.647   7.455
  117MPD1     H 2145   1.097   2.361   7.207
  117MPD1    H1 2146   0.998   2.773   7.296
  117MPD1    H2 2147   1.046   2.514   7.612
  117MPD1    H3 2148   1.019   2.733   7.519
  117MPD1     N 2149   1.044   2.597   7.085
  117MPD1    H5 2150   1.050   2.690   7.046
  117MPD1    N1 2151   1.098   2.291   7.476
  117MPD1    H6 2152   1.175   2.242   7.431
  117MPD1    H7 2153   1.132   2.297   7.572
  118MPD1     C 2154   3.696   2.865  11.439
  118MPD1    C1 2155   3.744   2.884  11.313
  118MPD1    C2 2156   3.881   2.856  11.302
  118MPD1    C3 2157   3.964   2.824  11.409
  118MPD1    C4 2158   3.906   2.815  11.530
  118MPD1    C5 2159   3.766   2.819  11.546
  118MPD1     H 2160   3.918   2.843  11.201
  118MPD1    H1 2161   3.965   2.784  11.615
  118MPD1    H2 2162   3.589   2.870  11.452
  118MPD1    H3 2163   3.728   2.793  11.644
  118MPD1     N 2164   4.101   2.799  11.386
  118MPD1    H5 2165   4.131   2.799  11.289
  118MPD1    N1 2166   3.655   2.913  11.208
  118MPD1    H6 2167   3.562   2.948  11.233
  118MPD1    H7 2168   3.691   2.980  11.140
  119MPD1     C 2169   2.657   1.654   9.337
  119MPD1    C1 2170   2.775   1.618   9.400
  119MPD1    C2 2171   2.773   1.543   9.517
  119MPD1    C3 2172   2.656   1.507   9.582
  119MPD1    C4 2173   2.537   1.549   9.519
  119MPD1    C5 2174   2.537   1.622   9.401
  119MPD1     H 2175   2.865   1.519   9.570
  119MPD1    H1 2176   2.438   1.519   9.551
  119MPD1    H2 2177   2.649   1.697   9.238
  119MPD1    H3 2178   2.451   1.643   9.339
  119MPD1     N 2179   2.659   1.441   9.700
  119MPD1    H5 2180   2.745   1.395   9.726
  119MPD1    N1 2181   2.902   1.633   9.335
  119MPD1    H6 2182   2.896   1.691   9.252
  119MPD1    H7 2183   2.964   1.683   9.400
  120MPD1     C 2184   1.970   0.686   6.225
  120MPD1    C1 2185   1.890   0.685   6.337
  120MPD1    C2 2186   1.935   0.735   6.454
  120MPD1    C3 2187   2.073   0.775   6.471
  120MPD1    C4 2188   2.155   0.770   6.362
  120MPD1    C5 2189   2.103   0.729   6.244
  120MPD1     H 2190   1.857   0.756   6.526
  120MPD1    H1 2191   2.255   0.811   6.375
  120MPD1    H2 2192   1.948   0.635   6.132
  120MPD1    H3 2193   2.171   0.720   6.161
  120MPD1     N 2194   2.123   0.812   6.598
  120MPD1    H5 2195   2.219   0.844   6.599
  120MPD1    N1 2196   1.749   0.661   6.318
  120MPD1    H6 2197   1.726   0.597   6.242
  120MPD1    H7 2198   1.708   0.637   6.408
  121MPD1     C 2199   1.566   1.999   9.015
  121MPD1    C1 2200   1.499   1.879   9.043
  121MPD1    C2 2201   1.390   1.880   9.130
  121MPD1    C3 2202   1.349   1.998   9.188
  121MPD1    C4 2203   1.426   2.112   9.180
  121MPD1    C5 2204   1.530   2.111   9.086
  121MPD1     H 2205   1.333   1.788   9.141
  121MPD1    H1 2206   1.415   2.208   9.230
  121MPD1    H2 2207   1.628   2.003   8.926
  121MPD1    H3 2208   1.582   2.205   9.071
  121MPD1     N 2209   1.237   1.994   9.269
  121MPD1    H5 2210   1.192   1.903   9.272
  121MPD1    N1 2211   1.526   1.764   8.968
  121MPD1    H6 2212   1.485   1.679   9.006
  121MPD1    H7 2213   1.627   1.747   8.963
  122MPD1     C 2214   1.299   2.951  13.547
  122MPD1    C1 2215   1.295   2.852  13.449
  122MPD1    C2 2216   1.210   2.874  13.339
  122MPD1    C3 2217   1.142   2.995  13.321
  122MPD1    C4 2218   1.151   3.088  13.427
  122MPD1    C5 2219   1.230   3.063  13.532
  122MPD1     H 2220   1.187   2.787  13.279
  122MPD1    H1 2221   1.085   3.172  13.441
  122MPD1    H2 2222   1.362   2.937  13.634
  122MPD1    H3 2223   1.223   3.127  13.619
  122MPD1     N 2224   1.046   3.006  13.219
  122MPD1    H5 2225   1.051   2.938  13.144
  122MPD1    N1 2226   1.341   2.722  13.486
  122MPD1    H6 2227   1.421   2.720  13.549
  122MPD1    H7 2228   1.265   2.679  13.538
  123MPD1     C 2229   0.759   2.026  12.351
  123MPD1    C1 2230   0.794   1.936  12.454
  123MPD1    C2 2231   0.762   1.963  12.584
  123MPD1    C3 2232   0.708   2.088  12.606
  123MPD1    C4 2233   0.682   2.179  12.512
  123MPD1    C5 2234   0.709   2.144  12.383
  123MPD1     H 2235   0.784   1.890  12.661
  123MPD1    H1 2236   0.651   2.279  12.540
  123MPD1    H2 2237   0.774   2.007  12.245
  123MPD1    H3 2238   0.700   2.215  12.302
  123MPD1     N 2239   0.691   2.128  12.738
  123MPD1    H5 2240   0.664   2.226  12.746
  123MPD1    N1 2241   0.841   1.807  12.429
  123MPD1    H6 2242   0.877   1.750  12.505
  123MPD1    H7 2243   0.879   1.794  12.336
  124MPD1     C 2244   1.165   4.637  12.953
  124MPD1    C1 2245   1.095   4.692  13.057
  124MPD1    C2 2246   0.981   4.770  13.027
  124MPD1    C3 2247   0.930   4.773  12.896
  124MPD1    C4 2248   1.002   4.709  12.802
  124MPD1    C5 2249   1.124   4.648  12.828
  124MPD1     H 2250   0.924   0.024  13.107
  124MPD1    H1 2251   0.958   4.716  12.703
  124MPD1    H2 2252   1.257   4.584  12.978
  124MPD1    H3 2253   1.185   4.608  12.748
  124MPD1     N 2254   0.807   0.040  12.856
  124MPD1    H5 2255   0.786   0.053  12.758
  124MPD1    N1 2256   1.154   4.688  13.183
  124MPD1    H6 2257   1.223   4.612  13.186
  124MPD1    H7 2258   1.082   4.677  13.254
  125MPD1     C 2259   4.562   2.519   5.643
  125MPD1    C1 2260   4.671   2.602   5.656
  125MPD1    C2 2261   4.714   2.640   5.781
  125MPD1    C3 2262   4.671   2.571   5.893
  125MPD1    C4 2263   4.569   2.483   5.874
  125MPD1    C5 2264   4.511   2.460   5.757
  125MPD1     H 2265   0.006   2.709   5.789
  125MPD1    H1 2266   4.523   2.434   5.959
  125MPD1    H2 2267   4.512   2.488   5.552
  125MPD1    H3 2268   4.420   2.401   5.745
  125MPD1     N 2269   4.711   2.601   6.023
  125MPD1    H5 2270   4.661   2.550   6.095
  125MPD1    N1 2271   4.721   2.668   5.543
  125MPD1    H6 2272   4.729   2.609   5.460
  125MPD1    H7 2273   0.020   2.708   5.568
  126MPD1     C 2274   1.699   1.460  13.511
  126MPD1    C1 2275   1.674   1.332  13.548
  126MPD1    C2 2276   1.540   1.290  13.566
  126MPD1    C3 2277   1.437   1.379  13.534
  126MPD1    C4 2278   1.463   1.514  13.501
  126MPD1    C5 2279   1.593   1.549  13.477
  126MPD1     H 2280   1.512   1.188  13.589
  126MPD1    H1 2281   1.389   1.590  13.478
  126MPD1    H2 2282   1.801   1.489  13.490
  126MPD1    H3 2283   1.625   1.648  13.448
  126MPD1     N 2284   1.301   1.336  13.520
  126MPD1    H5 2285   1.282   1.241  13.549
  126MPD1    N1 2286   1.788   1.247  13.564
  126MPD1    H6 2287   1.762   1.149  13.568
  126MPD1    H7 2288   1.851   1.253  13.485
  127MPD1     C 2289   4.074   1.628   7.217
  127MPD1    C1 2290   4.043   1.712   7.324
  127MPD1    C2 2291   4.079   1.845   7.294
  127MPD1    C3 2292   4.145   1.880   7.176
  127MPD1    C4 2293   4.150   1.793   7.072
  127MPD1    C5 2294   4.116   1.664   7.094
  127MPD1     H 2295   4.058   1.931   7.356
  127MPD1    H1 2296   4.204   1.821   6.982
  127MPD1    H2 2297   4.051   1.522   7.218
  127MPD1    H3 2298   4.153   1.587   7.027
  127MPD1     N 2299   4.190   2.014   7.150
  127MPD1    H5 2300   4.231   2.035   7.060
  127MPD1    N1 2301   3.955   1.664   7.424
  127MPD1    H6 2302   3.968   1.565   7.444
  127MPD1    H7 2303   3.934   1.719   7.507
  128MPD1     C 2304   4.764   2.832   7.447
  128MPD1    C1 2305   4.676   2.779   7.534
  128MPD1    C2 2306   4.569   2.716   7.475
  128MPD1    C3 2307   4.572   2.683   7.340
  128MPD1    C4 2308   4.670   2.732   7.258
  128MPD1    C5 2309   4.766   2.814   7.311
  128MPD1     H 2310   4.488   2.678   7.536
  128MPD1    H1 2311   4.666   2.716   7.151
  128MPD1    H2 2312   0.045   2.901   7.490
  128MPD1    H3 2313   0.057   2.851   7.251
  128MPD1     N 2314   4.469   2.620   7.268
  128MPD1    H5 2315   4.479   2.601   7.169
  128MPD1    N1 2316   4.671   2.816   7.669
  128MPD1    H6 2317   4.610   2.765   7.733
  128MPD1    H7 2318   4.766   2.817   7.704
  129MPD1     C 2319   0.216   1.570  13.213
  129MPD1    C1 2320   0.163   1.684  13.155
  129MPD1    C2 2321   0.213   1.709  13.027
  129MPD1    C3 2322   0.318   1.640  12.965
  129MPD1    C4 2323   0.371   1.530  13.031
  129MPD1    C5 2324   0.316   1.496  13.154
  129MPD1     H 2325   0.166   1.787  12.968
  129MPD1    H1 2326   0.444   1.458  12.998
  129MPD1    H2 2327   0.172   1.535  13.306
  129MPD1    H3 2328   0.337   1.402  13.203
  129MPD1     N 2329   0.345   1.690  12.833
  129MPD1    H5 2330   0.279   1.761  12.806
  129MPD1    N1 2331   0.057   1.748  13.219
  129MPD1    H6 2332   0.067   1.753  13.320
  129MPD1    H7 2333   0.040   1.843  13.188
  130MPD1     C 2334   4.187   0.461  13.047
  130MPD1    C1 2335   4.297   0.428  12.968
  130MPD1    C2 2336   4.369   0.310  13.000
  130MPD1    C3 2337   4.344   0.254  13.122
  130MPD1    C4 2338   4.243   0.299  13.197
  130MPD1    C5 2339   4.152   0.397  13.157
  130MPD1     H 2340   4.453   0.279  12.941
  130MPD1    H1 2341   4.225   0.246  13.289
  130MPD1    H2 2342   4.119   0.541  13.020
  130MPD1    H3 2343   4.068   0.422  13.222
  130MPD1     N 2344   4.419   0.140  13.171
  130MPD1    H5 2345   4.372   0.103  13.253
  130MPD1    N1 2346   4.315   0.484  12.839
  130MPD1    H6 2347   4.416   0.486  12.827
  130MPD1    H7 2348   4.275   0.577  12.835
  131MPD1     C 2349   3.501   1.013  11.244
  131MPD1    C1 2350   3.401   1.098  11.205
  131MPD1    C2 2351   3.267   1.045  11.209
  131MPD1    C3 2352   3.243   0.919  11.263
  131MPD1    C4 2353   3.355   0.841  11.300
  131MPD1    C5 2354   3.481   0.889  11.296
  131MPD1     H 2355   3.184   1.112  11.190
  131MPD1    H1 2356   3.341   0.742  11.341
  131MPD1    H2 2357   3.602   1.043  11.221
  131MPD1    H3 2358   3.564   0.821  11.311
  131MPD1     N 2359   3.106   0.870  11.284
  131MPD1    H5 2360   3.026   0.926  11.256
  131MPD1    N1 2361   3.443   1.222  11.143
  131MPD1    H6 2362   3.376   1.296  11.159
  131MPD1    H7 2363   3.534   1.252  11.179
  132MPD1     C 2364   2.384   0.159  11.365
  132MPD1    C1 2365   2.390   0.212  11.236
  132MPD1    C2 2366   2.475   0.322  11.232
  132MPD1    C3 2367   2.558   0.364  11.338
  132MPD1    C4 2368   2.548   0.291  11.459
  132MPD1    C5 2369   2.452   0.202  11.476
  132MPD1     H 2370   2.473   0.385  11.144
  132MPD1    H1 2371   2.595   0.330  11.548
  132MPD1    H2 2372   2.313   0.078  11.378
  132MPD1    H3 2373   2.437   0.153  11.572
  132MPD1     N 2374   2.646   0.474  11.330
  132MPD1    H5 2375   2.700   0.497  11.413
  132MPD1    N1 2376   2.302   0.171  11.135
  132MPD1    H6 2377   2.347   0.188  11.046
  132MPD1    H7 2378   2.286   0.070  11.139
  133MPD1     C 2379   3.285   1.612   7.547
  133MPD1    C1 2380   3.381   1.695   7.499
  133MPD1    C2 2381   3.421   1.803   7.577
  133MPD1    C3 2382   3.379   1.818   7.707
  133MPD1    C4 2383   3.282   1.734   7.754
  133MPD1    C5 2384   3.232   1.633   7.672
  133MPD1     H 2385   3.495   1.869   7.534
  133MPD1    H1 2386   3.237   1.738   7.853
  133MPD1    H2 2387   3.258   1.520   7.497
  133MPD1    H3 2388   3.163   1.562   7.717
  133MPD1     N 2389   3.443   1.915   7.786
  133MPD1    H5 2390   3.503   1.977   7.733
  133MPD1    N1 2391   3.408   1.684   7.361
  133MPD1    H6 2392   3.383   1.596   7.315
  133MPD1    H7 2393   3.505   1.706   7.340
  134MPD1     C 2394   3.656   3.816  13.490
  134MPD1    C1 2395   3.766   3.896  13.495
  134MPD1    C2 2396   3.873   3.846  13.573
  134MPD1    C3 2397   3.874   3.721  13.632
  134MPD1    C4 2398   3.761   3.650  13.630
  134MPD1    C5 2399   3.654   3.701  13.559
  134MPD1     H 2400   3.968   3.897  13.582
  134MPD1    H1 2401   3.757   3.552  13.677
  134MPD1    H2 2402   3.559   3.850  13.455
  134MPD1    H3 2403   3.563   3.642  13.559
  134MPD1     N 2404   3.983   3.680  13.709
  134MPD1    H5 2405   4.056   3.749  13.721
  134MPD1    N1 2406   3.751   4.032  13.459
  134MPD1    H6 2407   3.840   4.081  13.445
  134MPD1    H7 2408   3.696   4.036  13.374
  135MPD1     C 2409   1.725   0.992   6.842
  135MPD1    C1 2410   1.626   1.007   6.944
  135MPD1    C2 2411   1.494   0.994   6.903
  135MPD1    C3 2412   1.459   0.956   6.774
  135MPD1    C4 2413   1.560   0.926   6.681
  135MPD1    C5 2414   1.692   0.947   6.722
  135MPD1     H 2415   1.422   1.009   6.983
  135MPD1    H1 2416   1.537   0.879   6.586
  135MPD1    H2 2417   1.829   1.019   6.854
  135MPD1    H3 2418   1.773   0.936   6.651
  135MPD1     N 2419   1.327   0.956   6.731
  135MPD1    H5 2420   1.306   0.915   6.640
  135MPD1    N1 2421   1.663   1.063   7.068
  135MPD1    H6 2422   1.760   1.045   7.092
  135MPD1    H7 2423   1.608   1.038   7.150
  136MPD1     C 2424   2.855   3.236   9.452
  136MPD1    C1 2425   2.989   3.256   9.425
  136MPD1    C2 2426   3.072   3.145   9.455
  136MPD1    C3 2427   3.019   3.026   9.502
  136MPD1    C4 2428   2.892   3.024   9.540
  136MPD1    C5 2429   2.811   3.130   9.515
  136MPD1     H 2430   3.172   3.151   9.413
  136MPD1    H1 2431   2.844   2.935   9.581
  136MPD1    H2 2432   2.781   3.312   9.429
  136MPD1    H3 2433   2.706   3.124   9.538
  136MPD1     N 2434   3.103   2.917   9.498
  136MPD1    H5 2435   3.190   2.932   9.448
  136MPD1    N1 2436   3.033   3.372   9.361
  136MPD1    H6 2437   3.019   3.457   9.415
  136MPD1    H7 2438   3.132   3.364   9.338
  137MPD1     C 2439   3.531   2.799   8.788
  137MPD1    C1 2440   3.587   2.694   8.859
  137MPD1    C2 2441   3.526   2.657   8.977
  137MPD1    C3 2442   3.404   2.706   9.013
  137MPD1    C4 2443   3.353   2.813   8.941
  137MPD1    C5 2444   3.420   2.857   8.837
  137MPD1     H 2445   3.569   2.586   9.047
  137MPD1    H1 2446   3.268   2.872   8.971
  137MPD1    H2 2447   3.577   2.856   8.708
  137MPD1    H3 2448   3.371   2.933   8.778
  137MPD1     N 2449   3.336   2.666   9.134
  137MPD1    H5 2450   3.259   2.729   9.153
  137MPD1    N1 2451   3.712   2.643   8.826
  137MPD1    H6 2452   3.733   2.550   8.861
  137MPD1    H7 2453   3.746   2.665   8.733
  138MPD1     C 2454   2.660   3.243   6.864
  138MPD1    C1 2455   2.596   3.142   6.941
  138MPD1    C2 2456   2.667   3.045   7.003
  138MPD1    C3 2457   2.806   3.054   7.011
  138MPD1    C4 2458   2.874   3.146   6.930
  138MPD1    C5 2459   2.802   3.238   6.858
  138MPD1     H 2460   2.603   2.981   7.062
  138MPD1    H1 2461   2.982   3.155   6.927
  138MPD1    H2 2462   2.603   3.315   6.807
  138MPD1    H3 2463   2.858   3.300   6.789
  138MPD1     N 2464   2.869   2.965   7.101
  138MPD1    H5 2465   2.811   2.894   7.145
  138MPD1    N1 2466   2.454   3.126   6.938
  138MPD1    H6 2467   2.412   3.218   6.931
  138MPD1    H7 2468   2.419   3.082   7.023
  139MPD1     C 2469   4.779   1.437  12.685
  139MPD1    C1 2470   0.015   1.369  12.565
  139MPD1    C2 2471   0.143   1.309  12.546
  139MPD1    C3 2472   0.240   1.319  12.645
  139MPD1    C4 2473   0.208   1.390  12.761
  139MPD1    C5 2474   0.085   1.448  12.775
  139MPD1     H 2475   0.163   1.253  12.456
  139MPD1    H1 2476   0.273   1.399  12.847
  139MPD1    H2 2477   4.683   1.480  12.711
  139MPD1    H3 2478   0.063   1.484  12.875
  139MPD1     N 2479   0.364   1.249  12.644
  139MPD1    H5 2480   0.420   1.270  12.726
  139MPD1    N1 2481   4.709   1.346  12.470
  139MPD1    H6 2482   4.639   1.420  12.474
  139MPD1    H7 2483   4.749   1.351  12.377
  140MPD1     C 2484   3.803   0.153  14.579
  140MPD1    C1 2485   3.894   0.110  14.487
  140MPD1    C2 2486   3.880   0.169  14.364
  140MPD1    C3 2487   3.785   0.267  14.332
  140MPD1    C4 2488   3.701   0.311  14.430
  140MPD1    C5 2489   3.706   0.255  14.551
  140MPD1     H 2490   3.936   0.130  14.280
  140MPD1    H1 2491   3.632   0.394  14.417
  140MPD1    H2 2492   3.805   0.113  14.680
  140MPD1    H3 2493   3.646   0.297  14.631
  140MPD1     N 2494   3.773   0.318  14.203
  140MPD1    H5 2495   3.697   0.382  14.185
  140MPD1    N1 2496   3.965   4.780  14.511
  140MPD1    H6 2497   4.019   4.779  14.597
  140MPD1    H7 2498   4.029   4.748  14.439
  141MPD1     C 2499   4.583   0.703  13.788
  141MPD1    C1 2500   4.562   0.571  13.825
  141MPD1    C2 2501   4.427   0.535  13.846
  141MPD1    C3 2502   4.322   0.618  13.832
  141MPD1    C4 2503   4.346   0.742  13.787
  141MPD1    C5 2504   4.475   0.781  13.766
  141MPD1     H 2505   4.400   0.431  13.862
  141MPD1    H1 2506   4.267   0.810  13.757
  141MPD1    H2 2507   4.682   0.733  13.755
  141MPD1    H3 2508   4.486   0.884  13.735
  141MPD1     N 2509   4.190   0.565  13.845
  141MPD1    H5 2510   4.179   0.469  13.874
  141MPD1    N1 2511   4.668   0.483  13.812
  141MPD1    H6 2512   4.659   0.418  13.890
  141MPD1    H7 2513   4.761   0.524  13.823
  142MPD1     C 2514   2.381   1.649   6.992
  142MPD1    C1 2515   2.364   1.674   6.859
  142MPD1    C2 2516   2.261   1.754   6.830
  142MPD1    C3 2517   2.171   1.805   6.927
  142MPD1    C4 2518   2.181   1.760   7.053
  142MPD1    C5 2519   2.286   1.674   7.085
  142MPD1     H 2520   2.249   1.772   6.724
  142MPD1    H1 2521   2.109   1.789   7.129
  142MPD1    H2 2522   2.463   1.581   7.008
  142MPD1    H3 2523   2.290   1.624   7.181
  142MPD1     N 2524   2.065   1.889   6.902
  142MPD1    H5 2525   2.012   1.909   6.986
  142MPD1    N1 2526   2.463   1.647   6.763
  142MPD1    H6 2527   2.427   1.625   6.671
  142MPD1    H7 2528   2.534   1.577   6.786
  143MPD1     C 2529   2.495   4.232   9.211
  143MPD1    C1 2530   2.555   4.138   9.136
  143MPD1    C2 2531   2.589   4.022   9.205
  143MPD1    C3 2532   2.543   3.995   9.331
  143MPD1    C4 2533   2.471   4.087   9.396
  143MPD1    C5 2534   2.455   4.205   9.338
  143MPD1     H 2535   2.668   3.962   9.161
  143MPD1    H1 2536   2.424   4.063   9.491
  143MPD1    H2 2537   2.466   4.328   9.169
  143MPD1    H3 2538   2.394   4.272   9.398
  143MPD1     N 2539   2.574   3.876   9.408
  143MPD1    H5 2540   2.549   3.876   9.506
  143MPD1    N1 2541   2.617   4.178   9.014
  143MPD1    H6 2542   2.562   4.242   8.957
  143MPD1    H7 2543   2.625   4.094   8.957
  144MPD1     C 2544   1.267   2.375   6.717
  144MPD1    C1 2545   1.347   2.419   6.612
  144MPD1    C2 2546   1.460   2.482   6.654
  144MPD1    C3 2547   1.507   2.493   6.784
  144MPD1    C4 2548   1.421   2.445   6.883
  144MPD1    C5 2549   1.302   2.393   6.849
  144MPD1     H 2550   1.510   2.536   6.575
  144MPD1    H1 2551   1.445   2.452   6.988
  144MPD1    H2 2552   1.168   2.334   6.702
  144MPD1    H3 2553   1.240   2.340   6.921
  144MPD1     N 2554   1.629   2.555   6.812
  144MPD1    H5 2555   1.673   2.602   6.734
  144MPD1    N1 2556   1.297   2.416   6.482
  144MPD1    H6 2557   1.240   2.332   6.470
  144MPD1    H7 2558   1.367   2.428   6.408
  145MPD1     C 2559   1.750   3.441   6.784
  145MPD1    C1 2560   1.652   3.347   6.753
  145MPD1    C2 2561   1.689   3.213   6.756
  145MPD1    C3 2562   1.813   3.161   6.808
  145MPD1    C4 2563   1.903   3.255   6.841
  145MPD1    C5 2564   1.866   3.391   6.842
  145MPD1     H 2565   1.613   3.141   6.728
  145MPD1    H1 2566   2.006   3.236   6.871
  145MPD1    H2 2567   1.734   3.547   6.774
  145MPD1    H3 2568   1.931   3.473   6.869
  145MPD1     N 2569   1.835   3.021   6.819
  145MPD1    H5 2570   1.753   2.970   6.788
  145MPD1    N1 2571   1.530   3.400   6.704
  145MPD1    H6 2572   1.455   3.332   6.699
  145MPD1    H7 2573   1.497   3.481   6.755
  146MPD1     C 2574   3.808   0.766   9.076
  146MPD1    C1 2575   3.692   0.747   9.012
  146MPD1    C2 2576   3.662   0.616   8.972
  146MPD1    C3 2577   3.755   0.512   8.994
  146MPD1    C4 2578   3.879   0.545   9.041
  146MPD1    C5 2579   3.900   0.664   9.097
  146MPD1     H 2580   3.575   0.596   8.910
  146MPD1    H1 2581   3.950   0.466   9.066
  146MPD1    H2 2582   3.829   0.868   9.106
  146MPD1    H3 2583   3.995   0.671   9.149
  146MPD1     N 2584   3.729   0.376   8.954
  146MPD1    H5 2585   3.639   0.370   8.907
  146MPD1    N1 2586   3.599   0.850   8.966
  146MPD1    H6 2587   3.625   0.942   9.002
  146MPD1    H7 2588   3.503   0.830   8.995
  147MPD1     C 2589   3.494   4.374  10.777
  147MPD1    C1 2590   3.440   4.385  10.905
  147MPD1    C2 2591   3.511   4.319  11.007
  147MPD1    C3 2592   3.637   4.257  10.992
  147MPD1    C4 2593   3.681   4.243  10.866
  147MPD1    C5 2594   3.615   4.308  10.762
  147MPD1     H 2595   3.458   4.314  11.101
  147MPD1    H1 2596   3.771   4.186  10.844
  147MPD1    H2 2597   3.443   4.409  10.688
  147MPD1    H3 2598   3.655   4.293  10.663
  147MPD1     N 2599   3.706   4.185  11.094
  147MPD1    H5 2600   3.791   4.134  11.072
  147MPD1    N1 2601   3.307   4.419  10.921
  147MPD1    H6 2602   3.274   4.445  11.014
  147MPD1    H7 2603   3.285   4.490  10.852
  148MPD1     C 2604   4.377   4.049  11.865
  148MPD1    C1 2605   4.285   3.948  11.874
  148MPD1    C2 2606   4.209   3.917  11.761
  148MPD1    C3 2607   4.202   4.008  11.659
  148MPD1    C4 2608   4.274   4.125  11.660
  148MPD1    C5 2609   4.369   4.135  11.757
  148MPD1     H 2610   4.156   3.823  11.747
  148MPD1    H1 2611   4.256   4.201  11.585
  148MPD1    H2 2612   4.448   4.075  11.942
  148MPD1    H3 2613   4.444   4.213  11.750
  148MPD1     N 2614   4.115   3.978  11.559
  148MPD1    H5 2615   4.067   3.889  11.570
  148MPD1    N1 2616   4.290   3.861  11.978
  148MPD1    H6 2617   4.305   3.904  12.069
  148MPD1    H7 2618   4.201   3.816  11.996
  149MPD1     C 2619   2.757   0.428  11.742
  149MPD1    C1 2620   2.625   0.421  11.786
  149MPD1    C2 2621   2.531   0.515  11.741
  149MPD1    C3 2622   2.573   0.629  11.682
  149MPD1    C4 2623   2.705   0.639  11.649
  149MPD1    C5 2624   2.798   0.540  11.673
  149MPD1     H 2625   2.428   0.511  11.775
  149MPD1    H1 2626   2.736   0.724  11.589
  149MPD1    H2 2627   2.829   0.358  11.781
  149MPD1    H3 2628   2.899   0.561  11.639
  149MPD1     N 2629   2.470   0.715  11.653
  149MPD1    H5 2630   2.374   0.681  11.655
  149MPD1    N1 2631   2.581   0.313  11.857
  149MPD1    H6 2632   2.656   0.265  11.905
  149MPD1    H7 2633   2.518   0.342  11.931
  150MPD1     C 2634   3.480   3.759  14.071
  150MPD1    C1 2635   3.492   3.728  13.938
  150MPD1    C2 2636   3.497   3.592  13.898
  150MPD1    C3 2637   3.503   3.484  13.993
  150MPD1    C4 2638   3.504   3.518  14.128
  150MPD1    C5 2639   3.488   3.654  14.157
  150MPD1     H 2640   3.504   3.565  13.793
  150MPD1    H1 2641   3.516   3.453  14.214
  150MPD1    H2 2642   3.466   3.860  14.109
  150MPD1    H3 2643   3.484   3.686  14.261
  150MPD1     N 2644   3.513   3.355  13.936
  150MPD1    H5 2645   3.505   3.343  13.835
  150MPD1    N1 2646   3.471   3.829  13.845
  150MPD1    H6 2647   3.504   3.803  13.753
  150MPD1    H7 2648   3.372   3.851  13.838
  151MPD1     C 2649   0.402   0.904  13.346
  151MPD1    C1 2650   0.391   0.826  13.461
  151MPD1    C2 2651   0.385   0.897  13.586
  151MPD1    C3 2652   0.407   1.034  13.594
  151MPD1    C4 2653   0.430   1.100  13.481
  151MPD1    C5 2654   0.428   1.039  13.360
  151MPD1     H 2655   0.354   0.843  13.675
  151MPD1    H1 2656   0.468   1.201  13.492
  151MPD1    H2 2657   0.412   0.867  13.244
  151MPD1    H3 2658   0.443   1.105  13.276
  151MPD1     N 2659   0.408   1.100  13.714
  151MPD1    H5 2660   0.437   1.198  13.711
  151MPD1    N1 2661   0.353   0.691  13.448
  151MPD1    H6 2662   0.381   0.652  13.359
  151MPD1    H7 2663   0.359   0.632  13.532
  152MPD1     C 2664   1.277   1.441   7.268
  152MPD1    C1 2665   1.163   1.377   7.230
  152MPD1    C2 2666   1.120   1.410   7.102
  152MPD1    C3 2667   1.191   1.504   7.028
  152MPD1    C4 2668   1.293   1.571   7.086
  152MPD1    C5 2669   1.332   1.544   7.209
  152MPD1     H 2670   1.043   1.351   7.054
  152MPD1    H1 2671   1.335   1.658   7.038
  152MPD1    H2 2672   1.305   1.427   7.372
  152MPD1    H3 2673   1.404   1.601   7.266
  152MPD1     N 2674   1.143   1.520   6.891
  152MPD1    H5 2675   1.069   1.458   6.861
  152MPD1    N1 2676   1.098   1.277   7.309
  152MPD1    H6 2677   1.002   1.273   7.276
  152MPD1    H7 2678   1.116   1.272   7.409
  153MPD1     C 2679   2.904   3.575   5.982
  153MPD1    C1 2680   2.920   3.530   6.110
  153MPD1    C2 2681   2.957   3.619   6.206
  153MPD1    C3 2682   2.992   3.755   6.174
  153MPD1    C4 2683   2.994   3.783   6.039
  153MPD1    C5 2684   2.938   3.701   5.952
  153MPD1     H 2685   2.944   3.591   6.310
  153MPD1    H1 2686   3.022   3.880   6.000
  153MPD1    H2 2687   2.872   3.511   5.901
  153MPD1    H3 2688   2.938   3.727   5.847
  153MPD1     N 2689   3.030   3.847   6.275
  153MPD1    H5 2690   3.039   3.807   6.368
  153MPD1    N1 2691   2.849   3.414   6.143
  153MPD1    H6 2692   2.853   3.330   6.086
  153MPD1    H7 2693   2.874   3.377   6.234
  154MPD1     C 2694   2.646   3.824   6.393
  154MPD1    C1 2695   2.724   3.909   6.458
  154MPD1    C2 2696   2.797   3.867   6.562
  154MPD1    C3 2697   2.770   3.745   6.621
  154MPD1    C4 2698   2.689   3.658   6.555
  154MPD1    C5 2699   2.618   3.701   6.445
  154MPD1     H 2700   2.857   3.949   6.601
  154MPD1    H1 2701   2.666   3.559   6.592
  154MPD1    H2 2702   2.602   3.848   6.297
  154MPD1    H3 2703   2.547   3.634   6.398
  154MPD1     N 2704   2.816   3.704   6.745
  154MPD1    H5 2705   2.779   3.615   6.777
  154MPD1    N1 2706   2.740   4.043   6.414
  154MPD1    H6 2707   2.655   4.086   6.379
  154MPD1    H7 2708   2.763   4.095   6.499
  155MPD1     C 2709   2.711   1.976  11.051
  155MPD1    C1 2710   2.707   2.021  11.189
  155MPD1    C2 2711   2.642   1.934  11.281
  155MPD1    C3 2712   2.580   1.817  11.235
  155MPD1    C4 2713   2.571   1.788  11.103
  155MPD1    C5 2714   2.648   1.864  11.014
  155MPD1     H 2715   2.643   1.976  11.381
  155MPD1    H1 2716   2.525   1.696  11.066
  155MPD1    H2 2717   2.773   2.029  10.980
  155MPD1    H3 2718   2.660   1.825  10.914
  155MPD1     N 2719   2.510   1.728  11.316
  155MPD1    H5 2720   2.443   1.663  11.275
  155MPD1    N1 2721   2.753   2.150  11.223
  155MPD1    H6 2722   2.836   2.183  11.175
  155MPD1    H7 2723   2.790   2.156  11.318
  156MPD1     C 2724   3.805   1.659  10.598
  156MPD1    C1 2725   3.699   1.643  10.515
  156MPD1    C2 2726   3.670   1.511  10.479
  156MPD1    C3 2727   3.736   1.406  10.531
  156MPD1    C4 2728   3.837   1.425  10.624
  156MPD1    C5 2729   3.874   1.551  10.649
  156MPD1     H 2730   3.590   1.493  10.409
  156MPD1    H1 2731   3.880   1.340  10.675
  156MPD1    H2 2732   3.834   1.753  10.643
  156MPD1    H3 2733   3.965   1.563  10.708
  156MPD1     N 2734   3.694   1.278  10.509
  156MPD1    H5 2735   3.729   1.197  10.560
  156MPD1    N1 2736   3.639   1.752  10.449
  156MPD1    H6 2737   3.547   1.737  10.409
  156MPD1    H7 2738   3.640   1.836  10.506
  157MPD1     C 2739   4.318   1.981  11.599
  157MPD1    C1 2740   4.303   2.118  11.605
  157MPD1    C2 2741   4.240   2.174  11.501
  157MPD1    C3 2742   4.237   2.116  11.376
  157MPD1    C4 2743   4.283   1.988  11.367
  157MPD1    C5 2744   4.325   1.921  11.480
  157MPD1     H 2745   4.213   2.278  11.512
  157MPD1    H1 2746   4.280   1.928  11.277
  157MPD1    H2 2747   4.360   1.926  11.682
  157MPD1    H3 2748   4.367   1.821  11.479
  157MPD1     N 2749   4.185   2.176  11.260
  157MPD1    H5 2750   4.203   2.133  11.170
  157MPD1    N1 2751   4.306   2.180  11.726
  157MPD1    H6 2752   4.342   2.275  11.717
  157MPD1    H7 2753   4.361   2.132  11.798
  158MPD1     C 2754   3.305   2.013  10.371
  158MPD1    C1 2755   3.211   1.912  10.358
  158MPD1    C2 2756   3.186   1.823  10.464
  158MPD1    C3 2757   3.263   1.832  10.574
  158MPD1    C4 2758   3.364   1.929  10.580
  158MPD1    C5 2759   3.380   2.018  10.485
  158MPD1     H 2760   3.122   1.738  10.445
  158MPD1    H1 2761   3.434   1.930  10.663
  158MPD1    H2 2762   3.331   2.087  10.297
  158MPD1    H3 2763   3.455   2.095  10.493
  158MPD1     N 2764   3.248   1.723  10.668
  158MPD1    H5 2765   3.183   1.651  10.639
  158MPD1    N1 2766   3.138   1.910  10.238
  158MPD1    H6 2767   3.149   1.995  10.183
  158MPD1    H7 2768   3.172   1.834  10.179
  159MPD1     C 2769   4.105   1.475  11.117
  159MPD1    C1 2770   4.072   1.373  11.028
  159MPD1    C2 2771   3.939   1.352  11.000
  159MPD1    C3 2772   3.848   1.455  11.022
  159MPD1    C4 2773   3.884   1.570  11.091
  159MPD1    C5 2774   4.012   1.574  11.146
  159MPD1     H 2775   3.904   1.263  10.948
  159MPD1    H1 2776   3.819   1.653  11.118
  159MPD1    H2 2777   4.203   1.494  11.159
  159MPD1    H3 2778   4.045   1.668  11.189
  159MPD1     N 2779   3.713   1.451  10.977
  159MPD1    H5 2780   3.656   1.535  10.983
  159MPD1    N1 2781   4.167   1.279  10.991
  159MPD1    H6 2782   4.145   1.236  10.901
  159MPD1    H7 2783   4.259   1.323  10.995
  160MPD1     C 2784   3.530   3.944  12.135
  160MPD1    C1 2785   3.421   4.026  12.124
  160MPD1    C2 2786   3.423   4.132  12.032
  160MPD1    C3 2787   3.544   4.178  11.979
  160MPD1    C4 2788   3.657   4.111  12.016
  160MPD1    C5 2789   3.645   3.992  12.076
  160MPD1     H 2790   3.334   4.192  12.013
  160MPD1    H1 2791   3.752   4.135  11.967
  160MPD1    H2 2792   3.526   3.856  12.198
  160MPD1    H3 2793   3.735   3.931  12.086
  160MPD1     N 2794   3.555   4.283  11.892
  160MPD1    H5 2795   3.649   4.309  11.863
  160MPD1    N1 2796   3.293   3.991  12.164
  160MPD1    H6 2797   3.290   3.940  12.252
  160MPD1    H7 2798   3.245   4.078  12.187
  161MPD1     C 2799   4.102   3.160  13.404
  161MPD1    C1 2800   4.171   3.160  13.527
  161MPD1    C2 2801   4.292   3.099  13.529
  161MPD1    C3 2802   4.340   3.021  13.425
  161MPD1    C4 2803   4.272   3.022  13.311
  161MPD1    C5 2804   4.151   3.083  13.301
  161MPD1     H 2805   4.359   3.094  13.615
  161MPD1    H1 2806   4.312   2.967  13.226
  161MPD1    H2 2807   4.014   3.219  13.379
  161MPD1    H3 2808   4.098   3.070  13.208
  161MPD1     N 2809   4.473   2.971  13.439
  161MPD1    H5 2810   4.517   2.989  13.529
  161MPD1    N1 2811   4.134   3.248  13.632
  161MPD1    H6 2812   4.173   3.221  13.722
  161MPD1    H7 2813   4.032   3.257  13.632
  162MPD1     C 2814   4.662   2.081  13.565
  162MPD1    C1 2815   4.561   2.160  13.526
  162MPD1    C2 2816   4.586   2.292  13.518
  162MPD1    C3 2817   4.718   2.344  13.539
  162MPD1    C4 2818   0.038   2.259  13.569
  162MPD1    C5 2819   0.004   2.125  13.586
  162MPD1     H 2820   4.509   2.363  13.490
  162MPD1    H1 2821   0.131   2.305  13.600
  162MPD1    H2 2822   4.643   1.974  13.577
  162MPD1    H3 2823   0.080   2.053  13.614
  162MPD1     N 2824   4.729   2.488  13.528
  162MPD1    H5 2825   4.648   2.540  13.497
  162MPD1    N1 2826   4.431   2.115  13.507
  162MPD1    H6 2827   4.426   2.015  13.487
  162MPD1    H7 2828   4.382   2.176  13.443
  163MPD1     C 2829   2.339   3.483   9.889
  163MPD1    C1 2830   2.474   3.504   9.899
  163MPD1    C2 2831   2.510   3.625   9.966
  163MPD1    C3 2832   2.416   3.718  10.000
  163MPD1    C4 2833   2.284   3.687   9.985
  163MPD1    C5 2834   2.240   3.574   9.921
  163MPD1     H 2835   2.614   3.656   9.978
  163MPD1    H1 2836   2.201   3.748  10.020
  163MPD1    H2 2837   2.310   3.385   9.852
  163MPD1    H3 2838   2.139   3.544   9.895
  163MPD1     N 2839   2.455   3.846  10.052
  163MPD1    H5 2840   2.555   3.858  10.066
  163MPD1    N1 2841   2.568   3.407   9.867
  163MPD1    H6 2842   2.540   3.329   9.808
  163MPD1    H7 2843   2.661   3.444   9.847
  164MPD1     C 2844   3.553   1.664   8.082
  164MPD1    C1 2845   3.668   1.679   8.008
  164MPD1    C2 2846   3.683   1.615   7.889
  164MPD1    C3 2847   3.595   1.525   7.843
  164MPD1    C4 2848   3.481   1.498   7.924
  164MPD1    C5 2849   3.469   1.566   8.041
  164MPD1     H 2850   3.770   1.645   7.832
  164MPD1    H1 2851   3.403   1.437   7.880
  164MPD1    H2 2852   3.528   1.719   8.171
  164MPD1    H3 2853   3.379   1.556   8.102
  164MPD1     N 2854   3.626   1.457   7.730
  164MPD1    H5 2855   3.715   1.478   7.686
  164MPD1    N1 2856   3.774   1.767   8.045
  164MPD1    H6 2857   3.764   1.810   8.137
  164MPD1    H7 2858   3.857   1.707   8.037
  165MPD1     C 2859   3.543   1.128   7.984
  165MPD1    C1 2860   3.430   1.046   7.995
  165MPD1    C2 2861   3.418   0.953   7.889
  165MPD1    C3 2862   3.516   0.933   7.793
  165MPD1    C4 2863   3.627   1.014   7.798
  165MPD1    C5 2864   3.641   1.112   7.891
  165MPD1     H 2865   3.328   0.896   7.869
  165MPD1    H1 2866   3.700   1.009   7.718
  165MPD1    H2 2867   3.558   1.218   8.042
  165MPD1    H3 2868   3.718   1.188   7.889
  165MPD1     N 2869   3.485   0.844   7.689
  165MPD1    H5 2870   3.388   0.821   7.675
  165MPD1    N1 2871   3.318   1.073   8.076
  165MPD1    H6 2872   3.341   1.130   8.158
  165MPD1    H7 2873   3.269   0.989   8.104
  166MPD1     C 2874   1.403   3.633  11.899
  166MPD1    C1 2875   1.347   3.661  11.778
  166MPD1    C2 2876   1.408   3.758  11.698
  166MPD1    C3 2877   1.516   3.830  11.737
  166MPD1    C4 2878   1.570   3.793  11.860
  166MPD1    C5 2879   1.522   3.688  11.934
  166MPD1     H 2880   1.347   3.775  11.610
  166MPD1    H1 2881   1.665   3.839  11.887
  166MPD1    H2 2882   1.368   3.552  11.961
  166MPD1    H3 2883   1.576   3.651  12.020
  166MPD1     N 2884   1.570   3.937  11.671
  166MPD1    H5 2885   1.631   4.002  11.720
  166MPD1    N1 2886   1.228   3.599  11.742
  166MPD1    H6 2887   1.203   3.600  11.644
  166MPD1    H7 2888   1.205   3.511  11.787
  167MPD1     C 2889   2.210   3.152  13.509
  167MPD1    C1 2890   2.167   3.022  13.523
  167MPD1    C2 2891   2.235   2.926  13.603
  167MPD1    C3 2892   2.343   2.972  13.677
  167MPD1    C4 2893   2.373   3.107  13.676
  167MPD1    C5 2894   2.315   3.198  13.586
  167MPD1     H 2895   2.213   2.820  13.606
  167MPD1    H1 2896   2.441   3.152  13.747
  167MPD1    H2 2897   2.163   3.215  13.435
  167MPD1    H3 2898   2.352   3.300  13.589
  167MPD1     N 2899   2.409   2.883  13.760
  167MPD1    H5 2900   2.408   2.790  13.719
  167MPD1    N1 2901   2.066   2.982  13.430
  167MPD1    H6 2902   2.003   3.062  13.435
  167MPD1    H7 2903   2.012   2.917  13.488
  168MPD1     C 2904   0.479   0.664  14.836
  168MPD1    C1 2905   0.602   0.685  14.900
  168MPD1    C2 2906   0.689   0.577  14.899
  168MPD1    C3 2907   0.651   0.457  14.842
  168MPD1    C4 2908   0.526   0.438  14.786
  168MPD1    C5 2909   0.445   0.546  14.771
  168MPD1     H 2910   0.783   0.592  14.952
  168MPD1    H1 2911   0.498   0.345  14.738
  168MPD1    H2 2912   0.408   0.743  14.815
  168MPD1    H3 2913   0.353   0.541  14.714
  168MPD1     N 2914   0.731   0.347  14.840
  168MPD1    H5 2915   0.695   0.259  14.806
  168MPD1    N1 2916   0.637   0.818  14.923
  168MPD1    H6 2917   0.562   0.877  14.959
  168MPD1    H7 2918   0.722   0.824  14.979
  169MPD1     C 2919   4.245   2.941   7.100
  169MPD1    C1 2920   4.189   2.836   7.163
  169MPD1    C2 2921   4.207   2.832   7.301
  169MPD1    C3 2922   4.270   2.931   7.372
  169MPD1    C4 2923   4.322   3.037   7.300
  169MPD1    C5 2924   4.305   3.042   7.165
  169MPD1     H 2925   4.152   2.753   7.350
  169MPD1    H1 2926   4.376   3.117   7.350
  169MPD1    H2 2927   4.232   2.962   6.995
  169MPD1    H3 2928   4.330   3.137   7.119
  169MPD1     N 2929   4.269   2.927   7.511
  169MPD1    H5 2930   4.245   2.837   7.551
  169MPD1    N1 2931   4.092   2.755   7.107
  169MPD1    H6 2932   4.113   2.728   7.011
  169MPD1    H7 2933   4.070   2.669   7.157
  170MPD2     C 2934   1.449   2.806  10.335
  170MPD2    C1 2935   1.376   2.690  10.323
  170MPD2    C2 2936   1.256   2.689  10.258
  170MPD2    C3 2937   1.194   2.808  10.216
  170MPD2    C4 2938   1.264   2.921  10.225
  170MPD2    C5 2939   1.386   2.923  10.289
  170MPD2     H 2940   1.198   2.599  10.248
  170MPD2    H1 2941   1.218   3.018  10.210
  170MPD2    H2 2942   1.539   2.812  10.396
  170MPD2    H3 2943   1.420   3.019  10.324
  170MPD2     N 2944   1.064   2.822  10.164
  170MPD2    H5 2945   1.043   2.905  10.110
  170MPD2    N1 2946   1.444   2.578  10.375
  170MPD2    H7 2947   1.539   2.604  10.401
  171MPD2     C 2948   0.463   2.316  10.060
  171MPD2    C1 2949   0.500   2.376   9.943
  171MPD2    C2 2950   0.437   2.329   9.830
  171MPD2    C3 2951   0.336   2.228   9.828
  171MPD2    C4 2952   0.283   2.193   9.955
  171MPD2    C5 2953   0.357   2.232  10.066
  171MPD2     H 2954   0.480   2.357   9.734
  171MPD2    H1 2955   0.202   2.123   9.968
  171MPD2    H2 2956   0.518   2.338  10.151
  171MPD2    H3 2957   0.334   2.179  10.158
  171MPD2     N 2958   0.267   2.173   9.713
  171MPD2    H5 2959   0.248   2.074   9.723
  171MPD2    N1 2960   0.595   2.477   9.954
  171MPD2    H7 2961   0.641   2.494  10.043
  172MPD2     C 2962   0.482   3.399  10.096
  172MPD2    C1 2963   0.430   3.278  10.078
  172MPD2    C2 2964   0.496   3.183  10.006
  172MPD2    C3 2965   0.630   3.206   9.965
  172MPD2    C4 2966   0.686   3.329   9.996
  172MPD2    C5 2967   0.604   3.425  10.045
  172MPD2     H 2968   0.457   3.082  10.011
  172MPD2    H1 2969   0.790   3.346   9.969
  172MPD2    H2 2970   0.435   3.474  10.158
  172MPD2    H3 2971   0.641   3.521  10.081
  172MPD2     N 2972   0.718   3.106   9.920
  172MPD2    H5 2973   0.817   3.108   9.941
  172MPD2    N1 2974   0.309   3.236  10.147
  172MPD2    H7 2975   0.286   3.138  10.135
  173MPD2     C 2976   1.517   4.293   6.744
  173MPD2    C1 2977   1.489   4.217   6.857
  173MPD2    C2 2978   1.424   4.101   6.832
  173MPD2    C3 2979   1.382   4.067   6.707
  173MPD2    C4 2980   1.412   4.142   6.596
  173MPD2    C5 2981   1.475   4.258   6.622
  173MPD2     H 2982   1.406   4.023   6.906
  173MPD2    H1 2983   1.394   4.116   6.493
  173MPD2    H2 2984   1.572   4.386   6.760
  173MPD2    H3 2985   1.489   4.325   6.538
  173MPD2     N 2986   1.315   3.945   6.688
  173MPD2    H5 2987   1.318   3.883   6.769
  173MPD2    N1 2988   1.522   4.258   6.992
  173MPD2    H7 2989   1.496   4.193   7.066
  174MPD2     C 2990   1.192   2.950   6.319
  174MPD2    C1 2991   1.198   2.956   6.457
  174MPD2    C2 2992   1.206   3.071   6.525
  174MPD2    C3 2993   1.208   3.189   6.462
  174MPD2    C4 2994   1.208   3.187   6.323
  174MPD2    C5 2995   1.199   3.069   6.252
  174MPD2     H 2996   1.191   3.073   6.633
  174MPD2    H1 2997   1.208   3.279   6.266
  174MPD2    H2 2998   1.175   2.861   6.261
  174MPD2    H3 2999   1.210   3.074   6.144
  174MPD2     N 3000   1.210   3.306   6.537
  174MPD2    H5 3001   1.197   3.288   6.636
  174MPD2    N1 3002   1.173   2.833   6.517
  174MPD2    H7 3003   1.158   2.754   6.455
  175MPD2     C 3004   2.140   2.722  12.260
  175MPD2    C1 3005   2.068   2.673  12.372
  175MPD2    C2 3006   1.928   2.658  12.359
  175MPD2    C3 3007   1.867   2.678  12.236
  175MPD2    C4 3008   1.935   2.718  12.128
  175MPD2    C5 3009   2.072   2.739  12.141
  175MPD2     H 3010   1.868   2.627  12.443
  175MPD2    H1 3011   1.882   2.748  12.038
  175MPD2    H2 3012   2.246   2.741  12.270
  175MPD2    H3 3013   2.118   2.769  12.048
  175MPD2     N 3014   1.731   2.655  12.209
  175MPD2    H5 3015   1.698   2.630  12.116
  175MPD2    N1 3016   2.141   2.629  12.490
  175MPD2    H7 3017   2.238   2.659  12.492
  176MPD2     C 3018   1.982   2.291  11.787
  176MPD2    C1 3019   1.871   2.348  11.839
  176MPD2    C2 3020   1.861   2.336  11.978
  176MPD2    C3 3021   1.958   2.273  12.053
  176MPD2    C4 3022   2.074   2.220  11.992
  176MPD2    C5 3023   2.082   2.236  11.857
  176MPD2     H 3024   1.775   2.383  12.024
  176MPD2    H1 3025   2.151   2.171  12.050
  176MPD2    H2 3026   1.988   2.272  11.680
  176MPD2    H3 3027   2.163   2.183  11.807
  176MPD2     N 3028   1.959   2.287  12.195
  176MPD2    H5 3029   2.053   2.272  12.231
  176MPD2    N1 3030   1.780   2.414  11.761
  176MPD2    H7 3031   1.689   2.445  11.795
  177MPD2     C 3032   1.930   2.038  13.212
  177MPD2    C1 3033   1.842   1.990  13.124
  177MPD2    C2 3034   1.821   2.059  13.005
  177MPD2    C3 3035   1.902   2.167  12.971
  177MPD2    C4 3036   1.986   2.210  13.068
  177MPD2    C5 3037   1.995   2.157  13.196
  177MPD2     H 3038   1.731   2.040  12.948
  177MPD2    H1 3039   2.045   2.300  13.050
  177MPD2    H2 3040   1.949   1.972  13.297
  177MPD2    H3 3041   2.062   2.195  13.272
  177MPD2     N 3042   1.886   2.249  12.859
  177MPD2    H5 3043   1.959   2.319  12.852
  177MPD2    N1 3044   1.781   1.863  13.156
  177MPD2    H7 3045   1.824   1.811  13.232
  178MPD2     C 3046   4.774   1.012   7.257
  178MPD2    C1 3047   0.005   1.109   7.356
  178MPD2    C2 3048   0.020   1.244   7.323
  178MPD2    C3 3049   0.010   1.285   7.190
  178MPD2    C4 3050   4.769   1.188   7.099
  178MPD2    C5 3051   4.751   1.057   7.128
  178MPD2     H 3052   0.054   1.311   7.401
  178MPD2    H1 3053   4.747   1.215   6.996
  178MPD2    H2 3054   4.775   0.907   7.281
  178MPD2    H3 3055   4.741   0.990   7.044
  178MPD2     N 3056   0.032   1.428   7.162
  178MPD2    H5 3057   0.067   1.476   7.245
  178MPD2    N1 3058   0.030   1.077   7.493
  178MPD2    H7 3059   0.028   1.157   7.555
  179MPD2     C 3060   0.366   0.476   7.913
  179MPD2    C1 3061   0.235   0.498   7.872
  179MPD2    C2 3062   0.172   0.395   7.802
  179MPD2    C3 3063   0.235   0.276   7.784
  179MPD2    C4 3064   0.360   0.254   7.828
  179MPD2    C5 3065   0.427   0.355   7.891
  179MPD2     H 3066   0.072   0.406   7.761
  179MPD2    H1 3067   0.406   0.156   7.827
  179MPD2    H2 3068   0.420   0.554   7.965
  179MPD2    H3 3069   0.524   0.336   7.936
  179MPD2     N 3070   0.162   0.171   7.727
  179MPD2    H5 3071   0.063   0.164   7.752
  179MPD2    N1 3072   0.177   0.625   7.897
  179MPD2    H7 3073   0.243   0.702   7.901
  180MPD2     C 3074   4.256   0.656   7.939
  180MPD2    C1 3075   4.370   0.673   7.865
  180MPD2    C2 3076   4.422   0.793   7.844
  180MPD2    C3 3077   4.387   0.908   7.920
  180MPD2    C4 3078   4.277   0.886   8.002
  180MPD2    C5 3079   4.214   0.766   8.012
  180MPD2     H 3080   4.510   0.807   7.783
  180MPD2    H1 3081   4.224   0.971   8.045
  180MPD2    H2 3082   4.203   0.563   7.956
  180MPD2    H3 3083   4.119   0.756   8.064
  180MPD2     N 3084   4.458   1.031   7.940
  180MPD2    H5 3085   4.395   1.097   7.986
  180MPD2    N1 3086   4.414   0.562   7.796
  180MPD2    H7 3087   4.372   0.472   7.816
  181MPD2     C 3088   4.521   2.620   9.973
  181MPD2    C1 3089   4.499   2.527   9.873
  181MPD2    C2 3090   4.430   2.410   9.898
  181MPD2    C3 3091   4.386   2.384  10.029
  181MPD2    C4 3092   4.422   2.477  10.125
  181MPD2    C5 3093   4.480   2.596  10.103
  181MPD2     H 3094   4.433   2.342   9.814
  181MPD2    H1 3095   4.401   2.460  10.230
  181MPD2    H2 3096   4.561   2.720   9.965
  181MPD2    H3 3097   4.494   2.666  10.185
  181MPD2     N 3098   4.300   2.272  10.058
  181MPD2    H5 3099   4.269   2.220   9.977
  181MPD2    N1 3100   4.560   2.562   9.753
  181MPD2    H7 3101   4.564   2.661   9.734
  182MPD2     C 3102   4.067   1.841  10.752
  182MPD2    C1 3103   4.134   1.781  10.651
  182MPD2    C2 3104   4.233   1.690  10.683
  182MPD2    C3 3105   4.276   1.683  10.815
  182MPD2    C4 3106   4.210   1.753  10.910
  182MPD2    C5 3107   4.101   1.833  10.880
  182MPD2     H 3108   4.283   1.627  10.611
  182MPD2    H1 3109   4.236   1.748  11.016
  182MPD2    H2 3110   3.989   1.911  10.721
  182MPD2    H3 3111   4.046   1.883  10.960
  182MPD2     N 3112   4.393   1.598  10.847
  182MPD2    H5 3113   4.430   1.544  10.770
  182MPD2    N1 3114   4.120   1.812  10.513
  182MPD2    H7 3115   4.189   1.771  10.451
  183MPD2     C 3116   2.868   2.995  14.226
  183MPD2    C1 3117   2.911   3.081  14.134
  183MPD2    C2 3118   2.921   3.048  14.003
  183MPD2    C3 3119   2.868   2.926  13.959
  183MPD2    C4 3120   2.819   2.839  14.054
  183MPD2    C5 3121   2.812   2.875  14.185
  183MPD2     H 3122   2.944   3.123  13.927
  183MPD2    H1 3123   2.771   2.744  14.037
  183MPD2    H2 3124   2.883   3.022  14.330
  183MPD2    H3 3125   2.763   2.805  14.251
  183MPD2     N 3126   2.849   2.888  13.827
  183MPD2    H5 3127   2.789   2.810  13.805
  183MPD2    N1 3128   2.944   3.210  14.186
  183MPD2    H7 3129   2.926   3.230  14.284
  184MPD2     C 3130   2.303   3.844  14.354
  184MPD2    C1 3131   2.384   3.782  14.444
  184MPD2    C2 3132   2.497   3.717  14.402
  184MPD2    C3 3133   2.529   3.714  14.263
  184MPD2    C4 3134   2.447   3.784  14.168
  184MPD2    C5 3135   2.335   3.841  14.220
  184MPD2     H 3136   2.555   3.658  14.472
  184MPD2    H1 3137   2.471   3.796  14.063
  184MPD2    H2 3138   2.210   3.893  14.383
  184MPD2    H3 3139   2.273   3.886  14.144
  184MPD2     N 3140   2.652   3.646  14.230
  184MPD2    H5 3141   2.707   3.596  14.299
  184MPD2    N1 3142   2.357   3.803  14.579
  184MPD2    H7 3143   2.286   3.873  14.598
  185MPD2     C 3144   3.331   3.423  13.482
  185MPD2    C1 3145   3.303   3.323  13.574
  185MPD2    C2 3146   3.247   3.354  13.697
  185MPD2    C3 3147   3.228   3.491  13.722
  185MPD2    C4 3148   3.271   3.588  13.636
  185MPD2    C5 3149   3.318   3.550  13.515
  185MPD2     H 3150   3.212   3.277  13.765
  185MPD2    H1 3151   3.252   3.695  13.642
  185MPD2    H2 3152   3.378   3.403  13.386
  185MPD2    H3 3153   3.365   3.620  13.447
  185MPD2     N 3154   3.166   3.519  13.840
  185MPD2    H5 3155   3.130   3.437  13.887
  185MPD2    N1 3156   3.331   3.182  13.538
  185MPD2    H7 3157   3.365   3.169  13.444
  186MPD2     C 3158   4.634   3.315   8.660
  186MPD2    C1 3159   4.716   3.222   8.727
  186MPD2    C2 3160   4.684   3.087   8.711
  186MPD2    C3 3161   4.577   3.053   8.630
  186MPD2    C4 3162   4.504   3.144   8.559
  186MPD2    C5 3163   4.533   3.277   8.579
  186MPD2     H 3164   4.754   3.020   8.758
  186MPD2    H1 3165   4.433   3.118   8.481
  186MPD2    H2 3166   4.660   3.420   8.653
  186MPD2    H3 3167   4.478   3.350   8.521
  186MPD2     N 3168   4.563   2.919   8.593
  186MPD2    H5 3169   4.502   2.897   8.515
  186MPD2    N1 3170   0.040   3.255   8.804
  186MPD2    H7 3171   0.086   3.178   8.851
  187MPD2     C 3172   0.147   2.011   8.905
  187MPD2    C1 3173   0.144   2.134   8.973
  187MPD2    C2 3174   0.068   2.229   8.914
  187MPD2    C3 3175   0.024   2.223   8.783
  187MPD2    C4 3176   0.036   2.103   8.714
  187MPD2    C5 3177   0.093   2.003   8.782
  187MPD2     H 3178   0.057   2.324   8.965
  187MPD2    H1 3179   0.020   2.092   8.608
  187MPD2    H2 3180   0.190   1.917   8.937
  187MPD2    H3 3181   0.100   1.911   8.725
  187MPD2     N 3182   4.771   2.341   8.723
  187MPD2    H5 3183   4.767   2.427   8.777
  187MPD2    N1 3184   0.207   2.154   9.098
  187MPD2    H7 3185   0.178   2.233   9.154
  188MPD2     C 3186   0.307   2.936   8.356
  188MPD2    C1 3187   0.173   2.952   8.321
  188MPD2    C2 3188   0.112   3.074   8.319
  188MPD2    C3 3189   0.175   3.187   8.356
  188MPD2    C4 3190   0.307   3.178   8.390
  188MPD2    C5 3191   0.372   3.055   8.400
  188MPD2     H 3192   0.007   3.081   8.293
  188MPD2    H1 3193   0.374   3.260   8.411
  188MPD2    H2 3194   0.362   2.842   8.361
  188MPD2    H3 3195   0.470   3.057   8.448
  188MPD2     N 3196   0.130   3.316   8.365
  188MPD2    H5 3197   0.202   3.383   8.389
  188MPD2    N1 3198   0.090   2.843   8.290
  188MPD2    H7 3199   4.784   2.862   8.269
  189MPD2     C 3200   1.352   2.783   8.748
  189MPD2    C1 3201   1.346   2.744   8.613
  189MPD2    C2 3202   1.321   2.836   8.509
  189MPD2    C3 3203   1.303   2.969   8.541
  189MPD2    C4 3204   1.303   3.003   8.675
  189MPD2    C5 3205   1.344   2.916   8.775
  189MPD2     H 3206   1.313   2.805   8.406
  189MPD2    H1 3207   1.288   3.106   8.707
  189MPD2    H2 3208   1.372   2.714   8.829
  189MPD2    H3 3209   1.335   2.947   8.878
  189MPD2     N 3210   1.316   3.069   8.440
  189MPD2    H5 3211   1.348   3.162   8.466
  189MPD2    N1 3212   1.383   2.612   8.580
  189MPD2    H7 3213   1.385   2.548   8.659
  190MPD2     C 3214   1.002   1.913   8.881
  190MPD2    C1 3215   0.991   1.919   8.746
  190MPD2    C2 3216   1.079   1.987   8.669
  190MPD2    C3 3217   1.190   2.051   8.726
  190MPD2    C4 3218   1.200   2.045   8.867
  190MPD2    C5 3219   1.110   1.979   8.945
  190MPD2     H 3220   1.052   1.998   8.565
  190MPD2    H1 3221   1.279   2.103   8.913
  190MPD2    H2 3222   0.928   1.874   8.950
  190MPD2    H3 3223   1.122   1.983   9.053
  190MPD2     N 3224   1.285   2.124   8.649
  190MPD2    H5 3225   1.350   2.182   8.702
  190MPD2    N1 3226   0.888   1.841   8.702
  190MPD2    H7 3227   0.841   1.782   8.770
  191MPD2     C 3228   1.984   2.079   8.352
  191MPD2    C1 3229   1.900   2.156   8.267
  191MPD2    C2 3230   1.953   2.208   8.154
  191MPD2    C3 3231   2.086   2.200   8.126
  191MPD2    C4 3232   2.172   2.130   8.211
  191MPD2    C5 3233   2.119   2.083   8.328
  191MPD2     H 3234   1.891   2.269   8.089
  191MPD2    H1 3235   2.278   2.115   8.198
  191MPD2    H2 3236   1.943   2.047   8.447
  191MPD2    H3 3237   2.184   2.033   8.398
  191MPD2     N 3238   2.123   2.245   7.999
  191MPD2    H5 3239   2.045   2.287   7.949
  191MPD2    N1 3240   1.763   2.169   8.305
  191MPD2    H7 3241   1.728   2.122   8.389
  192MPD2     C 3242   2.447   2.145  11.923
  192MPD2    C1 3243   2.515   2.241  11.854
  192MPD2    C2 3244   2.606   2.201  11.755
  192MPD2    C3 3245   2.628   2.065  11.732
  192MPD2    C4 3246   2.563   1.970  11.810
  192MPD2    C5 3247   2.474   2.011  11.899
  192MPD2     H 3248   2.663   2.276  11.702
  192MPD2    H1 3249   2.583   1.865  11.793
  192MPD2    H2 3250   2.365   2.169  11.990
  192MPD2    H3 3251   2.411   1.939  11.951
  192MPD2     N 3252   2.724   2.008  11.643
  192MPD2    H5 3253   2.743   1.909  11.653
  192MPD2    N1 3254   2.502   2.378  11.891
  192MPD2    H7 3255   2.533   2.451  11.827
  193MPD2     C 3256   2.558   2.967  12.574
  193MPD2    C1 3257   2.647   2.960  12.471
  193MPD2    C2 3258   2.769   3.025  12.481
  193MPD2    C3 3259   2.806   3.099  12.594
  193MPD2    C4 3260   2.717   3.103  12.703
  193MPD2    C5 3261   2.592   3.044  12.686
  193MPD2     H 3262   2.830   3.017  12.392
  193MPD2    H1 3263   2.739   3.162  12.791
  193MPD2    H2 3264   2.464   2.913  12.569
  193MPD2    H3 3265   2.512   3.048  12.759
  193MPD2     N 3266   2.918   3.185  12.600
  193MPD2    H5 3267   2.928   3.246  12.681
  193MPD2    N1 3268   2.601   2.901  12.352
  193MPD2    H7 3269   2.657   2.916  12.268
  194MPD2     C 3270   0.509   3.667  14.370
  194MPD2    C1 3271   0.426   3.582  14.436
  194MPD2    C2 3272   0.303   3.627  14.488
  194MPD2    C3 3273   0.269   3.759  14.469
  194MPD2    C4 3274   0.349   3.838  14.390
  194MPD2    C5 3275   0.462   3.787  14.333
  194MPD2     H 3276   0.236   3.551  14.528
  194MPD2    H1 3277   0.324   3.942  14.370
  194MPD2    H2 3278   0.602   3.634  14.325
  194MPD2    H3 3279   0.526   3.841  14.265
  194MPD2     N 3280   0.146   3.812  14.503
  194MPD2    H5 3281   0.127   3.910  14.485
  194MPD2    N1 3282   0.461   3.445  14.452
  194MPD2    H7 3283   0.402   3.396  14.518
  195MPD2     C 3284   4.028   3.773  14.633
  195MPD2    C1 3285   4.152   3.723  14.604
  195MPD2    C2 3286   4.170   3.632  14.503
  195MPD2    C3 3287   4.068   3.613  14.420
  195MPD2    C4 3288   3.940   3.650  14.451
  195MPD2    C5 3289   3.925   3.725  14.563
  195MPD2     H 3290   4.269   3.593  14.485
  195MPD2    H1 3291   3.861   3.624  14.381
  195MPD2    H2 3292   4.007   3.822  14.727
  195MPD2    H3 3293   3.824   3.746  14.596
  195MPD2     N 3294   4.084   3.542  14.293
  195MPD2    H5 3295   4.006   3.559  14.231
  195MPD2    N1 3296   4.264   3.779  14.670
  195MPD2    H7 3297   4.254   3.877  14.696
  196MPD2     C 3298   4.494   3.911  13.779
  196MPD2    C1 3299   4.565   4.020  13.829
  196MPD2    C2 3300   4.573   4.032  13.965
  196MPD2    C3 3301   4.513   3.945  14.052
  196MPD2    C4 3302   4.433   3.846  13.994
  196MPD2    C5 3303   4.417   3.832  13.857
  196MPD2     H 3304   4.641   4.112  13.990
  196MPD2    H1 3305   4.378   3.773  14.053
  196MPD2    H2 3306   4.498   3.887  13.674
  196MPD2    H3 3307   4.375   3.738  13.823
  196MPD2     N 3308   4.541   3.963  14.185
  196MPD2    H5 3309   4.614   4.032  14.203
  196MPD2    N1 3310   4.649   4.105  13.753
  196MPD2    H7 3311   4.705   4.174  13.802
  197MPD2     C 3312   0.892   1.895  11.744
  197MPD2    C1 3313   0.866   1.969  11.858
  197MPD2    C2 3314   0.960   1.980  11.959
  197MPD2    C3 3315   1.084   1.917  11.947
  197MPD2    C4 3316   1.111   1.833  11.836
  197MPD2    C5 3317   1.015   1.833  11.734
  197MPD2     H 3318   0.954   2.039  12.049
  197MPD2    H1 3319   1.207   1.790  11.812
  197MPD2    H2 3320   0.826   1.899  11.658
  197MPD2    H3 3321   1.029   1.783  11.639
  197MPD2     N 3322   1.187   1.937  12.049
  197MPD2    H5 3323   1.166   1.986  12.136
  197MPD2    N1 3324   0.758   2.054  11.859
  197MPD2    H7 3325   0.695   2.043  11.780
  198MPD2     C 3326   0.773   2.750  11.876
  198MPD2    C1 3327   0.640   2.727  11.889
  198MPD2    C2 3328   0.556   2.838  11.868
  198MPD2    C3 3329   0.609   2.965  11.845
  198MPD2    C4 3330   0.749   2.982  11.846
  198MPD2    C5 3331   0.826   2.875  11.860
  198MPD2     H 3332   0.448   2.824  11.867
  198MPD2    H1 3333   0.797   3.077  11.824
  198MPD2    H2 3334   0.845   2.669  11.886
  198MPD2    H3 3335   0.933   2.886  11.873
  198MPD2     N 3336   0.515   3.065  11.807
  198MPD2    H5 3337   0.415   3.047  11.817
  198MPD2    N1 3338   0.597   2.593  11.914
  198MPD2    H7 3339   0.671   2.529  11.941
  199MPD2     C 3340   4.747   2.171  11.652
  199MPD2    C1 3341   0.088   2.129  11.639
  199MPD2    C2 3342   0.126   2.049  11.532
  199MPD2    C3 3343   0.036   2.017  11.434
  199MPD2    C4 3344   4.701   2.053  11.449
  199MPD2    C5 3345   4.659   2.121  11.563
  199MPD2     H 3346   0.223   2.004  11.518
  199MPD2    H1 3347   4.631   2.033  11.369
  199MPD2    H2 3348   4.706   2.241  11.724
  199MPD2    H3 3349   4.555   2.146  11.581
  199MPD2     N 3350   0.064   1.946  11.314
  199MPD2    H5 3351   4.776   1.910  11.261
  199MPD2    N1 3352   0.179   2.177  11.729
  199MPD2    H7 3353   0.147   2.255  11.787
  200MPD2     C 3354   4.606   2.406  11.418
  200MPD2    C1 3355   4.736   2.409  11.382
  200MPD2    C2 3356   4.761   2.344  11.265
  200MPD2    C3 3357   4.669   2.265  11.205
  200MPD2    C4 3358   4.542   2.261  11.247
  200MPD2    C5 3359   4.503   2.346  11.351
  200MPD2     H 3360   0.072   2.347  11.226
  200MPD2    H1 3361   4.473   2.211  11.181
  200MPD2    H2 3362   4.581   2.449  11.515
  200MPD2    H3 3363   4.399   2.350  11.384
  200MPD2     N 3364   4.703   2.194  11.087
  200MPD2    H5 3365   4.791   2.218  11.042
  200MPD2    N1 3366   0.050   2.476  11.457
  200MPD2    H7 3367   0.028   2.566  11.499
  201MPD2     C 3368   4.665   2.526  10.598
  201MPD2    C1 3369   4.580   2.416  10.623
  201MPD2    C2 3370   4.440   2.424  10.630
  201MPD2    C3 3371   4.378   2.549  10.619
  201MPD2    C4 3372   4.460   2.660  10.597
  201MPD2    C5 3373   4.597   2.637  10.574
  201MPD2     H 3374   4.377   2.336  10.633
  201MPD2    H1 3375   4.420   2.760  10.587
  201MPD2    H2 3376   4.772   2.532  10.583
  201MPD2    H3 3377   4.650   2.726  10.542
  201MPD2     N 3378   4.237   2.569  10.634
  201MPD2    H5 3379   4.201   2.664  10.635
  201MPD2    N1 3380   4.647   2.288  10.635
  201MPD2    H7 3381   4.592   2.208  10.665
  202MPD2     C 3382   0.600   1.548  10.948
  202MPD2    C1 3383   0.544   1.595  11.064
  202MPD2    C2 3384   0.442   1.687  11.059
  202MPD2    C3 3385   0.414   1.747  10.937
  202MPD2    C4 3386   0.484   1.718  10.822
  202MPD2    C5 3387   0.571   1.612  10.830
  202MPD2     H 3388   0.388   1.706  11.152
  202MPD2    H1 3389   0.469   1.759  10.722
  202MPD2    H2 3390   0.674   1.469  10.958
  202MPD2    H3 3391   0.628   1.585  10.743
  202MPD2     N 3392   0.296   1.829  10.928
  202MPD2    H5 3393   0.249   1.835  11.018
  202MPD2    N1 3394   0.589   1.536  11.187
  202MPD2    H7 3395   0.649   1.454  11.186
  203MPD2     C 3396   1.297   1.388   8.637
  203MPD2    C1 3397   1.218   1.418   8.525
  203MPD2    C2 3398   1.279   1.420   8.394
  203MPD2    C3 3399   1.413   1.384   8.388
  203MPD2    C4 3400   1.483   1.346   8.499
  203MPD2    C5 3401   1.432   1.357   8.622
  203MPD2     H 3402   1.220   1.456   8.310
  203MPD2    H1 3403   1.589   1.328   8.482
  203MPD2    H2 3404   1.247   1.372   8.732
  203MPD2    H3 3405   1.496   1.336   8.707
  203MPD2     N 3406   1.499   1.400   8.270
  203MPD2    H5 3407   1.599   1.387   8.285
  203MPD2    N1 3408   1.080   1.436   8.548
  203MPD2    H7 3409   1.053   1.447   8.645
  204MPD2     C 3410   2.050   0.844   8.309
  204MPD2    C1 3411   1.939   0.893   8.372
  204MPD2    C2 3412   1.844   0.954   8.296
  204MPD2    C3 3413   1.860   0.971   8.163
  204MPD2    C4 3414   1.970   0.921   8.095
  204MPD2    C5 3415   2.062   0.856   8.175
  204MPD2     H 3416   1.761   0.998   8.349
  204MPD2    H1 3417   1.989   0.934   7.989
  204MPD2    H2 3418   2.138   0.804   8.358
  204MPD2    H3 3419   2.158   0.833   8.130
  204MPD2     N 3420   1.768   1.049   8.095
  204MPD2    H5 3421   1.691   1.079   8.155
  204MPD2    N1 3422   1.933   0.895   8.513
  204MPD2    H7 3423   2.010   0.856   8.567
  205MPD2     C 3424   1.089   1.691   7.564
  205MPD2    C1 3425   1.072   1.562   7.608
  205MPD2    C2 3426   1.181   1.472   7.626
  205MPD2    C3 3427   1.302   1.535   7.615
  205MPD2    C4 3428   1.321   1.667   7.581
  205MPD2    C5 3429   1.212   1.747   7.557
  205MPD2     H 3430   1.181   1.374   7.672
  205MPD2    H1 3431   1.425   1.696   7.584
  205MPD2    H2 3432   0.999   1.748   7.550
  205MPD2    H3 3433   1.231   1.853   7.546
  205MPD2     N 3434   1.424   1.475   7.642
  205MPD2    H5 3435   1.498   1.543   7.654
  205MPD2    N1 3436   0.943   1.529   7.634
  205MPD2    H7 3437   0.879   1.608   7.635
  206MPD2     C 3438   1.981   3.856  11.040
  206MPD2    C1 3439   1.992   3.864  11.176
  206MPD2    C2 3440   2.086   3.946  11.231
  206MPD2    C3 3441   2.144   4.043  11.161
  206MPD2    C4 3442   2.137   4.035  11.024
  206MPD2    C5 3443   2.062   3.938  10.967
  206MPD2     H 3444   2.081   3.957  11.339
  206MPD2    H1 3445   2.191   4.105  10.961
  206MPD2    H2 3446   1.922   3.776  10.996
  206MPD2    H3 3447   2.069   3.925  10.860
  206MPD2     N 3448   2.217   4.142  11.228
  206MPD2    H5 3449   2.223   4.126  11.329
  206MPD2    N1 3450   1.898   3.788  11.247
  206MPD2    H7 3451   1.848   3.722  11.188
  207MPD2     C 3452   1.453   3.392  11.018
  207MPD2    C1 3453   1.409   3.426  11.140
  207MPD2    C2 3454   1.296   3.366  11.184
  207MPD2    C3 3455   1.228   3.278  11.110
  207MPD2    C4 3456   1.272   3.239  10.982
  207MPD2    C5 3457   1.385   3.298  10.938
  207MPD2     H 3458   1.257   3.381  11.284
  207MPD2    H1 3459   1.220   3.159  10.930
  207MPD2    H2 3460   1.547   3.428  10.977
  207MPD2    H3 3461   1.422   3.286  10.837
  207MPD2     N 3462   1.107   3.231  11.166
  207MPD2    H5 3463   1.101   3.255  11.264
  207MPD2    N1 3464   1.486   3.514  11.213
  207MPD2    H7 3465   1.577   3.543  11.180
  208MPD2     C 3466   1.745   3.011  11.919
  208MPD2    C1 3467   1.676   3.009  11.801
  208MPD2    C2 3468   1.636   3.129  11.748
  208MPD2    C3 3469   1.671   3.253  11.796
  208MPD2    C4 3470   1.739   3.251  11.918
  208MPD2    C5 3471   1.763   3.136  11.982
  208MPD2     H 3472   1.584   3.126  11.653
  208MPD2    H1 3473   1.773   3.344  11.963
  208MPD2    H2 3474   1.773   2.926  11.981
  208MPD2    H3 3475   1.834   3.139  12.064
  208MPD2     N 3476   1.657   3.369  11.713
  208MPD2    H5 3477   1.604   3.363  11.627
  208MPD2    N1 3478   1.650   2.887  11.741
  208MPD2    H7 3479   1.674   2.800  11.789
  209MPD2     C 3480   2.677   1.679  10.364
  209MPD2    C1 3481   2.792   1.740  10.309
  209MPD2    C2 3482   2.877   1.668  10.232
  209MPD2    C3 3483   2.864   1.537  10.207
  209MPD2    C4 3484   2.758   1.471  10.269
  209MPD2    C5 3485   2.668   1.544  10.342
  209MPD2     H 3486   2.967   1.725  10.209
  209MPD2    H1 3487   2.747   1.363  10.263
  209MPD2    H2 3488   2.600   1.736  10.413
  209MPD2    H3 3489   2.580   1.497  10.383
  209MPD2     N 3490   2.945   1.483  10.107
  209MPD2    H5 3491   3.030   1.533  10.084
  209MPD2    N1 3492   2.818   1.884  10.315
  209MPD2    H7 3493   2.899   1.923  10.268
  210MPD2     C 3494   3.414   2.585   9.998
  210MPD2    C1 3495   3.325   2.665  10.072
  210MPD2    C2 3496   3.227   2.607  10.143
  210MPD2    C3 3497   3.202   2.471  10.135
  210MPD2    C4 3498   3.290   2.391  10.072
  210MPD2    C5 3499   3.397   2.452  10.006
  210MPD2     H 3500   3.150   2.671  10.185
  210MPD2    H1 3501   3.291   2.283  10.080
  210MPD2    H2 3502   3.488   2.632   9.934
  210MPD2    H3 3503   3.474   2.400   9.950
  210MPD2     N 3504   3.088   2.414  10.195
  210MPD2    H5 3505   3.025   2.476  10.244
  210MPD2    N1 3506   3.333   2.795  10.038
  210MPD2    H7 3507   3.395   2.816   9.960
  211MPD2     C 3508   2.331   2.549  10.319
  211MPD2    C1 3509   2.364   2.428  10.359
  211MPD2    C2 3510   2.262   2.336  10.392
  211MPD2    C3 3511   2.132   2.363  10.364
  211MPD2    C4 3512   2.098   2.493  10.333
  211MPD2    C5 3513   2.202   2.584  10.308
  211MPD2     H 3514   2.292   2.236  10.425
  211MPD2    H1 3515   1.994   2.521  10.322
  211MPD2    H2 3516   2.405   2.617  10.280
  211MPD2    H3 3517   2.173   2.680  10.266
  211MPD2     N 3518   2.028   2.268  10.349
  211MPD2    H5 3519   1.932   2.299  10.337
  211MPD2    N1 3520   2.496   2.373  10.364
  211MPD2    H7 3521   2.498   2.292  10.425
  212MPD2     C 3522   1.840   2.594  13.704
  212MPD2    C1 3523   1.765   2.554  13.594
  212MPD2    C2 3524   1.718   2.425  13.586
  212MPD2    C3 3525   1.746   2.330  13.686
  212MPD2    C4 3526   1.810   2.372  13.800
  212MPD2    C5 3527   1.863   2.502  13.802
  212MPD2     H 3528   1.660   2.393  13.500
  212MPD2    H1 3529   1.845   2.311  13.883
  212MPD2    H2 3530   1.883   2.693  13.711
  212MPD2    H3 3531   1.917   2.526  13.893
  212MPD2     N 3532   1.683   2.200  13.685
  212MPD2    H5 3533   1.655   2.161  13.596
  212MPD2    N1 3534   1.724   2.644  13.493
  212MPD2    H7 3535   1.653   2.605  13.432
  213MPD2     C 3536   1.952   1.530  13.700
  213MPD2    C1 3537   1.943   1.662  13.721
  213MPD2    C2 3538   2.048   1.742  13.673
  213MPD2    C3 3539   2.149   1.697  13.590
  213MPD2    C4 3540   2.146   1.563  13.562
  213MPD2    C5 3541   2.056   1.479  13.620
  213MPD2     H 3542   2.031   1.845  13.704
  213MPD2    H1 3543   2.214   1.519  13.489
  213MPD2    H2 3544   1.890   1.454  13.746
  213MPD2    H3 3545   2.063   1.371  13.618
  213MPD2     N 3546   2.250   1.779  13.528
  213MPD2    H5 3547   2.305   1.729  13.460
  213MPD2    N1 3548   1.840   1.731  13.789
  213MPD2    H7 3549   1.869   1.823  13.820
  214MPD2     C 3550   1.104   2.969  10.653
  214MPD2    C1 3551   1.041   2.962  10.534
  214MPD2    C2 3552   1.001   2.841  10.485
  214MPD2    C3 3553   1.033   2.725  10.548
  214MPD2    C4 3554   1.098   2.731  10.667
  214MPD2    C5 3555   1.133   2.853  10.718
  214MPD2     H 3556   0.952   2.841  10.389
  214MPD2    H1 3557   1.129   2.643  10.722
  214MPD2    H2 3558   1.146   3.061  10.695
  214MPD2    H3 3559   1.178   2.864  10.815
  214MPD2     N 3560   1.010   2.606  10.480
  214MPD2    H5 3561   0.989   2.610  10.380
  214MPD2    N1 3562   1.009   3.082  10.464
  214MPD2    H7 3563   1.036   3.174  10.496
  215MPD2     C 3564   0.702   2.107   9.794
  215MPD2    C1 3565   0.689   2.058   9.921
  215MPD2    C2 3566   0.755   2.115  10.029
  215MPD2    C3 3567   0.855   2.216  10.004
  215MPD2    C4 3568   0.869   2.260   9.875
  215MPD2    C5 3569   0.800   2.197   9.770
  215MPD2     H 3570   0.743   2.082  10.132
  215MPD2    H1 3571   0.954   2.322   9.849
  215MPD2    H2 3572   0.641   2.061   9.717
  215MPD2    H3 3573   0.817   2.221   9.665
  215MPD2     N 3574   0.944   2.257  10.105
  215MPD2    H5 3575   0.941   2.204  10.191
  215MPD2    N1 3576   0.599   1.944   9.927
  215MPD2    H7 3577   0.544   1.923   9.845
  216MPD2     C 3578   2.893   3.988  10.840
  216MPD2    C1 3579   2.805   3.935  10.929
  216MPD2    C2 3580   2.703   3.852  10.889
  216MPD2    C3 3581   2.679   3.839  10.750
  216MPD2    C4 3582   2.767   3.896  10.657
  216MPD2    C5 3583   2.880   3.964  10.704
  216MPD2     H 3584   2.638   3.816  10.969
  216MPD2    H1 3585   2.750   3.888  10.550
  216MPD2    H2 3586   2.967   4.062  10.870
  216MPD2    H3 3587   2.939   4.022  10.633
  216MPD2     N 3588   2.577   3.752  10.706
  216MPD2    H5 3589   2.538   3.703  10.786
  216MPD2    N1 3590   2.793   3.981  11.069
  216MPD2    H7 3591   2.745   3.926  11.139
  217MPD2     C 3592   2.765   0.003  11.312
  217MPD2    C1 3593   2.858   4.721  11.384
  217MPD2    C2 3594   2.976   4.777  11.432
  217MPD2    C3 3595   3.009   0.117  11.385
  217MPD2    C4 3596   2.917   0.185  11.306
  217MPD2    C5 3597   2.791   0.133  11.278
  217MPD2     H 3598   3.050   4.716  11.483
  217MPD2    H1 3599   2.945   0.285  11.274
  217MPD2    H2 3600   2.665   4.759  11.291
  217MPD2    H3 3601   2.722   0.192  11.218
  217MPD2     N 3602   3.137   0.168  11.425
  217MPD2    H5 3603   3.199   0.107  11.477
  217MPD2    N1 3604   2.843   4.580  11.396
  217MPD2    H7 3605   2.918   4.531  11.442
  218MPD2     C 3606   2.901   4.120  12.090
  218MPD2    C1 3607   2.837   4.031  12.010
  218MPD2    C2 3608   2.851   4.033  11.871
  218MPD2    C3 3609   2.925   4.136  11.815
  218MPD2    C4 3610   2.995   4.220  11.898
  218MPD2    C5 3611   2.986   4.208  12.035
  218MPD2     H 3612   2.786   3.969  11.813
  218MPD2    H1 3613   3.075   4.280  11.857
  218MPD2    H2 3614   2.889   4.117  12.197
  218MPD2    H3 3615   3.026   4.289  12.095
  218MPD2     N 3616   2.931   4.168  11.677
  218MPD2    H5 3617   2.988   4.248  11.653
  218MPD2    N1 3618   2.742   3.945  12.072
  218MPD2    H7 3619   2.713   3.968  12.166
  219MPD2     C 3620   1.858   3.834   8.147
  219MPD2    C1 3621   1.835   3.753   8.261
  219MPD2    C2 3622   1.752   3.648   8.244
  219MPD2    C3 3623   1.677   3.632   8.129
  219MPD2    C4 3624   1.691   3.725   8.029
  219MPD2    C5 3625   1.771   3.832   8.041
  219MPD2     H 3626   1.760   3.570   8.319
  219MPD2    H1 3627   1.642   3.715   7.933
  219MPD2    H2 3628   1.921   3.922   8.158
  219MPD2    H3 3629   1.774   3.908   7.963
  219MPD2     N 3630   1.599   3.515   8.101
  219MPD2    H5 3631   1.563   3.500   8.007
  219MPD2    N1 3632   1.926   3.775   8.370
  219MPD2    H7 3633   2.012   3.826   8.350
  220MPD2     C 3634   1.604   3.226   8.937
  220MPD2    C1 3635   1.719   3.297   8.937
  220MPD2    C2 3636   1.822   3.265   9.024
  220MPD2    C3 3637   1.804   3.163   9.116
  220MPD2    C4 3638   1.689   3.090   9.107
  220MPD2    C5 3639   1.592   3.118   9.019
  220MPD2     H 3640   1.919   3.313   9.016
  220MPD2    H1 3641   1.672   2.999   9.164
  220MPD2    H2 3642   1.517   3.243   8.874
  220MPD2    H3 3643   1.507   3.050   9.015
  220MPD2     N 3644   1.897   3.121   9.214
  220MPD2    H5 3645   1.874   3.041   9.271
  220MPD2    N1 3646   1.723   3.422   8.864
  220MPD2    H7 3647   1.812   3.468   8.881
  221MPD2     C 3648   1.286   4.037   8.869
  221MPD2    C1 3649   1.321   4.017   8.738
  221MPD2    C2 3650   1.282   4.115   8.650
  221MPD2    C3 3651   1.222   4.233   8.691
  221MPD2    C4 3652   1.216   4.254   8.828
  221MPD2    C5 3653   1.232   4.150   8.918
  221MPD2     H 3654   1.298   4.088   8.547
  221MPD2    H1 3655   1.174   4.349   8.861
  221MPD2    H2 3656   1.296   3.950   8.933
  221MPD2    H3 3657   1.234   4.174   9.023
  221MPD2     N 3658   1.186   4.336   8.594
  221MPD2    H5 3659   1.180   4.434   8.620
  221MPD2    N1 3660   1.396   3.904   8.712
  221MPD2    H7 3661   1.405   3.833   8.784
  222MPD2     C 3662   1.183   0.718  14.272
  222MPD2    C1 3663   1.048   0.737  14.309
  222MPD2    C2 3664   1.019   0.818  14.414
  222MPD2    C3 3665   1.120   0.890  14.481
  222MPD2    C4 3666   1.248   0.879  14.443
  222MPD2    C5 3667   1.275   0.794  14.336
  222MPD2     H 3668   0.918   0.826  14.450
  222MPD2    H1 3669   1.330   0.934  14.487
  222MPD2    H2 3670   1.219   0.651  14.195
  222MPD2    H3 3671   1.372   0.769  14.294
  222MPD2     N 3672   1.094   0.973  14.595
  222MPD2    H5 3673   1.177   1.027  14.617
  222MPD2    N1 3674   0.936   0.667  14.255
  222MPD2    H7 3675   0.844   0.688  14.292
  223MPD2     C 3676   0.452   1.697  14.776
  223MPD2    C1 3677   0.572   1.737  14.823
  223MPD2    C2 3678   0.673   1.644  14.837
  223MPD2    C3 3679   0.646   1.511  14.816
  223MPD2    C4 3680   0.523   1.473  14.768
  223MPD2    C5 3681   0.428   1.565  14.753
  223MPD2     H 3682   0.771   1.669  14.876
  223MPD2    H1 3683   0.494   1.370  14.754
  223MPD2    H2 3684   0.374   1.770  14.757
  223MPD2    H3 3685   0.333   1.539  14.709
  223MPD2     N 3686   0.740   1.407  14.828
  223MPD2    H5 3687   0.705   1.316  14.799
  223MPD2    N1 3688   0.603   1.871  14.850
  223MPD2    H7 3689   0.698   1.888  14.881
  224MPD2     C 3690   1.761   1.325  14.887
  224MPD2    C1 3691   1.684   1.335  15.000
  224MPD2    C2 3692   1.550   1.298  14.993
  224MPD2    C3 3693   1.498   1.254  14.878
  224MPD2    C4 3694   1.570   1.231  14.762
  224MPD2    C5 3695   1.704   1.265  14.777
  224MPD2     H 3696   1.485   1.323  15.076
  224MPD2    H1 3697   1.523   1.194  14.672
  224MPD2    H2 3698   1.861   1.368  14.886
  224MPD2    H3 3699   1.770   1.259  14.691
  224MPD2     N 3700   1.357   1.225  14.867
  224MPD2    H5 3701   1.331   1.213  14.769
  224MPD2    N1 3702   1.748   1.393  15.110
  224MPD2    H7 3703   1.837   1.435  15.086
  225MPD2     C 3704   2.223   1.456  11.203
  225MPD2    C1 3705   2.296   1.345  11.165
  225MPD2    C2 3706   2.358   1.355  11.042
  225MPD2    C3 3707   2.357   1.463  10.957
  225MPD2    C4 3708   2.275   1.571  10.997
  225MPD2    C5 3709   2.209   1.561  11.118
  225MPD2     H 3710   2.417   1.267  11.018
  225MPD2    H1 3711   2.267   1.660  10.935
  225MPD2    H2 3712   2.176   1.459  11.300
  225MPD2    H3 3713   2.146   1.646  11.142
  225MPD2     N 3714   2.446   1.469  10.851
  225MPD2    H5 3715   2.483   1.382  10.813
  225MPD2    N1 3716   2.306   1.227  11.242
  225MPD2    H7 3717   2.321   1.145  11.184
  226MPD2     C 3718   2.309   0.400  10.824
  226MPD2    C1 3719   2.444   0.429  10.817
  226MPD2    C2 3720   2.489   0.549  10.768
  226MPD2    C3 3721   2.398   0.641  10.714
  226MPD2    C4 3722   2.259   0.607  10.713
  226MPD2    C5 3723   2.220   0.493  10.775
  226MPD2     H 3724   2.595   0.574  10.765
  226MPD2    H1 3725   2.187   0.681  10.682
  226MPD2    H2 3726   2.281   0.301  10.858
  226MPD2    H3 3727   2.116   0.462  10.776
  226MPD2     N 3728   2.441   0.763  10.667
  226MPD2    H5 3729   2.542   0.772  10.668
  226MPD2    N1 3730   2.546   0.331  10.836
  226MPD2    H7 3731   2.641   0.367  10.823
  227MPD2     C 3732   3.256   0.883  10.662
  227MPD2    C1 3733   3.209   1.011  10.633
  227MPD2    C2 3734   3.089   1.021  10.572
  227MPD2    C3 3735   3.006   0.911  10.554
  227MPD2    C4 3736   3.050   0.790  10.593
  227MPD2    C5 3737   3.175   0.774  10.635
  227MPD2     H 3738   3.030   1.112  10.578
  227MPD2    H1 3739   2.987   0.704  10.575
  227MPD2    H2 3740   3.349   0.866  10.716
  227MPD2    H3 3741   3.206   0.674  10.666
  227MPD2     N 3742   2.869   0.924  10.516
  227MPD2    H5 3743   2.821   0.834  10.511
  227MPD2    N1 3744   3.286   1.121  10.678
  227MPD2    H7 3745   3.373   1.098  10.726
  228MPD2     C 3746   2.329   1.515  10.208
  228MPD2    C1 3747   2.327   1.476  10.338
  228MPD2    C2 3748   2.309   1.574  10.433
  228MPD2    C3 3749   2.298   1.708  10.397
  228MPD2    C4 3750   2.307   1.745  10.265
  228MPD2    C5 3751   2.314   1.646  10.166
  228MPD2     H 3752   2.326   1.538  10.534
  228MPD2    H1 3753   2.301   1.848  10.230
  228MPD2    H2 3754   2.350   1.446  10.127
  228MPD2    H3 3755   2.312   1.677  10.062
  228MPD2     N 3756   2.293   1.808  10.499
  228MPD2    H5 3757   2.317   1.904  10.474
  228MPD2    N1 3758   2.342   1.338  10.372
  228MPD2    H7 3759   2.329   1.324  10.471
  229MPD2     C 3760   1.738   4.683  13.596
  229MPD2    C1 3761   1.868   4.672  13.629
  229MPD2    C2 3762   1.931   4.765  13.703
  229MPD2    C3 3763   1.863   0.084  13.755
  229MPD2    C4 3764   1.723   0.092  13.731
  229MPD2    C5 3765   1.661   4.782  13.656
  229MPD2     H 3766   2.038   4.752  13.710
  229MPD2    H1 3767   1.666   0.179  13.759
  229MPD2    H2 3768   1.694   4.610  13.529
  229MPD2    H3 3769   1.557   0.007  13.631
  229MPD2     N 3770   1.924   0.188  13.820
  229MPD2    H5 3771   1.871   0.274  13.828
  229MPD2    N1 3772   1.950   4.564  13.581
  229MPD2    H7 3773   2.049   4.575  13.598
  230MPD2     C 3774   2.061   0.941  13.848
  230MPD2    C1 3775   2.136   0.879  13.943
  230MPD2    C2 3776   2.243   0.941  14.001
  230MPD2    C3 3777   2.265   1.081  13.972
  230MPD2    C4 3778   2.170   1.152  13.898
  230MPD2    C5 3779   2.073   1.080  13.840
  230MPD2     H 3780   2.319   0.885  14.056
  230MPD2    H1 3781   2.176   1.251  13.855
  230MPD2    H2 3782   1.979   0.893  13.795
  230MPD2    H3 3783   2.011   1.116  13.759
  230MPD2     N 3784   2.385   1.151  14.007
  230MPD2    H5 3785   2.385   1.252  13.993
  230MPD2    N1 3786   2.127   0.741  13.964
  230MPD2    H7 3787   2.185   0.703  14.038
  231MPD2     C 3788   1.790   0.231  14.474
  231MPD2    C1 3789   1.760   0.236  14.334
  231MPD2    C2 3790   1.655   0.170  14.283
  231MPD2    C3 3791   1.578   0.088  14.359
  231MPD2    C4 3792   1.604   0.076  14.490
  231MPD2    C5 3793   1.707   0.145  14.540
  231MPD2     H 3794   1.638   0.188  14.178
  231MPD2    H1 3795   1.557   0.005  14.557
  231MPD2    H2 3796   1.882   0.270  14.517
  231MPD2    H3 3797   1.743   0.116  14.638
  231MPD2     N 3798   1.466   0.013  14.311
  231MPD2    H5 3799   1.395   4.767  14.373
  231MPD2    N1 3800   1.847   0.308  14.248
  231MPD2    H7 3801   1.833   0.290  14.149
  232MPD2     C 3802   3.457   1.584   9.259
  232MPD2    C1 3803   3.559   1.655   9.197
  232MPD2    C2 3804   3.603   1.601   9.075
  232MPD2    C3 3805   3.545   1.491   9.016
  232MPD2    C4 3806   3.453   1.423   9.081
  232MPD2    C5 3807   3.405   1.470   9.204
  232MPD2     H 3808   3.681   1.658   9.024
  232MPD2    H1 3809   3.419   1.325   9.051
  232MPD2    H2 3810   3.424   1.614   9.357
  232MPD2    H3 3811   3.329   1.415   9.259
  232MPD2     N 3812   3.598   1.438   8.898
  232MPD2    H5 3813   3.562   1.348   8.871
  232MPD2    N1 3814   3.632   1.759   9.251
  232MPD2    H7 3815   3.715   1.792   9.204
  233MPD2     C 3816   4.310   1.771   9.383
  233MPD2    C1 3817   4.231   1.822   9.488
  233MPD2    C2 3818   4.297   1.833   9.615
  233MPD2    C3 3819   4.438   1.844   9.620
  233MPD2    C4 3820   4.505   1.807   9.505
  233MPD2    C5 3821   4.445   1.764   9.398
  233MPD2     H 3822   4.237   1.864   9.700
  233MPD2    H1 3823   4.613   1.817   9.501
  233MPD2    H2 3824   4.261   1.735   9.293
  233MPD2    H3 3825   4.507   1.733   9.315
  233MPD2     N 3826   4.499   1.881   9.746
  233MPD2    H5 3827   4.436   1.883   9.826
  233MPD2    N1 3828   4.091   1.838   9.475
  233MPD2    H7 3829   4.046   1.803   9.391
  234MPD2     C 3830   3.852   2.435   9.233
  234MPD2    C1 3831   3.933   2.357   9.308
  234MPD2    C2 3832   4.071   2.359   9.293
  234MPD2    C3 3833   4.125   2.433   9.190
  234MPD2    C4 3834   4.039   2.506   9.110
  234MPD2    C5 3835   3.904   2.501   9.127
  234MPD2     H 3836   4.142   2.299   9.349
  234MPD2    H1 3837   4.074   2.551   9.017
  234MPD2    H2 3838   3.743   2.440   9.235
  234MPD2    H3 3839   3.838   2.558   9.062
  234MPD2     N 3840   4.258   2.415   9.151
  234MPD2    H5 3841   4.277   2.454   9.059
  234MPD2    N1 3842   3.884   2.276   9.414
  234MPD2    H7 3843   3.947   2.221   9.471
  235MPD2     C 3844   3.238   0.600  14.667
  235MPD2    C1 3845   3.290   0.583  14.795
  235MPD2    C2 3846   3.420   0.558  14.821
  235MPD2    C3 3847   3.510   0.568  14.717
  235MPD2    C4 3848   3.461   0.592  14.586
  235MPD2    C5 3849   3.328   0.616  14.571
  235MPD2     H 3850   3.462   0.542  14.919
  235MPD2    H1 3851   3.530   0.606  14.503
  235MPD2    H2 3852   3.137   0.607  14.630
  235MPD2    H3 3853   3.298   0.643  14.471
  235MPD2     N 3854   3.654   0.564  14.744
  235MPD2    H5 3855   3.678   0.554  14.842
  235MPD2    N1 3856   3.192   0.575  14.906
  235MPD2    H7 3857   3.236   0.535  14.987
  236MPD2     C 3858   4.497   0.327  14.469
  236MPD2    C1 3859   4.382   0.400  14.470
  236MPD2    C2 3860   4.294   0.384  14.575
  236MPD2    C3 3861   4.333   0.318  14.693
  236MPD2    C4 3862   4.452   0.249  14.691
  236MPD2    C5 3863   4.533   0.255  14.582
  236MPD2     H 3864   4.199   0.435  14.561
  236MPD2    H1 3865   4.481   0.185  14.773
  236MPD2    H2 3866   4.556   0.328  14.379
  236MPD2    H3 3867   4.607   0.177  14.575
  236MPD2     N 3868   4.254   0.307  14.811
  236MPD2    H5 3869   4.291   0.245  14.883
  236MPD2    N1 3870   4.335   0.485  14.364
  236MPD2    H7 3871   4.243   0.524  14.379
  237MPD2     C 3872   4.301   1.067  14.489
  237MPD2    C1 3873   4.173   1.050  14.546
  237MPD2    C2 3874   4.083   1.151  14.536
  237MPD2    C3 3875   4.118   1.275  14.479
  237MPD2    C4 3876   4.240   1.286  14.423
  237MPD2    C5 3877   4.330   1.181  14.414
  237MPD2     H 3878   3.985   1.139  14.581
  237MPD2    H1 3879   4.273   1.380  14.381
  237MPD2    H2 3880   4.366   0.983  14.468
  237MPD2    H3 3881   4.423   1.183  14.359
  237MPD2     N 3882   4.029   1.387  14.469
  237MPD2    H5 3883   4.049   1.454  14.396
  237MPD2    N1 3884   4.124   0.931  14.608
  237MPD2    H7 3885   4.039   0.944  14.663
  238MPD2     C 3886   1.794   3.076  12.527
  238MPD2    C1 3887   1.785   3.205  12.565
  238MPD2    C2 3888   1.864   3.252  12.666
  238MPD2    C3 3889   1.970   3.182  12.709
  238MPD2    C4 3890   1.967   3.046  12.693
  238MPD2    C5 3891   1.885   2.994  12.591
  238MPD2     H 3892   1.854   3.359  12.684
  238MPD2    H1 3893   2.040   2.985  12.745
  238MPD2    H2 3894   1.743   3.031  12.443
  238MPD2    H3 3895   1.881   2.888  12.570
  238MPD2     N 3896   2.077   3.256  12.766
  238MPD2    H5 3897   2.054   3.350  12.794
  238MPD2    N1 3898   1.686   3.296  12.513
  238MPD2    H7 3899   1.697   3.391  12.546
  239MPD2     C 3900   0.880   3.323  12.347
  239MPD2    C1 3901   0.983   3.383  12.415
  239MPD2    C2 3902   0.968   3.422  12.546
  239MPD2    C3 3903   0.839   3.418  12.599
  239MPD2    C4 3904   0.733   3.366  12.527
  239MPD2    C5 3905   0.759   3.316  12.403
  239MPD2     H 3906   1.054   3.444  12.608
  239MPD2    H1 3907   0.634   3.349  12.568
  239MPD2    H2 3908   0.899   3.294  12.244
  239MPD2    H3 3909   0.679   3.274  12.343
  239MPD2     N 3910   0.827   3.444  12.731
  239MPD2    H5 3911   0.912   3.475  12.777
  239MPD2    N1 3912   1.107   3.401  12.349
  239MPD2    H7 3913   1.114   3.340  12.267
  240MPD2     C 3914   1.664   3.101   7.120
  240MPD2    C1 3915   1.789   3.125   7.171
  240MPD2    C2 3916   1.859   3.015   7.216
  240MPD2    C3 3917   1.813   2.886   7.220
  240MPD2    C4 3918   1.685   2.868   7.174
  240MPD2    C5 3919   1.620   2.974   7.115
  240MPD2     H 3920   1.959   3.036   7.255
  240MPD2    H1 3921   1.641   2.769   7.171
  240MPD2    H2 3922   1.616   3.185   7.072
  240MPD2    H3 3923   1.520   2.965   7.074
  240MPD2     N 3924   1.891   2.775   7.266
  240MPD2    H5 3925   1.850   2.684   7.286
  240MPD2    N1 3926   1.849   3.254   7.189
  240MPD2    H7 3927   1.944   3.256   7.223
  241MPD2     C 3928   2.880   2.630   7.669
  241MPD2    C1 3929   2.814   2.734   7.604
  241MPD2    C2 3930   2.686   2.715   7.562
  241MPD2    C3 3931   2.619   2.597   7.590
  241MPD2    C4 3932   2.691   2.490   7.652
  241MPD2    C5 3933   2.821   2.508   7.693
  241MPD2     H 3934   2.638   2.798   7.512
  241MPD2    H1 3935   2.648   2.392   7.672
  241MPD2    H2 3936   2.979   2.651   7.707
  241MPD2    H3 3937   2.872   2.429   7.747
  241MPD2     N 3938   2.475   2.574   7.576
  241MPD2    H5 3939   2.437   2.484   7.602
  241MPD2    N1 3940   2.883   2.859   7.603
  241MPD2    H7 3941   2.969   2.860   7.656
  242MPD2     C 3942   1.642   2.721   8.065
  242MPD2    C1 3943   1.656   2.830   7.981
  242MPD2    C2 3944   1.734   2.815   7.863
  242MPD2    C3 3945   1.815   2.705   7.846
  242MPD2    C4 3946   1.801   2.597   7.929
  242MPD2    C5 3947   1.715   2.604   8.029
  242MPD2     H 3948   1.737   2.893   7.787
  242MPD2    H1 3949   1.854   2.503   7.919
  242MPD2    H2 3950   1.584   2.713   8.156
  242MPD2    H3 3951   1.699   2.512   8.083
  242MPD2     N 3952   1.903   2.699   7.737
  242MPD2    H5 3953   1.896   2.775   7.671
  242MPD2    N1 3954   1.581   2.948   8.011
  242MPD2    H7 3955   1.544   2.959   8.105
  243MPD2     C 3956   4.391   2.782  14.358
  243MPD2    C1 3957   4.418   2.866  14.466
  243MPD2    C2 3958   4.345   2.981  14.483
  243MPD2    C3 3959   4.251   3.026  14.394
  243MPD2    C4 3960   4.219   2.943  14.284
  243MPD2    C5 3961   4.287   2.828  14.268
  243MPD2     H 3962   4.385   3.047  14.560
  243MPD2    H1 3963   4.151   2.986  14.211
  243MPD2    H2 3964   4.449   2.691  14.343
  243MPD2    H3 3965   4.261   2.755  14.192
  243MPD2     N 3966   4.167   3.136  14.418
  243MPD2    H5 3967   4.093   3.150  14.350
  243MPD2    N1 3968   4.527   2.844  14.555
  243MPD2    H7 3969   4.564   2.920  14.612
  244MPD2     C 3970   4.230   3.835  15.133
  244MPD2    C1 3971   4.096   3.814  15.112
  244MPD2    C2 3972   4.053   3.717  15.032
  244MPD2    C3 3973   4.141   3.637  14.965
  244MPD2    C4 3974   4.276   3.648  14.989
  244MPD2    C5 3975   4.317   3.747  15.071
  244MPD2     H 3976   3.946   3.704  15.025
  244MPD2    H1 3977   4.351   3.584  14.945
  244MPD2    H2 3978   4.276   3.915  15.189
  244MPD2    H3 3979   4.424   3.765  15.080
  244MPD2     N 3980   4.111   3.526  14.880
  244MPD2    H5 3981   4.188   3.481  14.832
  244MPD2    N1 3982   3.997   3.907  15.158
  244MPD2    H7 3983   3.900   3.893  15.131
  245MPD2     C 3984   3.414   3.337  14.421
  245MPD2    C1 3985   3.493   3.424  14.498
  245MPD2    C2 3986   3.438   3.543  14.534
  245MPD2    C3 3987   3.316   3.587  14.480
  245MPD2    C4 3988   3.225   3.490  14.431
  245MPD2    C5 3989   3.280   3.368  14.398
  245MPD2     H 3990   3.499   3.612  14.591
  245MPD2    H1 3991   3.121   3.513  14.413
  245MPD2    H2 3992   3.440   3.233  14.402
  245MPD2    H3 3993   3.215   3.289  14.363
  245MPD2     N 3994   3.273   3.722  14.500
  245MPD2    H5 3995   3.341   3.776  14.553
  245MPD2    N1 3996   3.620   3.403  14.548
  245MPD2    H7 3997   3.648   3.482  14.605
  246MPD2     C 3998   4.718   2.030   8.271
  246MPD2    C1 3999   4.713   2.086   8.148
  246MPD2    C2 4000   4.644   2.022   8.048
  246MPD2    C3 4001   4.565   1.905   8.070
  246MPD2    C4 4002   4.572   1.850   8.197
  246MPD2    C5 4003   4.641   1.917   8.295
  246MPD2     H 4004   4.647   2.062   7.948
  246MPD2    H1 4005   4.535   1.753   8.228
  246MPD2    H2 4006   4.773   2.070   8.356
  246MPD2    H3 4007   4.648   1.880   8.397
  246MPD2     N 4008   4.487   1.851   7.964
  246MPD2    H5 4009   4.506   1.892   7.873
  246MPD2    N1 4010   4.789   2.211   8.128
  246MPD2    H7 4011   0.063   2.226   8.205
  247MPD2     C 4012   0.219   2.545   7.444
  247MPD2    C1 4013   0.100   2.480   7.425
  247MPD2    C2 4014   0.054   2.443   7.300
  247MPD2    C3 4015   0.139   2.450   7.190
  247MPD2    C4 4016   0.259   2.514   7.210
  247MPD2    C5 4017   0.294   2.567   7.331
  247MPD2     H 4018   4.743   2.405   7.293
  247MPD2    H1 4019   0.324   2.531   7.125
  247MPD2    H2 4020   0.256   2.579   7.540
  247MPD2    H3 4021   0.390   2.617   7.336
  247MPD2     N 4022   0.108   2.409   7.061
  247MPD2    H5 4023   0.185   2.414   6.995
  247MPD2    N1 4024   0.028   2.471   7.541
  247MPD2    H7 4025   0.067   2.527   7.616
  248MPD2     C 4026   3.956   2.037   8.057
  248MPD2    C1 4027   4.009   2.027   7.928
  248MPD2    C2 4028   4.125   2.087   7.895
  248MPD2    C3 4029   4.190   2.169   7.986
  248MPD2    C4 4030   4.132   2.187   8.112
  248MPD2    C5 4031   4.013   2.126   8.145
  248MPD2     H 4032   4.166   2.076   7.795
  248MPD2    H1 4033   4.174   2.250   8.189
  248MPD2    H2 4034   3.867   1.983   8.087
  248MPD2    H3 4035   3.964   2.152   8.238
  248MPD2     N 4036   4.303   2.248   7.961
  248MPD2    H5 4037   4.337   2.308   8.036
  248MPD2    N1 4038   3.939   1.935   7.843
  248MPD2    H7 4039   3.840   1.921   7.861
  249MPD2     C 4040   3.124   4.301  11.146
  249MPD2    C1 4041   3.225   4.278  11.233
  249MPD2    C2 4042   3.281   4.387  11.303
  249MPD2    C3 4043   3.229   4.516  11.283
  249MPD2    C4 4044   3.144   4.535  11.181
  249MPD2    C5 4045   3.074   4.430  11.129
  249MPD2     H 4046   3.348   4.360  11.384
  249MPD2    H1 4047   3.098   4.629  11.152
  249MPD2    H2 4048   3.066   4.223  11.098
  249MPD2    H3 4049   3.007   4.451  11.046
  249MPD2     N 4050   3.254   4.636  11.364
  249MPD2    H5 4051   3.183   4.705  11.341
  249MPD2    N1 4052   3.283   4.156  11.253
  249MPD2    H7 4053   3.383   4.171  11.260
  250MPD2     C 4054   3.795   3.644  11.181
  250MPD2    C1 4055   3.700   3.626  11.088
  250MPD2    C2 4056   3.687   3.502  11.029
  250MPD2    C3 4057   3.775   3.397  11.054
  250MPD2    C4 4058   3.872   3.415  11.155
  250MPD2    C5 4059   3.880   3.542  11.210
  250MPD2     H 4060   3.606   3.470  10.964
  250MPD2    H1 4061   3.931   3.331  11.189
  250MPD2    H2 4062   3.814   3.740  11.228
  250MPD2    H3 4063   3.953   3.563  11.287
  250MPD2     N 4064   3.756   3.277  10.985
  250MPD2    H5 4065   3.682   3.273  10.916
  250MPD2    N1 4066   3.606   3.727  11.059
  250MPD2    H7 4067   3.618   3.817  11.103
  251MPD2     C 4068   3.089   4.346  10.599
  251MPD2    C1 4069   3.149   4.228  10.571
  251MPD2    C2 4070   3.147   4.171  10.446
  251MPD2    C3 4071   3.077   4.237  10.349
  251MPD2    C4 4072   3.023   4.363  10.373
  251MPD2    C5 4073   3.019   4.413  10.504
  251MPD2     H 4074   3.189   4.073  10.430
  251MPD2    H1 4075   2.970   4.424  10.300
  251MPD2    H2 4076   3.090   4.387  10.700
  251MPD2    H3 4077   2.980   4.509  10.537
  251MPD2     N 4078   3.050   4.189  10.218
  251MPD2    H5 4079   2.992   4.250  10.162
  251MPD2    N1 4080   3.225   4.177  10.680
  251MPD2    H7 4081   3.233   4.241  10.758
  252MPD2     C 4082   4.188   2.143  14.135
  252MPD2    C1 4083   4.235   2.269  14.175
  252MPD2    C2 4084   4.362   2.277  14.230
  252MPD2    C3 4085   4.448   2.172  14.222
  252MPD2    C4 4086   4.405   2.048  14.174
  252MPD2    C5 4087   4.279   2.036  14.134
  252MPD2     H 4088   4.390   2.371  14.275
  252MPD2    H1 4089   4.464   1.957  14.176
  252MPD2    H2 4090   4.085   2.128  14.106
  252MPD2    H3 4091   4.241   1.937  14.112
  252MPD2     N 4092   4.572   2.191  14.269
  252MPD2    H5 4093   4.593   2.285  14.302
  252MPD2    N1 4094   4.156   2.387  14.181
  252MPD2    H7 4095   4.198   2.469  14.222
  253MPD2     C 4096   0.464   2.197  13.588
  253MPD2    C1 4097   0.525   2.285  13.675
  253MPD2    C2 4098   0.472   2.303  13.800
  253MPD2    C3 4099   0.363   2.230  13.847
  253MPD2    C4 4100   0.301   2.137  13.760
  253MPD2    C5 4101   0.363   2.115  13.639
  253MPD2     H 4102   0.525   2.373  13.864
  253MPD2    H1 4103   0.213   2.079  13.784
  253MPD2    H2 4104   0.506   2.181  13.489
  253MPD2    H3 4105   0.311   2.051  13.569
  253MPD2     N 4106   0.331   2.235  13.984
  253MPD2    H5 4107   0.375   2.311  14.035
  253MPD2    N1 4108   0.628   2.369  13.629
  253MPD2    H7 4109   0.671   2.429  13.699
  254MPD2     C 4110   4.784   2.795  14.297
  254MPD2    C1 4111   0.122   2.746  14.279
  254MPD2    C2 4112   0.223   2.840  14.262
  254MPD2    C3 4113   0.196   2.977  14.261
  254MPD2    C4 4114   0.070   3.022  14.306
  254MPD2    C5 4115   4.757   2.931  14.313
  254MPD2     H 4116   0.323   2.800  14.255
  254MPD2    H1 4117   0.056   3.129  14.322
  254MPD2    H2 4118   4.695   2.732  14.296
  254MPD2    H3 4119   4.657   2.967  14.331
  254MPD2     N 4120   0.282   3.076  14.202
  254MPD2    H5 4121   0.272   3.173  14.229
  254MPD2    N1 4122   0.146   2.607  14.256
  254MPD2    H7 4123   0.247   2.593  14.256
  255MPD2     C 4124   0.377   2.304  12.529
  255MPD2    C1 4125   0.328   2.230  12.632
  255MPD2    C2 4126   0.288   2.286  12.749
  255MPD2    C3 4127   0.278   2.423  12.761
  255MPD2    C4 4128   0.329   2.496  12.656
  255MPD2    C5 4129   0.380   2.440  12.541
  255MPD2     H 4130   0.244   2.221  12.824
  255MPD2    H1 4131   0.340   2.604  12.660
  255MPD2    H2 4132   0.422   2.272  12.436
  255MPD2    H3 4133   0.414   2.505  12.462
  255MPD2     N 4134   0.231   2.498  12.871
  255MPD2    H5 4135   0.234   2.600  12.871
  255MPD2    N1 4136   0.334   2.091  12.618
  255MPD2    H7 4137   0.317   2.034  12.700
  256MPD2     C 4138   4.286   2.420  13.328
  256MPD2    C1 4139   4.306   2.540  13.261
  256MPD2    C2 4140   4.207   2.639  13.257
  256MPD2    C3 4141   4.089   2.624  13.318
  256MPD2    C4 4142   4.074   2.512  13.387
  256MPD2    C5 4143   4.161   2.408  13.382
  256MPD2     H 4144   4.224   2.730  13.200
  256MPD2    H1 4145   3.980   2.496  13.438
  256MPD2    H2 4146   4.353   2.335  13.331
  256MPD2    H3 4147   4.126   2.314  13.425
  256MPD2     N 4148   3.986   2.713  13.312
  256MPD2    H5 4149   3.903   2.688  13.364
  256MPD2    N1 4150   4.429   2.567  13.188
  256MPD2    H7 4151   4.427   2.664  13.156
  257MPD2     C 4152   0.047   2.775  12.319
  257MPD2    C1 4153   4.714   2.770  12.376
  257MPD2    C2 4154   4.695   2.766  12.514
  257MPD2    C3 4155   0.017   2.764  12.594
  257MPD2    C4 4156   0.141   2.773  12.537
  257MPD2    C5 4157   0.155   2.792  12.404
  257MPD2     H 4158   4.596   2.772  12.559
  257MPD2    H1 4159   0.233   2.776  12.593
  257MPD2    H2 4160   0.062   2.789  12.213
  257MPD2    H3 4161   0.256   2.805  12.366
  257MPD2     N 4162   0.018   2.756  12.733
  257MPD2    H5 4163   0.113   2.745  12.764
  257MPD2    N1 4164   4.611   2.745  12.282
  257MPD2    H7 4165   4.628   2.749  12.182
  258MPD2     C 4166   1.520   4.364  10.259
  258MPD2    C1 4167   1.521   4.231  10.271
  258MPD2    C2 4168   1.457   4.162  10.167
  258MPD2    C3 4169   1.391   4.226  10.058
  258MPD2    C4 4170   1.378   4.364  10.056
  258MPD2    C5 4171   1.453   4.427  10.158
  258MPD2     H 4172   1.457   4.054  10.161
  258MPD2    H1 4173   1.336   4.428   9.980
  258MPD2    H2 4174   1.566   4.424  10.336
  258MPD2    H3 4175   1.452   4.535  10.149
  258MPD2     N 4176   1.357   4.141   9.947
  258MPD2    H5 4177   1.378   4.043   9.961
  258MPD2    N1 4178   1.580   4.172  10.382
  258MPD2    H7 4179   1.571   4.229  10.465
  259MPD2     C 4180   1.682   4.423   9.450
  259MPD2    C1 4181   1.600   4.434   9.339
  259MPD2    C2 4182   1.512   4.329   9.313
  259MPD2    C3 4183   1.512   4.215   9.390
  259MPD2    C4 4184   1.605   4.200   9.492
  259MPD2    C5 4185   1.690   4.303   9.515
  259MPD2     H 4186   1.437   4.334   9.235
  259MPD2    H1 4187   1.612   4.114   9.558
  259MPD2    H2 4188   1.745   4.502   9.488
  259MPD2    H3 4189   1.760   4.303   9.598
  259MPD2     N 4190   1.428   4.109   9.341
  259MPD2    H5 4191   1.408   4.114   9.242
  259MPD2    N1 4192   1.574   4.551   9.259
  259MPD2    H7 4193   1.491   4.538   9.202
  260MPD2     C 4194   1.156   3.686  10.041
  260MPD2    C1 4195   1.207   3.677   9.918
  260MPD2    C2 4196   1.126   3.656   9.813
  260MPD2    C3 4197   0.990   3.638   9.829
  260MPD2    C4 4198   0.937   3.642   9.953
  260MPD2    C5 4199   1.016   3.675  10.057
  260MPD2     H 4200   1.177   3.648   9.717
  260MPD2    H1 4201   0.831   3.634   9.976
  260MPD2    H2 4202   1.210   3.711  10.132
  260MPD2    H3 4203   0.970   3.687  10.154
  260MPD2     N 4204   0.914   3.595   9.712
  260MPD2    H5 4205   0.972   3.582   9.629
  260MPD2    N1 4206   1.342   3.700   9.907
  260MPD2    H7 4207   1.399   3.668   9.986
  261MPD2     C 4208   1.354   3.706   8.293
  261MPD2    C1 4209   1.304   3.818   8.231
  261MPD2    C2 4210   1.171   3.838   8.217
  261MPD2    C3 4211   1.088   3.743   8.269
  261MPD2    C4 4212   1.136   3.632   8.342
  261MPD2    C5 4213   1.273   3.609   8.350
  261MPD2     H 4214   1.140   3.923   8.158
  261MPD2    H1 4215   1.071   3.559   8.389
  261MPD2    H2 4216   1.459   3.701   8.316
  261MPD2    H3 4217   1.314   3.539   8.422
  261MPD2     N 4218   0.947   3.755   8.261
  261MPD2    H5 4219   0.899   3.704   8.334
  261MPD2    N1 4220   1.397   3.904   8.170
  261MPD2    H7 4221   1.493   3.874   8.175
  262MPD2     C 4222   1.007   3.480   7.535
  262MPD2    C1 4223   0.896   3.557   7.549
  262MPD2    C2 4224   0.801   3.558   7.449
  262MPD2    C3 4225   0.808   3.484   7.335
  262MPD2    C4 4226   0.927   3.409   7.321
  262MPD2    C5 4227   1.019   3.399   7.423
  262MPD2     H 4228   0.714   3.621   7.466
  262MPD2    H1 4229   0.952   3.354   7.232
  262MPD2    H2 4230   1.079   3.473   7.616
  262MPD2    H3 4231   1.110   3.342   7.410
  262MPD2     N 4232   0.702   3.490   7.243
  262MPD2    H5 4233   0.629   3.549   7.282
  262MPD2    N1 4234   0.883   3.651   7.651
  262MPD2    H7 4235   0.811   3.720   7.633
  263MPD2     C 4236   1.359   4.050   7.671
  263MPD2    C1 4237   1.305   4.144   7.584
  263MPD2    C2 4238   1.167   4.170   7.598
  263MPD2    C3 4239   1.092   4.113   7.705
  263MPD2    C4 4240   1.157   4.021   7.790
  263MPD2    C5 4241   1.289   3.999   7.776
  263MPD2     H 4242   1.122   4.241   7.530
  263MPD2    H1 4243   1.111   3.984   7.881
  263MPD2    H2 4244   1.463   4.021   7.673
  263MPD2    H3 4245   1.336   3.933   7.849
  263MPD2     N 4246   0.967   4.171   7.720
  263MPD2    H5 4247   0.955   4.254   7.663
  263MPD2    N1 4248   1.384   4.221   7.498
  263MPD2    H7 4249   1.340   4.297   7.447
  264MPD2     C 4250   1.133   2.520  12.888
  264MPD2    C1 4251   1.164   2.478  13.011
  264MPD2    C2 4252   1.268   2.539  13.085
  264MPD2    C3 4253   1.340   2.643  13.033
  264MPD2    C4 4254   1.318   2.676  12.902
  264MPD2    C5 4255   1.205   2.621  12.837
  264MPD2     H 4256   1.291   2.506  13.186
  264MPD2    H1 4257   1.375   2.752  12.849
  264MPD2    H2 4258   1.051   2.474  12.834
  264MPD2    H3 4259   1.195   2.671  12.741
  264MPD2     N 4260   1.431   2.703  13.115
  264MPD2    H5 4261   1.456   2.655  13.201
  264MPD2    N1 4262   1.089   2.384  13.079
  264MPD2    H7 4263   1.119   2.363  13.173
  265MPD2     C 4264   1.400   3.447  13.485
  265MPD2    C1 4265   1.369   3.367  13.383
  265MPD2    C2 4266   1.252   3.395  13.312
  265MPD2    C3 4267   1.180   3.505  13.348
  265MPD2    C4 4268   1.207   3.578  13.455
  265MPD2    C5 4269   1.324   3.555  13.515
  265MPD2     H 4270   1.220   3.323  13.238
  265MPD2    H1 4271   1.146   3.662  13.485
  265MPD2    H2 4272   1.492   3.424  13.538
  265MPD2    H3 4273   1.347   3.612  13.605
  265MPD2     N 4274   1.057   3.536  13.280
  265MPD2    H5 4275   0.996   3.609  13.317
  265MPD2    N1 4276   1.447   3.250  13.340
  265MPD2    H7 4277   1.412   3.199  13.260
  266MPD2     C 4278   2.583   0.223   9.301
  266MPD2    C1 4279   2.647   0.338   9.246
  266MPD2    C2 4280   2.778   0.362   9.278
  266MPD2    C3 4281   2.840   0.276   9.361
  266MPD2    C4 4282   2.787   0.160   9.411
  266MPD2    C5 4283   2.653   0.132   9.375
  266MPD2     H 4284   2.824   0.455   9.245
  266MPD2    H1 4285   2.843   0.092   9.475
  266MPD2    H2 4286   2.482   0.193   9.274
  266MPD2    H3 4287   2.609   0.041   9.413
  266MPD2     N 4288   2.969   0.315   9.399
  266MPD2    H5 4289   3.016   0.392   9.352
  266MPD2    N1 4290   2.592   0.435   9.157
  266MPD2    H7 4291   2.646   0.514   9.123
  267MPD2     C 4292   3.178   1.044   9.052
  267MPD2    C1 4293   3.209   0.922   8.994
  267MPD2    C2 4294   3.261   0.820   9.074
  267MPD2    C3 4295   3.268   0.833   9.213
  267MPD2    C4 4296   3.242   0.958   9.267
  267MPD2    C5 4297   3.207   1.059   9.184
  267MPD2     H 4298   3.284   0.721   9.038
  267MPD2    H1 4299   3.246   0.978   9.373
  267MPD2    H2 4300   3.143   1.137   9.008
  267MPD2    H3 4301   3.191   1.155   9.232
  267MPD2     N 4302   3.286   0.715   9.288
  267MPD2    H5 4303   3.324   0.633   9.243
  267MPD2    N1 4304   3.171   0.888   8.867
  267MPD2    H7 4305   3.187   0.790   8.843
  268MPD2     C 4306   3.805   0.349   9.353
  268MPD2    C1 4307   3.732   0.297   9.459
  268MPD2    C2 4308   3.798   0.265   9.580
  268MPD2    C3 4309   3.932   0.288   9.601
  268MPD2    C4 4310   3.996   0.348   9.491
  268MPD2    C5 4311   3.937   0.361   9.374
  268MPD2     H 4312   3.736   0.233   9.664
  268MPD2    H1 4313   4.105   0.353   9.494
  268MPD2    H2 4314   3.774   0.370   9.251
  268MPD2    H3 4315   3.987   0.401   9.286
  268MPD2     N 4316   4.000   0.253   9.717
  268MPD2    H5 4317   3.947   0.196   9.783
  268MPD2    N1 4318   3.593   0.277   9.454
  268MPD2    H7 4319   3.554   0.238   9.539
  269MPD2     C 4320   2.902   2.061  12.111
  269MPD2    C1 4321   2.960   2.114  12.222
  269MPD2    C2 4322   2.971   2.253  12.231
  269MPD2    C3 4323   2.918   2.338  12.141
  269MPD2    C4 4324   2.850   2.286  12.031
  269MPD2    C5 4325   2.846   2.151  12.022
  269MPD2     H 4326   3.033   2.297  12.309
  269MPD2    H1 4327   2.804   2.348  11.955
  269MPD2    H2 4328   2.889   1.954  12.097
  269MPD2    H3 4329   2.782   2.119  11.941
  269MPD2     N 4330   2.942   2.475  12.160
  269MPD2    H5 4331   3.019   2.497  12.223
  269MPD2    N1 4332   3.017   2.028  12.324
  269MPD2    H7 4333   3.013   1.928  12.312
  270MPD2     C 4334   3.633   2.436  12.906
  270MPD2    C1 4335   3.684   2.311  12.876
  270MPD2    C2 4336   3.602   2.214  12.826
  270MPD2    C3 4337   3.467   2.227  12.830
  270MPD2    C4 4338   3.415   2.349  12.867
  270MPD2    C5 4339   3.494   2.454  12.898
  270MPD2     H 4340   3.644   2.121  12.788
  270MPD2    H1 4341   3.310   2.373  12.854
  270MPD2    H2 4342   3.693   2.520  12.939
  270MPD2    H3 4343   3.441   2.547  12.916
  270MPD2     N 4344   3.373   2.123  12.794
  270MPD2    H5 4345   3.274   2.147  12.792
  270MPD2    N1 4346   3.823   2.280  12.869
  270MPD2    H7 4347   3.843   2.187  12.834
  271MPD2     C 4348   3.514   1.186  12.456
  271MPD2    C1 4349   3.493   1.281  12.357
  271MPD2    C2 4350   3.438   1.402  12.396
  271MPD2    C3 4351   3.398   1.433  12.529
  271MPD2    C4 4352   3.421   1.335  12.622
  271MPD2    C5 4353   3.488   1.218  12.593
  271MPD2     H 4354   3.424   1.479  12.321
  271MPD2    H1 4355   3.384   1.342  12.724
  271MPD2    H2 4356   3.568   1.096  12.430
  271MPD2    H3 4357   3.508   1.142  12.669
  271MPD2     N 4358   3.340   1.554  12.570
  271MPD2    H5 4359   3.344   1.578  12.669
  271MPD2    N1 4360   3.524   1.264  12.220
  271MPD2    H7 4361   3.504   1.348  12.167
  272MPD2     C 4362   4.385   1.507  12.888
  272MPD2    C1 4363   4.304   1.579  12.972
  272MPD2    C2 4364   4.257   1.703  12.935
  272MPD2    C3 4365   4.306   1.755  12.813
  272MPD2    C4 4366   4.376   1.671  12.722
  272MPD2    C5 4367   4.418   1.551  12.765
  272MPD2     H 4368   4.198   1.758  13.007
  272MPD2    H1 4369   4.408   1.703  12.624
  272MPD2    H2 4370   4.420   1.408  12.916
  272MPD2    H3 4371   4.474   1.502  12.687
  272MPD2     N 4372   4.283   1.884  12.773
  272MPD2    H5 4373   4.345   1.939  12.715
  272MPD2    N1 4374   4.262   1.528  13.095
  272MPD2    H7 4375   4.199   1.585  13.151
  273MPD2     C 4376   4.480   1.888  13.255
  273MPD2    C1 4377   4.358   1.944  13.226
  273MPD2    C2 4378   4.246   1.902  13.298
  273MPD2    C3 4379   4.261   1.801  13.398
  273MPD2    C4 4380   4.389   1.754  13.425
  273MPD2    C5 4381   4.497   1.798  13.351
  273MPD2     H 4382   4.150   1.948  13.276
  273MPD2    H1 4383   4.402   1.683  13.505
  273MPD2    H2 4384   4.558   1.904  13.182
  273MPD2    H3 4385   4.591   1.752  13.380
  273MPD2     N 4386   4.142   1.753  13.457
  273MPD2    H5 4387   4.061   1.813  13.444
  273MPD2    N1 4388   4.354   2.046  13.127
  273MPD2    H7 4389   4.441   2.062  13.077
  274MPD2     C 4390   3.417   3.182  11.227
  274MPD2    C1 4391   3.300   3.141  11.156
  274MPD2    C2 4392   3.230   3.232  11.076
  274MPD2    C3 4393   3.265   3.368  11.078
  274MPD2    C4 4394   3.375   3.402  11.143
  274MPD2    C5 4395   3.450   3.314  11.205
  274MPD2     H 4396   3.140   3.195  11.028
  274MPD2    H1 4397   3.410   3.504  11.135
  274MPD2    H2 4398   3.482   3.114  11.282
  274MPD2    H3 4399   3.550   3.338  11.239
  274MPD2     N 4400   3.195   3.466  11.004
  274MPD2    H5 4401   3.227   3.562  10.998
  274MPD2    N1 4402   3.244   3.014  11.180
  274MPD2    H7 4403   3.160   3.002  11.125
  275MPD2     C 4404   2.789   3.443  10.229
  275MPD2    C1 4405   2.742   3.426  10.356
  275MPD2    C2 4406   2.661   3.312  10.381
  275MPD2    C3 4407   2.676   3.210  10.287
  275MPD2    C4 4408   2.745   3.226  10.169
  275MPD2    C5 4409   2.802   3.345  10.142
  275MPD2     H 4410   2.607   3.288  10.472
  275MPD2    H1 4411   2.751   3.143  10.100
  275MPD2    H2 4412   2.834   3.533  10.189
  275MPD2    H3 4413   2.858   3.357  10.050
  275MPD2     N 4414   2.623   3.088  10.332
  275MPD2    H5 4415   2.553   3.098  10.405
  275MPD2    N1 4416   2.785   3.520  10.449
  275MPD2    H7 4417   2.830   3.601  10.406
  276MPD2     C 4418   3.423   3.642  10.101
  276MPD2    C1 4419   3.478   3.681  10.221
  276MPD2    C2 4420   3.403   3.698  10.336
  276MPD2    C3 4421   3.267   3.670  10.322
  276MPD2    C4 4422   3.211   3.631  10.199
  276MPD2    C5 4423   3.288   3.629  10.087
  276MPD2     H 4424   3.447   3.735  10.428
  276MPD2    H1 4425   3.107   3.604  10.185
  276MPD2    H2 4426   3.489   3.632  10.016
  276MPD2    H3 4427   3.244   3.595   9.994
  276MPD2     N 4428   3.180   3.676  10.432
  276MPD2    H5 4429   3.085   3.695  10.403
  276MPD2    N1 4430   3.614   3.710  10.217
  276MPD2    H7 4431   3.673   3.671  10.144
  277MPD2     C 4432   3.516   4.277   9.867
  277MPD2    C1 4433   3.472   4.218   9.986
  277MPD2    C2 4434   3.507   4.087  10.013
  277MPD2    C3 4435   3.582   4.017   9.921
  277MPD2    C4 4436   3.635   4.084   9.809
  277MPD2    C5 4437   3.598   4.209   9.781
  277MPD2     H 4438   3.481   4.032  10.103
  277MPD2    H1 4439   3.716   4.048   9.746
  277MPD2    H2 4440   3.499   4.380   9.840
  277MPD2    H3 4441   3.648   4.255   9.697
  277MPD2     N 4442   3.608   3.890   9.958
  277MPD2    H5 4443   3.534   3.848  10.013
  277MPD2    N1 4444   3.426   4.313  10.081
  277MPD2    H7 4445   3.423   4.411  10.054
  278MPD2     C 4446   4.188   4.162  10.562
  278MPD2    C1 4447   4.192   4.295  10.541
  278MPD2    C2 4448   4.077   4.363  10.501
  278MPD2    C3 4449   3.951   4.292  10.492
  278MPD2    C4 4450   3.952   4.163  10.522
  278MPD2    C5 4451   4.066   4.094  10.559
  278MPD2     H 4452   4.078   4.469  10.480
  278MPD2    H1 4453   3.858   4.110  10.528
  278MPD2    H2 4454   4.274   4.098  10.578
  278MPD2    H3 4455   4.060   3.988  10.576
  278MPD2     N 4456   3.825   4.350  10.462
  278MPD2    H5 4457   3.745   4.287  10.460
  278MPD2    N1 4458   4.308   4.371  10.540
  278MPD2    H7 4459   4.316   4.460  10.492
  279MPD2     C 4460   3.450   0.235  10.106
  279MPD2    C1 4461   3.361   0.134  10.135
  279MPD2    C2 4462   3.230   0.176  10.170
  279MPD2    C3 4463   3.200   0.315  10.158
  279MPD2    C4 4464   3.289   0.409  10.120
  279MPD2    C5 4465   3.418   0.369  10.098
  279MPD2     H 4466   3.152   0.110  10.206
  279MPD2    H1 4467   3.265   0.514  10.118
  279MPD2    H2 4468   3.558   0.226  10.100
  279MPD2    H3 4469   3.497   0.438  10.072
  279MPD2     N 4470   3.077   0.368  10.201
  279MPD2    H5 4471   3.078   0.468  10.220
  279MPD2    N1 4472   3.400   0.005  10.169
  279MPD2    H7 4473   3.343   4.739  10.230
  280MPD2     C 4474   0.780   1.703   7.994
  280MPD2    C1 4475   0.854   1.619   8.070
  280MPD2    C2 4476   0.993   1.640   8.082
  280MPD2    C3 4477   1.053   1.738   8.000
  280MPD2    C4 4478   0.976   1.804   7.904
  280MPD2    C5 4479   0.837   1.791   7.908
  280MPD2     H 4480   1.052   1.583   8.153
  280MPD2    H1 4481   1.017   1.881   7.841
  280MPD2    H2 4482   0.671   1.703   7.989
  280MPD2    H3 4483   0.772   1.851   7.845
  280MPD2     N 4484   1.192   1.768   8.006
  280MPD2    H5 4485   1.236   1.828   7.937
  280MPD2    N1 4486   0.791   1.519   8.140
  280MPD2    H7 4487   0.842   1.490   8.223
  281MPD2     C 4488   0.323   2.087   7.974
  281MPD2    C1 4489   0.438   2.077   7.898
  281MPD2    C2 4490   0.471   1.951   7.844
  281MPD2    C3 4491   0.395   1.839   7.879
  281MPD2    C4 4492   0.282   1.853   7.961
  281MPD2    C5 4493   0.242   1.976   8.004
  281MPD2     H 4494   0.559   1.931   7.783
  281MPD2    H1 4495   0.227   1.763   7.985
  281MPD2    H2 4496   0.295   2.182   8.018
  281MPD2    H3 4497   0.150   1.980   8.062
  281MPD2     N 4498   0.421   1.705   7.836
  281MPD2    H5 4499   0.361   1.629   7.865
  281MPD2    N1 4500   0.494   2.202   7.869
  281MPD2    H7 4501   0.423   2.273   7.883
  282MPD2     C 4502   3.683   0.969  13.552
  282MPD2    C1 4503   3.601   0.911  13.453
  282MPD2    C2 4504   3.551   0.993  13.350
  282MPD2    C3 4505   3.584   1.129  13.353
  282MPD2    C4 4506   3.659   1.180  13.460
  282MPD2    C5 4507   3.705   1.108  13.558
  282MPD2     H 4508   3.483   0.951  13.276
  282MPD2    H1 4509   3.670   1.287  13.474
  282MPD2    H2 4510   3.734   0.910  13.628
  282MPD2    H3 4511   3.774   1.147  13.632
  282MPD2     N 4512   3.547   1.208  13.242
  282MPD2    H5 4513   3.498   1.156  13.171
  282MPD2    N1 4514   3.558   0.782  13.473
  282MPD2    H7 4515   3.569   0.759  13.572
  283MPD2     C 4516   2.904   0.948  13.612
  283MPD2    C1 4517   2.942   0.937  13.747
  283MPD2    C2 4518   3.007   0.819  13.783
  283MPD2    C3 4519   3.046   0.725  13.693
  283MPD2    C4 4520   3.008   0.737  13.558
  283MPD2    C5 4521   2.936   0.844  13.527
  283MPD2     H 4522   3.021   0.796  13.888
  283MPD2    H1 4523   3.023   0.663  13.480
  283MPD2    H2 4524   2.876   1.044  13.569
  283MPD2    H3 4525   2.908   0.854  13.422
  283MPD2     N 4526   3.122   0.626  13.751
  283MPD2    H5 4527   3.120   0.626  13.853
  283MPD2    N1 4528   2.916   1.033  13.845
  283MPD2    H7 4529   2.915   0.999  13.941
  284MPD2     C 4530   0.177   0.847   6.741
  284MPD2    C1 4531   0.155   0.716   6.782
  284MPD2    C2 4532   0.254   0.625   6.764
  284MPD2    C3 4533   0.371   0.656   6.692
  284MPD2    C4 4534   0.392   0.791   6.643
  284MPD2    C5 4535   0.282   0.879   6.662
  284MPD2     H 4536   0.259   0.524   6.803
  284MPD2    H1 4537   0.484   0.826   6.597
  284MPD2    H2 4538   0.103   0.924   6.762
  284MPD2    H3 4539   0.291   0.983   6.631
  284MPD2     N 4540   0.467   0.551   6.681
  284MPD2    H5 4541   0.443   0.459   6.716
  284MPD2    N1 4542   0.037   0.677   6.853
  284MPD2    H7 4543   0.034   0.578   6.877
  285MPD2     C 4544   0.287   4.419   6.529
  285MPD2    C1 4545   0.413   4.421   6.589
  285MPD2    C2 4546   0.496   4.527   6.564
  285MPD2    C3 4547   0.452   4.633   6.492
  285MPD2    C4 4548   0.324   4.638   6.442
  285MPD2    C5 4549   0.249   4.525   6.454
  285MPD2     H 4550   0.597   4.530   6.604
  285MPD2    H1 4551   0.273   4.716   6.386
  285MPD2    H2 4552   0.216   4.338   6.542
  285MPD2    H3 4553   0.149   4.520   6.413
  285MPD2     N 4554   0.533   4.748   6.497
  285MPD2    H5 4555   0.630   4.730   6.521
  285MPD2    N1 4556   0.439   4.314   6.676
  285MPD2    H7 4557   0.367   4.246   6.695
  286MPD2     C 4558   0.054   2.930   9.556
  286MPD2    C1 4559   0.065   3.047   9.490
  286MPD2    C2 4560   0.186   3.121   9.507
  286MPD2    C3 4561   0.285   3.080   9.592
  286MPD2    C4 4562   0.263   2.969   9.661
  286MPD2    C5 4563   0.146   2.898   9.647
  286MPD2     H 4564   0.197   3.218   9.461
  286MPD2    H1 4565   0.338   2.930   9.729
  286MPD2    H2 4566   4.763   2.864   9.530
  286MPD2    H3 4567   0.143   2.801   9.695
  286MPD2     N 4568   0.412   3.134   9.596
  286MPD2    H5 4569   0.487   3.083   9.642
  286MPD2    N1 4570   4.758   3.093   9.399
  286MPD2    H7 4571   4.777   3.180   9.351
  287MPD2     C 4572   4.336   3.651   9.668
  287MPD2    C1 4573   4.403   3.672   9.550
  287MPD2    C2 4574   4.389   3.591   9.442
  287MPD2    C3 4575   4.307   3.480   9.450
  287MPD2    C4 4576   4.219   3.465   9.556
  287MPD2    C5 4577   4.245   3.550   9.666
  287MPD2     H 4578   4.446   3.603   9.350
  287MPD2    H1 4579   4.154   3.380   9.570
  287MPD2    H2 4580   4.336   3.723   9.749
  287MPD2    H3 4581   4.184   3.535   9.754
  287MPD2     N 4582   4.314   3.394   9.344
  287MPD2    H5 4583   4.386   3.424   9.279
  287MPD2    N1 4584   4.509   3.764   9.534
  287MPD2    H7 4585   4.550   3.768   9.442
  288MPD2     C 4586   4.484   3.750   8.707
  288MPD2    C1 4587   4.583   3.734   8.806
  288MPD2    C2 4588   4.590   3.617   8.876
  288MPD2    C3 4589   4.481   3.534   8.874
  288MPD2    C4 4590   4.383   3.549   8.780
  288MPD2    C5 4591   4.380   3.662   8.702
  288MPD2     H 4592   4.669   3.617   8.950
  288MPD2    H1 4593   4.296   3.486   8.768
  288MPD2    H2 4594   4.472   3.836   8.641
  288MPD2    H3 4595   4.292   3.683   8.641
  288MPD2     N 4596   4.459   3.424   8.962
  288MPD2    H5 4597   4.377   3.370   8.936
  288MPD2    N1 4598   4.682   3.832   8.839
  288MPD2    H7 4599   4.754   3.798   8.902
  289MPD2     C 4600   4.256   0.323   8.073
  289MPD2    C1 4601   4.387   0.353   8.069
  289MPD2    C2 4602   4.468   0.264   7.999
  289MPD2    C3 4603   4.423   0.144   7.943
  289MPD2    C4 4604   4.286   0.120   7.941
  289MPD2    C5 4605   4.209   0.209   8.009
  289MPD2     H 4606   4.575   0.281   8.003
  289MPD2    H1 4607   4.247   0.031   7.893
  289MPD2    H2 4608   4.174   0.379   8.119
  289MPD2    H3 4609   4.104   0.183   7.998
  289MPD2     N 4610   4.515   0.053   7.896
  289MPD2    H5 4611   4.475   4.752   7.879
  289MPD2    N1 4612   4.451   0.455   8.144
  289MPD2    H7 4613   4.552   0.447   8.138
  290MPD2     C 4614   4.227   4.607   8.174
  290MPD2    C1 4615   4.328   4.511   8.174
  290MPD2    C2 4616   4.296   4.385   8.134
  290MPD2    C3 4617   4.172   4.356   8.088
  290MPD2    C4 4618   4.074   4.456   8.084
  290MPD2    C5 4619   4.102   4.570   8.142
  290MPD2     H 4620   4.362   4.299   8.137
  290MPD2    H1 4621   3.974   4.451   8.042
  290MPD2    H2 4622   4.251   4.696   8.231
  290MPD2    H3 4623   4.031   4.651   8.141
  290MPD2     N 4624   4.153   4.234   8.025
  290MPD2    H5 4625   4.227   4.165   8.032
  290MPD2    N1 4626   4.461   4.549   8.204
  290MPD2    H7 4627   4.465   4.650   8.197
  291MPD2     C 4628   0.457   0.075   8.143
  291MPD2    C1 4629   0.434   4.760   8.058
  291MPD2    C2 4630   0.538   4.728   7.970
  291MPD2    C3 4631   0.642   0.018   7.951
  291MPD2    C4 4632   0.660   0.135   8.029
  291MPD2    C5 4633   0.568   0.156   8.129
  291MPD2     H 4634   0.537   4.634   7.917
  291MPD2    H1 4635   0.744   0.202   8.015
  291MPD2    H2 4636   0.380   0.103   8.215
  291MPD2    H3 4637   0.571   0.247   8.187
  291MPD2     N 4638   0.733   4.770   7.852
  291MPD2    H5 4639   0.716   4.680   7.810
  291MPD2    N1 4640   0.313   4.688   8.044
  291MPD2    H7 4641   0.294   4.637   7.958
  292MPD2     C 4642   4.690   1.266  13.026
  292MPD2    C1 4643   4.650   1.177  12.925
  292MPD2    C2 4644   4.744   1.102  12.853
  292MPD2    C3 4645   0.084   1.116  12.888
  292MPD2    C4 4646   0.123   1.194  12.997
  292MPD2    C5 4647   0.030   1.269  13.061
  292MPD2     H 4648   4.714   1.030  12.778
  292MPD2    H1 4649   0.228   1.216  13.015
  292MPD2    H2 4650   4.624   1.342  13.067
  292MPD2    H3 4651   0.059   1.336  13.141
  292MPD2     N 4652   0.175   1.025  12.831
  292MPD2    H5 4653   0.139   0.975  12.750
  292MPD2    N1 4654   4.514   1.173  12.901
  292MPD2    H7 4655   4.456   1.232  12.960
  293MPD2     C 4656   3.855   0.364  12.598
  293MPD2    C1 4657   3.819   0.408  12.725
  293MPD2    C2 4658   3.873   0.529  12.766
  293MPD2    C3 4659   3.966   0.599  12.699
  293MPD2    C4 4660   4.003   0.554  12.569
  293MPD2    C5 4661   3.941   0.435  12.523
  293MPD2     H 4662   3.835   0.567  12.860
  293MPD2    H1 4663   4.080   0.605  12.513
  293MPD2    H2 4664   3.822   0.268  12.560
  293MPD2    H3 4665   3.978   0.395  12.429
  293MPD2     N 4666   4.008   0.728  12.753
  293MPD2    H5 4667   3.962   0.751  12.840
  293MPD2    N1 4668   3.748   0.331  12.816
  293MPD2    H7 4669   3.737   0.378  12.905
  294MPD2     C 4670   4.270   3.334  12.412
  294MPD2    C1 4671   4.180   3.313  12.517
  294MPD2    C2 4672   4.156   3.182  12.561
  294MPD2    C3 4673   4.228   3.075  12.504
  294MPD2    C4 4674   4.323   3.100  12.411
  294MPD2    C5 4675   4.353   3.230  12.362
  294MPD2     H 4676   4.076   3.157  12.629
  294MPD2    H1 4677   4.376   3.017  12.367
  294MPD2    H2 4678   4.278   3.436  12.374
  294MPD2    H3 4679   4.419   3.259  12.281
  294MPD2     N 4680   4.216   2.943  12.551
  294MPD2    H5 4681   4.279   2.873  12.512
  294MPD2    N1 4682   4.095   3.412  12.561
  294MPD2    H7 4683   4.069   3.406  12.659
  295MPD2     C 4684   3.516   3.175  12.120
  295MPD2    C1 4685   3.537   3.304  12.073
  295MPD2    C2 4686   3.436   3.362  12.001
  295MPD2    C3 4687   3.317   3.299  11.973
  295MPD2    C4 4688   3.307   3.161  12.011
  295MPD2    C5 4689   3.407   3.102  12.083
  295MPD2     H 4690   3.454   3.465  11.973
  295MPD2    H1 4691   3.233   3.101  11.959
  295MPD2    H2 4692   3.590   3.119  12.176
  295MPD2    H3 4693   3.408   2.999  12.118
  295MPD2     N 4694   3.220   3.363  11.889
  295MPD2    H5 4695   3.230   3.458  11.853
  295MPD2    N1 4696   3.649   3.389  12.110
  295MPD2    H7 4697   3.654   3.480  12.065
  296MPD2     C 4698   3.049   2.722  14.487
  296MPD2    C1 4699   3.120   2.838  14.497
  296MPD2    C2 4700   3.180   2.895  14.389
  296MPD2    C3 4701   3.163   2.834  14.269
  296MPD2    C4 4702   3.085   2.721  14.252
  296MPD2    C5 4703   3.029   2.667  14.369
  296MPD2     H 4704   3.242   2.984  14.399
  296MPD2    H1 4705   3.077   2.674  14.155
  296MPD2    H2 4706   3.000   2.683  14.575
  296MPD2    H3 4707   2.974   2.573  14.374
  296MPD2     N 4708   3.236   2.899  14.164
  296MPD2    H5 4709   3.279   2.986  14.193
  296MPD2    N1 4710   3.125   2.889  14.625
  296MPD2    H7 4711   3.110   2.824  14.702
  297MPD2     C 4712   4.014   2.909  14.708
  297MPD2    C1 4713   3.910   2.908  14.626
  297MPD2    C2 4714   3.795   2.958  14.671
  297MPD2    C3 4715   3.772   3.006  14.799
  297MPD2    C4 4716   3.886   3.005  14.881
  297MPD2    C5 4717   4.006   2.965  14.836
  297MPD2     H 4718   3.711   2.946  14.603
  297MPD2    H1 4719   3.875   3.054  14.977
  297MPD2    H2 4720   4.105   2.866  14.669
  297MPD2    H3 4721   4.091   2.981  14.901
  297MPD2     N 4722   3.650   3.048  14.858
  297MPD2    H5 4723   3.651   3.080  14.955
  297MPD2    N1 4724   3.916   2.837  14.495
  297MPD2    H7 4725   3.839   2.846  14.430
  298MPD2     C 4726   3.117   2.644  15.291
  298MPD2    C1 4727   3.110   2.636  15.156
  298MPD2    C2 4728   3.043   2.527  15.105
  298MPD2    C3 4729   3.001   2.416  15.185
  298MPD2    C4 4730   3.018   2.421  15.320
  298MPD2    C5 4731   3.071   2.538  15.371
  298MPD2     H 4732   3.019   2.532  14.999
  298MPD2    H1 4733   2.980   2.347  15.390
  298MPD2    H2 4734   3.156   2.735  15.337
  298MPD2    H3 4735   3.060   2.557  15.477
  298MPD2     N 4736   2.943   2.303  15.115
  298MPD2    H5 4737   2.952   2.305  15.014
  298MPD2    N1 4738   3.166   2.727  15.061
  298MPD2    H7 4739   3.146   2.707  14.963
  299MPD2     C 4740   4.188   4.515   7.289
  299MPD2    C1 4741   4.136   4.635   7.334
  299MPD2    C2 4742   4.203   4.721   7.423
  299MPD2    C3 4743   4.332   4.682   7.465
  299MPD2    C4 4744   4.382   4.557   7.425
  299MPD2    C5 4745   4.310   4.475   7.336
  299MPD2     H 4746   4.170   0.030   7.450
  299MPD2    H1 4747   4.475   4.515   7.461
  299MPD2    H2 4748   4.134   4.448   7.224
  299MPD2    H3 4749   4.353   4.379   7.314
  299MPD2     N 4750   4.419   4.773   7.539
  299MPD2    H5 4751   4.516   4.746   7.554
  299MPD2    N1 4752   4.001   4.672   7.295
  299MPD2    H7 4753   3.955   4.750   7.342
  300MPD2     C 4754   0.328   0.507   7.102
  300MPD2    C1 4755   0.303   0.376   7.126
  300MPD2    C2 4756   0.212   0.347   7.223
  300MPD2    C3 4757   0.143   0.450   7.288
  300MPD2    C4 4758   0.165   0.582   7.249
  300MPD2    C5 4759   0.268   0.606   7.166
  300MPD2     H 4760   0.195   0.241   7.242
  300MPD2    H1 4761   0.118   0.663   7.303
  300MPD2    H2 4762   0.394   0.546   7.026
  300MPD2    H3 4763   0.297   0.708   7.143
  300MPD2     N 4764   0.038   0.429   7.377
  300MPD2    H5 4765   4.778   0.510   7.408
  300MPD2    N1 4766   0.367   0.269   7.058
  300MPD2    H7 4767   0.336   0.176   7.083
  301MPD2     C 4768   2.592   3.244  13.169
  301MPD2    C1 4769   2.520   3.141  13.104
  301MPD2    C2 4770   2.601   3.038  13.050
  301MPD2    C3 4771   2.742   3.052  13.048
  301MPD2    C4 4772   2.805   3.161  13.105
  301MPD2    C5 4773   2.728   3.254  13.165
  301MPD2     H 4774   2.547   2.960  12.999
  301MPD2    H1 4775   2.910   3.169  13.130
  301MPD2    H2 4776   2.550   3.323  13.229
  301MPD2    H3 4777   2.772   3.341  13.210
  301MPD2     N 4778   2.815   2.952  12.976
  301MPD2    H5 4779   2.763   2.877  12.931
  301MPD2    N1 4780   2.382   3.137  13.100
  301MPD2    H7 4781   2.335   3.065  13.046
  302MPD2     C 4782   1.669   3.836  13.365
  302MPD2    C1 4783   1.805   3.846  13.357
  302MPD2    C2 4784   1.870   3.732  13.310
  302MPD2    C3 4785   1.804   3.612  13.274
  302MPD2    C4 4786   1.669   3.614  13.286
  302MPD2    C5 4787   1.598   3.720  13.338
  302MPD2     H 4788   1.978   3.730  13.314
  302MPD2    H1 4789   1.612   3.522  13.283
  302MPD2    H2 4790   1.604   3.915  13.400
  302MPD2    H3 4791   1.494   3.718  13.368
  302MPD2     N 4792   1.879   3.499  13.234
  302MPD2    H5 4793   1.981   3.500  13.232
  302MPD2    N1 4794   1.866   3.972  13.376
  302MPD2    H7 4795   1.806   4.054  13.370
  303MPD2     C 4796   1.837   2.454  13.208
  303MPD2    C1 4797   1.780   2.518  13.101
  303MPD2    C2 4798   1.833   2.641  13.062
  303MPD2    C3 4799   1.923   2.711  13.143
  303MPD2    C4 4800   1.980   2.643  13.246
  303MPD2    C5 4801   1.940   2.514  13.281
  303MPD2     H 4802   1.804   2.683  12.966
  303MPD2    H1 4803   2.057   2.695  13.301
  303MPD2    H2 4804   1.798   2.359  13.242
  303MPD2    H3 4805   1.976   2.475  13.375
  303MPD2     N 4806   1.968   2.846  13.136
  303MPD2    H5 4807   2.045   2.876  13.195
  303MPD2    N1 4808   1.678   2.455  13.035
  303MPD2    H7 4809   1.643   2.372  13.082
  304MPD2     C 4810   3.963   4.245   7.317
  304MPD2    C1 4811   3.834   4.242   7.266
  304MPD2    C2 4812   3.734   4.288   7.347
  304MPD2    C3 4813   3.756   4.343   7.474
  304MPD2    C4 4814   3.882   4.330   7.525
  304MPD2    C5 4815   3.976   4.287   7.447
  304MPD2     H 4816   3.638   4.318   7.305
  304MPD2    H1 4817   3.904   4.362   7.627
  304MPD2    H2 4818   4.049   4.209   7.263
  304MPD2    H3 4819   4.077   4.281   7.487
  304MPD2     N 4820   3.658   4.411   7.547
  304MPD2    H5 4821   3.704   4.439   7.633
  304MPD2    N1 4822   3.813   4.190   7.139
  304MPD2    H7 4823   3.903   4.186   7.092
  305MPD2     C 4824   3.523   3.339   7.383
  305MPD2    C1 4825   3.410   3.415   7.412
  305MPD2    C2 4826   3.410   3.547   7.383
  305MPD2    C3 4827   3.516   3.608   7.313
  305MPD2    C4 4828   3.628   3.530   7.291
  305MPD2    C5 4829   3.630   3.398   7.322
  305MPD2     H 4830   3.323   3.607   7.407
  305MPD2    H1 4831   3.709   3.575   7.235
  305MPD2    H2 4832   3.532   3.236   7.414
  305MPD2    H3 4833   3.724   3.345   7.309
  305MPD2     N 4834   3.530   3.746   7.278
  305MPD2    H5 4835   3.622   3.767   7.240
  305MPD2    N1 4836   3.295   3.357   7.470
  305MPD2    H7 4837   3.224   3.420   7.507
  306MPD2     C 4838   2.861   4.181   7.059
  306MPD2    C1 4839   2.985   4.236   7.025
  306MPD2    C2 4840   2.986   4.365   7.001
  306MPD2    C3 4841   2.876   4.447   6.994
  306MPD2    C4 4842   2.758   4.383   7.019
  306MPD2    C5 4843   2.745   4.248   7.056
  306MPD2     H 4844   3.079   4.421   7.006
  306MPD2    H1 4845   2.663   4.435   7.025
  306MPD2    H2 4846   2.849   4.080   7.098
  306MPD2    H3 4847   2.652   4.204   7.090
  306MPD2     N 4848   2.889   4.585   6.961
  306MPD2    H5 4849   2.983   4.620   6.949
  306MPD2    N1 4850   3.105   4.155   7.042
  306MPD2    H7 4851   3.104   4.083   7.114
  307MPD2     C 4852   2.726   4.502  10.258
  307MPD2    C1 4853   2.713   4.589  10.153
  307MPD2    C2 4854   2.660   4.714  10.171
  307MPD2    C3 4855   2.624   4.761  10.296
  307MPD2    C4 4856   2.629   4.669  10.404
  307MPD2    C5 4857   2.673   4.540  10.379
  307MPD2     H 4858   2.653   4.776  10.082
  307MPD2    H1 4859   2.588   4.691  10.502
  307MPD2    H2 4860   2.776   4.407  10.245
  307MPD2    H3 4861   2.688   4.467  10.458
  307MPD2     N 4862   2.612   0.112  10.306
  307MPD2    H5 4863   2.605   0.160  10.217
  307MPD2    N1 4864   2.777   4.560  10.029
  307MPD2    H7 4865   2.758   4.630   9.957
  308MPD2     C 4866   1.603   4.698   8.125
  308MPD2    C1 4867   1.581   4.634   8.246
  308MPD2    C2 4868   1.690   4.594   8.316
  308MPD2    C3 4869   1.823   4.615   8.269
  308MPD2    C4 4870   1.833   4.666   8.146
  308MPD2    C5 4871   1.726   4.715   8.076
  308MPD2     H 4872   1.668   4.534   8.403
  308MPD2    H1 4873   1.936   4.671   8.110
  308MPD2    H2 4874   1.519   4.732   8.067
  308MPD2    H3 4875   1.742   4.764   7.980
  308MPD2     N 4876   1.941   4.598   8.349
  308MPD2    H5 4877   2.025   4.613   8.295
  308MPD2    N1 4878   1.457   4.614   8.304
  308MPD2    H7 4879   1.448   4.550   8.381
  309MPD2     C 4880   1.458   0.310   8.589
  309MPD2    C1 4881   1.498   0.205   8.509
  309MPD2    C2 4882   1.435   0.186   8.389
  309MPD2    C3 4883   1.343   0.274   8.345
  309MPD2    C4 4884   1.313   0.385   8.424
  309MPD2    C5 4885   1.376   0.407   8.542
  309MPD2     H 4886   1.463   0.103   8.325
  309MPD2    H1 4887   1.247   0.465   8.395
  309MPD2    H2 4888   1.506   0.339   8.682
  309MPD2    H3 4889   1.351   0.486   8.611
  309MPD2     N 4890   1.271   0.259   8.219
  309MPD2    H5 4891   1.296   0.178   8.163
  309MPD2    N1 4892   1.588   0.100   8.549
  309MPD2    H7 4893   1.592   0.021   8.485
  310MPD2     C 4894   1.670   4.100   8.875
  310MPD2    C1 4895   1.736   4.213   8.937
  310MPD2    C2 4896   1.784   4.203   9.066
  310MPD2    C3 4897   1.769   4.084   9.140
  310MPD2    C4 4898   1.708   3.977   9.075
  310MPD2    C5 4899   1.653   3.989   8.949
  310MPD2     H 4900   1.834   4.286   9.113
  310MPD2    H1 4901   1.694   3.882   9.126
  310MPD2    H2 4902   1.623   4.105   8.777
  310MPD2    H3 4903   1.608   3.901   8.905
  310MPD2     N 4904   1.832   4.073   9.263
  310MPD2    H5 4905   1.896   4.148   9.288
  310MPD2    N1 4906   1.758   4.325   8.863
  310MPD2    H7 4907   1.731   4.318   8.765
  311MPD2     C 4908   0.633   2.493   7.439
  311MPD2    C1 4909   0.683   2.488   7.307
  311MPD2    C2 4910   0.712   2.606   7.243
  311MPD2    C3 4911   0.689   2.729   7.295
  311MPD2    C4 4912   0.643   2.731   7.431
  311MPD2    C5 4913   0.611   2.617   7.495
  311MPD2     H 4914   0.744   2.586   7.141
  311MPD2    H1 4915   0.627   2.821   7.488
  311MPD2    H2 4916   0.616   2.405   7.499
  311MPD2    H3 4917   0.572   2.634   7.594
  311MPD2     N 4918   0.732   2.840   7.226
  311MPD2    H5 4919   0.764   2.827   7.131
  311MPD2    N1 4920   0.714   2.369   7.237
  311MPD2    H7 4921   0.779   2.370   7.159
  312MPD2     C 4922   1.548   2.122   7.306
  312MPD2    C1 4923   1.502   2.134   7.181
  312MPD2    C2 4924   1.368   2.111   7.148
  312MPD2    C3 4925   1.269   2.087   7.244
  312MPD2    C4 4926   1.318   2.084   7.379
  312MPD2    C5 4927   1.454   2.103   7.401
  312MPD2     H 4928   1.340   2.129   7.045
  312MPD2    H1 4929   1.259   2.061   7.466
  312MPD2    H2 4930   1.649   2.149   7.337
  312MPD2    H3 4931   1.491   2.103   7.503
  312MPD2     N 4932   1.131   2.091   7.221
  312MPD2    H5 4933   1.065   2.085   7.298
  312MPD2    N1 4934   1.588   2.147   7.070
  312MPD2    H7 4935   1.547   2.147   6.977
  313MPD2     C 4936   3.746   0.123  15.047
  313MPD2    C1 4937   3.628   0.054  15.061
  313MPD2    C2 4938   3.640   4.721  15.121
  313MPD2    C3 4939   3.756   4.674  15.177
  313MPD2    C4 4940   3.871   4.742  15.152
  313MPD2    C5 4941   3.863   0.075  15.089
  313MPD2     H 4942   3.548   4.664  15.114
  313MPD2    H1 4943   3.972   4.725  15.188
  313MPD2    H2 4944   3.747   0.215  14.990
  313MPD2    H3 4945   3.950   0.134  15.062
  313MPD2     N 4946   3.747   4.542  15.235
  313MPD2    H5 4947   3.657   4.496  15.236
  313MPD2    N1 4948   3.508   0.093  15.010
  313MPD2    H7 4949   3.429   0.031  15.025
  314MPD2     C 4950   3.088   4.149  14.969
  314MPD2    C1 4951   3.209   4.147  14.905
  314MPD2    C2 4952   3.326   4.155  14.978
  314MPD2    C3 4953   3.326   4.144  15.118
  314MPD2    C4 4954   3.210   4.127  15.185
  314MPD2    C5 4955   3.099   4.124  15.108
  314MPD2     H 4956   3.412   4.178  14.915
  314MPD2    H1 4957   3.205   4.098  15.290
  314MPD2    H2 4958   2.995   4.146  14.913
  314MPD2    H3 4959   3.000   4.105  15.146
  314MPD2     N 4960   3.447   4.155  15.189
  314MPD2    H5 4961   3.434   4.173  15.288
  314MPD2    N1 4962   3.225   4.152  14.769
  314MPD2    H7 4963   3.320   4.135  14.738
  315MPD2     C 4964   1.699   1.657   9.960
  315MPD2    C1 4965   1.578   1.601  10.004
  315MPD2    C2 4966   1.459   1.642   9.937
  315MPD2    C3 4967   1.469   1.740   9.842
  315MPD2    C4 4968   1.586   1.807   9.819
  315MPD2    C5 4969   1.702   1.749   9.863
  315MPD2     H 4970   1.358   1.606   9.957
  315MPD2    H1 4971   1.586   1.887   9.746
  315MPD2    H2 4972   1.789   1.620  10.007
  315MPD2    H3 4973   1.800   1.786   9.835
  315MPD2     N 4974   1.347   1.767   9.775
  315MPD2    H5 4975   1.264   1.721   9.810
  315MPD2    N1 4976   1.578   1.497  10.092
  315MPD2    H7 4977   1.660   1.437  10.101
  316MPD2     C 4978   1.350   0.847  10.437
  316MPD2    C1 4979   1.238   0.895  10.366
  316MPD2    C2 4980   1.110   0.842  10.373
  316MPD2    C3 4981   1.095   0.715  10.439
  316MPD2    C4 4982   1.204   0.675  10.513
  316MPD2    C5 4983   1.328   0.738  10.519
  316MPD2     H 4984   1.030   0.889  10.317
  316MPD2    H1 4985   1.203   0.591  10.581
  316MPD2    H2 4986   1.448   0.893  10.434
  316MPD2    H3 4987   1.404   0.689  10.579
  316MPD2     N 4988   0.968   0.650  10.446
  316MPD2    H5 4989   0.890   0.697  10.401
  316MPD2    N1 4990   1.269   1.010  10.282
  316MPD2    H7 4991   1.364   1.044  10.290
  317MPD2     C 4992   1.509   1.607   9.416
  317MPD2    C1 4993   1.614   1.581   9.499
  317MPD2    C2 4994   1.590   1.491   9.595
  317MPD2    C3 4995   1.468   1.433   9.613
  317MPD2    C4 4996   1.360   1.460   9.531
  317MPD2    C5 4997   1.385   1.543   9.427
  317MPD2     H 4998   1.663   1.464   9.671
  317MPD2    H1 4999   1.265   1.408   9.532
  317MPD2    H2 5000   1.527   1.663   9.325
  317MPD2    H3 5001   1.315   1.558   9.346
  317MPD2     N 5002   1.456   1.353   9.728
  317MPD2    H5 5003   1.538   1.358   9.787
  317MPD2    N1 5004   1.744   1.653   9.491
  317MPD2    H7 5005   1.743   1.730   9.426
  318MPD2     C 5006   2.726   2.577   8.475
  318MPD2    C1 5007   2.709   2.695   8.544
  318MPD2    C2 5008   2.690   2.692   8.682
  318MPD2    C3 5009   2.687   2.572   8.750
  318MPD2    C4 5010   2.690   2.455   8.672
  318MPD2    C5 5011   2.714   2.454   8.536
  318MPD2     H 5012   2.682   2.790   8.730
  318MPD2    H1 5013   2.692   2.360   8.725
  318MPD2    H2 5014   2.743   2.587   8.368
  318MPD2    H3 5015   2.715   2.370   8.468
  318MPD2     N 5016   2.647   2.554   8.883
  318MPD2    H5 5017   2.625   2.459   8.913
  318MPD2    N1 5018   2.716   2.814   8.475
  318MPD2    H7 5019   2.744   2.808   8.377
  319MPD2     C 5020   1.875   2.156   9.362
  319MPD2    C1 5021   1.943   2.113   9.254
  319MPD2    C2 5022   2.057   2.178   9.223
  319MPD2    C3 5023   2.105   2.274   9.310
  319MPD2    C4 5024   2.042   2.307   9.425
  319MPD2    C5 5025   1.921   2.248   9.454
  319MPD2     H 5026   2.130   2.153   9.146
  319MPD2    H1 5027   2.081   2.392   9.480
  319MPD2    H2 5028   1.774   2.118   9.373
  319MPD2    H3 5029   1.866   2.274   9.544
  319MPD2     N 5030   2.233   2.340   9.294
  319MPD2    H5 5031   2.262   2.394   9.375
  319MPD2    N1 5032   1.874   2.007   9.198
  319MPD2    H7 5033   1.796   1.973   9.252
  320MPD2     C 5034   2.324   2.877   9.595
  320MPD2    C1 5035   2.414   2.917   9.500
  320MPD2    C2 5036   2.446   3.049   9.478
  320MPD2    C3 5037   2.391   3.146   9.549
  320MPD2    C4 5038   2.297   3.111   9.639
  320MPD2    C5 5039   2.267   2.981   9.667
  320MPD2     H 5040   2.531   3.064   9.412
  320MPD2    H1 5041   2.259   3.193   9.699
  320MPD2    H2 5042   2.284   2.776   9.607
  320MPD2    H3 5043   2.199   2.959   9.748
  320MPD2     N 5044   2.417   3.283   9.534
  320MPD2    H5 5045   2.372   3.349   9.597
  320MPD2    N1 5046   2.481   2.822   9.418
  320MPD2    H7 5047   2.515   2.853   9.328
  321MPD2     C 5048   0.644   0.770  14.002
  321MPD2    C1 5049   0.749   0.855  14.020
  321MPD2    C2 5050   0.809   0.906  13.907
  321MPD2    C3 5051   0.766   0.871  13.776
  321MPD2    C4 5052   0.661   0.787  13.762
  321MPD2    C5 5053   0.608   0.738  13.876
  321MPD2     H 5054   0.890   0.977  13.924
  321MPD2    H1 5055   0.634   0.750  13.663
  321MPD2    H2 5056   0.577   0.761  14.087
  321MPD2    H3 5057   0.528   0.667  13.855
  321MPD2     N 5058   0.829   0.945  13.667
  321MPD2    H5 5059   0.781   0.954  13.578
  321MPD2    N1 5060   0.750   0.919  14.147
  321MPD2    H7 5061   0.674   0.902  14.212
  322MPD2     C 5062   0.881   1.730  14.315
  322MPD2    C1 5063   0.878   1.596  14.311
  322MPD2    C2 5064   0.799   1.532  14.215
  322MPD2    C3 5065   0.715   1.600  14.133
  322MPD2    C4 5066   0.707   1.738  14.144
  322MPD2    C5 5067   0.800   1.801  14.226
  322MPD2     H 5068   0.808   1.425  14.197
  322MPD2    H1 5069   0.642   1.802  14.084
  322MPD2    H2 5070   0.948   1.789  14.375
  322MPD2    H3 5071   0.806   1.909  14.218
  322MPD2     N 5072   0.611   1.532  14.058
  322MPD2    H5 5073   0.538   1.592  14.021
  322MPD2    N1 5074   0.961   1.529  14.401
  322MPD2    H7 5075   1.038   1.589  14.430
  323MPD2     C 5076   2.077   0.232   8.926
  323MPD2    C1 5077   2.159   0.306   8.843
  323MPD2    C2 5078   2.149   0.447   8.842
  323MPD2    C3 5079   2.076   0.513   8.930
  323MPD2    C4 5080   2.002   0.435   9.021
  323MPD2    C5 5081   1.997   0.301   9.011
  323MPD2     H 5082   2.203   0.508   8.770
  323MPD2    H1 5083   1.937   0.481   9.094
  323MPD2    H2 5084   2.076   0.123   8.923
  323MPD2    H3 5085   1.939   0.256   9.090
  323MPD2     N 5086   2.087   0.649   8.916
  323MPD2    H5 5087   2.147   0.682   8.841
  323MPD2    N1 5088   2.242   0.233   8.761
  323MPD2    H7 5089   2.211   0.136   8.761
  324MPD2     C 5090   1.555   1.340   9.064
  324MPD2    C1 5091   1.526   1.222   9.001
  324MPD2    C2 5092   1.400   1.194   8.955
  324MPD2    C3 5093   1.301   1.287   8.981
  324MPD2    C4 5094   1.328   1.407   9.051
  324MPD2    C5 5095   1.459   1.432   9.088
  324MPD2     H 5096   1.380   1.108   8.892
  324MPD2    H1 5097   1.246   1.475   9.073
  324MPD2    H2 5098   1.646   1.358   9.120
  324MPD2    H3 5099   1.486   1.518   9.149
  324MPD2     N 5100   1.165   1.271   8.956
  324MPD2    H5 5101   1.111   1.356   8.966
  324MPD2    N1 5102   1.620   1.122   8.966
  324MPD2    H7 5103   1.587   1.055   8.898
  325MPD2     C 5104   2.607   4.279  12.615
  325MPD2    C1 5105   2.585   4.413  12.591
  325MPD2    C2 5106   2.513   4.483  12.681
  325MPD2    C3 5107   2.457   4.422  12.794
  325MPD2    C4 5108   2.477   4.291  12.821
  325MPD2    C5 5109   2.558   4.218  12.730
  325MPD2     H 5110   2.502   4.589  12.662
  325MPD2    H1 5111   2.433   4.237  12.904
  325MPD2    H2 5112   2.680   4.224  12.555
  325MPD2    H3 5113   2.575   4.112  12.744
  325MPD2     N 5114   2.385   4.498  12.886
  325MPD2    H5 5115   2.320   4.447  12.944
  325MPD2    N1 5116   2.634   4.486  12.485
  325MPD2    H7 5117   2.595   4.579  12.483
  326MPD2     C 5118   3.431   4.474  12.224
  326MPD2    C1 5119   3.335   4.451  12.322
  326MPD2    C2 5120   3.372   4.394  12.446
  326MPD2    C3 5121   3.495   4.332  12.458
  326MPD2    C4 5122   3.587   4.350  12.358
  326MPD2    C5 5123   3.551   4.415  12.239
  326MPD2     H 5124   3.301   4.396  12.528
  326MPD2    H1 5125   3.677   4.290  12.358
  326MPD2    H2 5126   3.402   4.522  12.130
  326MPD2    H3 5127   3.628   4.421  12.163
  326MPD2     N 5128   3.547   4.248  12.564
  326MPD2    H5 5129   3.629   4.190  12.545
  326MPD2    N1 5130   3.198   4.486  12.307
  326MPD2    H7 5131   3.131   4.463  12.379
  327MPD2     C 5132   2.973   0.388  12.079
  327MPD2    C1 5133   2.865   0.323  12.144
  327MPD2    C2 5134   2.747   0.394  12.161
  327MPD2    C3 5135   2.736   0.522  12.118
  327MPD2    C4 5136   2.842   0.589  12.057
  327MPD2    C5 5137   2.960   0.515  12.032
  327MPD2     H 5138   2.666   0.339  12.207
  327MPD2    H1 5139   2.830   0.689  12.018
  327MPD2    H2 5140   3.060   0.336  12.040
  327MPD2    H3 5141   3.044   0.557  11.977
  327MPD2     N 5142   2.599   0.572  12.147
  327MPD2    H5 5143   2.534   0.504  12.184
  327MPD2    N1 5144   2.885   0.191  12.184
  327MPD2    H7 5145   2.981   0.161  12.175
  328MPD2     C 5146   2.449   2.136   6.941
  328MPD2    C1 5147   2.369   2.122   7.047
  328MPD2    C2 5148   2.260   2.217   7.065
  328MPD2    C3 5149   2.249   2.317   6.970
  328MPD2    C4 5150   2.325   2.314   6.853
  328MPD2    C5 5151   2.416   2.215   6.839
  328MPD2     H 5152   2.189   2.222   7.147
  328MPD2    H1 5153   2.308   2.387   6.774
  328MPD2    H2 5154   2.534   2.072   6.921
  328MPD2    H3 5155   2.475   2.219   6.748
  328MPD2     N 5156   2.150   2.415   6.993
  328MPD2    H5 5157   2.102   2.401   7.081
  328MPD2    N1 5158   2.406   2.018   7.137
  328MPD2    H7 5159   2.490   1.967   7.112
  329MPD2     C 5160   2.670   1.214   6.961
  329MPD2    C1 5161   2.557   1.215   7.041
  329MPD2    C2 5162   2.545   1.319   7.142
  329MPD2    C3 5163   2.636   1.420   7.159
  329MPD2    C4 5164   2.746   1.416   7.076
  329MPD2    C5 5165   2.762   1.313   6.983
  329MPD2     H 5166   2.457   1.321   7.205
  329MPD2    H1 5167   2.827   1.487   7.078
  329MPD2    H2 5168   2.675   1.147   6.876
  329MPD2    H3 5169   2.856   1.321   6.929
  329MPD2     N 5170   2.602   1.514   7.259
  329MPD2    H5 5171   2.517   1.487   7.307
  329MPD2    N1 5172   2.458   1.122   7.032
  329MPD2    H7 5173   2.382   1.141   7.096
  330MPD2     C 5174   1.232   2.480   7.986
  330MPD2    C1 5175   1.098   2.465   8.031
  330MPD2    C2 5176   1.046   2.561   8.115
  330MPD2    C3 5177   1.132   2.652   8.185
  330MPD2    C4 5178   1.262   2.658   8.135
  330MPD2    C5 5179   1.306   2.578   8.039
  330MPD2     H 5180   0.941   2.546   8.139
  330MPD2    H1 5181   1.321   2.735   8.182
  330MPD2    H2 5182   1.273   2.426   7.901
  330MPD2    H3 5183   1.411   2.585   8.012
  330MPD2     N 5184   1.083   2.726   8.295
  330MPD2    H5 5185   1.145   2.800   8.328
  330MPD2    N1 5186   1.007   2.373   7.963
  330MPD2    H7 5187   0.909   2.367   7.992
  331MPD2     C 5188   0.932   1.803   7.301
  331MPD2    C1 5189   0.820   1.816   7.381
  331MPD2    C2 5190   0.720   1.725   7.357
  331MPD2    C3 5191   0.723   1.625   7.266
  331MPD2    C4 5192   0.836   1.616   7.187
  331MPD2    C5 5193   0.943   1.700   7.213
  331MPD2     H 5194   0.633   1.727   7.422
  331MPD2    H1 5195   0.856   1.532   7.122
  331MPD2    H2 5196   1.022   1.861   7.317
  331MPD2    H3 5197   1.030   1.693   7.148
  331MPD2     N 5198   0.626   1.524   7.253
  331MPD2    H5 5199   0.664   1.450   7.196
  331MPD2    N1 5200   0.814   1.906   7.488
  331MPD2    H7 5201   0.722   1.912   7.530
  332MPD2     C 5202   3.771   3.186  11.872
  332MPD2    C1 5203   3.739   3.054  11.846
  332MPD2    C2 5204   3.840   2.957  11.854
  332MPD2    C3 5205   3.953   2.984  11.920
  332MPD2    C4 5206   3.983   3.118  11.940
  332MPD2    C5 5207   3.893   3.220  11.929
  332MPD2     H 5208   3.820   2.853  11.828
  332MPD2    H1 5209   4.079   3.152  11.979
  332MPD2    H2 5210   3.694   3.259  11.850
  332MPD2    H3 5211   3.922   3.322  11.948
  332MPD2     N 5212   4.038   2.879  11.942
  332MPD2    H5 5213   4.021   2.783  11.911
  332MPD2    N1 5214   3.606   3.024  11.827
  332MPD2    H7 5215   3.536   3.096  11.812
  333MPD2     C 5216   3.248   2.300  11.730
  333MPD2    C1 5217   3.334   2.380  11.799
  333MPD2    C2 5218   3.453   2.332  11.834
  333MPD2    C3 5219   3.496   2.207  11.791
  333MPD2    C4 5220   3.406   2.123  11.725
  333MPD2    C5 5221   3.279   2.167  11.699
  333MPD2     H 5222   3.520   2.393  11.894
  333MPD2    H1 5223   3.417   2.025  11.681
  333MPD2    H2 5224   3.145   2.328  11.710
  333MPD2    H3 5225   3.211   2.115  11.633
  333MPD2     N 5226   3.634   2.181  11.810
  333MPD2    H5 5227   3.690   2.254  11.855
  333MPD2    N1 5228   3.300   2.508  11.846
  333MPD2    H7 5229   3.363   2.556  11.909
  334MPD2     C 5230   2.887   3.258  11.228
  334MPD2    C1 5231   2.971   3.317  11.325
  334MPD2    C2 5232   3.026   3.233  11.418
  334MPD2    C3 5233   3.008   3.093  11.411
  334MPD2    C4 5234   2.922   3.041  11.319
  334MPD2    C5 5235   2.866   3.128  11.226
  334MPD2     H 5236   3.103   3.278  11.478
  334MPD2    H1 5237   2.901   2.935  11.322
  334MPD2    H2 5238   2.837   3.316  11.152
  334MPD2    H3 5239   2.808   3.091  11.142
  334MPD2     N 5240   3.075   2.997  11.493
  334MPD2    H5 5241   3.037   2.903  11.496
  334MPD2    N1 5242   2.976   3.458  11.340
  334MPD2    H7 5243   2.970   3.508  11.251
  335MPD2     C 5244   0.234   0.306   9.717
  335MPD2    C1 5245   0.175   0.189   9.676
  335MPD2    C2 5246   0.090   0.115   9.764
  335MPD2    C3 5247   0.089   0.149   9.896
  335MPD2    C4 5248   0.165   0.255   9.938
  335MPD2    C5 5249   0.226   0.339   9.849
  335MPD2     H 5250   0.047   0.024   9.725
  335MPD2    H1 5251   0.156   0.292  10.040
  335MPD2    H2 5252   0.281   0.373   9.646
  335MPD2    H3 5253   0.277   0.427   9.887
  335MPD2     N 5254   0.040   0.062   9.988
  335MPD2    H5 5255   0.099   0.059  10.070
  335MPD2    N1 5256   0.215   0.137   9.550
  335MPD2    H7 5257   0.287   0.188   9.501
  336MPD2     C 5258   0.478   4.279   9.572
  336MPD2    C1 5259   0.440   4.409   9.599
  336MPD2    C2 5260   0.506   4.523   9.548
  336MPD2    C3 5261   0.624   4.504   9.470
  336MPD2    C4 5262   0.662   4.370   9.446
  336MPD2    C5 5263   0.589   4.263   9.494
  336MPD2     H 5264   0.477   4.623   9.580
  336MPD2    H1 5265   0.751   4.350   9.389
  336MPD2    H2 5266   0.423   4.201   9.623
  336MPD2    H3 5267   0.622   4.161   9.477
  336MPD2     N 5268   0.703   4.610   9.415
  336MPD2    H5 5269   0.787   4.589   9.362
  336MPD2    N1 5270   0.337   4.419   9.694
  336MPD2    H7 5271   0.297   4.329   9.722
  337MPD2     C 5272   4.325   4.120   9.570
  337MPD2    C1 5273   4.340   4.106   9.704
  337MPD2    C2 5274   4.449   4.165   9.766
  337MPD2    C3 5275   4.549   4.224   9.691
  337MPD2    C4 5276   4.537   4.231   9.550
  337MPD2    C5 5277   4.423   4.178   9.492
  337MPD2     H 5278   4.456   4.152   9.874
  337MPD2    H1 5279   4.611   4.274   9.484
  337MPD2    H2 5280   4.247   4.080   9.506
  337MPD2    H3 5281   4.405   4.179   9.385
  337MPD2     N 5282   4.666   4.285   9.752
  337MPD2    H5 5283   4.731   4.332   9.689
  337MPD2    N1 5284   4.234   4.058   9.794
  337MPD2    H7 5285   4.253   4.068   9.893
  338MPD2     C 5286   4.373   4.458  11.934
  338MPD2    C1 5287   4.392   4.448  12.067
  338MPD2    C2 5288   4.293   4.498  12.149
  338MPD2    C3 5289   4.205   4.589  12.105
  338MPD2    C4 5290   4.187   4.597  11.969
  338MPD2    C5 5291   4.274   4.529  11.887
  338MPD2     H 5292   4.306   4.481  12.255
  338MPD2    H1 5293   4.108   4.662  11.932
  338MPD2    H2 5294   4.443   4.414  11.863
  338MPD2    H3 5295   4.264   4.537  11.779
  338MPD2     N 5296   4.121   4.652  12.197
  338MPD2    H5 5297   4.142   4.633  12.295
  338MPD2    N1 5298   4.499   4.384  12.121
  338MPD2    H7 5299   4.501   4.370  12.221
  339MPD2     C 5300   4.110   4.787  13.002
  339MPD2    C1 5301   4.114   4.715  12.885
  339MPD2    C2 5302   4.153   4.581  12.896
  339MPD2    C3 5303   4.174   4.518  13.020
  339MPD2    C4 5304   4.162   4.595  13.132
  339MPD2    C5 5305   4.122   4.728  13.129
  339MPD2     H 5306   4.177   4.533  12.802
  339MPD2    H1 5307   4.165   4.541  13.225
  339MPD2    H2 5308   4.098   0.104  13.002
  339MPD2    H3 5309   4.125   4.784  13.222
  339MPD2     N 5310   4.214   4.385  13.042
  339MPD2    H5 5311   4.225   4.349  13.136
  339MPD2    N1 5312   4.103   4.782  12.760
  339MPD2    H7 5313   4.106   0.092  12.757
  340MPD2     C 5314   4.737   0.445  12.197
  340MPD2    C1 5315   4.632   0.506  12.133
  340MPD2    C2 5316   4.502   0.475  12.169
  340MPD2    C3 5317   4.474   0.389  12.274
  340MPD2    C4 5318   4.585   0.335  12.335
  340MPD2    C5 5319   4.712   0.372  12.312
  340MPD2     H 5320   4.421   0.536  12.130
  340MPD2    H1 5321   4.585   0.273  12.425
  340MPD2    H2 5322   0.048   0.457  12.162
  340MPD2    H3 5323   0.001   0.349  12.381
  340MPD2     N 5324   4.340   0.370  12.312
  340MPD2    H5 5325   4.272   0.399  12.243
  340MPD2    N1 5326   4.653   0.600  12.037
  340MPD2    H7 5327   4.577   0.645  11.986
  341MPD2     C 5328   0.336   3.816  12.073
  341MPD2    C1 5329   0.195   3.825  12.068
  341MPD2    C2 5330   0.120   3.710  12.033
  341MPD2    C3 5331   0.180   3.592  11.995
  341MPD2    C4 5332   0.320   3.589  12.003
  341MPD2    C5 5333   0.397   3.701  12.038
  341MPD2     H 5334   0.012   3.720  12.033
  341MPD2    H1 5335   0.371   3.503  11.962
  341MPD2    H2 5336   0.399   3.894  12.112
  341MPD2    H3 5337   0.505   3.695  12.041
  341MPD2     N 5338   0.095   3.488  11.943
  341MPD2    H5 5339   4.788   3.516  11.946
  341MPD2    N1 5340   0.128   3.944  12.106
  341MPD2    H7 5341   0.030   3.954  12.082
  342MPD2     C 5342   0.797   3.746  11.704
  342MPD2    C1 5343   0.663   3.761  11.664
  342MPD2    C2 5344   0.610   3.886  11.640
  342MPD2    C3 5345   0.697   3.988  11.659
  342MPD2    C4 5346   0.823   3.971  11.690
  342MPD2    C5 5347   0.873   3.853  11.709
  342MPD2     H 5348   0.505   3.891  11.615
  342MPD2    H1 5349   0.890   4.055  11.674
  342MPD2    H2 5350   0.842   3.647  11.714
  342MPD2    H3 5351   0.977   3.850  11.741
  342MPD2     N 5352   0.655   4.121  11.630
  342MPD2    H5 5353   0.722   4.196  11.641
  342MPD2    N1 5354   0.580   3.646  11.675
  342MPD2    H7 5355   0.637   3.564  11.691
  343MPD2     C 5356   0.201   4.178  10.944
  343MPD2    C1 5357   0.214   4.070  10.857
  343MPD2    C2 5358   0.101   4.016  10.790
  343MPD2    C3 5359   4.774   4.081  10.806
  343MPD2    C4 5360   4.764   4.172  10.907
  343MPD2    C5 5361   0.076   4.225  10.979
  343MPD2     H 5362   0.111   3.935  10.719
  343MPD2    H1 5363   4.662   4.206  10.920
  343MPD2    H2 5364   0.285   4.222  10.997
  343MPD2    H3 5365   0.063   4.308  11.047
  343MPD2     N 5366   4.660   4.059  10.722
  343MPD2    H5 5367   4.582   4.113  10.756
  343MPD2    N1 5368   0.337   4.023  10.819
  343MPD2    H7 5369   0.420   4.081  10.831
  344MPD2     C 5370   0.497   4.570  10.101
  344MPD2    C1 5371   0.501   4.448  10.044
  344MPD2    C2 5372   0.424   4.342  10.092
  344MPD2    C3 5373   0.345   4.356  10.205
  344MPD2    C4 5374   0.351   4.476  10.264
  344MPD2    C5 5375   0.420   4.583  10.212
  344MPD2     H 5376   0.411   4.257  10.027
  344MPD2    H1 5377   0.297   4.492  10.356
  344MPD2    H2 5378   0.576   4.642  10.084
  344MPD2    H3 5379   0.422   4.681  10.258
  344MPD2     N 5380   0.261   4.253  10.261
  344MPD2    H5 5381   0.251   4.168  10.207
  344MPD2    N1 5382   0.591   4.420   9.942
  344MPD2    H7 5383   0.605   4.323   9.915
  345MPD2     C 5384   0.428   3.326  10.552
  345MPD2    C1 5385   0.494   3.432  10.485
  345MPD2    C2 5386   0.428   3.547  10.463
  345MPD2    C3 5387   0.300   3.564  10.512
  345MPD2    C4 5388   0.240   3.463  10.578
  345MPD2    C5 5389   0.300   3.346  10.601
  345MPD2     H 5390   0.480   3.624  10.406
  345MPD2    H1 5391   0.142   3.466  10.623
  345MPD2    H2 5392   0.469   3.227  10.569
  345MPD2    H3 5393   0.244   3.263  10.643
  345MPD2     N 5394   0.227   3.677  10.485
  345MPD2    H5 5395   0.129   3.671  10.512
  345MPD2    N1 5396   0.622   3.404  10.431
  345MPD2    H7 5397   0.651   3.307  10.442
  346MPD2     C 5398   1.840   0.361   6.692
  346MPD2    C1 5399   1.752   0.420   6.778
  346MPD2    C2 5400   1.635   0.358   6.802
  346MPD2    C3 5401   1.606   0.232   6.748
  346MPD2    C4 5402   1.701   0.172   6.665
  346MPD2    C5 5403   1.816   0.239   6.631
  346MPD2     H 5404   1.556   0.398   6.864
  346MPD2    H1 5405   1.696   0.077   6.612
  346MPD2    H2 5406   1.932   0.414   6.672
  346MPD2    H3 5407   1.893   0.193   6.570
  346MPD2     N 5408   1.490   0.167   6.801
  346MPD2    H5 5409   1.435   0.219   6.868
  346MPD2    N1 5410   1.794   0.540   6.844
  346MPD2    H7 5411   1.890   0.571   6.830
  347MPD2     C 5412   1.557   4.646  12.327
  347MPD2    C1 5413   1.545   4.768  12.389
  347MPD2    C2 5414   1.652   0.066  12.381
  347MPD2    C3 5415   1.772   0.032  12.321
  347MPD2    C4 5416   1.778   4.696  12.263
  347MPD2    C5 5417   1.674   4.612  12.262
  347MPD2     H 5418   1.656   0.155  12.443
  347MPD2    H1 5419   1.860   4.663  12.200
  347MPD2    H2 5420   1.482   4.569  12.336
  347MPD2    H3 5421   1.683   4.515  12.214
  347MPD2     N 5422   1.873   0.121  12.336
  347MPD2    H5 5423   1.846   0.211  12.376
  347MPD2    N1 5424   1.425   0.006  12.456
  347MPD2    H7 5425   1.342   4.741  12.436
  348MPD2     C 5426   0.755   0.479  13.141
  348MPD2    C1 5427   0.770   0.495  13.003
  348MPD2    C2 5428   0.885   0.454  12.939
  348MPD2    C3 5429   0.976   0.386  13.008
  348MPD2    C4 5430   0.952   0.350  13.142
  348MPD2    C5 5431   0.839   0.386  13.201
  348MPD2     H 5432   0.907   0.479  12.836
  348MPD2    H1 5433   1.021   0.285  13.195
  348MPD2    H2 5434   0.674   0.509  13.207
  348MPD2    H3 5435   0.828   0.353  13.304
  348MPD2     N 5436   1.101   0.336  12.953
  348MPD2    H5 5437   1.152   0.272  13.013
  348MPD2    N1 5438   0.669   0.552  12.919
  348MPD2    H7 5439   0.697   0.566  12.822
  349MPD2     C 5440   1.091   0.652  12.137
  349MPD2    C1 5441   1.068   0.643  12.271
  349MPD2    C2 5442   1.057   0.521  12.324
  349MPD2    C3 5443   1.064   0.402  12.253
  349MPD2    C4 5444   1.105   0.413  12.123
  349MPD2    C5 5445   1.112   0.539  12.068
  349MPD2     H 5446   1.038   0.511  12.430
  349MPD2    H1 5447   1.129   0.331  12.056
  349MPD2    H2 5448   1.102   0.746  12.086
  349MPD2    H3 5449   1.126   0.547  11.961
  349MPD2     N 5450   1.062   0.280  12.316
  349MPD2    H5 5451   1.093   0.193  12.273
  349MPD2    N1 5452   1.059   0.757  12.355
  349MPD2    H7 5453   1.044   0.740  12.454
  350MPD2     C 5454   4.011   4.577   9.591
  350MPD2    C1 5455   4.095   4.498   9.506
  350MPD2    C2 5456   4.215   4.549   9.458
  350MPD2    C3 5457   4.248   4.679   9.486
  350MPD2    C4 5458   4.153   4.758   9.558
  350MPD2    C5 5459   4.033   4.707   9.608
  350MPD2     H 5460   4.277   4.485   9.396
  350MPD2    H1 5461   4.172   0.072   9.575
  350MPD2    H2 5462   3.934   4.533   9.652
  350MPD2    H3 5463   3.964   4.762   9.672
  350MPD2     N 5464   4.361   4.747   9.439
  350MPD2    H5 5465   4.362   0.057   9.443
  350MPD2    N1 5466   4.048   4.374   9.471
  350MPD2    H7 5467   3.963   4.338   9.514
  351MPD2     C 5468   0.124   0.185   9.077
  351MPD2    C1 5469   0.141   0.093   8.976
  351MPD2    C2 5470   0.206   0.129   8.866
  351MPD2    C3 5471   0.267   0.253   8.851
  351MPD2    C4 5472   0.249   0.343   8.954
  351MPD2    C5 5473   0.174   0.311   9.063
  351MPD2     H 5474   0.206   0.050   8.791
  351MPD2    H1 5475   0.288   0.444   8.940
  351MPD2    H2 5476   0.082   0.160   9.173
  351MPD2    H3 5477   0.155   0.384   9.141
  351MPD2     N 5478   0.323   0.297   8.729
  351MPD2    H5 5479   0.336   0.397   8.730
  351MPD2    N1 5480   0.107   4.750   8.994
  351MPD2    H7 5481   0.153   4.684   8.931
  352MPD2     C 5482   4.232   0.315   8.556
  352MPD2    C1 5483   4.221   0.380   8.674
  352MPD2    C2 5484   4.291   0.319   8.777
  352MPD2    C3 5485   4.363   0.192   8.766
  352MPD2    C4 5486   4.387   0.150   8.637
  352MPD2    C5 5487   4.328   0.213   8.531
  352MPD2     H 5488   4.286   0.371   8.872
  352MPD2    H1 5489   4.454   0.066   8.622
  352MPD2    H2 5490   4.175   0.366   8.479
  352MPD2    H3 5491   4.328   0.169   8.432
  352MPD2     N 5492   4.439   0.134   8.870
  352MPD2    H5 5493   4.514   0.069   8.847
  352MPD2    N1 5494   4.136   0.490   8.681
  352MPD2    H7 5495   4.088   0.523   8.598
  353MPD2     C 5496   4.778   2.719  11.904
  353MPD2    C1 5497   4.641   2.713  11.889
  353MPD2    C2 5498   4.577   2.835  11.874
  353MPD2    C3 5499   4.641   2.956  11.902
  353MPD2    C4 5500   4.780   2.952  11.931
  353MPD2    C5 5501   0.058   2.833  11.925
  353MPD2     H 5502   4.471   2.829  11.853
  353MPD2    H1 5503   0.047   3.038  11.964
  353MPD2    H2 5504   0.048   2.629  11.903
  353MPD2    H3 5505   0.165   2.831  11.942
  353MPD2     N 5506   4.584   3.087  11.886
  353MPD2    H5 5507   4.644   3.167  11.906
  353MPD2    N1 5508   4.580   2.587  11.854
  353MPD2    H7 5509   4.639   2.512  11.819
  354MPD2     C 5510   3.909   4.157  12.996
  354MPD2    C1 5511   3.897   4.244  12.888
  354MPD2    C2 5512   3.856   4.374  12.909
  354MPD2    C3 5513   3.832   4.428  13.030
  354MPD2    C4 5514   3.848   4.343  13.135
  354MPD2    C5 5515   3.881   4.213  13.117
  354MPD2     H 5516   3.842   4.438  12.822
  354MPD2    H1 5517   3.834   4.375  13.238
  354MPD2    H2 5518   3.926   4.051  12.987
  354MPD2    H3 5519   3.887   4.157  13.210
  354MPD2     N 5520   3.804   4.565  13.035
  354MPD2    H5 5521   3.796   4.614  12.947
  354MPD2    N1 5522   3.957   4.211  12.764
  354MPD2    H7 5523   3.948   4.285  12.694
  355MPD2     C 5524   4.565   0.011  12.582
  355MPD2    C1 5525   4.549   4.746  12.459
  355MPD2    C2 5526   4.469   4.629  12.455
  355MPD2    C3 5527   4.410   4.577  12.565
  355MPD2    C4 5528   4.432   4.637  12.686
  355MPD2    C5 5529   4.505   4.746  12.691
  355MPD2     H 5530   4.472   4.567  12.366
  355MPD2    H1 5531   4.394   4.597  12.779
  355MPD2    H2 5532   4.624   0.101  12.593
  355MPD2    H3 5533   4.518   0.003  12.787
  355MPD2     N 5534   4.340   4.455  12.568
  355MPD2    H5 5535   4.291   4.434  12.654
  355MPD2    N1 5536   4.615   0.001  12.350
  355MPD2    H7 5537   4.692   0.066  12.366
  356MPD2     C 5538   3.145   0.730  13.169
  356MPD2    C1 5539   3.111   0.858  13.166
  356MPD2    C2 5540   3.037   0.903  13.058
  356MPD2    C3 5541   2.989   0.810  12.961
  356MPD2    C4 5542   3.027   0.685  12.973
  356MPD2    C5 5543   3.117   0.650  13.062
  356MPD2     H 5544   2.999   1.005  13.052
  356MPD2    H1 5545   2.987   0.598  12.921
  356MPD2    H2 5546   3.208   0.689  13.247
  356MPD2    H3 5547   3.140   0.544  13.068
  356MPD2     N 5548   2.890   0.833  12.861
  356MPD2    H5 5549   2.881   0.753  12.799
  356MPD2    N1 5550   3.141   0.930  13.283
  356MPD2    H7 5551   3.212   0.889  13.343
  357MPD2     C 5552   3.590   1.825  13.648
  357MPD2    C1 5553   3.493   1.809  13.549
  357MPD2    C2 5554   3.422   1.692  13.551
  357MPD2    C3 5555   3.447   1.591  13.644
  357MPD2    C4 5556   3.537   1.612  13.746
  357MPD2    C5 5557   3.616   1.722  13.733
  357MPD2     H 5558   3.348   1.682  13.472
  357MPD2    H1 5559   3.555   1.538  13.822
  357MPD2    H2 5560   3.654   1.912  13.653
  357MPD2    H3 5561   3.699   1.741  13.802
  357MPD2     N 5562   3.376   1.467  13.648
  357MPD2    H5 5563   3.410   1.392  13.707
  357MPD2    N1 5564   3.457   1.905  13.452
  357MPD2    H7 5565   3.378   1.883  13.392
  358MPD2     C 5566   1.224   2.549   8.994
  358MPD2    C1 5567   1.144   2.641   9.056
  358MPD2    C2 5568   1.172   2.686   9.179
  358MPD2    C3 5569   1.279   2.634   9.243
  358MPD2    C4 5570   1.366   2.547   9.183
  358MPD2    C5 5571   1.336   2.505   9.058
  358MPD2     H 5572   1.101   2.752   9.229
  358MPD2    H1 5573   1.453   2.505   9.233
  358MPD2    H2 5574   1.217   2.515   8.891
  358MPD2    H3 5575   1.410   2.442   9.009
  358MPD2     N 5576   1.301   2.652   9.384
  358MPD2    H5 5577   1.395   2.634   9.418
  358MPD2    N1 5578   1.033   2.679   8.988
  358MPD2    H7 5579   1.019   2.625   8.903
  359MPD2     C 5580   0.377   2.655   9.414
  359MPD2    C1 5581   0.501   2.708   9.395
  359MPD2    C2 5582   0.514   2.813   9.302
  359MPD2    C3 5583   0.408   2.866   9.239
  359MPD2    C4 5584   0.284   2.831   9.288
  359MPD2    C5 5585   0.267   2.722   9.366
  359MPD2     H 5586   0.609   2.856   9.270
  359MPD2    H1 5587   0.195   2.885   9.258
  359MPD2    H2 5588   0.361   2.579   9.490
  359MPD2    H3 5589   0.169   2.703   9.408
  359MPD2     N 5590   0.422   2.968   9.139
  359MPD2    H5 5591   0.364   3.049   9.157
  359MPD2    N1 5592   0.610   2.654   9.465
  359MPD2    H7 5593   0.594   2.583   9.536
  360MPD2     C 5594   0.787   2.156   8.880
  360MPD2    C1 5595   0.888   2.246   8.866
  360MPD2    C2 5596   0.937   2.305   8.983
  360MPD2    C3 5597   0.906   2.264   9.108
  360MPD2    C4 5598   0.817   2.155   9.121
  360MPD2    C5 5599   0.763   2.105   9.006
  360MPD2     H 5600   1.016   2.378   8.970
  360MPD2    H1 5601   0.782   2.114   9.215
  360MPD2    H2 5602   0.740   2.107   8.795
  360MPD2    H3 5603   0.690   2.025   9.015
  360MPD2     N 5604   0.962   2.324   9.223
  360MPD2    H5 5605   1.025   2.401   9.203
  360MPD2    N1 5606   0.931   2.284   8.737
  360MPD2    H7 5607   0.893   2.226   8.663
  361MPD2     C 5608   0.294   0.782   8.120
  361MPD2    C1 5609   0.281   0.701   8.233
  361MPD2    C2 5610   0.398   0.646   8.287
  361MPD2    C3 5611   0.524   0.673   8.235
  361MPD2    C4 5612   0.529   0.756   8.120
  361MPD2    C5 5613   0.417   0.800   8.064
  361MPD2     H 5614   0.385   0.589   8.378
  361MPD2    H1 5615   0.626   0.782   8.079
  361MPD2    H2 5616   0.210   0.841   8.086
  361MPD2    H3 5617   0.419   0.870   7.981
  361MPD2     N 5618   0.643   0.620   8.295
  361MPD2    H5 5619   0.733   0.642   8.253
  361MPD2    N1 5620   0.157   0.662   8.284
  361MPD2    H7 5621   0.151   0.581   8.345
  362MPD2     C 5622   0.782   4.725   8.300
  362MPD2    C1 5623   0.852   4.751   8.417
  362MPD2    C2 5624   0.867   4.642   8.507
  362MPD2    C3 5625   0.808   4.516   8.483
  362MPD2    C4 5626   0.744   4.498   8.366
  362MPD2    C5 5627   0.732   4.602   8.281
  362MPD2     H 5628   0.907   4.669   8.604
  362MPD2    H1 5629   0.691   4.409   8.336
  362MPD2    H2 5630   0.766   0.010   8.224
  362MPD2    H3 5631   0.672   4.586   8.192
  362MPD2     N 5632   0.817   4.397   8.562
  362MPD2    H5 5633   0.772   4.316   8.520
  362MPD2    N1 5634   0.909   0.092   8.436
  362MPD2    H7 5635   0.980   0.089   8.508
  363MPD2     C 5636   0.786   0.548   9.116
  363MPD2    C1 5637   0.741   0.470   9.013
  363MPD2    C2 5638   0.653   0.361   9.044
  363MPD2    C3 5639   0.610   0.349   9.180
  363MPD2    C4 5640   0.658   0.438   9.276
  363MPD2    C5 5641   0.747   0.536   9.246
  363MPD2     H 5642   0.613   0.309   8.958
  363MPD2    H1 5643   0.632   0.434   9.381
  363MPD2    H2 5644   0.860   0.621   9.087
  363MPD2    H3 5645   0.776   0.602   9.327
  363MPD2     N 5646   0.523   0.246   9.226
  363MPD2    H5 5647   0.496   0.238   9.324
  363MPD2    N1 5648   0.788   0.492   8.881
  363MPD2    H7 5649   0.835   0.580   8.860
  364MPD2     C 5650   2.602   0.801   7.219
  364MPD2    C1 5651   2.689   0.739   7.305
  364MPD2    C2 5652   2.746   0.623   7.269
  364MPD2    C3 5653   2.728   0.564   7.148
  364MPD2    C4 5654   2.645   0.633   7.056
  364MPD2    C5 5655   2.585   0.745   7.095
  364MPD2     H 5656   2.823   0.586   7.336
  364MPD2    H1 5657   2.619   0.591   6.959
  364MPD2    H2 5658   2.555   0.894   7.247
  364MPD2    H3 5659   2.519   0.790   7.021
  364MPD2     N 5660   2.793   0.439   7.124
  364MPD2    H5 5661   2.842   0.386   7.194
  364MPD2    N1 5662   2.732   0.796   7.426
  364MPD2    H7 5663   2.803   0.744   7.477
  365MPD2     C 5664   3.255   0.476   7.620
  365MPD2    C1 5665   3.119   0.498   7.593
  365MPD2    C2 5666   3.059   0.408   7.504
  365MPD2    C3 5667   3.134   0.304   7.451
  365MPD2    C4 5668   3.266   0.275   7.488
  365MPD2    C5 5669   3.321   0.363   7.582
  365MPD2     H 5670   2.955   0.412   7.473
  365MPD2    H1 5671   3.311   0.182   7.456
  365MPD2    H2 5672   3.304   0.549   7.684
  365MPD2    H3 5673   3.416   0.335   7.625
  365MPD2     N 5674   3.076   0.246   7.338
  365MPD2    H5 5675   2.987   0.282   7.306
  365MPD2    N1 5676   3.044   0.615   7.628
  365MPD2    H7 5677   2.948   0.612   7.594
  366MPD2     C 5678   1.834   2.886   8.743
  366MPD2    C1 5679   1.959   2.910   8.704
  366MPD2    C2 5680   2.056   2.906   8.802
  366MPD2    C3 5681   2.032   2.861   8.926
  366MPD2    C4 5682   1.906   2.829   8.966
  366MPD2    C5 5683   1.813   2.852   8.875
  366MPD2     H 5684   2.158   2.933   8.778
  366MPD2    H1 5685   1.875   2.783   9.060
  366MPD2    H2 5686   1.744   2.881   8.683
  366MPD2    H3 5687   1.716   2.820   8.913
  366MPD2     N 5688   2.138   2.866   9.013
  366MPD2    H5 5689   2.223   2.917   8.990
  366MPD2    N1 5690   1.993   2.939   8.571
  366MPD2    H7 5691   2.092   2.951   8.553
  367MPD2     C 5692   1.991   3.457   8.087
  367MPD2    C1 5693   1.965   3.348   8.006
  367MPD2    C2 5694   1.957   3.367   7.867
  367MPD2    C3 5695   2.009   3.489   7.813
  367MPD2    C4 5696   2.069   3.582   7.893
  367MPD2    C5 5697   2.046   3.572   8.027
  367MPD2     H 5698   1.930   3.290   7.796
  367MPD2    H1 5699   2.120   3.672   7.861
  367MPD2    H2 5700   1.993   3.445   8.195
  367MPD2    H3 5701   2.072   3.650   8.097
  367MPD2     N 5702   2.013   3.505   7.675
  367MPD2    H5 5703   2.079   3.572   7.637
  367MPD2    N1 5704   1.951   3.222   8.068
  367MPD2    H7 5705   1.959   3.207   8.168
  368MPD2     C 5706   1.872   2.478   8.538
  368MPD2    C1 5707   1.991   2.407   8.529
  368MPD2    C2 5708   2.075   2.437   8.421
  368MPD2    C3 5709   2.036   2.530   8.328
  368MPD2    C4 5710   1.908   2.583   8.332
  368MPD2    C5 5711   1.830   2.571   8.443
  368MPD2     H 5712   2.166   2.384   8.399
  368MPD2    H1 5713   1.871   2.652   8.257
  368MPD2    H2 5714   1.805   2.467   8.623
  368MPD2    H3 5715   1.750   2.643   8.456
  368MPD2     N 5716   2.128   2.562   8.222
  368MPD2    H5 5717   2.202   2.494   8.211
  368MPD2    N1 5718   2.036   2.314   8.621
  368MPD2    H7 5719   2.137   2.305   8.621
  369MPD2     C 5720   1.893   0.130   7.097
  369MPD2    C1 5721   1.956   0.213   7.179
  369MPD2    C2 5722   2.048   0.166   7.274
  369MPD2    C3 5723   2.067   0.031   7.291
  369MPD2    C4 5724   1.997   4.737   7.203
  369MPD2    C5 5725   1.908   4.784   7.105
  369MPD2     H 5726   2.101   0.243   7.330
  369MPD2    H1 5727   2.015   4.630   7.202
  369MPD2    H2 5728   1.817   0.168   7.029
  369MPD2    H3 5729   1.859   4.724   7.028
  369MPD2     N 5730   2.168   4.759   7.372
  369MPD2    H5 5731   2.194   4.665   7.344
  369MPD2    N1 5732   1.926   0.350   7.164
  369MPD2    H7 5733   1.889   0.384   7.076
  370MPD2     C 5734   1.352   0.788   7.759
  370MPD2    C1 5735   1.378   0.662   7.726
  370MPD2    C2 5736   1.483   0.636   7.638
  370MPD2    C3 5737   1.533   0.744   7.570
  370MPD2    C4 5738   1.507   0.877   7.602
  370MPD2    C5 5739   1.413   0.896   7.704
  370MPD2     H 5740   1.515   0.535   7.617
  370MPD2    H1 5741   1.550   0.961   7.550
  370MPD2    H2 5742   1.269   0.817   7.822
  370MPD2    H3 5743   1.382   0.995   7.734
  370MPD2     N 5744   1.623   0.717   7.465
  370MPD2    H5 5745   1.660   0.623   7.469
  370MPD2    N1 5746   1.285   0.559   7.772
  370MPD2    H7 5747   1.211   0.598   7.829
  371MPD2     C 5748   0.605   3.225   8.190
  371MPD2    C1 5749   0.672   3.134   8.108
  371MPD2    C2 5750   0.805   3.152   8.084
  371MPD2    C3 5751   0.858   3.281   8.111
  371MPD2    C4 5752   0.789   3.369   8.189
  371MPD2    C5 5753   0.662   3.336   8.231
  371MPD2     H 5754   0.861   3.078   8.027
  371MPD2    H1 5755   0.834   3.458   8.233
  371MPD2    H2 5756   0.506   3.195   8.222
  371MPD2    H3 5757   0.613   3.401   8.302
  371MPD2     N 5758   0.987   3.323   8.062
  371MPD2    H5 5759   1.021   3.393   8.128
  371MPD2    N1 5760   0.610   3.016   8.059
  371MPD2    H7 5761   0.667   2.955   8.001
  372MPD2     C 5762   0.442   2.953   7.673
  372MPD2    C1 5763   0.473   3.088   7.673
  372MPD2    C2 5764   0.374   3.182   7.657
  372MPD2    C3 5765   0.243   3.140   7.656
  372MPD2    C4 5766   0.217   3.006   7.661
  372MPD2    C5 5767   0.314   2.909   7.667
  372MPD2     H 5768   0.412   3.281   7.637
  372MPD2    H1 5769   0.116   2.968   7.660
  372MPD2    H2 5770   0.516   2.875   7.671
  372MPD2    H3 5771   0.298   2.802   7.657
  372MPD2     N 5772   0.137   3.229   7.642
  372MPD2    H5 5773   0.043   3.190   7.638
  372MPD2    N1 5774   0.610   3.115   7.677
  372MPD2    H7 5775   0.672   3.035   7.667
  373MPD2     C 5776   1.250   2.925   7.097
  373MPD2    C1 5777   1.147   3.015   7.087
  373MPD2    C2 5778   1.089   3.056   7.206
  373MPD2    C3 5779   1.139   3.013   7.328
  373MPD2    C4 5780   1.248   2.923   7.334
  373MPD2    C5 5781   1.297   2.875   7.215
  373MPD2     H 5782   1.014   3.132   7.189
  373MPD2    H1 5783   1.288   2.895   7.431
  373MPD2    H2 5784   1.300   2.880   7.011
  373MPD2    H3 5785   1.376   2.801   7.215
  373MPD2     N 5786   1.065   3.048   7.441
  373MPD2    H5 5787   0.985   3.107   7.419
  373MPD2    N1 5788   1.100   3.047   6.956
  373MPD2    H7 5789   1.160   3.001   6.888
  374MPD2     C 5790   2.693   3.278   7.324
  374MPD2    C1 5791   2.654   3.362   7.215
  374MPD2    C2 5792   2.520   3.394   7.196
  374MPD2    C3 5793   2.426   3.345   7.289
  374MPD2    C4 5794   2.464   3.267   7.391
  374MPD2    C5 5795   2.596   3.236   7.410
  374MPD2     H 5796   2.488   3.459   7.116
  374MPD2    H1 5797   2.392   3.233   7.465
  374MPD2    H2 5798   2.794   3.246   7.349
  374MPD2    H3 5799   2.621   3.158   7.482
  374MPD2     N 5800   2.286   3.373   7.291
  374MPD2    H5 5801   2.226   3.325   7.357
  374MPD2    N1 5802   2.749   3.429   7.135
  374MPD2    H7 5803   2.713   3.492   7.064
  375MPD2     C 5804   2.084   0.448  11.219
  375MPD2    C1 5805   2.035   0.562  11.279
  375MPD2    C2 5806   1.898   0.578  11.290
  375MPD2    C3 5807   1.815   0.486  11.231
  375MPD2    C4 5808   1.867   0.382  11.163
  375MPD2    C5 5809   2.001   0.353  11.163
  375MPD2     H 5810   1.861   0.657  11.355
  375MPD2    H1 5811   1.806   0.310  11.109
  375MPD2    H2 5812   2.192   0.439  11.214
  375MPD2    H3 5813   2.044   0.268  11.111
  375MPD2     N 5814   1.673   0.492  11.233
  375MPD2    H5 5815   1.629   0.417  11.180
  375MPD2    N1 5816   2.128   0.662  11.307
  375MPD2    H7 5817   2.225   0.634  11.314
  376MPD2     C 5818   1.023   0.343  10.850
  376MPD2    C1 5819   1.147   0.374  10.903
  376MPD2    C2 5820   1.160   0.497  10.960
  376MPD2    C3 5821   1.056   0.582  10.978
  376MPD2    C4 5822   0.934   0.551  10.916
  376MPD2    C5 5823   0.920   0.433  10.853
  376MPD2     H 5824   1.259   0.526  10.995
  376MPD2    H1 5825   0.854   0.625  10.920
  376MPD2    H2 5826   0.998   0.243  10.818
  376MPD2    H3 5827   0.822   0.404  10.818
  376MPD2     N 5828   1.065   0.705  11.049
  376MPD2    H5 5829   0.980   0.760  11.037
  376MPD2    N1 5830   1.252   0.279  10.917
  376MPD2    H7 5831   1.331   0.313  10.970
  377MPD2     C 5832   1.180   4.595  11.386
  377MPD2    C1 5833   1.110   4.671  11.299
  377MPD2    C2 5834   1.154   0.005  11.286
  377MPD2    C3 5835   1.252   0.065  11.368
  377MPD2    C4 5836   1.311   4.781  11.461
  377MPD2    C5 5837   1.276   4.647  11.469
  377MPD2     H 5838   1.106   0.066  11.209
  377MPD2    H1 5839   1.402   0.003  11.519
  377MPD2    H2 5840   1.167   4.488  11.396
  377MPD2    H3 5841   1.318   4.579  11.543
  377MPD2     N 5842   1.282   0.204  11.361
  377MPD2    H5 5843   1.359   0.238  11.419
  377MPD2    N1 5844   1.014   4.628  11.215
  377MPD2    H7 5845   0.989   4.693  11.141
  378MPD2     C 5846   2.039   0.726  13.262
  378MPD2    C1 5847   1.915   0.672  13.237
  378MPD2    C2 5848   1.847   0.602  13.340
  378MPD2    C3 5849   1.898   0.604  13.468
  378MPD2    C4 5850   2.022   0.671  13.488
  378MPD2    C5 5851   2.091   0.732  13.387
  378MPD2     H 5852   1.758   0.543  13.321
  378MPD2    H1 5853   2.063   0.677  13.588
  378MPD2    H2 5854   2.093   0.782  13.187
  378MPD2    H3 5855   2.176   0.797  13.398
  378MPD2     N 5856   1.836   0.558  13.587
  378MPD2    H5 5857   1.888   0.573  13.673
  378MPD2    N1 5858   1.855   0.702  13.112
  378MPD2    H7 5859   1.906   0.746  13.036
  379MPD2     C 5860   1.144   0.982  13.279
  379MPD2    C1 5861   1.273   0.971  13.324
  379MPD2    C2 5862   1.358   1.074  13.295
  379MPD2    C3 5863   1.320   1.191  13.228
  379MPD2    C4 5864   1.187   1.204  13.202
  379MPD2    C5 5865   1.100   1.098  13.215
  379MPD2     H 5866   1.463   1.073  13.322
  379MPD2    H1 5867   1.143   1.289  13.150
  379MPD2    H2 5868   1.065   0.910  13.300
  379MPD2    H3 5869   0.994   1.099  13.197
  379MPD2     N 5870   1.421   1.286  13.199
  379MPD2    H5 5871   1.515   1.260  13.226
  379MPD2    N1 5872   1.314   0.846  13.374
  379MPD2    H7 5873   1.238   0.780  13.387
  380MPD2     C 5874   1.053   0.181  13.451
  380MPD2    C1 5875   1.071   0.315  13.484
  380MPD2    C2 5876   0.978   0.367  13.578
  380MPD2    C3 5877   0.886   0.284  13.650
  380MPD2    C4 5878   0.873   0.155  13.609
  380MPD2    C5 5879   0.951   0.106  13.509
  380MPD2     H 5880   0.993   0.465  13.623
  380MPD2    H1 5881   0.802   0.088  13.655
  380MPD2    H2 5882   1.119   0.133  13.380
  380MPD2    H3 5883   0.954   4.790  13.491
  380MPD2     N 5884   0.817   0.342  13.756
  380MPD2    H5 5885   0.846   0.439  13.763
  380MPD2    N1 5886   1.183   0.395  13.451
  380MPD2    H7 5887   1.175   0.493  13.478
  381MPD2     C 5888   4.386   2.575  13.717
  381MPD2    C1 5889   4.460   2.472  13.776
  381MPD2    C2 5890   4.584   2.502  13.825
  381MPD2    C3 5891   4.638   2.629  13.824
  381MPD2    C4 5892   4.552   2.728  13.769
  381MPD2    C5 5893   4.431   2.701  13.717
  381MPD2     H 5894   4.647   2.422  13.864
  381MPD2    H1 5895   4.583   2.832  13.765
  381MPD2    H2 5896   4.280   2.573  13.694
  381MPD2    H3 5897   4.367   2.778  13.674
  381MPD2     N 5898   4.770   2.658  13.865
  381MPD2    H5 5899   0.035   2.573  13.871
  381MPD2    N1 5900   4.399   2.344  13.794
  381MPD2    H7 5901   4.456   2.270  13.834
  382MPD2     C 5902   3.426   2.061  13.898
  382MPD2    C1 5903   3.513   1.965  13.957
  382MPD2    C2 5904   3.648   1.981  13.954
  382MPD2    C3 5905   3.704   2.082  13.877
  382MPD2    C4 5906   3.611   2.167  13.814
  382MPD2    C5 5907   3.478   2.157  13.820
  382MPD2     H 5908   3.703   1.902  14.003
  382MPD2    H1 5909   3.646   2.223  13.729
  382MPD2    H2 5910   3.319   2.041  13.897
  382MPD2    H3 5911   3.414   2.210  13.751
  382MPD2     N 5912   3.836   2.091  13.834
  382MPD2    H5 5913   3.864   2.171  13.778
  382MPD2    N1 5914   3.446   1.868  14.034
  382MPD2    H7 5915   3.348   1.880  14.057
  383MPD2     C 5916   3.141   0.800  12.597
  383MPD2    C1 5917   3.076   0.920  12.577
  383MPD2    C2 5918   3.112   1.029  12.656
  383MPD2    C3 5919   3.197   1.014  12.765
  383MPD2    C4 5920   3.256   0.893  12.793
  383MPD2    C5 5921   3.225   0.794  12.711
  383MPD2     H 5922   3.072   1.128  12.637
  383MPD2    H1 5923   3.327   0.870  12.872
  383MPD2    H2 5924   3.126   0.718  12.528
  383MPD2    H3 5925   3.266   0.697  12.738
  383MPD2     N 5926   3.223   1.128  12.848
  383MPD2    H5 5927   3.170   1.214  12.837
  383MPD2    N1 5928   2.989   0.932  12.475
  383MPD2    H7 5929   2.947   1.023  12.459
  384MPD2     C 5930   2.697   1.614  13.430
  384MPD2    C1 5931   2.707   1.476  13.429
  384MPD2    C2 5932   2.812   1.420  13.356
  384MPD2    C3 5933   2.902   1.504  13.289
  384MPD2    C4 5934   2.886   1.645  13.293
  384MPD2    C5 5935   2.788   1.699  13.372
  384MPD2     H 5936   2.831   1.314  13.349
  384MPD2    H1 5937   2.944   1.712  13.230
  384MPD2    H2 5938   2.624   1.654  13.500
  384MPD2    H3 5939   2.783   1.807  13.382
  384MPD2     N 5940   3.009   1.441  13.221
  384MPD2    H5 5941   3.002   1.341  13.208
  384MPD2    N1 5942   2.622   1.404  13.515
  384MPD2    H7 5943   2.558   1.456  13.575
  385MPD2     C 5944   0.883   3.846  14.477
  385MPD2    C1 5945   0.994   3.771  14.496
  385MPD2    C2 5946   1.037   3.692  14.391
  385MPD2    C3 5947   0.973   3.698  14.268
  385MPD2    C4 5948   0.865   3.788  14.249
  385MPD2    C5 5949   0.818   3.852  14.357
  385MPD2     H 5950   1.135   3.645  14.389
  385MPD2    H1 5951   0.818   3.799  14.152
  385MPD2    H2 5952   0.846   3.906  14.560
  385MPD2    H3 5953   0.728   3.911  14.348
  385MPD2     N 5954   1.038   3.637  14.155
  385MPD2    H5 5955   1.005   3.669  14.064
  385MPD2    N1 5956   1.075   3.773  14.607
  385MPD2    H7 5957   1.156   3.712  14.610
  386MPD2     C 5958   1.389   4.237  13.719
  386MPD2    C1 5959   1.339   4.218  13.845
  386MPD2    C2 5960   1.346   4.092  13.905
  386MPD2    C3 5961   1.396   3.980  13.837
  386MPD2    C4 5962   1.448   4.004  13.718
  386MPD2    C5 5963   1.447   4.128  13.660
  386MPD2     H 5964   1.302   4.078  14.003
  386MPD2    H1 5965   1.484   3.928  13.649
  386MPD2    H2 5966   1.389   4.330  13.663
  386MPD2    H3 5967   1.489   4.142  13.561
  386MPD2     N 5968   1.367   3.853  13.894
  386MPD2    H5 5969   1.300   3.848  13.970
  386MPD2    N1 5970   1.287   4.325  13.923
  386MPD2    H7 5971   1.255   4.300  14.016
  387MPD2     C 5972   1.919   3.203  14.385
  387MPD2    C1 5973   1.940   3.194  14.246
  387MPD2    C2 5974   1.841   3.242  14.159
  387MPD2    C3 5975   1.723   3.293  14.205
  387MPD2    C4 5976   1.707   3.296  14.345
  387MPD2    C5 5977   1.803   3.254  14.431
  387MPD2     H 5978   1.855   3.248  14.052
  387MPD2    H1 5979   1.614   3.335  14.385
  387MPD2    H2 5980   1.997   3.189  14.459
  387MPD2    H3 5981   1.796   3.263  14.539
  387MPD2     N 5982   1.630   3.337  14.110
  387MPD2    H5 5983   1.651   3.327  14.011
  387MPD2    N1 5984   2.073   3.161  14.211
  387MPD2    H7 5985   2.129   3.136  14.291
  388MPD2     C 5986   4.533   1.887  10.529
  388MPD2    C1 5987   4.472   1.991  10.469
  388MPD2    C2 5988   4.391   2.080  10.546
  388MPD2    C3 5989   4.370   2.057  10.681
  388MPD2    C4 5990   4.433   1.955  10.740
  388MPD2    C5 5991   4.521   1.877  10.667
  388MPD2     H 5992   4.347   2.170  10.504
  388MPD2    H1 5993   4.417   1.924  10.842
  388MPD2    H2 5994   4.593   1.816  10.474
  388MPD2    H3 5995   4.571   1.802  10.727
  388MPD2     N 5996   4.274   2.139  10.738
  388MPD2    H5 5997   4.213   2.191  10.675
  388MPD2    N1 5998   4.489   2.018  10.330
  388MPD2    H7 5999   4.461   2.111  10.299
  389MPD2     C 6000   0.127   2.526   9.848
  389MPD2    C1 6001   0.090   2.470   9.964
  389MPD2    C2 6002   0.156   2.492  10.081
  389MPD2    C3 6003   0.261   2.577  10.091
  389MPD2    C4 6004   0.291   2.643   9.975
  389MPD2    C5 6005   0.229   2.615   9.855
  389MPD2     H 6006   0.123   2.439  10.170
  389MPD2    H1 6007   0.379   2.706   9.975
  389MPD2    H2 6008   0.086   2.501   9.751
  389MPD2    H3 6009   0.273   2.654   9.764
  389MPD2     N 6010   0.325   2.592  10.214
  389MPD2    H5 6011   0.294   2.537  10.293
  389MPD2    N1 6012   4.786   2.368   9.945
  389MPD2    H7 6013   4.748   2.354   9.852
  390MPD2     C 6014   3.869   3.662  10.760
  390MPD2    C1 6015   3.949   3.551  10.755
  390MPD2    C2 6016   3.908   3.447  10.683
  390MPD2    C3 6017   3.788   3.444  10.612
  390MPD2    C4 6018   3.711   3.556  10.617
  390MPD2    C5 6019   3.750   3.665  10.694
  390MPD2     H 6020   3.974   3.362  10.685
  390MPD2    H1 6021   3.622   3.560  10.557
  390MPD2    H2 6022   3.899   3.750  10.817
  390MPD2    H3 6023   3.692   3.756  10.702
  390MPD2     N 6024   3.742   3.339  10.528
  390MPD2    H5 6025   3.679   3.370  10.455
  390MPD2    N1 6026   4.065   3.523  10.835
  390MPD2    H7 6027   4.113   3.434  10.827
  391MPD2     C 6028   4.734   3.195  11.592
  391MPD2    C1 6029   4.656   3.102  11.529
  391MPD2    C2 6030   4.544   3.151  11.454
  391MPD2    C3 6031   4.502   3.282  11.455
  391MPD2    C4 6032   4.579   3.371  11.518
  391MPD2    C5 6033   4.689   3.323  11.592
  391MPD2     H 6034   4.500   3.079  11.386
  391MPD2    H1 6035   4.548   3.475  11.523
  391MPD2    H2 6036   0.024   3.166  11.659
  391MPD2    H3 6037   4.745   3.398  11.646
  391MPD2     N 6038   4.402   3.302  11.357
  391MPD2    H5 6039   4.372   3.221  11.303
  391MPD2    N1 6040   4.702   2.962  11.540
  391MPD2    H7 6041   4.781   2.948  11.603
  392MPD2     C 6042   4.632   3.034  10.827
  392MPD2    C1 6043   4.537   3.017  10.924
  392MPD2    C2 6044   4.526   2.896  10.993
  392MPD2    C3 6045   4.600   2.786  10.951
  392MPD2    C4 6046   4.694   2.801  10.850
  392MPD2    C5 6047   4.709   2.924  10.797
  392MPD2     H 6048   4.438   2.886  11.055
  392MPD2    H1 6049   4.767   2.726  10.820
  392MPD2    H2 6050   4.656   3.128  10.779
  392MPD2    H3 6051   0.006   2.930  10.735
  392MPD2     N 6052   4.578   2.654  11.012
  392MPD2    H5 6053   4.602   2.586  10.940
  392MPD2    N1 6054   4.446   3.120  10.954
  392MPD2    H7 6055   4.381   3.110  11.031
  393MPD2     C 6056   3.495   0.206   6.247
  393MPD2    C1 6057   3.499   0.219   6.383
  393MPD2    C2 6058   3.379   0.243   6.447
  393MPD2    C3 6059   3.264   0.284   6.372
  393MPD2    C4 6060   3.265   0.266   6.234
  393MPD2    C5 6061   3.382   0.229   6.171
  393MPD2     H 6062   3.378   0.248   6.555
  393MPD2    H1 6063   3.175   0.279   6.175
  393MPD2    H2 6064   3.578   0.163   6.191
  393MPD2    H3 6065   3.376   0.200   6.067
  393MPD2     N 6066   3.151   0.329   6.446
  393MPD2    H5 6067   3.156   0.319   6.547
  393MPD2    N1 6068   3.621   0.209   6.453
  393MPD2    H7 6069   3.618   0.238   6.551
  394MPD2     C 6070   2.340   0.307   6.569
  394MPD2    C1 6071   2.429   0.314   6.674
  394MPD2    C2 6072   2.400   0.250   6.793
  394MPD2    C3 6073   2.279   0.176   6.804
  394MPD2    C4 6074   2.192   0.166   6.701
  394MPD2    C5 6075   2.225   0.228   6.584
  394MPD2     H 6076   2.480   0.254   6.865
  394MPD2    H1 6077   2.096   0.115   6.700
  394MPD2    H2 6078   2.367   0.348   6.472
  394MPD2    H3 6079   2.157   0.223   6.499
  394MPD2     N 6080   2.246   0.098   6.914
  394MPD2    H5 6081   2.192   0.016   6.888
  394MPD2    N1 6082   2.551   0.386   6.671
  394MPD2    H7 6083   2.608   0.386   6.755
  395MPD2     C 6084   3.048   0.922   7.210
  395MPD2    C1 6085   3.100   0.796   7.187
  395MPD2    C2 6086   3.048   0.718   7.081
  395MPD2    C3 6087   2.960   0.776   6.989
  395MPD2    C4 6088   2.919   0.909   7.008
  395MPD2    C5 6089   2.961   0.982   7.118
  395MPD2     H 6090   3.057   0.610   7.076
  395MPD2    H1 6091   2.852   0.950   6.933
  395MPD2    H2 6092   3.092   0.973   7.294
  395MPD2    H3 6093   2.922   1.083   7.120
  395MPD2     N 6094   2.919   0.705   6.871
  395MPD2    H5 6095   2.845   0.742   6.813
  395MPD2    N1 6096   3.199   0.746   7.276
  395MPD2    H7 6097   3.232   0.813   7.345
  396MPD2     C 6098   2.540   1.299  12.255
  396MPD2    C1 6099   2.568   1.312  12.388
  396MPD2    C2 6100   2.578   1.433  12.439
  396MPD2    C3 6101   2.556   1.547  12.366
  396MPD2    C4 6102   2.543   1.537  12.232
  396MPD2    C5 6103   2.536   1.413  12.183
  396MPD2     H 6104   2.610   1.442  12.542
  396MPD2    H1 6105   2.523   1.615  12.159
  396MPD2    H2 6106   2.543   1.202  12.205
  396MPD2    H3 6107   2.527   1.409  12.075
  396MPD2     N 6108   2.543   1.675  12.420
  396MPD2    H5 6109   2.547   1.749  12.350
  396MPD2    N1 6110   2.570   1.219  12.483
  396MPD2    H7 6111   2.567   1.248  12.580
  397MPD2     C 6112   1.990   0.476  12.776
  397MPD2    C1 6113   2.115   0.422  12.790
  397MPD2    C2 6114   2.218   0.491  12.740
  397MPD2    C3 6115   2.200   0.620  12.699
  397MPD2    C4 6116   2.077   0.674  12.679
  397MPD2    C5 6117   1.972   0.593  12.716
  397MPD2     H 6118   2.318   0.450  12.752
  397MPD2    H1 6119   2.073   0.779  12.652
  397MPD2    H2 6120   1.902   0.413  12.790
  397MPD2    H3 6121   1.870   0.623  12.696
  397MPD2     N 6122   2.305   0.708  12.671
  397MPD2    H5 6123   2.275   0.800  12.641
  397MPD2    N1 6124   2.134   0.292  12.848
  397MPD2    H7 6125   2.228   0.257  12.862
  398MPD2     C 6126   2.269   1.080  10.844
  398MPD2    C1 6127   2.143   1.053  10.795
  398MPD2    C2 6128   2.081   0.934  10.825
  398MPD2    C3 6129   2.136   0.845  10.914
  398MPD2    C4 6130   2.249   0.883  10.980
  398MPD2    C5 6131   2.320   0.993  10.938
  398MPD2     H 6132   1.985   0.925  10.775
  398MPD2    H1 6133   2.292   0.831  11.065
  398MPD2    H2 6134   2.328   1.166  10.814
  398MPD2    H3 6135   2.419   1.008  10.981
  398MPD2     N 6136   2.060   0.733  10.945
  398MPD2    H5 6137   2.076   0.689  11.035
  398MPD2    N1 6138   2.064   1.142  10.714
  398MPD2    H7 6139   1.966   1.120  10.701
  399MPD2     C 6140   1.926   1.374  11.440
  399MPD2    C1 6141   1.863   1.399  11.318
  399MPD2    C2 6142   1.819   1.285  11.247
  399MPD2    C3 6143   1.846   1.159  11.290
  399MPD2    C4 6144   1.916   1.142  11.408
  399MPD2    C5 6145   1.956   1.247  11.479
  399MPD2     H 6146   1.768   1.292  11.152
  399MPD2    H1 6147   1.941   1.041  11.435
  399MPD2    H2 6148   1.944   1.448  11.517
  399MPD2    H3 6149   2.016   1.228  11.568
  399MPD2     N 6150   1.813   1.039  11.221
  399MPD2    H5 6151   1.856   0.955  11.258
  399MPD2    N1 6152   1.830   1.533  11.281
  399MPD2    H7 6153   1.846   1.603  11.353
  400MPD2     C 6154   1.338   1.130  10.682
  400MPD2    C1 6155   1.462   1.078  10.684
  400MPD2    C2 6156   1.490   0.956  10.750
  400MPD2    C3 6157   1.382   0.879  10.794
  400MPD2    C4 6158   1.254   0.927  10.792
  400MPD2    C5 6159   1.234   1.052  10.733
  400MPD2     H 6160   1.587   0.909  10.742
  400MPD2    H1 6161   1.179   0.883  10.858
  400MPD2    H2 6162   1.324   1.227  10.637
  400MPD2    H3 6163   1.140   1.103  10.748
  400MPD2     N 6164   1.384   0.747  10.842
  400MPD2    H5 6165   1.293   0.704  10.851
  400MPD2    N1 6166   1.560   1.170  10.647
  400MPD2    H7 6167   1.520   1.257  10.613
  401MPD2     C 6168   4.470   3.714  10.768
  401MPD2    C1 6169   4.435   3.804  10.863
  401MPD2    C2 6170   4.527   3.848  10.961
  401MPD2    C3 6171   4.650   3.784  10.968
  401MPD2    C4 6172   4.665   3.670  10.891
  401MPD2    C5 6173   4.582   3.640  10.791
  401MPD2     H 6174   4.505   3.926  11.033
  401MPD2    H1 6175   4.751   3.604  10.899
  401MPD2    H2 6176   4.412   3.696  10.678
  401MPD2    H3 6177   4.599   3.569  10.710
  401MPD2     N 6178   4.753   3.826  11.063
  401MPD2    H5 6179   0.051   3.776  11.064
  401MPD2    N1 6180   4.308   3.863  10.841
  401MPD2    H7 6181   4.254   3.824  10.763
  402MPD2     C 6182   3.921   4.678  11.258
  402MPD2    C1 6183   3.896   4.560  11.326
  402MPD2    C2 6184   3.998   4.468  11.318
  402MPD2    C3 6185   4.110   4.490  11.236
  402MPD2    C4 6186   4.136   4.614  11.185
  402MPD2    C5 6187   4.037   4.703  11.191
  402MPD2     H 6188   3.985   4.374  11.370
  402MPD2    H1 6189   4.224   4.629  11.123
  402MPD2    H2 6190   3.841   4.752  11.265
  402MPD2    H3 6191   4.055   0.008  11.143
  402MPD2     N 6192   4.206   4.381  11.224
  402MPD2    H5 6193   4.188   4.299  11.281
  402MPD2    N1 6194   3.766   4.535  11.384
  402MPD2    H7 6195   3.692   4.604  11.381
  403MPD2     C 6196   4.628   4.010  11.599
  403MPD2    C1 6197   4.534   3.936  11.535
  403MPD2    C2 6198   4.484   3.819  11.586
  403MPD2    C3 6199   4.539   3.772  11.701
  403MPD2    C4 6200   4.641   3.837  11.766
  403MPD2    C5 6201   4.678   3.961  11.718
  403MPD2     H 6202   4.399   3.770  11.542
  403MPD2    H1 6203   4.687   3.806  11.860
  403MPD2    H2 6204   4.653   4.109  11.564
  403MPD2    H3 6205   4.744   4.030  11.770
  403MPD2     N 6206   4.486   3.654  11.757
  403MPD2    H5 6207   4.400   3.628  11.710
  403MPD2    N1 6208   4.477   4.001  11.426
  403MPD2    H7 6209   4.508   4.090  11.388
  404MPD2     C 6210   0.615   2.365   6.384
  404MPD2    C1 6211   0.619   2.385   6.520
  404MPD2    C2 6212   0.511   2.350   6.600
  404MPD2    C3 6213   0.398   2.297   6.540
  404MPD2    C4 6214   0.389   2.275   6.405
  404MPD2    C5 6215   0.503   2.312   6.326
  404MPD2     H 6216   0.536   2.358   6.705
  404MPD2    H1 6217   0.302   2.238   6.352
  404MPD2    H2 6218   0.696   2.407   6.324
  404MPD2    H3 6219   0.493   2.319   6.218
  404MPD2     N 6220   0.290   2.271   6.632
  404MPD2    H5 6221   0.307   2.286   6.731
  404MPD2    N1 6222   0.727   2.433   6.592
  404MPD2    H7 6223   0.700   2.451   6.688
  405MPD2     C 6224   4.447   1.637   7.235
  405MPD2    C1 6225   4.445   1.768   7.282
  405MPD2    C2 6226   4.487   1.867   7.198
  405MPD2    C3 6227   4.537   1.843   7.070
  405MPD2    C4 6228   4.535   1.712   7.021
  405MPD2    C5 6229   4.490   1.609   7.104
  405MPD2     H 6230   4.499   1.966   7.242
  405MPD2    H1 6231   4.577   1.686   6.924
  405MPD2    H2 6232   4.407   1.552   7.290
  405MPD2    H3 6233   4.492   1.504   7.077
  405MPD2     N 6234   4.591   1.953   7.000
  405MPD2    H5 6235   4.599   2.029   7.067
  405MPD2    N1 6236   4.395   1.800   7.404
  405MPD2    H7 6237   4.361   1.893   7.423
  406MPD2     C 6238   0.990   1.331   9.308
  406MPD2    C1 6239   0.983   1.461   9.268
  406MPD2    C2 6240   0.928   1.492   9.145
  406MPD2    C3 6241   0.878   1.393   9.067
  406MPD2    C4 6242   0.880   1.265   9.110
  406MPD2    C5 6243   0.937   1.234   9.228
  406MPD2     H 6244   0.921   1.596   9.114
  406MPD2    H1 6245   0.833   1.189   9.049
  406MPD2    H2 6246   1.040   1.302   9.400
  406MPD2    H3 6247   0.945   1.132   9.265
  406MPD2     N 6248   0.821   1.412   8.936
  406MPD2    H5 6249   0.785   1.328   8.892
  406MPD2    N1 6250   1.026   1.560   9.364
  406MPD2    H7 6251   1.027   1.529   9.461
  407MPD2     C 6252   0.929   2.388  13.978
  407MPD2    C1 6253   0.933   2.503  13.900
  407MPD2    C2 6254   0.828   2.592  13.903
  407MPD2    C3 6255   0.715   2.558  13.979
  407MPD2    C4 6256   0.707   2.444  14.055
  407MPD2    C5 6257   0.816   2.361  14.057
  407MPD2     H 6258   0.829   2.691  13.859
  407MPD2    H1 6259   0.618   2.418  14.111
  407MPD2    H2 6260   1.011   2.318  13.983
  407MPD2    H3 6261   0.809   2.270  14.115
  407MPD2     N 6262   0.614   2.648  13.971
  407MPD2    H5 6263   0.623   2.732  13.915
  407MPD2    N1 6264   1.042   2.522  13.817
  407MPD2    H7 6265   1.129   2.485  13.854
  408MPD2     C 6266   3.009   2.201   9.856
  408MPD2    C1 6267   3.124   2.202   9.787
  408MPD2    C2 6268   3.212   2.097   9.799
  408MPD2    C3 6269   3.188   1.996   9.882
  408MPD2    C4 6270   3.068   1.996   9.958
  408MPD2    C5 6271   2.975   2.098   9.944
  408MPD2     H 6272   3.304   2.114   9.744
  408MPD2    H1 6273   3.026   1.911  10.010
  408MPD2    H2 6274   2.946   2.286   9.833
  408MPD2    H3 6275   2.879   2.093   9.995
  408MPD2     N 6276   3.276   1.888   9.906
  408MPD2    H5 6277   3.242   1.811   9.962
  408MPD2    N1 6278   3.136   2.319   9.701
  408MPD2    H7 6279   3.064   2.390   9.702
  409MPD2     C 6280   3.569   1.186   9.325
  409MPD2    C1 6281   3.679   1.267   9.316
  409MPD2    C2 6282   3.684   1.365   9.412
  409MPD2    C3 6283   3.596   1.371   9.521
  409MPD2    C4 6284   3.504   1.269   9.538
  409MPD2    C5 6285   3.486   1.186   9.434
  409MPD2     H 6286   3.766   1.434   9.398
  409MPD2    H1 6287   3.422   1.282   9.608
  409MPD2    H2 6288   3.552   1.113   9.247
  409MPD2    H3 6289   3.391   1.136   9.427
  409MPD2     N 6290   3.607   1.473   9.621
  409MPD2    H5 6291   3.678   1.545   9.608
  409MPD2    N1 6292   3.778   1.274   9.213
  409MPD2    H7 6293   3.848   1.348   9.217
  410MPD2     C 6294   3.154   1.129  10.219
  410MPD2    C1 6295   3.197   1.129  10.091
  410MPD2    C2 6296   3.279   1.229  10.054
  410MPD2    C3 6297   3.310   1.336  10.140
  410MPD2    C4 6298   3.263   1.341  10.268
  410MPD2    C5 6299   3.184   1.236  10.301
  410MPD2     H 6300   3.318   1.232   9.953
  410MPD2    H1 6301   3.283   1.412  10.348
  410MPD2    H2 6302   3.093   1.052  10.263
  410MPD2    H3 6303   3.138   1.221  10.398
  410MPD2     N 6304   3.399   1.422  10.089
  410MPD2    H5 6305   3.427   1.410   9.992
  410MPD2    N1 6306   3.184   1.019  10.013
  410MPD2    H7 6307   3.150   0.935  10.058
  411MPD2     C 6308   0.374   3.290  10.925
  411MPD2    C1 6309   0.486   3.230  10.875
  411MPD2    C2 6310   0.479   3.094  10.828
  411MPD2    C3 6311   0.359   3.037  10.797
  411MPD2    C4 6312   0.252   3.112  10.834
  411MPD2    C5 6313   0.250   3.232  10.895
  411MPD2     H 6314   0.572   3.049  10.797
  411MPD2    H1 6315   0.152   3.081  10.809
  411MPD2    H2 6316   0.369   3.387  10.973
  411MPD2    H3 6317   0.157   3.279  10.926
  411MPD2     N 6318   0.346   2.914  10.733
  411MPD2    H5 6319   0.259   2.896  10.685
  411MPD2    N1 6320   0.611   3.293  10.868
  411MPD2    H7 6321   0.685   3.233  10.832
  412MPD2     C 6322   0.798   2.118  10.955
  412MPD2    C1 6323   0.851   2.202  10.863
  412MPD2    C2 6324   0.772   2.255  10.763
  412MPD2    C3 6325   0.636   2.246  10.783
  412MPD2    C4 6326   0.577   2.170  10.885
  412MPD2    C5 6327   0.663   2.096  10.962
  412MPD2     H 6328   0.809   2.321  10.685
  412MPD2    H1 6329   0.472   2.152  10.904
  412MPD2    H2 6330   0.854   2.078  11.039
  412MPD2    H3 6331   0.624   2.028  11.037
  412MPD2     N 6332   0.545   2.326  10.703
  412MPD2    H5 6333   0.448   2.332  10.731
  412MPD2    N1 6334   0.983   2.247  10.869
  412MPD2    H7 6335   1.004   2.316  10.797
  413MPD2     C 6336   2.323   4.514   9.621
  413MPD2    C1 6337   2.269   4.547   9.503
  413MPD2    C2 6338   2.349   4.577   9.395
  413MPD2    C3 6339   2.489   4.570   9.410
  413MPD2    C4 6340   2.552   4.545   9.530
  413MPD2    C5 6341   2.466   4.509   9.634
  413MPD2     H 6342   2.310   4.606   9.298
  413MPD2    H1 6343   2.659   4.537   9.540
  413MPD2    H2 6344   2.261   4.488   9.705
  413MPD2    H3 6345   2.504   4.462   9.724
  413MPD2     N 6346   2.580   4.585   9.306
  413MPD2    H5 6347   2.675   4.560   9.331
  413MPD2    N1 6348   2.136   4.569   9.497
  413MPD2    H7 6349   2.083   4.569   9.583
  414MPD2     C 6350   2.253   0.592   9.552
  414MPD2    C1 6351   2.146   0.586   9.463
  414MPD2    C2 6352   2.060   0.477   9.464
  414MPD2    C3 6353   2.082   0.369   9.539
  414MPD2    C4 6354   2.178   0.372   9.636
  414MPD2    C5 6355   2.251   0.489   9.641
  414MPD2     H 6356   1.985   0.467   9.386
  414MPD2    H1 6357   2.198   0.291   9.704
  414MPD2    H2 6358   2.320   0.675   9.567
  414MPD2    H3 6359   2.330   0.497   9.715
  414MPD2     N 6360   2.014   0.245   9.519
  414MPD2    H5 6361   2.041   0.173   9.586
  414MPD2    N1 6362   2.142   0.686   9.358
  414MPD2    H7 6363   2.080   0.673   9.279
  415MPD2     C 6364   2.531   4.756  15.043
  415MPD2    C1 6365   2.531   0.079  14.968
  415MPD2    C2 6366   2.653   0.135  14.936
  415MPD2    C3 6367   2.774   0.071  14.970
  415MPD2    C4 6368   2.769   4.734  15.033
  415MPD2    C5 6369   2.643   4.682  15.072
  415MPD2     H 6370   2.655   0.223  14.873
  415MPD2    H1 6371   2.864   4.688  15.056
  415MPD2    H2 6372   2.435   4.722  15.080
  415MPD2    H3 6373   2.636   4.587  15.124
  415MPD2     N 6374   2.900   0.123  14.924
  415MPD2    H5 6375   2.892   0.216  14.885
  415MPD2    N1 6376   2.405   0.134  14.915
  415MPD2    H7 6377   2.410   0.217  14.858
  416MPD2     C 6378   3.258   0.341  14.267
  416MPD2    C1 6379   3.329   0.248  14.343
  416MPD2    C2 6380   3.419   0.158  14.278
  416MPD2    C3 6381   3.435   0.163  14.139
  416MPD2    C4 6382   3.366   0.263  14.065
  416MPD2    C5 6383   3.278   0.346  14.133
  416MPD2     H 6384   3.473   0.092  14.345
  416MPD2    H1 6385   3.372   0.280  13.958
  416MPD2    H2 6386   3.178   0.400  14.309
  416MPD2    H3 6387   3.217   0.419  14.081
  416MPD2     N 6388   3.516   0.080  14.064
  416MPD2    H5 6389   3.510   0.090  13.963
  416MPD2    N1 6390   3.312   0.225  14.478
  416MPD2    H7 6391   3.378   0.168  14.529
  417MPD2     C 6392   3.069   3.789  12.393
  417MPD2    C1 6393   3.147   3.709  12.474
  417MPD2    C2 6394   3.113   3.715  12.606
  417MPD2    C3 6395   3.020   3.798  12.659
  417MPD2    C4 6396   2.956   3.884  12.574
  417MPD2    C5 6397   2.985   3.882  12.440
  417MPD2     H 6398   3.166   3.648  12.673
  417MPD2    H1 6399   2.870   3.941  12.606
  417MPD2    H2 6400   3.074   3.785  12.285
  417MPD2    H3 6401   2.945   3.942  12.359
  417MPD2     N 6402   2.980   3.794  12.791
  417MPD2    H5 6403   2.924   3.871  12.828
  417MPD2    N1 6404   3.239   3.616  12.426
  417MPD2    H7 6405   3.262   3.604  12.328
  418MPD2     C 6406   2.565   4.427  13.125
  418MPD2    C1 6407   2.529   4.311  13.189
  418MPD2    C2 6408   2.609   4.203  13.189
  418MPD2    C3 6409   2.736   4.200  13.134
  418MPD2    C4 6410   2.769   4.312  13.057
  418MPD2    C5 6411   2.692   4.423  13.060
  418MPD2     H 6412   2.572   4.115  13.241
  418MPD2    H1 6413   2.871   4.318  13.020
  418MPD2    H2 6414   2.503   4.515  13.115
  418MPD2    H3 6415   2.722   4.519  13.022
  418MPD2     N 6416   2.816   4.087  13.124
  418MPD2    H5 6417   2.898   4.073  13.065
  418MPD2    N1 6418   2.406   4.289  13.249
  418MPD2    H7 6419   2.388   4.194  13.282
  419MPD2     C 6420   2.901   3.384  13.555
  419MPD2    C1 6421   2.799   3.470  13.511
  419MPD2    C2 6422   2.686   3.488  13.582
  419MPD2    C3 6423   2.676   3.419  13.702
  419MPD2    C4 6424   2.778   3.337  13.750
  419MPD2    C5 6425   2.893   3.327  13.675
  419MPD2     H 6426   2.609   3.560  13.555
  419MPD2    H1 6427   2.780   3.278  13.842
  419MPD2    H2 6428   2.993   3.362  13.501
  419MPD2    H3 6429   2.975   3.264  13.708
  419MPD2     N 6430   2.563   3.440  13.782
  419MPD2    H5 6431   2.499   3.511  13.749
  419MPD2    N1 6432   2.826   3.557  13.406
  419MPD2    H7 6433   2.758   3.631  13.393
  420MPD2     C 6434   1.897   0.263  11.546
  420MPD2    C1 6435   1.759   0.277  11.530
  420MPD2    C2 6436   1.695   0.215  11.423
  420MPD2    C3 6437   1.760   0.125  11.345
  420MPD2    C4 6438   1.897   0.102  11.371
  420MPD2    C5 6439   1.958   0.170  11.466
  420MPD2     H 6440   1.598   0.249  11.387
  420MPD2    H1 6441   1.949   0.026  11.313
  420MPD2    H2 6442   1.949   0.322  11.620
  420MPD2    H3 6443   2.062   0.150  11.489
  420MPD2     N 6444   1.705   0.065  11.233
  420MPD2    H5 6445   1.760   4.782  11.191
  420MPD2    N1 6446   1.689   0.382  11.596
  420MPD2    H7 6447   1.743   0.444  11.656
  421MPD2     C 6448   0.936   0.768  11.739
  421MPD2    C1 6449   0.999   0.840  11.641
  421MPD2    C2 6450   0.953   0.959  11.594
  421MPD2    C3 6451   0.837   1.004  11.644
  421MPD2    C4 6452   0.773   0.939  11.745
  421MPD2    C5 6453   0.824   0.826  11.793
  421MPD2     H 6454   1.009   1.022  11.526
  421MPD2    H1 6455   0.679   0.970  11.788
  421MPD2    H2 6456   0.965   0.669  11.772
  421MPD2    H3 6457   0.780   0.782  11.882
  421MPD2     N 6458   0.778   1.124  11.613
  421MPD2    H5 6459   0.705   1.161  11.673
  421MPD2    N1 6460   1.116   0.785  11.584
  421MPD2    H7 6461   1.156   0.843  11.511
  422MPD2     C 6462   1.526   1.221  11.459
  422MPD2    C1 6463   1.578   1.119  11.542
  422MPD2    C2 6464   1.668   1.168  11.639
  422MPD2    C3 6465   1.691   1.309  11.647
  422MPD2    C4 6466   1.632   1.397  11.558
  422MPD2    C5 6467   1.548   1.352  11.466
  422MPD2     H 6468   1.715   1.102  11.711
  422MPD2    H1 6469   1.654   1.502  11.549
  422MPD2    H2 6470   1.454   1.189  11.385
  422MPD2    H3 6471   1.494   1.413  11.395
  422MPD2     N 6472   1.768   1.371  11.745
  422MPD2    H5 6473   1.775   1.472  11.743
  422MPD2    N1 6474   1.552   0.981  11.522
  422MPD2    H7 6475   1.474   0.962  11.460
  423MPD2     C 6476   2.318   0.948  13.161
  423MPD2    C1 6477   2.281   1.074  13.208
  423MPD2    C2 6478   2.299   1.186  13.129
  423MPD2    C3 6479   2.344   1.173  12.996
  423MPD2    C4 6480   2.379   1.050  12.947
  423MPD2    C5 6481   2.357   0.936  13.027
  423MPD2     H 6482   2.296   1.286  13.169
  423MPD2    H1 6483   2.418   1.035  12.847
  423MPD2    H2 6484   2.323   0.859  13.222
  423MPD2    H3 6485   2.383   0.842  12.981
  423MPD2     N 6486   2.356   1.295  12.924
  423MPD2    H5 6487   2.316   1.382  12.957
  423MPD2    N1 6488   2.261   1.081  13.352
  423MPD2    H7 6489   2.295   1.007  13.413
  424MPD2     C 6490   2.775   0.508  13.749
  424MPD2    C1 6491   2.698   0.537  13.631
  424MPD2    C2 6492   2.613   0.647  13.630
  424MPD2    C3 6493   2.593   0.721  13.750
  424MPD2    C4 6494   2.661   0.684  13.869
  424MPD2    C5 6495   2.764   0.582  13.864
  424MPD2     H 6496   2.561   0.668  13.537
  424MPD2    H1 6497   2.651   0.738  13.962
  424MPD2    H2 6498   2.858   0.438  13.756
  424MPD2    H3 6499   2.812   0.564  13.959
  424MPD2     N 6500   2.511   0.841  13.759
  424MPD2    H5 6501   2.529   0.904  13.836
  424MPD2    N1 6502   2.697   0.454  13.524
  424MPD2    H7 6503   2.620   0.467  13.459
  425MPD2     C 6504   4.522   1.729   8.758
  425MPD2    C1 6505   4.457   1.672   8.653
  425MPD2    C2 6506   4.330   1.618   8.664
  425MPD2    C3 6507   4.279   1.601   8.794
  425MPD2    C4 6508   4.348   1.655   8.902
  425MPD2    C5 6509   4.464   1.722   8.880
  425MPD2     H 6510   4.273   1.588   8.577
  425MPD2    H1 6511   4.307   1.645   9.003
  425MPD2    H2 6512   4.622   1.769   8.749
  425MPD2    H3 6513   4.518   1.758   8.967
  425MPD2     N 6514   4.168   1.514   8.813
  425MPD2    H5 6515   4.137   1.465   8.729
  425MPD2    N1 6516   4.521   1.658   8.531
  425MPD2    H7 6517   4.469   1.662   8.444
  426MPD2     C 6518   2.705   3.821   8.007
  426MPD2    C1 6519   2.640   3.918   8.072
  426MPD2    C2 6520   2.541   3.987   8.004
  426MPD2    C3 6521   2.523   3.964   7.866
  426MPD2    C4 6522   2.597   3.870   7.799
  426MPD2    C5 6523   2.690   3.800   7.872
  426MPD2     H 6524   2.488   4.069   8.052
  426MPD2    H1 6525   2.583   3.853   7.693
  426MPD2    H2 6526   2.777   3.748   8.043
  426MPD2    H3 6527   2.745   3.722   7.820
  426MPD2     N 6528   2.440   4.051   7.789
  426MPD2    H5 6529   2.458   4.050   7.689
  426MPD2    N1 6530   2.666   3.952   8.208
  426MPD2    H7 6531   2.615   4.035   8.237
  427MPD2     C 6532   2.514   0.088   7.774
  427MPD2    C1 6533   2.427   0.009   7.847
  427MPD2    C2 6534   2.409   0.043   7.979
  427MPD2    C3 6535   2.484   0.142   8.039
  427MPD2    C4 6536   2.584   0.206   7.965
  427MPD2    C5 6537   2.589   0.186   7.837
  427MPD2     H 6538   2.334   4.778   8.033
  427MPD2    H1 6539   2.629   0.294   8.009
  427MPD2    H2 6540   2.525   0.075   7.667
  427MPD2    H3 6541   2.647   0.251   7.774
  427MPD2     N 6542   2.462   0.141   8.176
  427MPD2    H5 6543   2.376   0.096   8.205
  427MPD2    N1 6544   2.371   4.684   7.780
  427MPD2    H7 6545   2.387   4.663   7.682
  428MPD2     C 6546   2.305   4.260   7.134
  428MPD2    C1 6547   2.378   4.202   7.240
  428MPD2    C2 6548   2.445   4.082   7.224
  428MPD2    C3 6549   2.423   4.012   7.102
  428MPD2    C4 6550   2.360   4.074   6.996
  428MPD2    C5 6551   2.305   4.196   7.008
  428MPD2     H 6552   2.509   4.035   7.298
  428MPD2    H1 6553   2.358   4.022   6.901
  428MPD2    H2 6554   2.265   4.360   7.149
  428MPD2    H3 6555   2.249   4.241   6.927
  428MPD2     N 6556   2.471   3.888   7.066
  428MPD2    H5 6557   2.472   3.877   6.965
  428MPD2    N1 6558   2.390   4.257   7.367
  428MPD2    H7 6559   2.437   4.207   7.441
  429MPD2     C 6560   4.220   0.141  11.440
  429MPD2    C1 6561   4.180   0.073  11.556
  429MPD2    C2 6562   4.275   0.036  11.652
  429MPD2    C3 6563   4.414   0.058  11.637
  429MPD2    C4 6564   4.446   0.127  11.521
  429MPD2    C5 6565   4.353   0.159  11.424
  429MPD2     H 6566   4.246   4.769  11.738
  429MPD2    H1 6567   4.550   0.142  11.495
  429MPD2    H2 6568   4.147   0.169  11.365
  429MPD2    H3 6569   4.389   0.197  11.330
  429MPD2     N 6570   4.494   0.019  11.748
  429MPD2    H5 6571   4.451   4.765  11.828
  429MPD2    N1 6572   4.037   0.049  11.576
  429MPD2    H7 6573   3.969   0.123  11.563
  430MPD2     C 6574   3.610   0.119  12.464
  430MPD2    C1 6575   3.594   0.206  12.364
  430MPD2    C2 6576   3.632   0.166  12.238
  430MPD2    C3 6577   3.659   0.036  12.203
  430MPD2    C4 6578   3.669   4.732  12.306
  430MPD2    C5 6579   3.648   4.775  12.435
  430MPD2     H 6580   3.622   0.238  12.158
  430MPD2    H1 6581   3.706   4.633  12.283
  430MPD2    H2 6582   3.585   0.133  12.569
  430MPD2    H3 6583   3.655   4.703  12.515
  430MPD2     N 6584   3.697   0.011  12.072
  430MPD2    H5 6585   3.704   0.089  12.008
  430MPD2    N1 6586   3.546   0.334  12.397
  430MPD2    H7 6587   3.544   0.365  12.494
  431MPD2     C 6588   4.356   2.899   8.981
  431MPD2    C1 6589   4.326   2.839   9.101
  431MPD2    C2 6590   4.196   2.828   9.142
  431MPD2    C3 6591   4.095   2.897   9.073
  431MPD2    C4 6592   4.134   2.971   8.967
  431MPD2    C5 6593   4.259   2.971   8.918
  431MPD2     H 6594   4.177   2.756   9.221
  431MPD2    H1 6595   4.060   3.026   8.908
  431MPD2    H2 6596   4.461   2.903   8.953
  431MPD2    H3 6597   4.280   3.026   8.827
  431MPD2     N 6598   3.973   2.900   9.135
  431MPD2    H5 6599   3.964   2.851   9.224
  431MPD2    N1 6600   4.431   2.780   9.173
  431MPD2    H7 6601   4.526   2.786   9.138
  432MPD2     C 6602   1.112   2.256  12.106
  432MPD2    C1 6603   1.247   2.283  12.127
  432MPD2    C2 6604   1.299   2.289  12.253
  432MPD2    C3 6605   1.221   2.279  12.363
  432MPD2    C4 6606   1.089   2.270  12.348
  432MPD2    C5 6607   1.041   2.254  12.221
  432MPD2     H 6608   1.406   2.293  12.266
  432MPD2    H1 6609   1.024   2.250  12.433
  432MPD2    H2 6610   1.064   2.248  12.010
  432MPD2    H3 6611   0.934   2.240  12.213
  432MPD2     N 6612   1.266   2.285  12.496
  432MPD2    H5 6613   1.197   2.255  12.565
  432MPD2    N1 6614   1.324   2.296  12.010
  432MPD2    H7 6615   1.285   2.260  11.923
  433MPD2     C 6616   0.928   2.885  12.247
  433MPD2    C1 6617   1.013   2.851  12.345
  433MPD2    C2 6618   0.990   2.896  12.469
  433MPD2    C3 6619   0.877   2.963  12.505
  433MPD2    C4 6620   0.784   2.990  12.402
  433MPD2    C5 6621   0.812   2.953  12.273
  433MPD2     H 6622   1.061   2.865  12.544
  433MPD2    H1 6623   0.705   3.061  12.425
  433MPD2    H2 6624   0.936   2.872  12.139
  433MPD2    H3 6625   0.753   2.979  12.186
  433MPD2     N 6626   0.846   3.003  12.636
  433MPD2    H5 6627   0.758   3.054  12.637
  433MPD2    N1 6628   1.136   2.792  12.310
  433MPD2    H7 6629   1.207   2.787  12.382
  434MPD2     C 6630   3.715   3.458  11.494
  434MPD2    C1 6631   3.779   3.554  11.575
  434MPD2    C2 6632   3.886   3.510  11.649
  434MPD2    C3 6633   3.932   3.381  11.645
  434MPD2    C4 6634   3.865   3.288  11.566
  434MPD2    C5 6635   3.762   3.331  11.490
  434MPD2     H 6636   3.933   3.578  11.719
  434MPD2    H1 6637   3.898   3.187  11.544
  434MPD2    H2 6638   3.635   3.488  11.427
  434MPD2    H3 6639   3.708   3.264  11.425
  434MPD2     N 6640   4.056   3.351  11.704
  434MPD2    H5 6641   4.081   3.252  11.699
  434MPD2    N1 6642   3.748   3.694  11.579
  434MPD2    H7 6643   3.795   3.759  11.641
  435MPD2     C 6644   1.530   4.579  12.781
  435MPD2    C1 6645   1.620   4.524  12.691
  435MPD2    C2 6646   1.737   4.596  12.661
  435MPD2    C3 6647   1.768   4.709  12.728
  435MPD2    C4 6648   1.672   4.766  12.813
  435MPD2    C5 6649   1.558   4.698  12.835
  435MPD2     H 6650   1.797   4.563  12.578
  435MPD2    H1 6651   1.675   0.075  12.855
  435MPD2    H2 6652   1.439   4.524  12.803
  435MPD2    H3 6653   1.501   4.729  12.922
  435MPD2     N 6654   1.882   0.003  12.707
  435MPD2    H5 6655   1.885   0.089  12.761
  435MPD2    N1 6656   1.590   4.391  12.655
  435MPD2    H7 6657   1.493   4.362  12.657
  436MPD2     C 6658   1.973   4.038  12.941
  436MPD2    C1 6659   2.062   4.050  12.839
  436MPD2    C2 6660   2.144   3.947  12.810
  436MPD2    C3 6661   2.142   3.828  12.887
  436MPD2    C4 6662   2.056   3.820  12.994
  436MPD2    C5 6663   1.975   3.928  13.017
  436MPD2     H 6664   2.220   3.953  12.733
  436MPD2    H1 6665   2.044   3.727  13.049
  436MPD2    H2 6666   1.903   4.118  12.961
  436MPD2    H3 6667   1.909   3.927  13.103
  436MPD2     N 6668   2.205   3.710  12.841
  436MPD2    H5 6669   2.181   3.626  12.892
  436MPD2    N1 6670   2.083   4.171  12.768
  436MPD2    H7 6671   2.152   4.168  12.694
  437MPD2     C 6672   2.168   4.340  11.886
  437MPD2    C1 6673   2.226   4.253  11.982
  437MPD2    C2 6674   2.223   4.296  12.112
  437MPD2    C3 6675   2.181   4.428  12.139
  437MPD2    C4 6676   2.127   4.513  12.043
  437MPD2    C5 6677   2.123   4.470  11.912
  437MPD2     H 6678   2.251   4.231  12.194
  437MPD2    H1 6679   2.094   4.615  12.063
  437MPD2    H2 6680   2.147   4.302  11.786
  437MPD2    H3 6681   2.090   4.537  11.833
  437MPD2     N 6682   2.179   4.486  12.271
  437MPD2    H5 6683   2.131   4.575  12.277
  437MPD2    N1 6684   2.258   4.117  11.952
  437MPD2    H7 6685   2.278   4.088  11.857
  438MPD2     C 6686   3.617   2.372  12.508
  438MPD2    C1 6687   3.636   2.499  12.565
  438MPD2    C2 6688   3.530   2.585  12.596
  438MPD2    C3 6689   3.408   2.534  12.581
  438MPD2    C4 6690   3.387   2.411  12.519
  438MPD2    C5 6691   3.489   2.326  12.486
  438MPD2     H 6692   3.554   2.680  12.643
  438MPD2    H1 6693   3.283   2.385  12.504
  438MPD2    H2 6694   3.700   2.310  12.476
  438MPD2    H3 6695   3.485   2.226  12.447
  438MPD2     N 6696   3.293   2.606  12.617
  438MPD2    H5 6697   3.202   2.563  12.607
  438MPD2    N1 6698   3.763   2.554  12.591
  438MPD2    H7 6699   3.772   2.641  12.641
  439MPD2     C 6700   2.068   4.084   8.433
  439MPD2    C1 6701   2.043   4.179   8.332
  439MPD2    C2 6702   2.147   4.249   8.269
  439MPD2    C3 6703   2.277   4.229   8.313
  439MPD2    C4 6704   2.299   4.131   8.409
  439MPD2    C5 6705   2.199   4.055   8.460
  439MPD2     H 6706   2.121   4.329   8.201
  439MPD2    H1 6707   2.398   4.102   8.440
  439MPD2    H2 6708   1.988   4.024   8.474
  439MPD2    H3 6709   2.227   3.976   8.529
  439MPD2     N 6710   2.383   4.297   8.241
  439MPD2    H5 6711   2.352   4.367   8.175
  439MPD2    N1 6712   1.917   4.210   8.279
  439MPD2    H7 6713   1.917   4.268   8.196
  440MPD2     C 6714   3.169   0.239   8.321
  440MPD2    C1 6715   3.181   0.103   8.333
  440MPD2    C2 6716   3.069   0.023   8.309
  440MPD2    C3 6717   2.951   0.081   8.266
  440MPD2    C4 6718   2.946   0.214   8.228
  440MPD2    C5 6719   3.053   0.289   8.262
  440MPD2     H 6720   3.074   4.708   8.331
  440MPD2    H1 6721   2.854   0.257   8.190
  440MPD2    H2 6722   3.241   0.316   8.346
  440MPD2    H3 6723   3.057   0.393   8.232
  440MPD2     N 6724   2.835   0.004   8.250
  440MPD2    H5 6725   2.763   0.031   8.183
  440MPD2    N1 6726   3.303   0.057   8.386
  440MPD2    H7 6727   3.375   0.129   8.390
  441MPD2     C 6728   2.940   4.669   7.687
  441MPD2    C1 6729   2.804   4.639   7.709
  441MPD2    C2 6730   2.706   4.674   7.611
  441MPD2    C3 6731   2.743   4.758   7.506
  441MPD2    C4 6732   2.878   4.784   7.491
  441MPD2    C5 6733   2.976   4.737   7.568
  441MPD2     H 6734   2.603   4.643   7.619
  441MPD2    H1 6735   2.913   0.044   7.402
  441MPD2    H2 6736   3.013   4.658   7.767
  441MPD2    H3 6737   3.078   4.772   7.555
  441MPD2     N 6738   2.641   0.026   7.422
  441MPD2    H5 6739   2.545   4.782   7.428
  441MPD2    N1 6740   2.772   4.574   7.821
  441MPD2    H7 6741   2.845   4.572   7.892
  442MPD2     C 6742   0.546   4.091  12.911
  442MPD2    C1 6743   0.539   4.002  13.018
  442MPD2    C2 6744   0.450   4.023  13.125
  442MPD2    C3 6745   0.367   4.138  13.124
  442MPD2    C4 6746   0.379   4.223  13.013
  442MPD2    C5 6747   0.457   4.193  12.904
  442MPD2     H 6748   0.439   3.956  13.210
  442MPD2    H1 6749   0.310   4.306  13.008
  442MPD2    H2 6750   0.618   4.076  12.831
  442MPD2    H3 6751   0.453   4.256  12.816
  442MPD2     N 6752   0.266   4.167  13.218
  442MPD2    H5 6753   0.218   4.255  13.205
  442MPD2    N1 6754   0.634   3.902  13.016
  442MPD2    H7 6755   0.685   3.889  12.929
  443MPD2     C 6756   1.617   3.101  10.533
  443MPD2    C1 6757   1.737   3.033  10.520
  443MPD2    C2 6758   1.758   2.908  10.579
  443MPD2    C3 6759   1.660   2.844  10.651
  443MPD2    C4 6760   1.540   2.914  10.664
  443MPD2    C5 6761   1.519   3.036  10.605
  443MPD2     H 6762   1.859   2.871  10.574
  443MPD2    H1 6763   1.454   2.882  10.722
  443MPD2    H2 6764   1.595   3.192  10.478
  443MPD2    H3 6765   1.433   3.097  10.628
  443MPD2     N 6766   1.672   2.716  10.711
  443MPD2    H5 6767   1.598   2.690  10.775
  443MPD2    N1 6768   1.837   3.088  10.443
  443MPD2    H7 6769   1.816   3.184  10.420
  444MPD2     C 6770   2.405   2.876  10.707
  444MPD2    C1 6771   2.279   2.872  10.639
  444MPD2    C2 6772   2.192   2.767  10.671
  444MPD2    C3 6773   2.221   2.679  10.768
  444MPD2    C4 6774   2.338   2.691  10.840
  444MPD2    C5 6775   2.427   2.785  10.806
  444MPD2     H 6776   2.090   2.772  10.635
  444MPD2    H1 6777   2.368   2.616  10.911
  444MPD2    H2 6778   2.485   2.949  10.697
  444MPD2    H3 6779   2.513   2.797  10.870
  444MPD2     N 6780   2.122   2.590  10.802
  444MPD2    H5 6781   2.043   2.594  10.738
  444MPD2    N1 6782   2.243   2.969  10.551
  444MPD2    H7 6783   2.151   2.954  10.510
  445MPD2     C 6784   2.652   2.782   9.825
  445MPD2    C1 6785   2.683   2.913   9.855
  445MPD2    C2 6786   2.588   2.989   9.922
  445MPD2    C3 6787   2.464   2.934   9.952
  445MPD2    C4 6788   2.427   2.807   9.917
  445MPD2    C5 6789   2.525   2.733   9.847
  445MPD2     H 6790   2.605   3.091   9.958
  445MPD2    H1 6791   2.327   2.767   9.925
  445MPD2    H2 6792   2.720   2.723   9.764
  445MPD2    H3 6793   2.503   2.632   9.814
  445MPD2     N 6794   2.370   3.023  10.015
  445MPD2    H5 6795   2.410   3.112  10.042
  445MPD2    N1 6796   2.817   2.954   9.837
  445MPD2    H7 6797   2.889   2.886   9.815
  446MPD2     C 6798   3.719   1.001  14.507
  446MPD2    C1 6799   3.584   1.020  14.531
  446MPD2    C2 6800   3.516   1.132  14.471
  446MPD2    C3 6801   3.582   1.216  14.386
  446MPD2    C4 6802   3.705   1.179  14.345
  446MPD2    C5 6803   3.773   1.086  14.409
  446MPD2     H 6804   3.420   1.165  14.510
  446MPD2    H1 6805   3.757   1.226  14.262
  446MPD2    H2 6806   3.783   0.928  14.554
  446MPD2    H3 6807   3.872   1.061  14.373
  446MPD2     N 6808   3.515   1.328  14.331
  446MPD2    H5 6809   3.570   1.380  14.264
  446MPD2    N1 6810   3.531   0.960  14.649
  446MPD2    H7 6811   3.600   0.920  14.712
  447MPD2     C 6812   3.379   1.605  14.697
  447MPD2    C1 6813   3.297   1.573  14.805
  447MPD2    C2 6814   3.316   1.467  14.879
  447MPD2    C3 6815   3.412   1.380  14.851
  447MPD2    C4 6816   3.502   1.406  14.745
  447MPD2    C5 6817   3.478   1.520  14.668
  447MPD2     H 6818   3.253   1.457  14.966
  447MPD2    H1 6819   3.586   1.342  14.720
  447MPD2    H2 6820   3.347   1.685  14.632
  447MPD2    H3 6821   3.552   1.541  14.591
  447MPD2     N 6822   3.441   1.267  14.922
  447MPD2    H5 6823   3.524   1.218  14.889
  447MPD2    N1 6824   3.184   1.656  14.840
  447MPD2    H7 6825   3.120   1.613  14.906
  448MPD2     C 6826   2.624   1.126  15.175
  448MPD2    C1 6827   2.675   1.144  15.047
  448MPD2    C2 6828   2.799   1.085  15.017
  448MPD2    C3 6829   2.875   1.027  15.117
  448MPD2    C4 6830   2.834   1.019  15.249
  448MPD2    C5 6831   2.702   1.065  15.272
  448MPD2     H 6832   2.834   1.103  14.916
  448MPD2    H1 6833   2.891   0.964  15.323
  448MPD2    H2 6834   2.526   1.161  15.206
  448MPD2    H3 6835   2.654   1.045  15.367
  448MPD2     N 6836   3.003   0.975  15.090
  448MPD2    H5 6837   3.055   0.931  15.165
  448MPD2    N1 6838   2.603   1.223  14.959
  448MPD2    H7 6839   2.508   1.249  14.985
  449MPD2     C 6840   0.540   4.102   8.564
  449MPD2    C1 6841   0.528   3.981   8.498
  449MPD2    C2 6842   0.520   3.863   8.571
  449MPD2    C3 6843   0.534   3.858   8.710
  449MPD2    C4 6844   0.561   3.981   8.768
  449MPD2    C5 6845   0.568   4.102   8.696
  449MPD2     H 6846   0.503   3.775   8.511
  449MPD2    H1 6847   0.555   3.987   8.876
  449MPD2    H2 6848   0.544   4.199   8.515
  449MPD2    H3 6849   0.576   4.194   8.753
  449MPD2     N 6850   0.507   3.738   8.789
  449MPD2    H5 6851   0.487   3.758   8.886
  449MPD2    N1 6852   0.499   3.975   8.362
  449MPD2    H7 6853   0.468   3.884   8.330
  450MPD2     C 6854   0.673   3.597   9.324
  450MPD2    C1 6855   0.581   3.541   9.243
  450MPD2    C2 6856   0.622   3.433   9.159
  450MPD2    C3 6857   0.756   3.396   9.140
  450MPD2    C4 6858   0.842   3.456   9.237
  450MPD2    C5 6859   0.806   3.566   9.313
  450MPD2     H 6860   0.551   3.360   9.122
  450MPD2    H1 6861   0.949   3.442   9.241
  450MPD2    H2 6862   0.654   3.670   9.402
  450MPD2    H3 6863   0.879   3.627   9.366
  450MPD2     N 6864   0.797   3.293   9.057
  450MPD2    H5 6865   0.722   3.255   9.001
  450MPD2    N1 6866   0.445   3.584   9.262
  450MPD2    H7 6867   0.432   3.657   9.332
  451MPD2     C 6868   3.510   2.893  12.374
  451MPD2    C1 6869   3.384   2.937  12.417
  451MPD2    C2 6870   3.387   3.012  12.533
  451MPD2    C3 6871   3.501   3.045  12.598
  451MPD2    C4 6872   3.620   2.986  12.555
  451MPD2    C5 6873   3.625   2.909  12.444
  451MPD2     H 6874   3.287   3.045  12.559
  451MPD2    H1 6875   3.714   3.007  12.604
  451MPD2    H2 6876   3.524   2.828  12.288
  451MPD2    H3 6877   3.716   2.855  12.419
  451MPD2     N 6878   3.503   3.116  12.720
  451MPD2    H5 6879   3.567   3.082  12.791
  451MPD2    N1 6880   3.263   2.915  12.347
  451MPD2    H7 6881   3.172   2.952  12.372
  452MPD2     C 6882   0.095   2.613   8.898
  452MPD2    C1 6883   0.142   2.566   9.016
  452MPD2    C2 6884   0.266   2.504   9.015
  452MPD2    C3 6885   0.340   2.514   8.904
  452MPD2    C4 6886   0.289   2.561   8.780
  452MPD2    C5 6887   0.157   2.606   8.784
  452MPD2     H 6888   0.310   2.462   9.104
  452MPD2    H1 6889   0.347   2.565   8.688
  452MPD2    H2 6890   4.786   2.653   8.889
  452MPD2    H3 6891   0.116   2.662   8.700
  452MPD2     N 6892   0.478   2.512   8.899
  452MPD2    H5 6893   0.522   2.550   8.816
  452MPD2    N1 6894   0.050   2.578   9.121
  452MPD2    H7 6895   4.773   2.652   9.107
  453MPD2     C 6896   2.356   0.745   7.483
  453MPD2    C1 6897   2.310   0.687   7.370
  453MPD2    C2 6898   2.217   0.760   7.302
  453MPD2    C3 6899   2.163   0.877   7.351
  453MPD2    C4 6900   2.208   0.926   7.466
  453MPD2    C5 6901   2.312   0.866   7.527
  453MPD2     H 6902   2.170   0.719   7.214
  453MPD2    H1 6903   2.174   1.016   7.516
  453MPD2    H2 6904   2.432   0.691   7.538
  453MPD2    H3 6905   2.347   0.903   7.623
  453MPD2     N 6906   2.065   0.959   7.288
  453MPD2    H5 6907   2.014   1.016   7.354
  453MPD2    N1 6908   2.368   0.566   7.336
  453MPD2    H7 6909   2.428   0.521   7.405
  454MPD2     C 6910   2.579   4.318  15.424
  454MPD2    C1 6911   2.629   4.282  15.300
  454MPD2    C2 6912   2.581   4.166  15.232
  454MPD2    C3 6913   2.472   4.101  15.288
  454MPD2    C4 6914   2.417   4.142  15.410
  454MPD2    C5 6915   2.479   4.243  15.481
  454MPD2     H 6916   2.630   4.131  15.142
  454MPD2    H1 6917   2.333   4.084  15.448
  454MPD2    H2 6918   2.618   4.409  15.470
  454MPD2    H3 6919   2.447   4.266  15.582
  454MPD2     N 6920   2.432   3.979  15.230
  454MPD2    H5 6921   2.338   3.952  15.256
  454MPD2    N1 6922   2.743   4.344  15.253
  454MPD2    H7 6923   2.796   4.399  15.319
  455MPD2     C 6924   3.336   4.756  15.352
  455MPD2    C1 6925   3.194   4.755  15.318
  455MPD2    C2 6926   3.113   0.077  15.315
  455MPD2    C3 6927   3.180   0.203  15.324
  455MPD2    C4 6928   3.315   0.205  15.348
  455MPD2    C5 6929   3.391   0.093  15.365
  455MPD2     H 6930   3.010   0.069  15.284
  455MPD2    H1 6931   3.366   0.300  15.357
  455MPD2    H2 6932   3.392   4.664  15.362
  455MPD2    H3 6933   3.497   0.101  15.387
  455MPD2     N 6934   3.117   0.326  15.288
  455MPD2    H5 6935   3.180   0.402  15.266
  455MPD2    N1 6936   3.141   4.640  15.258
  455MPD2    H7 6937   3.048   4.656  15.221
  456MPD2     C 6938   3.325   4.526  14.513
  456MPD2    C1 6939   3.196   4.542  14.558
  456MPD2    C2 6940   3.102   4.609  14.481
  456MPD2    C3 6941   3.141   4.656  14.357
  456MPD2    C4 6942   3.276   4.637  14.311
  456MPD2    C5 6943   3.363   4.567  14.390
  456MPD2     H 6944   3.009   4.650  14.519
  456MPD2    H1 6945   3.315   4.688  14.224
  456MPD2    H2 6946   3.401   4.479  14.574
  456MPD2    H3 6947   3.466   4.552  14.359
  456MPD2     N 6948   3.047   4.725  14.281
  456MPD2    H5 6949   2.955   4.734  14.324
  456MPD2    N1 6950   3.159   4.513  14.691
  456MPD2    H7 6951   3.235   4.488  14.753
  457MPD2     C 6952   4.626   3.983  12.504
  457MPD2    C1 6953   4.641   3.930  12.627
  457MPD2    C2 6954   4.726   3.826  12.648
  457MPD2    C3 6955   0.013   3.773  12.546
  457MPD2    C4 6956   0.000   3.824  12.419
  457MPD2    C5 6957   4.700   3.920  12.399
  457MPD2     H 6958   4.728   3.775  12.743
  457MPD2    H1 6959   0.060   3.789  12.336
  457MPD2    H2 6960   4.568   4.072  12.482
  457MPD2    H3 6961   4.702   3.972  12.304
  457MPD2     N 6962   0.093   3.667  12.580
  457MPD2    H5 6963   0.068   3.633  12.672
  457MPD2    N1 6964   4.562   3.984  12.732
  457MPD2    H7 6965   4.519   4.073  12.708
  458MPD2     C 6966   0.358   3.236  13.400
  458MPD2    C1 6967   0.265   3.168  13.324
  458MPD2    C2 6968   0.254   3.189  13.186
  458MPD2    C3 6969   0.336   3.276  13.128
  458MPD2    C4 6970   0.426   3.347  13.202
  458MPD2    C5 6971   0.427   3.333  13.337
  458MPD2     H 6972   0.166   3.157  13.131
  458MPD2    H1 6973   0.490   3.424  13.159
  458MPD2    H2 6974   0.376   3.242  13.507
  458MPD2    H3 6975   0.485   3.403  13.395
  458MPD2     N 6976   0.322   3.290  12.986
  458MPD2    H5 6977   0.281   3.207  12.947
  458MPD2    N1 6978   0.177   3.073  13.365
  458MPD2    H7 6979   0.095   3.045  13.312
  459MPD2     C 6980   0.111   3.122  12.255
  459MPD2    C1 6981   0.160   3.126  12.386
  459MPD2    C2 6982   0.079   3.143  12.496
  459MPD2    C3 6983   4.728   3.147  12.478
  459MPD2    C4 6984   4.680   3.136  12.344
  459MPD2    C5 6985   4.768   3.126  12.234
  459MPD2     H 6986   0.126   3.146  12.594
  459MPD2    H1 6987   4.574   3.126  12.326
  459MPD2    H2 6988   0.185   3.117  12.176
  459MPD2    H3 6989   4.732   3.109  12.133
  459MPD2     N 6990   4.631   3.147  12.587
  459MPD2    H5 6991   4.533   3.158  12.562
  459MPD2    N1 6992   0.300   3.112  12.407
  459MPD2    H7 6993   0.343   3.068  12.325
  460MPD2     C 6994   1.400   2.099   9.947
  460MPD2    C1 6995   1.403   2.013  10.056
  460MPD2    C2 6996   1.291   1.946  10.094
  460MPD2    C3 6997   1.170   1.956  10.025
  460MPD2    C4 6998   1.165   2.046   9.919
  460MPD2    C5 6999   1.276   2.123   9.888
  460MPD2     H 7000   1.298   1.877  10.178
  460MPD2    H1 7001   1.074   2.061   9.861
  460MPD2    H2 7002   1.483   2.162   9.916
  460MPD2    H3 7003   1.273   2.187   9.801
  460MPD2     N 7004   1.053   1.891  10.060
  460MPD2    H5 7005   0.980   1.906   9.990
  460MPD2    N1 7006   1.519   1.988  10.132
  460MPD2    H7 7007   1.511   1.906  10.191
  461MPD2     C 7008   0.557   1.397  10.539
  461MPD2    C1 7009   0.482   1.514  10.525
  461MPD2    C2 7010   0.358   1.525  10.582
  461MPD2    C3 7011   0.313   1.424  10.668
  461MPD2    C4 7012   0.395   1.315  10.701
  461MPD2    C5 7013   0.512   1.309  10.638
  461MPD2     H 7014   0.289   1.605  10.557
  461MPD2    H1 7015   0.380   1.239  10.777
  461MPD2    H2 7016   0.649   1.374  10.486
  461MPD2    H3 7017   0.571   1.219  10.656
  461MPD2     N 7018   0.194   1.435  10.744
  461MPD2    H5 7019   0.185   1.366  10.818
  461MPD2    N1 7020   0.535   1.616  10.449
  461MPD2    H7 7021   0.466   1.674  10.403
  462MPD2     C 7022   4.532   0.637   9.147
  462MPD2    C1 7023   4.665   0.635   9.108
  462MPD2    C2 7024   4.699   0.634   8.973
  462MPD2    C3 7025   4.601   0.627   8.876
  462MPD2    C4 7026   4.474   0.606   8.919
  462MPD2    C5 7027   4.438   0.620   9.050
  462MPD2     H 7028   0.012   0.650   8.949
  462MPD2    H1 7029   4.389   0.610   8.852
  462MPD2    H2 7030   4.498   0.636   9.250
  462MPD2    H3 7031   4.332   0.619   9.076
  462MPD2     N 7032   4.636   0.645   8.741
  462MPD2    H5 7033   4.733   0.628   8.715
  462MPD2    N1 7034   4.761   0.644   9.217
  462MPD2    H7 7035   4.724   0.637   9.311
  463MPD2     C 7036   1.518   0.515  15.087
  463MPD2    C1 7037   1.429   0.496  14.983
  463MPD2    C2 7038   1.298   0.491  15.017
  463MPD2    C3 7039   1.251   0.498  15.146
  463MPD2    C4 7040   1.344   0.535  15.243
  463MPD2    C5 7041   1.476   0.538  15.214
  463MPD2     H 7042   1.225   0.481  14.937
  463MPD2    H1 7043   1.326   0.560  15.347
  463MPD2    H2 7044   1.624   0.522  15.067
  463MPD2    H3 7045   1.555   0.567  15.282
  463MPD2     N 7046   1.111   0.486  15.163
  463MPD2    H5 7047   1.054   0.453  15.086
  463MPD2    N1 7048   1.459   0.492  14.846
  463MPD2    H7 7049   1.386   0.477  14.777
  464MPD2     C 7050   2.131   0.996  14.374
  464MPD2    C1 7051   1.995   1.022  14.376
  464MPD2    C2 7052   1.906   0.913  14.395
  464MPD2    C3 7053   1.951   0.784  14.410
  464MPD2    C4 7054   2.087   0.762  14.429
  464MPD2    C5 7055   2.176   0.865  14.403
  464MPD2     H 7056   1.800   0.936  14.396
  464MPD2    H1 7057   2.115   0.666  14.472
  464MPD2    H2 7058   2.201   1.076  14.353
  464MPD2    H3 7059   2.281   0.847  14.422
  464MPD2     N 7060   1.861   0.673  14.416
  464MPD2    H5 7061   1.916   0.591  14.443
  464MPD2    N1 7062   1.952   1.153  14.338
  464MPD2    H7 7063   2.030   1.214  14.315
  465MPD2     C 7064   1.613   1.269  12.521
  465MPD2    C1 7065   1.702   1.186  12.586
  465MPD2    C2 7066   1.832   1.232  12.592
  465MPD2    C3 7067   1.870   1.355  12.562
  465MPD2    C4 7068   1.774   1.440  12.526
  465MPD2    C5 7069   1.647   1.403  12.506
  465MPD2     H 7070   1.905   1.157  12.621
  465MPD2    H1 7071   1.781   1.547  12.512
  465MPD2    H2 7072   1.509   1.238  12.519
  465MPD2    H3 7073   1.575   1.479  12.476
  465MPD2     N 7074   2.011   1.385  12.578
  465MPD2    H5 7075   2.070   1.303  12.588
  465MPD2    N1 7076   1.655   1.064  12.643
  465MPD2    H7 7077   1.555   1.057  12.659
  466MPD2     C 7078   3.284   0.084  10.813
  466MPD2    C1 7079   3.239   0.098  10.943
  466MPD2    C2 7080   3.322   0.075  11.050
  466MPD2    C3 7081   3.449   0.020  11.028
  466MPD2    C4 7082   3.484   0.000  10.904
  466MPD2    C5 7083   3.411   0.035  10.794
  466MPD2     H 7084   3.277   0.091  11.147
  466MPD2    H1 7085   3.580   4.744  10.887
  466MPD2    H2 7086   3.219   0.110  10.730
  466MPD2    H3 7087   3.439   0.010  10.692
  466MPD2     N 7088   3.554   4.784  11.128
  466MPD2    H5 7089   3.637   4.731  11.104
  466MPD2    N1 7090   3.105   0.128  10.972
  466MPD2    H7 7091   3.075   0.124  11.069
  467MPD2     C 7092   2.564   4.159  10.658
  467MPD2    C1 7093   2.678   4.230  10.623
  467MPD2    C2 7094   2.714   4.324  10.717
  467MPD2    C3 7095   2.635   4.362  10.824
  467MPD2    C4 7096   2.517   4.300  10.846
  467MPD2    C5 7097   2.482   4.193  10.762
  467MPD2     H 7098   2.811   4.373  10.708
  467MPD2    H1 7099   2.462   4.319  10.938
  467MPD2    H2 7100   2.539   4.064  10.613
  467MPD2    H3 7101   2.414   4.115  10.793
  467MPD2     N 7102   2.656   4.486  10.886
  467MPD2    H5 7103   2.586   4.511  10.956
  467MPD2    N1 7104   2.758   4.205  10.506
  467MPD2    H7 7105   2.855   4.235  10.502
  468MPD2     C 7106   2.289   4.389   8.812
  468MPD2    C1 7107   2.357   4.433   8.698
  468MPD2    C2 7108   2.437   4.333   8.637
  468MPD2    C3 7109   2.462   4.210   8.700
  468MPD2    C4 7110   2.388   4.169   8.807
  468MPD2    C5 7111   2.301   4.260   8.866
  468MPD2     H 7112   2.497   4.357   8.550
  468MPD2    H1 7113   2.395   4.072   8.854
  468MPD2    H2 7114   2.221   4.457   8.861
  468MPD2    H3 7115   2.240   4.227   8.950
  468MPD2     N 7116   2.555   4.119   8.649
  468MPD2    H5 7117   2.603   4.141   8.562
  468MPD2    N1 7118   2.346   4.566   8.658
  468MPD2    H7 7119   2.299   4.631   8.720
  469MPD2     C 7120   3.327   4.204   8.426
  469MPD2    C1 7121   3.280   4.126   8.529
  469MPD2    C2 7122   3.374   4.087   8.623
  469MPD2    C3 7123   3.502   4.129   8.611
  469MPD2    C4 7124   3.552   4.212   8.518
  469MPD2    C5 7125   3.456   4.252   8.424
  469MPD2     H 7126   3.345   4.016   8.700
  469MPD2    H1 7127   3.651   4.253   8.507
  469MPD2    H2 7128   3.268   4.243   8.344
  469MPD2    H3 7129   3.485   4.317   8.343
  469MPD2     N 7130   3.594   4.051   8.693
  469MPD2    H5 7131   3.545   3.987   8.754
  469MPD2    N1 7132   3.143   4.079   8.521
  469MPD2    H7 7133   3.101   4.128   8.442
  470MPD2     C 7134   1.587   0.898  12.375
  470MPD2    C1 7135   1.708   0.943  12.332
  470MPD2    C2 7136   1.822   0.859  12.350
  470MPD2    C3 7137   1.805   0.724  12.384
  470MPD2    C4 7138   1.677   0.685  12.427
  470MPD2    C5 7139   1.573   0.771  12.426
  470MPD2     H 7140   1.924   0.888  12.327
  470MPD2    H1 7141   1.650   0.589  12.470
  470MPD2    H2 7142   1.506   0.967  12.393
  470MPD2    H3 7143   1.474   0.744  12.462
  470MPD2     N 7144   1.919   0.635  12.380
  470MPD2    H5 7145   2.012   0.668  12.357
  470MPD2    N1 7146   1.708   1.074  12.273
  470MPD2    H7 7147   1.619   1.122  12.273
  471MPD2     C 7148   1.285   1.484  11.848
  471MPD2    C1 7149   1.408   1.543  11.833
  471MPD2    C2 7150   1.436   1.617  11.726
  471MPD2    C3 7151   1.344   1.636  11.626
  471MPD2    C4 7152   1.221   1.573  11.646
  471MPD2    C5 7153   1.188   1.508  11.760
  471MPD2     H 7154   1.533   1.665  11.723
  471MPD2    H1 7155   1.138   1.582  11.576
  471MPD2    H2 7156   1.262   1.414  11.928
  471MPD2    H3 7157   1.098   1.447  11.766
  471MPD2     N 7158   1.375   1.695  11.501
  471MPD2    H5 7159   1.310   1.675  11.426
  471MPD2    N1 7160   1.517   1.517  11.925
  471MPD2    H7 7161   1.603   1.565  11.899
  472MPD2     C 7162   2.714   0.248   9.844
  472MPD2    C1 7163   2.841   0.234   9.790
  472MPD2    C2 7164   2.931   0.336   9.786
  472MPD2    C3 7165   2.912   0.453   9.857
  472MPD2    C4 7166   2.792   0.467   9.912
  472MPD2    C5 7167   2.686   0.378   9.897
  472MPD2     H 7168   3.023   0.299   9.744
  472MPD2    H1 7169   2.780   0.561   9.964
  472MPD2    H2 7170   2.636   0.174   9.843
  472MPD2    H3 7171   2.589   0.398   9.941
  472MPD2     N 7172   3.010   0.547   9.882
  472MPD2    H5 7173   2.989   0.637   9.924
  472MPD2    N1 7174   2.880   0.109   9.736
  472MPD2    H7 7175   2.960   0.114   9.674
  473MPD2     C 7176   3.696   0.513   9.813
  473MPD2    C1 7177   3.627   0.628   9.798
  473MPD2    C2 7178   3.593   0.695   9.911
  473MPD2    C3 7179   3.632   0.643  10.033
  473MPD2    C4 7180   3.711   0.532  10.045
  473MPD2    C5 7181   3.747   0.472   9.934
  473MPD2     H 7182   3.533   0.786   9.904
  473MPD2    H1 7183   3.746   0.492  10.139
  473MPD2    H2 7184   3.744   0.462   9.730
  473MPD2    H3 7185   3.810   0.384   9.935
  473MPD2     N 7186   3.620   0.716  10.155
  473MPD2    H5 7187   3.679   0.693  10.234
  473MPD2    N1 7188   3.592   0.671   9.671
  473MPD2    H7 7189   3.650   0.633   9.598
  474MPD2     C 7190   1.140   4.310  14.812
  474MPD2    C1 7191   1.229   4.275  14.714
  474MPD2    C2 7192   1.233   4.342  14.592
  474MPD2    C3 7193   1.145   4.442  14.568
  474MPD2    C4 7194   1.055   4.474  14.664
  474MPD2    C5 7195   1.049   4.410  14.786
  474MPD2     H 7196   1.301   4.310  14.514
  474MPD2    H1 7197   0.976   4.544  14.639
  474MPD2    H2 7198   1.157   4.274  14.913
  474MPD2    H3 7199   0.983   4.442  14.866
  474MPD2     N 7200   1.134   4.512  14.448
  474MPD2    H5 7201   1.088   4.603  14.447
  474MPD2    N1 7202   1.333   4.183  14.747
  474MPD2    H7 7203   1.332   4.144  14.841
  475MPD2     C 7204   2.164   2.288   9.895
  475MPD2    C1 7205   2.052   2.213   9.863
  475MPD2    C2 7206   1.926   2.265   9.908
  475MPD2    C3 7207   1.914   2.379   9.981
  475MPD2    C4 7208   2.027   2.450  10.013
  475MPD2    C5 7209   2.139   2.403   9.972
  475MPD2     H 7210   1.841   2.204   9.880
  475MPD2    H1 7211   2.023   2.537  10.078
  475MPD2    H2 7212   2.263   2.253   9.869
  475MPD2    H3 7213   2.228   2.459   9.999
  475MPD2     N 7214   1.783   2.427  10.012
  475MPD2    H5 7215   1.709   2.359   9.999
  475MPD2    N1 7216   2.070   2.088   9.804
  475MPD2    H7 7217   2.163   2.056   9.780
  476MPD2     C 7218   2.148   1.273   9.843
  476MPD2    C1 7219   2.121   1.405   9.875
  476MPD2    C2 7220   2.062   1.438   9.994
  476MPD2    C3 7221   2.015   1.341  10.081
  476MPD2    C4 7222   2.031   1.206  10.050
  476MPD2    C5 7223   2.098   1.176   9.929
  476MPD2     H 7224   2.045   1.541  10.025
  476MPD2    H1 7225   1.999   1.130  10.120
  476MPD2    H2 7226   2.202   1.240   9.756
  476MPD2    H3 7227   2.109   1.073   9.898
  476MPD2     N 7228   1.957   1.378  10.203
  476MPD2    H5 7229   1.969   1.473  10.238
  476MPD2    N1 7230   2.154   1.497   9.772
  476MPD2    H7 7231   2.192   1.460   9.686
  477MPD2     C 7232   2.112   3.533  12.410
  477MPD2    C1 7233   2.137   3.664  12.371
  477MPD2    C2 7234   2.065   3.768  12.433
  477MPD2    C3 7235   1.975   3.745  12.528
  477MPD2    C4 7236   1.955   3.617  12.569
  477MPD2    C5 7237   2.019   3.508  12.508
  477MPD2     H 7238   2.090   3.871  12.410
  477MPD2    H1 7239   1.887   3.592  12.650
  477MPD2    H2 7240   2.170   3.451  12.368
  477MPD2    H3 7241   2.008   3.409  12.550
  477MPD2     N 7242   1.904   3.855  12.572
  477MPD2    H5 7243   1.934   3.939  12.523
  477MPD2    N1 7244   2.222   3.696  12.259
  477MPD2    H7 7245   2.228   3.795  12.238
  478MPD2     C 7246   1.997   1.512  12.973
  478MPD2    C1 7247   2.059   1.490  13.096
  478MPD2    C2 7248   2.180   1.548  13.129
  478MPD2    C3 7249   2.233   1.647  13.042
  478MPD2    C4 7250   2.157   1.684  12.929
  478MPD2    C5 7251   2.046   1.606  12.890
  478MPD2     H 7252   2.236   1.514  13.216
  478MPD2    H1 7253   2.186   1.770  12.870
  478MPD2    H2 7254   1.915   1.454  12.934
  478MPD2    H3 7255   1.994   1.644  12.803
  478MPD2     N 7256   2.334   1.740  13.078
  478MPD2    H5 7257   2.345   1.817  13.013
  478MPD2    N1 7258   2.007   1.404  13.194
  478MPD2    H7 7259   2.073   1.374  13.265
  479MPD2     C 7260   2.276   2.491  13.097
  479MPD2    C1 7261   2.334   2.442  13.211
  479MPD2    C2 7262   2.411   2.529  13.282
  479MPD2    C3 7263   2.422   2.664  13.257
  479MPD2    C4 7264   2.358   2.711  13.144
  479MPD2    C5 7265   2.286   2.624  13.065
  479MPD2     H 7266   2.464   2.485  13.366
  479MPD2    H1 7267   2.357   2.815  13.111
  479MPD2    H2 7268   2.213   2.430  13.033
  479MPD2    H3 7269   2.233   2.666  12.981
  479MPD2     N 7270   2.505   2.755  13.325
  479MPD2    H5 7271   2.502   2.852  13.294
  479MPD2    N1 7272   2.327   2.306  13.252
  479MPD2    H7 7273   2.350   2.299  13.351
  480MPD2     C 7274   3.408   3.089   8.074
  480MPD2    C1 7275   3.284   3.047   8.034
  480MPD2    C2 7276   3.223   2.953   8.118
  480MPD2    C3 7277   3.297   2.893   8.222
  480MPD2    C4 7278   3.423   2.923   8.250
  480MPD2    C5 7279   3.475   3.024   8.175
  480MPD2     H 7280   3.121   2.923   8.097
  480MPD2    H1 7281   3.477   2.874   8.329
  480MPD2    H2 7282   3.445   3.167   8.008
  480MPD2    H3 7283   3.577   3.049   8.203
  480MPD2     N 7284   3.239   2.801   8.316
  480MPD2    H5 7285   3.291   2.796   8.403
  480MPD2    N1 7286   3.218   3.111   7.924
  480MPD2    H7 7287   3.285   3.163   7.868
  481MPD2     C 7288   2.794   4.532  13.964
  481MPD2    C1 7289   2.920   4.490  13.933
  481MPD2    C2 7290   2.983   4.417  14.033
  481MPD2    C3 7291   2.918   4.382  14.149
  481MPD2    C4 7292   2.797   4.443  14.180
  481MPD2    C5 7293   2.738   4.515  14.081
  481MPD2     H 7294   3.082   4.376  14.019
  481MPD2    H1 7295   2.743   4.419  14.271
  481MPD2    H2 7296   2.734   4.583  13.889
  481MPD2    H3 7297   2.633   4.537  14.091
  481MPD2     N 7298   2.985   4.307  14.242
  481MPD2    H5 7299   2.938   4.305  14.332
  481MPD2    N1 7300   2.970   4.512  13.802
  481MPD2    H7 7301   2.902   4.557  13.741
  482MPD2     C 7302   2.589   4.584  13.465
  482MPD2    C1 7303   2.723   4.616  13.443
  482MPD2    C2 7304   2.783   4.706  13.533
  482MPD2    C3 7305   2.718   4.765  13.639
  482MPD2    C4 7306   2.593   4.729  13.656
  482MPD2    C5 7307   2.525   4.647  13.572
  482MPD2     H 7308   2.885   4.739  13.518
  482MPD2    H1 7309   2.532   4.768  13.737
  482MPD2    H2 7310   2.527   4.522  13.401
  482MPD2    H3 7311   2.418   4.635  13.586
  482MPD2     N 7312   2.795   0.054  13.734
  482MPD2    H5 7313   2.896   0.051  13.732
  482MPD2    N1 7314   2.790   4.553  13.325
  482MPD2    H7 7315   2.721   4.509  13.265
  483MPD2     C 7316   3.644   0.312  13.588
  483MPD2    C1 7317   3.627   0.259  13.464
  483MPD2    C2 7318   3.539   0.154  13.443
  483MPD2    C3 7319   3.472   0.100  13.555
  483MPD2    C4 7320   3.493   0.154  13.676
  483MPD2    C5 7321   3.575   0.262  13.692
  483MPD2     H 7322   3.510   0.104  13.351
  483MPD2    H1 7323   3.441   0.128  13.768
  483MPD2    H2 7324   3.711   0.392  13.617
  483MPD2    H3 7325   3.582   0.297  13.794
  483MPD2     N 7326   3.395   4.774  13.553
  483MPD2    H5 7327   3.344   4.750  13.637
  483MPD2    N1 7328   3.714   0.312  13.374
  483MPD2    H7 7329   3.759   0.400  13.399
  484MPD2     C 7330   1.549   2.009  10.708
  484MPD2    C1 7331   1.453   1.943  10.779
  484MPD2    C2 7332   1.319   1.941  10.737
  484MPD2    C3 7333   1.283   2.013  10.622
  484MPD2    C4 7334   1.379   2.088  10.558
  484MPD2    C5 7335   1.510   2.087  10.603
  484MPD2     H 7336   1.243   1.895  10.799
  484MPD2    H1 7337   1.355   2.146  10.469
  484MPD2    H2 7338   1.653   2.016  10.738
  484MPD2    H3 7339   1.585   2.142  10.548
  484MPD2     N 7340   1.147   2.021  10.576
  484MPD2    H5 7341   1.124   2.101  10.517
  484MPD2    N1 7342   1.497   1.882  10.895
  484MPD2    H7 7343   1.597   1.886  10.907
  485MPD2     C 7344   3.911   1.745  11.569
  485MPD2    C1 7345   3.987   1.641  11.527
  485MPD2    C2 7346   3.930   1.532  11.458
  485MPD2    C3 7347   3.794   1.531  11.429
  485MPD2    C4 7348   3.721   1.638  11.480
  485MPD2    C5 7349   3.780   1.743  11.545
  485MPD2     H 7350   3.998   1.459  11.414
  485MPD2    H1 7351   3.614   1.642  11.463
  485MPD2    H2 7352   3.949   1.829  11.624
  485MPD2    H3 7353   3.710   1.822  11.571
  485MPD2     N 7354   3.723   1.433  11.360
  485MPD2    H5 7355   3.631   1.456  11.325
  485MPD2    N1 7356   4.122   1.641  11.569
  485MPD2    H7 7357   4.176   1.725  11.588
  486MPD2     C 7358   3.922   1.230  12.032
  486MPD2    C1 7359   3.972   1.309  11.932
  486MPD2    C2 7360   4.005   1.438  11.964
  486MPD2    C3 7361   3.984   1.485  12.095
  486MPD2    C4 7362   3.937   1.404  12.192
  486MPD2    C5 7363   3.905   1.274  12.162
  486MPD2     H 7364   4.044   1.507  11.891
  486MPD2    H1 7365   3.929   1.426  12.297
  486MPD2    H2 7366   3.884   1.132  12.005
  486MPD2    H3 7367   3.857   1.220  12.242
  486MPD2     N 7368   4.030   1.614  12.124
  486MPD2    H5 7369   4.076   1.665  12.048
  486MPD2    N1 7370   3.991   1.266  11.796
  486MPD2    H7 7371   4.024   1.334  11.728
  487MPD2     C 7372   1.982   4.189   7.666
  487MPD2    C1 7373   2.002   4.206   7.532
  487MPD2    C2 7374   2.063   4.097   7.466
  487MPD2    C3 7375   2.108   3.983   7.526
  487MPD2    C4 7376   2.084   3.970   7.659
  487MPD2    C5 7377   2.015   4.068   7.725
  487MPD2     H 7378   2.082   4.097   7.359
  487MPD2    H1 7379   2.118   3.879   7.708
  487MPD2    H2 7380   1.940   4.272   7.723
  487MPD2    H3 7381   2.008   4.056   7.833
  487MPD2     N 7382   2.191   3.889   7.454
  487MPD2    H5 7383   2.221   3.907   7.359
  487MPD2    N1 7384   1.961   4.322   7.471
  487MPD2    H7 7385   1.936   4.399   7.533
  488MPD2     C 7386   2.616   3.310   7.776
  488MPD2    C1 7387   2.689   3.415   7.717
  488MPD2    C2 7388   2.807   3.458   7.780
  488MPD2    C3 7389   2.851   3.393   7.894
  488MPD2    C4 7390   2.772   3.292   7.947
  488MPD2    C5 7391   2.670   3.235   7.876
  488MPD2     H 7392   2.857   3.548   7.746
  488MPD2    H1 7393   2.794   3.259   8.048
  488MPD2    H2 7394   2.534   3.260   7.725
  488MPD2    H3 7395   2.612   3.151   7.914
  488MPD2     N 7396   2.953   3.436   7.977
  488MPD2    H5 7397   2.966   3.383   8.063
  488MPD2    N1 7398   2.622   3.485   7.613
  488MPD2    H7 7399   2.526   3.457   7.600
  489MPD2     C 7400   1.097   2.390  11.710
  489MPD2    C1 7401   1.105   2.497  11.626
  489MPD2    C2 7402   0.992   2.560  11.584
  489MPD2    C3 7403   0.869   2.515  11.632
  489MPD2    C4 7404   0.865   2.405  11.714
  489MPD2    C5 7405   0.977   2.338  11.754
  489MPD2     H 7406   0.986   2.641  11.513
  489MPD2    H1 7407   0.771   2.372  11.758
  489MPD2    H2 7408   1.187   2.337  11.740
  489MPD2    H3 7409   0.968   2.255  11.822
  489MPD2     N 7410   0.745   2.578  11.586
  489MPD2    H5 7411   0.751   2.659  11.526
  489MPD2    N1 7412   1.219   2.532  11.558
  489MPD2    H7 7413   1.220   2.623  11.514
  490MPD2     C 7414   3.570   2.738  13.759
  490MPD2    C1 7415   3.673   2.796  13.819
  490MPD2    C2 7416   3.731   2.906  13.758
  490MPD2    C3 7417   3.686   2.953  13.635
  490MPD2    C4 7418   3.580   2.893  13.579
  490MPD2    C5 7419   3.529   2.778  13.636
  490MPD2     H 7420   3.821   2.949  13.801
  490MPD2    H1 7421   3.545   2.924  13.481
  490MPD2    H2 7422   3.523   2.655  13.811
  490MPD2    H3 7423   3.465   2.715  13.575
  490MPD2     N 7424   3.752   3.069  13.589
  490MPD2    H5 7425   3.811   3.121  13.654
  490MPD2    N1 7426   3.725   2.744  13.939
  490MPD2    H7 7427   3.680   2.660  13.974
  491MPD2     C 7428   3.752   3.549  12.712
  491MPD2    C1 7429   3.721   3.585  12.844
  491MPD2    C2 7430   3.706   3.481  12.933
  491MPD2    C3 7431   3.723   3.349  12.903
  491MPD2    C4 7432   3.770   3.315  12.777
  491MPD2    C5 7433   3.784   3.418  12.689
  491MPD2     H 7434   3.671   3.508  13.032
  491MPD2    H1 7435   3.790   3.214  12.742
  491MPD2    H2 7436   3.764   3.613  12.626
  491MPD2    H3 7437   3.832   3.390  12.596
  491MPD2     N 7438   3.697   3.250  13.007
  491MPD2    H5 7439   3.695   3.285  13.102
  491MPD2    N1 7440   3.687   3.720  12.876
  491MPD2    H7 7441   3.656   3.726  12.972
  492MPD2     C 7442   0.694   1.540  12.310
  492MPD2    C1 7443   0.740   1.427  12.247
  492MPD2    C2 7444   0.740   1.411  12.107
  492MPD2    C3 7445   0.685   1.509  12.027
  492MPD2    C4 7446   0.635   1.623  12.089
  492MPD2    C5 7447   0.633   1.626  12.226
  492MPD2     H 7448   0.793   1.325  12.067
  492MPD2    H1 7449   0.591   1.709  12.041
  492MPD2    H2 7450   0.700   1.544  12.418
  492MPD2    H3 7451   0.608   1.723  12.268
  492MPD2     N 7452   0.707   1.499  11.887
  492MPD2    H5 7453   0.747   1.409  11.861
  492MPD2    N1 7454   0.802   1.316  12.311
  492MPD2    H7 7455   0.833   1.242  12.249
  493MPD2     C 7456   1.401   1.427  12.745
  493MPD2    C1 7457   1.309   1.425  12.645
  493MPD2    C2 7458   1.287   1.539  12.567
  493MPD2    C3 7459   1.351   1.658  12.591
  493MPD2    C4 7460   1.427   1.668  12.706
  493MPD2    C5 7461   1.447   1.551  12.778
  493MPD2     H 7462   1.206   1.529  12.495
  493MPD2    H1 7463   1.485   1.750  12.747
  493MPD2    H2 7464   1.420   1.333  12.797
  493MPD2    H3 7465   1.522   1.559  12.856
  493MPD2     N 7466   1.319   1.762  12.503
  493MPD2    H5 7467   1.294   1.731  12.410
  493MPD2    N1 7468   1.244   1.312  12.598
  493MPD2    H7 7469   1.184   1.325  12.517
  494MPD2     C 7470   3.300   2.281  11.036
  494MPD2    C1 7471   3.348   2.190  11.119
  494MPD2    C2 7472   3.482   2.157  11.116
  494MPD2    C3 7473   3.570   2.217  11.027
  494MPD2    C4 7474   3.514   2.301  10.935
  494MPD2    C5 7475   3.381   2.336  10.942
  494MPD2     H 7476   3.506   2.089  11.196
  494MPD2    H1 7477   3.573   2.341  10.853
  494MPD2    H2 7478   3.197   2.315  11.033
  494MPD2    H3 7479   3.337   2.406  10.873
  494MPD2     N 7480   3.708   2.197  11.034
  494MPD2    H5 7481   3.744   2.156  11.120
  494MPD2    N1 7482   3.266   2.104  11.196
  494MPD2    H7 7483   3.316   2.031  11.245
  495MPD2     C 7484   2.701   1.295  11.156
  495MPD2    C1 7485   2.767   1.273  11.268
  495MPD2    C2 7486   2.832   1.383  11.326
  495MPD2    C3 7487   2.841   1.505  11.267
  495MPD2    C4 7488   2.772   1.519  11.145
  495MPD2    C5 7489   2.698   1.415  11.099
  495MPD2     H 7490   2.874   1.385  11.425
  495MPD2    H1 7491   2.764   1.613  11.091
  495MPD2    H2 7492   2.636   1.226  11.103
  495MPD2    H3 7493   2.657   1.412  10.999
  495MPD2     N 7494   2.904   1.611  11.337
  495MPD2    H5 7495   2.948   1.587  11.425
  495MPD2    N1 7496   2.770   1.144  11.334
  495MPD2    H7 7497   2.853   1.142  11.392
  496MPD2     C 7498   2.775   0.747   9.421
  496MPD2    C1 7499   2.680   0.841   9.402
  496MPD2    C2 7500   2.651   0.915   9.513
  496MPD2    C3 7501   2.713   0.905   9.640
  496MPD2    C4 7502   2.818   0.812   9.656
  496MPD2    C5 7503   2.830   0.737   9.542
  496MPD2     H 7504   2.568   0.982   9.493
  496MPD2    H1 7505   2.864   0.787   9.751
  496MPD2    H2 7506   2.793   0.668   9.349
  496MPD2    H3 7507   2.905   0.660   9.552
  496MPD2     N 7508   2.679   1.007   9.740
  496MPD2    H5 7509   2.615   1.076   9.701
  496MPD2    N1 7510   2.607   0.861   9.284
  496MPD2    H7 7511   2.538   0.935   9.288
  497MPD2     C 7512   4.498   1.449   9.245
  497MPD2    C1 7513   4.493   1.385   9.127
  497MPD2    C2 7514   4.402   1.279   9.115
  497MPD2    C3 7515   4.309   1.248   9.218
  497MPD2    C4 7516   4.325   1.318   9.337
  497MPD2    C5 7517   4.417   1.416   9.352
  497MPD2     H 7518   4.392   1.215   9.028
  497MPD2    H1 7519   4.280   1.279   9.427
  497MPD2    H2 7520   4.563   1.534   9.261
  497MPD2    H3 7521   4.439   1.468   9.445
  497MPD2     N 7522   4.205   1.153   9.199
  497MPD2    H5 7523   4.203   1.099   9.113
  497MPD2    N1 7524   4.596   1.417   9.030
  497MPD2    H7 7525   4.654   1.497   9.052
  498MPD2     C 7526   3.693   1.046   9.728
  498MPD2    C1 7527   3.794   0.951   9.724
  498MPD2    C2 7528   3.856   0.913   9.843
  498MPD2    C3 7529   3.837   0.990   9.955
  498MPD2    C4 7530   3.740   1.083   9.971
  498MPD2    C5 7531   3.665   1.105   9.850
  498MPD2     H 7532   3.926   0.831   9.836
  498MPD2    H1 7533   3.733   1.141  10.063
  498MPD2    H2 7534   3.641   1.084   9.641
  498MPD2    H3 7535   3.587   1.181   9.849
  498MPD2     N 7536   3.936   0.971  10.050
  498MPD2    H5 7537   4.006   0.914  10.003
  498MPD2    N1 7538   3.835   0.899   9.598
  498MPD2    H7 7539   3.777   0.925   9.519
  499MPD2     C 7540   4.605   1.149   9.551
  499MPD2    C1 7541   4.487   1.103   9.600
  499MPD2    C2 7542   4.423   1.013   9.521
  499MPD2    C3 7543   4.471   0.966   9.398
  499MPD2    C4 7544   4.582   1.025   9.348
  499MPD2    C5 7545   4.648   1.118   9.419
  499MPD2     H 7546   4.329   0.968   9.553
  499MPD2    H1 7547   4.619   1.014   9.247
  499MPD2    H2 7548   4.665   1.219   9.609
  499MPD2    H3 7549   4.730   1.173   9.375
  499MPD2     N 7550   4.397   0.880   9.317
  499MPD2    H5 7551   4.406   0.892   9.217
  499MPD2    N1 7552   4.438   1.148   9.724
  499MPD2    H7 7553   4.504   1.201   9.779
  500MPD2     C 7554   2.014   3.099  11.648
  500MPD2    C1 7555   2.061   3.027  11.535
  500MPD2    C2 7556   2.034   3.078  11.410
  500MPD2    C3 7557   1.986   3.207  11.402
  500MPD2    C4 7558   1.952   3.285  11.514
  500MPD2    C5 7559   1.971   3.229  11.640
  500MPD2     H 7560   2.062   3.028  11.318
  500MPD2    H1 7561   1.913   3.386  11.502
  500MPD2    H2 7562   2.028   3.053  11.746
  500MPD2    H3 7563   1.936   3.275  11.732
  500MPD2     N 7564   1.965   3.253  11.271
  500MPD2    H5 7565   2.003   3.190  11.201
  500MPD2    N1 7566   2.095   2.894  11.558
  500MPD2    H7 7567   2.113   2.860  11.652
  501MPD2     C 7568   2.743   2.733  11.721
  501MPD2    C1 7569   2.663   2.813  11.649
  501MPD2    C2 7570   2.684   2.945  11.644
  501MPD2    C3 7571   2.794   2.997  11.705
  501MPD2    C4 7572   2.885   2.913  11.772
  501MPD2    C5 7573   2.860   2.780  11.771
  501MPD2     H 7574   2.623   3.014  11.586
  501MPD2    H1 7575   2.974   2.955  11.816
  501MPD2    H2 7576   2.732   2.627  11.737
  501MPD2    H3 7577   2.913   2.714  11.839
  501MPD2     N 7578   2.817   3.133  11.721
  501MPD2    H5 7579   2.901   3.162  11.769
  501MPD2    N1 7580   2.552   2.765  11.583
  501MPD2    H7 7581   2.508   2.826  11.515
  502MPD2     C 7582   1.877   2.204  11.405
  502MPD2    C1 7583   2.013   2.210  11.386
  502MPD2    C2 7584   2.079   2.093  11.375
  502MPD2    C3 7585   2.020   1.972  11.413
  502MPD2    C4 7586   1.887   1.968  11.440
  502MPD2    C5 7587   1.817   2.084  11.441
  502MPD2     H 7588   2.186   2.100  11.362
  502MPD2    H1 7589   1.831   1.877  11.458
  502MPD2    H2 7590   1.816   2.293  11.393
  502MPD2    H3 7591   1.710   2.085  11.460
  502MPD2     N 7592   2.099   1.865  11.424
  502MPD2    H5 7593   2.198   1.889  11.427
  502MPD2    N1 7594   2.073   2.332  11.367
  502MPD2    H7 7595   2.013   2.408  11.395
  503MPD2     C 7596   3.358   2.868  10.775
  503MPD2    C1 7597   3.476   2.879  10.701
  503MPD2    C2 7598   3.591   2.830  10.766
  503MPD2    C3 7599   3.584   2.773  10.889
  503MPD2    C4 7600   3.464   2.767  10.960
  503MPD2    C5 7601   3.353   2.811  10.897
  503MPD2     H 7602   3.681   2.826  10.704
  503MPD2    H1 7603   3.456   2.732  11.063
  503MPD2    H2 7604   3.262   2.886  10.727
  503MPD2    H3 7605   3.260   2.814  10.953
  503MPD2     N 7606   3.696   2.735  10.963
  503MPD2    H5 7607   3.687   2.747  11.064
  503MPD2    N1 7608   3.476   2.936  10.573
  503MPD2    H7 7609   3.396   2.987  10.538
  504MPD2     C 7610   3.383   2.368  10.525
  504MPD2    C1 7611   3.432   2.493  10.513
  504MPD2    C2 7612   3.342   2.597  10.497
  504MPD2    C3 7613   3.201   2.576  10.506
  504MPD2    C4 7614   3.156   2.452  10.529
  504MPD2    C5 7615   3.242   2.350  10.531
  504MPD2     H 7616   3.373   2.701  10.500
  504MPD2    H1 7617   3.050   2.431  10.527
  504MPD2    H2 7618   3.448   2.286  10.551
  504MPD2    H3 7619   3.199   2.254  10.556
  504MPD2     N 7620   3.118   2.692  10.502
  504MPD2    H5 7621   3.163   2.783  10.506
  504MPD2    N1 7622   3.568   2.519  10.537
  504MPD2    H7 7623   3.587   2.619  10.543
  505MPD2     C 7624   4.519   0.738  12.680
  505MPD2    C1 7625   4.563   0.760  12.549
  505MPD2    C2 7626   4.697   0.734  12.509
  505MPD2    C3 7627   4.788   0.675  12.599
  505MPD2    C4 7628   4.729   0.636  12.723
  505MPD2    C5 7629   4.605   0.673  12.763
  505MPD2     H 7630   4.729   0.767  12.411
  505MPD2    H1 7631   4.790   0.586  12.797
  505MPD2    H2 7632   4.422   0.764  12.721
  505MPD2    H3 7633   4.563   0.648  12.860
  505MPD2     N 7634   0.136   0.667  12.567
  505MPD2    H5 7635   0.178   0.736  12.505
  505MPD2    N1 7636   4.457   0.801  12.460
  505MPD2    H7 7637   4.367   0.809  12.506
  506MPD2     C 7638   0.891   2.021  11.403
  506MPD2    C1 7639   0.812   1.929  11.336
  506MPD2    C2 7640   0.857   1.837  11.243
  506MPD2    C3 7641   0.989   1.850  11.204
  506MPD2    C4 7642   1.073   1.936  11.270
  506MPD2    C5 7643   1.025   2.019  11.372
  506MPD2     H 7644   0.791   1.770  11.190
  506MPD2    H1 7645   1.177   1.944  11.238
  506MPD2    H2 7646   0.855   2.094  11.474
  506MPD2    H3 7647   1.091   2.091  11.418
  506MPD2     N 7648   1.037   1.793  11.084
  506MPD2    H5 7649   1.123   1.831  11.044
  506MPD2    N1 7650   0.679   1.951  11.337
  506MPD2    H7 7651   0.617   1.875  11.311
  507MPD2     C 7652   0.216   2.604  11.104
  507MPD2    C1 7653   0.348   2.572  11.106
  507MPD2    C2 7654   0.444   2.674  11.121
  507MPD2    C3 7655   0.404   2.805  11.120
  507MPD2    C4 7656   0.274   2.835  11.106
  507MPD2    C5 7657   0.179   2.736  11.110
  507MPD2     H 7658   0.546   2.646  11.146
  507MPD2    H1 7659   0.239   2.936  11.092
  507MPD2    H2 7660   0.126   2.542  11.101
  507MPD2    H3 7661   0.078   2.770  11.094
  507MPD2     N 7662   0.495   2.918  11.129
  507MPD2    H5 7663   0.463   3.014  11.125
  507MPD2    N1 7664   0.396   2.432  11.108
  507MPD2    H7 7665   0.487   2.417  11.150
  508MPD2     C 7666   1.692   4.597  14.934
  508MPD2    C1 7667   1.667   4.733  14.921
  508MPD2    C2 7668   1.533   4.787  14.914
  508MPD2    C3 7669   1.428   4.694  14.921
  508MPD2    C4 7670   1.450   4.559  14.935
  508MPD2    C5 7671   1.579   4.509  14.932
  508MPD2     H 7672   1.522   0.104  14.905
  508MPD2    H1 7673   1.372   4.484  14.943
  508MPD2    H2 7674   1.790   4.558  14.959
  508MPD2    H3 7675   1.594   4.406  14.960
  508MPD2     N 7676   1.291   4.733  14.921
  508MPD2    H5 7677   1.234   4.663  14.967
  508MPD2    N1 7678   1.786   0.020  14.923
  508MPD2    H7 7679   1.875   4.763  14.910
  509MPD2     C 7680   1.867   0.808  14.798
  509MPD2    C1 7681   1.984   0.743  14.789
  509MPD2    C2 7682   2.096   0.819  14.769
  509MPD2    C3 7683   2.088   0.952  14.750
  509MPD2    C4 7684   1.964   1.012  14.751
  509MPD2    C5 7685   1.859   0.940  14.785
  509MPD2     H 7686   2.198   0.787  14.785
  509MPD2    H1 7687   1.941   1.116  14.730
  509MPD2    H2 7688   1.775   0.755  14.821
  509MPD2    H3 7689   1.763   0.990  14.790
  509MPD2     N 7690   2.206   1.030  14.734
  509MPD2    H5 7691   2.295   0.983  14.751
  509MPD2    N1 7692   1.979   0.601  14.818
  509MPD2    H7 7693   1.889   0.579  14.861
  510MPD2     C 7694   0.513   2.553  14.464
  510MPD2    C1 7695   0.480   2.689  14.488
  510MPD2    C2 7696   0.556   2.785  14.425
  510MPD2    C3 7697   0.672   2.755  14.360
  510MPD2    C4 7698   0.700   2.622  14.341
  510MPD2    C5 7699   0.625   2.522  14.397
  510MPD2     H 7700   0.525   2.889  14.436
  510MPD2    H1 7701   0.796   2.588  14.305
  510MPD2    H2 7702   0.464   2.475  14.521
  510MPD2    H3 7703   0.657   2.419  14.394
  510MPD2     N 7704   0.751   2.844  14.280
  510MPD2    H5 7705   0.826   2.800  14.228
  510MPD2    N1 7706   0.359   2.728  14.554
  510MPD2    H7 7707   0.330   2.825  14.568
  511MPD2     C 7708   0.947   2.806  15.066
  511MPD2    C1 7709   1.042   2.806  14.967
  511MPD2    C2 7710   1.027   2.892  14.858
  511MPD2    C3 7711   0.905   2.960  14.846
  511MPD2    C4 7712   0.812   2.961  14.951
  511MPD2    C5 7713   0.834   2.886  15.061
  511MPD2     H 7714   1.100   2.902  14.779
  511MPD2    H1 7715   0.709   2.992  14.937
  511MPD2    H2 7716   0.972   2.764  15.163
  511MPD2    H3 7717   0.759   2.877  15.139
  511MPD2     N 7718   0.871   3.039  14.732
  511MPD2    H5 7719   0.929   3.023  14.649
  511MPD2    N1 7720   1.156   2.723  14.987
  511MPD2    H7 7721   1.233   2.722  14.921
  512MPD2     C 7722   4.624   1.478  10.325
  512MPD2    C1 7723   4.638   1.356  10.265
  512MPD2    C2 7724   4.759   1.298  10.249
  512MPD2    C3 7725   0.080   1.369  10.275
  512MPD2    C4 7726   0.070   1.491  10.326
  512MPD2    C5 7727   4.739   1.550  10.363
  512MPD2     H 7728   4.760   1.198  10.209
  512MPD2    H1 7729   0.157   1.551  10.352
  512MPD2    H2 7730   4.532   1.536  10.335
  512MPD2    H3 7731   4.751   1.654  10.393
  512MPD2     N 7732   0.214   1.323  10.254
  512MPD2    H5 7733   0.285   1.393  10.272
  512MPD2    N1 7734   4.532   1.286  10.200
  512MPD2    H7 7735   4.568   1.218  10.134
  513MPD2     C 7736   0.298   3.322  11.327
  513MPD2    C1 7737   0.434   3.288  11.339
  513MPD2    C2 7738   0.463   3.177  11.417
  513MPD2    C3 7739   0.367   3.087  11.462
  513MPD2    C4 7740   0.232   3.112  11.426
  513MPD2    C5 7741   0.199   3.234  11.367
  513MPD2     H 7742   0.565   3.154  11.447
  513MPD2    H1 7743   0.153   3.038  11.440
  513MPD2    H2 7744   0.273   3.406  11.262
  513MPD2    H3 7745   0.094   3.261  11.356
  513MPD2     N 7746   0.405   2.968  11.520
  513MPD2    H5 7747   0.502   2.938  11.515
  513MPD2    N1 7748   0.530   3.380  11.293
  513MPD2    H7 7749   0.492   3.474  11.284
  514MPD2     C 7750   1.852   4.154  15.119
  514MPD2    C1 7751   1.866   4.031  15.056
  514MPD2    C2 7752   1.751   3.951  15.023
  514MPD2    C3 7753   1.626   4.006  15.055
  514MPD2    C4 7754   1.612   4.130  15.108
  514MPD2    C5 7755   1.724   4.204  15.141
  514MPD2     H 7756   1.758   3.851  14.983
  514MPD2    H1 7757   1.518   4.169  15.144
  514MPD2    H2 7758   1.937   4.217  15.142
  514MPD2    H3 7759   1.705   4.295  15.196
  514MPD2     N 7760   1.511   3.928  15.024
  514MPD2    H5 7761   1.535   3.839  14.983
  514MPD2    N1 7762   1.995   3.994  15.034
  514MPD2    H7 7763   2.068   4.061  15.057
  515MPD2     C 7764   3.706   0.196   7.754
  515MPD2    C1 7765   3.711   0.331   7.770
  515MPD2    C2 7766   3.600   0.390   7.825
  515MPD2    C3 7767   3.494   0.325   7.880
  515MPD2    C4 7768   3.497   0.183   7.877
  515MPD2    C5 7769   3.596   0.127   7.805
  515MPD2     H 7770   3.583   0.496   7.843
  515MPD2    H1 7771   3.418   0.118   7.913
  515MPD2    H2 7772   3.783   0.149   7.694
  515MPD2    H3 7773   3.592   0.022   7.780
  515MPD2     N 7774   3.396   0.402   7.934
  515MPD2    H5 7775   3.414   0.501   7.949
  515MPD2    N1 7776   3.823   0.403   7.730
  515MPD2    H7 7777   3.891   0.347   7.679
  516MPD2     C 7778   3.287   0.980   8.400
  516MPD2    C1 7779   3.346   0.856   8.378
  516MPD2    C2 7780   3.460   0.827   8.454
  516MPD2    C3 7781   3.517   0.909   8.550
  516MPD2    C4 7782   3.463   1.034   8.562
  516MPD2    C5 7783   3.352   1.066   8.490
  516MPD2     H 7784   3.503   0.728   8.457
  516MPD2    H1 7785   3.494   1.109   8.633
  516MPD2    H2 7786   3.194   1.008   8.351
  516MPD2    H3 7787   3.303   1.160   8.511
  516MPD2     N 7788   3.632   0.888   8.626
  516MPD2    H5 7789   3.667   0.960   8.688
  516MPD2    N1 7790   3.312   0.757   8.285
  516MPD2    H7 7791   3.356   0.668   8.305
  517MPD2     C 7792   2.358   0.728   7.903
  517MPD2    C1 7793   2.425   0.627   7.834
  517MPD2    C2 7794   2.559   0.601   7.858
  517MPD2    C3 7795   2.632   0.685   7.941
  517MPD2    C4 7796   2.567   0.787   8.005
  517MPD2    C5 7797   2.429   0.808   7.985
  517MPD2     H 7798   2.602   0.516   7.807
  517MPD2    H1 7799   2.623   0.867   8.053
  517MPD2    H2 7800   2.253   0.744   7.882
  517MPD2    H3 7801   2.381   0.891   8.035
  517MPD2     N 7802   2.769   0.672   7.968
  517MPD2    H5 7803   2.817   0.744   8.021
  517MPD2    N1 7804   2.341   0.537   7.762
  517MPD2    H7 7805   2.242   0.546   7.785
  518MPD2     C 7806   0.420   2.638  13.349
  518MPD2    C1 7807   0.439   2.632  13.214
  518MPD2    C2 7808   0.466   2.742  13.139
  518MPD2    C3 7809   0.473   2.862  13.198
  518MPD2    C4 7810   0.444   2.867  13.329
  518MPD2    C5 7811   0.430   2.760  13.407
  518MPD2     H 7812   0.487   2.729  13.034
  518MPD2    H1 7813   0.453   2.963  13.378
  518MPD2    H2 7814   0.409   2.552  13.414
  518MPD2    H3 7815   0.426   2.771  13.515
  518MPD2     N 7816   0.507   2.982  13.127
  518MPD2    H5 7817   0.508   3.065  13.185
  518MPD2    N1 7818   0.456   2.498  13.167
  518MPD2    H7 7819   0.447   2.424  13.235
  519MPD2     C 7820   0.495   1.603  13.547
  519MPD2    C1 7821   0.598   1.596  13.452
  519MPD2    C2 7822   0.597   1.693  13.355
  519MPD2    C3 7823   0.493   1.789  13.360
  519MPD2    C4 7824   0.388   1.799  13.457
  519MPD2    C5 7825   0.392   1.697  13.551
  519MPD2     H 7826   0.671   1.695  13.275
  519MPD2    H1 7827   0.304   1.868  13.461
  519MPD2    H2 7828   0.493   1.530  13.627
  519MPD2    H3 7829   0.323   1.695  13.634
  519MPD2     N 7830   0.502   1.893  13.266
  519MPD2    H5 7831   0.590   1.887  13.216
  519MPD2    N1 7832   0.694   1.498  13.453
  519MPD2    H7 7833   0.773   1.516  13.391
  520MPD2     C 7834   1.129   1.854  12.797
  520MPD2    C1 7835   1.169   1.928  12.904
  520MPD2    C2 7836   1.106   1.914  13.026
  520MPD2    C3 7837   0.992   1.834  13.038
  520MPD2    C4 7838   0.954   1.756  12.935
  520MPD2    C5 7839   1.025   1.760  12.816
  520MPD2     H 7840   1.157   1.960  13.110
  520MPD2    H1 7841   0.865   1.695  12.942
  520MPD2    H2 7842   1.170   1.864  12.697
  520MPD2    H3 7843   0.985   1.702  12.734
  520MPD2     N 7844   0.905   1.831  13.152
  520MPD2    H5 7845   0.842   1.753  13.164
  520MPD2    N1 7846   1.289   2.005  12.884
  520MPD2    H7 7847   1.318   1.988  12.788
  521MPD2     C 7848   1.113   3.675   9.052
  521MPD2    C1 7849   1.238   3.629   9.041
  521MPD2    C2 7850   1.279   3.553   8.935
  521MPD2    C3 7851   1.186   3.519   8.841
  521MPD2    C4 7852   1.053   3.561   8.853
  521MPD2    C5 7853   1.016   3.640   8.957
  521MPD2     H 7854   1.375   3.502   8.925
  521MPD2    H1 7855   0.978   3.563   8.774
  521MPD2    H2 7856   1.077   3.740   9.131
  521MPD2    H3 7857   0.920   3.689   8.960
  521MPD2     N 7858   1.233   3.433   8.740
  521MPD2    H5 7859   1.333   3.432   8.725
  521MPD2    N1 7860   1.336   3.663   9.140
  521MPD2    H7 7861   1.293   3.692   9.227
  522MPD2     C 7862   2.048   3.769   9.220
  522MPD2    C1 7863   2.022   3.652   9.295
  522MPD2    C2 7864   2.093   3.630   9.413
  522MPD2    C3 7865   2.189   3.720   9.451
  522MPD2    C4 7866   2.230   3.825   9.370
  522MPD2    C5 7867   2.158   3.841   9.258
  522MPD2     H 7868   2.070   3.556   9.489
  522MPD2    H1 7869   2.318   3.889   9.376
  522MPD2    H2 7870   1.984   3.798   9.138
  522MPD2    H3 7871   2.192   3.917   9.188
  522MPD2     N 7872   2.245   3.695   9.577
  522MPD2    H5 7873   2.227   3.605   9.621
  522MPD2    N1 7874   1.910   3.581   9.257
  522MPD2    H7 7875   1.847   3.620   9.188
  523MPD2     C 7876   1.438   3.214  10.013
  523MPD2    C1 7877   1.458   3.113   9.924
  523MPD2    C2 7878   1.475   3.148   9.791
  523MPD2    C3 7879   1.462   3.278   9.752
  523MPD2    C4 7880   1.421   3.375   9.837
  523MPD2    C5 7881   1.398   3.335   9.964
  523MPD2     H 7882   1.503   3.078   9.713
  523MPD2    H1 7883   1.400   3.476   9.804
  523MPD2    H2 7884   1.419   3.191  10.117
  523MPD2    H3 7885   1.364   3.408  10.036
  523MPD2     N 7886   1.499   3.315   9.619
  523MPD2    H5 7887   1.559   3.248   9.571
  523MPD2    N1 7888   1.456   2.976   9.963
  523MPD2    H7 7889   1.428   2.953  10.058
  524MPD2     C 7890   0.015   1.602   9.773
  524MPD2    C1 7891   0.079   1.628   9.659
  524MPD2    C2 7892   0.143   1.514   9.599
  524MPD2    C3 7893   0.142   1.383   9.646
  524MPD2    C4 7894   0.062   1.363   9.756
  524MPD2    C5 7895   4.788   1.471   9.814
  524MPD2     H 7896   0.211   1.536   9.518
  524MPD2    H1 7897   0.037   1.264   9.793
  524MPD2    H2 7898   4.758   1.683   9.827
  524MPD2    H3 7899   4.731   1.457   9.904
  524MPD2     N 7900   0.218   1.278   9.587
  524MPD2    H5 7901   0.216   1.185   9.628
  524MPD2    N1 7902   0.106   1.754   9.601
  524MPD2    H7 7903   0.083   1.835   9.658
  525MPD2     C 7904   0.078   1.038   8.697
  525MPD2    C1 7905   0.174   1.131   8.707
  525MPD2    C2 7906   0.228   1.137   8.833
  525MPD2    C3 7907   0.193   1.059   8.938
  525MPD2    C4 7908   0.086   0.973   8.925
  525MPD2    C5 7909   0.028   0.965   8.804
  525MPD2     H 7910   0.304   1.209   8.861
  525MPD2    H1 7911   0.047   0.906   9.000
  525MPD2    H2 7912   0.029   1.041   8.600
  525MPD2    H3 7913   4.742   0.891   8.787
  525MPD2     N 7914   0.268   1.064   9.056
  525MPD2    H5 7915   0.362   1.101   9.049
  525MPD2    N1 7916   0.207   1.212   8.599
  525MPD2    H7 7917   0.139   1.211   8.524
  526MPD2     C 7918   0.604   1.606   9.157
  526MPD2    C1 7919   0.544   1.480   9.145
  526MPD2    C2 7920   0.430   1.471   9.071
  526MPD2    C3 7921   0.377   1.572   9.001
  526MPD2    C4 7922   0.437   1.698   9.010
  526MPD2    C5 7923   0.547   1.712   9.092
  526MPD2     H 7924   0.373   1.379   9.060
  526MPD2    H1 7925   0.401   1.793   8.972
  526MPD2    H2 7926   0.695   1.618   9.214
  526MPD2    H3 7927   0.587   1.813   9.093
  526MPD2     N 7928   0.259   1.548   8.922
  526MPD2    H5 7929   0.217   1.456   8.929
  526MPD2    N1 7930   0.601   1.363   9.204
  526MPD2    H7 7931   0.679   1.381   9.267
  527MPD2     C 7932   2.288   4.267   9.876
  527MPD2    C1 7933   2.334   4.156   9.804
  527MPD2    C2 7934   2.467   4.117   9.821
  527MPD2    C3 7935   2.554   4.187   9.901
  527MPD2    C4 7936   2.508   4.292   9.967
  527MPD2    C5 7937   2.375   4.331   9.960
  527MPD2     H 7938   2.491   4.026   9.768
  527MPD2    H1 7939   2.576   4.348  10.031
  527MPD2    H2 7940   2.191   4.314   9.863
  527MPD2    H3 7941   2.349   4.428  10.002
  527MPD2     N 7942   2.688   4.147   9.913
  527MPD2    H5 7943   2.745   4.197   9.979
  527MPD2    N1 7944   2.251   4.084   9.714
  527MPD2    H7 7945   2.286   3.998   9.674
  528MPD2     C 7946   3.638   3.635   9.626
  528MPD2    C1 7947   3.631   3.770   9.595
  528MPD2    C2 7948   3.521   3.840   9.644
  528MPD2    C3 7949   3.418   3.785   9.720
  528MPD2    C4 7950   3.427   3.652   9.737
  528MPD2    C5 7951   3.536   3.583   9.704
  528MPD2     H 7952   3.510   3.944   9.619
  528MPD2    H1 7953   3.352   3.596   9.791
  528MPD2    H2 7954   3.716   3.563   9.601
  528MPD2    H3 7955   3.543   3.478   9.730
  528MPD2     N 7956   3.318   3.875   9.763
  528MPD2    H5 7957   3.341   3.974   9.764
  528MPD2    N1 7958   3.740   3.836   9.530
  528MPD2    H7 7959   3.825   3.784   9.513
  529MPD2     C 7960   0.183   0.948  10.523
  529MPD2    C1 7961   0.137   0.818  10.528
  529MPD2    C2 7962   0.217   0.722  10.588
  529MPD2    C3 7963   0.344   0.756  10.625
  529MPD2    C4 7964   0.391   0.882  10.605
  529MPD2    C5 7965   0.313   0.975  10.552
  529MPD2     H 7966   0.192   0.617  10.593
  529MPD2    H1 7967   0.490   0.914  10.638
  529MPD2    H2 7968   0.111   1.023  10.492
  529MPD2    H3 7969   0.358   1.072  10.533
  529MPD2     N 7970   0.428   0.647  10.666
  529MPD2    H5 7971   0.388   0.556  10.645
  529MPD2    N1 7972   0.011   0.781  10.497
  529MPD2    H7 7973   4.769   0.691  10.529
  530MPD2     C 7974   4.295   0.727   9.958
  530MPD2    C1 7975   4.346   0.800  10.058
  530MPD2    C2 7976   4.464   0.869  10.030
  530MPD2    C3 7977   4.542   0.851   9.921
  530MPD2    C4 7978   4.489   0.775   9.816
  530MPD2    C5 7979   4.364   0.722   9.838
  530MPD2     H 7980   4.502   0.929  10.112
  530MPD2    H1 7981   4.539   0.759   9.721
  530MPD2    H2 7982   4.200   0.676   9.965
  530MPD2    H3 7983   4.320   0.662   9.760
  530MPD2     N 7984   4.671   0.911   9.902
  530MPD2    H5 7985   4.727   0.878   9.824
  530MPD2    N1 7986   4.257   0.800  10.168
  530MPD2    H7 7987   4.172   0.750  10.144
  531MPD2     C 7988   4.471   1.115  10.946
  531MPD2    C1 7989   4.569   1.134  10.860
  531MPD2    C2 7990   4.703   1.131  10.902
  531MPD2    C3 7991   4.731   1.097  11.032
  531MPD2    C4 7992   4.625   1.069  11.118
  531MPD2    C5 7993   4.497   1.083  11.076
  531MPD2     H 7994   4.781   1.124  10.828
  531MPD2    H1 7995   4.637   1.019  11.213
  531MPD2    H2 7996   4.370   1.100  10.908
  531MPD2    H3 7997   4.411   1.053  11.135
  531MPD2     N 7998   0.067   1.060  11.077
  531MPD2    H5 7999   0.071   0.995  11.155
  531MPD2    N1 8000   4.552   1.131  10.720
  531MPD2    H7 8001   4.638   1.130  10.666
  532MPD2     C 8002   1.696   0.274   7.908
  532MPD2    C1 8003   1.710   0.195   7.794
  532MPD2    C2 8004   1.600   0.126   7.748
  532MPD2    C3 8005   1.487   0.109   7.834
  532MPD2    C4 8006   1.488   0.172   7.955
  532MPD2    C5 8007   1.588   0.258   7.992
  532MPD2     H 8008   1.593   0.077   7.652
  532MPD2    H1 8009   1.409   0.164   8.029
  532MPD2    H2 8010   1.774   0.340   7.946
  532MPD2    H3 8011   1.586   0.310   8.087
  532MPD2     N 8012   1.382   0.014   7.805
  532MPD2    H5 8013   1.415   4.723   7.754
  532MPD2    N1 8014   1.829   0.207   7.714
  532MPD2    H7 8015   1.826   0.149   7.630
  533MPD2     C 8016   0.482   4.568  10.992
  533MPD2    C1 8017   0.368   4.524  11.056
  533MPD2    C2 8018   0.252   4.517  10.978
  533MPD2    C3 8019   0.253   4.554  10.844
  533MPD2    C4 8020   0.370   4.584  10.780
  533MPD2    C5 8021   0.484   4.601  10.855
  533MPD2     H 8022   0.160   4.489  11.028
  533MPD2    H1 8023   0.362   4.617  10.677
  533MPD2    H2 8024   0.578   4.583  11.040
  533MPD2    H3 8025   0.580   4.639  10.823
  533MPD2     N 8026   0.144   4.541  10.755
  533MPD2    H5 8027   0.159   4.545  10.654
  533MPD2    N1 8028   0.367   4.493  11.194
  533MPD2    H7 8029   0.279   4.465  11.237
  534MPD2     C 8030   0.977   4.683  11.767
  534MPD2    C1 8031   0.923   4.555  11.772
  534MPD2    C2 8032   1.003   4.452  11.833
  534MPD2    C3 8033   1.137   4.471  11.851
  534MPD2    C4 8034   1.191   4.593  11.833
  534MPD2    C5 8035   1.112   4.699  11.794
  534MPD2     H 8036   0.960   4.357  11.863
  534MPD2    H1 8037   1.294   4.624  11.846
  534MPD2    H2 8038   0.925   4.770  11.729
  534MPD2    H3 8039   1.163   0.004  11.795
  534MPD2     N 8040   1.214   4.357  11.886
  534MPD2    H5 8041   1.164   4.270  11.902
  534MPD2    N1 8042   0.788   4.527  11.740
  534MPD2    H7 8043   0.759   4.431  11.758
  535MPD2     C 8044   4.124   1.211   7.658
  535MPD2    C1 8045   4.080   1.125   7.758
  535MPD2    C2 8046   4.010   1.167   7.872
  535MPD2    C3 8047   4.006   1.304   7.898
  535MPD2    C4 8048   4.069   1.389   7.806
  535MPD2    C5 8049   4.119   1.341   7.685
  535MPD2     H 8050   3.964   1.100   7.943
  535MPD2    H1 8051   4.069   1.497   7.815
  535MPD2    H2 8052   4.178   1.181   7.569
  535MPD2    H3 8053   4.160   1.409   7.611
  535MPD2     N 8054   3.959   1.345   8.027
  535MPD2    H5 8055   3.925   1.270   8.086
  535MPD2    N1 8056   4.082   0.983   7.752
  535MPD2    H7 8057   4.025   0.933   7.820
  536MPD2     C 8058   4.219   0.165   7.032
  536MPD2    C1 8059   4.103   0.247   7.003
  536MPD2    C2 8060   4.048   0.333   7.098
  536MPD2    C3 8061   4.119   0.342   7.218
  536MPD2    C4 8062   4.229   0.265   7.252
  536MPD2    C5 8063   4.275   0.170   7.160
  536MPD2     H 8064   3.955   0.386   7.077
  536MPD2    H1 8065   4.277   0.273   7.349
  536MPD2    H2 8066   4.261   0.107   6.952
  536MPD2    H3 8067   4.365   0.119   7.192
  536MPD2     N 8068   4.086   0.450   7.305
  536MPD2    H5 8069   4.000   0.502   7.293
  536MPD2    N1 8070   4.059   0.249   6.870
  536MPD2    H7 8071   4.113   0.189   6.809
  537MPD2     C 8072   1.606   4.549   7.682
  537MPD2    C1 8073   1.503   4.496   7.757
  537MPD2    C2 8074   1.374   4.503   7.710
  537MPD2    C3 8075   1.346   4.559   7.589
  537MPD2    C4 8076   1.450   4.606   7.517
  537MPD2    C5 8077   1.582   4.594   7.557
  537MPD2     H 8078   1.303   4.456   7.777
  537MPD2    H1 8079   1.436   4.636   7.414
  537MPD2    H2 8080   1.708   4.541   7.719
  537MPD2    H3 8081   1.668   4.621   7.497
  537MPD2     N 8082   1.219   4.575   7.534
  537MPD2    H5 8083   1.205   4.633   7.452
  537MPD2    N1 8084   1.519   4.424   7.870
  537MPD2    H7 8085   1.435   4.377   7.901
  538MPD2     C 8086   4.104   3.506   8.437
  538MPD2    C1 8087   4.103   3.642   8.453
  538MPD2    C2 8088   4.147   3.730   8.353
  538MPD2    C3 8089   4.184   3.680   8.233
  538MPD2    C4 8090   4.200   3.537   8.216
  538MPD2    C5 8091   4.156   3.455   8.321
  538MPD2     H 8092   4.152   3.837   8.371
  538MPD2    H1 8093   4.247   3.491   8.130
  538MPD2    H2 8094   4.075   3.433   8.512
  538MPD2    H3 8095   4.155   3.347   8.308
  538MPD2     N 8096   4.210   3.776   8.134
  538MPD2    H5 8097   4.217   3.874   8.161
  538MPD2    N1 8098   4.051   3.703   8.570
  538MPD2    H7 8099   4.038   3.803   8.564
  539MPD2     C 8100   4.707   4.082   7.428
  539MPD2    C1 8101   4.722   3.988   7.530
  539MPD2    C2 8102   4.610   3.949   7.600
  539MPD2    C3 8103   4.486   3.997   7.567
  539MPD2    C4 8104   4.475   4.094   7.465
  539MPD2    C5 8105   4.588   4.133   7.397
  539MPD2     H 8106   4.625   3.896   7.693
  539MPD2    H1 8107   4.387   4.147   7.431
  539MPD2    H2 8108   0.008   4.121   7.385
  539MPD2    H3 8109   4.575   4.196   7.309
  539MPD2     N 8110   4.368   3.957   7.641
  539MPD2    H5 8111   4.379   3.884   7.710
  539MPD2    N1 8112   0.059   3.930   7.554
  539MPD2    H7 8113   0.139   3.965   7.501
  540MPD2     C 8114   0.487   0.406  12.427
  540MPD2    C1 8115   0.484   0.283  12.363
  540MPD2    C2 8116   0.418   0.272  12.239
  540MPD2    C3 8117   0.349   0.375  12.185
  540MPD2    C4 8118   0.346   0.495  12.255
  540MPD2    C5 8119   0.412   0.506  12.374
  540MPD2     H 8120   0.409   0.177  12.187
  540MPD2    H1 8121   0.288   0.577  12.214
  540MPD2    H2 8122   0.554   0.440  12.506
  540MPD2    H3 8123   0.412   0.598  12.431
  540MPD2     N 8124   0.284   0.363  12.060
  540MPD2    H5 8125   0.233   0.445  12.030
  540MPD2    N1 8126   0.551   0.175  12.407
  540MPD2    H7 8127   0.578   0.106  12.337
  541MPD2     C 8128   0.302   4.532  12.702
  541MPD2    C1 8129   0.350   4.629  12.619
  541MPD2    C2 8130   0.411   4.608  12.495
  541MPD2    C3 8131   0.435   4.482  12.447
  541MPD2    C4 8132   0.390   4.376  12.530
  541MPD2    C5 8133   0.321   4.404  12.650
  541MPD2     H 8134   0.438   4.690  12.430
  541MPD2    H1 8135   0.382   4.275  12.494
  541MPD2    H2 8136   0.264   4.541  12.803
  541MPD2    H3 8137   0.284   4.322  12.710
  541MPD2     N 8138   0.493   4.473  12.322
  541MPD2    H5 8139   0.509   4.551  12.260
  541MPD2    N1 8140   0.353   4.763  12.664
  541MPD2    H7 8141   0.405   0.029  12.598
  542MPD2     C 8142   3.119   1.031  11.844
  542MPD2    C1 8143   3.164   1.108  11.949
  542MPD2    C2 8144   3.219   1.045  12.061
  542MPD2    C3 8145   3.238   0.908  12.052
  542MPD2    C4 8146   3.190   0.830  11.954
  542MPD2    C5 8147   3.128   0.891  11.850
  542MPD2     H 8148   3.249   1.104  12.147
  542MPD2    H1 8149   3.199   0.722  11.954
  542MPD2    H2 8150   3.064   1.084  11.767
  542MPD2    H3 8151   3.079   0.841  11.767
  542MPD2     N 8152   3.298   0.838  12.157
  542MPD2    H5 8153   3.319   0.740  12.141
  542MPD2    N1 8154   3.123   1.247  11.939
  542MPD2    H7 8155   3.069   1.274  11.858
  543MPD2     C 8156   3.505   1.856  11.934
  543MPD2    C1 8157   3.429   1.756  11.884
  543MPD2    C2 8158   3.474   1.649  11.814
  543MPD2    C3 8159   3.611   1.627  11.820
  543MPD2    C4 8160   3.688   1.727  11.871
  543MPD2    C5 8161   3.643   1.840  11.924
  543MPD2     H 8162   3.412   1.566  11.781
  543MPD2    H1 8163   3.796   1.715  11.876
  543MPD2    H2 8164   3.466   1.933  12.000
  543MPD2    H3 8165   3.702   1.906  11.988
  543MPD2     N 8166   3.664   1.507  11.792
  543MPD2    H5 8167   3.752   1.482  11.835
  543MPD2    N1 8168   3.293   1.745  11.920
  543MPD2    H7 8169   3.237   1.673  11.877
  544MPD2     C 8170   2.691   1.401  11.634
  544MPD2    C1 8171   2.750   1.468  11.740
  544MPD2    C2 8172   2.738   1.403  11.870
  544MPD2    C3 8173   2.714   1.263  11.876
  544MPD2    C4 8174   2.675   1.192  11.765
  544MPD2    C5 8175   2.651   1.270  11.653
  544MPD2     H 8176   2.766   1.450  11.963
  544MPD2    H1 8177   2.642   1.088  11.768
  544MPD2    H2 8178   2.667   1.442  11.536
  544MPD2    H3 8179   2.616   1.221  11.563
  544MPD2     N 8180   2.737   1.203  11.996
  544MPD2    H5 8181   2.761   1.262  12.076
  544MPD2    N1 8182   2.790   1.601  11.717
  544MPD2    H7 8183   2.750   1.638  11.630
  545MPD2     C 8184   0.432   3.006   6.730
  545MPD2    C1 8185   0.350   3.024   6.618
  545MPD2    C2 8186   0.314   3.152   6.589
  545MPD2    C3 8187   0.373   3.266   6.658
  545MPD2    C4 8188   0.479   3.239   6.747
  545MPD2    C5 8189   0.497   3.112   6.787
  545MPD2     H 8190   0.243   3.169   6.509
  545MPD2    H1 8191   0.528   3.318   6.803
  545MPD2    H2 8192   0.461   2.905   6.756
  545MPD2    H3 8193   0.574   3.101   6.861
  545MPD2     N 8194   0.329   3.397   6.634
  545MPD2    H5 8195   0.372   3.469   6.692
  545MPD2    N1 8196   0.291   2.918   6.542
  545MPD2    H7 8197   0.319   2.827   6.579
  546MPD2     C 8198   4.435   2.157   6.644
  546MPD2    C1 8199   4.456   2.276   6.713
  546MPD2    C2 8200   4.543   2.368   6.655
  546MPD2    C3 8201   4.604   2.335   6.532
  546MPD2    C4 8202   4.579   2.219   6.465
  546MPD2    C5 8203   4.503   2.122   6.531
  546MPD2     H 8204   4.577   2.455   6.710
  546MPD2    H1 8205   4.622   2.192   6.370
  546MPD2    H2 8206   4.370   2.075   6.672
  546MPD2    H3 8207   4.489   2.030   6.476
  546MPD2     N 8208   4.694   2.427   6.459
  546MPD2    H5 8209   4.703   2.414   6.359
  546MPD2    N1 8210   4.374   2.296   6.827
  546MPD2    H7 8211   4.322   2.217   6.863
  547MPD2     C 8212   0.704   3.930  11.301
  547MPD2    C1 8213   0.594   3.852  11.263
  547MPD2    C2 8214   0.602   3.798  11.138
  547MPD2    C3 8215   0.706   3.821  11.054
  547MPD2    C4 8216   0.818   3.886  11.094
  547MPD2    C5 8217   0.810   3.952  11.216
  547MPD2     H 8218   0.518   3.742  11.098
  547MPD2    H1 8219   0.899   3.913  11.027
  547MPD2    H2 8220   0.691   3.992  11.390
  547MPD2    H3 8221   0.882   4.024  11.250
  547MPD2     N 8222   0.691   3.759  10.931
  547MPD2    H5 8223   0.598   3.730  10.904
  547MPD2    N1 8224   0.475   3.846  11.343
  547MPD2    H7 8225   0.460   3.928  11.402
  548MPD2     C 8226   0.660   4.431  10.460
  548MPD2    C1 8227   0.696   4.306  10.423
  548MPD2    C2 8228   0.771   4.284  10.308
  548MPD2    C3 8229   0.820   4.396  10.238
  548MPD2    C4 8230   0.781   4.519  10.276
  548MPD2    C5 8231   0.706   4.543  10.389
  548MPD2     H 8232   0.802   4.188  10.269
  548MPD2    H1 8233   0.819   4.605  10.223
  548MPD2    H2 8234   0.606   4.445  10.553
  548MPD2    H3 8235   0.683   4.637  10.439
  548MPD2     N 8236   0.898   4.363  10.121
  548MPD2    H5 8237   0.892   4.267  10.087
  548MPD2    N1 8238   0.652   4.191  10.499
  548MPD2    H7 8239   0.581   4.199  10.571
  549MPD2     C 8240   4.683   1.220  13.774
  549MPD2    C1 8241   4.549   1.227  13.793
  549MPD2    C2 8242   4.490   1.156  13.896
  549MPD2    C3 8243   4.568   1.076  13.973
  549MPD2    C4 8244   4.705   1.070  13.956
  549MPD2    C5 8245   4.760   1.149  13.857
  549MPD2     H 8246   4.384   1.170  13.909
  549MPD2    H1 8247   4.771   1.006  14.014
  549MPD2    H2 8248   4.736   1.268  13.693
  549MPD2    H3 8249   0.075   1.144  13.837
  549MPD2     N 8250   4.508   1.002  14.078
  549MPD2    H5 8251   4.576   0.942  14.124
  549MPD2    N1 8252   4.459   1.286  13.700
  549MPD2    H7 8253   4.359   1.270  13.712
  550MPD2     C 8254   3.671   1.011  13.895
  550MPD2    C1 8255   3.682   0.877  13.928
  550MPD2    C2 8256   3.778   0.843  14.026
  550MPD2    C3 8257   3.873   0.933  14.066
  550MPD2    C4 8258   3.873   1.065  14.015
  550MPD2    C5 8259   3.772   1.097  13.935
  550MPD2     H 8260   3.785   0.742  14.064
  550MPD2    H1 8261   3.947   1.138  14.044
  550MPD2    H2 8262   3.604   1.048  13.819
  550MPD2    H3 8263   3.759   1.200  13.902
  550MPD2     N 8264   3.988   0.897  14.137
  550MPD2    H5 8265   4.064   0.964  14.134
  550MPD2    N1 8266   3.589   0.783  13.868
  550MPD2    H7 8267   3.502   0.828  13.842
  551MPD2     C 8268   3.307   3.726   9.382
  551MPD2    C1 8269   3.282   3.821   9.282
  551MPD2    C2 8270   3.370   3.840   9.183
  551MPD2    C3 8271   3.495   3.779   9.191
  551MPD2    C4 8272   3.514   3.683   9.288
  551MPD2    C5 8273   3.418   3.657   9.376
  551MPD2     H 8274   3.351   3.918   9.110
  551MPD2    H1 8275   3.614   3.641   9.298
  551MPD2    H2 8276   3.229   3.697   9.452
  551MPD2    H3 8277   3.425   3.570   9.441
  551MPD2     N 8278   3.580   3.814   9.085
  551MPD2    H5 8279   3.543   3.884   9.021
  551MPD2    N1 8280   3.163   3.891   9.282
  551MPD2    H7 8281   3.144   3.944   9.198
  552MPD2     C 8282   1.300   3.229  15.011
  552MPD2    C1 8283   1.296   3.289  14.887
  552MPD2    C2 8284   1.331   3.216  14.776
  552MPD2    C3 8285   1.355   3.082  14.781
  552MPD2    C4 8286   1.365   3.025  14.905
  552MPD2    C5 8287   1.336   3.098  15.019
  552MPD2     H 8288   1.323   3.261  14.677
  552MPD2    H1 8289   1.402   2.925  14.919
  552MPD2    H2 8290   1.289   3.291  15.099
  552MPD2    H3 8291   1.343   3.060  15.120
  552MPD2     N 8292   1.373   3.016  14.658
  552MPD2    H5 8293   1.368   3.071  14.573
  552MPD2    N1 8294   1.286   3.426  14.864
  552MPD2    H7 8295   1.295   3.454  14.767
  553MPD2     C 8296   1.764   2.531   9.339
  553MPD2    C1 8297   1.780   2.647   9.416
  553MPD2    C2 8298   1.704   2.665   9.533
  553MPD2    C3 8299   1.620   2.561   9.560
  553MPD2    C4 8300   1.587   2.454   9.479
  553MPD2    C5 8301   1.674   2.433   9.367
  553MPD2     H 8302   1.712   2.745   9.607
  553MPD2    H1 8303   1.510   2.379   9.494
  553MPD2    H2 8304   1.835   2.523   9.257
  553MPD2    H3 8305   1.661   2.345   9.305
  553MPD2     N 8306   1.542   2.582   9.677
  553MPD2    H5 8307   1.566   2.666   9.727
  553MPD2    N1 8308   1.880   2.737   9.380
  553MPD2    H7 8309   1.940   2.716   9.301
  554MPD2     C 8310   3.728   2.508  11.287
  554MPD2    C1 8311   3.717   2.475  11.420
  554MPD2    C2 8312   3.589   2.470  11.472
  554MPD2    C3 8313   3.476   2.469  11.383
  554MPD2    C4 8314   3.493   2.494  11.247
  554MPD2    C5 8315   3.618   2.514  11.199
  554MPD2     H 8316   3.576   2.447  11.578
  554MPD2    H1 8317   3.407   2.496  11.180
  554MPD2    H2 8318   3.826   2.520  11.244
  554MPD2    H3 8319   3.636   2.531  11.094
  554MPD2     N 8320   3.345   2.453  11.441
  554MPD2    H5 8321   3.350   2.410  11.533
  554MPD2    N1 8322   3.838   2.467  11.492
  554MPD2    H7 8323   3.925   2.437  11.448
  555MPD2     C 8324   4.418   2.282  12.083
  555MPD2    C1 8325   4.279   2.296  12.096
  555MPD2    C2 8326   4.229   2.351  12.217
  555MPD2    C3 8327   4.315   2.390  12.313
  555MPD2    C4 8328   4.449   2.368  12.305
  555MPD2    C5 8329   4.500   2.311  12.191
  555MPD2     H 8330   4.122   2.362  12.226
  555MPD2    H1 8331   4.522   2.404  12.377
  555MPD2    H2 8332   4.458   2.244  11.990
  555MPD2    H3 8333   4.604   2.283  12.188
  555MPD2     N 8334   4.260   2.461  12.426
  555MPD2    H5 8335   4.169   2.499  12.402
  555MPD2    N1 8336   4.187   2.278  11.989
  555MPD2    H7 8337   4.231   2.270  11.897
  556MPD2     C 8338   3.423   2.726  13.127
  556MPD2    C1 8339   3.333   2.659  13.198
  556MPD2    C2 8340   3.221   2.727  13.234
  556MPD2    C3 8341   3.199   2.857  13.213
  556MPD2    C4 8342   3.296   2.926  13.149
  556MPD2    C5 8343   3.403   2.863  13.102
  556MPD2     H 8344   3.143   2.673  13.285
  556MPD2    H1 8345   3.282   3.030  13.121
  556MPD2    H2 8346   3.512   2.675  13.093
  556MPD2    H3 8347   3.482   2.914  13.049
  556MPD2     N 8348   3.085   2.921  13.267
  556MPD2    H5 8349   3.094   3.020  13.290
  556MPD2    N1 8350   3.335   2.521  13.226
  556MPD2    H7 8351   3.255   2.477  13.272
  557MPD2     C 8352   4.622   1.804  12.491
  557MPD2    C1 8353   4.615   1.786  12.358
  557MPD2    C2 8354   4.725   1.742  12.289
  557MPD2    C3 8355   0.048   1.693  12.360
  557MPD2    C4 8356   0.044   1.704  12.499
  557MPD2    C5 8357   4.727   1.755  12.559
  557MPD2     H 8358   4.724   1.735  12.181
  557MPD2    H1 8359   0.113   1.649  12.562
  557MPD2    H2 8360   4.537   1.834  12.552
  557MPD2    H3 8361   4.720   1.758  12.667
  557MPD2     N 8362   0.147   1.628  12.285
  557MPD2    H5 8363   0.114   1.606  12.191
  557MPD2    N1 8364   4.495   1.816  12.294
  557MPD2    H7 8365   4.493   1.781  12.198
  558MPD2     C 8366   2.420   1.572  14.882
  558MPD2    C1 8367   2.449   1.627  14.760
  558MPD2    C2 8368   2.351   1.624  14.665
  558MPD2    C3 8369   2.220   1.585  14.684
  558MPD2    C4 8370   2.190   1.538  14.806
  558MPD2    C5 8371   2.289   1.530  14.898
  558MPD2     H 8372   2.381   1.649  14.563
  558MPD2    H1 8373   2.096   1.487  14.826
  558MPD2    H2 8374   2.492   1.561  14.962
  558MPD2    H3 8375   2.245   1.483  14.985
  558MPD2     N 8376   2.129   1.569  14.581
  558MPD2    H5 8377   2.171   1.568  14.489
  558MPD2    N1 8378   2.577   1.680  14.712
  558MPD2    H7 8379   2.573   1.739  14.630
  559MPD2     C 8380   1.275   1.551  14.893
  559MPD2    C1 8381   1.400   1.600  14.921
  559MPD2    C2 8382   1.495   1.598  14.822
  559MPD2    C3 8383   1.454   1.571  14.693
  559MPD2    C4 8384   1.324   1.523  14.665
  559MPD2    C5 8385   1.238   1.523  14.768
  559MPD2     H 8386   1.597   1.631  14.834
  559MPD2    H1 8387   1.296   1.500  14.563
  559MPD2    H2 8388   1.208   1.539  14.977
  559MPD2    H3 8389   1.139   1.482  14.751
  559MPD2     N 8390   1.557   1.574  14.601
  559MPD2    H5 8391   1.646   1.610  14.634
  559MPD2    N1 8392   1.421   1.647  15.053
  559MPD2    H7 8393   1.337   1.662  15.107
  560MPD2     C 8394   2.095   0.701  11.983
  560MPD2    C1 8395   2.131   0.565  11.988
  560MPD2    C2 8396   2.032   0.470  11.955
  560MPD2    C3 8397   1.897   0.506  11.954
  560MPD2    C4 8398   1.861   0.643  11.952
  560MPD2    C5 8399   1.962   0.732  11.963
  560MPD2     H 8400   2.045   0.363  11.945
  560MPD2    H1 8401   1.759   0.677  11.950
  560MPD2    H2 8402   2.171   0.775  12.004
  560MPD2    H3 8403   1.935   0.837  11.953
  560MPD2     N 8404   1.803   0.402  11.958
  560MPD2    H5 8405   1.839   0.307  11.967
  560MPD2    N1 8406   2.262   0.529  12.028
  560MPD2    H7 8407   2.337   0.594  12.010
  561MPD2     C 8408   3.271   3.116   8.528
  561MPD2    C1 8409   3.208   3.178   8.419
  561MPD2    C2 8410   3.281   3.266   8.342
  561MPD2    C3 8411   3.412   3.307   8.375
  561MPD2    C4 8412   3.466   3.256   8.490
  561MPD2    C5 8413   3.400   3.156   8.562
  561MPD2     H 8414   3.240   3.299   8.247
  561MPD2    H1 8415   3.570   3.277   8.510
  561MPD2    H2 8416   3.226   3.035   8.583
  561MPD2    H3 8417   3.462   3.117   8.642
  561MPD2     N 8418   3.490   3.388   8.282
  561MPD2    H5 8419   3.584   3.409   8.313
  561MPD2    N1 8420   3.072   3.152   8.397
  561MPD2    H7 8421   3.027   3.096   8.469
  562MPD2     C 8422   2.798   3.646   8.844
  562MPD2    C1 8423   2.898   3.567   8.794
  562MPD2    C2 8424   2.864   3.486   8.685
  562MPD2    C3 8425   2.739   3.484   8.632
  562MPD2    C4 8426   2.633   3.549   8.693
  562MPD2    C5 8427   2.673   3.635   8.792
  562MPD2     H 8428   2.944   3.420   8.653
  562MPD2    H1 8429   2.529   3.552   8.666
  562MPD2    H2 8430   2.818   3.725   8.915
  562MPD2    H3 8431   2.597   3.702   8.831
  562MPD2     N 8432   2.724   3.407   8.520
  562MPD2    H5 8433   2.808   3.363   8.484
  562MPD2    N1 8434   3.033   3.560   8.838
  562MPD2    H7 8435   3.100   3.508   8.783
  563MPD2     C 8436   0.809   1.008  10.614
  563MPD2    C1 8437   0.781   1.069  10.726
  563MPD2    C2 8438   0.840   1.193  10.753
  563MPD2    C3 8439   0.916   1.257  10.658
  563MPD2    C4 8440   0.951   1.188  10.542
  563MPD2    C5 8441   0.903   1.059  10.521
  563MPD2     H 8442   0.808   1.256  10.835
  563MPD2    H1 8443   1.005   1.236  10.461
  563MPD2    H2 8444   0.765   0.911  10.596
  563MPD2    H3 8445   0.918   1.013  10.425
  563MPD2     N 8446   0.952   1.396  10.673
  563MPD2    H5 8447   0.908   1.446  10.749
  563MPD2    N1 8448   0.691   1.001  10.814
  563MPD2    H7 8449   0.655   0.908  10.794
  564MPD2     C 8450   4.781   4.177  12.988
  564MPD2    C1 8451   4.746   4.304  12.932
  564MPD2    C2 8452   4.769   4.333  12.802
  564MPD2    C3 8453   0.035   4.234  12.722
  564MPD2    C4 8454   0.090   4.124  12.782
  564MPD2    C5 8455   0.059   4.088  12.911
  564MPD2     H 8456   4.718   4.415  12.753
  564MPD2    H1 8457   0.136   4.053  12.714
  564MPD2    H2 8458   4.775   4.144  13.091
  564MPD2    H3 8459   0.086   3.990  12.947
  564MPD2     N 8460   0.045   4.253  12.586
  564MPD2    H5 8461   0.091   4.178  12.535
  564MPD2    N1 8462   4.673   4.402  13.002
  564MPD2    H7 8463   4.682   4.494  12.962
  565MPD2     C 8464   4.288   4.497  13.969
  565MPD2    C1 8465   4.204   4.523  13.864
  565MPD2    C2 8466   4.258   4.553  13.745
  565MPD2    C3 8467   4.394   4.556  13.725
  565MPD2    C4 8468   4.473   4.522  13.830
  565MPD2    C5 8469   4.422   4.499  13.952
  565MPD2     H 8470   4.187   4.576  13.665
  565MPD2    H1 8471   4.582   4.518  13.832
  565MPD2    H2 8472   4.245   4.451  14.058
  565MPD2    H3 8473   4.488   4.495  14.037
  565MPD2     N 8474   4.465   4.584  13.607
  565MPD2    H5 8475   4.567   4.588  13.613
  565MPD2    N1 8476   4.064   4.529  13.875
  565MPD2    H7 8477   4.012   4.542  13.788
  566MPD2     C 8478   2.945   3.437  12.161
  566MPD2    C1 8479   2.868   3.322  12.182
  566MPD2    C2 8480   2.762   3.329  12.268
  566MPD2    C3 8481   2.721   3.446  12.327
  566MPD2    C4 8482   2.788   3.560  12.290
  566MPD2    C5 8483   2.895   3.556  12.202
  566MPD2     H 8484   2.713   3.237  12.297
  566MPD2    H1 8485   2.758   3.660  12.321
  566MPD2    H2 8486   3.026   3.434  12.090
  566MPD2    H3 8487   2.937   3.651  12.170
  566MPD2     N 8488   2.618   3.459  12.416
  566MPD2    H5 8489   2.603   3.554  12.450
  566MPD2    N1 8490   2.911   3.192  12.126
  566MPD2    H7 8491   3.002   3.184  12.082
  567MPD2     C 8492   3.416   2.464   8.668
  567MPD2    C1 8493   3.411   2.326   8.659
  567MPD2    C2 8494   3.465   2.272   8.538
  567MPD2    C3 8495   3.519   2.351   8.440
  567MPD2    C4 8496   3.517   2.488   8.448
  567MPD2    C5 8497   3.464   2.544   8.560
  567MPD2     H 8498   3.456   2.164   8.531
  567MPD2    H1 8499   3.567   2.549   8.374
  567MPD2    H2 8500   3.380   2.512   8.759
  567MPD2    H3 8501   3.459   2.652   8.560
  567MPD2     N 8502   3.576   2.288   8.326
  567MPD2    H5 8503   3.594   2.358   8.255
  567MPD2    N1 8504   3.380   2.236   8.767
  567MPD2    H7 8505   3.400   2.138   8.750
  568MPD2     C 8506   3.590   2.640   7.496
  568MPD2    C1 8507   3.486   2.551   7.511
  568MPD2    C2 8508   3.492   2.456   7.616
  568MPD2    C3 8509   3.596   2.454   7.702
  568MPD2    C4 8510   3.703   2.546   7.678
  568MPD2    C5 8511   3.705   2.621   7.567
  568MPD2     H 8512   3.415   2.380   7.623
  568MPD2    H1 8513   3.793   2.561   7.736
  568MPD2    H2 8514   3.588   2.722   7.424
  568MPD2    H3 8515   3.785   2.693   7.553
  568MPD2     N 8516   3.603   2.353   7.799
  568MPD2    H5 8517   3.518   2.307   7.831
  568MPD2    N1 8518   3.362   2.563   7.436
  568MPD2    H7 8519   3.286   2.504   7.470
  569MPD2     C 8520   3.868   1.157  12.611
  569MPD2    C1 8521   3.854   1.050  12.525
  569MPD2    C2 8522   3.762   0.947  12.562
  569MPD2    C3 8523   3.706   0.942  12.690
  569MPD2    C4 8524   3.742   1.041  12.774
  569MPD2    C5 8525   3.813   1.147  12.739
  569MPD2     H 8526   3.735   0.876  12.484
  569MPD2    H1 8527   3.719   1.036  12.880
  569MPD2    H2 8528   3.934   1.242  12.596
  569MPD2    H3 8529   3.826   1.223  12.816
  569MPD2     N 8530   3.609   0.843  12.738
  569MPD2    H5 8531   3.612   0.846  12.839
  569MPD2    N1 8532   3.935   1.035  12.408
  569MPD2    H7 8533   3.912   0.957  12.346
  570MPD2     C 8534   4.664   3.381  13.638
  570MPD2    C1 8535   4.532   3.392  13.602
  570MPD2    C2 8536   4.495   3.342  13.481
  570MPD2    C3 8537   4.587   3.299  13.391
  570MPD2    C4 8538   4.725   3.304  13.427
  570MPD2    C5 8539   4.763   3.339  13.554
  570MPD2     H 8540   4.390   3.336  13.457
  570MPD2    H1 8541   0.013   3.294  13.353
  570MPD2    H2 8542   4.696   3.405  13.738
  570MPD2    H3 8543   0.075   3.345  13.586
  570MPD2     N 8544   4.543   3.253  13.263
  570MPD2    H5 8545   4.444   3.266  13.245
  570MPD2    N1 8546   4.428   3.428  13.688
  570MPD2    H7 8547   4.334   3.430  13.650
  571MPD2     C 8548   3.028   2.022   8.650
  571MPD2    C1 8549   2.961   2.140   8.682
  571MPD2    C2 8550   2.884   2.139   8.798
  571MPD2    C3 8551   2.899   2.032   8.885
  571MPD2    C4 8552   2.953   1.913   8.849
  571MPD2    C5 8553   3.018   1.909   8.728
  571MPD2     H 8554   2.840   2.230   8.835
  571MPD2    H1 8555   2.963   1.829   8.918
  571MPD2    H2 8556   3.090   2.015   8.561
  571MPD2    H3 8557   3.064   1.818   8.691
  571MPD2     N 8558   2.852   2.059   9.018
  571MPD2    H5 8559   2.839   2.158   9.037
  571MPD2    N1 8560   2.962   2.262   8.618
  571MPD2    H7 8561   2.905   2.331   8.667
  572MPD2     C 8562   2.896   2.693   9.263
  572MPD2    C1 8563   2.910   2.566   9.212
  572MPD2    C2 8564   2.976   2.549   9.093
  572MPD2    C3 8565   3.019   2.656   9.016
  572MPD2    C4 8566   2.992   2.786   9.060
  572MPD2    C5 8567   2.946   2.800   9.190
  572MPD2     H 8568   2.996   2.451   9.049
  572MPD2    H1 8569   3.018   2.874   9.003
  572MPD2    H2 8570   2.846   2.708   9.358
  572MPD2    H3 8571   2.926   2.899   9.229
  572MPD2     N 8572   3.061   2.620   8.886
  572MPD2    H5 8573   3.081   2.520   8.880
  572MPD2    N1 8574   2.849   2.453   9.274
  572MPD2    H7 8575   2.847   2.454   9.376
  573MPD2     C 8576   0.448   1.448   6.535
  573MPD2    C1 8577   0.482   1.440   6.665
  573MPD2    C2 8578   0.559   1.341   6.717
  573MPD2    C3 8579   0.598   1.241   6.631
  573MPD2    C4 8580   0.571   1.252   6.498
  573MPD2    C5 8581   0.495   1.355   6.450
  573MPD2     H 8582   0.579   1.333   6.823
  573MPD2    H1 8583   0.606   1.180   6.425
  573MPD2    H2 8584   0.391   1.532   6.498
  573MPD2    H3 8585   0.478   1.361   6.343
  573MPD2     N 8586   0.684   1.136   6.669
  573MPD2    H5 8587   0.700   1.072   6.592
  573MPD2    N1 8588   0.421   1.538   6.741
  573MPD2    H7 8589   0.338   1.583   6.704
  574MPD2     C 8590   0.722   0.956   6.238
  574MPD2    C1 8591   0.814   0.940   6.339
  574MPD2    C2 8592   0.890   1.054   6.364
  574MPD2    C3 8593   0.871   1.183   6.310
  574MPD2    C4 8594   0.788   1.185   6.201
  574MPD2    C5 8595   0.707   1.079   6.176
  574MPD2     H 8596   0.971   1.049   6.436
  574MPD2    H1 8597   0.761   1.278   6.153
  574MPD2    H2 8598   0.658   0.872   6.213
  574MPD2    H3 8599   0.629   1.083   6.101
  574MPD2     N 8600   0.930   1.309   6.356
  574MPD2    H5 8601   0.893   1.393   6.313
  574MPD2    N1 8602   0.827   0.812   6.399
  574MPD2    H7 8603   0.782   0.739   6.343
  575MPD2     C 8604   2.758   2.033   7.440
  575MPD2    C1 8605   2.690   2.157   7.448
  575MPD2    C2 8606   2.749   2.265   7.384
  575MPD2    C3 8607   2.868   2.259   7.323
  575MPD2    C4 8608   2.933   2.136   7.307
  575MPD2    C5 8609   2.879   2.029   7.380
  575MPD2     H 8610   2.711   2.366   7.395
  575MPD2    H1 8611   3.025   2.127   7.252
  575MPD2    H2 8612   2.730   1.950   7.504
  575MPD2    H3 8613   2.931   1.935   7.394
  575MPD2     N 8614   2.937   2.374   7.276
  575MPD2    H5 8615   3.034   2.354   7.252
  575MPD2    N1 8616   2.562   2.149   7.515
  575MPD2    H7 8617   2.534   2.072   7.576
  576MPD2     C 8618   0.843   3.634  12.173
  576MPD2    C1 8619   0.838   3.771  12.171
  576MPD2    C2 8620   0.942   3.839  12.102
  576MPD2    C3 8621   1.046   3.772  12.037
  576MPD2    C4 8622   1.037   3.636  12.033
  576MPD2    C5 8623   0.936   3.569  12.095
  576MPD2     H 8624   0.942   3.947  12.099
  576MPD2    H1 8625   1.109   3.587  11.969
  576MPD2    H2 8626   0.765   3.580  12.225
  576MPD2    H3 8627   0.916   3.463  12.087
  576MPD2     N 8628   1.160   3.833  11.979
  576MPD2    H5 8629   1.228   3.776  11.931
  576MPD2    N1 8630   0.733   3.840  12.243
  576MPD2    H7 8631   0.663   3.794  12.301
  577MPD2     C 8632   1.303   3.901  12.558
  577MPD2    C1 8633   1.274   4.013  12.481
  577MPD2    C2 8634   1.152   4.075  12.497
  577MPD2    C3 8635   1.063   4.035  12.589
  577MPD2    C4 8636   1.091   3.928  12.677
  577MPD2    C5 8637   1.216   3.869  12.662
  577MPD2     H 8638   1.115   4.147  12.424
  577MPD2    H1 8639   1.019   3.888  12.748
  577MPD2    H2 8640   1.396   3.852  12.532
  577MPD2    H3 8641   1.248   3.780  12.715
  577MPD2     N 8642   0.929   4.080  12.595
  577MPD2    H5 8643   0.864   4.016  12.637
  577MPD2    N1 8644   1.356   4.037  12.370
  577MPD2    H7 8645   1.430   3.969  12.356
  578MPD2     C 8646   1.083   0.735  13.101
  578MPD2    C1 8647   1.138   0.792  12.990
  578MPD2    C2 8648   1.060   0.878  12.910
  578MPD2    C3 8649   0.928   0.906  12.943
  578MPD2    C4 8650   0.872   0.836  13.051
  578MPD2    C5 8651   0.951   0.755  13.128
  578MPD2     H 8652   1.101   0.924  12.821
  578MPD2    H1 8653   0.768   0.853  13.075
  578MPD2    H2 8654   1.145   0.668  13.161
  578MPD2    H3 8655   0.907   0.693  13.206
  578MPD2     N 8656   0.853   0.974  12.842
  578MPD2    H5 8657   0.900   0.997  12.755
  578MPD2    N1 8658   1.276   0.765  12.959
  578MPD2    H7 8659   1.328   0.716  13.031
  579MPD2     C 8660   0.735   0.567  12.250
  579MPD2    C1 8661   0.678   0.688  12.210
  579MPD2    C2 8662   0.629   0.698  12.080
  579MPD2    C3 8663   0.635   0.589  11.989
  579MPD2    C4 8664   0.699   0.470  12.028
  579MPD2    C5 8665   0.740   0.465  12.162
  579MPD2     H 8666   0.594   0.795  12.045
  579MPD2    H1 8667   0.720   0.390  11.958
  579MPD2    H2 8668   0.775   0.549  12.349
  579MPD2    H3 8669   0.782   0.371  12.195
  579MPD2     N 8670   0.592   0.591  11.854
  579MPD2    H5 8671   0.631   0.530  11.783
  579MPD2    N1 8672   0.672   0.806  12.296
  579MPD2    H7 8673   0.650   0.897  12.257
  580MPD2     C 8674   4.058   3.088  10.209
  580MPD2    C1 8675   4.129   3.203  10.208
  580MPD2    C2 8676   4.271   3.200  10.197
  580MPD2    C3 8677   4.335   3.080  10.215
  580MPD2    C4 8678   4.263   2.964  10.222
  580MPD2    C5 8679   4.125   2.967  10.206
  580MPD2     H 8680   4.318   3.296  10.182
  580MPD2    H1 8681   4.313   2.868  10.229
  580MPD2    H2 8682   3.950   3.083  10.212
  580MPD2    H3 8683   4.063   2.878  10.211
  580MPD2     N 8684   4.480   3.067  10.220
  580MPD2    H5 8685   4.519   2.973  10.224
  580MPD2    N1 8686   4.071   3.327  10.202
  580MPD2    H7 8687   4.147   3.392  10.218
  581MPD2     C 8688   4.320   3.964  10.224
  581MPD2    C1 8689   4.282   3.843  10.265
  581MPD2    C2 8690   4.342   3.738  10.191
  581MPD2    C3 8691   4.435   3.767  10.090
  581MPD2    C4 8692   4.476   3.894  10.071
  581MPD2    C5 8693   4.421   3.997  10.134
  581MPD2     H 8694   4.310   3.638  10.217
  581MPD2    H1 8695   4.549   3.915   9.993
  581MPD2    H2 8696   4.280   4.056  10.267
  581MPD2    H3 8697   4.449   4.097  10.106
  581MPD2     N 8698   4.487   3.662  10.011
  581MPD2    H5 8699   4.564   3.688   9.951
  581MPD2    N1 8700   4.159   3.827  10.340
  581MPD2    H7 8701   4.085   3.896  10.340
  582MPD2     C 8702   0.102   0.488  10.315
  582MPD2    C1 8703   0.044   0.543  10.204
  582MPD2    C2 8704   4.718   0.482  10.160
  582MPD2    C3 8705   4.668   0.369  10.218
  582MPD2    C4 8706   4.725   0.325  10.339
  582MPD2    C5 8707   0.050   0.379  10.381
  582MPD2     H 8708   4.672   0.525  10.072
  582MPD2    H1 8709   4.694   0.239  10.398
  582MPD2    H2 8710   0.198   0.517  10.356
  582MPD2    H3 8711   0.104   0.348  10.469
  582MPD2     N 8712   4.554   0.300  10.165
  582MPD2    H5 8713   4.534   0.211  10.210
  582MPD2    N1 8714   0.088   0.654  10.135
  582MPD2    H7 8715   0.035   0.687  10.056
  583MPD2     C 8716   0.506   0.634   7.669
  583MPD2    C1 8717   0.457   0.622   7.542
  583MPD2    C2 8718   0.414   0.735   7.474
  583MPD2    C3 8719   0.426   0.860   7.525
  583MPD2    C4 8720   0.478   0.870   7.656
  583MPD2    C5 8721   0.516   0.757   7.723
  583MPD2     H 8722   0.375   0.714   7.375
  583MPD2    H1 8723   0.496   0.969   7.697
  583MPD2    H2 8724   0.534   0.548   7.728
  583MPD2    H3 8725   0.552   0.769   7.825
  583MPD2     N 8726   0.393   0.969   7.439
  583MPD2    H5 8727   0.388   0.950   7.339
  583MPD2    N1 8728   0.436   0.493   7.476
  583MPD2    H7 8729   0.361   0.489   7.408
  584MPD2     C 8730   0.888   4.504   7.057
  584MPD2    C1 8731   0.844   4.626   7.018
  584MPD2    C2 8732   0.767   4.703   7.104
  584MPD2    C3 8733   0.740   4.655   7.234
  584MPD2    C4 8734   0.790   4.531   7.266
  584MPD2    C5 8735   0.866   4.460   7.182
  584MPD2     H 8736   0.737   0.012   7.076
  584MPD2    H1 8737   0.781   4.491   7.367
  584MPD2    H2 8738   0.951   4.445   6.992
  584MPD2    H3 8739   0.907   4.364   7.214
  584MPD2     N 8740   0.695   4.746   7.335
  584MPD2    H5 8741   0.692   0.054   7.312
  584MPD2    N1 8742   0.874   4.670   6.886
  584MPD2    H7 8743   0.958   4.636   6.839
  585MPD2     C 8744   3.646   0.623  11.870
  585MPD2    C1 8745   3.651   0.755  11.840
  585MPD2    C2 8746   3.771   0.826  11.877
  585MPD2    C3 8747   3.872   0.768  11.941
  585MPD2    C4 8748   3.861   0.633  11.973
  585MPD2    C5 8749   3.752   0.564  11.929
  585MPD2     H 8750   3.772   0.933  11.855
  585MPD2    H1 8751   3.929   0.568  12.029
  585MPD2    H2 8752   3.550   0.573  11.865
  585MPD2    H3 8753   3.741   0.467  11.975
  585MPD2     N 8754   3.986   0.839  11.988
  585MPD2    H5 8755   3.993   0.937  11.962
  585MPD2    N1 8756   3.527   0.807  11.774
  585MPD2    H7 8757   3.468   0.737  11.731
  586MPD2     C 8758   2.774   2.589  10.812
  586MPD2    C1 8759   2.777   2.515  10.928
  586MPD2    C2 8760   2.692   2.406  10.934
  586MPD2    C3 8761   2.603   2.373  10.829
  586MPD2    C4 8762   2.594   2.455  10.717
  586MPD2    C5 8763   2.685   2.561  10.711
  586MPD2     H 8764   2.694   2.338  11.019
  586MPD2    H1 8765   2.523   2.444  10.635
  586MPD2    H2 8766   2.845   2.664  10.778
  586MPD2    H3 8767   2.671   2.618  10.620
  586MPD2     N 8768   2.517   2.262  10.847
  586MPD2    H5 8769   2.503   2.227  10.941
  586MPD2    N1 8770   2.869   2.542  11.034
  586MPD2    H7 8771   2.876   2.476  11.111
  587MPD2     C 8772   4.475   0.958  11.486
  587MPD2    C1 8773   4.572   1.051  11.501
  587MPD2    C2 8774   4.709   1.014  11.497
  587MPD2    C3 8775   4.737   0.877  11.471
  587MPD2    C4 8776   4.637   0.785  11.453
  587MPD2    C5 8777   4.507   0.829  11.474
  587MPD2     H 8778   4.787   1.088  11.512
  587MPD2    H1 8779   4.661   0.683  11.426
  587MPD2    H2 8780   4.372   0.992  11.490
  587MPD2    H3 8781   4.427   0.756  11.479
  587MPD2     N 8782   0.083   0.835  11.474
  587MPD2    H5 8783   0.157   0.901  11.494
  587MPD2    N1 8784   4.523   1.174  11.549
  587MPD2    H7 8785   4.423   1.174  11.570
  588MPD2     C 8786   0.198   1.588  11.467
  588MPD2    C1 8787   0.064   1.609  11.425
  588MPD2    C2 8788   4.775   1.666  11.517
  588MPD2    C3 8789   0.027   1.695  11.644
  588MPD2    C4 8790   0.156   1.672  11.681
  588MPD2    C5 8791   0.247   1.620  11.592
  588MPD2     H 8792   4.673   1.685  11.486
  588MPD2    H1 8793   0.190   1.715  11.775
  588MPD2    H2 8794   0.262   1.593  11.381
  588MPD2    H3 8795   0.351   1.611  11.622
  588MPD2     N 8796   4.732   1.751  11.740
  588MPD2    H5 8797   4.773   1.785  11.827
  588MPD2    N1 8798   0.005   1.579  11.302
  588MPD2    H7 8799   4.701   1.612  11.288
  589MPD2     C 8800   3.997   3.646  13.178
  589MPD2    C1 8801   4.090   3.654  13.081
  589MPD2    C2 8802   4.138   3.547  13.012
  589MPD2    C3 8803   4.092   3.415  13.033
  589MPD2    C4 8804   3.995   3.404  13.128
  589MPD2    C5 8805   3.951   3.516  13.191
  589MPD2     H 8806   4.228   3.564  12.954
  589MPD2    H1 8807   3.943   3.312  13.151
  589MPD2    H2 8808   3.953   3.733  13.226
  589MPD2    H3 8809   3.892   3.500  13.281
  589MPD2     N 8810   4.155   3.303  12.970
  589MPD2    H5 8811   4.137   3.208  13.001
  589MPD2    N1 8812   4.144   3.777  13.041
  589MPD2    H7 8813   4.198   3.767  12.956
  590MPD2     C 8814   1.586   2.078   6.270
  590MPD2    C1 8815   1.580   2.054   6.405
  590MPD2    C2 8816   1.490   1.954   6.440
  590MPD2    C3 8817   1.397   1.891   6.353
  590MPD2    C4 8818   1.412   1.914   6.219
  590MPD2    C5 8819   1.506   2.014   6.182
  590MPD2     H 8820   1.475   1.920   6.542
  590MPD2    H1 8821   1.363   1.861   6.139
  590MPD2    H2 8822   1.666   2.135   6.225
  590MPD2    H3 8823   1.519   2.030   6.076
  590MPD2     N 8824   1.297   1.810   6.408
  590MPD2    H5 8825   1.301   1.799   6.509
  590MPD2    N1 8826   1.661   2.124   6.498
  590MPD2    H7 8827   1.746   2.170   6.467
  591MPD2     C 8828   1.299   2.377  13.664
  591MPD2    C1 8829   1.222   2.267  13.682
  591MPD2    C2 8830   1.238   2.189  13.796
  591MPD2    C3 8831   1.327   2.230  13.895
  591MPD2    C4 8832   1.379   2.356  13.884
  591MPD2    C5 8833   1.371   2.420  13.765
  591MPD2     H 8834   1.184   2.096  13.799
  591MPD2    H1 8835   1.454   2.386  13.957
  591MPD2    H2 8836   1.290   2.445  13.580
  591MPD2    H3 8837   1.428   2.513  13.754
  591MPD2     N 8838   1.362   2.161  14.013
  591MPD2    H5 8839   1.438   2.201  14.067
  591MPD2    N1 8840   1.132   2.220  13.586
  591MPD2    H7 8841   1.062   2.149  13.605
  592MPD2     C 8842   3.089   0.088   8.672
  592MPD2    C1 8843   3.185   0.172   8.726
  592MPD2    C2 8844   3.169   0.308   8.701
  592MPD2    C3 8845   3.054   0.356   8.629
  592MPD2    C4 8846   2.954   0.268   8.586
  592MPD2    C5 8847   2.973   0.133   8.606
  592MPD2     H 8848   3.249   0.374   8.733
  592MPD2    H1 8849   2.867   0.299   8.528
  592MPD2    H2 8850   3.104   4.772   8.681
  592MPD2    H3 8851   2.907   0.054   8.573
  592MPD2     N 8852   3.048   0.495   8.612
  592MPD2    H5 8853   3.122   0.552   8.651
  592MPD2    N1 8854   3.294   0.119   8.794
  592MPD2    H7 8855   3.301   0.017   8.787
  593MPD2     C 8856   3.555   4.632   9.729
  593MPD2    C1 8857   3.443   4.639   9.641
  593MPD2    C2 8858   3.464   4.673   9.509
  593MPD2    C3 8859   3.591   4.690   9.461
  593MPD2    C4 8860   3.696   4.674   9.547
  593MPD2    C5 8861   3.676   4.659   9.677
  593MPD2     H 8862   3.375   4.669   9.447
  593MPD2    H1 8863   3.793   4.678   9.499
  593MPD2    H2 8864   3.548   4.614   9.836
  593MPD2    H3 8865   3.764   4.653   9.741
  593MPD2     N 8866   3.613   4.730   9.327
  593MPD2    H5 8867   3.709   4.745   9.297
  593MPD2    N1 8868   3.310   4.626   9.691
  593MPD2    H7 8869   3.233   4.637   9.626
  594MPD2     C 8870   1.232   0.397   7.330
  594MPD2    C1 8871   1.123   0.393   7.412
  594MPD2    C2 8872   1.074   0.511   7.465
  594MPD2    C3 8873   1.140   0.633   7.444
  594MPD2    C4 8874   1.260   0.632   7.378
  594MPD2    C5 8875   1.295   0.513   7.311
  594MPD2     H 8876   0.996   0.497   7.538
  594MPD2    H1 8877   1.318   0.724   7.374
  594MPD2    H2 8878   1.266   0.303   7.288
  594MPD2    H3 8879   1.395   0.521   7.271
  594MPD2     N 8880   1.086   0.755   7.494
  594MPD2    H5 8881   0.999   0.753   7.548
  594MPD2    N1 8882   1.042   0.281   7.442
  594MPD2    H7 8883   0.953   0.297   7.489
  595MPD2     C 8884   3.432   4.290  13.607
  595MPD2    C1 8885   3.523   4.373  13.547
  595MPD2    C2 8886   3.554   4.357  13.411
  595MPD2    C3 8887   3.503   4.249  13.336
  595MPD2    C4 8888   3.405   4.179  13.390
  595MPD2    C5 8889   3.356   4.199  13.522
  595MPD2     H 8890   3.638   4.408  13.365
  595MPD2    H1 8891   3.355   4.102  13.332
  595MPD2    H2 8892   3.400   4.307  13.709
  595MPD2    H3 8893   3.271   4.146  13.562
  595MPD2     N 8894   3.551   4.224  13.209
  595MPD2    H5 8895   3.614   4.291  13.167
  595MPD2    N1 8896   3.587   4.475  13.620
  595MPD2    H7 8897   3.656   4.535  13.576
  596MPD2     C 8898   0.297   4.311  11.973
  596MPD2    C1 8899   0.204   4.358  11.890
  596MPD2    C2 8900   0.177   4.286  11.773
  596MPD2    C3 8901   0.244   4.168  11.746
  596MPD2    C4 8902   0.327   4.108  11.843
  596MPD2    C5 8903   0.362   4.188  11.949
  596MPD2     H 8904   0.102   4.322  11.703
  596MPD2    H1 8905   0.371   4.009  11.838
  596MPD2    H2 8906   0.316   4.353  12.071
  596MPD2    H3 8907   0.424   4.140  12.025
  596MPD2     N 8908   0.218   4.088  11.635
  596MPD2    H5 8909   0.258   3.994  11.640
  596MPD2    N1 8910   0.127   4.480  11.912
  596MPD2    H7 8911   0.059   4.503  11.840
  597MPD2     C 8912   3.697   3.224   9.384
  597MPD2    C1 8913   3.565   3.266   9.373
  597MPD2    C2 8914   3.480   3.237   9.480
  597MPD2    C3 8915   3.523   3.195   9.602
  597MPD2    C4 8916   3.661   3.173   9.615
  597MPD2    C5 8917   3.741   3.190   9.507
  597MPD2     H 8918   3.373   3.249   9.474
  597MPD2    H1 8919   3.707   3.134   9.705
  597MPD2    H2 8920   3.771   3.230   9.305
  597MPD2    H3 8921   3.844   3.159   9.520
  597MPD2     N 8922   3.442   3.163   9.711
  597MPD2    H5 8923   3.497   3.126   9.787
  597MPD2    N1 8924   3.533   3.328   9.253
  597MPD2    H7 8925   3.603   3.341   9.181
  598MPD2     C 8926   3.599   3.783   8.324
  598MPD2    C1 8927   3.673   3.677   8.377
  598MPD2    C2 8928   3.645   3.617   8.502
  598MPD2    C3 8929   3.545   3.682   8.580
  598MPD2    C4 8930   3.472   3.788   8.527
  598MPD2    C5 8931   3.508   3.841   8.401
  598MPD2     H 8932   3.702   3.535   8.542
  598MPD2    H1 8933   3.389   3.836   8.577
  598MPD2    H2 8934   3.623   3.822   8.226
  598MPD2    H3 8935   3.469   3.931   8.354
  598MPD2     N 8936   3.494   3.620   8.705
  598MPD2    H5 8937   3.419   3.674   8.747
  598MPD2    N1 8938   3.761   3.618   8.284
  598MPD2    H7 8939   3.762   3.663   8.193
  599MPD2     C 8940   2.674   2.175  13.375
  599MPD2    C1 8941   2.765   2.235  13.460
  599MPD2    C2 8942   2.904   2.228  13.428
  599MPD2    C3 8943   2.942   2.166  13.313
  599MPD2    C4 8944   2.851   2.120  13.222
  599MPD2    C5 8945   2.723   2.113  13.262
  599MPD2     H 8946   2.983   2.262  13.495
  599MPD2    H1 8947   2.880   2.078  13.126
  599MPD2    H2 8948   2.570   2.169  13.406
  599MPD2    H3 8949   2.647   2.063  13.203
  599MPD2     N 8950   3.085   2.173  13.281
  599MPD2    H5 8951   3.141   2.235  13.339
  599MPD2    N1 8952   2.706   2.306  13.573
  599MPD2    H7 8953   2.608   2.331  13.574
  600MPD2     C 8954   0.242   0.103  14.570
  600MPD2    C1 8955   0.217   0.233  14.534
  600MPD2    C2 8956   0.300   0.294  14.441
  600MPD2    C3 8957   0.412   0.224  14.383
  600MPD2    C4 8958   0.420   0.088  14.414
  600MPD2    C5 8959   0.343   0.031  14.513
  600MPD2     H 8960   0.283   0.397  14.413
  600MPD2    H1 8961   0.492   0.017  14.376
  600MPD2    H2 8962   0.184   0.045  14.641
  600MPD2    H3 8963   0.351   4.718  14.543
  600MPD2     N 8964   0.500   0.280  14.286
  600MPD2    H5 8965   0.557   0.215  14.234
  600MPD2    N1 8966   0.108   0.308  14.585
  600MPD2    H7 8967   0.062   0.257  14.660
  601MPD2     C 8968   0.652   0.757   7.168
  601MPD2    C1 8969   0.650   0.891   7.204
  601MPD2    C2 8970   0.582   0.985   7.130
  601MPD2    C3 8971   0.490   0.953   7.031
  601MPD2    C4 8972   0.494   0.819   6.996
  601MPD2    C5 8973   0.573   0.728   7.068
  601MPD2     H 8974   0.590   1.092   7.149
  601MPD2    H1 8975   0.429   0.772   6.924
  601MPD2    H2 8976   0.727   0.691   7.209
  601MPD2    H3 8977   0.566   0.623   7.041
  601MPD2     N 8978   0.399   1.042   6.964
  601MPD2    H5 8979   0.351   0.998   6.886
  601MPD2    N1 8980   0.726   0.925   7.320
  601MPD2    H7 8981   0.781   0.854   7.366
  602MPD2     C 8982   0.687   0.488  11.219
  602MPD2    C1 8983   0.557   0.535  11.224
  602MPD2    C2 8984   0.466   0.474  11.310
  602MPD2    C3 8985   0.509   0.366  11.387
  602MPD2    C4 8986   0.639   0.339  11.389
  602MPD2    C5 8987   0.731   0.398  11.311
  602MPD2     H 8988   0.360   0.498  11.306
  602MPD2    H1 8989   0.667   0.261  11.459
  602MPD2    H2 8990   0.759   0.524  11.145
  602MPD2    H3 8991   0.833   0.362  11.311
  602MPD2     N 8992   0.421   0.312  11.484
  602MPD2    H5 8993   0.467   0.249  11.550
  602MPD2    N1 8994   0.527   0.648  11.144
  602MPD2    H7 8995   0.608   0.691  11.100
  603MPD2     C 8996   3.177   3.253  10.276
  603MPD2    C1 8997   3.226   3.314  10.391
  603MPD2    C2 8998   3.147   3.303  10.512
  603MPD2    C3 8999   3.038   3.217  10.527
  603MPD2    C4 9000   2.999   3.159  10.410
  603MPD2    C5 9001   3.060   3.187  10.289
  603MPD2     H 9002   3.201   3.346  10.595
  603MPD2    H1 9003   2.914   3.093  10.408
  603MPD2    H2 9004   3.227   3.252  10.180
  603MPD2    H3 9005   3.025   3.132  10.202
  603MPD2     N 9006   2.972   3.195  10.651
  603MPD2    H5 9007   3.013   3.243  10.730
  603MPD2    N1 9008   3.360   3.369  10.402
  603MPD2    H7 9009   3.368   3.444  10.469
  604MPD2     C 9010   4.068   2.983   9.741
  604MPD2    C1 9011   4.080   3.098   9.816
  604MPD2    C2 9012   3.978   3.131   9.907
  604MPD2    C3 9013   3.863   3.055   9.909
  604MPD2    C4 9014   3.852   2.936   9.836
  604MPD2    C5 9015   3.958   2.903   9.755
  604MPD2     H 9016   3.986   3.208   9.983
  604MPD2    H1 9017   3.770   2.867   9.848
  604MPD2    H2 9018   4.147   2.948   9.676
  604MPD2    H3 9019   3.947   2.806   9.707
  604MPD2     N 9020   3.760   3.090  10.002
  604MPD2    H5 9021   3.786   3.155  10.075
  604MPD2    N1 9022   4.200   3.172   9.822
  604MPD2    H7 9023   4.197   3.263   9.868
  605MPD2     C 9024   2.205   1.721   8.460
  605MPD2    C1 9025   2.086   1.759   8.526
  605MPD2    C2 9026   1.963   1.748   8.464
  605MPD2    C3 9027   1.967   1.717   8.327
  605MPD2    C4 9028   2.081   1.663   8.268
  605MPD2    C5 9029   2.203   1.660   8.336
  605MPD2     H 9030   1.875   1.777   8.520
  605MPD2    H1 9031   2.084   1.634   8.163
  605MPD2    H2 9032   2.304   1.733   8.503
  605MPD2    H3 9033   2.301   1.635   8.296
  605MPD2     N 9034   1.852   1.726   8.245
  605MPD2    H5 9035   1.859   1.711   8.145
  605MPD2    N1 9036   2.092   1.819   8.656
  605MPD2    H7 9037   2.000   1.835   8.696
  606MPD2     C 9038   3.175   2.155  14.380
  606MPD2    C1 9039   3.043   2.154  14.416
  606MPD2    C2 9040   2.964   2.236  14.341
  606MPD2    C3 9041   2.998   2.305  14.226
  606MPD2    C4 9042   3.133   2.291  14.191
  606MPD2    C5 9043   3.219   2.222  14.273
  606MPD2     H 9044   2.865   2.247  14.381
  606MPD2    H1 9045   3.180   2.332  14.102
  606MPD2    H2 9046   3.249   2.104  14.441
  606MPD2    H3 9047   3.324   2.222  14.246
  606MPD2     N 9048   2.905   2.367  14.136
  606MPD2    H5 9049   2.952   2.415  14.060
  606MPD2    N1 9050   3.010   2.074  14.525
  606MPD2    H7 9051   3.081   2.040  14.589
  607MPD2     C 9052   0.506   2.201   8.647
  607MPD2    C1 9053   0.558   2.145   8.531
  607MPD2    C2 9054   0.533   2.016   8.496
  607MPD2    C3 9055   0.466   1.931   8.584
  607MPD2    C4 9056   0.410   1.983   8.704
  607MPD2    C5 9057   0.435   2.119   8.726
  607MPD2     H 9058   0.580   1.985   8.404
  607MPD2    H1 9059   0.361   1.919   8.776
  607MPD2    H2 9060   0.531   2.297   8.690
  607MPD2    H3 9061   0.398   2.133   8.827
  607MPD2     N 9062   0.446   1.796   8.550
  607MPD2    H5 9063   0.399   1.737   8.618
  607MPD2    N1 9064   0.649   2.222   8.444
  607MPD2    H7 9065   0.696   2.171   8.370
  608MPD2     C 9066   0.265   1.246  11.517
  608MPD2    C1 9067   0.284   1.136  11.595
  608MPD2    C2 9068   0.384   1.042  11.562
  608MPD2    C3 9069   0.454   1.063  11.441
  608MPD2    C4 9070   0.441   1.177  11.364
  608MPD2    C5 9071   0.344   1.264  11.405
  608MPD2     H 9072   0.411   0.963  11.631
  608MPD2    H1 9073   0.490   1.189  11.268
  608MPD2    H2 9074   0.185   1.314  11.543
  608MPD2    H3 9075   0.318   1.350  11.345
  608MPD2     N 9076   0.553   0.975  11.388
  608MPD2    H5 9077   0.608   1.018  11.315
  608MPD2    N1 9078   0.189   1.111  11.700
  608MPD2    H7 9079   0.104   1.166  11.699
  609MPD2     C 9080   2.027   1.873  12.252
  609MPD2    C1 9081   1.932   1.864  12.149
  609MPD2    C2 9082   1.980   1.807  12.030
  609MPD2    C3 9083   2.111   1.784  12.005
  609MPD2    C4 9084   2.197   1.804  12.109
  609MPD2    C5 9085   2.156   1.845  12.228
  609MPD2     H 9086   1.903   1.781  11.958
  609MPD2    H1 9087   2.304   1.789  12.097
  609MPD2    H2 9088   2.005   1.903  12.354
  609MPD2    H3 9089   2.235   1.864  12.300
  609MPD2     N 9090   2.142   1.704  11.887
  609MPD2    H5 9091   2.072   1.706  11.813
  609MPD2    N1 9092   1.794   1.899  12.163
  609MPD2    H7 9093   1.730   1.883  12.086
  610MPD2     C 9094   3.750   0.742  11.138
  610MPD2    C1 9095   3.671   0.658  11.053
  610MPD2    C2 9096   3.657   0.693  10.917
  610MPD2    C3 9097   3.712   0.807  10.868
  610MPD2    C4 9098   3.782   0.893  10.958
  610MPD2    C5 9099   3.801   0.860  11.087
  610MPD2     H 9100   3.603   0.624  10.853
  610MPD2    H1 9101   3.796   0.997  10.928
  610MPD2    H2 9102   3.763   0.710  11.240
  610MPD2    H3 9103   3.850   0.924  11.160
  610MPD2     N 9104   3.692   0.856  10.736
  610MPD2    H5 9105   3.745   0.937  10.706
  610MPD2    N1 9106   3.602   0.539  11.101
  610MPD2    H7 9107   3.549   0.487  11.032
  611MPD2     C 9108   1.909   0.096  13.394
  611MPD2    C1 9109   1.991   0.006  13.328
  611MPD2    C2 9110   2.124   0.024  13.329
  611MPD2    C3 9111   2.184   0.137  13.379
  611MPD2    C4 9112   2.099   0.234  13.434
  611MPD2    C5 9113   1.963   0.211  13.439
  611MPD2     H 9114   2.195   4.739  13.301
  611MPD2    H1 9115   2.135   0.329  13.470
  611MPD2    H2 9116   1.802   0.077  13.398
  611MPD2    H3 9117   1.890   0.283  13.475
  611MPD2     N 9118   2.320   0.172  13.367
  611MPD2    H5 9119   2.349   0.259  13.411
  611MPD2    N1 9120   1.929   4.686  13.267
  611MPD2    H7 9121   1.841   4.657  13.309
  612MPD2     C 9122   2.445   3.945  11.667
  612MPD2    C1 9123   2.420   4.079  11.637
  612MPD2    C2 9124   2.287   4.107  11.630
  612MPD2    C3 9125   2.189   4.010  11.625
  612MPD2    C4 9126   2.218   3.876  11.658
  612MPD2    C5 9127   2.349   3.854  11.677
  612MPD2     H 9128   2.251   4.209  11.633
  612MPD2    H1 9129   2.145   3.796  11.663
  612MPD2    H2 9130   2.544   3.907  11.685
  612MPD2    H3 9131   2.376   3.754  11.709
  612MPD2     N 9132   2.047   4.043  11.620
  612MPD2    H5 9133   1.984   3.964  11.620
  612MPD2    N1 9134   2.525   4.164  11.629
  612MPD2    H7 9135   2.604   4.131  11.684
  613MPD2     C 9136   1.662   4.607  11.566
  613MPD2    C1 9137   1.758   4.671  11.641
  613MPD2    C2 9138   1.889   4.668  11.608
  613MPD2    C3 9139   1.927   4.594  11.492
  613MPD2    C4 9140   1.827   4.530  11.411
  613MPD2    C5 9141   1.696   4.539  11.450
  613MPD2     H 9142   1.964   4.707  11.676
  613MPD2    H1 9143   1.851   4.482  11.317
  613MPD2    H2 9144   1.556   4.616  11.583
  613MPD2    H3 9145   1.622   4.492  11.387
  613MPD2     N 9146   2.056   4.569  11.440
  613MPD2    H5 9147   2.061   4.508  11.358
  613MPD2    N1 9148   1.731   4.741  11.761
  613MPD2    H7 9149   1.798   0.016  11.801
  614MPD2     C 9150   1.769   1.760   7.537
  614MPD2    C1 9151   1.765   1.865   7.618
  614MPD2    C2 9152   1.833   1.979   7.585
  614MPD2    C3 9153   1.919   1.986   7.473
  614MPD2    C4 9154   1.934   1.871   7.399
  614MPD2    C5 9155   1.855   1.762   7.427
  614MPD2     H 9156   1.830   2.061   7.655
  614MPD2    H1 9157   1.987   1.879   7.305
  614MPD2    H2 9158   1.715   1.667   7.554
  614MPD2    H3 9159   1.844   1.685   7.352
  614MPD2     N 9160   2.007   2.097   7.463
  614MPD2    H5 9161   2.094   2.085   7.410
  614MPD2    N1 9162   1.698   1.865   7.741
  614MPD2    H7 9163   1.705   1.951   7.795
  615MPD2     C 9164   0.543   3.897   9.434
  615MPD2    C1 9165   0.422   3.957   9.454
  615MPD2    C2 9166   0.370   4.040   9.352
  615MPD2    C3 9167   0.407   4.023   9.222
  615MPD2    C4 9168   0.525   3.961   9.196
  615MPD2    C5 9169   0.600   3.907   9.300
  615MPD2     H 9170   0.280   4.096   9.373
  615MPD2    H1 9171   0.569   3.954   9.097
  615MPD2    H2 9172   0.591   3.840   9.513
  615MPD2    H3 9173   0.700   3.869   9.279
  615MPD2     N 9174   0.327   4.083   9.126
  615MPD2    H5 9175   0.253   4.143   9.163
  615MPD2    N1 9176   0.358   3.940   9.583
  615MPD2    H7 9177   0.429   3.920   9.653
  616MPD2     C 9178   4.628   4.286   9.127
  616MPD2    C1 9179   4.586   4.157   9.112
  616MPD2    C2 9180   4.471   4.140   9.035
  616MPD2    C3 9181   4.404   4.235   8.967
  616MPD2    C4 9182   4.448   4.359   8.981
  616MPD2    C5 9183   4.561   4.382   9.055
  616MPD2     H 9184   4.421   4.045   9.048
  616MPD2    H1 9185   4.390   4.445   8.949
  616MPD2    H2 9186   4.707   4.313   9.195
  616MPD2    H3 9187   4.596   4.483   9.070
  616MPD2     N 9188   4.289   4.197   8.890
  616MPD2    H5 9189   4.263   4.099   8.900
  616MPD2    N1 9190   4.641   4.054   9.195
  616MPD2    H7 9191   4.587   3.969   9.206
  617MPD2     C 9192   4.618   1.170  14.532
  617MPD2    C1 9193   4.676   1.051  14.486
  617MPD2    C2 9194   4.780   1.060  14.395
  617MPD2    C3 9195   0.027   1.184  14.343
  617MPD2    C4 9196   4.760   1.291  14.399
  617MPD2    C5 9197   4.654   1.289  14.478
  617MPD2     H 9198   0.046   0.970  14.375
  617MPD2    H1 9199   0.001   1.393  14.382
  617MPD2    H2 9200   4.534   1.176  14.601
  617MPD2    H3 9201   4.609   1.381  14.512
  617MPD2     N 9202   0.135   1.182  14.248
  617MPD2    H5 9203   0.170   1.088  14.241
  617MPD2    N1 9204   4.642   0.928  14.551
  617MPD2    H7 9205   4.586   0.936  14.635
  618MPD2     C 9206   2.149   2.712  13.923
  618MPD2    C1 9207   2.227   2.649  14.017
  618MPD2    C2 9208   2.204   2.681  14.153
  618MPD2    C3 9209   2.098   2.771  14.199
  618MPD2    C4 9210   2.027   2.834  14.097
  618MPD2    C5 9211   2.055   2.801  13.961
  618MPD2     H 9212   2.257   2.616  14.221
  618MPD2    H1 9213   1.937   2.889  14.122
  618MPD2    H2 9214   2.168   2.703  13.817
  618MPD2    H3 9215   1.991   2.853  13.891
  618MPD2     N 9216   2.059   2.785  14.333
  618MPD2    H5 9217   1.976   2.841  14.347
  618MPD2    N1 9218   2.331   2.558  14.000
  618MPD2    H7 9219   2.376   2.514  14.079
  619MPD2     C 9220   3.826   4.339  10.069
  619MPD2    C1 9221   3.951   4.341  10.124
  619MPD2    C2 9222   4.026   4.460  10.120
  619MPD2    C3 9223   3.976   4.573  10.051
  619MPD2    C4 9224   3.851   4.569   9.985
  619MPD2    C5 9225   3.787   4.451   9.994
  619MPD2     H 9226   4.113   4.465  10.184
  619MPD2    H1 9227   3.802   4.654   9.939
  619MPD2    H2 9228   3.756   4.258  10.084
  619MPD2    H3 9229   3.688   4.456   9.950
  619MPD2     N 9230   4.048   4.696  10.044
  619MPD2    H5 9231   4.011   4.768   9.983
  619MPD2    N1 9232   4.008   4.233  10.199
  619MPD2    H7 9233   4.073   4.262  10.272
  620MPD2     C 9234   1.442   1.928  14.879
  620MPD2    C1 9235   1.549   2.003  14.920
  620MPD2    C2 9236   1.527   2.100  15.014
  620MPD2    C3 9237   1.394   2.114  15.065
  620MPD2    C4 9238   1.289   2.041  15.016
  620MPD2    C5 9239   1.319   1.940  14.930
  620MPD2     H 9240   1.610   2.163  15.044
  620MPD2    H1 9241   1.187   2.047  15.054
  620MPD2    H2 9242   1.444   1.859  14.794
  620MPD2    H3 9243   1.238   1.876  14.895
  620MPD2     N 9244   1.370   2.222  15.157
  620MPD2    H5 9245   1.272   2.244  15.171
  620MPD2    N1 9246   1.684   1.983  14.879
  620MPD2    H7 9247   1.761   2.028  14.928
  621MPD2     C 9248   1.830   2.235  14.532
  621MPD2    C1 9249   1.694   2.223  14.556
  621MPD2    C2 9250   1.648   2.293  14.663
  621MPD2    C3 9251   1.721   2.365  14.755
  621MPD2    C4 9252   1.856   2.351  14.744
  621MPD2    C5 9253   1.908   2.285  14.631
  621MPD2     H 9254   1.540   2.305  14.667
  621MPD2    H1 9255   1.933   2.394  14.807
  621MPD2    H2 9256   1.879   2.194  14.444
  621MPD2    H3 9257   2.015   2.279  14.621
  621MPD2     N 9258   1.658   2.449  14.851
  621MPD2    H5 9259   1.723   2.492  14.916
  621MPD2    N1 9260   1.605   2.151  14.471
  621MPD2    H7 9261   1.509   2.151  14.504
  622MPD2     C 9262   1.368   0.632   9.479
  622MPD2    C1 9263   1.276   0.686   9.400
  622MPD2    C2 9264   1.158   0.613   9.384
  622MPD2    C3 9265   1.134   0.502   9.464
  622MPD2    C4 9266   1.228   0.453   9.549
  622MPD2    C5 9267   1.348   0.517   9.554
  622MPD2     H 9268   1.074   0.638   9.320
  622MPD2    H1 9269   1.206   0.369   9.615
  622MPD2    H2 9270   1.468   0.673   9.492
  622MPD2    H3 9271   1.423   0.484   9.625
  622MPD2     N 9272   1.020   0.421   9.431
  622MPD2    H5 9273   0.971   0.448   9.346
  622MPD2    N1 9274   1.306   0.794   9.314
  622MPD2    H7 9275   1.402   0.818   9.289
  623MPD2     C 9276   1.197   0.173   8.937
  623MPD2    C1 9277   1.091   0.260   8.947
  623MPD2    C2 9278   1.101   0.400   8.926
  623MPD2    C3 9279   1.220   0.448   8.881
  623MPD2    C4 9280   1.330   0.359   8.863
  623MPD2    C5 9281   1.323   0.226   8.895
  623MPD2     H 9282   1.023   0.470   8.954
  623MPD2    H1 9283   1.427   0.398   8.834
  623MPD2    H2 9284   1.190   0.066   8.928
  623MPD2    H3 9285   1.396   0.148   8.873
  623MPD2     N 9286   1.245   0.586   8.872
  623MPD2    H5 9287   1.340   0.618   8.861
  623MPD2    N1 9288   0.965   0.224   9.004
  623MPD2    H7 9289   0.904   0.302   9.026
  624MPD2     C 9290   3.327   3.701   6.880
  624MPD2    C1 9291   3.359   3.824   6.823
  624MPD2    C2 9292   3.493   3.860   6.824
  624MPD2    C3 9293   3.590   3.785   6.886
  624MPD2    C4 9294   3.553   3.666   6.944
  624MPD2    C5 9295   3.421   3.620   6.944
  624MPD2     H 9296   3.526   3.952   6.779
  624MPD2    H1 9297   3.617   3.599   7.001
  624MPD2    H2 9298   3.223   3.672   6.876
  624MPD2    H3 9299   3.387   3.532   6.998
  624MPD2     N 9300   3.725   3.831   6.895
  624MPD2    H5 9301   3.769   3.896   6.831
  624MPD2    N1 9302   3.255   3.897   6.765
  624MPD2    H7 9303   3.162   3.857   6.765
  625MPD2     C 9304   3.543   4.717   6.640
  625MPD2    C1 9305   3.488   4.651   6.748
  625MPD2    C2 9306   3.394   4.554   6.720
  625MPD2    C3 9307   3.343   4.530   6.601
  625MPD2    C4 9308   3.403   4.597   6.491
  625MPD2    C5 9309   3.504   4.691   6.509
  625MPD2     H 9310   3.359   4.478   6.789
  625MPD2    H1 9311   3.370   4.576   6.390
  625MPD2    H2 9312   3.619   4.790   6.665
  625MPD2    H3 9313   3.563   4.740   6.433
  625MPD2     N 9314   3.245   4.427   6.600
  625MPD2    H5 9315   3.213   4.391   6.689
  625MPD2    N1 9316   3.544   4.672   6.876
  625MPD2    H7 9317   3.630   4.725   6.890
  626MPD2     C 9318   3.073   4.004   7.775
  626MPD2    C1 9319   3.089   4.082   7.661
  626MPD2    C2 9320   3.058   4.027   7.537
  626MPD2    C3 9321   2.987   3.904   7.532
  626MPD2    C4 9322   2.965   3.836   7.643
  626MPD2    C5 9323   3.010   3.881   7.757
  626MPD2     H 9324   3.090   4.081   7.448
  626MPD2    H1 9325   2.917   3.739   7.637
  626MPD2    H2 9326   3.107   4.026   7.875
  626MPD2    H3 9327   2.995   3.824   7.849
  626MPD2     N 9328   2.960   3.834   7.409
  626MPD2    H5 9329   2.930   3.738   7.424
  626MPD2    N1 9330   3.141   4.214   7.662
  626MPD2    H7 9331   3.159   4.256   7.572
  627MPD2     C 9332   2.960   1.790   9.670
  627MPD2    C1 9333   2.938   1.915   9.617
  627MPD2    C2 9334   3.038   1.975   9.542
  627MPD2    C3 9335   3.143   1.903   9.493
  627MPD2    C4 9336   3.169   1.782   9.549
  627MPD2    C5 9337   3.077   1.723   9.634
  627MPD2     H 9338   3.037   2.078   9.509
  627MPD2    H1 9339   3.261   1.729   9.529
  627MPD2    H2 9340   2.882   1.733   9.721
  627MPD2    H3 9341   3.097   1.625   9.678
  627MPD2     N 9342   3.232   1.959   9.394
  627MPD2    H5 9343   3.324   1.917   9.390
  627MPD2    N1 9344   2.810   1.974   9.640
  627MPD2    H7 9345   2.752   1.921   9.705
  628MPD2     C 9346   3.289   1.542   8.769
  628MPD2    C1 9347   3.360   1.662   8.758
  628MPD2    C2 9348   3.456   1.670   8.660
  628MPD2    C3 9349   3.485   1.557   8.581
  628MPD2    C4 9350   3.404   1.443   8.587
  628MPD2    C5 9351   3.306   1.436   8.686
  628MPD2     H 9352   3.525   1.754   8.660
  628MPD2    H1 9353   3.415   1.357   8.522
  628MPD2    H2 9354   3.221   1.534   8.852
  628MPD2    H3 9355   3.239   1.352   8.696
  628MPD2     N 9356   3.602   1.557   8.497
  628MPD2    H5 9357   3.658   1.641   8.492
  628MPD2    N1 9358   3.338   1.775   8.837
  628MPD2    H7 9359   3.383   1.861   8.807
  629MPD2     C 9360   0.154   0.866  15.169
  629MPD2    C1 9361   0.185   0.768  15.077
  629MPD2    C2 9362   0.295   0.688  15.094
  629MPD2    C3 9363   0.375   0.710  15.204
  629MPD2    C4 9364   0.348   0.818  15.284
  629MPD2    C5 9365   0.237   0.900  15.273
  629MPD2     H 9366   0.320   0.601  15.035
  629MPD2    H1 9367   0.418   0.850  15.361
  629MPD2    H2 9368   0.061   0.919  15.153
  629MPD2    H3 9369   0.223   0.987  15.336
  629MPD2     N 9370   0.477   0.617  15.227
  629MPD2    H5 9371   0.481   0.537  15.165
  629MPD2    N1 9372   0.084   0.737  14.983
  629MPD2    H7 9373   0.002   0.797  14.983
  630MPD2     C 9374   4.283   1.970   8.332
  630MPD2    C1 9375   4.216   1.907   8.432
  630MPD2    C2 9376   4.235   1.947   8.566
  630MPD2    C3 9377   4.328   2.043   8.599
  630MPD2    C4 9378   4.403   2.097   8.496
  630MPD2    C5 9379   4.377   2.065   8.364
  630MPD2     H 9380   4.194   1.885   8.644
  630MPD2    H1 9381   4.491   2.155   8.519
  630MPD2    H2 9382   4.279   1.944   8.227
  630MPD2    H3 9383   4.431   2.103   8.277
  630MPD2     N 9384   4.373   2.061   8.733
  630MPD2    H5 9385   4.336   2.008   8.810
  630MPD2    N1 9386   4.140   1.786   8.401
  630MPD2    H7 9387   4.142   1.748   8.307
  631MPD2     C 9388   1.129   2.282  14.286
  631MPD2    C1 9389   1.107   2.388  14.371
  631MPD2    C2 9390   1.022   2.363  14.476
  631MPD2    C3 9391   0.940   2.248  14.479
  631MPD2    C4 9392   0.961   2.153  14.387
  631MPD2    C5 9393   1.065   2.162  14.300
  631MPD2     H 9394   1.013   2.441  14.551
  631MPD2    H1 9395   0.913   2.056  14.389
  631MPD2    H2 9396   1.206   2.295  14.211
  631MPD2    H3 9397   1.090   2.079  14.235
  631MPD2     N 9398   0.855   2.216  14.582
  631MPD2    H5 9399   0.817   2.123  14.595
  631MPD2    N1 9400   1.185   2.508  14.366
  631MPD2    H7 9401   1.160   2.571  14.442
  632MPD2     C 9402   4.665   2.194  14.665
  632MPD2    C1 9403   4.738   2.084  14.690
  632MPD2    C2 9404   0.083   2.104  14.724
  632MPD2    C3 9405   0.144   2.229  14.739
  632MPD2    C4 9406   0.067   2.341  14.719
  632MPD2    C5 9407   4.725   2.319  14.680
  632MPD2     H 9408   0.143   2.017  14.748
  632MPD2    H1 9409   0.103   2.443  14.725
  632MPD2    H2 9410   4.562   2.190  14.631
  632MPD2    H3 9411   4.653   2.398  14.663
  632MPD2     N 9412   0.285   2.236  14.770
  632MPD2    H5 9413   0.330   2.147  14.787
  632MPD2    N1 9414   4.673   1.966  14.668
  632MPD2    H7 9415   4.574   1.971  14.644
  633MPD2     C 9416   2.257   4.556  10.639
  633MPD2    C1 9417   2.260   4.528  10.503
  633MPD2    C2 9418   2.236   4.634  10.412
  633MPD2    C3 9419   2.194   4.751  10.447
  633MPD2    C4 9420   2.184   4.779  10.578
  633MPD2    C5 9421   2.212   4.683  10.671
  633MPD2     H 9422   2.250   4.610  10.307
  633MPD2    H1 9423   2.152   0.086  10.612
  633MPD2    H2 9424   2.262   4.490  10.725
  633MPD2    H3 9425   2.208   4.705  10.777
  633MPD2     N 9426   2.177   0.069  10.363
  633MPD2    H5 9427   2.186   0.159  10.409
  633MPD2    N1 9428   2.302   4.400  10.457
  633MPD2    H7 9429   2.347   4.334  10.520
  634MPD2     C 9430   3.871   4.222   8.317
  634MPD2    C1 9431   3.771   4.279   8.235
  634MPD2    C2 9432   3.722   4.209   8.129
  634MPD2    C3 9433   3.762   4.076   8.109
  634MPD2    C4 9434   3.855   4.022   8.189
  634MPD2    C5 9435   3.913   4.087   8.295
  634MPD2     H 9436   3.649   4.246   8.058
  634MPD2    H1 9437   3.876   3.915   8.190
  634MPD2    H2 9438   3.907   4.269   8.407
  634MPD2    H3 9439   3.971   4.039   8.372
  634MPD2     N 9440   3.699   4.002   8.008
  634MPD2    H5 9441   3.643   4.061   7.948
  634MPD2    N1 9442   3.721   4.409   8.256
  634MPD2    H7 9443   3.655   4.441   8.186
  635MPD2     C 9444   1.979   3.559  14.704
  635MPD2    C1 9445   1.925   3.638  14.607
  635MPD2    C2 9446   1.955   3.601  14.474
  635MPD2    C3 9447   2.063   3.514  14.449
  635MPD2    C4 9448   2.109   3.431  14.548
  635MPD2    C5 9449   2.061   3.459  14.674
  635MPD2     H 9450   1.903   3.645  14.390
  635MPD2    H1 9451   2.185   3.355  14.540
  635MPD2    H2 9452   1.961   3.579  14.809
  635MPD2    H3 9453   2.093   3.385  14.747
  635MPD2     N 9454   2.129   3.517  14.319
  635MPD2    H5 9455   2.081   3.574  14.251
  635MPD2    N1 9456   1.829   3.740  14.638
  635MPD2    H7 9457   1.839   3.783  14.729
  636MPD2     C 9458   1.309   0.360  10.064
  636MPD2    C1 9459   1.425   0.365   9.993
  636MPD2    C2 9460   1.424   0.317   9.868
  636MPD2    C3 9461   1.317   0.249   9.816
  636MPD2    C4 9462   1.196   0.254   9.886
  636MPD2    C5 9463   1.196   0.313  10.012
  636MPD2     H 9464   1.522   0.321   9.821
  636MPD2    H1 9465   1.103   0.213   9.847
  636MPD2    H2 9466   1.298   0.412  10.159
  636MPD2    H3 9467   1.100   0.323  10.061
  636MPD2     N 9468   1.318   0.164   9.701
  636MPD2    H5 9469   1.241   0.098   9.694
  636MPD2    N1 9470   1.541   0.416  10.042
  636MPD2    H7 9471   1.601   0.457   9.971
  637MPD2     C 9472   2.045   3.411  10.098
  637MPD2    C1 9473   1.995   3.492  10.197
  637MPD2    C2 9474   1.867   3.539  10.183
  637MPD2    C3 9475   1.794   3.508  10.075
  637MPD2    C4 9476   1.849   3.429   9.977
  637MPD2    C5 9477   1.971   3.384   9.984
  637MPD2     H 9478   1.830   3.592  10.270
  637MPD2    H1 9479   1.800   3.395   9.886
  637MPD2    H2 9480   2.139   3.357  10.103
  637MPD2    H3 9481   2.015   3.327   9.904
  637MPD2     N 9482   1.658   3.548  10.057
  637MPD2    H5 9483   1.612   3.487   9.990
  637MPD2    N1 9484   2.068   3.523  10.312
  637MPD2    H7 9485   2.021   3.578  10.383
  638MPD2     C 9486   1.213   4.579  10.336
  638MPD2    C1 9487   1.196   4.678  10.432
  638MPD2    C2 9488   1.107   4.654  10.541
  638MPD2    C3 9489   1.040   4.531  10.549
  638MPD2    C4 9490   1.059   4.442  10.449
  638MPD2    C5 9491   1.139   4.469  10.342
  638MPD2     H 9492   1.088   4.738  10.607
  638MPD2    H1 9493   0.996   4.354  10.449
  638MPD2    H2 9494   1.271   4.593  10.245
  638MPD2    H3 9495   1.128   4.413  10.250
  638MPD2     N 9496   0.947   4.492  10.650
  638MPD2    H5 9497   0.926   4.393  10.656
  638MPD2    N1 9498   1.277   0.001  10.433
  638MPD2    H7 9499   1.244   0.066  10.503
  639MPD2     C 9500   2.187   2.218  15.110
  639MPD2    C1 9501   2.214   2.211  14.975
  639MPD2    C2 9502   2.218   2.327  14.900
  639MPD2    C3 9503   2.193   2.448  14.961
  639MPD2    C4 9504   2.180   2.451  15.095
  639MPD2    C5 9505   2.173   2.338  15.172
  639MPD2     H 9506   2.234   2.321  14.793
  639MPD2    H1 9507   2.161   2.545  15.146
  639MPD2    H2 9508   2.167   2.129  15.168
  639MPD2    H3 9509   2.151   2.344  15.278
  639MPD2     N 9510   2.187   2.566  14.875
  639MPD2    H5 9511   2.214   2.560  14.777
  639MPD2    N1 9512   2.200   2.087  14.904
  639MPD2    H7 9513   2.205   2.101  14.803
  640MPD2     C 9514   4.514   2.523   8.128
  640MPD2    C1 9515   4.383   2.564   8.119
  640MPD2    C2 9516   4.295   2.535   8.217
  640MPD2    C3 9517   4.334   2.453   8.325
  640MPD2    C4 9518   4.465   2.406   8.323
  640MPD2    C5 9519   4.555   2.445   8.232
  640MPD2     H 9520   4.193   2.573   8.212
  640MPD2    H1 9521   4.494   2.337   8.401
  640MPD2    H2 9522   4.580   2.570   8.057
  640MPD2    H3 9523   4.658   2.412   8.234
  640MPD2     N 9524   4.252   2.414   8.429
  640MPD2    H5 9525   4.300   2.383   8.513
  640MPD2    N1 9526   4.335   2.663   8.030
  640MPD2    H7 9527   4.244   2.706   8.047
  641MPD2     C 9528   4.765   4.053   6.959
  641MPD2    C1 9529   0.085   4.000   7.026
  641MPD2    C2 9530   0.065   3.911   7.131
  641MPD2    C3 9531   4.727   3.873   7.170
  641MPD2    C4 9532   4.619   3.927   7.104
  641MPD2    C5 9533   4.637   4.017   7.004
  641MPD2     H 9534   0.150   3.880   7.192
  641MPD2    H1 9535   4.516   3.897   7.117
  641MPD2    H2 9536   4.769   4.119   6.873
  641MPD2    H3 9537   4.557   4.056   6.943
  641MPD2     N 9538   4.710   3.760   7.256
  641MPD2    H5 9539   4.614   3.742   7.282
  641MPD2    N1 9540   0.204   4.035   6.972
  641MPD2    H7 9541   0.211   4.085   6.884
  642MPD2     C 9542   4.214   1.269   7.325
  642MPD2    C1 9543   4.124   1.167   7.310
  642MPD2    C2 9544   4.170   1.045   7.262
  642MPD2    C3 9545   4.302   1.034   7.210
  642MPD2    C4 9546   4.382   1.149   7.210
  642MPD2    C5 9547   4.339   1.266   7.267
  642MPD2     H 9548   4.100   0.962   7.253
  642MPD2    H1 9549   4.485   1.142   7.177
  642MPD2    H2 9550   4.180   1.362   7.370
  642MPD2    H3 9551   4.414   1.344   7.269
  642MPD2     N 9552   4.360   0.912   7.160
  642MPD2    H5 9553   4.457   0.918   7.132
  642MPD2    N1 9554   3.985   1.176   7.342
  642MPD2    H7 9555   3.939   1.086   7.342
  643MPD2     C 9556   0.204   4.317   8.454
  643MPD2    C1 9557   0.162   4.444   8.483
  643MPD2    C2 9558   0.028   4.464   8.497
  643MPD2    C3 9559   4.726   4.362   8.483
  643MPD2    C4 9560   4.775   4.241   8.455
  643MPD2    C5 9561   0.117   4.213   8.445
  643MPD2     H 9562   4.782   4.560   8.532
  643MPD2    H1 9563   4.704   4.160   8.440
  643MPD2    H2 9564   0.310   4.303   8.441
  643MPD2    H3 9565   0.152   4.113   8.422
  643MPD2     N 9566   4.584   4.373   8.500
  643MPD2    H5 9567   4.526   4.290   8.495
  643MPD2    N1 9568   0.239   4.556   8.509
  643MPD2    H7 9569   0.201   4.649   8.495
  644MPD2     C 9570   1.046   4.228   9.546
  644MPD2    C1 9571   1.103   4.314   9.454
  644MPD2    C2 9572   1.088   4.293   9.315
  644MPD2    C3 9573   0.996   4.199   9.269
  644MPD2    C4 9574   0.942   4.113   9.367
  644MPD2    C5 9575   0.966   4.127   9.501
  644MPD2     H 9576   1.160   4.336   9.247
  644MPD2    H1 9577   0.873   4.035   9.336
  644MPD2    H2 9578   1.070   4.234   9.651
  644MPD2    H3 9579   0.900   4.073   9.568
  644MPD2     N 9580   0.967   4.189   9.127
  644MPD2    H5 9581   1.013   4.254   9.063
  644MPD2    N1 9582   1.197   4.403   9.509
  644MPD2    H7 9583   1.228   4.385   9.603
  645MPD2     C 9584   4.427   3.608   6.448
  645MPD2    C1 9585   4.486   3.717   6.516
  645MPD2    C2 9586   4.403   3.793   6.596
  645MPD2    C3 9587   4.264   3.769   6.599
  645MPD2    C4 9588   4.216   3.662   6.528
  645MPD2    C5 9589   4.294   3.585   6.455
  645MPD2     H 9590   4.444   3.876   6.652
  645MPD2    H1 9591   4.111   3.635   6.532
  645MPD2    H2 9592   4.477   3.557   6.366
  645MPD2    H3 9593   4.248   3.501   6.406
  645MPD2     N 9594   4.175   3.823   6.696
  645MPD2    H5 9595   4.082   3.783   6.701
  645MPD2    N1 9596   4.623   3.733   6.509
  645MPD2    H7 9597   4.662   3.660   6.449
  646MPD2     C 9598   2.421   1.411  15.407
  646MPD2    C1 9599   2.336   1.489  15.332
  646MPD2    C2 9600   2.386   1.589  15.257
  646MPD2    C3 9601   2.526   1.619  15.260
  646MPD2    C4 9602   2.605   1.548  15.341
  646MPD2    C5 9603   2.556   1.437  15.410
  646MPD2     H 9604   2.325   1.650  15.191
  646MPD2    H1 9605   2.709   1.574  15.361
  646MPD2    H2 9606   2.393   1.319  15.456
  646MPD2    H3 9607   2.616   1.368  15.469
  646MPD2     N 9608   2.572   1.732  15.196
  646MPD2    H5 9609   2.504   1.796  15.158
  646MPD2    N1 9610   2.201   1.472  15.321
  646MPD2    H7 9611   2.146   1.526  15.256
  647MPD2     C 9612   4.092   1.698  14.060
  647MPD2    C1 9613   4.039   1.717  14.187
  647MPD2    C2 9614   4.127   1.712  14.301
  647MPD2    C3 9615   4.262   1.692  14.278
  647MPD2    C4 9616   4.308   1.675  14.151
  647MPD2    C5 9617   4.226   1.675  14.047
  647MPD2     H 9618   4.087   1.757  14.391
  647MPD2    H1 9619   4.413   1.655  14.132
  647MPD2    H2 9620   4.027   1.702  13.973
  647MPD2    H3 9621   4.267   1.653  13.949
  647MPD2     N 9622   4.353   1.683  14.384
  647MPD2    H5 9623   4.452   1.684  14.363
  647MPD2    N1 9624   3.909   1.769  14.180
  647MPD2    H7 9625   3.893   1.795  14.083
  648MPD2     C 9626   1.211   2.766  11.173
  648MPD2    C1 9627   1.297   2.742  11.071
  648MPD2    C2 9628   1.398   2.831  11.044
  648MPD2    C3 9629   1.412   2.948  11.127
  648MPD2    C4 9630   1.336   2.958  11.238
  648MPD2    C5 9631   1.237   2.870  11.258
  648MPD2     H 9632   1.463   2.813  10.959
  648MPD2    H1 9633   1.343   3.038  11.311
  648MPD2    H2 9634   1.130   2.700  11.201
  648MPD2    H3 9635   1.166   2.886  11.338
  648MPD2     N 9636   1.520   3.050  11.101
  648MPD2    H5 9637   1.515   3.140  11.149
  648MPD2    N1 9638   1.274   2.621  10.994
  648MPD2    H7 9639   1.211   2.553  11.034
  649MPD2     C 9640   3.078   4.284   8.802
  649MPD2    C1 9641   2.954   4.305   8.861
  649MPD2    C2 9642   2.877   4.412   8.817
  649MPD2    C3 9643   2.920   4.497   8.721
  649MPD2    C4 9644   3.040   4.471   8.660
  649MPD2    C5 9645   3.122   4.366   8.702
  649MPD2     H 9646   2.775   4.408   8.854
  649MPD2    H1 9647   3.079   4.540   8.585
  649MPD2    H2 9648   3.143   4.207   8.843
  649MPD2    H3 9649   3.214   4.334   8.656
  649MPD2     N 9650   2.850   4.605   8.671
  649MPD2    H5 9651   2.875   4.631   8.576
  649MPD2    N1 9652   2.911   4.225   8.974
  649MPD2    H7 9653   2.823   4.255   9.015
  650MPD2     C 9654   3.821   2.642   8.128
  650MPD2    C1 9655   3.833   2.716   8.237
  650MPD2    C2 9656   3.821   2.851   8.231
  650MPD2    C3 9657   3.790   2.915   8.110
  650MPD2    C4 9658   3.760   2.830   8.005
  650MPD2    C5 9659   3.773   2.695   8.013
  650MPD2     H 9660   3.834   2.912   8.320
  650MPD2    H1 9661   3.738   2.877   7.910
  650MPD2    H2 9662   3.842   2.536   8.140
  650MPD2    H3 9663   3.750   2.631   7.929
  650MPD2     N 9664   3.804   3.059   8.104
  650MPD2    H5 9665   3.837   3.111   8.184
  650MPD2    N1 9666   3.876   2.648   8.352
  650MPD2    H7 9667   3.913   2.556   8.331
  651TMC3    C1 9668   0.748   2.646   9.871
  651TMC3    C2 9669   0.730   2.770   9.810
  651TMC3    C3 9670   0.763   2.879   9.883
  651TMC3    C4 9671   0.812   2.635   9.997
  651TMC3    C5 9672   0.869   2.749  10.051
  651TMC3    C6 9673   0.839   2.872   9.998
  651TMC3     C 9674   0.640   2.550   9.845
  651TMC3     O 9675   0.610   2.557   9.727
  651TMC3     H 9676   0.658   2.780   9.730
  651TMC3    H1 9677   0.841   2.538  10.035
  651TMC3    H2 9678   0.864   2.958  10.059
  651TMC3    C7 9679   0.972   2.725  10.152
  651TMC3    C8 9680   0.667   2.993   9.866
  651TMC3    O1 9681   0.965   2.619  10.213
  651TMC3    O2 9682   0.566   2.985   9.796
  652TMC3    C1 9683   1.153   3.620   6.797
  652TMC3    C2 9684   1.180   3.750   6.758
  652TMC3    C3 9685   1.190   3.767   6.621
  652TMC3    C4 9686   1.158   3.510   6.715
  652TMC3    C5 9687   1.185   3.537   6.581
  652TMC3    C6 9688   1.179   3.662   6.531
  652TMC3     C 9689   1.137   3.600   6.941
  652TMC3     O 9690   1.062   3.510   6.980
  652TMC3     H 9691   1.158   3.832   6.826
  652TMC3    H1 9692   1.135   3.416   6.764
  652TMC3    H2 9693   1.196   3.683   6.426
  652TMC3    C7 9694   1.192   3.427   6.486
  652TMC3    C8 9695   1.250   3.900   6.578
  652TMC3    O1 9696   1.208   3.470   6.372
  652TMC3    O2 9697   1.204   3.948   6.475
  653TMC3    C1 9698   1.883   2.309  12.419
  653TMC3    C2 9699   1.990   2.391  12.444
  653TMC3    C3 9700   2.000   2.445  12.564
  653TMC3    C4 9701   1.797   2.269  12.524
  653TMC3    C5 9702   1.830   2.315  12.652
  653TMC3    C6 9703   1.930   2.407  12.672
  653TMC3     C 9704   1.848   2.287  12.282
  653TMC3     O 9705   1.733   2.276  12.248
  653TMC3     H 9706   2.063   2.418  12.369
  653TMC3    H1 9707   1.723   2.194  12.500
  653TMC3    H2 9708   1.928   2.467  12.762
  653TMC3    C7 9709   1.799   2.228  12.757
  653TMC3    C8 9710   2.094   2.553  12.599
  653TMC3    O1 9711   1.735   2.126  12.727
  653TMC3    O2 9712   2.141   2.554  12.714
  654TMC3    C1 9713   0.016   0.780   7.847
  654TMC3    C2 9714   0.092   0.829   7.744
  654TMC3    C3 9715   0.057   0.949   7.694
  654TMC3    C4 9716   4.711   0.858   7.911
  654TMC3    C5 9717   4.678   0.971   7.850
  654TMC3    C6 9718   4.759   1.027   7.750
  654TMC3     C 9719   0.042   0.648   7.892
  654TMC3     O 9720   4.743   0.572   7.896
  654TMC3     H 9721   0.156   0.761   7.689
  654TMC3    H1 9722   4.666   0.827   8.005
  654TMC3    H2 9723   4.720   1.121   7.713
  654TMC3    C7 9724   4.586   1.072   7.905
  654TMC3    C8 9725   0.066   0.956   7.548
  654TMC3    O1 9726   4.634   1.181   7.922
  654TMC3    O2 9727   0.081   0.848   7.488
  655TMC3    C1 9728   4.181   2.107  10.185
  655TMC3    C2 9729   4.204   2.021  10.085
  655TMC3    C3 9730   4.168   1.886  10.113
  655TMC3    C4 9731   4.119   2.073  10.303
  655TMC3    C5 9732   4.079   1.946  10.319
  655TMC3    C6 9733   4.111   1.846  10.230
  655TMC3     C 9734   4.257   2.237  10.182
  655TMC3     O 9735   4.284   2.282  10.291
  655TMC3     H 9736   4.278   2.026  10.006
  655TMC3    H1 9737   4.106   2.147  10.381
  655TMC3    H2 9738   4.099   1.741  10.254
  655TMC3    C7 9739   4.047   1.914  10.462
  655TMC3    C8 9740   4.201   1.788  10.009
  655TMC3    O1 9741   3.973   1.995  10.516
  655TMC3    O2 9742   4.279   1.822   9.925
  656TMC3    C1 9743   2.843   3.603  14.095
  656TMC3    C2 9744   2.943   3.669  14.023
  656TMC3    C3 9745   3.073   3.620  14.018
  656TMC3    C4 9746   2.868   3.486  14.155
  656TMC3    C5 9747   2.991   3.434  14.148
  656TMC3    C6 9748   3.093   3.501  14.082
  656TMC3     C 9749   2.712   3.662  14.108
  656TMC3     O 9750   2.683   3.724  14.004
  656TMC3     H 9751   2.917   3.762  13.973
  656TMC3    H1 9752   2.788   3.428  14.201
  656TMC3    H2 9753   3.191   3.456  14.087
  656TMC3    C7 9754   3.007   3.301  14.106
  656TMC3    C8 9755   3.140   3.641  13.895
  656TMC3    O1 9756   3.082   3.281  14.010
  656TMC3    O2 9757   3.145   3.751  13.841
  657TMC3    C1 9758   4.738   2.494   8.549
  657TMC3    C2 9759   0.010   2.522   8.431
  657TMC3    C3 9760   4.785   2.650   8.376
  657TMC3    C4 9761   4.658   2.579   8.624
  657TMC3    C5 9762   4.634   2.696   8.553
  657TMC3    C6 9763   4.703   2.733   8.440
  657TMC3     C 9764   4.763   2.356   8.590
  657TMC3     O 9765   4.768   2.274   8.500
  657TMC3     H 9766   0.081   2.456   8.382
  657TMC3    H1 9767   4.597   2.544   8.706
  657TMC3    H2 9768   4.682   2.828   8.392
  657TMC3    C7 9769   4.624   2.809   8.649
  657TMC3    C8 9770   0.122   2.708   8.334
  657TMC3    O1 9771   4.658   2.793   8.766
  657TMC3    O2 9772   0.229   2.656   8.373
  658TMC3    C1 9773   1.400   2.216   8.476
  658TMC3    C2 9774   1.487   2.173   8.381
  658TMC3    C3 9775   1.550   2.265   8.305
  658TMC3    C4 9776   1.375   2.346   8.503
  658TMC3    C5 9777   1.445   2.433   8.433
  658TMC3    C6 9778   1.526   2.399   8.332
  658TMC3     C 9779   1.298   2.120   8.513
  658TMC3     O 9780   1.254   2.041   8.431
  658TMC3     H 9781   1.495   2.066   8.369
  658TMC3    H1 9782   1.289   2.370   8.564
  658TMC3    H2 9783   1.561   2.477   8.264
  658TMC3    C7 9784   1.432   2.571   8.457
  658TMC3    C8 9785   1.671   2.233   8.232
  658TMC3    O1 9786   1.464   2.645   8.363
  658TMC3    O2 9787   1.665   2.276   8.118
  659TMC3    C1 9788   2.498   2.566  12.053
  659TMC3    C2 9789   2.492   2.606  12.188
  659TMC3    C3 9790   2.497   2.741  12.214
  659TMC3    C4 9791   2.488   2.664  11.954
  659TMC3    C5 9792   2.497   2.799  11.984
  659TMC3    C6 9793   2.504   2.835  12.115
  659TMC3     C 9794   2.468   2.428  12.020
  659TMC3     O 9795   2.430   2.364  12.119
  659TMC3     H 9796   2.485   2.534  12.268
  659TMC3    H1 9797   2.460   2.627  11.856
  659TMC3    H2 9798   2.516   2.940  12.138
  659TMC3    C7 9799   2.449   2.900  11.891
  659TMC3    C8 9800   2.512   2.797  12.350
  659TMC3    O1 9801   2.348   2.874  11.828
  659TMC3    O2 9802   2.459   2.736  12.445
  660TMC3    C1 9803   4.488   3.837  14.636
  660TMC3    C2 9804   4.461   3.909  14.524
  660TMC3    C3 9805   4.552   3.926  14.416
  660TMC3    C4 9806   4.617   3.794  14.647
  660TMC3    C5 9807   4.707   3.813  14.546
  660TMC3    C6 9808   4.677   3.887  14.432
  660TMC3     C 9809   4.392   3.732  14.656
  660TMC3     O 9810   4.428   3.617  14.659
  660TMC3     H 9811   4.362   3.945  14.499
  660TMC3    H1 9812   4.651   3.725  14.723
  660TMC3    H2 9813   4.747   3.890  14.349
  660TMC3    C7 9814   0.042   3.742  14.563
  660TMC3    C8 9815   4.490   3.896  14.289
  660TMC3    O1 9816   0.034   3.630  14.613
  660TMC3    O2 9817   4.394   3.820  14.274
  661TMC3    C1 9818   0.477   2.406  11.912
  661TMC3    C2 9819   0.373   2.334  11.855
  661TMC3    C3 9820   0.384   2.195  11.850
  661TMC3    C4 9821   0.584   2.338  11.970
  661TMC3    C5 9822   0.590   2.203  11.947
  661TMC3    C6 9823   0.494   2.126  11.892
  661TMC3     C 9824   0.469   2.549  11.904
  661TMC3     O 9825   0.368   2.608  11.862
  661TMC3     H 9826   0.295   2.389  11.804
  661TMC3    H1 9827   0.677   2.373  12.013
  661TMC3    H2 9828   0.508   2.019  11.881
  661TMC3    C7 9829   0.725   2.148  11.950
  661TMC3    C8 9830   0.305   2.121  11.754
  661TMC3    O1 9831   0.798   2.189  12.041
  661TMC3    O2 9832   0.355   2.017  11.717
  662TMC3    C1 9833   4.783   2.145  10.734
  662TMC3    C2 9834   0.102   2.059  10.728
  662TMC3    C3 9835   0.125   1.966  10.832
  662TMC3    C4 9836   4.700   2.129  10.835
  662TMC3    C5 9837   4.723   2.040  10.930
  662TMC3    C6 9838   0.036   1.950  10.928
  662TMC3     C 9839   4.773   2.245  10.631
  662TMC3     O 9840   0.088   2.287  10.588
  662TMC3     H 9841   0.172   2.072  10.646
  662TMC3    H1 9842   4.618   2.197  10.858
  662TMC3    H2 9843   0.067   1.889  11.012
  662TMC3    C7 9844   4.657   2.072  11.049
  662TMC3    C8 9845   0.253   1.897  10.813
  662TMC3    O1 9846   4.619   1.980  11.124
  662TMC3    O2 9847   0.314   1.918  10.709
  663TMC3    C1 9848   1.650   1.193   7.944
  663TMC3    C2 9849   1.600   1.225   7.822
  663TMC3    C3 9850   1.522   1.337   7.809
  663TMC3    C4 9851   1.620   1.273   8.050
  663TMC3    C5 9852   1.534   1.377   8.029
  663TMC3    C6 9853   1.485   1.409   7.907
  663TMC3     C 9854   1.762   1.099   7.963
  663TMC3     O 9855   1.845   1.089   7.876
  663TMC3     H 9856   1.621   1.176   7.728
  663TMC3    H1 9857   1.650   1.246   8.150
  663TMC3    H2 9858   1.423   1.496   7.885
  663TMC3    C7 9859   1.452   1.419   8.137
  663TMC3    C8 9860   1.440   1.342   7.691
  663TMC3    O1 9861   1.332   1.424   8.104
  663TMC3    O2 9862   1.360   1.251   7.674
  664TMC3    C1 9863   1.562   3.597  11.419
  664TMC3    C2 9864   1.571   3.541  11.544
  664TMC3    C3 9865   1.681   3.578  11.618
  664TMC3    C4 9866   1.657   3.669  11.358
  664TMC3    C5 9867   1.769   3.695  11.434
  664TMC3    C6 9868   1.774   3.659  11.563
  664TMC3     C 9869   1.453   3.557  11.340
  664TMC3     O 9870   1.347   3.547  11.400
  664TMC3     H 9871   1.486   3.495  11.592
  664TMC3    H1 9872   1.637   3.711  11.260
  664TMC3    H2 9873   1.855   3.681  11.632
  664TMC3    C7 9874   1.887   3.772  11.382
  664TMC3    C8 9875   1.722   3.489  11.728
  664TMC3    O1 9876   1.958   3.819  11.471
  664TMC3    O2 9877   1.816   3.517  11.800
  665TMC3    C1 9878   2.936   2.264  10.291
  665TMC3    C2 9879   2.833   2.345  10.273
  665TMC3    C3 9880   2.716   2.314  10.325
  665TMC3    C4 9881   2.915   2.136  10.330
  665TMC3    C5 9882   2.796   2.107  10.382
  665TMC3    C6 9883   2.696   2.202  10.401
  665TMC3     C 9884   3.059   2.284  10.219
  665TMC3     O 9885   3.123   2.184  10.192
  665TMC3     H 9886   2.841   2.442  10.226
  665TMC3    H1 9887   2.986   2.054  10.332
  665TMC3    H2 9888   2.608   2.185  10.462
  665TMC3    C7 9889   2.753   1.970  10.402
  665TMC3    C8 9890   2.611   2.413  10.306
  665TMC3    O1 9891   2.656   1.953  10.475
  665TMC3    O2 9892   2.625   2.498  10.222
  666TMC3    C1 9893   1.625   1.780  13.856
  666TMC3    C2 9894   1.676   1.905  13.851
  666TMC3    C3 9895   1.617   1.996  13.772
  666TMC3    C4 9896   1.504   1.754  13.793
  666TMC3    C5 9897   1.439   1.852  13.724
  666TMC3    C6 9898   1.502   1.971  13.698
  666TMC3     C 9899   1.721   1.676  13.827
  666TMC3     O 9900   1.675   1.564  13.818
  666TMC3     H 9901   1.774   1.934  13.888
  666TMC3    H1 9902   1.466   1.653  13.791
  666TMC3    H2 9903   1.451   2.053  13.649
  666TMC3    C7 9904   1.302   1.830  13.681
  666TMC3    C8 9905   1.664   2.130  13.803
  666TMC3    O1 9906   1.244   1.917  13.617
  666TMC3    O2 9907   1.701   2.153  13.921
  667TMC3    C1 9908   1.093   2.405  10.447
  667TMC3    C2 9909   1.227   2.427  10.455
  667TMC3    C3 9910   1.305   2.390  10.351
  667TMC3    C4 9911   1.037   2.343  10.339
  667TMC3    C5 9912   1.115   2.309  10.230
  667TMC3    C6 9913   1.251   2.327  10.237
  667TMC3     C 9914   1.019   2.484  10.539
  667TMC3     O 9915   1.026   2.452  10.657
  667TMC3     H 9916   1.262   2.491  10.535
  667TMC3    H1 9917   0.929   2.355  10.335
  667TMC3    H2 9918   1.314   2.298  10.154
  667TMC3    C7 9919   1.062   2.327  10.101
  667TMC3    C8 9920   1.431   2.445  10.340
  667TMC3    O1 9921   1.123   2.377  10.007
  667TMC3    O2 9922   1.521   2.361  10.324
  668TMC3    C1 9923   2.773   4.152  11.234
  668TMC3    C2 9924   2.743   4.285  11.234
  668TMC3    C3 9925   2.770   4.361  11.342
  668TMC3    C4 9926   2.842   4.089  11.339
  668TMC3    C5 9927   2.874   4.166  11.443
  668TMC3    C6 9928   2.844   4.302  11.447
  668TMC3     C 9929   2.811   4.115  11.100
  668TMC3     O 9930   2.855   4.203  11.023
  668TMC3     H 9931   2.700   4.328  11.145
  668TMC3    H1 9932   2.880   3.989  11.328
  668TMC3    H2 9933   2.863   4.364  11.534
  668TMC3    C7 9934   2.869   4.099  11.574
  668TMC3    C8 9935   2.754   4.501  11.323
  668TMC3    O1 9936   2.797   4.000  11.585
  668TMC3    O2 9937   2.677   4.530  11.237
  669TMC3    C1 9938   1.652   3.602   8.715
  669TMC3    C2 9939   1.771   3.611   8.649
  669TMC3    C3 9940   1.782   3.705   8.551
  669TMC3    C4 9941   1.550   3.690   8.698
  669TMC3    C5 9942   1.571   3.788   8.600
  669TMC3    C6 9943   1.682   3.804   8.526
  669TMC3     C 9944   1.622   3.474   8.786
  669TMC3     O 9945   1.513   3.426   8.750
  669TMC3     H 9946   1.855   3.547   8.673
  669TMC3    H1 9947   1.457   3.667   8.748
  669TMC3    H2 9948   1.693   3.878   8.447
  669TMC3    C7 9949   1.479   3.896   8.598
  669TMC3    C8 9950   1.915   3.723   8.495
  669TMC3    O1 9951   1.493   3.979   8.508
  669TMC3    O2 9952   2.003   3.720   8.582
  670TMC3    C1 9953   0.921   1.286  14.890
  670TMC3    C2 9954   0.907   1.188  14.792
  670TMC3    C3 9955   1.002   1.099  14.759
  670TMC3    C4 9956   1.039   1.282  14.955
  670TMC3    C5 9957   1.128   1.194  14.928
  670TMC3    C6 9958   1.113   1.091  14.833
  670TMC3     C 9959   0.854   1.415  14.894
  670TMC3     O 9960   0.905   1.503  14.960
  670TMC3     H 9961   0.814   1.169  14.740
  670TMC3    H1 9962   1.063   1.364  15.022
  670TMC3    H2 9963   1.189   1.015  14.818
  670TMC3    C7 9964   1.263   1.234  14.965
  670TMC3    C8 9965   0.977   1.005  14.651
  670TMC3    O1 9966   1.273   1.261  15.081
  670TMC3    O2 9967   0.868   0.967  14.631
  671TMC3    C1 9968   2.718   1.380  10.660
  671TMC3    C2 9969   2.591   1.431  10.651
  671TMC3    C3 9970   2.569   1.559  10.665
  671TMC3    C4 9971   2.827   1.461  10.670
  671TMC3    C5 9972   2.801   1.593  10.671
  671TMC3    C6 9973   2.672   1.643  10.668
  671TMC3     C 9974   2.719   1.264  10.746
  671TMC3     O 9975   2.607   1.222  10.775
  671TMC3     H 9976   2.507   1.364  10.638
  671TMC3    H1 9977   2.929   1.427  10.682
  671TMC3    H2 9978   2.641   1.745  10.689
  671TMC3    C7 9979   2.904   1.683  10.721
  671TMC3    C8 9980   2.479   1.582  10.784
  671TMC3    O1 9981   2.998   1.627  10.772
  671TMC3    O2 9982   2.471   1.698  10.824
  672TMC3    C1 9983   2.663   1.022  10.461
  672TMC3    C2 9984   2.606   1.117  10.383
  672TMC3    C3 9985   2.475   1.147  10.402
  672TMC3    C4 9986   2.583   0.949  10.543
  672TMC3    C5 9987   2.447   0.967  10.550
  672TMC3    C6 9988   2.390   1.069  10.476
  672TMC3     C 9989   2.803   1.036  10.484
  672TMC3     O 9990   2.853   1.144  10.445
  672TMC3     H 9991   2.657   1.185  10.316
  672TMC3    H1 9992   2.640   0.893  10.615
  672TMC3    H2 9993   2.287   1.104  10.479
  672TMC3    C7 9994   2.369   0.862  10.608
  672TMC3    C8 9995   2.419   1.246  10.312
  672TMC3    O1 9996   2.254   0.865  10.560
  672TMC3    O2 9997   2.456   1.244  10.195
  673TMC3    C1 9998   2.044   0.520  13.979
  673TMC3    C2 9999   2.051   0.412  13.900
  673TMC3    C310000   2.061   0.292  13.958
  673TMC3    C410001   2.062   0.514  14.118
  673TMC3    C510002   2.054   0.389  14.174
  673TMC3    C610003   2.050   0.276  14.092
  673TMC3     C10004   2.043   0.645  13.910
  673TMC3     O10005   1.961   0.653  13.814
  673TMC3     H10006   2.034   0.422  13.794
  673TMC3    H110007   2.065   0.598  14.186
  673TMC3    H210008   2.044   0.179  14.138
  673TMC3    C710009   1.963   0.371  14.291
  673TMC3    C810010   2.043   0.179  13.883
  673TMC3    O110011   2.004   0.419  14.398
  673TMC3    O210012   2.088   0.072  13.928
  674TMC3    C110013   3.896   1.972   9.508
  674TMC3    C210014   3.853   2.088   9.559
  674TMC3    C310015   3.731   2.132   9.516
  674TMC3    C410016   3.818   1.888   9.433
  674TMC3    C510017   3.691   1.927   9.409
  674TMC3    C610018   3.645   2.048   9.450
  674TMC3     C10019   4.030   1.929   9.557
  674TMC3     O10020   4.073   1.994   9.651
  674TMC3     H10021   3.909   2.149   9.629
  674TMC3    H110022   3.847   1.787   9.405
  674TMC3    H210023   3.545   2.074   9.416
  674TMC3    C710024   3.593   1.832   9.355
  674TMC3    C810025   3.753   2.241   9.426
  674TMC3    O110026   3.480   1.845   9.401
  674TMC3    O210027   3.667   2.249   9.339
  675TMC3    C110028   4.087   0.485  14.772
  675TMC3    C210029   4.162   0.595  14.733
  675TMC3    C310030   4.099   0.709  14.682
  675TMC3    C410031   3.950   0.487  14.767
  675TMC3    C510032   3.889   0.599  14.716
  675TMC3    C610033   3.961   0.711  14.677
  675TMC3     C10034   4.147   0.384  14.853
  675TMC3     O10035   4.088   0.360  14.959
  675TMC3     H10036   4.269   0.607  14.745
  675TMC3    H110037   3.895   0.394  14.779
  675TMC3    H210038   3.915   0.792  14.621
  675TMC3    C710039   3.755   0.589  14.655
  675TMC3    C810040   4.182   0.809  14.620
  675TMC3    O110041   3.744   0.628  14.538
  675TMC3    O210042   4.298   0.779  14.596
  676TMC3    C110043   1.528   3.396  12.363
  676TMC3    C210044   1.590   3.515  12.359
  676TMC3    C310045   1.521   3.629  12.336
  676TMC3    C410046   1.398   3.388  12.331
  676TMC3    C510047   1.321   3.502  12.312
  676TMC3    C610048   1.386   3.622  12.312
  676TMC3     C10049   1.600   3.276  12.406
  676TMC3     O10050   1.571   3.173  12.343
  676TMC3     H10051   1.696   3.513  12.383
  676TMC3    H110052   1.346   3.294  12.344
  676TMC3    H210053   1.322   3.704  12.283
  676TMC3    C710054   1.192   3.504  12.377
  676TMC3    C810055   1.591   3.753  12.295
  676TMC3    O110056   1.170   3.597  12.449
  676TMC3    O210057   1.532   3.856  12.325
  677TMC3    C110058   2.271   2.612   7.482
  677TMC3    C210059   2.209   2.658   7.372
  677TMC3    C310060   2.076   2.678   7.377
  677TMC3    C410061   2.199   2.580   7.595
  677TMC3    C510062   2.068   2.605   7.596
  677TMC3    C610063   1.992   2.661   7.491
  677TMC3     C10064   2.398   2.659   7.502
  677TMC3     O10065   2.420   2.771   7.456
  677TMC3     H10066   2.258   2.690   7.281
  677TMC3    H110067   2.237   2.540   7.689
  677TMC3    H210068   1.886   2.679   7.497
  677TMC3    C710069   2.002   2.600   7.721
  677TMC3    C810070   2.028   2.785   7.285
  677TMC3    O110071   2.052   2.525   7.806
  677TMC3    O210072   2.110   2.874   7.252
  678TMC3    C110073   3.965   3.413  14.730
  678TMC3    C210074   4.078   3.371  14.657
  678TMC3    C310075   4.059   3.291  14.551
  678TMC3    C410076   3.843   3.362  14.696
  678TMC3    C510077   3.828   3.305  14.578
  678TMC3    C610078   3.936   3.258  14.501
  678TMC3     C10079   3.983   3.491  14.853
  678TMC3     O10080   3.882   3.524  14.912
  678TMC3     H10081   4.178   3.408  14.675
  678TMC3    H110082   3.755   3.393  14.752
  678TMC3    H210083   3.923   3.207  14.406
  678TMC3    C710084   3.691   3.292  14.528
  678TMC3    C810085   4.180   3.219  14.528
  678TMC3    O110086   3.693   3.208  14.439
  678TMC3    O210087   4.264   3.211  14.617
  679TMC3    C110088   4.670   2.383   7.697
  679TMC3    C210089   4.529   2.363   7.714
  679TMC3    C310090   4.489   2.326   7.835
  679TMC3    C410091   4.766   2.366   7.793
  679TMC3    C510092   4.719   2.311   7.912
  679TMC3    C610093   4.580   2.307   7.939
  679TMC3     C10094   4.703   2.398   7.561
  679TMC3     O10095   4.646   2.327   7.480
  679TMC3     H10096   4.463   2.373   7.628
  679TMC3    H110097   0.081   2.359   7.774
  679TMC3    H210098   4.534   2.284   8.034
  679TMC3    C710099   0.025   2.286   8.012
  679TMC3    C810100   4.363   2.251   7.838
  679TMC3    O110101   0.112   2.367   8.012
  679TMC3    O210102   4.316   2.226   7.725
  680TMC3    C110103   3.335   4.007  10.817
  680TMC3    C210104   3.404   3.894  10.829
  680TMC3    C310105   3.441   3.844  10.952
  680TMC3    C410106   3.293   4.076  10.933
  680TMC3    C510107   3.323   4.024  11.058
  680TMC3    C610108   3.400   3.906  11.066
  680TMC3     C10109   3.271   4.048  10.684
  680TMC3     O10110   3.262   3.959  10.600
  680TMC3     H10111   3.427   3.836  10.741
  680TMC3    H110112   3.246   4.174  10.931
  680TMC3    H210113   3.411   3.856  11.162
  680TMC3    C710114   3.241   4.052  11.172
  680TMC3    C810115   3.505   3.720  10.961
  680TMC3    O110116   3.133   3.994  11.183
  680TMC3    O210117   3.467   3.630  10.887
  681TMC3    C110118   0.198   2.203  14.174
  681TMC3    C210119   0.114   2.115  14.236
  681TMC3    C310120   0.011   2.162  14.311
  681TMC3    C410121   0.195   2.334  14.199
  681TMC3    C510122   0.099   2.377  14.283
  681TMC3    C610123   0.007   2.293  14.346
  681TMC3     C10124   0.223   2.165  14.039
  681TMC3     O10125   0.136   2.091  13.989
  681TMC3     H10126   0.112   2.013  14.198
  681TMC3    H110127   0.256   2.409  14.149
  681TMC3    H210128   4.742   2.321  14.434
  681TMC3    C710129   0.048   2.508  14.253
  681TMC3    C810130   4.676   2.100  14.280
  681TMC3    O110131   4.718   2.524  14.261
  681TMC3    O210132   4.683   1.981  14.256
  682TMC3    C110133   4.650   2.542  13.099
  682TMC3    C210134   4.774   2.484  13.120
  682TMC3    C310135   0.089   2.542  13.056
  682TMC3    C410136   4.629   2.649  13.019
  682TMC3    C510137   4.736   2.707  12.958
  682TMC3    C610138   0.068   2.663  12.983
  682TMC3     C10139   4.541   2.492  13.178
  682TMC3     O10140   4.561   2.382  13.227
  682TMC3     H10141   4.790   2.383  13.154
  682TMC3    H110142   4.532   2.693  13.002
  682TMC3    H210143   0.158   2.724  12.985
  682TMC3    C710144   4.705   2.752  12.823
  682TMC3    C810145   0.171   2.442  12.985
  682TMC3    O110146   4.584   2.738  12.794
  682TMC3    O210147   0.171   2.324  13.014
  683TMC3    C110148   1.398   3.983   9.545
  683TMC3    C210149   1.402   3.858   9.598
  683TMC3    C310150   1.351   3.841   9.724
  683TMC3    C410151   1.328   4.085   9.609
  683TMC3    C510152   1.290   4.067   9.738
  683TMC3    C610153   1.300   3.944   9.793
  683TMC3     C10154   1.417   3.990   9.398
  683TMC3     O10155   1.375   3.891   9.341
  683TMC3     H10156   1.462   3.776   9.559
  683TMC3    H110157   1.324   4.185   9.568
  683TMC3    H210158   1.268   3.929   9.896
  683TMC3    C710159   1.307   4.182   9.825
  683TMC3    C810160   1.418   3.742   9.801
  683TMC3    O110161   1.270   4.291   9.784
  683TMC3    O210162   1.537   3.737   9.788
  684TMC3    C110163   0.929   3.786   7.841
  684TMC3    C210164   0.947   3.769   7.980
  684TMC3    C310165   0.899   3.876   8.064
  684TMC3    C410166   0.874   3.903   7.780
  684TMC3    C510167   0.855   4.008   7.873
  684TMC3    C610168   0.855   3.992   8.011
  684TMC3     C10169   0.963   3.666   7.765
  684TMC3     O10170   1.048   3.593   7.809
  684TMC3     H10171   0.991   3.680   8.024
  684TMC3    H110172   0.881   3.918   7.672
  684TMC3    H210173   0.822   4.069   8.080
  684TMC3    C710174   0.878   4.149   7.825
  684TMC3    C810175   0.863   3.838   8.196
  684TMC3    O110176   0.780   4.217   7.859
  684TMC3    O210177   0.742   3.856   8.219
  685TMC3    C110178   1.540   2.891  13.203
  685TMC3    C210179   1.623   2.806  13.275
  685TMC3    C310180   1.684   2.858  13.382
  685TMC3    C410181   1.530   3.026  13.225
  685TMC3    C510182   1.593   3.073  13.339
  685TMC3    C610183   1.664   2.989  13.419
  685TMC3     C10184   1.468   2.836  13.093
  685TMC3     O10185   1.432   2.910  13.006
  685TMC3     H10186   1.645   2.703  13.248
  685TMC3    H110187   1.475   3.089  13.156
  685TMC3    H210188   1.711   3.019  13.512
  685TMC3    C710189   1.564   3.203  13.395
  685TMC3    C810190   1.762   2.776  13.473
  685TMC3    O110191   1.626   3.243  13.497
  685TMC3    O210192   1.847   2.842  13.532
  686TMC3    C110193   3.264   0.549   9.439
  686TMC3    C210194   3.159   0.470   9.482
  686TMC3    C310195   3.180   0.337   9.475
  686TMC3    C410196   3.382   0.495   9.404
  686TMC3    C510197   3.397   0.362   9.412
  686TMC3    C610198   3.290   0.272   9.436
  686TMC3     C10199   3.230   0.688   9.411
  686TMC3     O10200   3.150   0.751   9.485
  686TMC3     H10201   3.066   0.506   9.526
  686TMC3    H110202   3.465   0.552   9.364
  686TMC3    H210203   3.298   0.164   9.448
  686TMC3    C710204   3.515   0.318   9.352
  686TMC3    C810205   3.062   0.247   9.477
  686TMC3    O110206   3.543   0.366   9.242
  686TMC3    O210207   3.056   0.141   9.541
  687TMC3    C110208   3.294   1.939  12.677
  687TMC3    C210209   3.203   2.017  12.626
  687TMC3    C310210   3.139   1.967  12.511
  687TMC3    C410211   3.315   1.811  12.633
  687TMC3    C510212   3.247   1.772  12.525
  687TMC3    C610213   3.165   1.850  12.452
  687TMC3     C10214   3.401   1.994  12.758
  687TMC3     O10215   3.492   1.922  12.791
  687TMC3     H10216   3.180   2.114  12.669
  687TMC3    H110217   3.397   1.756  12.677
  687TMC3    H210218   3.118   1.810  12.363
  687TMC3    C710219   3.280   1.638  12.478
  687TMC3    C810220   3.067   2.069  12.446
  687TMC3    O110221   3.227   1.610  12.373
  687TMC3    O210222   3.053   2.176  12.499
  688TMC3    C110223   4.056   2.273  12.901
  688TMC3    C210224   4.068   2.166  12.817
  688TMC3    C310225   4.192   2.099  12.810
  688TMC3    C410226   4.153   2.305  12.996
  688TMC3    C510227   4.259   2.220  13.000
  688TMC3    C610228   4.291   2.136  12.894
  688TMC3     C10229   3.928   2.347  12.919
  688TMC3     O10230   3.930   2.445  12.993
  688TMC3     H10231   3.996   2.140  12.740
  688TMC3    H110232   4.119   2.347  13.090
  688TMC3    H210233   4.380   2.074  12.901
  688TMC3    C710234   4.255   2.142  13.118
  688TMC3    C810235   4.175   1.954  12.815
  688TMC3    O110236   4.157   2.162  13.188
  688TMC3    O210237   4.070   1.910  12.858
  689TMC3    C110238   2.892   3.572  10.656
  689TMC3    C210239   2.918   3.526  10.786
  689TMC3    C310240   3.038   3.553  10.840
  689TMC3    C410241   2.979   3.646  10.587
  689TMC3    C510242   3.102   3.665  10.652
  689TMC3    C610243   3.132   3.626  10.776
  689TMC3     C10244   2.788   3.503  10.584
  689TMC3     O10245   2.733   3.408  10.643
  689TMC3     H10246   2.843   3.473  10.843
  689TMC3    H110247   2.948   3.700  10.498
  689TMC3    H210248   3.232   3.623  10.818
  689TMC3    C710249   3.216   3.656  10.562
  689TMC3    C810250   3.090   3.441  10.918
  689TMC3    O110251   3.319   3.597  10.593
  689TMC3    O210252   3.037   3.335  10.887
  690TMC3    C110253   3.672   4.499  10.357
  690TMC3    C210254   3.662   4.610  10.272
  690TMC3    C310255   3.545   4.629  10.211
  690TMC3    C410256   3.575   4.400  10.352
  690TMC3    C510257   3.455   4.418  10.282
  690TMC3    C610258   3.445   4.540  10.212
  690TMC3     C10259   3.809   4.472  10.409
  690TMC3     O10260   3.887   4.564  10.395
  690TMC3     H10261   3.732   4.693  10.279
  690TMC3    H110262   3.580   4.308  10.410
  690TMC3    H210263   3.351   4.557  10.160
  690TMC3    C710264   3.442   4.293  10.213
  690TMC3    C810265   3.525   4.750  10.147
  690TMC3    O110266   3.445   4.191  10.278
  690TMC3    O210267   3.612   4.789  10.066
  691TMC3    C110268   0.657   1.430   7.957
  691TMC3    C210269   0.547   1.484   7.899
  691TMC3    C310270   0.564   1.531   7.764
  691TMC3    C410271   0.763   1.389   7.883
  691TMC3    C510272   0.770   1.419   7.750
  691TMC3    C610273   0.674   1.491   7.693
  691TMC3     C10274   0.670   1.470   8.100
  691TMC3     O10275   0.587   1.424   8.177
  691TMC3     H10276   0.476   1.520   7.974
  691TMC3    H110277   0.847   1.342   7.934
  691TMC3    H210278   0.686   1.524   7.590
  691TMC3    C710279   0.899   1.406   7.685
  691TMC3    C810280   0.524   1.667   7.753
  691TMC3    O110281   0.962   1.305   7.717
  691TMC3    O210282   0.608   1.737   7.697
  692TMC3    C110283   3.418   0.594  13.435
  692TMC3    C210284   3.325   0.618  13.537
  692TMC3    C310285   3.232   0.523  13.561
  692TMC3    C410286   3.401   0.496  13.341
  692TMC3    C510287   3.294   0.422  13.367
  692TMC3    C610288   3.213   0.421  13.476
  692TMC3     C10289   3.491   0.710  13.381
  692TMC3     O10290   3.481   0.724  13.265
  692TMC3     H10291   3.337   0.699  13.608
  692TMC3    H110292   3.479   0.468  13.271
  692TMC3    H210293   3.136   0.346  13.489
  692TMC3    C710294   3.265   0.301  13.286
  692TMC3    C810295   3.177   0.515  13.694
  692TMC3    O110296   3.184   0.220  13.331
  692TMC3    O210297   3.153   0.401  13.734
  693TMC3    C110298   0.616   0.422   6.569
  693TMC3    C210299   0.525   0.315   6.581
  693TMC3    C310300   0.579   0.198   6.526
  693TMC3    C410301   0.748   0.414   6.518
  693TMC3    C510302   0.785   0.290   6.477
  693TMC3    C610303   0.704   0.180   6.479
  693TMC3     C10304   0.581   0.558   6.610
  693TMC3     O10305   0.644   0.644   6.552
  693TMC3     H10306   0.421   0.317   6.614
  693TMC3    H110307   0.805   0.506   6.505
  693TMC3    H210308   0.736   0.093   6.423
  693TMC3    C710309   0.923   0.264   6.455
  693TMC3    C810310   0.485   0.091   6.499
  693TMC3    O110311   0.959   0.161   6.399
  693TMC3    O210312   0.366   0.120   6.504
  694TMC3    C110313   4.323   3.182   9.251
  694TMC3    C210314   4.375   3.259   9.146
  694TMC3    C310315   4.511   3.255   9.117
  694TMC3    C410316   4.415   3.104   9.329
  694TMC3    C510317   4.544   3.101   9.287
  694TMC3    C610318   4.602   3.186   9.194
  694TMC3     C10319   4.258   3.269   9.341
  694TMC3     O10320   4.190   3.216   9.428
  694TMC3     H10321   4.307   3.337   9.115
  694TMC3    H110322   4.378   3.060   9.421
  694TMC3    H210323   4.702   3.185   9.152
  694TMC3    C710324   4.631   3.037   9.384
  694TMC3    C810325   4.559   3.365   9.045
  694TMC3    O110326   4.575   2.950   9.447
  694TMC3    O210327   4.676   3.395   9.071
  695TMC3    C110328   4.668   4.567   8.117
  695TMC3    C210329   0.006   4.570   8.155
  695TMC3    C310330   0.091   4.638   8.085
  695TMC3    C410331   4.623   4.631   8.003
  695TMC3    C510332   4.708   4.716   7.941
  695TMC3    C610333   0.049   4.720   7.984
  695TMC3     C10334   4.577   4.479   8.194
  695TMC3     O10335   4.600   4.359   8.180
  695TMC3     H10336   0.044   4.513   8.239
  695TMC3    H110337   4.518   4.622   7.976
  695TMC3    H210338   0.123   4.781   7.933
  695TMC3    C710339   4.654   0.055   7.904
  695TMC3    C810340   0.217   4.680   8.136
  695TMC3    O110341   4.728   0.149   7.873
  695TMC3    O210342   0.225   4.722   8.248
  696TMC3    C110343   4.243   0.920  13.037
  696TMC3    C210344   4.155   0.862  12.946
  696TMC3    C310345   4.155   0.900  12.812
  696TMC3    C410346   4.306   1.035  12.999
  696TMC3    C510347   4.316   1.064  12.865
  696TMC3    C610348   4.236   1.001  12.774
  696TMC3     C10349   4.313   0.818  13.112
  696TMC3     O10350   4.248   0.721  13.156
  696TMC3     H10351   4.108   0.776  12.994
  696TMC3    H110352   4.379   1.075  13.069
  696TMC3    H210353   4.238   1.028  12.669
  696TMC3    C710354   4.453   1.085  12.815
  696TMC3    C810355   4.114   0.805  12.705
  696TMC3    O110356   4.490   1.028  12.710
  696TMC3    O210357   4.192   0.783  12.610
  697TMC3    C110358   4.045   3.515  12.350
  697TMC3    C210359   4.052   3.630  12.282
  697TMC3    C310360   3.965   3.654  12.183
  697TMC3    C410361   3.939   3.429  12.331
  697TMC3    C510362   3.847   3.453  12.234
  697TMC3    C610363   3.857   3.568  12.156
  697TMC3     C10364   4.079   3.532  12.496
  697TMC3     O10365   4.042   3.643  12.539
  697TMC3     H10366   4.110   3.714  12.319
  697TMC3    H110367   3.922   3.346  12.399
  697TMC3    H210368   3.805   3.584  12.063
  697TMC3    C710369   3.753   3.350  12.198
  697TMC3    C810370   3.969   3.780  12.116
  697TMC3    O110371   3.752   3.248  12.260
  697TMC3    O210372   3.980   3.773  11.996
  698TMC3    C110373   3.417   3.070  14.878
  698TMC3    C210374   3.318   3.113  14.794
  698TMC3    C310375   3.205   3.035  14.788
  698TMC3    C410376   3.401   2.975  14.983
  698TMC3    C510377   3.277   2.914  14.981
  698TMC3    C610378   3.182   2.926  14.874
  698TMC3     C10379   3.530   3.044  14.791
  698TMC3     O10380   3.499   3.005  14.681
  698TMC3     H10381   3.336   3.188  14.718
  698TMC3    H110382   3.471   2.945  15.060
  698TMC3    H210383   3.083   2.881  14.873
  698TMC3    C710384   3.262   2.822  15.094
  698TMC3    C810385   3.149   3.023  14.655
  698TMC3    O110386   3.337   2.832  15.188
  698TMC3    O210387   3.160   3.117  14.583
  699TMC3    C110388   4.540   0.427   7.658
  699TMC3    C210389   4.462   0.318   7.678
  699TMC3    C310390   4.495   0.199   7.615
  699TMC3    C410391   4.656   0.422   7.593
  699TMC3    C510392   4.688   0.306   7.532
  699TMC3    C610393   4.610   0.195   7.547
  699TMC3     C10394   4.509   0.560   7.705
  699TMC3     O10395   4.568   0.651   7.657
  699TMC3     H10396   4.360   0.336   7.710
  699TMC3    H110397   4.720   0.510   7.595
  699TMC3    H210398   4.637   0.096   7.512
  699TMC3    C710399   0.003   0.302   7.432
  699TMC3    C810400   4.384   0.111   7.577
  699TMC3    O110401   0.051   0.189   7.415
  699TMC3    O210402   4.270   0.145   7.601
  700TMC3    C110403   1.931   3.282  13.141
  700TMC3    C210404   2.068   3.301  13.170
  700TMC3    C310405   2.152   3.202  13.130
  700TMC3    C410406   1.881   3.165  13.091
  700TMC3    C510407   1.971   3.064  13.075
  700TMC3    C610408   2.110   3.079  13.089
  700TMC3     C10409   1.826   3.380  13.193
  700TMC3     O10410   1.708   3.355  13.178
  700TMC3     H10411   2.104   3.395  13.211
  700TMC3    H110412   1.777   3.162  13.062
  700TMC3    H210413   2.174   2.992  13.090
  700TMC3    C710414   1.920   2.938  13.042
  700TMC3    C810415   2.293   3.239  13.137
  700TMC3    O110416   1.820   2.937  12.976
  700TMC3    O210417   2.329   3.354  13.175
  701TMC3    C110418   3.437   3.945   7.185
  701TMC3    C210419   3.553   4.021   7.200
  701TMC3    C310420   3.568   4.144   7.140
  701TMC3    C410421   3.325   4.002   7.133
  701TMC3    C510422   3.343   4.128   7.071
  701TMC3    C610423   3.459   4.193   7.077
  701TMC3     C10424   3.414   3.821   7.261
  701TMC3     O10425   3.302   3.798   7.301
  701TMC3     H10426   3.651   3.977   7.211
  701TMC3    H110427   3.234   3.945   7.120
  701TMC3    H210428   3.468   4.289   7.027
  701TMC3    C710429   3.232   4.200   7.007
  701TMC3    C810430   3.695   4.167   7.070
  701TMC3    O110431   3.263   4.296   6.934
  701TMC3    O210432   3.690   4.146   6.952
  702TMC3    C110433   2.660   0.319  10.397
  702TMC3    C210434   2.745   0.327  10.285
  702TMC3    C310435   2.871   0.381  10.301
  702TMC3    C410436   2.695   0.379  10.516
  702TMC3    C510437   2.825   0.415  10.528
  702TMC3    C610438   2.912   0.426  10.425
  702TMC3     C10439   2.597   0.187  10.418
  702TMC3     O10440   2.586   0.154  10.535
  702TMC3     H10441   2.716   0.285  10.190
  702TMC3    H110442   2.635   0.388  10.606
  702TMC3    H210443   3.010   0.469  10.436
  702TMC3    C710444   2.871   0.442  10.661
  702TMC3    C810445   2.961   0.301  10.225
  702TMC3    O110446   2.787   0.442  10.753
  702TMC3    O210447   2.929   0.189  10.186
  703TMC3    C110448   1.736   4.756   8.689
  703TMC3    C210449   1.737   4.677   8.800
  703TMC3    C310450   1.793   4.548   8.791
  703TMC3    C410451   1.797   4.711   8.575
  703TMC3    C510452   1.860   4.595   8.575
  703TMC3    C610453   1.861   4.508   8.679
  703TMC3     C10454   1.643   0.081   8.679
  703TMC3     O10455   1.643   0.151   8.778
  703TMC3     H10456   1.699   4.716   8.894
  703TMC3    H110457   1.806   4.769   8.484
  703TMC3    H210458   1.913   4.413   8.682
  703TMC3    C710459   1.963   4.558   8.482
  703TMC3    C810460   1.776   4.454   8.903
  703TMC3    O110461   2.062   4.531   8.548
  703TMC3    O210462   1.789   4.507   9.011
  704TMC3    C110463   0.750   2.136   7.226
  704TMC3    C210464   0.874   2.166   7.190
  704TMC3    C310465   0.933   2.093   7.087
  704TMC3    C410466   0.682   2.052   7.147
  704TMC3    C510467   0.729   1.999   7.027
  704TMC3    C610468   0.858   2.025   6.989
  704TMC3     C10469   0.671   2.244   7.282
  704TMC3     O10470   0.563   2.215   7.338
  704TMC3     H10471   0.917   2.244   7.251
  704TMC3    H110472   0.578   2.033   7.171
  704TMC3    H210473   0.918   1.982   6.909
  704TMC3    C710474   0.633   1.983   6.926
  704TMC3    C810475   1.077   2.079   7.096
  704TMC3    O110476   0.525   2.029   6.942
  704TMC3    O210477   1.126   2.076   6.984
  705TMC3    C110478   3.815   4.321  15.285
  705TMC3    C210479   3.690   4.276  15.253
  705TMC3    C310480   3.677   4.145  15.212
  705TMC3    C410481   3.923   4.241  15.287
  705TMC3    C510482   3.906   4.106  15.245
  705TMC3    C610483   3.782   4.061  15.206
  705TMC3     C10484   3.851   4.460  15.261
  705TMC3     O10485   3.969   4.495  15.272
  705TMC3     H10486   3.603   4.340  15.268
  705TMC3    H110487   4.022   4.277  15.311
  705TMC3    H210488   3.753   3.959  15.188
  705TMC3    C710489   4.021   4.022  15.231
  705TMC3    C810490   3.565   4.118  15.127
  705TMC3    O110491   4.125   4.076  15.257
  705TMC3    O210492   3.586   4.035  15.039
  706TMC3    C110493   1.262   1.178  10.115
  706TMC3    C210494   1.260   1.174   9.973
  706TMC3    C310495   1.376   1.219   9.910
  706TMC3    C410496   1.360   1.244  10.184
  706TMC3    C510497   1.464   1.294  10.112
  706TMC3    C610498   1.475   1.278   9.976
  706TMC3     C10499   1.183   1.080  10.196
  706TMC3     O10500   1.062   1.059  10.166
  706TMC3     H10501   1.165   1.154   9.926
  706TMC3    H110502   1.366   1.257  10.291
  706TMC3    H210503   1.567   1.309   9.928
  706TMC3    C710504   1.460   1.436  10.136
  706TMC3    C810505   1.346   1.282   9.774
  706TMC3    O110506   1.347   1.480  10.164
  706TMC3    O210507   1.235   1.272   9.728
  707TMC3    C110508   2.425   2.427   9.198
  707TMC3    C210509   2.478   2.481   9.081
  707TMC3    C310510   2.540   2.601   9.093
  707TMC3    C410511   2.429   2.494   9.315
  707TMC3    C510512   2.501   2.607   9.324
  707TMC3    C610513   2.554   2.663   9.210
  707TMC3     C10514   2.315   2.338   9.179
  707TMC3     O10515   2.309   2.269   9.077
  707TMC3     H10516   2.438   2.437   8.991
  707TMC3    H110517   2.400   2.443   9.406
  707TMC3    H210518   2.609   2.756   9.204
  707TMC3    C710519   2.481   2.686   9.446
  707TMC3    C810520   2.611   2.653   8.973
  707TMC3    O110521   2.432   2.614   9.541
  707TMC3    O210522   2.654   2.766   8.977
  708TMC3    C110523   0.871   1.292  14.383
  708TMC3    C210524   0.915   1.176  14.339
  708TMC3    C310525   0.818   1.087  14.305
  708TMC3    C410526   0.749   1.312  14.440
  708TMC3    C510527   0.660   1.209  14.431
  708TMC3    C610528   0.690   1.099  14.359
  708TMC3     C10529   0.970   1.391  14.431
  708TMC3     O10530   1.054   1.339  14.504
  708TMC3     H10531   1.008   1.181  14.283
  708TMC3    H110532   0.730   1.408  14.486
  708TMC3    H210533   0.616   1.027  14.327
  708TMC3    C710534   0.530   1.220  14.472
  708TMC3    C810535   0.855   1.001  14.187
  708TMC3    O110536   0.488   1.329  14.496
  708TMC3    O210537   0.965   1.020  14.137
  709TMC3    C110538   1.836   1.042   8.940
  709TMC3    C210539   1.927   0.958   8.993
  709TMC3    C310540   1.987   0.861   8.922
  709TMC3    C410541   1.807   1.043   8.808
  709TMC3    C510542   1.883   0.954   8.735
  709TMC3    C610543   1.971   0.864   8.788
  709TMC3     C10544   1.754   1.125   9.021
  709TMC3     O10545   1.806   1.205   9.101
  709TMC3     H10546   1.933   0.959   9.102
  709TMC3    H110547   1.739   1.119   8.770
  709TMC3    H210548   1.999   0.780   8.726
  709TMC3    C710549   1.841   0.964   8.593
  709TMC3    C810550   2.030   0.741   8.995
  709TMC3    O110551   1.748   1.037   8.559
  709TMC3    O210552   1.986   0.715   9.104
  710TMC3    C110553   3.002   4.607  12.232
  710TMC3    C210554   2.921   4.511  12.285
  710TMC3    C310555   2.798   4.545  12.316
  710TMC3    C410556   2.959   4.733  12.200
  710TMC3    C510557   2.831   4.763  12.230
  710TMC3    C610558   2.752   4.673  12.298
  710TMC3     C10559   3.144   4.570  12.207
  710TMC3     O10560   3.196   4.624  12.110
  710TMC3     H10561   2.967   4.414  12.296
  710TMC3    H110562   3.031   0.012  12.160
  710TMC3    H210563   2.650   4.705  12.319
  710TMC3    C710564   2.786   0.107  12.229
  710TMC3    C810565   2.727   4.442  12.389
  710TMC3    O110566   2.673   0.125  12.267
  710TMC3    O210567   2.760   4.329  12.365
  711TMC3    C110568   2.366   1.696   7.468
  711TMC3    C210569   2.491   1.652   7.452
  711TMC3    C310570   2.570   1.722   7.362
  711TMC3    C410571   2.320   1.800   7.396
  711TMC3    C510572   2.397   1.873   7.319
  711TMC3    C610573   2.524   1.832   7.293
  711TMC3     C10574   2.274   1.590   7.496
  711TMC3     O10575   2.175   1.579   7.423
  711TMC3     H10576   2.528   1.559   7.493
  711TMC3    H110577   2.215   1.824   7.410
  711TMC3    H210578   2.580   1.877   7.212
  711TMC3    C710579   2.336   1.986   7.254
  711TMC3    C810580   2.653   1.645   7.268
  711TMC3    O110581   2.232   2.023   7.305
  711TMC3    O210582   2.717   1.710   7.183
  712TMC3    C110583   0.721   2.141   7.812
  712TMC3    C210584   0.749   2.077   7.693
  712TMC3    C310585   0.878   2.059   7.643
  712TMC3    C410586   0.825   2.191   7.882
  712TMC3    C510587   0.953   2.177   7.836
  712TMC3    C610588   0.980   2.104   7.719
  712TMC3     C10589   0.618   2.240   7.803
  712TMC3     O10590   0.650   2.347   7.748
  712TMC3     H10591   0.669   2.049   7.625
  712TMC3    H110592   0.799   2.229   7.981
  712TMC3    H210593   1.081   2.104   7.680
  712TMC3    C710594   1.046   2.283   7.871
  712TMC3    C810595   0.913   1.990   7.523
  712TMC3    O110596   1.151   2.275   7.807
  712TMC3    O210597   1.024   2.015   7.472
  713TMC3    C110598   3.243   2.730  11.775
  713TMC3    C210599   3.190   2.796  11.664
  713TMC3    C310600   3.256   2.919  11.637
  713TMC3    C410601   3.347   2.776  11.851
  713TMC3    C510602   3.410   2.895  11.822
  713TMC3    C610603   3.364   2.963  11.715
  713TMC3     C10604   3.207   2.591  11.786
  713TMC3     O10605   3.109   2.562  11.717
  713TMC3     H10606   3.095   2.766  11.622
  713TMC3    H110607   3.380   2.719  11.937
  713TMC3    H210608   3.427   3.035  11.664
  713TMC3    C710609   3.551   2.900  11.852
  713TMC3    C810610   3.196   3.026  11.555
  713TMC3    O110611   3.605   2.803  11.895
  713TMC3    O210612   3.265   3.125  11.549
  714TMC3    C110613   0.194   4.504   9.873
  714TMC3    C210614   0.106   4.407   9.838
  714TMC3    C310615   4.783   4.403   9.920
  714TMC3    C410616   0.164   4.617   9.953
  714TMC3    C510617   0.036   4.622  10.005
  714TMC3    C610618   4.751   4.513   9.995
  714TMC3     C10619   0.298   4.528   9.766
  714TMC3     O10620   0.337   4.643   9.756
  714TMC3     H10621   0.123   4.323   9.770
  714TMC3    H110622   0.233   4.699   9.966
  714TMC3    H210623   4.648   4.527  10.027
  714TMC3    C710624   4.755   4.742   9.958
  714TMC3    C810625   4.668   4.319   9.887
  714TMC3    O110626   4.665   4.719   9.879
  714TMC3    O210627   4.594   4.288   9.975
  715TMC3    C110628   4.193   0.202  12.420
  715TMC3    C210629   4.171   0.121  12.533
  715TMC3    C310630   4.079   0.022  12.532
  715TMC3    C410631   4.128   0.169  12.298
  715TMC3    C510632   4.049   0.058  12.296
  715TMC3    C610633   4.019   4.776  12.414
  715TMC3     C10634   4.312   0.285  12.420
  715TMC3     O10635   4.371   0.290  12.529
  715TMC3     H10636   4.229   0.160  12.617
  715TMC3    H110637   4.160   0.220  12.208
  715TMC3    H210638   3.965   4.682  12.410
  715TMC3    C710639   4.050   4.775  12.174
  715TMC3    C810640   4.085   4.718  12.642
  715TMC3    O110641   4.044   0.046  12.061
  715TMC3    O210642   4.068   4.599  12.612
  716TMC3    C110643   0.453   3.282  11.736
  716TMC3    C210644   0.325   3.266  11.793
  716TMC3    C310645   0.240   3.372  11.789
  716TMC3    C410646   0.496   3.405  11.682
  716TMC3    C510647   0.395   3.498  11.663
  716TMC3    C610648   0.271   3.487  11.722
  716TMC3     C10649   0.558   3.182  11.755
  716TMC3     O10650   0.668   3.207  11.719
  716TMC3     H10651   0.285   3.172  11.830
  716TMC3    H110652   0.592   3.401  11.632
  716TMC3    H210653   0.207   3.574  11.726
  716TMC3    C710654   0.444   3.639  11.657
  716TMC3    C810655   0.129   3.372  11.879
  716TMC3    O110656   0.361   3.727  11.657
  716TMC3    O210657   0.074   3.264  11.876
  717TMC3    C110658   0.139   4.121  10.416
  717TMC3    C210659   0.033   4.122  10.491
  717TMC3    C310660   4.779   3.998  10.527
  717TMC3    C410661   0.203   4.010  10.373
  717TMC3    C510662   0.152   3.889  10.408
  717TMC3    C610663   0.040   3.880  10.483
  717TMC3     C10664   0.192   4.255  10.384
  717TMC3     O10665   0.165   4.342  10.467
  717TMC3     H10666   4.771   4.213  10.515
  717TMC3    H110667   0.288   4.020  10.307
  717TMC3    H210668   4.790   3.790  10.528
  717TMC3    C710669   0.266   3.795  10.427
  717TMC3    C810670   4.655   4.002  10.597
  717TMC3    O110671   0.373   3.834  10.386
  717TMC3    O210672   4.559   3.962  10.531
  718TMC3    C110673   1.279   4.668   7.035
  718TMC3    C210674   1.358   4.677   6.927
  718TMC3    C310675   1.345   0.001   6.850
  718TMC3    C410676   1.187   4.767   7.060
  718TMC3    C510677   1.173   0.083   6.984
  718TMC3    C610678   1.252   0.098   6.876
  718TMC3     C10679   1.257   4.541   7.096
  718TMC3     O10680   1.272   4.536   7.212
  718TMC3     H10681   1.427   4.597   6.901
  718TMC3    H110682   1.111   4.743   7.133
  718TMC3    H210683   1.246   0.180   6.805
  718TMC3    C710684   1.071   0.180   7.011
  718TMC3    C810685   1.454   0.038   6.768
  718TMC3    O110686   1.008   0.176   7.115
  718TMC3    O210687   1.525   4.746   6.713
  719TMC3    C110688   1.149   0.234  12.744
  719TMC3    C210689   1.269   0.174  12.717
  719TMC3    C310690   1.279   0.116  12.595
  719TMC3    C410691   1.044   0.232  12.650
  719TMC3    C510692   1.062   0.178  12.527
  719TMC3    C610693   1.182   0.126  12.497
  719TMC3     C10694   1.144   0.358  12.823
  719TMC3     O10695   1.132   0.462  12.755
  719TMC3     H10696   1.342   0.156  12.795
  719TMC3    H110697   0.956   0.290  12.676
  719TMC3    H210698   1.199   0.076  12.402
  719TMC3    C710699   0.985   0.251  12.429
  719TMC3    C810700   1.412   0.102  12.552
  719TMC3    O110701   0.894   0.314  12.479
  719TMC3    O210702   1.498   0.171  12.604
  720TMC3    C110703   4.529   4.789   9.287
  720TMC3    C210704   4.452   0.067   9.205
  720TMC3    C310705   4.509   0.100   9.085
  720TMC3    C410706   4.655   4.741   9.256
  720TMC3    C510707   4.706   4.778   9.132
  720TMC3    C610708   4.630   0.059   9.040
  720TMC3     C10709   4.470   4.693   9.377
  720TMC3     O10710   4.510   4.580   9.367
  720TMC3     H10711   4.350   0.089   9.232
  720TMC3    H110712   4.711   4.676   9.322
  720TMC3    H210713   4.671   0.088   8.944
  720TMC3    C710714   0.028   4.695   9.089
  720TMC3    C810715   4.412   0.159   9.003
  720TMC3    O110716   0.032   4.577   9.133
  720TMC3    O210717   4.320   0.223   9.058
  721TMC3    C110718   4.398   2.713  12.200
  721TMC3    C210719   4.286   2.775  12.171
  721TMC3    C310720   4.226   2.775  12.052
  721TMC3    C410721   4.455   2.642  12.101
  721TMC3    C510722   4.385   2.625  11.978
  721TMC3    C610723   4.272   2.693  11.949
  721TMC3     C10724   4.474   2.745  12.317
  721TMC3     O10725   4.415   2.795  12.411
  721TMC3     H10726   4.252   2.840  12.251
  721TMC3    H110727   4.541   2.579  12.119
  721TMC3    H210728   4.227   2.695  11.851
  721TMC3    C710729   4.450   2.551  11.867
  721TMC3    C810730   4.148   2.891  12.024
  721TMC3    O110731   4.396   2.449  11.824
  721TMC3    O210732   4.176   2.989  12.095
  722TMC3    C110733   4.238   4.022  12.430
  722TMC3    C210734   4.136   4.004  12.522
  722TMC3    C310735   4.096   4.113  12.600
  722TMC3    C410736   4.298   4.138  12.410
  722TMC3    C510737   4.263   4.240  12.496
  722TMC3    C610738   4.162   4.235  12.589
  722TMC3     C10739   4.294   3.908  12.361
  722TMC3     O10740   4.338   3.929  12.246
  722TMC3     H10741   4.093   3.906  12.541
  722TMC3    H110742   4.378   4.137  12.337
  722TMC3    H210743   4.145   4.312  12.663
  722TMC3    C710744   4.354   4.358  12.480
  722TMC3    C810745   4.019   4.097  12.725
  722TMC3    O110746   4.440   4.343  12.393
  722TMC3    O210747   4.027   3.989  12.781
  723TMC3    C110748   3.231   1.295  13.572
  723TMC3    C210749   3.171   1.250  13.461
  723TMC3    C310750   3.178   1.111  13.436
  723TMC3    C410751   3.276   1.211  13.665
  723TMC3    C510752   3.282   1.078  13.640
  723TMC3    C610753   3.252   1.027  13.523
  723TMC3     C10754   3.261   1.439  13.576
  723TMC3     O10755   3.196   1.509  13.500
  723TMC3     H10756   3.129   1.316  13.385
  723TMC3    H110757   3.317   1.241  13.761
  723TMC3    H210758   3.249   0.920  13.534
  723TMC3    C710759   3.319   0.989  13.748
  723TMC3    C810760   3.115   1.064  13.316
  723TMC3    O110761   3.383   0.887  13.721
  723TMC3    O210762   3.062   1.140  13.238
  724TMC3    C110763   1.071   2.608   9.443
  724TMC3    C210764   1.069   2.478   9.406
  724TMC3    C310765   0.960   2.405   9.434
  724TMC3    C410766   0.961   2.668   9.491
  724TMC3    C510767   0.839   2.599   9.491
  724TMC3    C610768   0.841   2.468   9.469
  724TMC3     C10769   1.197   2.682   9.463
  724TMC3     O10770   1.195   2.759   9.560
  724TMC3     H10771   1.157   2.425   9.371
  724TMC3    H110772   0.955   2.774   9.515
  724TMC3    H210773   0.748   2.414   9.453
  724TMC3    C710774   0.738   2.670   9.419
  724TMC3    C810775   0.938   2.291   9.355
  724TMC3    O110776   0.787   2.746   9.336
  724TMC3    O210777   0.873   2.206   9.409
  725TMC3    C110778   0.898   0.337   8.443
  725TMC3    C210779   0.850   0.449   8.375
  725TMC3    C310780   0.793   0.552   8.450
  725TMC3    C410781   0.886   0.332   8.578
  725TMC3    C510782   0.841   0.438   8.652
  725TMC3    C610783   0.795   0.551   8.592
  725TMC3     C10784   0.887   0.214   8.364
  725TMC3     O10785   0.831   0.231   8.258
  725TMC3     H10786   0.844   0.466   8.268
  725TMC3    H110787   0.923   0.246   8.632
  725TMC3    H210788   0.763   0.637   8.649
  725TMC3    C710789   0.776   0.406   8.777
  725TMC3    C810790   0.651   0.571   8.417
  725TMC3    O110791   0.747   0.287   8.776
  725TMC3    O210792   0.573   0.567   8.511
  726TMC3    C110793   2.812   0.965   7.564
  726TMC3    C210794   2.878   1.079   7.529
  726TMC3    C310795   3.014   1.081   7.554
  726TMC3    C410796   2.876   0.858   7.617
  726TMC3    C510797   3.014   0.863   7.639
  726TMC3    C610798   3.085   0.975   7.601
  726TMC3     C10799   2.709   0.928   7.466
  726TMC3     O10800   2.640   1.024   7.431
  726TMC3     H10801   2.824   1.164   7.489
  726TMC3    H110802   2.821   0.773   7.655
  726TMC3    H210803   3.192   0.984   7.616
  726TMC3    C710804   3.097   0.743   7.658
  726TMC3    C810805   3.086   1.184   7.485
  726TMC3    O110806   3.215   0.765   7.685
  726TMC3    O210807   3.196   1.145   7.448
  727TMC3    C110808   1.949   2.992   8.115
  727TMC3    C210809   2.017   2.885   8.087
  727TMC3    C310810   2.076   2.804   8.190
  727TMC3    C410811   1.920   3.027   8.243
  727TMC3    C510812   1.982   2.956   8.345
  727TMC3    C610813   2.060   2.845   8.323
  727TMC3     C10814   1.940   3.096   8.011
  727TMC3     O10815   1.952   3.065   7.897
  727TMC3     H10816   2.048   2.857   7.987
  727TMC3    H110817   1.866   3.117   8.270
  727TMC3    H210818   2.107   2.787   8.401
  727TMC3    C710819   1.909   2.956   8.465
  727TMC3    C810820   2.141   2.678   8.146
  727TMC3    O110821   1.786   2.971   8.461
  727TMC3    O210822   2.212   2.696   8.041
  728TMC3    C110823   1.741   0.716   7.260
  728TMC3    C210824   1.706   0.730   7.128
  728TMC3    C310825   1.784   0.667   7.032
  728TMC3    C410826   1.850   0.646   7.310
  728TMC3    C510827   1.918   0.577   7.212
  728TMC3    C610828   1.893   0.589   7.077
  728TMC3     C10829   1.660   0.793   7.355
  728TMC3     O10830   1.610   0.897   7.315
  728TMC3     H10831   1.612   0.776   7.098
  728TMC3    H110832   1.875   0.653   7.415
  728TMC3    H210833   1.973   0.555   7.012
  728TMC3    C710834   1.960   0.445   7.262
  728TMC3    C810835   1.714   0.620   6.918
  728TMC3    O110836   1.970   0.435   7.385
  728TMC3    O210837   1.592   0.628   6.928
  729TMC3    C110838   0.815   3.222   7.688
  729TMC3    C210839   0.880   3.131   7.607
  729TMC3    C310840   1.001   3.087   7.655
  729TMC3    C410841   0.865   3.278   7.805
  729TMC3    C510842   0.985   3.229   7.846
  729TMC3    C610843   1.050   3.131   7.775
  729TMC3     C10844   0.670   3.237   7.679
  729TMC3     O10845   0.624   3.351   7.689
  729TMC3     H10846   0.831   3.066   7.535
  729TMC3    H110847   0.808   3.351   7.861
  729TMC3    H210848   1.152   3.103   7.801
  729TMC3    C710849   1.065   3.277   7.959
  729TMC3    C810850   1.092   3.017   7.571
  729TMC3    O110851   1.186   3.285   7.947
  729TMC3    O210852   1.190   2.965   7.623
  730TMC3    C110853   1.941   3.504   7.450
  730TMC3    C210854   2.068   3.508   7.401
  730TMC3    C310855   2.091   3.501   7.266
  730TMC3    C410856   1.844   3.495   7.354
  730TMC3    C510857   1.863   3.485   7.217
  730TMC3    C610858   1.994   3.477   7.177
  730TMC3     C10859   1.920   3.459   7.591
  730TMC3     O10860   1.812   3.408   7.620
  730TMC3     H10861   2.154   3.513   7.467
  730TMC3    H110862   1.742   3.480   7.387
  730TMC3    H210863   2.021   3.455   7.074
  730TMC3    C710864   1.782   3.378   7.164
  730TMC3    C810865   2.226   3.475   7.222
  730TMC3    O110866   1.661   3.400   7.164
  730TMC3    O210867   2.269   3.538   7.125
  731TMC3    C110868   1.239   0.650  11.210
  731TMC3    C210869   1.182   0.532  11.250
  731TMC3    C310870   1.264   0.427  11.280
  731TMC3    C410871   1.369   0.678  11.231
  731TMC3    C510872   1.453   0.566  11.248
  731TMC3    C610873   1.402   0.444  11.274
  731TMC3     C10874   1.158   0.753  11.140
  731TMC3     O10875   1.177   0.870  11.169
  731TMC3     H10876   1.076   0.514  11.253
  731TMC3    H110877   1.409   0.770  11.188
  731TMC3    H210878   1.461   0.360  11.310
  731TMC3    C710879   1.594   0.599  11.266
  731TMC3    C810880   1.207   0.295  11.296
  731TMC3    O110881   1.624   0.708  11.304
  731TMC3    O210882   1.092   0.282  11.253
  732TMC3    C110883   1.462   0.673  13.435
  732TMC3    C210884   1.581   0.637  13.488
  732TMC3    C310885   1.615   0.510  13.506
  732TMC3    C410886   1.370   0.580  13.390
  732TMC3    C510887   1.405   0.448  13.413
  732TMC3    C610888   1.526   0.411  13.481
  732TMC3     C10889   1.450   0.813  13.391
  732TMC3     O10890   1.554   0.876  13.377
  732TMC3     H10891   1.651   0.709  13.530
  732TMC3    H110892   1.275   0.603  13.343
  732TMC3    H210893   1.545   0.308  13.507
  732TMC3    C710894   1.297   0.347  13.397
  732TMC3    C810895   1.723   0.486  13.605
  732TMC3    O110896   1.316   0.229  13.377
  732TMC3    O210897   1.704   0.408  13.694
  733TMC3    C110898   4.227   2.175  13.797
  733TMC3    C210899   4.321   2.080  13.786
  733TMC3    C310900   4.280   1.953  13.770
  733TMC3    C410901   4.089   2.154  13.810
  733TMC3    C510902   4.053   2.019  13.800
  733TMC3    C610903   4.143   1.922  13.779
  733TMC3     C10904   4.270   2.312  13.769
  733TMC3     O10905   4.172   2.381  13.747
  733TMC3     H10906   4.419   2.108  13.749
  733TMC3    H110907   4.031   2.237  13.849
  733TMC3    H210908   4.112   1.819  13.767
  733TMC3    C710909   3.922   1.986  13.848
  733TMC3    C810910   4.369   1.842  13.770
  733TMC3    O110911   3.912   1.873  13.890
  733TMC3    O210912   4.323   1.732  13.746
  734TMC3    C110913   3.457   1.393  13.135
  734TMC3    C210914   3.449   1.302  13.034
  734TMC3    C310915   3.323   1.272  12.996
  734TMC3    C410916   3.351   1.465  13.179
  734TMC3    C510917   3.230   1.434  13.125
  734TMC3    C610918   3.209   1.337  13.032
  734TMC3     C10919   3.548   1.347  13.240
  734TMC3     O10920   3.577   1.425  13.329
  734TMC3     H10921   3.532   1.257  12.981
  734TMC3    H110922   3.371   1.550  13.243
  734TMC3    H210923   3.114   1.285  13.025
  734TMC3    C710924   3.119   1.511  13.181
  734TMC3    C810925   3.317   1.136  12.946
  734TMC3    O110926   3.157   1.624  13.205
  734TMC3    O210927   3.408   1.064  12.984
  735TMC3    C110928   1.377   3.621  13.937
  735TMC3    C210929   1.246   3.619  13.981
  735TMC3    C310930   1.207   3.507  14.051
  735TMC3    C410931   1.463   3.520  13.956
  735TMC3    C510932   1.422   3.416  14.028
  735TMC3    C610933   1.294   3.407  14.068
  735TMC3     C10934   1.432   3.737  13.867
  735TMC3     O10935   1.530   3.722  13.792
  735TMC3     H10936   1.180   3.705  13.977
  735TMC3    H110937   1.565   3.521  13.919
  735TMC3    H210938   1.262   3.320  14.123
  735TMC3    C710939   1.506   3.388  14.144
  735TMC3    C810940   1.117   3.522  14.166
  735TMC3    O110941   1.453   3.396  14.255
  735TMC3    O210942   1.138   3.456  14.264
  736TMC3    C110943   4.657   2.182  10.000
  736TMC3    C210944   4.594   2.134  10.111
  736TMC3    C310945   4.556   2.001  10.111
  736TMC3    C410946   4.695   2.114   9.888
  736TMC3    C510947   4.648   1.986   9.887
  736TMC3    C610948   4.578   1.930   9.995
  736TMC3     C10949   4.759   2.273  10.045
  736TMC3     O10950   0.015   2.246  10.155
  736TMC3     H10951   4.586   2.201  10.196
  736TMC3    H110952   4.761   2.152   9.810
  736TMC3    H210953   4.557   1.824   9.999
  736TMC3    C710954   4.625   1.933   9.753
  736TMC3    C810955   4.541   1.929  10.235
  736TMC3    O110956   4.696   1.967   9.657
  736TMC3    O210957   4.543   1.805  10.245
  737TMC3    C110958   4.337   3.421  11.174
  737TMC3    C210959   4.251   3.515  11.125
  737TMC3    C310960   4.234   3.511  10.984
  737TMC3    C410961   4.414   3.341  11.098
  737TMC3    C510962   4.400   3.346  10.963
  737TMC3    C610963   4.309   3.430  10.904
  737TMC3     C10964   4.353   3.426  11.324
  737TMC3     O10965   4.375   3.535  11.375
  737TMC3     H10966   4.200   3.583  11.192
  737TMC3    H110967   4.505   3.292  11.133
  737TMC3    H210968   4.307   3.439  10.796
  737TMC3    C710969   4.456   3.238  10.881
  737TMC3    C810970   4.113   3.586  10.942
  737TMC3    O110971   4.450   3.263  10.763
  737TMC3    O210972   4.074   3.683  11.000
  738TMC3    C110973   2.748   0.482   6.577
  738TMC3    C210974   2.797   0.535   6.686
  738TMC3    C310975   2.935   0.552   6.690
  738TMC3    C410976   2.828   0.437   6.473
  738TMC3    C510977   2.961   0.437   6.494
  738TMC3    C610978   3.015   0.487   6.605
  738TMC3     C10979   2.608   0.446   6.552
  738TMC3     O10980   2.571   0.452   6.434
  738TMC3     H10981   2.728   0.575   6.759
  738TMC3    H110982   2.790   0.379   6.390
  738TMC3    H210983   3.119   0.519   6.607
  738TMC3    C710984   3.039   0.386   6.392
  738TMC3    C810985   2.992   0.603   6.818
  738TMC3    O110986   3.000   0.390   6.276
  738TMC3    O210987   3.098   0.558   6.857
  739TMC3    C110988   2.534   0.789  12.663
  739TMC3    C210989   2.648   0.810  12.741
  739TMC3    C310990   2.719   0.928  12.736
  739TMC3    C410991   2.491   0.892  12.582
  739TMC3    C510992   2.573   1.007  12.578
  739TMC3    C610993   2.688   1.024  12.651
  739TMC3     C10994   2.439   0.680  12.700
  739TMC3     O10995   2.487   0.585  12.756
  739TMC3     H10996   2.673   0.734  12.815
  739TMC3    H110997   2.419   0.862  12.507
  739TMC3    H210998   2.745   1.116  12.653
  739TMC3    C710999   2.552   1.090  12.460
  739TMC3    C811000   2.827   0.952  12.828
  739TMC3    O111001   2.536   1.033  12.352
  739TMC3    O211002   2.850   1.067  12.868
  740TMC3    C111003   1.717   0.895  11.065
  740TMC3    C211004   1.605   0.857  10.999
  740TMC3    C311005   1.608   0.740  10.927
  740TMC3    C411006   1.834   0.825  11.053
  740TMC3    C511007   1.833   0.710  10.970
  740TMC3    C611008   1.720   0.662  10.916
  740TMC3     C11009   1.730   1.026  11.114
  740TMC3     O11010   1.650   1.107  11.070
  740TMC3     H11011   1.510   0.903  11.021
  740TMC3    H111012   1.928   0.871  11.080
  740TMC3    H211013   1.718   0.577  10.848
  740TMC3    C711014   1.945   0.694  10.877
  740TMC3    C811015   1.485   0.675  10.889
  740TMC3    O111016   1.920   0.690  10.759
  740TMC3    O211017   1.480   0.557  10.909
  741TMC3    C111018   4.349   4.233  11.126
  741TMC3    C211019   4.364   4.169  11.242
  741TMC3    C311020   4.328   4.033  11.241
  741TMC3    C411021   4.330   4.169  11.009
  741TMC3    C511022   4.305   4.034  11.007
  741TMC3    C611023   4.296   3.964  11.125
  741TMC3     C11024   4.309   4.375  11.140
  741TMC3     O11025   4.327   4.443  11.040
  741TMC3     H11026   4.385   4.218  11.336
  741TMC3    H111027   4.315   4.219  10.914
  741TMC3    H211028   4.282   3.856  11.121
  741TMC3    C711029   4.252   3.980  10.886
  741TMC3    C811030   4.378   3.947  11.347
  741TMC3    O111031   4.144   4.034  10.857
  741TMC3    O211032   4.344   3.832  11.335
  742TMC3    C111033   4.765   2.292   6.901
  742TMC3    C211034   0.078   2.291   6.809
  742TMC3    C311035   0.092   2.189   6.723
  742TMC3    C411036   4.679   2.188   6.919
  742TMC3    C511037   4.698   2.082   6.833
  742TMC3    C611038   0.003   2.081   6.737
  742TMC3     C11039   4.770   2.377   7.019
  742TMC3     O11040   4.667   2.390   7.083
  742TMC3     H11041   0.142   2.376   6.789
  742TMC3    H111042   4.593   2.192   6.985
  742TMC3    H211043   0.026   1.992   6.679
  742TMC3    C711044   4.645   1.953   6.873
  742TMC3    C811045   0.181   2.195   6.607
  742TMC3    O111046   4.625   1.868   6.785
  742TMC3    O211047   0.160   2.116   6.517
  743TMC3    C111048   0.859   1.494   8.510
  743TMC3    C211049   0.833   1.450   8.640
  743TMC3    C311050   0.765   1.523   8.731
  743TMC3    C411051   0.821   1.614   8.463
  743TMC3    C511052   0.768   1.698   8.563
  743TMC3    C611053   0.727   1.644   8.687
  743TMC3     C11054   0.978   1.440   8.454
  743TMC3     O11055   0.977   1.429   8.335
  743TMC3     H11056   0.862   1.350   8.671
  743TMC3    H111057   0.879   1.658   8.383
  743TMC3    H211058   0.681   1.712   8.758
  743TMC3    C711059   0.853   1.817   8.573
  743TMC3    C811060   0.810   1.533   8.869
  743TMC3    O111061   0.890   1.873   8.472
  743TMC3    O211062   0.828   1.650   8.901
  744TMC3    C111063   0.386   2.727  13.968
  744TMC3    C211064   0.257   2.694  13.924
  744TMC3    C311065   0.177   2.800  13.900
  744TMC3    C411066   0.430   2.843  14.006
  744TMC3    C511067   0.338   2.944  14.005
  744TMC3    C611068   0.217   2.920  13.945
  744TMC3     C11069   0.481   2.622  14.011
  744TMC3     O11070   0.423   2.531  14.061
  744TMC3     H11071   0.224   2.592  13.908
  744TMC3    H111072   0.527   2.861  14.050
  744TMC3    H211073   0.143   2.997  13.960
  744TMC3    C711074   0.364   3.056  14.095
  744TMC3    C811075   0.029   2.784  13.893
  744TMC3    O111076   0.456   3.134  14.066
  744TMC3    O211077   4.754   2.887  13.888
  745TMC3    C111078   3.598   1.574   9.833
  745TMC3    C211079   3.595   1.529   9.960
  745TMC3    C311080   3.530   1.608  10.057
  745TMC3    C411081   3.533   1.689   9.801
  745TMC3    C511082   3.471   1.760   9.894
  745TMC3    C611083   3.476   1.726  10.028
  745TMC3     C11084   3.546   1.469   9.742
  745TMC3     O11085   3.468   1.390   9.796
  745TMC3     H11086   3.624   1.431   9.996
  745TMC3    H111087   3.536   1.721   9.697
  745TMC3    H211088   3.423   1.782  10.104
  745TMC3    C711089   3.393   1.872   9.845
  745TMC3    C811090   3.433   1.540  10.151
  745TMC3    O111091   3.450   1.938   9.762
  745TMC3    O211092   3.372   1.612  10.227
  746TMC3    C111093   0.429   2.662  10.402
  746TMC3    C211094   0.469   2.539  10.435
  746TMC3    C311095   0.489   2.504  10.567
  746TMC3    C411096   0.412   2.760  10.502
  746TMC3    C511097   0.426   2.718  10.630
  746TMC3    C611098   0.481   2.596  10.663
  746TMC3     C11099   0.404   2.693  10.265
  746TMC3     O11100   0.412   2.811  10.236
  746TMC3     H11101   0.485   2.460  10.362
  746TMC3    H111102   0.363   2.855  10.481
  746TMC3    H211103   0.504   2.571  10.766
  746TMC3    C711104   0.442   2.820  10.731
  746TMC3    C811105   0.578   2.395  10.594
  746TMC3    O111106   0.551   2.812  10.790
  746TMC3    O211107   0.666   2.368  10.511
  747TMC3    C111108   1.960   4.666   9.384
  747TMC3    C211109   1.980   4.783   9.446
  747TMC3    C311110   1.880   0.079   9.437
  747TMC3    C411111   1.845   4.635   9.317
  747TMC3    C511112   1.738   4.714   9.338
  747TMC3    C611113   1.754   0.052   9.385
  747TMC3     C11114   2.069   4.575   9.375
  747TMC3     O11115   2.083   4.505   9.278
  747TMC3     H11116   2.073   0.026   9.490
  747TMC3    H111117   1.850   4.543   9.260
  747TMC3    H211118   1.670   0.120   9.396
  747TMC3    C711119   1.612   4.685   9.277
  747TMC3    C811120   1.911   0.224   9.431
  747TMC3    O111121   1.558   4.788   9.229
  747TMC3    O211122   1.828   0.295   9.378
  748TMC3    C111123   3.222   0.259  14.692
  748TMC3    C211124   3.350   0.248  14.745
  748TMC3    C311125   3.360   0.192  14.867
  748TMC3    C411126   3.111   0.209  14.759
  748TMC3    C511127   3.127   0.162  14.886
  748TMC3    C611128   3.253   0.148  14.936
  748TMC3     C11129   3.214   0.278  14.553
  748TMC3     O11130   3.117   0.346  14.528
  748TMC3     H11131   3.436   0.263  14.682
  748TMC3    H111132   3.019   0.198  14.703
  748TMC3    H211133   3.267   0.094  15.029
  748TMC3    C711134   3.026   0.073  14.941
  748TMC3    C811135   3.486   0.201  14.930
  748TMC3    O111136   3.072   4.763  14.999
  748TMC3    O211137   3.572   0.272  14.882
  749TMC3    C111138   2.873   3.869  13.174
  749TMC3    C211139   2.927   3.857  13.047
  749TMC3    C311140   2.978   3.732  13.017
  749TMC3    C411141   2.881   3.765  13.262
  749TMC3    C511142   2.933   3.647  13.223
  749TMC3    C611143   2.996   3.626  13.102
  749TMC3     C11144   2.787   3.978  13.207
  749TMC3     O11145   2.726   3.971  13.312
  749TMC3     H11146   2.924   3.925  12.963
  749TMC3    H111147   2.850   3.786  13.364
  749TMC3    H211148   3.046   3.534  13.074
  749TMC3    C711149   2.932   3.540  13.322
  749TMC3    C811150   3.020   3.701  12.882
  749TMC3    O111151   2.993   3.439  13.292
  749TMC3    O211152   3.092   3.602  12.876
  750TMC3    C111153   1.317   0.657  11.602
  750TMC3    C211154   1.376   0.539  11.621
  750TMC3    C311155   1.513   0.527  11.624
  750TMC3    C411156   1.394   0.771  11.600
  750TMC3    C511157   1.527   0.751  11.603
  750TMC3    C611158   1.590   0.636  11.617
  750TMC3     C11159   1.170   0.661  11.614
  750TMC3     O11160   1.130   0.565  11.678
  750TMC3     H11161   1.314   0.450  11.623
  750TMC3    H111162   1.351   0.869  11.587
  750TMC3    H211163   1.694   0.633  11.647
  750TMC3    C711164   1.609   0.876  11.593
  750TMC3    C811165   1.555   0.400  11.582
  750TMC3    O111166   1.703   0.875  11.673
  750TMC3    O211167   1.466   0.322  11.551
  751TMC3    C111168   2.409   1.020  13.659
  751TMC3    C211169   2.291   1.053  13.597
  751TMC3    C311170   2.281   1.184  13.551
  751TMC3    C411171   2.520   1.101  13.662
  751TMC3    C511172   2.504   1.230  13.614
  751TMC3    C611173   2.378   1.275  13.574
  751TMC3     C11174   2.429   0.879  13.652
  751TMC3     O11175   2.380   0.822  13.553
  751TMC3     H11176   2.210   0.981  13.596
  751TMC3    H111177   2.617   1.068  13.697
  751TMC3    H211178   2.375   1.373  13.528
  751TMC3    C711179   2.622   1.268  13.530
  751TMC3    C811180   2.230   1.194  13.416
  751TMC3    O111181   2.684   1.181  13.477
  751TMC3    O211182   2.187   1.305  13.386
  752TMC3    C111183   3.797   1.372   8.791
  752TMC3    C211184   3.926   1.427   8.791
  752TMC3    C311185   3.996   1.409   8.906
  752TMC3    C411186   3.777   1.267   8.873
  752TMC3    C511187   3.846   1.258   8.990
  752TMC3    C611188   3.966   1.327   9.010
  752TMC3     C11189   3.712   1.478   8.832
  752TMC3     O11190   3.751   1.592   8.814
  752TMC3     H11191   3.947   1.511   8.726
  752TMC3    H111192   3.689   1.207   8.852
  752TMC3    H211193   4.024   1.312   9.100
  752TMC3    C711194   3.770   1.196   9.098
  752TMC3    C811195   4.111   1.493   8.932
  752TMC3    O111196   3.685   1.123   9.054
  752TMC3    O211197   4.100   1.572   9.021
  753TMC3    C111198   2.259   4.477   7.769
  753TMC3    C211199   2.289   4.482   7.627
  753TMC3    C311200   2.315   4.361   7.561
  753TMC3    C411201   2.270   4.365   7.834
  753TMC3    C511202   2.307   4.250   7.764
  753TMC3    C611203   2.333   4.249   7.630
  753TMC3     C11204   2.285   4.597   7.843
  753TMC3     O11205   2.245   4.587   7.959
  753TMC3     H11206   2.263   4.572   7.572
  753TMC3    H111207   2.261   4.358   7.942
  753TMC3    H211208   2.329   4.155   7.577
  753TMC3    C711209   2.348   4.134   7.846
  753TMC3    C811210   2.316   4.358   7.416
  753TMC3    O111211   2.299   4.129   7.960
  753TMC3    O211212   2.253   4.451   7.362
  754TMC3    C111213   3.865   4.734  11.690
  754TMC3    C211214   3.778   0.041  11.646
  754TMC3    C311215   3.670   0.065  11.720
  754TMC3    C411216   3.850   4.673  11.816
  754TMC3    C511217   3.732   4.704  11.879
  754TMC3    C611218   3.641   0.004  11.842
  754TMC3     C11219   3.996   4.727  11.641
  754TMC3     O11220   4.063   4.631  11.669
  754TMC3     H11221   3.779   0.080  11.544
  754TMC3    H111222   3.917   4.600  11.859
  754TMC3    H211223   3.555   0.023  11.905
  754TMC3    C711224   3.732   4.680  12.017
  754TMC3    C811225   3.585   0.176  11.681
  754TMC3    O111226   3.760   4.575  12.067
  754TMC3    O211227   3.636   0.247  11.594
  755TMC3    C111228   3.667   2.824   9.371
  755TMC3    C211229   3.542   2.876   9.341
  755TMC3    C311230   3.527   2.964   9.235
  755TMC3    C411231   3.768   2.848   9.284
  755TMC3    C511232   3.752   2.942   9.182
  755TMC3    C611233   3.631   3.000   9.149
  755TMC3     C11234   3.677   2.712   9.461
  755TMC3     O11235   3.571   2.679   9.507
  755TMC3     H11236   3.463   2.874   9.415
  755TMC3    H111237   3.859   2.792   9.302
  755TMC3    H211238   3.631   3.067   9.064
  755TMC3    C711239   3.863   2.967   9.091
  755TMC3    C811240   3.394   3.007   9.206
  755TMC3    O111241   3.829   3.013   8.981
  755TMC3    O211242   3.305   2.960   9.277
  756TMC3    C111243   1.298   2.659  12.184
  756TMC3    C211244   1.399   2.683  12.266
  756TMC3    C311245   1.518   2.614  12.254
  756TMC3    C411246   1.311   2.560  12.090
  756TMC3    C511247   1.427   2.490  12.087
  756TMC3    C611248   1.531   2.521  12.159
  756TMC3     C11249   1.171   2.735  12.189
  756TMC3     O11250   1.102   2.713  12.089
  756TMC3     H11251   1.396   2.766  12.336
  756TMC3    H111252   1.240   2.540  12.011
  756TMC3    H211253   1.617   2.455  12.153
  756TMC3    C711254   1.434   2.377  11.999
  756TMC3    C811255   1.643   2.662  12.311
  756TMC3    O111256   1.519   2.396  11.912
  756TMC3    O211257   1.639   2.747  12.399
  757TMC3    C111258   4.240   3.402  11.835
  757TMC3    C211259   4.321   3.504  11.869
  757TMC3    C311260   4.449   3.475  11.901
  757TMC3    C411261   4.275   3.273  11.832
  757TMC3    C511262   4.402   3.248  11.859
  757TMC3    C611263   4.494   3.345  11.890
  757TMC3     C11264   4.145   3.448  11.737
  757TMC3     O11265   4.167   3.551  11.673
  757TMC3     H11266   4.285   3.606  11.868
  757TMC3    H111267   4.212   3.192  11.795
  757TMC3    H211268   4.601   3.337  11.903
  757TMC3    C711269   4.446   3.110  11.858
  757TMC3    C811270   4.538   3.586  11.867
  757TMC3    O111271   4.359   3.023  11.838
  757TMC3    O211272   4.650   3.579  11.902
  758TMC3    C111273   2.076   4.400  12.707
  758TMC3    C211274   2.167   4.373  12.606
  758TMC3    C311275   2.178   4.470  12.513
  758TMC3    C411276   2.014   4.522  12.721
  758TMC3    C511277   2.037   4.622  12.628
  758TMC3    C611278   2.112   4.589  12.521
  758TMC3     C11279   2.017   4.291  12.793
  758TMC3     O11280   1.938   4.322  12.876
  758TMC3     H11281   2.225   4.281  12.607
  758TMC3    H111282   1.964   4.535  12.817
  758TMC3    H211283   2.121   4.667  12.447
  758TMC3    C711284   1.994   4.766  12.631
  758TMC3    C811285   2.230   4.425  12.386
  758TMC3    O111286   2.088   0.046  12.596
  758TMC3    O211287   2.302   4.324  12.395
  759TMC3    C111288   2.990   2.862  12.852
  759TMC3    C211289   2.897   2.827  12.753
  759TMC3    C311290   2.943   2.779  12.636
  759TMC3    C411291   3.126   2.859  12.821
  759TMC3    C511292   3.168   2.791  12.708
  759TMC3    C611293   3.077   2.765  12.607
  759TMC3     C11294   2.950   2.965  12.943
  759TMC3     O11295   3.037   3.043  12.976
  759TMC3     H11296   2.791   2.848  12.755
  759TMC3    H111297   3.204   2.872  12.895
  759TMC3    H211298   3.097   2.696  12.526
  759TMC3    C711299   3.295   2.721  12.698
  759TMC3    C811300   2.854   2.689  12.558
  759TMC3    O111301   3.379   2.760  12.779
  759TMC3    O211302   2.886   2.657  12.443
  760TMC3    C111303   2.592   4.399   8.201
  760TMC3    C211304   2.571   4.419   8.062
  760TMC3    C311305   2.637   4.524   8.003
  760TMC3    C411306   2.668   4.483   8.280
  760TMC3    C511307   2.729   4.587   8.210
  760TMC3    C611308   2.717   4.613   8.075
  760TMC3     C11309   2.526   4.287   8.267
  760TMC3     O11310   2.594   4.209   8.332
  760TMC3     H11311   2.513   4.351   8.001
  760TMC3    H111312   2.690   4.470   8.385
  760TMC3    H211313   2.756   4.708   8.040
  760TMC3    C711314   2.818   4.666   8.293
  760TMC3    C811315   2.655   4.519   7.860
  760TMC3    O111316   2.869   4.612   8.388
  760TMC3    O211317   2.583   4.449   7.792
  761TMC3    C111318   0.051   4.365  13.498
  761TMC3    C211319   4.763   4.294  13.585
  761TMC3    C311320   4.771   4.159  13.572
  761TMC3    C411321   0.139   4.299  13.412
  761TMC3    C511322   0.151   4.163  13.418
  761TMC3    C611323   0.066   4.090  13.498
  761TMC3     C11324   0.044   4.502  13.507
  761TMC3     O11325   4.762   4.544  13.598
  761TMC3     H11326   4.693   4.342  13.653
  761TMC3    H111327   0.215   4.352  13.356
  761TMC3    H211328   0.060   3.983  13.482
  761TMC3    C711329   0.242   4.093  13.332
  761TMC3    C811330   4.667   4.088  13.626
  761TMC3    O111331   0.273   3.979  13.370
  761TMC3    O211332   4.619   4.001  13.552
  762TMC3    C111333   2.241   3.132  10.392
  762TMC3    C211334   2.110   3.150  10.413
  762TMC3    C311335   2.023   3.104  10.312
  762TMC3    C411336   2.285   3.096  10.262
  762TMC3    C511337   2.193   3.078  10.163
  762TMC3    C611338   2.065   3.070  10.189
  762TMC3     C11339   2.314   3.076  10.505
  762TMC3     O11340   2.428   3.114  10.517
  762TMC3     H11341   2.076   3.157  10.516
  762TMC3    H111342   2.388   3.061  10.257
  762TMC3    H211343   1.992   3.023  10.124
  762TMC3    C711344   2.243   3.001  10.048
  762TMC3    C811345   1.923   3.012  10.373
  762TMC3    O111346   2.153   2.933   9.996
  762TMC3    O211347   1.951   2.895  10.379
  763TMC3    C111348   3.385   1.072  15.026
  763TMC3    C211349   3.274   1.011  15.076
  763TMC3    C311350   3.206   0.930  14.985
  763TMC3    C411351   3.450   1.022  14.911
  763TMC3    C511352   3.388   0.928  14.831
  763TMC3    C611353   3.260   0.889  14.868
  763TMC3     C11354   3.368   1.216  15.021
  763TMC3     O11355   3.280   1.264  15.092
  763TMC3     H11356   3.218   1.049  15.161
  763TMC3    H111357   3.545   1.067  14.887
  763TMC3    H211358   3.192   0.850  14.794
  763TMC3    C711359   3.401   0.971  14.697
  763TMC3    C811360   3.071   0.972  14.968
  763TMC3    O111361   3.298   1.015  14.650
  763TMC3    O211362   3.028   0.989  14.855
  764TMC3    C111363   0.330   3.486   9.062
  764TMC3    C211364   0.227   3.411   9.010
  764TMC3    C311365   0.227   3.385   8.875
  764TMC3    C411366   0.414   3.558   8.974
  764TMC3    C511367   0.414   3.527   8.842
  764TMC3    C611368   0.324   3.439   8.790
  764TMC3     C11369   0.326   3.534   9.203
  764TMC3     O11370   0.220   3.554   9.252
  764TMC3     H11371   0.147   3.372   9.073
  764TMC3    H111372   0.471   3.639   9.019
  764TMC3    H211373   0.311   3.423   8.684
  764TMC3    C711374   0.471   3.610   8.737
  764TMC3    C811375   0.094   3.376   8.816
  764TMC3    O111376   0.493   3.563   8.623
  764TMC3    O211377   0.058   3.485   8.770
  765TMC3    C111378   3.335   3.276  12.668
  765TMC3    C211379   3.399   3.352  12.572
  765TMC3    C311380   3.322   3.400  12.470
  765TMC3    C411381   3.203   3.241  12.664
  765TMC3    C511382   3.128   3.282  12.549
  765TMC3    C611383   3.192   3.354  12.454
  765TMC3     C11384   3.408   3.206  12.771
  765TMC3     O11385   3.379   3.224  12.890
  765TMC3     H11386   3.503   3.382  12.572
  765TMC3    H111387   3.156   3.182  12.742
  765TMC3    H211388   3.124   3.404  12.386
  765TMC3    C711389   3.021   3.189  12.507
  765TMC3    C811390   3.327   3.544  12.501
  765TMC3    O111391   3.045   3.113  12.414
  765TMC3    O211392   3.363   3.561  12.619
  766TMC3    C111393   0.742   3.519  12.922
  766TMC3    C211394   0.685   3.639  12.960
  766TMC3    C311395   0.731   3.690  13.075
  766TMC3    C411396   0.845   3.462  12.994
  766TMC3    C511397   0.878   3.518  13.117
  766TMC3    C611398   0.817   3.632  13.162
  766TMC3     C11399   0.716   3.472  12.794
  766TMC3     O11400   0.613   3.503  12.739
  766TMC3     H11401   0.598   3.677  12.907
  766TMC3    H111402   0.900   3.376  12.956
  766TMC3    H211403   0.860   3.689  13.244
  766TMC3    C711404   1.013   3.485  13.162
  766TMC3    C811405   0.655   3.815  13.114
  766TMC3    O111406   1.075   3.415  13.083
  766TMC3    O211407   0.617   3.812  13.231
  767TMC3    C111408   4.539   2.658   9.353
  767TMC3    C211409   4.638   2.613   9.266
  767TMC3    C311410   4.731   2.522   9.317
  767TMC3    C411411   4.540   2.618   9.485
  767TMC3    C511412   4.632   2.525   9.530
  767TMC3    C611413   4.730   2.483   9.448
  767TMC3     C11414   4.419   2.726   9.307
  767TMC3     O11415   4.325   2.730   9.385
  767TMC3     H11416   4.622   2.638   9.162
  767TMC3    H111417   4.450   2.633   9.544
  767TMC3    H211418   0.008   2.407   9.482
  767TMC3    C711419   4.599   2.466   9.658
  767TMC3    C811420   0.050   2.502   9.234
  767TMC3    O111421   4.627   2.347   9.677
  767TMC3    O211422   0.128   2.411   9.260
  768TMC3    C111423   2.553   0.194   7.273
  768TMC3    C211424   2.493   0.112   7.179
  768TMC3    C311425   2.397   0.166   7.100
  768TMC3    C411426   2.516   0.328   7.280
  768TMC3    C511427   2.418   0.376   7.193
  768TMC3    C611428   2.356   0.297   7.106
  768TMC3     C11429   2.666   0.140   7.342
  768TMC3     O11430   2.763   0.211   7.334
  768TMC3     H11431   2.520   0.007   7.172
  768TMC3    H111432   2.582   0.397   7.331
  768TMC3    H211433   2.287   0.341   7.035
  768TMC3    C711434   2.350   0.506   7.212
  768TMC3    C811435   2.321   0.066   7.027
  768TMC3    O111436   2.261   0.533   7.131
  768TMC3    O211437   2.312   4.743   7.071
  769TMC3    C111438   2.693   1.409  13.989
  769TMC3    C211439   2.590   1.328  14.028
  769TMC3    C311440   2.614   1.187  14.042
  769TMC3    C411441   2.811   1.361  13.955
  769TMC3    C511442   2.826   1.216  13.953
  769TMC3    C611443   2.733   1.134  14.004
  769TMC3     C11444   2.670   1.552  13.997
  769TMC3     O11445   2.581   1.590  14.070
  769TMC3     H11446   2.495   1.368  14.062
  769TMC3    H111447   2.893   1.422  13.917
  769TMC3    H211448   2.746   1.027  14.016
  769TMC3    C711449   2.882   1.165  13.831
  769TMC3    C811450   2.503   1.095  14.030
  769TMC3    O111451   2.884   1.243  13.738
  769TMC3    O211452   2.530   0.975  14.008
  770TMC3    C111453   3.111   4.463  15.117
  770TMC3    C211454   2.987   4.436  15.167
  770TMC3    C311455   2.885   4.424  15.079
  770TMC3    C411456   3.129   4.486  14.981
  770TMC3    C511457   3.025   4.474  14.891
  770TMC3    C611458   2.904   4.440  14.945
  770TMC3     C11459   3.200   4.533  15.201
  770TMC3     O11460   3.308   4.483  15.222
  770TMC3     H11461   2.988   4.406  15.271
  770TMC3    H111462   3.229   4.517  14.950
  770TMC3    H211463   2.822   4.423  14.877
  770TMC3    C711464   3.029   4.500  14.740
  770TMC3    C811465   2.776   4.336  15.119
  770TMC3    O111466   2.922   4.488  14.685
  770TMC3    O211467   2.723   4.284  15.015
  771TMC3    C111468   0.322   3.393  12.781
  771TMC3    C211469   0.253   3.491  12.720
  771TMC3    C311470   0.234   3.487  12.584
  771TMC3    C411471   0.372   3.285  12.716
  771TMC3    C511472   0.339   3.281  12.582
  771TMC3    C611473   0.283   3.379  12.511
  771TMC3     C11474   0.338   3.407  12.923
  771TMC3     O11475   0.357   3.519  12.961
  771TMC3     H11476   0.213   3.569  12.784
  771TMC3    H111477   0.418   3.202  12.768
  771TMC3    H211478   0.253   3.356  12.410
  771TMC3    C711479   0.384   3.162  12.512
  771TMC3    C811480   0.172   3.587  12.501
  771TMC3    O111481   0.493   3.116  12.546
  771TMC3    O211482   0.182   3.586  12.379
  772TMC3    C111483   0.881   1.780  10.186
  772TMC3    C211484   0.788   1.830  10.102
  772TMC3    C311485   0.655   1.836  10.138
  772TMC3    C411486   0.835   1.736  10.311
  772TMC3    C511487   0.707   1.730  10.335
  772TMC3    C611488   0.608   1.776  10.249
  772TMC3     C11489   1.022   1.824  10.177
  772TMC3     O11490   1.090   1.820  10.281
  772TMC3     H11491   0.812   1.844   9.997
  772TMC3    H111492   0.914   1.704  10.379
  772TMC3    H211493   0.501   1.762  10.262
  772TMC3    C711494   0.671   1.643  10.440
  772TMC3    C811495   0.557   1.884  10.039
  772TMC3    O111496   0.770   1.596  10.502
  772TMC3    O211497   0.447   1.832  10.053
  773TMC3    C111498   4.478   0.625   8.303
  773TMC3    C211499   4.600   0.644   8.238
  773TMC3    C311500   4.713   0.650   8.320
  773TMC3    C411501   4.456   0.638   8.430
  773TMC3    C511502   4.569   0.653   8.509
  773TMC3    C611503   4.694   0.657   8.454
  773TMC3     C11504   4.387   0.542   8.233
  773TMC3     O11505   4.273   0.555   8.264
  773TMC3     H11506   4.613   0.636   8.131
  773TMC3    H111507   4.356   0.626   8.471
  773TMC3    H211508   4.780   0.652   8.519
  773TMC3    C711509   4.541   0.681   8.648
  773TMC3    C811510   0.035   0.716   8.257
  773TMC3    O111511   4.436   0.740   8.669
  773TMC3    O211512   0.011   0.818   8.203
  774TMC3    C111513   1.471   0.442  14.467
  774TMC3    C211514   1.561   0.518  14.392
  774TMC3    C311515   1.667   0.562  14.457
  774TMC3    C411516   1.481   0.429  14.601
  774TMC3    C511517   1.592   0.474  14.660
  774TMC3    C611518   1.691   0.539  14.588
  774TMC3     C11519   1.348   0.411  14.407
  774TMC3     O11520   1.344   0.402  14.284
  774TMC3     H11521   1.539   0.560  14.295
  774TMC3    H111522   1.405   0.366  14.647
  774TMC3    H211523   1.781   0.571  14.639
  774TMC3    C711524   1.592   0.494  14.803
  774TMC3    C811525   1.728   0.673  14.401
  774TMC3    O111526   1.691   0.546  14.862
  774TMC3    O211527   1.653   0.758  14.362
  775TMC3    C111528   2.376   1.424  12.743
  775TMC3    C211529   2.256   1.408  12.684
  775TMC3    C311530   2.219   1.494  12.589
  775TMC3    C411531   2.468   1.523  12.709
  775TMC3    C511532   2.422   1.606  12.611
  775TMC3    C611533   2.301   1.593  12.539
  775TMC3     C11534   2.429   1.317  12.814
  775TMC3     O11535   2.527   1.268  12.761
  775TMC3     H11536   2.197   1.318  12.697
  775TMC3    H111537   2.568   1.527  12.751
  775TMC3    H211538   2.274   1.656  12.455
  775TMC3    C711539   2.508   1.704  12.553
  775TMC3    C811540   2.079   1.502  12.546
  775TMC3    O111541   2.483   1.817  12.588
  775TMC3    O211542   2.031   1.604  12.495
  776TMC3    C111543   2.746   4.704  10.945
  776TMC3    C211544   2.628   4.774  10.922
  776TMC3    C311545   2.647   0.122  10.901
  776TMC3    C411546   2.865   4.769  10.963
  776TMC3    C511547   2.874   0.111  10.939
  776TMC3    C611548   2.762   0.187  10.917
  776TMC3     C11549   2.760   4.578  10.869
  776TMC3     O11550   2.854   4.573  10.788
  776TMC3     H11551   2.538   4.718  10.898
  776TMC3    H111552   2.953   4.707  10.949
  776TMC3    H211553   2.778   0.294  10.908
  776TMC3    C711554   3.004   0.145  10.884
  776TMC3    C811555   2.530   0.193  10.867
  776TMC3    O111556   2.997   0.135  10.762
  776TMC3    O211557   2.424   0.128  10.876
  777TMC3    C111558   0.874   3.149   6.984
  777TMC3    C211559   0.833   3.280   6.999
  777TMC3    C311560   0.751   3.302   7.104
  777TMC3    C411561   0.829   3.045   7.060
  777TMC3    C511562   0.750   3.072   7.163
  777TMC3    C611563   0.703   3.201   7.185
  777TMC3     C11564   0.991   3.124   6.907
  777TMC3     O11565   0.986   3.178   6.797
  777TMC3     H11566   0.877   3.366   6.949
  777TMC3    H111567   0.870   2.946   7.044
  777TMC3    H211568   0.630   3.222   7.262
  777TMC3    C711569   0.718   2.970   7.270
  777TMC3    C811570   0.693   3.436   7.117
  777TMC3    O111571   0.688   3.016   7.380
  777TMC3    O211572   0.626   3.462   7.020
  778TMC3    C111573   2.935   3.986   8.578
  778TMC3    C211574   2.910   3.977   8.451
  778TMC3    C311575   2.780   3.963   8.411
  778TMC3    C411576   2.845   3.980   8.673
  778TMC3    C511577   2.715   3.960   8.633
  778TMC3    C611578   2.679   3.955   8.502
  778TMC3     C11579   3.069   4.009   8.611
  778TMC3     O11580   3.116   3.948   8.707
  778TMC3     H11581   2.980   3.992   8.370
  778TMC3    H111582   2.869   3.990   8.778
  778TMC3    H211583   2.576   3.933   8.475
  778TMC3    C711584   2.611   4.013   8.714
  778TMC3    C811585   2.767   3.898   8.281
  778TMC3    O111586   2.607   3.975   8.833
  778TMC3    O211587   2.865   3.830   8.250
  779TMC3    C111588   1.858   1.376  11.959
  779TMC3    C211589   1.754   1.459  11.986
  779TMC3    C311590   1.658   1.426  12.080
  779TMC3    C411591   1.884   1.286  12.068
  779TMC3    C511592   1.800   1.277  12.176
  779TMC3    C611593   1.677   1.327  12.167
  779TMC3     C11594   1.845   1.305  11.840
  779TMC3     O11595   1.869   1.185  11.855
  779TMC3     H11596   1.748   1.536  11.910
  779TMC3    H111597   1.979   1.236  12.073
  779TMC3    H211598   1.617   1.314  12.256
  779TMC3    C711599   1.820   1.147  12.235
  779TMC3    C811600   1.520   1.458  12.047
  779TMC3    O111601   1.929   1.094  12.231
  779TMC3    O211602   1.440   1.400  12.114
  780TMC3    C111603   3.369   0.761   9.705
  780TMC3    C211604   3.324   0.651   9.771
  780TMC3    C311605   3.216   0.659   9.854
  780TMC3    C411606   3.307   0.876   9.723
  780TMC3    C511607   3.209   0.884   9.815
  780TMC3    C611608   3.161   0.773   9.878
  780TMC3     C11609   3.493   0.763   9.635
  780TMC3     O11610   3.485   0.826   9.532
  780TMC3     H11611   3.383   0.562   9.754
  780TMC3    H111612   3.336   0.963   9.666
  780TMC3    H211613   3.082   0.773   9.953
  780TMC3    C711614   3.189   1.019   9.873
  780TMC3    C811615   3.143   0.535   9.844
  780TMC3    O111616   3.211   1.120   9.796
  780TMC3    O211617   3.203   0.436   9.806
  781TMC3    C111618   1.236   4.541  14.006
  781TMC3    C211619   1.307   4.656  14.018
  781TMC3    C311620   1.309   4.723  14.140
  781TMC3    C411621   1.170   4.480  14.108
  781TMC3    C511622   1.166   4.559  14.225
  781TMC3    C611623   1.232   4.680  14.244
  781TMC3     C11624   1.286   4.460  13.897
  781TMC3     O11625   1.348   4.520  13.810
  781TMC3     H11626   1.355   4.706  13.936
  781TMC3    H111627   1.120   4.384  14.096
  781TMC3    H211628   1.211   4.728  14.338
  781TMC3    C711629   1.191   4.472  14.326
  781TMC3    C811630   1.439   4.788  14.169
  781TMC3    O111631   1.221   4.360  14.285
  781TMC3    O211632   1.501   0.028  14.064
  782TMC3    C111633   0.622   2.645   8.978
  782TMC3    C211634   0.544   2.753   8.997
  782TMC3    C311635   0.599   2.875   9.025
  782TMC3    C411636   0.759   2.645   8.989
  782TMC3    C511637   0.810   2.774   9.001
  782TMC3    C611638   0.732   2.886   9.020
  782TMC3     C11639   0.555   2.526   9.005
  782TMC3     O11640   0.529   2.509   9.122
  782TMC3     H11641   0.439   2.732   9.009
  782TMC3    H111642   0.811   2.550   8.989
  782TMC3    H211643   0.783   2.982   9.019
  782TMC3    C711644   0.952   2.787   9.025
  782TMC3    C811645   0.525   2.992   9.053
  782TMC3    O111646   0.980   2.891   9.081
  782TMC3    O211647   0.565   3.099   9.017
  783TMC3    C111648   2.024   1.903   9.649
  783TMC3    C211649   1.930   1.835   9.576
  783TMC3    C311650   1.971   1.710   9.546
  783TMC3    C411651   2.138   1.841   9.702
  783TMC3    C511652   2.168   1.714   9.667
  783TMC3    C611653   2.091   1.652   9.578
  783TMC3     C11654   1.967   2.011   9.739
  783TMC3     O11655   1.846   2.025   9.736
  783TMC3     H11656   1.837   1.886   9.556
  783TMC3    H111657   2.196   1.883   9.782
  783TMC3    H211658   2.121   1.559   9.530
  783TMC3    C711659   2.158   1.634   9.793
  783TMC3    C811660   1.858   1.612   9.551
  783TMC3    O111661   2.125   1.702   9.889
  783TMC3    O211662   1.882   1.506   9.614
  784TMC3    C111663   1.732   3.972  12.698
  784TMC3    C211664   1.743   4.079  12.609
  784TMC3    C311665   1.641   4.172  12.628
  784TMC3    C411666   1.641   3.959  12.799
  784TMC3    C511667   1.543   4.054  12.806
  784TMC3    C611668   1.539   4.159  12.718
  784TMC3     C11669   1.801   3.845  12.667
  784TMC3     O11670   1.773   3.754  12.742
  784TMC3     H11671   1.812   4.090  12.527
  784TMC3    H111672   1.661   3.891  12.881
  784TMC3    H211673   1.450   4.221  12.717
  784TMC3    C711674   1.482   4.082  12.932
  784TMC3    C811675   1.686   4.307  12.606
  784TMC3    O111676   1.428   4.193  12.944
  784TMC3    O211677   1.799   4.325  12.572
  785TMC3    C111678   2.330   2.074  13.240
  785TMC3    C211679   2.392   1.971  13.169
  785TMC3    C311680   2.440   1.867  13.242
  785TMC3    C411681   2.306   2.071  13.371
  785TMC3    C511682   2.357   1.966  13.443
  785TMC3    C611683   2.437   1.870  13.377
  785TMC3     C11684   2.316   2.199  13.166
  785TMC3     O11685   2.305   2.196  13.043
  785TMC3     H11686   2.409   1.979  13.063
  785TMC3    H111687   2.236   2.136  13.422
  785TMC3    H211688   2.489   1.790  13.430
  785TMC3    C711689   2.261   1.915  13.538
  785TMC3    C811690   2.407   1.729  13.193
  785TMC3    O111691   2.183   1.991  13.594
  785TMC3    O211692   2.412   1.630  13.270
  786TMC3    C111693   3.060   3.156   7.746
  786TMC3    C211694   2.949   3.095   7.682
  786TMC3    C311695   2.947   3.084   7.548
  786TMC3    C411696   3.145   3.231   7.670
  786TMC3    C511697   3.148   3.192   7.539
  786TMC3    C611698   3.051   3.130   7.475
  786TMC3     C11699   3.093   3.090   7.872
  786TMC3     O11700   2.998   3.042   7.935
  786TMC3     H11701   2.861   3.077   7.743
  786TMC3    H111702   3.218   3.289   7.726
  786TMC3    H211703   3.053   3.110   7.369
  786TMC3    C711704   3.271   3.227   7.468
  786TMC3    C811705   2.873   2.962   7.508
  786TMC3    O111706   3.318   3.146   7.389
  786TMC3    O211707   2.785   2.981   7.425
  787TMC3    C111708   3.019   4.566  13.409
  787TMC3    C211709   3.006   4.501  13.531
  787TMC3    C311710   3.114   4.500  13.615
  787TMC3    C411711   3.139   4.620  13.373
  787TMC3    C511712   3.246   4.621  13.461
  787TMC3    C611713   3.233   4.562  13.586
  787TMC3     C11714   2.924   4.552  13.301
  787TMC3     O11715   2.969   4.509  13.194
  787TMC3     H11716   2.917   4.441  13.546
  787TMC3    H111717   3.146   4.668  13.276
  787TMC3    H211718   3.308   4.567  13.663
  787TMC3    C711719   3.354   4.706  13.440
  787TMC3    C811720   3.101   4.484  13.758
  787TMC3    O111721   3.402   4.705  13.323
  787TMC3    O211722   3.199   4.435  13.821
  788TMC3    C111723   1.693   1.689  11.183
  788TMC3    C211724   1.619   1.723  11.074
  788TMC3    C311725   1.494   1.766  11.103
  788TMC3    C411726   1.654   1.714  11.306
  788TMC3    C511727   1.530   1.766  11.331
  788TMC3    C611728   1.438   1.776  11.228
  788TMC3     C11729   1.764   1.567  11.166
  788TMC3     O11730   1.758   1.509  11.061
  788TMC3     H11731   1.656   1.706  10.973
  788TMC3    H111732   1.720   1.702  11.392
  788TMC3    H211733   1.332   1.793  11.245
  788TMC3    C711734   1.501   1.755  11.470
  788TMC3    C811735   1.420   1.819  10.987
  788TMC3    O111736   1.589   1.774  11.551
  788TMC3    O211737   1.306   1.843  11.019
  789TMC3    C111738   3.870   1.240  11.391
  789TMC3    C211739   3.940   1.154  11.310
  789TMC3    C311740   4.027   1.062  11.378
  789TMC3    C411741   3.872   1.234  11.529
  789TMC3    C511742   3.956   1.141  11.592
  789TMC3    C611743   4.039   1.059  11.513
  789TMC3     C11744   3.768   1.313  11.316
  789TMC3     O11745   3.699   1.240  11.249
  789TMC3     H11746   3.915   1.159  11.204
  789TMC3    H111747   3.802   1.289  11.591
  789TMC3    H211748   4.115   1.001  11.565
  789TMC3    C711749   3.980   1.141  11.735
  789TMC3    C811750   4.121   0.977  11.306
  789TMC3    O111751   3.981   1.040  11.798
  789TMC3    O211752   4.171   0.885  11.373
  790TMC3    C111753   0.937   2.533   6.635
  790TMC3    C211754   0.926   2.490   6.766
  790TMC3    C311755   1.007   2.562   6.854
  790TMC3    C411756   1.024   2.624   6.586
  790TMC3    C511757   1.105   2.682   6.679
  790TMC3    C611758   1.095   2.661   6.812
  790TMC3     C11759   0.845   2.476   6.541
  790TMC3     O11760   0.880   2.489   6.426
  790TMC3     H11761   0.867   2.402   6.791
  790TMC3    H111762   0.995   2.671   6.492
  790TMC3    H211763   1.167   2.698   6.883
  790TMC3    C711764   1.172   2.806   6.649
  790TMC3    C811765   1.008   2.502   6.993
  790TMC3    O111766   1.214   2.876   6.735
  790TMC3    O211767   0.972   2.385   7.012
  791TMC3    C111768   2.356   3.727   7.439
  791TMC3    C211769   2.383   3.786   7.319
  791TMC3    C311770   2.513   3.786   7.273
  791TMC3    C411771   2.449   3.660   7.509
  791TMC3    C511772   2.572   3.648   7.458
  791TMC3    C611773   2.606   3.721   7.341
  791TMC3     C11774   2.241   3.771   7.508
  791TMC3     O11775   2.215   3.716   7.615
  791TMC3     H11776   2.302   3.799   7.249
  791TMC3    H111777   2.423   3.625   7.608
  791TMC3    H211778   2.710   3.721   7.309
  791TMC3    C711779   2.677   3.577   7.525
  791TMC3    C811780   2.550   3.806   7.134
  791TMC3    O111781   2.791   3.606   7.498
  791TMC3    O211782   2.619   3.716   7.089
  792TMC3    C111783   1.693   2.533  11.579
  792TMC3    C211784   1.689   2.668  11.585
  792TMC3    C311785   1.573   2.736  11.568
  792TMC3    C411786   1.577   2.460  11.560
  792TMC3    C511787   1.462   2.533  11.538
  792TMC3    C611788   1.457   2.674  11.530
  792TMC3     C11789   1.811   2.463  11.633
  792TMC3     O11790   1.923   2.480  11.575
  792TMC3     H11791   1.780   2.724  11.606
  792TMC3    H111792   1.579   2.352  11.564
  792TMC3    H211793   1.374   2.732  11.494
  792TMC3    C711794   1.342   2.462  11.573
  792TMC3    C811795   1.575   2.874  11.624
  792TMC3    O111796   1.359   2.346  11.608
  792TMC3    O211797   1.490   2.945  11.567
  793TMC3    C111798   3.708   3.037  13.121
  793TMC3    C211799   3.791   2.929  13.119
  793TMC3    C311800   3.839   2.880  13.230
  793TMC3    C411801   3.667   3.100  13.237
  793TMC3    C511802   3.725   3.050  13.351
  793TMC3    C611803   3.821   2.948  13.351
  793TMC3     C11804   3.701   3.111  12.996
  793TMC3     O11805   3.708   3.045  12.895
  793TMC3     H11806   3.818   2.888  13.023
  793TMC3    H111807   3.619   3.197  13.245
  793TMC3    H211808   3.888   2.919  13.431
  793TMC3    C711809   3.721   3.131  13.470
  793TMC3    C811810   3.952   2.795  13.210
  793TMC3    O111811   3.724   3.250  13.447
  793TMC3    O211812   4.032   2.821  13.116
  794TMC3    C111813   4.136   1.830   7.748
  794TMC3    C211814   4.183   1.764   7.860
  794TMC3    C311815   4.314   1.725   7.855
  794TMC3    C411816   4.201   1.819   7.628
  794TMC3    C511817   4.332   1.781   7.628
  794TMC3    C611818   4.385   1.735   7.739
  794TMC3     C11819   3.994   1.866   7.738
  794TMC3     O11820   3.938   1.795   7.654
  794TMC3     H11821   4.126   1.762   7.952
  794TMC3    H111822   4.151   1.852   7.538
  794TMC3    H211823   4.481   1.687   7.727
  794TMC3    C711824   4.378   1.715   7.508
  794TMC3    C811825   4.388   1.749   7.976
  794TMC3    O111826   4.402   1.595   7.515
  794TMC3    O211827   4.339   1.703   8.079
  795TMC3    C111828   4.324   2.763  11.415
  795TMC3    C211829   4.328   2.703  11.285
  795TMC3    C311830   4.455   2.709  11.227
  795TMC3    C411831   4.426   2.830  11.477
  795TMC3    C511832   4.536   2.853  11.400
  795TMC3    C611833   4.559   2.776  11.281
  795TMC3     C11834   4.198   2.781  11.474
  795TMC3     O11835   4.196   2.799  11.595
  795TMC3     H11836   4.245   2.649  11.241
  795TMC3    H111837   4.415   2.867  11.579
  795TMC3    H211838   4.654   2.781  11.227
  795TMC3    C711839   4.656   2.849  11.483
  795TMC3    C811840   4.473   2.630  11.099
  795TMC3    O111841   4.724   2.746  11.480
  795TMC3    O211842   4.394   2.538  11.078
  796TMC3    C111843   1.047   0.992  12.416
  796TMC3    C211844   1.131   1.006  12.526
  796TMC3    C311845   1.121   1.119  12.597
  796TMC3    C411846   0.952   1.089  12.386
  796TMC3    C511847   0.942   1.201  12.465
  796TMC3    C611848   1.026   1.216  12.572
  796TMC3     C11849   1.055   0.885  12.312
  796TMC3     O11850   1.053   0.930  12.199
  796TMC3     H11851   1.226   0.953  12.531
  796TMC3    H111852   0.880   1.058  12.311
  796TMC3    H211853   1.003   1.280  12.656
  796TMC3    C711854   0.851   1.317  12.436
  796TMC3    C811855   1.245   1.182  12.648
  796TMC3    O111856   0.813   1.389  12.529
  796TMC3    O211857   1.332   1.119  12.707
  797TMC3    C111858   3.087   2.044  11.330
  797TMC3    C211859   3.005   2.095  11.423
  797TMC3    C311860   2.915   2.016  11.489
  797TMC3    C411861   3.067   1.915  11.289
  797TMC3    C511862   2.983   1.829  11.361
  797TMC3    C611863   2.918   1.877  11.469
  797TMC3     C11864   3.135   2.138  11.227
  797TMC3     O11865   3.054   2.220  11.181
  797TMC3     H11866   2.978   2.200  11.423
  797TMC3    H111867   3.115   1.882  11.198
  797TMC3    H211868   2.826   1.826  11.496
  797TMC3    C711869   2.922   1.732  11.278
  797TMC3    C811870   2.802   2.082  11.554
  797TMC3    O111871   2.918   1.758  11.160
  797TMC3    O211872   2.770   2.191  11.507
  798TMC3    C111873   2.599   1.340   9.894
  798TMC3    C211874   2.704   1.392   9.965
  798TMC3    C311875   2.792   1.311  10.027
  798TMC3    C411876   2.593   1.210   9.867
  798TMC3    C511877   2.688   1.127   9.932
  798TMC3    C611878   2.791   1.175  10.013
  798TMC3     C11879   2.549   1.413   9.778
  798TMC3     O11880   2.433   1.395   9.745
  798TMC3     H11881   2.724   1.498   9.960
  798TMC3    H111882   2.500   1.180   9.820
  798TMC3    H211883   2.865   1.115  10.064
  798TMC3    C711884   2.730   1.008   9.867
  798TMC3    C811885   2.927   1.366  10.032
  798TMC3    O111886   2.796   0.928   9.925
  798TMC3    O211887   3.005   1.324   9.950
  799TMC3    C111888   3.979   0.829   9.426
  799TMC3    C211889   3.978   0.955   9.375
  799TMC3    C311890   4.060   0.991   9.273
  799TMC3    C411891   4.077   0.747   9.385
  799TMC3    C511892   4.176   0.793   9.305
  799TMC3    C611893   4.160   0.908   9.228
  799TMC3     C11894   3.948   0.823   9.572
  799TMC3     O11895   4.014   0.751   9.652
  799TMC3     H11896   3.901   1.024   9.407
  799TMC3    H111897   4.092   0.654   9.439
  799TMC3    H211898   4.214   0.915   9.134
  799TMC3    C711899   4.300   0.803   9.374
  799TMC3    C811900   4.111   1.119   9.299
  799TMC3    O111901   4.309   0.744   9.477
  799TMC3    O211902   4.079   1.176   9.399
  800TMC3    C111903   2.388   2.630  11.492
  800TMC3    C211904   2.291   2.713  11.526
  800TMC3    C311905   2.164   2.687  11.490
  800TMC3    C411906   2.366   2.519  11.411
  800TMC3    C511907   2.234   2.496  11.372
  800TMC3    C611908   2.133   2.579  11.409
  800TMC3     C11909   2.507   2.637  11.588
  800TMC3     O11910   2.531   2.541  11.655
  800TMC3     H11911   2.314   2.793  11.596
  800TMC3    H111912   2.447   2.448  11.402
  800TMC3    H211913   2.028   2.570  11.382
  800TMC3    C711914   2.206   2.362  11.343
  800TMC3    C811915   2.074   2.799  11.462
  800TMC3    O111916   2.295   2.287  11.306
  800TMC3    O211917   2.014   2.809  11.358
  801TMC3    C111918   1.996   4.363  13.456
  801TMC3    C211919   2.109   4.411  13.398
  801TMC3    C311920   2.194   4.321  13.331
  801TMC3    C411921   1.954   4.236  13.435
  801TMC3    C511922   2.035   4.150  13.364
  801TMC3    C611923   2.155   4.190  13.310
  801TMC3     C11924   1.894   4.448  13.522
  801TMC3     O11925   1.779   4.408  13.531
  801TMC3     H11926   2.146   4.509  13.424
  801TMC3    H111927   1.877   4.188  13.494
  801TMC3    H211928   2.198   4.136  13.226
  801TMC3    C711929   1.998   4.007  13.349
  801TMC3    C811930   2.310   4.382  13.279
  801TMC3    O111931   2.093   3.936  13.315
  801TMC3    O211932   2.320   4.501  13.280
  802TMC3    C111933   3.844   2.630  10.791
  802TMC3    C211934   3.975   2.612  10.757
  802TMC3    C311935   4.005   2.522  10.655
  802TMC3    C411936   3.742   2.553  10.736
  802TMC3    C511937   3.773   2.469  10.631
  802TMC3    C611938   3.903   2.459  10.589
  802TMC3     C11939   3.822   2.690  10.923
  802TMC3     O11940   3.912   2.664  11.004
  802TMC3     H11941   4.054   2.668  10.806
  802TMC3    H111942   3.639   2.563  10.767
  802TMC3    H211943   3.931   2.386  10.514
  802TMC3    C711944   3.667   2.428  10.537
  802TMC3    C811945   4.142   2.468  10.636
  802TMC3    O111946   3.657   2.315  10.491
  802TMC3    O211947   4.158   2.345  10.629
  803TMC3    C111948   0.358   0.872  12.830
  803TMC3    C211949   0.436   0.804  12.910
  803TMC3    C311950   0.481   0.682  12.868
  803TMC3    C411951   0.306   0.817  12.713
  803TMC3    C511952   0.324   0.684  12.699
  803TMC3    C611953   0.413   0.610  12.773
  803TMC3     C11954   0.296   0.994  12.885
  803TMC3     O11955   0.347   1.042  12.986
  803TMC3     H11956   0.476   0.864  12.990
  803TMC3    H111957   0.235   0.876  12.656
  803TMC3    H211958   0.431   0.507  12.747
  803TMC3    C711959   0.220   0.602  12.647
  803TMC3    C811960   0.557   0.619  12.969
  803TMC3    O111961   0.196   0.499  12.712
  803TMC3    O211962   0.516   0.637  13.083
  804TMC3    C111963   2.113   0.910   7.052
  804TMC3    C211964   2.056   0.867   6.936
  804TMC3    C311965   2.126   0.873   6.824
  804TMC3    C411966   2.238   0.961   7.048
  804TMC3    C511967   2.309   0.959   6.932
  804TMC3    C611968   2.254   0.924   6.813
  804TMC3     C11969   2.027   0.974   7.155
  804TMC3     O11970   1.931   1.042   7.117
  804TMC3     H11971   1.953   0.834   6.945
  804TMC3    H111972   2.294   0.987   7.137
  804TMC3    H211973   2.314   0.916   6.724
  804TMC3    C711974   2.440   1.026   6.928
  804TMC3    C811975   2.058   0.808   6.714
  804TMC3    O111976   2.506   1.002   6.827
  804TMC3    O211977   1.951   0.759   6.739
  805TMC3    C111978   0.352   2.210  11.154
  805TMC3    C211979   0.258   2.116  11.174
  805TMC3    C311980   0.287   2.023  11.270
  805TMC3    C411981   0.471   2.199  11.214
  805TMC3    C511982   0.500   2.102  11.297
  805TMC3    C611983   0.414   1.997  11.314
  805TMC3     C11984   0.311   2.329  11.095
  805TMC3     O11985   0.204   2.321  11.035
  805TMC3     H11986   0.159   2.113  11.130
  805TMC3    H111987   0.553   2.260  11.177
  805TMC3    H211988   0.423   1.909  11.377
  805TMC3    C711989   0.640   2.088  11.335
  805TMC3    C811990   0.191   1.912  11.276
  805TMC3    O111991   0.705   2.191  11.328
  805TMC3    O211992   0.212   1.833  11.181
  806TMC3    C111993   2.164   0.173  14.914
  806TMC3    C211994   2.178   0.306  14.866
  806TMC3    C311995   2.060   0.380  14.851
  806TMC3    C411996   2.041   0.125  14.944
  806TMC3    C511997   1.931   0.204  14.920
  806TMC3    C611998   1.935   0.331  14.869
  806TMC3     C11999   2.279   0.088  14.950
  806TMC3     O12000   2.246   4.772  15.004
  806TMC3     H12001   2.277   0.351  14.869
  806TMC3    H112002   2.026   0.025  14.982
  806TMC3    H212003   1.841   0.381  14.844
  806TMC3    C712004   1.796   0.156  14.932
  806TMC3    C812005   2.088   0.515  14.806
  806TMC3    O112006   1.701   0.230  14.942
  806TMC3    O212007   2.201   0.544  14.762
  807TMC3    C112008   0.578   3.247  14.439
  807TMC3    C212009   0.618   3.236  14.566
  807TMC3    C312010   0.703   3.127  14.590
  807TMC3    C412011   0.623   3.166  14.341
  807TMC3    C512012   0.691   3.052  14.369
  807TMC3    C612013   0.735   3.031  14.497
  807TMC3     C12014   0.566   3.388  14.397
  807TMC3     O12015   0.608   3.415  14.283
  807TMC3     H12016   0.606   3.312  14.642
  807TMC3    H112017   0.593   3.194  14.240
  807TMC3    H212018   0.782   2.936  14.521
  807TMC3    C712019   0.724   2.975  14.251
  807TMC3    C812020   0.764   3.124  14.725
  807TMC3    O112021   0.738   3.041  14.148
  807TMC3    O212022   0.694   3.179  14.806
  808TMC3    C112023   4.286   1.135   9.908
  808TMC3    C212024   4.162   1.096   9.955
  808TMC3    C312025   4.115   1.127  10.082
  808TMC3    C412026   4.374   1.206   9.995
  808TMC3    C512027   4.324   1.228  10.118
  808TMC3    C612028   4.198   1.194  10.168
  808TMC3     C12029   4.310   1.112   9.764
  808TMC3     O12030   4.212   1.067   9.706
  808TMC3     H12031   4.102   1.051   9.878
  808TMC3    H112032   4.471   1.244   9.968
  808TMC3    H212033   4.157   1.214  10.266
  808TMC3    C712034   4.398   1.304  10.211
  808TMC3    C812035   3.986   1.076  10.128
  808TMC3    O112036   4.336   1.370  10.290
  808TMC3    O212037   3.935   1.154  10.208
  809TMC3    C112038   0.695   3.034  11.118
  809TMC3    C212039   0.634   3.153  11.163
  809TMC3    C312040   0.715   3.250  11.225
  809TMC3    C412041   0.834   3.022  11.125
  809TMC3    C512042   0.905   3.127  11.182
  809TMC3    C612043   0.852   3.241  11.232
  809TMC3     C12044   0.625   2.904  11.130
  809TMC3     O12045   0.694   2.808  11.160
  809TMC3     H12046   0.531   3.185  11.147
  809TMC3    H112047   0.881   2.926  11.109
  809TMC3    H212048   0.914   3.319  11.274
  809TMC3    C712049   1.016   3.156  11.099
  809TMC3    C812050   0.669   3.368  11.290
  809TMC3    O112051   1.010   3.122  10.982
  809TMC3    O212052   0.757   3.452  11.307
  810TMC3    C112053   2.384   3.866  15.023
  810TMC3    C212054   2.434   3.792  14.916
  810TMC3    C312055   2.353   3.785  14.807
  810TMC3    C412056   2.257   3.918  15.029
  810TMC3    C512057   2.173   3.874  14.931
  810TMC3    C612058   2.225   3.821  14.816
  810TMC3     C12059   2.479   3.936  15.105
  810TMC3     O12060   2.594   3.933  15.067
  810TMC3     H12061   2.535   3.752  14.920
  810TMC3    H112062   2.218   3.969  15.115
  810TMC3    H212063   2.151   3.801  14.740
  810TMC3    C712064   2.032   3.891  14.952
  810TMC3    C812065   2.408   3.734  14.682
  810TMC3    O112066   1.963   3.829  14.870
  810TMC3    O212067   2.488   3.641  14.687
  811TMC3    C112068   1.662   1.663  13.143
  811TMC3    C212069   1.770   1.587  13.163
  811TMC3    C312070   1.767   1.448  13.156
  811TMC3    C412071   1.546   1.601  13.106
  811TMC3    C512072   1.539   1.467  13.119
  811TMC3    C612073   1.646   1.387  13.150
  811TMC3     C12074   1.677   1.800  13.095
  811TMC3     O12075   1.605   1.842  13.006
  811TMC3     H12076   1.866   1.637  13.174
  811TMC3    H112077   1.460   1.661  13.081
  811TMC3    H212078   1.646   1.281  13.131
  811TMC3    C712079   1.410   1.403  13.126
  811TMC3    C812080   1.871   1.353  13.202
  811TMC3    O112081   1.309   1.462  13.086
  811TMC3    O212082   1.834   1.256  13.265
  812TMC3    C112083   3.150   0.666   8.115
  812TMC3    C212084   3.228   0.556   8.089
  812TMC3    C312085   3.187   0.457   8.003
  812TMC3    C412086   3.022   0.670   8.071
  812TMC3    C512087   2.985   0.565   7.993
  812TMC3    C612088   3.064   0.461   7.954
  812TMC3     C12089   3.196   0.776   8.203
  812TMC3     O12090   3.131   0.877   8.195
  812TMC3     H12091   3.327   0.543   8.133
  812TMC3    H112092   2.963   0.761   8.082
  812TMC3    H212093   3.033   0.381   7.887
  812TMC3    C712094   2.853   0.566   7.926
  812TMC3    C812095   3.271   0.355   7.967
  812TMC3    O112096   2.828   0.480   7.843
  812TMC3    O212097   3.222   0.241   7.949
  813TMC3    C112098   2.409   4.760   8.525
  813TMC3    C212099   2.462   0.023   8.407
  813TMC3    C312100   2.511   0.150   8.401
  813TMC3    C412101   2.385   0.055   8.629
  813TMC3    C512102   2.422   0.182   8.615
  813TMC3    C612103   2.489   0.235   8.508
  813TMC3     C12104   2.397   4.613   8.538
  813TMC3     O12105   2.419   4.553   8.435
  813TMC3     H12106   2.489   4.746   8.328
  813TMC3    H112107   2.343   0.019   8.722
  813TMC3    H212108   2.511   0.340   8.497
  813TMC3    C712109   2.358   0.281   8.703
  813TMC3    C812110   2.533   0.210   8.268
  813TMC3    O112111   2.397   0.394   8.687
  813TMC3    O212112   2.627   0.285   8.247
  814TMC3    C112113   1.203   1.856   9.613
  814TMC3    C212114   1.157   1.753   9.540
  814TMC3    C312115   1.063   1.780   9.446
  814TMC3    C412116   1.185   1.984   9.566
  814TMC3    C512117   1.112   2.014   9.453
  814TMC3    C612118   1.051   1.907   9.399
  814TMC3     C12119   1.336   1.840   9.659
  814TMC3     O12120   1.410   1.918   9.607
  814TMC3     H12121   1.189   1.650   9.554
  814TMC3    H112122   1.248   2.061   9.607
  814TMC3    H212123   0.992   1.938   9.314
  814TMC3    C712124   1.194   2.088   9.357
  814TMC3    C812125   1.063   1.689   9.333
  814TMC3    O112126   1.234   2.197   9.389
  814TMC3    O212127   1.083   1.740   9.221
  815TMC3    C112128   0.861   3.069  12.856
  815TMC3    C212129   0.721   3.064  12.857
  815TMC3    C312130   0.662   3.088  12.980
  815TMC3    C412131   0.932   3.075  12.974
  815TMC3    C512132   0.866   3.093  13.090
  815TMC3    C612133   0.733   3.121  13.094
  815TMC3     C12134   0.935   3.013  12.739
  815TMC3     O12135   1.054   2.989  12.748
  815TMC3     H12136   0.659   3.040  12.770
  815TMC3    H112137   1.038   3.089  12.957
  815TMC3    H212138   0.693   3.149  13.191
  815TMC3    C712139   0.951   3.106  13.204
  815TMC3    C812140   0.564   2.984  12.996
  815TMC3    O112141   0.916   3.196  13.277
  815TMC3    O212142   0.556   2.906  12.903
  816TMC3    C112143   0.522   2.313  13.064
  816TMC3    C212144   0.601   2.257  12.971
  816TMC3    C312145   0.615   2.121  12.966
  816TMC3    C412146   0.464   2.233  13.163
  816TMC3    C512147   0.492   2.099  13.157
  816TMC3    C612148   0.557   2.036  13.057
  816TMC3     C12149   0.504   2.458  13.050
  816TMC3     O12150   0.548   2.532  12.963
  816TMC3     H12151   0.649   2.322  12.899
  816TMC3    H112152   0.402   2.273  13.242
  816TMC3    H212153   0.557   1.929  13.046
  816TMC3    C712154   0.421   2.006  13.243
  816TMC3    C812155   0.652   2.047  12.843
  816TMC3    O112156   0.330   2.052  13.310
  816TMC3    O212157   0.648   1.927  12.851
  817TMC3    C112158   1.531   2.398  12.861
  817TMC3    C212159   1.478   2.299  12.941
  817TMC3    C312160   1.406   2.201  12.878
  817TMC3    C412161   1.497   2.416  12.725
  817TMC3    C512162   1.411   2.328  12.679
  817TMC3    C612163   1.366   2.216  12.748
  817TMC3     C12164   1.622   2.496  12.917
  817TMC3     O12165   1.652   2.593  12.846
  817TMC3     H12166   1.508   2.284  13.045
  817TMC3    H112167   1.537   2.491  12.658
  817TMC3    H212168   1.315   2.139  12.690
  817TMC3    C712169   1.389   2.326  12.534
  817TMC3    C812170   1.347   2.100  12.965
  817TMC3    O112171   1.478   2.382  12.470
  817TMC3    O212172   1.321   2.134  13.078
  818TMC3    C112173   1.720   3.462   9.309
  818TMC3    C212174   1.655   3.410   9.415
  818TMC3    C312175   1.526   3.463   9.436
  818TMC3    C412176   1.666   3.559   9.230
  818TMC3    C512177   1.536   3.592   9.245
  818TMC3    C612178   1.457   3.546   9.349
  818TMC3     C12179   1.863   3.472   9.331
  818TMC3     O12180   1.905   3.415   9.433
  818TMC3     H12181   1.694   3.328   9.475
  818TMC3    H112182   1.717   3.598   9.142
  818TMC3    H212183   1.358   3.586   9.366
  818TMC3    C712184   1.468   3.644   9.126
  818TMC3    C812185   1.448   3.427   9.555
  818TMC3    O112186   1.531   3.643   9.022
  818TMC3    O212187   1.357   3.503   9.585
  819TMC3    C112188   0.321   1.045   9.273
  819TMC3    C212189   0.276   1.115   9.380
  819TMC3    C312190   0.372   1.193   9.439
  819TMC3    C412191   0.448   1.051   9.227
  819TMC3    C512192   0.534   1.144   9.275
  819TMC3    C612193   0.495   1.211   9.387
  819TMC3     C12194   0.226   1.015   9.176
  819TMC3     O12195   0.109   0.994   9.213
  819TMC3     H12196   0.171   1.102   9.401
  819TMC3    H112197   0.487   0.990   9.147
  819TMC3    H212198   0.554   1.289   9.435
  819TMC3    C712199   0.562   1.235   9.162
  819TMC3    C812200   0.323   1.312   9.502
  819TMC3    O112201   0.503   1.201   9.056
  819TMC3    O212202   0.387   1.412   9.486
  820TMC3    C112203   2.891   4.024   9.883
  820TMC3    C212204   2.979   3.955   9.796
  820TMC3    C312205   3.112   3.946   9.830
  820TMC3    C412206   2.936   4.078  10.000
  820TMC3    C512207   3.066   4.063  10.027
  820TMC3    C612208   3.159   4.003   9.945
  820TMC3     C12209   2.753   4.060   9.833
  820TMC3     O12210   2.722   4.024   9.717
  820TMC3     H12211   2.953   3.888   9.715
  820TMC3    H112212   2.869   4.102  10.082
  820TMC3    H212213   3.261   3.990   9.977
  820TMC3    C712214   3.106   4.079  10.163
  820TMC3    C812215   3.187   3.840   9.789
  820TMC3    O112216   3.185   3.996  10.207
  820TMC3    O212217   3.140   3.727   9.807
  821TMC3    C112218   4.467   1.006  10.541
  821TMC3    C212219   4.372   1.001  10.441
  821TMC3    C312220   4.390   0.910  10.340
  821TMC3    C412221   4.574   0.915  10.553
  821TMC3    C512222   4.592   0.833  10.454
  821TMC3    C612223   4.507   0.835  10.343
  821TMC3     C12224   4.436   1.108  10.648
  821TMC3     O12225   4.331   1.168  10.662
  821TMC3     H12226   4.289   1.071  10.450
  821TMC3    H112227   4.642   0.904  10.637
  821TMC3    H212228   4.535   0.764  10.266
  821TMC3    C712229   4.721   0.845  10.410
  821TMC3    C812230   4.263   0.865  10.287
  821TMC3    O112231   4.749   0.939  10.332
  821TMC3    O212232   4.173   0.879  10.367
  822TMC3    C112233   1.144   0.293   8.033
  822TMC3    C212234   1.154   0.386   7.934
  822TMC3    C312235   1.194   0.346   7.805
  822TMC3    C412236   1.159   0.157   8.009
  822TMC3    C512237   1.190   0.121   7.886
  822TMC3    C612238   1.201   0.210   7.779
  822TMC3     C12239   1.179   0.344   8.163
  822TMC3     O12240   1.133   0.450   8.196
  822TMC3     H12241   1.163   0.487   7.972
  822TMC3    H112242   1.159   0.081   8.086
  822TMC3    H212243   1.233   0.184   7.678
  822TMC3    C712244   1.265   0.001   7.877
  822TMC3    C812245   1.292   0.425   7.744
  822TMC3    O112246   1.202   4.691   7.896
  822TMC3    O212247   1.361   0.362   7.661
  823TMC3    C112248   0.442   4.490  11.429
  823TMC3    C212249   0.528   4.570  11.505
  823TMC3    C312250   0.597   4.516  11.613
  823TMC3    C412251   0.440   4.356  11.467
  823TMC3    C512252   0.516   4.302  11.565
  823TMC3    C612253   0.596   4.382  11.647
  823TMC3     C12254   0.476   4.505  11.281
  823TMC3     O12255   0.592   4.470  11.253
  823TMC3     H12256   0.553   4.667  11.463
  823TMC3    H112257   0.386   4.292  11.398
  823TMC3    H212258   0.652   4.344  11.732
  823TMC3    C712259   0.542   4.159  11.561
  823TMC3    C812260   0.704   4.599  11.661
  823TMC3    O112261   0.467   4.091  11.491
  823TMC3    O212262   0.721   4.712  11.609
  824TMC3    C112263   4.095   0.776   7.622
  824TMC3    C212264   4.159   0.705   7.523
  824TMC3    C312265   4.105   0.584   7.497
  824TMC3    C412266   3.993   0.719   7.692
  824TMC3    C512267   3.950   0.586   7.674
  824TMC3    C612268   4.012   0.518   7.578
  824TMC3     C12269   4.142   0.917   7.645
  824TMC3     O12270   4.245   0.947   7.581
  824TMC3     H12271   4.233   0.747   7.456
  824TMC3    H112272   3.925   0.785   7.746
  824TMC3    H212273   3.994   0.416   7.547
  824TMC3    C712274   3.842   0.537   7.757
  824TMC3    C812275   4.165   0.496   7.406
  824TMC3    O112276   3.787   0.611   7.837
  824TMC3    O212277   4.283   0.490   7.430
  825TMC3    C112278   1.788   4.381   7.327
  825TMC3    C212279   1.749   4.392   7.194
  825TMC3    C312280   1.610   4.378   7.174
  825TMC3    C412281   1.699   4.345   7.431
  825TMC3    C512282   1.577   4.307   7.398
  825TMC3    C612283   1.528   4.329   7.273
  825TMC3     C12284   1.928   4.336   7.341
  825TMC3     O12285   1.974   4.268   7.247
  825TMC3     H12286   1.807   4.443   7.119
  825TMC3    H112287   1.732   4.331   7.534
  825TMC3    H212288   1.422   4.315   7.258
  825TMC3    C712289   1.518   4.201   7.479
  825TMC3    C812290   1.578   4.382   7.031
  825TMC3    O112291   1.594   4.128   7.538
  825TMC3    O212292   1.630   4.474   6.969
  826TMC3    C112293   1.620   4.292   8.041
  826TMC3    C212294   1.710   4.294   8.142
  826TMC3    C312295   1.690   4.188   8.230
  826TMC3    C412296   1.517   4.205   8.022
  826TMC3    C512297   1.504   4.107   8.117
  826TMC3    C612298   1.589   4.095   8.219
  826TMC3     C12299   1.636   4.395   7.940
  826TMC3     O12300   1.739   4.457   7.941
  826TMC3     H12301   1.785   4.371   8.149
  826TMC3    H112302   1.463   4.204   7.928
  826TMC3    H212303   1.591   4.011   8.288
  826TMC3    C712304   1.376   4.034   8.121
  826TMC3    C812305   1.796   4.161   8.320
  826TMC3    O112306   1.277   4.099   8.100
  826TMC3    O212307   1.774   4.106   8.427
  827TMC3    C112308   4.146   3.951   7.715
  827TMC3    C212309   4.205   3.853   7.793
  827TMC3    C312310   4.194   3.870   7.927
  827TMC3    C412311   4.071   4.047   7.772
  827TMC3    C512312   4.067   4.062   7.909
  827TMC3    C612313   4.129   3.973   7.985
  827TMC3     C12314   4.244   4.011   7.625
  827TMC3     O12315   4.218   4.121   7.575
  827TMC3     H12316   4.258   3.771   7.747
  827TMC3    H112317   4.040   4.132   7.712
  827TMC3    H212318   4.112   3.979   8.092
  827TMC3    C712319   4.045   4.196   7.955
  827TMC3    C812320   4.233   3.760   8.007
  827TMC3    O112321   3.964   4.268   7.899
  827TMC3    O212322   4.267   3.655   7.954
  828TMC3    C112323   0.612   0.159  12.869
  828TMC3    C212324   0.654   0.202  12.747
  828TMC3    C312325   0.566   0.222  12.647
  828TMC3    C412326   0.481   0.140  12.893
  828TMC3    C512327   0.401   0.150  12.784
  828TMC3    C612328   0.442   0.185  12.664
  828TMC3     C12329   0.714   0.092  12.946
  828TMC3     O12330   0.688   0.063  13.065
  828TMC3     H12331   0.757   0.234  12.739
  828TMC3    H112332   0.442   0.114  12.991
  828TMC3    H212333   0.363   0.228  12.604
  828TMC3    C712334   0.323   0.026  12.781
  828TMC3    C812335   0.625   0.170  12.528
  828TMC3    O112336   0.281   4.758  12.879
  828TMC3    O212337   0.703   0.080  12.555
  829TMC3    C112338   3.118   1.724  12.055
  829TMC3    C212339   3.019   1.747  11.966
  829TMC3    C312340   2.970   1.641  11.891
  829TMC3    C412341   3.161   1.593  12.059
  829TMC3    C512342   3.125   1.484  11.982
  829TMC3    C612343   3.029   1.512  11.885
  829TMC3     C12344   3.236   1.804  12.027
  829TMC3     O12345   3.273   1.888  12.105
  829TMC3     H12346   2.979   1.847  11.965
  829TMC3    H112347   3.252   1.584  12.118
  829TMC3    H212348   2.994   1.434  11.819
  829TMC3    C712349   3.174   1.346  12.014
  829TMC3    C812350   2.878   1.684  11.787
  829TMC3    O112351   3.260   1.338  12.105
  829TMC3    O212352   2.894   1.796  11.745
  830TMC3    C112353   0.167   2.804   6.368
  830TMC3    C212354   0.117   2.719   6.462
  830TMC3    C312355   0.033   2.619   6.412
  830TMC3    C412356   0.139   2.798   6.232
  830TMC3    C512357   0.049   2.697   6.193
  830TMC3    C612358   4.782   2.612   6.285
  830TMC3     C12359   0.230   2.924   6.415
  830TMC3     O12360   0.227   3.019   6.338
  830TMC3     H12361   0.155   2.724   6.563
  830TMC3    H112362   0.165   2.881   6.167
  830TMC3    H212363   4.699   2.547   6.257
  830TMC3    C712364   0.023   2.691   6.052
  830TMC3    C812365   4.754   2.537   6.512
  830TMC3    O112366   0.094   2.759   5.984
  830TMC3    O212367   4.780   2.551   6.631
  831TMC3    C112368   0.480   3.882  10.707
  831TMC3    C212369   0.524   3.984  10.635
  831TMC3    C312370   0.657   3.973  10.590
  831TMC3    C412371   0.553   3.773  10.731
  831TMC3    C512372   0.688   3.771  10.705
  831TMC3    C612373   0.736   3.865  10.619
  831TMC3     C12374   0.356   3.891  10.782
  831TMC3     O12375   0.292   3.791  10.813
  831TMC3     H12376   0.467   4.066  10.593
  831TMC3    H112377   0.497   3.695  10.781
  831TMC3    H212378   0.839   3.869  10.586
  831TMC3    C712379   0.774   3.768  10.824
  831TMC3    C812380   0.707   4.062  10.492
  831TMC3    O112381   0.890   3.801  10.823
  831TMC3    O212382   0.804   4.021  10.426
  832TMC3    C112383   2.643   0.807  12.177
  832TMC3    C212384   2.723   0.789  12.284
  832TMC3    C312385   2.825   0.872  12.305
  832TMC3    C412386   2.646   0.927  12.108
  832TMC3    C512387   2.746   1.017  12.132
  832TMC3    C612388   2.846   0.986  12.228
  832TMC3     C12389   2.561   0.702  12.111
  832TMC3     O12390   2.463   0.736  12.049
  832TMC3     H12391   2.719   0.703  12.350
  832TMC3    H112392   2.590   0.928  12.015
  832TMC3    H212393   2.937   1.044  12.230
  832TMC3    C712394   2.778   1.070  12.005
  832TMC3    C812395   2.929   0.830  12.404
  832TMC3    O112396   2.786   0.984  11.919
  832TMC3    O212397   2.934   0.707  12.420
  833TMC3    C112398   2.355   3.685  12.071
  833TMC3    C212399   2.271   3.785  12.034
  833TMC3    C312400   2.326   3.905  12.004
  833TMC3    C412401   2.494   3.702  12.080
  833TMC3    C512402   2.544   3.830  12.055
  833TMC3    C612403   2.464   3.926  12.003
  833TMC3     C12404   2.295   3.610  12.181
  833TMC3     O12405   2.331   3.495  12.204
  833TMC3     H12406   2.164   3.782  12.051
  833TMC3    H112407   2.561   3.628  12.122
  833TMC3    H212408   2.507   4.023  11.986
  833TMC3    C712409   2.682   3.842  12.008
  833TMC3    C812410   2.254   4.022  12.047
  833TMC3    O112411   2.706   3.780  11.910
  833TMC3    O212412   2.198   4.020  12.154
  834TMC3    C112413   4.148   0.774  14.257
  834TMC3    C212414   4.224   0.886  14.238
  834TMC3    C312415   4.351   0.871  14.190
  834TMC3    C412416   4.207   0.651  14.234
  834TMC3    C512417   4.338   0.636  14.192
  834TMC3    C612418   4.413   0.751  14.171
  834TMC3     C12419   4.010   0.777  14.205
  834TMC3     O12420   3.942   0.683  14.219
  834TMC3     H12421   4.187   0.987  14.252
  834TMC3    H112422   4.147   0.561  14.229
  834TMC3    H212423   4.515   0.738  14.137
  834TMC3    C712424   4.414   0.540  14.266
  834TMC3    C812425   4.381   0.986  14.105
  834TMC3    O112426   4.533   0.514  14.243
  834TMC3    O212427   4.291   1.063  14.077
  835TMC3    C112428   0.955   1.137  13.595
  835TMC3    C212429   0.833   1.199  13.596
  835TMC3    C312430   0.831   1.326  13.550
  835TMC3    C412431   1.073   1.196  13.562
  835TMC3    C512432   1.068   1.328  13.541
  835TMC3    C612433   0.950   1.392  13.522
  835TMC3     C12434   0.949   1.015  13.674
  835TMC3     O12435   1.051   0.982  13.736
  835TMC3     H12436   0.739   1.157  13.631
  835TMC3    H112437   1.161   1.134  13.577
  835TMC3    H212438   0.953   1.500  13.514
  835TMC3    C712439   1.190   1.409  13.504
  835TMC3    C812440   0.694   1.388  13.542
  835TMC3    O112441   1.172   1.524  13.464
  835TMC3    O212442   0.613   1.344  13.625
  836TMC3    C112443   4.299   2.467   7.231
  836TMC3    C212444   4.279   2.340   7.279
  836TMC3    C312445   4.253   2.242   7.187
  836TMC3    C412446   4.304   2.497   7.099
  836TMC3    C512447   4.293   2.390   7.015
  836TMC3    C612448   4.256   2.264   7.053
  836TMC3     C12449   4.359   2.561   7.330
  836TMC3     O12450   4.345   2.536   7.446
  836TMC3     H12451   4.309   2.306   7.378
  836TMC3    H112452   4.330   2.595   7.061
  836TMC3    H212453   4.205   2.200   6.982
  836TMC3    C712454   4.351   2.413   6.888
  836TMC3    C812455   4.190   2.122   7.240
  836TMC3    O112456   4.394   2.526   6.864
  836TMC3    O212457   4.156   2.128   7.356
  837TMC3    C112458   3.773   3.806   8.939
  837TMC3    C212459   3.878   3.724   8.887
  837TMC3    C312460   3.934   3.762   8.768
  837TMC3    C412461   3.719   3.916   8.877
  837TMC3    C512462   3.777   3.942   8.762
  837TMC3    C612463   3.878   3.869   8.710
  837TMC3     C12464   3.705   3.755   9.058
  837TMC3     O12465   3.760   3.666   9.113
  837TMC3     H12466   3.904   3.636   8.946
  837TMC3    H112467   3.647   3.984   8.922
  837TMC3    H212468   3.910   3.907   8.613
  837TMC3    C712469   3.729   4.052   8.684
  837TMC3    C812470   4.009   3.648   8.694
  837TMC3    O112471   3.802   4.128   8.633
  837TMC3    O212472   3.999   3.535   8.741
  838TMC3    C112473   1.135   3.798  14.834
  838TMC3    C212474   1.188   3.898  14.909
  838TMC3    C312475   1.294   3.860  14.989
  838TMC3    C412476   1.183   3.674  14.829
  838TMC3    C512477   1.282   3.644  14.915
  838TMC3    C612478   1.342   3.734  14.994
  838TMC3     C12479   1.053   3.844  14.720
  838TMC3     O12480   0.966   3.921  14.748
  838TMC3     H12481   1.154   4.001  14.909
  838TMC3    H112482   1.138   3.596  14.769
  838TMC3    H212483   1.427   3.708  15.056
  838TMC3    C712484   1.297   3.515  14.964
  838TMC3    C812485   1.379   3.969  15.023
  838TMC3    O112486   1.304   3.508  15.086
  838TMC3    O212487   1.331   4.085  15.025
  839TMC3    C112488   2.107   3.089   9.300
  839TMC3    C212489   2.176   3.012   9.209
  839TMC3    C312490   2.187   2.879   9.238
  839TMC3    C412491   2.046   3.031   9.404
  839TMC3    C512492   2.053   2.898   9.423
  839TMC3    C612493   2.135   2.820   9.349
  839TMC3     C12494   2.021   3.178   9.235
  839TMC3     O12495   2.078   3.267   9.175
  839TMC3     H12496   2.211   3.058   9.117
  839TMC3    H112497   1.975   3.088   9.464
  839TMC3    H212498   2.144   2.712   9.360
  839TMC3    C712499   1.929   2.830   9.468
  839TMC3    C812500   2.145   2.793   9.130
  839TMC3    O112501   1.867   2.890   9.557
  839TMC3    O212502   2.082   2.691   9.159
  840TMC3    C112503   3.949   2.339  11.649
  840TMC3    C212504   4.026   2.350  11.759
  840TMC3    C312505   3.993   2.254  11.856
  840TMC3    C412506   3.874   2.227  11.625
  840TMC3    C512507   3.842   2.137  11.723
  840TMC3    C612508   3.893   2.162  11.851
  840TMC3     C12509   3.848   2.443  11.623
  840TMC3     O12510   3.783   2.481  11.718
  840TMC3     H12511   4.094   2.429  11.787
  840TMC3    H112512   3.813   2.211  11.538
  840TMC3    H212513   3.883   2.091  11.932
  840TMC3    C712514   3.700   2.102  11.722
  840TMC3    C812515   4.052   2.257  11.991
  840TMC3    O112516   3.653   2.025  11.641
  840TMC3    O212517   3.984   2.256  12.093
  841TMC3    C112518   3.778   4.785  13.108
  841TMC3    C212519   3.723   0.066  13.207
  841TMC3    C312520   3.667   0.186  13.169
  841TMC3    C412521   3.766   0.026  12.976
  841TMC3    C512522   3.695   0.137  12.943
  841TMC3    C612523   3.647   0.218  13.042
  841TMC3     C12524   3.786   4.650  13.144
  841TMC3     O12525   3.778   4.611  13.260
  841TMC3     H12526   3.757   0.057  13.309
  841TMC3    H112527   3.811   4.761  12.895
  841TMC3    H212528   3.603   0.316  13.025
  841TMC3    C712529   3.738   0.192  12.813
  841TMC3    C812530   3.717   0.304  13.236
  841TMC3    O112531   3.776   0.116  12.724
  841TMC3    O212532   3.766   0.384  13.158
  842TMC3    C112533   2.855   2.900  13.595
  842TMC3    C212534   2.731   2.846  13.583
  842TMC3    C312535   2.680   2.838  13.457
  842TMC3    C412536   2.926   2.941  13.486
  842TMC3    C512537   2.875   2.924  13.360
  842TMC3    C612538   2.748   2.880  13.348
  842TMC3     C12539   2.901   2.955  13.719
  842TMC3     O12540   2.988   3.043  13.716
  842TMC3     H12541   2.679   2.800  13.666
  842TMC3    H112542   3.024   2.985  13.500
  842TMC3    H212543   2.711   2.866  13.247
  842TMC3    C712544   2.963   2.859  13.270
  842TMC3    C812545   2.577   2.731  13.439
  842TMC3    O112546   2.915   2.771  13.197
  842TMC3    O212547   2.565   2.639  13.521
  843TMC3    C112548   0.335   1.681  12.417
  843TMC3    C212549   0.327   1.819  12.397
  843TMC3    C312550   0.365   1.888  12.506
  843TMC3    C412551   0.399   1.626  12.525
  843TMC3    C512552   0.435   1.705  12.627
  843TMC3    C612553   0.410   1.840  12.626
  843TMC3     C12554   0.265   1.584  12.335
  843TMC3     O12555   0.327   1.492  12.282
  843TMC3     H12556   0.269   1.862  12.316
  843TMC3    H112557   0.405   1.519  12.539
  843TMC3    H212558   0.441   1.898  12.712
  843TMC3    C712559   0.434   1.636  12.749
  843TMC3    C812560   0.330   2.029  12.499
  843TMC3    O112561   0.508   1.538  12.765
  843TMC3    O212562   0.303   2.072  12.385
  844TMC3    C112563   2.868   0.250   7.013
  844TMC3    C212564   2.807   0.132   6.991
  844TMC3    C312565   2.867   0.015   7.029
  844TMC3    C412566   2.975   0.257   7.096
  844TMC3    C512567   3.035   0.140   7.141
  844TMC3    C612568   2.979   0.015   7.111
  844TMC3     C12569   2.772   0.367   7.013
  844TMC3     O12570   2.692   0.381   6.920
  844TMC3     H12571   2.723   0.128   6.922
  844TMC3    H112572   3.026   0.348   7.127
  844TMC3    H212573   3.021   4.708   7.132
  844TMC3    C712574   3.125   0.147   7.258
  844TMC3    C812575   2.799   4.680   6.999
  844TMC3    O112576   3.199   0.054   7.271
  844TMC3    O212577   2.681   4.678   7.022
  845TMC3    C112578   1.691   1.532  14.416
  845TMC3    C212579   1.796   1.593  14.479
  845TMC3    C312580   1.918   1.530  14.484
  845TMC3    C412581   1.709   1.413  14.350
  845TMC3    C512582   1.837   1.352  14.355
  845TMC3    C612583   1.941   1.408  14.426
  845TMC3     C12584   1.556   1.540  14.470
  845TMC3     O12585   1.472   1.502  14.391
  845TMC3     H12586   1.779   1.685  14.535
  845TMC3    H112587   1.630   1.362  14.296
  845TMC3    H212588   2.026   1.347  14.453
  845TMC3    C712589   1.825   1.205  14.351
  845TMC3    C812590   1.993   1.569  14.603
  845TMC3    O112591   1.716   1.149  14.361
  845TMC3    O212592   1.923   1.598  14.701
  846TMC3    C112593   2.081   0.207  12.333
  846TMC3    C212594   2.148   0.251  12.221
  846TMC3    C312595   2.164   0.385  12.193
  846TMC3    C412596   2.026   0.305  12.419
  846TMC3    C512597   2.041   0.439  12.394
  846TMC3    C612598   2.120   0.479  12.286
  846TMC3     C12599   2.001   0.091  12.305
  846TMC3     O12600   2.043   0.013  12.220
  846TMC3     H12601   2.202   0.186  12.153
  846TMC3    H112602   1.969   0.278  12.507
  846TMC3    H212603   2.130   0.583  12.258
  846TMC3    C712604   1.915   0.499  12.404
  846TMC3    C812605   2.281   0.423  12.112
  846TMC3    O112606   1.824   0.416  12.426
  846TMC3    O212607   2.386   0.368  12.144
  847TMC3    C112608   2.691   3.036   8.420
  847TMC3    C212609   2.600   3.142   8.417
  847TMC3    C312610   2.639   3.263   8.365
  847TMC3    C412611   2.818   3.044   8.364
  847TMC3    C512612   2.850   3.171   8.316
  847TMC3    C612613   2.765   3.275   8.321
  847TMC3     C12614   2.669   2.931   8.519
  847TMC3     O12615   2.579   2.952   8.600
  847TMC3     H12616   2.505   3.135   8.470
  847TMC3    H112617   2.899   2.974   8.380
  847TMC3    H212618   2.788   3.371   8.276
  847TMC3    C712619   2.985   3.207   8.303
  847TMC3    C812620   2.611   3.357   8.463
  847TMC3    O112621   3.004   3.284   8.213
  847TMC3    O212622   2.492   3.373   8.487
  848TMC3    C112623   1.065   1.586  10.674
  848TMC3    C212624   1.085   1.703  10.607
  848TMC3    C312625   1.062   1.818  10.679
  848TMC3    C412626   1.034   1.579  10.809
  848TMC3    C512627   1.013   1.699  10.873
  848TMC3    C612628   1.019   1.819  10.810
  848TMC3     C12629   1.037   1.472  10.597
  848TMC3     O12630   1.115   1.433  10.511
  848TMC3     H12631   1.093   1.704  10.499
  848TMC3    H112632   1.062   1.493  10.869
  848TMC3    H212633   0.998   1.908  10.869
  848TMC3    C712634   0.974   1.697  11.013
  848TMC3    C812635   1.036   1.949  10.613
  848TMC3    O112636   0.914   1.601  11.058
  848TMC3    O212637   0.919   1.978  10.597
  849TMC3    C112638   4.584   4.522  13.194
  849TMC3    C212639   4.547   4.515  13.324
  849TMC3    C312640   4.517   4.636  13.389
  849TMC3    C412641   4.597   4.646  13.134
  849TMC3    C512642   4.568   4.760  13.197
  849TMC3    C612643   4.532   4.761  13.328
  849TMC3     C12644   4.631   4.394  13.129
  849TMC3     O12645   4.647   4.297  13.206
  849TMC3     H12646   4.531   4.422  13.378
  849TMC3    H112647   4.612   4.653  13.027
  849TMC3    H212648   4.514   0.064  13.380
  849TMC3    C712649   4.529   0.080  13.115
  849TMC3    C812650   4.420   4.629  13.494
  849TMC3    O112651   4.571   0.090  13.001
  849TMC3    O212652   4.310   4.659  13.457
  850TMC3    C112653   2.929   0.764  11.368
  850TMC3    C212654   2.879   0.893  11.368
  850TMC3    C312655   2.760   0.909  11.308
  850TMC3    C412656   2.864   0.656  11.317
  850TMC3    C512657   2.733   0.679  11.270
  850TMC3    C612658   2.680   0.803  11.269
  850TMC3     C12659   3.071   0.759  11.355
  850TMC3     O12660   3.139   0.685  11.424
  850TMC3     H12661   2.931   0.980  11.405
  850TMC3    H112662   2.918   0.563  11.303
  850TMC3    H212663   2.579   0.819  11.232
  850TMC3    C712664   2.653   0.567  11.229
  850TMC3    C812665   2.697   1.041  11.286
  850TMC3    O112666   2.596   0.583  11.121
  850TMC3    O212667   2.589   1.040  11.225
  851TMC3    C112668   2.437   3.404  12.565
  851TMC3    C212669   2.373   3.300  12.623
  851TMC3    C312670   2.296   3.327  12.736
  851TMC3    C412671   2.412   3.533  12.611
  851TMC3    C512672   2.336   3.557  12.720
  851TMC3    C612673   2.273   3.452  12.785
  851TMC3     C12674   2.524   3.365  12.453
  851TMC3     O12675   2.502   3.255  12.403
  851TMC3     H12676   2.381   3.200  12.580
  851TMC3    H112677   2.462   3.621  12.570
  851TMC3    H212678   2.217   3.464  12.877
  851TMC3    C712679   2.295   3.695  12.740
  851TMC3    C812680   2.207   3.215  12.776
  851TMC3    O112681   2.351   3.784  12.671
  851TMC3    O212682   2.253   3.106  12.751
  852TMC3    C112683   4.369   1.368  13.505
  852TMC3    C212684   4.293   1.459  13.565
  852TMC3    C312685   4.209   1.527  13.484
  852TMC3    C412686   4.369   1.348  13.369
  852TMC3    C512687   4.265   1.404  13.298
  852TMC3    C612688   4.188   1.500  13.350
  852TMC3     C12689   4.491   1.325  13.574
  852TMC3     O12690   4.599   1.336  13.519
  852TMC3     H12691   4.325   1.489  13.664
  852TMC3    H112692   4.444   1.281  13.327
  852TMC3    H212693   4.112   1.558  13.299
  852TMC3    C712694   4.305   1.408  13.155
  852TMC3    C812695   4.126   1.638  13.524
  852TMC3    O112696   4.379   1.318  13.111
  852TMC3    O212697   4.030   1.608  13.589
  853TMC3    C112698   3.519   2.035   7.966
  853TMC3    C212699   3.533   2.027   8.106
  853TMC3    C312700   3.605   2.126   8.160
  853TMC3    C412701   3.604   2.109   7.891
  853TMC3    C512702   3.682   2.203   7.954
  853TMC3    C612703   3.689   2.214   8.089
  853TMC3     C12704   3.420   1.939   7.916
  853TMC3     O12705   3.347   1.879   7.995
  853TMC3     H12706   3.464   1.971   8.168
  853TMC3    H112707   3.581   2.115   7.785
  853TMC3    H212708   3.733   2.299   8.140
  853TMC3    C712709   3.709   2.322   7.876
  853TMC3    C812710   3.579   2.150   8.300
  853TMC3    O112711   3.811   2.384   7.905
  853TMC3    O212712   3.539   2.052   8.360
  854TMC3    C112713   3.515   0.573  12.360
  854TMC3    C212714   3.574   0.598  12.478
  854TMC3    C312715   3.548   0.721  12.538
  854TMC3    C412716   3.451   0.667  12.289
  854TMC3    C512717   3.413   0.781  12.349
  854TMC3    C612718   3.461   0.812  12.479
  854TMC3     C12719   3.524   0.439  12.306
  854TMC3     O12720   3.497   0.421  12.188
  854TMC3     H12721   3.622   0.532  12.549
  854TMC3    H112722   3.432   0.644  12.185
  854TMC3    H212723   3.439   0.904  12.531
  854TMC3    C712724   3.339   0.879  12.277
  854TMC3    C812725   3.569   0.729  12.683
  854TMC3    O112726   3.315   0.986  12.327
  854TMC3    O212727   3.540   0.624  12.743
  855TMC3    C112728   4.106   3.583  13.876
  855TMC3    C212729   4.104   3.573  14.017
  855TMC3    C312730   4.202   3.510  14.090
  855TMC3    C412731   4.214   3.536  13.800
  855TMC3    C512732   4.309   3.466  13.878
  855TMC3    C612733   4.310   3.453  14.016
  855TMC3     C12734   3.982   3.589  13.809
  855TMC3     O12735   3.893   3.521  13.861
  855TMC3     H12736   4.041   3.638  14.076
  855TMC3    H112737   4.201   3.513  13.695
  855TMC3    H212738   4.386   3.399  14.071
  855TMC3    C712739   4.443   3.455  13.819
  855TMC3    C812740   4.203   3.509  14.235
  855TMC3    O112741   4.537   3.461  13.899
  855TMC3    O212742   4.307   3.475  14.290
  856TMC3    C112743   3.070   2.439   8.519
  856TMC3    C212744   3.085   2.501   8.643
  856TMC3    C312745   3.115   2.633   8.653
  856TMC3    C412746   3.088   2.511   8.404
  856TMC3    C512747   3.105   2.646   8.419
  856TMC3    C612748   3.132   2.706   8.541
  856TMC3     C12749   3.044   2.298   8.516
  856TMC3     O12750   3.078   2.234   8.414
  856TMC3     H12751   3.078   2.435   8.729
  856TMC3    H112752   3.072   2.482   8.301
  856TMC3    H212753   3.130   2.813   8.557
  856TMC3    C712754   3.127   2.721   8.302
  856TMC3    C812755   3.084   2.698   8.780
  856TMC3    O112756   3.048   2.710   8.211
  856TMC3    O212757   3.074   2.819   8.780
  857TMC3    C112758   0.854   1.020   6.772
  857TMC3    C212759   0.841   0.936   6.665
  857TMC3    C312760   0.946   0.870   6.602
  857TMC3    C412761   0.982   1.059   6.809
  857TMC3    C512762   1.091   0.987   6.752
  857TMC3    C612763   1.072   0.895   6.648
  857TMC3     C12764   0.759   1.125   6.786
  857TMC3     O12765   0.762   1.203   6.883
  857TMC3     H12766   0.744   0.910   6.624
  857TMC3    H112767   0.996   1.107   6.905
  857TMC3    H212768   1.147   0.837   6.595
  857TMC3    C712769   1.225   1.010   6.810
  857TMC3    C812770   0.920   0.774   6.495
  857TMC3    O112771   1.224   1.068   6.918
  857TMC3    O212772   0.973   0.662   6.498
  858TMC3    C112773   3.176   2.680   9.510
  858TMC3    C212774   3.171   2.573   9.596
  858TMC3    C312775   3.229   2.464   9.553
  858TMC3    C412776   3.224   2.684   9.382
  858TMC3    C512777   3.283   2.565   9.342
  858TMC3    C612778   3.281   2.455   9.424
  858TMC3     C12779   3.085   2.786   9.546
  858TMC3     O12780   3.007   2.751   9.632
  858TMC3     H12781   3.148   2.590   9.701
  858TMC3    H112782   3.219   2.773   9.321
  858TMC3    H212783   3.328   2.366   9.384
  858TMC3    C712784   3.366   2.562   9.224
  858TMC3    C812785   3.250   2.345   9.629
  858TMC3    O112786   3.446   2.471   9.205
  858TMC3    O212787   3.349   2.275   9.606
  859TMC3    C112788   2.978   2.611   7.270
  859TMC3    C212789   3.107   2.584   7.315
  859TMC3    C312790   3.191   2.692   7.313
  859TMC3    C412791   2.938   2.734   7.218
  859TMC3    C512792   3.029   2.836   7.216
  859TMC3    C612793   3.165   2.819   7.257
  859TMC3     C12794   2.884   2.503   7.259
  859TMC3     O12795   2.766   2.535   7.247
  859TMC3     H12796   3.128   2.506   7.387
  859TMC3    H112797   2.851   2.735   7.154
  859TMC3    H212798   3.235   2.900   7.242
  859TMC3    C712799   3.000   2.952   7.139
  859TMC3    C812800   3.321   2.680   7.373
  859TMC3    O112801   3.094   3.027   7.114
  859TMC3    O212802   3.386   2.780   7.358
  860TMC3    C112803   1.411   4.111  12.153
  860TMC3    C212804   1.360   3.997  12.096
  860TMC3    C312805   1.312   4.013  11.960
  860TMC3    C412806   1.437   4.223  12.083
  860TMC3    C512807   1.388   4.236  11.964
  860TMC3    C612808   1.327   4.129  11.899
  860TMC3     C12809   1.346   4.142  12.282
  860TMC3     O12810   1.284   4.246  12.274
  860TMC3     H12811   1.316   3.921  12.158
  860TMC3    H112812   1.466   4.313  12.135
  860TMC3    H212813   1.294   4.136  11.796
  860TMC3    C712814   1.345   4.363  11.913
  860TMC3    C812815   1.175   3.971  11.959
  860TMC3    O112816   1.418   4.461  11.928
  860TMC3    O212817   1.093   4.064  11.982
  861TMC3    C112818   0.683   0.939  12.498
  861TMC3    C212819   0.725   0.932  12.625
  861TMC3    C312820   0.670   1.020  12.720
  861TMC3    C412821   0.580   1.027  12.465
  861TMC3    C512822   0.538   1.112  12.567
  861TMC3    C612823   0.580   1.108  12.698
  861TMC3     C12824   0.685   0.803  12.433
  861TMC3     O12825   0.676   0.703  12.506
  861TMC3     H12826   0.771   0.839  12.653
  861TMC3    H112827   0.523   1.011  12.374
  861TMC3    H212828   0.539   1.163  12.782
  861TMC3    C712829   0.405   1.161  12.542
  861TMC3    C812830   0.718   1.003  12.854
  861TMC3    O112831   0.347   1.120  12.438
  861TMC3    O212832   0.651   1.027  12.952
  862TMC3    C112833   3.823   3.695  10.307
  862TMC3    C212834   3.820   3.570  10.252
  862TMC3    C312835   3.922   3.489  10.285
  862TMC3    C412836   3.916   3.740  10.392
  862TMC3    C512837   4.021   3.655  10.418
  862TMC3    C612838   4.025   3.533  10.366
  862TMC3     C12839   3.699   3.755  10.321
  862TMC3     O12840   3.672   3.820  10.422
  862TMC3     H12841   3.752   3.528  10.179
  862TMC3    H112842   3.921   3.836  10.442
  862TMC3    H212843   4.107   3.472  10.401
  862TMC3    C712844   4.149   3.716  10.421
  862TMC3    C812845   3.933   3.361  10.216
  862TMC3    O112846   4.245   3.648  10.455
  862TMC3    O212847   3.832   3.303  10.186
  863TMC3    C112848   0.200   0.862  10.106
  863TMC3    C212849   0.132   0.885   9.988
  863TMC3    C312850   0.089   1.017   9.972
  863TMC3    C412851   0.240   0.966  10.185
  863TMC3    C512852   0.206   1.095  10.154
  863TMC3    C612853   0.132   1.125  10.044
  863TMC3     C12854   0.200   0.731  10.173
  863TMC3     O12855   0.288   0.710  10.256
  863TMC3     H12856   0.104   0.814   9.911
  863TMC3    H112857   0.317   0.947  10.258
  863TMC3    H212858   0.106   1.228  10.021
  863TMC3    C712859   0.275   1.208  10.208
  863TMC3    C812860   4.726   1.022   9.966
  863TMC3    O112861   0.397   1.198  10.203
  863TMC3    O212862   4.660   1.108  10.025
  864TMC3    C112863   0.468   0.250   7.465
  864TMC3    C212864   0.349   0.217   7.511
  864TMC3    C312865   0.332   0.099   7.576
  864TMC3    C412866   0.572   0.159   7.463
  864TMC3    C512867   0.554   0.032   7.511
  864TMC3    C612868   0.427   0.003   7.566
  864TMC3     C12869   0.514   0.383   7.506
  864TMC3     O12870   0.623   0.382   7.560
  864TMC3     H12871   0.274   0.295   7.515
  864TMC3    H112872   0.675   0.185   7.443
  864TMC3    H212873   0.405   4.691   7.592
  864TMC3    C712874   0.631   4.710   7.452
  864TMC3    C812875   0.217   0.065   7.656
  864TMC3    O112876   0.613   4.605   7.511
  864TMC3    O212877   0.160   4.748   7.648
  865TMC3    C112878   4.161   0.880  12.132
  865TMC3    C212879   4.286   0.836  12.167
  865TMC3    C312880   4.342   0.882  12.285
  865TMC3    C412881   4.089   0.965  12.208
  865TMC3    C512882   4.147   1.008  12.318
  865TMC3    C612883   4.267   0.965  12.367
  865TMC3     C12884   4.096   0.792  12.044
  865TMC3     O12885   4.148   0.683  12.028
  865TMC3     H12886   4.334   0.753  12.117
  865TMC3    H112887   3.996   1.012  12.176
  865TMC3    H212888   4.312   1.008  12.456
  865TMC3    C712889   4.063   1.083  12.406
  865TMC3    C812890   4.464   0.820  12.326
  865TMC3    O112891   4.115   1.149  12.489
  865TMC3    O212892   4.558   0.813  12.247
  866TMC3    C112893   3.970   2.518  14.172
  866TMC3    C212894   4.008   2.565  14.293
  866TMC3    C312895   3.964   2.687  14.332
  866TMC3    C412896   3.880   2.587  14.092
  866TMC3    C512897   3.857   2.714  14.125
  866TMC3    C612898   3.901   2.769  14.242
  866TMC3     C12899   4.030   2.398  14.120
  866TMC3     O12900   3.966   2.327  14.042
  866TMC3     H12901   4.067   2.501  14.357
  866TMC3    H112902   3.860   2.547  13.994
  866TMC3    H212903   3.900   2.877  14.252
  866TMC3    C712904   3.815   2.809  14.020
  866TMC3    C812905   4.001   2.738  14.461
  866TMC3    O112906   3.851   2.922  14.036
  866TMC3    O212907   4.097   2.700  14.524
  867TMC3    C112908   3.042   2.665  11.142
  867TMC3    C212909   3.085   2.553  11.212
  867TMC3    C312910   3.192   2.568  11.291
  867TMC3    C412911   3.101   2.789  11.157
  867TMC3    C512912   3.205   2.794  11.255
  867TMC3    C612913   3.260   2.687  11.312
  867TMC3     C12914   2.949   2.652  11.029
  867TMC3     O12915   2.951   2.749  10.952
  867TMC3     H12916   3.021   2.466  11.228
  867TMC3    H112917   3.060   2.870  11.098
  867TMC3    H212918   3.326   2.694  11.398
  867TMC3    C712919   3.291   2.908  11.261
  867TMC3    C812920   3.227   2.456  11.373
  867TMC3    O112921   3.386   2.894  11.335
  867TMC3    O212922   3.135   2.382  11.399
  868TMC3    C112923   1.475   0.764  12.829
  868TMC3    C212924   1.536   0.842  12.739
  868TMC3    C312925   1.662   0.862  12.769
  868TMC3    C412926   1.533   0.708  12.942
  868TMC3    C512927   1.666   0.721  12.958
  868TMC3    C612928   1.736   0.796  12.872
  868TMC3     C12929   1.330   0.785  12.835
  868TMC3     O12930   1.275   0.828  12.733
  868TMC3     H12931   1.478   0.910  12.677
  868TMC3    H112932   1.475   0.649  13.012
  868TMC3    H212933   1.839   0.823  12.890
  868TMC3    C712934   1.720   0.665  13.084
  868TMC3    C812935   1.731   0.955  12.686
  868TMC3    O112936   1.644   0.594  13.146
  868TMC3    O212937   1.851   0.933  12.672
  869TMC3    C112938   4.522   1.394  11.637
  869TMC3    C212939   4.399   1.410  11.590
  869TMC3    C312940   4.328   1.528  11.601
  869TMC3    C412941   4.588   1.498  11.698
  869TMC3    C512942   4.530   1.625  11.684
  869TMC3    C612943   4.402   1.630  11.645
  869TMC3     C12944   4.598   1.283  11.589
  869TMC3     O12945   4.721   1.295  11.587
  869TMC3     H12946   4.349   1.338  11.527
  869TMC3    H112947   4.689   1.484  11.738
  869TMC3    H212948   4.351   1.724  11.659
  869TMC3    C712949   4.589   1.733  11.752
  869TMC3    C812950   4.186   1.523  11.583
  869TMC3    O112951   4.524   1.773  11.852
  869TMC3    O212952   4.132   1.412  11.598
  870TMC3    C112953   4.268   3.966  13.085
  870TMC3    C212954   4.378   3.918  13.030
  870TMC3    C312955   4.448   3.991  12.946
  870TMC3    C412956   4.250   4.103  13.089
  870TMC3    C512957   4.330   4.181  13.012
  870TMC3    C612958   4.422   4.127  12.935
  870TMC3     C12959   4.159   3.883  13.121
  870TMC3     O12960   4.113   3.906  13.233
  870TMC3     H12961   4.395   3.811  13.042
  870TMC3    H112962   4.159   4.143  13.134
  870TMC3    H212963   4.475   4.196  12.870
  870TMC3    C712964   4.265   4.298  12.951
  870TMC3    C812965   4.537   3.923  12.855
  870TMC3    O112966   4.294   4.319  12.832
  870TMC3    O212967   4.557   3.808  12.890
  871TMC3    C112968   3.719   0.571  13.896
  871TMC3    C212969   3.726   0.465  13.983
  871TMC3    C312970   3.852   0.406  14.001
  871TMC3    C412971   3.825   0.599  13.818
  871TMC3    C512972   3.952   0.544  13.840
  871TMC3    C612973   3.965   0.440  13.929
  871TMC3     C12974   3.590   0.643  13.881
  871TMC3     O12975   3.492   0.574  13.878
  871TMC3     H12976   3.636   0.444  14.040
  871TMC3    H112977   3.808   0.681  13.749
  871TMC3    H212978   4.048   0.370  13.930
  871TMC3    C712979   4.071   0.628  13.818
  871TMC3    C812980   3.881   0.324  14.119
  871TMC3    O112981   4.054   0.741  13.772
  871TMC3    O212982   4.001   0.307  14.138
  872TMC3    C112983   0.575   4.241  12.360
  872TMC3    C212984   0.671   4.261  12.450
  872TMC3    C312985   0.744   4.154  12.493
  872TMC3    C412986   0.554   4.116  12.303
  872TMC3    C512987   0.637   4.015  12.344
  872TMC3    C612988   0.717   4.026  12.453
  872TMC3     C12989   0.553   4.354  12.268
  872TMC3     O12990   0.598   4.338  12.157
  872TMC3     H12991   0.697   4.364  12.473
  872TMC3    H112992   0.485   4.104  12.220
  872TMC3    H212993   0.793   3.948  12.461
  872TMC3    C712994   0.709   3.969  12.224
  872TMC3    C812995   0.878   4.190  12.532
  872TMC3    O112996   0.755   4.057  12.149
  872TMC3    O212997   0.926   4.298  12.519
  873TMC3    C112998   0.348   2.744  11.553
  873TMC3    C212999   0.477   2.708  11.546
  873TMC3    C313000   0.508   2.580  11.516
  873TMC3    C413001   0.247   2.661  11.527
  873TMC3    C513002   0.282   2.532  11.483
  873TMC3    C613003   0.409   2.495  11.483
  873TMC3     C13004   0.312   2.882  11.581
  873TMC3     O13005   0.201   2.905  11.635
  873TMC3     H13006   0.557   2.765  11.592
  873TMC3    H113007   0.149   2.704  11.514
  873TMC3    H213008   0.432   2.390  11.469
  873TMC3    C713009   0.177   2.433  11.454
  873TMC3    C813010   0.623   2.511  11.575
  873TMC3    O113011   0.215   2.328  11.406
  873TMC3    O213012   0.600   2.399  11.614
  874TMC3    C113013   1.787   2.164   6.946
  874TMC3    C213014   1.909   2.101   6.932
  874TMC3    C313015   1.932   2.055   6.804
  874TMC3    C413016   1.708   2.207   6.842
  874TMC3    C513017   1.740   2.162   6.718
  874TMC3    C613018   1.848   2.077   6.700
  874TMC3     C13019   1.726   2.161   7.081
  874TMC3     O13020   1.802   2.174   7.175
  874TMC3     H13021   1.965   2.062   7.016
  874TMC3    H113022   1.611   2.253   6.854
  874TMC3    H213023   1.855   2.010   6.615
  874TMC3    C713024   1.625   2.129   6.627
  874TMC3    C813025   2.039   1.950   6.783
  874TMC3    O113026   1.519   2.099   6.685
  874TMC3    O213027   2.085   1.930   6.672
  875TMC3    C113028   2.465   3.650   9.611
  875TMC3    C213029   2.579   3.708   9.567
  875TMC3    C313030   2.642   3.666   9.452
  875TMC3    C413031   2.433   3.526   9.561
  875TMC3    C513032   2.498   3.479   9.448
  875TMC3    C613033   2.601   3.550   9.388
  875TMC3     C13034   2.356   3.747   9.625
  875TMC3     O13035   2.393   3.862   9.611
  875TMC3     H13036   2.620   3.785   9.631
  875TMC3    H113037   2.338   3.485   9.593
  875TMC3    H213038   2.628   3.522   9.286
  875TMC3    C713039   2.494   3.336   9.431
  875TMC3    C813040   2.642   3.771   9.356
  875TMC3    O113041   2.552   3.286   9.339
  875TMC3    O213042   2.672   3.748   9.239
  876TMC3    C113043   1.001   2.223  13.386
  876TMC3    C213044   0.973   2.301  13.274
  876TMC3    C313045   0.929   2.246  13.152
  876TMC3    C413046   0.996   2.091  13.374
  876TMC3    C513047   0.941   2.042  13.254
  876TMC3    C613048   0.913   2.112  13.139
  876TMC3     C13049   1.117   2.277  13.460
  876TMC3     O13050   1.167   2.371  13.395
  876TMC3     H13051   0.972   2.408  13.287
  876TMC3    H113052   1.033   2.024  13.450
  876TMC3    H213053   0.880   2.059  13.051
  876TMC3    C713054   0.928   1.901  13.266
  876TMC3    C813055   0.980   2.311  13.033
  876TMC3    O113056   0.877   1.873  13.378
  876TMC3    O213057   0.931   2.283  12.925
  877TMC3    C113058   2.040   2.624   6.967
  877TMC3    C213059   2.056   2.750   6.920
  877TMC3    C313060   1.940   2.810   6.880
  877TMC3    C413061   1.921   2.567   6.982
  877TMC3    C513062   1.816   2.624   6.923
  877TMC3    C613063   1.815   2.759   6.879
  877TMC3     C13064   2.147   2.537   6.925
  877TMC3     O13065   2.218   2.574   6.832
  877TMC3     H13066   2.151   2.800   6.906
  877TMC3    H113067   1.907   2.464   7.016
  877TMC3    H213068   1.724   2.813   6.859
  877TMC3    C713069   1.693   2.549   6.933
  877TMC3    C813070   1.947   2.955   6.861
  877TMC3    O113071   1.671   2.484   7.031
  877TMC3    O213072   2.050   3.009   6.905
  878TMC3    C113073   0.620   1.510  11.424
  878TMC3    C213074   0.635   1.586  11.541
  878TMC3    C313075   0.692   1.528  11.648
  878TMC3    C413076   0.678   1.389  11.411
  878TMC3    C513077   0.747   1.335  11.517
  878TMC3    C613078   0.745   1.396  11.641
  878TMC3     C13079   0.567   1.584  11.311
  878TMC3     O13080   0.551   1.706  11.335
  878TMC3     H13081   0.597   1.686  11.556
  878TMC3    H113082   0.679   1.332  11.318
  878TMC3    H213083   0.790   1.338  11.721
  878TMC3    C713084   0.812   1.205  11.507
  878TMC3    C813085   0.661   1.587  11.786
  878TMC3    O113086   0.868   1.178  11.405
  878TMC3    O213087   0.599   1.690  11.798
  879TMC3    C113088   0.014   4.307  12.365
  879TMC3    C213089   0.102   4.207  12.341
  879TMC3    C313090   0.089   4.143  12.218
  879TMC3    C413091   4.700   4.349  12.279
  879TMC3    C513092   4.701   4.281  12.159
  879TMC3    C613093   4.789   4.180  12.127
  879TMC3     C13094   4.791   4.351  12.499
  879TMC3     O13095   4.749   4.464  12.519
  879TMC3     H13096   0.180   4.172  12.409
  879TMC3    H113097   4.652   4.445  12.292
  879TMC3    H213098   0.011   4.154  12.023
  879TMC3    C713099   4.605   4.321  12.062
  879TMC3    C813100   0.184   4.037  12.191
  879TMC3    O113101   4.615   4.286  11.949
  879TMC3    O213102   0.284   4.032  12.256
  880TMC3    C113103   3.499   0.096   8.894
  880TMC3    C213104   3.619   0.157   8.881
  880TMC3    C313105   3.714   0.146   8.978
  880TMC3    C413106   3.472   0.027   9.008
  880TMC3    C513107   3.568   0.021   9.112
  880TMC3    C613108   3.686   0.083   9.101
  880TMC3     C13109   3.392   0.188   8.857
  880TMC3     O13110   3.396   0.308   8.879
  880TMC3     H13111   3.630   0.221   8.795
  880TMC3    H113112   3.370   4.781   9.020
  880TMC3    H213113   3.751   0.101   9.185
  880TMC3    C713114   3.514   4.751   9.232
  880TMC3    C813115   3.801   0.262   8.991
  880TMC3    O113116   3.395   4.735   9.242
  880TMC3    O213117   3.910   0.246   9.039
  881TMC3    C113118   1.609   2.578  10.035
  881TMC3    C213119   1.547   2.478   9.969
  881TMC3    C313120   1.453   2.520   9.881
  881TMC3    C413121   1.567   2.710  10.033
  881TMC3    C513122   1.470   2.748   9.948
  881TMC3    C613123   1.416   2.651   9.871
  881TMC3     C13124   1.749   2.554  10.043
  881TMC3     O13125   1.811   2.659  10.061
  881TMC3     H13126   1.569   2.372   9.968
  881TMC3    H113127   1.628   2.776  10.094
  881TMC3    H213128   1.352   2.676   9.787
  881TMC3    C713129   1.469   2.869   9.880
  881TMC3    C813130   1.479   2.479   9.749
  881TMC3    O113131   1.491   2.859   9.760
  881TMC3    O213132   1.457   2.361   9.729
  882TMC3    C113133   0.878   0.011   7.675
  882TMC3    C213134   0.909   0.101   7.580
  882TMC3    C313135   0.983   0.057   7.474
  882TMC3    C413136   0.908   4.668   7.662
  882TMC3    C513137   0.990   4.630   7.556
  882TMC3    C613138   1.023   4.720   7.459
  882TMC3     C13139   0.829   0.058   7.800
  882TMC3     O13140   0.857   0.173   7.824
  882TMC3     H13141   0.859   0.196   7.596
  882TMC3    H113142   0.891   4.595   7.740
  882TMC3    H213143   1.075   4.692   7.368
  882TMC3    C713144   1.098   4.534   7.592
  882TMC3    C813145   1.080   0.151   7.426
  882TMC3    O113146   1.073   4.442   7.666
  882TMC3    O213147   1.192   0.112   7.406
  883TMC3    C113148   3.575   4.094  13.008
  883TMC3    C213149   3.534   4.185  12.921
  883TMC3    C313150   3.564   4.170  12.790
  883TMC3    C413151   3.637   3.975  12.969
  883TMC3    C513152   3.652   3.956  12.832
  883TMC3    C613153   3.631   4.061  12.741
  883TMC3     C13154   3.542   4.096  13.149
  883TMC3     O13155   3.521   3.988  13.206
  883TMC3     H13156   3.461   4.262  12.944
  883TMC3    H113157   3.669   3.904  13.045
  883TMC3    H213158   3.660   4.049  12.637
  883TMC3    C713159   3.695   3.826  12.789
  883TMC3    C813160   3.497   4.253  12.694
  883TMC3    O113161   3.735   3.833  12.675
  883TMC3    O213162   3.435   4.347  12.751
  884TMC3    C113163   0.038   4.664  12.022
  884TMC3    C213164   4.781   4.712  12.136
  884TMC3    C313165   4.672   0.002  12.121
  884TMC3    C413166   4.789   4.703  11.898
  884TMC3    C513167   4.676   4.772  11.886
  884TMC3    C613168   4.618   0.036  11.995
  884TMC3     C13169   0.124   4.551  12.027
  884TMC3     O13170   0.183   4.535  12.131
  884TMC3     H13171   0.027   4.682  12.233
  884TMC3    H113172   0.044   4.672  11.805
  884TMC3    H213173   4.544   0.115  11.985
  884TMC3    C713174   4.631   0.022  11.755
  884TMC3    C813175   4.569   4.779  12.224
  884TMC3    O113176   4.707   0.055  11.665
  884TMC3    O213177   4.456   4.765  12.188
  885TMC3    C113178   3.747   3.887  11.431
  885TMC3    C213179   3.883   3.899  11.452
  885TMC3    C313180   3.951   4.004  11.388
  885TMC3    C413181   3.679   3.975  11.350
  885TMC3    C513182   3.746   4.074  11.289
  885TMC3    C613183   3.875   4.091  11.308
  885TMC3     C13184   3.679   3.760  11.477
  885TMC3     O13185   3.579   3.721  11.417
  885TMC3     H13186   3.941   3.824  11.504
  885TMC3    H113187   3.571   3.970  11.336
  885TMC3    H213188   3.916   4.186  11.276
  885TMC3    C713189   3.665   4.174  11.231
  885TMC3    C813190   4.075   4.056  11.454
  885TMC3    O113191   3.558   4.203  11.285
  885TMC3    O213192   4.108   4.171  11.428
  886TMC3    C113193   0.245   3.823  11.335
  886TMC3    C213194   0.239   3.908  11.435
  886TMC3    C313195   0.155   4.018  11.427
  886TMC3    C413196   0.162   3.832  11.226
  886TMC3    C513197   0.070   3.940  11.225
  886TMC3    C613198   0.061   4.025  11.332
  886TMC3     C13199   0.372   3.760  11.313
  886TMC3     O13200   0.372   3.658  11.244
  886TMC3     H13201   0.307   3.897  11.519
  886TMC3    H113202   0.187   3.762  11.148
  886TMC3    H213203   4.782   4.108  11.329
  886TMC3    C713204   4.748   3.937  11.140
  886TMC3    C813205   0.152   4.125  11.525
  886TMC3    O113206   4.656   4.011  11.166
  886TMC3    O213207   0.095   4.232  11.503
  887TMC3    C113208   3.381   3.455   9.102
  887TMC3    C213209   3.467   3.441   8.995
  887TMC3    C313210   3.419   3.477   8.867
  887TMC3    C413211   3.270   3.526   9.089
  887TMC3    C513212   3.229   3.556   8.961
  887TMC3    C613213   3.296   3.530   8.846
  887TMC3     C13214   3.403   3.381   9.229
  887TMC3     O13215   3.308   3.366   9.300
  887TMC3     H13216   3.561   3.388   9.005
  887TMC3    H113217   3.215   3.545   9.180
  887TMC3    H213218   3.259   3.551   8.746
  887TMC3    C713219   3.092   3.613   8.947
  887TMC3    C813220   3.517   3.497   8.761
  887TMC3    O113221   3.045   3.678   9.033
  887TMC3    O213222   3.610   3.421   8.748
  888TMC3    C113223   3.417   2.318  13.245
  888TMC3    C213224   3.302   2.279  13.173
  888TMC3    C313225   3.282   2.141  13.175
  888TMC3    C413226   3.512   2.235  13.301
  888TMC3    C513227   3.475   2.105  13.309
  888TMC3    C613228   3.362   2.060  13.247
  888TMC3     C13229   3.453   2.456  13.230
  888TMC3     O13230   3.570   2.486  13.214
  888TMC3     H13231   3.236   2.343  13.116
  888TMC3    H113232   3.610   2.275  13.327
  888TMC3    H213233   3.332   1.957  13.261
  888TMC3    C713234   3.534   2.023  13.420
  888TMC3    C813235   3.149   2.104  13.181
  888TMC3    O113236   3.637   2.063  13.471
  888TMC3    O213237   3.110   2.019  13.108
  889TMC3    C113238   0.724   0.359  13.971
  889TMC3    C213239   0.829   0.441  14.005
  889TMC3    C313240   0.827   0.515  14.115
  889TMC3    C413241   0.609   0.354  14.045
  889TMC3    C513242   0.614   0.425  14.157
  889TMC3    C613243   0.715   0.511  14.199
  889TMC3     C13244   0.734   0.273  13.851
  889TMC3     O13245   0.686   0.159  13.853
  889TMC3     H13246   0.920   0.424  13.949
  889TMC3    H113247   0.521   0.297  14.019
  889TMC3    H213248   0.707   0.556  14.297
  889TMC3    C713249   0.506   0.412  14.256
  889TMC3    C813250   0.943   0.572  14.152
  889TMC3    O113251   0.451   0.504  14.311
  889TMC3    O213252   1.039   0.559  14.080
  890TMC3    C113253   0.350   1.191   7.374
  890TMC3    C213254   0.397   1.310   7.400
  890TMC3    C313255   0.442   1.392   7.298
  890TMC3    C413256   0.339   1.143   7.247
  890TMC3    C513257   0.387   1.222   7.144
  890TMC3    C613258   0.437   1.345   7.172
  890TMC3     C13259   0.365   1.098   7.480
  890TMC3     O13260   0.377   1.145   7.594
  890TMC3     H13261   0.426   1.342   7.500
  890TMC3    H113262   0.286   1.052   7.220
  890TMC3    H213263   0.469   1.405   7.087
  890TMC3    C713264   0.381   1.180   7.000
  890TMC3    C813265   0.512   1.512   7.336
  890TMC3    O113266   0.346   1.269   6.927
  890TMC3    O213267   0.470   1.581   7.426
  891TMC3    C113268   2.213   0.865  11.378
  891TMC3    C213269   2.208   0.994  11.348
  891TMC3    C313270   2.288   1.082  11.420
  891TMC3    C413271   2.302   0.808  11.466
  891TMC3    C513272   2.386   0.896  11.530
  891TMC3    C613273   2.385   1.034  11.509
  891TMC3     C13274   2.093   0.790  11.337
  891TMC3     O13275   1.991   0.844  11.308
  891TMC3     H13276   2.124   1.027  11.287
  891TMC3    H113277   2.307   0.701  11.483
  891TMC3    H213278   2.464   1.096  11.549
  891TMC3    C713279   2.492   0.841  11.604
  891TMC3    C813280   2.295   1.222  11.373
  891TMC3    O113281   2.592   0.910  11.603
  891TMC3    O213282   2.321   1.310  11.454
  892TMC3    C113283   0.397   0.798  11.026
  892TMC3    C213284   0.288   0.879  11.047
  892TMC3    C313285   0.296   1.016  11.034
  892TMC3    C413286   0.515   0.850  10.981
  892TMC3    C513287   0.520   0.986  10.982
  892TMC3    C613288   0.416   1.071  11.001
  892TMC3     C13289   0.399   0.683  11.113
  892TMC3     O13290   0.283   0.648  11.151
  892TMC3     H13291   0.193   0.828  11.064
  892TMC3    H113292   0.614   0.805  10.978
  892TMC3    H213293   0.416   1.178  10.984
  892TMC3    C713294   0.638   1.064  10.925
  892TMC3    C813295   0.178   1.103  11.019
  892TMC3    O113296   0.654   1.174  10.975
  892TMC3    O213297   0.185   1.192  10.936
  893TMC3    C113298   3.588   3.058  10.141
  893TMC3    C213299   3.589   2.963  10.239
  893TMC3    C313300   3.543   3.002  10.358
  893TMC3    C413301   3.533   3.182  10.163
  893TMC3    C513302   3.480   3.210  10.285
  893TMC3    C613303   3.480   3.119  10.384
  893TMC3     C13304   3.638   3.031  10.019
  893TMC3     O13305   3.580   2.951   9.940
  893TMC3     H13306   3.634   2.866  10.215
  893TMC3    H113307   3.542   3.268  10.097
  893TMC3    H213308   3.469   3.165  10.482
  893TMC3    C713309   3.468   3.347  10.322
  893TMC3    C813310   3.567   2.913  10.471
  893TMC3    O113311   3.581   3.400  10.320
  893TMC3    O213312   3.648   2.822  10.460
  894TMC3    C113313   3.163   4.118  14.552
  894TMC3    C213314   3.184   3.984  14.550
  894TMC3    C313315   3.192   3.928  14.426
  894TMC3    C413316   3.127   4.192  14.448
  894TMC3    C513317   3.113   4.130  14.329
  894TMC3    C613318   3.152   3.997  14.312
  894TMC3     C13319   3.122   4.161  14.682
  894TMC3     O13320   3.003   4.196  14.698
  894TMC3     H13321   3.206   3.927  14.640
  894TMC3    H113322   3.110   4.298  14.463
  894TMC3    H213323   3.150   3.945  14.217
  894TMC3    C713324   3.083   4.215  14.220
  894TMC3    C813325   3.183   3.783  14.415
  894TMC3    O113326   3.107   4.162  14.111
  894TMC3    O213327   3.107   3.735  14.332
  895TMC3    C113328   3.336   3.059  13.744
  895TMC3    C213329   3.276   2.972  13.824
  895TMC3    C313330   3.321   2.953  13.952
  895TMC3    C413331   3.434   3.143  13.791
  895TMC3    C513332   3.476   3.122  13.926
  895TMC3    C613333   3.421   3.026  14.008
  895TMC3     C13334   3.291   3.072  13.607
  895TMC3     O13335   3.275   2.962  13.553
  895TMC3     H13336   3.195   2.911  13.786
  895TMC3    H113337   3.488   3.212  13.727
  895TMC3    H213338   3.453   2.992  14.106
  895TMC3    C713339   3.502   3.236  14.004
  895TMC3    C813340   3.245   2.862  14.036
  895TMC3    O113341   3.515   3.220  14.127
  895TMC3    O213342   3.170   2.784  13.977
  896TMC3    C113343   2.160   1.969   8.806
  896TMC3    C213344   2.098   1.928   8.921
  896TMC3    C313345   2.014   2.016   8.990
  896TMC3    C413346   2.142   2.090   8.753
  896TMC3    C513347   2.048   2.173   8.811
  896TMC3    C613348   1.984   2.135   8.930
  896TMC3     C13349   2.203   1.877   8.704
  896TMC3     O13350   2.312   1.897   8.655
  896TMC3     H13351   2.106   1.826   8.956
  896TMC3    H113352   2.179   2.117   8.655
  896TMC3    H213353   1.909   2.194   8.981
  896TMC3    C713354   1.970   2.262   8.730
  896TMC3    C813355   1.908   1.956   9.070
  896TMC3    O113356   1.856   2.280   8.768
  896TMC3    O213357   1.860   1.850   9.022
  897TMC3    C113358   2.803   1.755  14.747
  897TMC3    C213359   2.787   1.865  14.674
  897TMC3    C313360   2.881   1.964  14.684
  897TMC3    C413361   2.924   1.725  14.808
  897TMC3    C513362   3.020   1.823  14.813
  897TMC3    C613363   3.005   1.935  14.736
  897TMC3     C13364   2.694   1.661  14.778
  897TMC3     O13365   2.716   1.587  14.874
  897TMC3     H13366   2.696   1.885  14.619
  897TMC3    H113367   2.933   1.628  14.856
  897TMC3    H213368   3.070   2.015  14.769
  897TMC3    C713369   3.158   1.783  14.789
  897TMC3    C813370   2.884   2.053  14.566
  897TMC3    O113371   3.206   1.843  14.691
  897TMC3    O213372   2.770   2.070  14.521
  898TMC3    C113373   2.916   4.671   9.736
  898TMC3    C213374   3.053   4.692   9.743
  898TMC3    C313375   3.122   4.588   9.809
  898TMC3    C413376   2.863   4.551   9.775
  898TMC3    C513377   2.926   4.468   9.860
  898TMC3    C613378   3.063   4.483   9.870
  898TMC3     C13379   2.828   4.779   9.763
  898TMC3     O13380   2.738   4.749   9.839
  898TMC3     H13381   3.108   4.782   9.719
  898TMC3    H113382   2.756   4.531   9.774
  898TMC3    H213383   3.121   4.416   9.934
  898TMC3    C713384   2.863   4.448   9.993
  898TMC3    C813385   3.266   4.595   9.818
  898TMC3    O113386   2.915   4.369  10.068
  898TMC3    O213387   3.334   4.575   9.921
  899TMC3    C113388   0.948   2.574   8.396
  899TMC3    C213389   0.823   2.521   8.382
  899TMC3    C313390   0.813   2.392   8.412
  899TMC3    C413391   1.039   2.527   8.493
  899TMC3    C513392   1.002   2.406   8.549
  899TMC3    C613393   0.906   2.335   8.486
  899TMC3     C13394   0.964   2.708   8.359
  899TMC3     O13395   0.904   2.792   8.429
  899TMC3     H13396   0.737   2.569   8.336
  899TMC3    H113397   1.126   2.585   8.522
  899TMC3    H213398   0.912   2.227   8.495
  899TMC3    C713399   1.001   2.395   8.694
  899TMC3    C813400   0.677   2.355   8.448
  899TMC3    O113401   1.041   2.496   8.756
  899TMC3    O213402   0.617   2.446   8.502
  900TMC3    C113403   3.557   1.158  12.012
  900TMC3    C213404   3.596   1.277  11.947
  900TMC3    C313405   3.611   1.281  11.810
  900TMC3    C413406   3.551   1.043  11.943
  900TMC3    C513407   3.562   1.045  11.806
  900TMC3    C613408   3.579   1.168  11.740
  900TMC3     C13409   3.561   1.150  12.158
  900TMC3     O13410   3.590   1.038  12.201
  900TMC3     H13411   3.599   1.366  12.009
  900TMC3    H113412   3.523   0.952  11.996
  900TMC3    H213413   3.564   1.178  11.633
  900TMC3    C713414   3.509   0.935  11.729
  900TMC3    C813415   3.587   1.406  11.737
  900TMC3    O113416   3.433   0.974  11.639
  900TMC3    O213417   3.495   1.417  11.657
  901TMC3    C113418   0.483   0.768  11.504
  901TMC3    C213419   0.349   0.771  11.459
  901TMC3    C313420   0.265   0.702  11.544
  901TMC3    C413421   0.535   0.709  11.612
  901TMC3    C513422   0.441   0.641  11.684
  901TMC3    C613423   0.306   0.640  11.659
  901TMC3     C13424   0.581   0.841  11.428
  901TMC3     O13425   0.681   0.785  11.398
  901TMC3     H13426   0.314   0.825  11.371
  901TMC3    H113427   0.640   0.703  11.638
  901TMC3    H213428   0.239   0.598  11.733
  901TMC3    C713429   0.470   0.645  11.827
  901TMC3    C813430   0.125   0.707  11.509
  901TMC3    O113431   0.388   0.701  11.900
  901TMC3    O213432   0.056   0.615  11.549
  902TMC3    C113433   3.849   4.564  13.966
  902TMC3    C213434   3.785   4.634  14.060
  902TMC3    C313435   3.667   4.695  14.013
  902TMC3    C413436   3.806   4.543  13.838
  902TMC3    C513437   3.678   4.595  13.800
  902TMC3    C613438   3.610   4.672  13.890
  902TMC3     C13439   3.992   4.540  13.990
  902TMC3     O13440   4.027   4.530  14.106
  902TMC3     H13441   3.837   4.663  14.151
  902TMC3    H113442   3.841   4.456  13.784
  902TMC3    H213443   3.507   4.697  13.867
  902TMC3    C713444   3.593   4.486  13.758
  902TMC3    C813445   3.601   4.777  14.112
  902TMC3    O113446   3.570   4.405  13.843
  902TMC3    O213447   3.611   4.754  14.230
  903TMC3    C113448   1.595   1.989  12.271
  903TMC3    C213449   1.528   1.965  12.150
  903TMC3    C313450   1.396   1.936  12.162
  903TMC3    C413451   1.535   1.980  12.399
  903TMC3    C513452   1.403   1.950  12.399
  903TMC3    C613453   1.337   1.915  12.282
  903TMC3     C13454   1.736   1.959  12.279
  903TMC3     O13455   1.787   1.960  12.394
  903TMC3     H13456   1.580   1.962  12.055
  903TMC3    H113457   1.595   1.987  12.489
  903TMC3    H213458   1.233   1.883  12.290
  903TMC3    C713459   1.372   1.885  12.525
  903TMC3    C813460   1.320   1.888  12.049
  903TMC3    O113461   1.404   1.936  12.630
  903TMC3    O213462   1.389   1.831  11.967
  904TMC3    C113463   2.930   2.948  12.118
  904TMC3    C213464   3.052   2.954  12.169
  904TMC3    C313465   3.123   2.834  12.184
  904TMC3    C413466   2.872   2.821  12.085
  904TMC3    C513467   2.949   2.709  12.115
  904TMC3    C613468   3.073   2.713  12.167
  904TMC3     C13469   2.848   3.069  12.128
  904TMC3     O13470   2.726   3.048  12.119
  904TMC3     H13471   3.106   3.047  12.188
  904TMC3    H113472   2.774   2.815  12.039
  904TMC3    H213473   3.133   2.624  12.184
  904TMC3    C713474   2.892   2.576  12.079
  904TMC3    C813475   3.256   2.839  12.237
  904TMC3    O113476   2.794   2.564  12.004
  904TMC3    O213477   3.331   2.755  12.190
  905TMC3    C113478   2.275   0.348   7.641
  905TMC3    C213479   2.151   0.354   7.707
  905TMC3    C313480   2.055   0.270   7.662
  905TMC3    C413481   2.309   0.244   7.563
  905TMC3    C513482   2.209   0.154   7.533
  905TMC3    C613483   2.080   0.168   7.573
  905TMC3     C13484   2.381   0.439   7.673
  905TMC3     O13485   2.478   0.429   7.597
  905TMC3     H13486   2.130   0.430   7.781
  905TMC3    H113487   2.411   0.219   7.537
  905TMC3    H213488   2.006   0.091   7.555
  905TMC3    C713489   2.252   0.036   7.457
  905TMC3    C813490   1.941   0.263   7.758
  905TMC3    O113491   2.360   4.787   7.480
  905TMC3    O213492   1.976   0.300   7.870
  906TMC3    C113493   2.910   2.805  10.484
  906TMC3    C213494   2.791   2.806  10.418
  906TMC3    C313495   2.698   2.906  10.437
  906TMC3    C413496   2.932   2.897  10.579
  906TMC3    C513497   2.839   2.996  10.606
  906TMC3    C613498   2.714   2.993  10.540
  906TMC3     C13499   2.987   2.685  10.460
  906TMC3     O13500   2.928   2.586  10.410
  906TMC3     H13501   2.779   2.736  10.336
  906TMC3    H113502   3.035   2.905  10.613
  906TMC3    H213503   2.645   3.067  10.577
  906TMC3    C713504   2.870   3.104  10.695
  906TMC3    C813505   2.675   2.962  10.312
  906TMC3    O113506   2.818   3.098  10.807
  906TMC3    O213507   2.751   2.920  10.229
  907TMC3    C113508   3.333   0.297  11.399
  907TMC3    C213509   3.382   0.411  11.339
  907TMC3    C313510   3.480   0.398  11.247
  907TMC3    C413511   3.397   0.181  11.381
  907TMC3    C513512   3.488   0.170  11.283
  907TMC3    C613513   3.532   0.282  11.213
  907TMC3     C13514   3.189   0.293  11.388
  907TMC3     O13515   3.135   0.385  11.322
  907TMC3     H13516   3.342   0.509  11.362
  907TMC3    H113517   3.376   0.101  11.451
  907TMC3    H213518   3.609   0.257  11.141
  907TMC3    C713519   3.539   0.033  11.263
  907TMC3    C813520   3.561   0.520  11.229
  907TMC3    O113521   3.596   4.777  11.360
  907TMC3    O213522   3.568   0.585  11.337
  908TMC3    C113523   3.223   3.139   9.820
  908TMC3    C213524   3.276   3.034   9.893
  908TMC3    C313525   3.187   2.961   9.963
  908TMC3    C413526   3.091   3.157   9.805
  908TMC3    C513527   3.005   3.076   9.876
  908TMC3    C613528   3.054   2.979   9.962
  908TMC3     C13529   3.303   3.197   9.714
  908TMC3     O13530   3.255   3.296   9.660
  908TMC3     H13531   3.381   3.038   9.921
  908TMC3    H113532   3.062   3.235   9.735
  908TMC3    H213533   2.990   2.925  10.030
  908TMC3    C713534   2.857   3.080   9.857
  908TMC3    C813535   3.233   2.877  10.075
  908TMC3    O113536   2.802   3.187   9.841
  908TMC3    O213537   3.180   2.889  10.188
  909TMC3    C113538   2.080   0.076  12.931
  909TMC3    C213539   2.200   0.026  12.881
  909TMC3    C313540   2.249   4.691  12.932
  909TMC3    C413541   2.001   0.007  13.025
  909TMC3    C513542   2.061   4.683  13.071
  909TMC3    C613543   2.172   4.617  13.018
  909TMC3     C13544   2.032   0.213  12.903
  909TMC3     O13545   1.926   0.249  12.950
  909TMC3     H13546   2.268   0.081  12.818
  909TMC3    H113547   1.902   0.035  13.060
  909TMC3    H213548   2.199   4.519  13.054
  909TMC3    C713549   1.979   4.612  13.161
  909TMC3    C813550   2.377   4.637  12.879
  909TMC3    O113551   1.965   4.492  13.147
  909TMC3    O213552   2.450   4.716  12.829
  910TMC3    C113553   2.427   4.357  11.493
  910TMC3    C213554   2.393   4.283  11.384
  910TMC3    C313555   2.313   4.340  11.288
  910TMC3    C413556   2.384   4.485  11.503
  910TMC3    C513557   2.292   4.538  11.413
  910TMC3    C613558   2.258   4.466  11.303
  910TMC3     C13559   2.519   4.301  11.598
  910TMC3     O13560   2.579   4.389  11.655
  910TMC3     H13561   2.441   4.188  11.361
  910TMC3    H113562   2.392   4.528  11.602
  910TMC3    H213563   2.192   4.502  11.226
  910TMC3    C713564   2.186   4.600  11.491
  910TMC3    C813565   2.268   4.261  11.172
  910TMC3    O113566   2.221   4.653  11.593
  910TMC3    O213567   2.239   4.314  11.068
  911TMC3    C113568   2.116   2.251   7.592
  911TMC3    C213569   2.117   2.253   7.728
  911TMC3    C313570   2.238   2.252   7.791
  911TMC3    C413571   2.223   2.237   7.511
  911TMC3    C513572   2.342   2.213   7.578
  911TMC3    C613573   2.350   2.223   7.716
  911TMC3     C13574   1.989   2.216   7.529
  911TMC3     O13575   1.889   2.263   7.584
  911TMC3     H13576   2.019   2.268   7.773
  911TMC3    H113577   2.218   2.239   7.402
  911TMC3    H213578   2.437   2.198   7.775
  911TMC3    C713579   2.460   2.238   7.498
  911TMC3    C813580   2.244   2.219   7.937
  911TMC3    O113581   2.449   2.327   7.420
  911TMC3    O213582   2.347   2.170   7.981
  912TMC3    C113583   4.771   3.934   9.353
  912TMC3    C213584   0.099   3.922   9.410
  912TMC3    C313585   0.110   3.944   9.543
  912TMC3    C413586   4.655   3.922   9.422
  912TMC3    C513587   4.668   3.915   9.564
  912TMC3    C613588   4.784   3.937   9.626
  912TMC3     C13589   4.767   4.044   9.249
  912TMC3     O13590   0.070   4.123   9.253
  912TMC3     H13591   0.181   3.912   9.340
  912TMC3    H113592   4.552   3.927   9.387
  912TMC3    H213593   4.782   3.931   9.734
  912TMC3    C713594   4.567   3.837   9.632
  912TMC3    C813595   0.231   3.943   9.624
  912TMC3    O113596   4.564   3.825   9.755
  912TMC3    O213597   0.207   3.942   9.743
  913TMC3    C113598   3.992   2.569  12.615
  913TMC3    C213599   4.109   2.498  12.611
  913TMC3    C313600   4.229   2.553  12.630
  913TMC3    C413601   3.998   2.705  12.610
  913TMC3    C513602   4.118   2.757  12.629
  913TMC3    C613603   4.234   2.688  12.634
  913TMC3     C13604   3.883   2.493  12.561
  913TMC3     O13605   3.910   2.384  12.518
  913TMC3     H13606   4.103   2.390  12.610
  913TMC3    H113607   3.912   2.768  12.594
  913TMC3    H213608   4.335   2.728  12.640
  913TMC3    C713609   4.122   2.898  12.641
  913TMC3    C813610   4.324   2.491  12.544
  913TMC3    O113611   4.039   2.950  12.709
  913TMC3    O213612   4.439   2.466  12.589
  914TMC3    C113613   0.481   1.357  13.973
  914TMC3    C213614   0.491   1.230  13.911
  914TMC3    C313615   0.396   1.134  13.938
  914TMC3    C413616   0.373   1.375  14.058
  914TMC3    C513617   0.292   1.272  14.093
  914TMC3    C613618   0.290   1.156  14.024
  914TMC3     C13619   0.605   1.396  14.035
  914TMC3     O13620   0.695   1.311  14.046
  914TMC3     H13621   0.575   1.215  13.843
  914TMC3    H113622   0.366   1.469  14.112
  914TMC3    H213623   0.207   1.088  14.033
  914TMC3    C713624   0.200   1.292  14.198
  914TMC3    C813625   0.375   1.042  13.835
  914TMC3    O113626   0.191   1.412  14.227
  914TMC3    O213627   0.297   0.951  13.859
  915TMC3    C113628   2.001   1.326  10.612
  915TMC3    C213629   1.994   1.332  10.477
  915TMC3    C313630   1.871   1.325  10.414
  915TMC3    C413631   1.886   1.296  10.684
  915TMC3    C513632   1.768   1.269  10.613
  915TMC3    C613633   1.758   1.280  10.482
  915TMC3     C13634   2.115   1.261  10.665
  915TMC3     O13635   2.229   1.288  10.620
  915TMC3     H13636   2.086   1.336  10.421
  915TMC3    H113637   1.888   1.274  10.790
  915TMC3    H213638   1.672   1.252  10.423
  915TMC3    C713639   1.695   1.158  10.662
  915TMC3    C813640   1.888   1.290  10.277
  915TMC3    O113641   1.759   1.059  10.694
  915TMC3    O213642   1.807   1.203  10.239
  916TMC3    C113643   2.512   2.474  13.896
  916TMC3    C213644   2.590   2.458  13.783
  916TMC3    C313645   2.719   2.410  13.786
  916TMC3    C413646   2.578   2.459  14.015
  916TMC3    C513647   2.710   2.427  14.017
  916TMC3    C613648   2.784   2.400  13.905
  916TMC3     C13649   2.385   2.534  13.876
  916TMC3     O13650   2.359   2.583  13.767
  916TMC3     H13651   2.541   2.464  13.686
  916TMC3    H113652   2.544   2.496  14.111
  916TMC3    H213653   2.887   2.366  13.907
  916TMC3    C713654   2.764   2.388  14.148
  916TMC3    C813655   2.792   2.341  13.675
  916TMC3    O113656   2.688   2.352  14.243
  916TMC3    O213657   2.910   2.311  13.697
  917TMC3    C113658   2.804   3.364  11.699
  917TMC3    C213659   2.893   3.349  11.801
  917TMC3    C313660   3.017   3.399  11.791
  917TMC3    C413661   2.844   3.437  11.588
  917TMC3    C513662   2.969   3.489  11.579
  917TMC3    C613663   3.059   3.481  11.683
  917TMC3     C13664   2.744   3.235  11.657
  917TMC3     O13665   2.664   3.235  11.567
  917TMC3     H13666   2.862   3.299  11.892
  917TMC3    H113667   2.770   3.437  11.508
  917TMC3    H213668   3.166   3.494  11.670
  917TMC3    C713669   3.025   3.527  11.449
  917TMC3    C813670   3.108   3.305  11.844
  917TMC3    O113671   3.105   3.623  11.444
  917TMC3    O213672   3.053   3.195  11.861
  918TMC3    C113673   4.207   0.065  10.042
  918TMC3    C213674   4.304   0.148  10.109
  918TMC3    C313675   4.331   0.272  10.060
  918TMC3    C413676   4.150   0.116   9.921
  918TMC3    C513677   4.176   0.244   9.888
  918TMC3    C613678   4.268   0.325   9.953
  918TMC3     C13679   4.165   4.730  10.096
  918TMC3     O13680   4.233   4.674  10.181
  918TMC3     H13681   4.351   0.119  10.202
  918TMC3    H113682   4.116   0.045   9.846
  918TMC3    H213683   4.285   0.429   9.928
  918TMC3    C713684   4.123   0.297   9.756
  918TMC3    C813685   4.452   0.359  10.094
  918TMC3    O113686   4.189   0.386   9.709
  918TMC3    O213687   4.461   0.463  10.038
  919TMC3    C113688   1.280   2.545  15.058
  919TMC3    C213689   1.376   2.603  14.978
  919TMC3    C313690   1.504   2.558  14.982
  919TMC3    C413691   1.314   2.459  15.155
  919TMC3    C513692   1.444   2.438  15.173
  919TMC3    C613693   1.538   2.475  15.085
  919TMC3     C13694   1.151   2.610  15.067
  919TMC3     O13695   1.065   2.562  15.142
  919TMC3     H13696   1.348   2.642  14.881
  919TMC3    H113697   1.239   2.425  15.226
  919TMC3    H213698   1.638   2.434  15.095
  919TMC3    C713699   1.473   2.300  15.208
  919TMC3    C813700   1.533   2.494  14.853
  919TMC3    O113701   1.581   2.269  15.256
  919TMC3    O213702   1.440   2.468  14.780
  920TMC3    C113703   1.124   1.665   6.444
  920TMC3    C213704   1.063   1.546   6.398
  920TMC3    C313705   1.055   1.452   6.493
  920TMC3    C413706   1.151   1.695   6.578
  920TMC3    C513707   1.140   1.589   6.665
  920TMC3    C613708   1.094   1.471   6.622
  920TMC3     C13709   1.194   1.748   6.346
  920TMC3     O13710   1.195   1.712   6.225
  920TMC3     H13711   1.048   1.529   6.292
  920TMC3    H113712   1.169   1.788   6.629
  920TMC3    H213713   1.078   1.394   6.697
  920TMC3    C713714   1.209   1.598   6.797
  920TMC3    C813715   1.015   1.320   6.458
  920TMC3    O113716   1.308   1.666   6.809
  920TMC3    O213717   1.074   1.227   6.511
  921TMC3    C113718   1.256   0.921   9.123
  921TMC3    C213719   1.193   1.028   9.079
  921TMC3    C313720   1.142   1.026   8.953
  921TMC3    C413721   1.264   0.809   9.037
  921TMC3    C513722   1.210   0.810   8.914
  921TMC3    C613723   1.149   0.925   8.867
  921TMC3     C13724   1.208   0.872   9.252
  921TMC3     O13725   1.089   0.886   9.283
  921TMC3     H13726   1.192   1.119   9.137
  921TMC3    H113727   1.297   0.717   9.085
  921TMC3    H213728   1.099   0.932   8.771
  921TMC3    C713729   1.154   0.683   8.870
  921TMC3    C813730   1.097   1.158   8.906
  921TMC3    O113731   1.032   0.682   8.858
  921TMC3    O213732   1.012   1.165   8.816
  922TMC3    C113733   4.575   1.517  10.962
  922TMC3    C213734   4.652   1.545  10.846
  922TMC3    C313735   4.788   1.511  10.852
  922TMC3    C413736   4.637   1.489  11.078
  922TMC3    C513737   4.776   1.477  11.084
  922TMC3    C613738   0.060   1.493  10.966
  922TMC3     C13739   4.448   1.583  10.975
  922TMC3     O13740   4.429   1.635  11.085
  922TMC3     H13741   4.614   1.581  10.751
  922TMC3    H113742   4.582   1.483  11.171
  922TMC3    H213743   0.168   1.487  10.974
  922TMC3    C713744   0.062   1.496  11.207
  922TMC3    C813745   0.084   1.522  10.729
  922TMC3    O113746   0.178   1.457  11.195
  922TMC3    O213747   0.064   1.619  10.660
  923TMC3    C113748   2.415   0.573   9.082
  923TMC3    C213749   2.310   0.617   9.162
  923TMC3    C313750   2.294   0.746   9.194
  923TMC3    C413751   2.514   0.655   9.045
  923TMC3    C513752   2.509   0.788   9.089
  923TMC3    C613753   2.396   0.832   9.153
  923TMC3     C13754   2.454   0.445   9.128
  923TMC3     O13755   2.365   0.364   9.147
  923TMC3     H13756   2.249   0.537   9.200
  923TMC3    H113757   2.589   0.619   8.975
  923TMC3    H213758   2.382   0.931   9.194
  923TMC3    C713759   2.625   0.788   9.174
  923TMC3    C813760   2.244   0.765   9.333
  923TMC3    O113761   2.706   0.699   9.151
  923TMC3    O213762   2.304   0.853   9.396
  924TMC3    C113763   3.098   4.042   6.386
  924TMC3    C213764   3.085   4.173   6.391
  924TMC3    C313765   3.120   4.245   6.503
  924TMC3    C413766   3.138   3.975   6.501
  924TMC3    C513767   3.155   4.046   6.615
  924TMC3    C613768   3.135   4.181   6.614
  924TMC3     C13769   3.072   3.975   6.260
  924TMC3     O13770   3.071   4.042   6.155
  924TMC3     H13771   3.051   4.230   6.304
  924TMC3    H113772   3.162   3.870   6.506
  924TMC3    H213773   3.164   4.220   6.711
  924TMC3    C713774   3.267   4.006   6.684
  924TMC3    C813775   3.207   4.361   6.484
  924TMC3    O113776   3.370   4.062   6.654
  924TMC3    O213777   3.239   4.385   6.366
  925TMC3    C113778   0.214   2.138   9.487
  925TMC3    C213779   0.262   2.152   9.360
  925TMC3    C313780   0.283   2.045   9.283
  925TMC3    C413781   0.168   2.017   9.532
  925TMC3    C513782   0.182   1.912   9.445
  925TMC3    C613783   0.236   1.922   9.319
  925TMC3     C13784   0.260   2.232   9.587
  925TMC3     O13785   0.293   2.343   9.556
  925TMC3     H13786   0.315   2.239   9.322
  925TMC3    H113787   0.112   2.009   9.624
  925TMC3    H213788   0.247   1.834   9.256
  925TMC3    C713789   0.135   1.779   9.473
  925TMC3    C813790   0.302   2.067   9.149
  925TMC3    O113791   0.125   1.702   9.374
  925TMC3    O213792   0.369   1.983   9.092
  926TMC3    C113793   2.934   3.564   7.111
  926TMC3    C213794   2.971   3.651   7.208
  926TMC3    C313795   2.984   3.779   7.177
  926TMC3    C413796   2.900   3.600   6.977
  926TMC3    C513797   2.929   3.733   6.946
  926TMC3    C613798   2.965   3.820   7.045
  926TMC3     C13799   2.881   3.434   7.160
  926TMC3     O13800   2.948   3.376   7.246
  926TMC3     H13801   3.003   3.609   7.303
  926TMC3    H113802   2.869   3.528   6.902
  926TMC3    H213803   2.985   3.924   7.021
  926TMC3    C713804   2.899   3.780   6.818
  926TMC3    C813805   2.986   3.881   7.283
  926TMC3    O113806   2.962   3.883   6.797
  926TMC3    O213807   3.008   4.001   7.249
  927TMC3    C113808   2.286   1.650  11.707
  927TMC3    C213809   2.408   1.664  11.651
  927TMC3    C313810   2.396   1.700  11.519
  927TMC3    C413811   2.170   1.621  11.634
  927TMC3    C513812   2.173   1.660  11.498
  927TMC3    C613813   2.285   1.712  11.442
  927TMC3     C13814   2.270   1.673  11.850
  927TMC3     O13815   2.373   1.667  11.922
  927TMC3     H13816   2.493   1.688  11.714
  927TMC3    H113817   2.082   1.588  11.689
  927TMC3    H213818   2.280   1.737  11.337
  927TMC3    C713819   2.058   1.739  11.461
  927TMC3    C813820   2.520   1.734  11.453
  927TMC3    O113821   1.948   1.695  11.481
  927TMC3    O213822   2.620   1.718  11.527
  928TMC3    C113823   4.558   3.126  12.819
  928TMC3    C213824   4.616   3.125  12.947
  928TMC3    C313825   4.536   3.153  13.054
  928TMC3    C413826   4.431   3.172  12.797
  928TMC3    C513827   4.362   3.209  12.907
  928TMC3    C613828   4.407   3.200  13.035
  928TMC3     C13829   4.666   3.122  12.722
  928TMC3     O13830   4.781   3.096  12.763
  928TMC3     H13831   4.714   3.084  12.970
  928TMC3    H113832   4.391   3.194  12.699
  928TMC3    H213833   4.351   3.245  13.116
  928TMC3    C713834   4.253   3.302  12.876
  928TMC3    C813835   4.618   3.205  13.164
  928TMC3    O113836   4.274   3.381  12.783
  928TMC3    O213837   4.736   3.169  13.175
  929TMC3    C113838   4.703   1.422   8.821
  929TMC3    C213839   0.016   1.485   8.865
  929TMC3    C313840   0.079   1.579   8.791
  929TMC3    C413841   4.648   1.447   8.700
  929TMC3    C513842   4.712   1.550   8.623
  929TMC3    C613843   0.033   1.605   8.663
  929TMC3     C13844   4.607   1.353   8.907
  929TMC3     O13845   4.529   1.271   8.865
  929TMC3     H13846   0.048   1.452   8.963
  929TMC3    H113847   4.554   1.410   8.661
  929TMC3    H213848   0.069   1.688   8.602
  929TMC3    C713849   4.647   1.610   8.508
  929TMC3    C813850   0.212   1.621   8.821
  929TMC3    O113851   4.705   1.621   8.399
  929TMC3    O213852   0.266   1.706   8.752
  930TMC3    C113853   0.777   0.025   9.370
  930TMC3    C213854   0.813   0.019   9.237
  930TMC3    C313855   0.888   0.120   9.191
  930TMC3    C413856   0.827   0.124   9.447
  930TMC3    C513857   0.899   0.227   9.400
  930TMC3    C613858   0.926   0.230   9.264
  930TMC3     C13859   0.668   4.739   9.421
  930TMC3     O13860   0.580   0.006   9.483
  930TMC3     H13861   0.775   4.731   9.173
  930TMC3    H113862   0.805   0.124   9.553
  930TMC3    H213863   0.989   0.312   9.230
  930TMC3    C713864   0.982   0.305   9.488
  930TMC3    C813865   0.946   0.099   9.061
  930TMC3    O113866   0.996   0.264   9.603
  930TMC3    O213867   1.009   4.787   9.049
  931TMC3    C113868   2.728   2.244   9.281
  931TMC3    C213869   2.704   2.143   9.194
  931TMC3    C313870   2.746   2.018   9.219
  931TMC3    C413871   2.779   2.221   9.405
  931TMC3    C513872   2.789   2.091   9.439
  931TMC3    C613873   2.776   1.990   9.349
  931TMC3     C13874   2.793   2.345   9.202
  931TMC3     O13875   2.795   2.332   9.082
  931TMC3     H13876   2.651   2.154   9.100
  931TMC3    H113877   2.786   2.298   9.480
  931TMC3    H213878   2.811   1.890   9.371
  931TMC3    C713879   2.739   2.063   9.569
  931TMC3    C813880   2.836   1.964   9.124
  931TMC3    O113881   2.635   2.117   9.596
  931TMC3    O213882   2.859   1.848   9.130
  932TMC3    C113883   3.295   2.050   9.196
  932TMC3    C213884   3.299   2.158   9.113
  932TMC3    C313885   3.298   2.145   8.973
  932TMC3    C413886   3.268   1.925   9.142
  932TMC3    C513887   3.266   1.914   9.005
  932TMC3    C613888   3.282   2.018   8.916
  932TMC3     C13889   3.207   2.064   9.307
  932TMC3     O13890   3.114   2.146   9.299
  932TMC3     H13891   3.292   2.255   9.160
  932TMC3    H113892   3.298   1.833   9.190
  932TMC3    H213893   3.291   2.009   8.808
  932TMC3    C713894   3.255   1.786   8.948
  932TMC3    C813895   3.309   2.266   8.889
  932TMC3    O113896   3.177   1.705   8.999
  932TMC3    O213897   3.259   2.374   8.921
  933TMC3    C113898   3.614   0.881  10.517
  933TMC3    C213899   3.587   0.816  10.396
  933TMC3    C313900   3.557   0.896  10.292
  933TMC3    C413901   3.616   1.014  10.531
  933TMC3    C513902   3.584   1.089  10.419
  933TMC3    C613903   3.561   1.032  10.298
  933TMC3     C13904   3.623   0.797  10.636
  933TMC3     O13905   3.578   0.681  10.632
  933TMC3     H13906   3.595   0.709  10.387
  933TMC3    H113907   3.619   1.062  10.629
  933TMC3    H213908   3.521   1.097  10.220
  933TMC3    C713909   3.604   1.235  10.417
  933TMC3    C813910   3.538   0.826  10.166
  933TMC3    O113911   3.562   1.289  10.316
  933TMC3    O213912   3.441   0.860  10.103
  934TMC3    C113913   3.933   2.256  10.984
  934TMC3    C213914   3.965   2.316  11.100
  934TMC3    C313915   4.098   2.340  11.135
  934TMC3    C413916   4.032   2.226  10.891
  934TMC3    C513917   4.166   2.257  10.919
  934TMC3    C613918   4.196   2.305  11.040
  934TMC3     C13919   3.794   2.233  10.937
  934TMC3     O13920   3.774   2.216  10.817
  934TMC3     H13921   3.896   2.339  11.181
  934TMC3    H113922   4.017   2.184  10.792
  934TMC3    H213923   4.297   2.324  11.074
  934TMC3    C713924   4.267   2.160  10.876
  934TMC3    C813925   4.130   2.301  11.266
  934TMC3    O113926   4.353   2.132  10.962
  934TMC3    O213927   4.074   2.362  11.355
  935TMC3    C113928   3.353   1.564  10.813
  935TMC3    C213929   3.276   1.468  10.742
  935TMC3    C313930   3.329   1.347  10.726
  935TMC3    C413931   3.475   1.531  10.865
  935TMC3    C513932   3.526   1.403  10.848
  935TMC3    C613933   3.454   1.316  10.768
  935TMC3     C13934   3.332   1.705  10.778
  935TMC3     O13935   3.389   1.788  10.844
  935TMC3     H13936   3.187   1.495  10.687
  935TMC3    H113937   3.528   1.601  10.928
  935TMC3    H213938   3.500   1.221  10.743
  935TMC3    C713939   3.653   1.355  10.899
  935TMC3    C813940   3.230   1.247  10.698
  935TMC3    O113941   3.685   1.242  10.859
  935TMC3    O213942   3.119   1.288  10.675
  936TMC3    C113943   3.490   4.430  11.725
  936TMC3    C213944   3.383   4.499  11.665
  936TMC3    C313945   3.398   4.538  11.533
  936TMC3    C413946   3.600   4.391  11.653
  936TMC3    C513947   3.609   4.431  11.521
  936TMC3    C613948   3.507   4.509  11.464
  936TMC3     C13949   3.450   4.350  11.836
  936TMC3     O13950   3.325   4.329  11.845
  936TMC3     H13951   3.284   4.514  11.706
  936TMC3    H113952   3.668   4.317  11.696
  936TMC3    H213953   3.525   4.550  11.366
  936TMC3    C713954   3.739   4.419  11.459
  936TMC3    C813955   3.301   4.640  11.496
  936TMC3    O113956   3.818   4.332  11.504
  936TMC3    O213957   3.284   4.727  11.583
  937TMC3    C113958   4.755   0.609  14.810
  937TMC3    C213959   4.752   0.485  14.745
  937TMC3    C313960   4.729   0.475  14.612
  937TMC3    C413961   4.709   0.724  14.746
  937TMC3    C513962   4.674   0.705  14.613
  937TMC3    C613963   4.667   0.583  14.551
  937TMC3     C13964   0.080   0.623  14.900
  937TMC3     O13965   0.149   0.523  14.904
  937TMC3     H13966   4.786   0.400  14.803
  937TMC3    H113967   4.749   0.818  14.783
  937TMC3    H213968   4.638   0.585  14.446
  937TMC3    C713969   4.701   0.807  14.521
  937TMC3    C813970   0.056   0.426  14.538
  937TMC3    O113971   4.762   0.774  14.419
  937TMC3    O213972   0.083   0.492  14.436
  938TMC3    C113973   3.946   4.044  10.067
  938TMC3    C213974   4.044   4.065   9.976
  938TMC3    C313975   4.029   3.981   9.863
  938TMC3    C413976   3.843   3.953  10.057
  938TMC3    C513977   3.835   3.886   9.942
  938TMC3    C613978   3.923   3.894   9.841
  938TMC3     C13979   3.967   4.101  10.197
  938TMC3     O13980   3.975   4.020  10.292
  938TMC3     H13981   4.105   4.154   9.989
  938TMC3    H113982   3.759   3.950  10.125
  938TMC3    H213983   3.909   3.837   9.750
  938TMC3    C713984   3.714   3.814   9.920
  938TMC3    C813985   4.121   4.001   9.752
  938TMC3    O113986   3.720   3.693   9.936
  938TMC3    O213987   4.089   3.949   9.646
  939TMC3    C113988   1.626   1.770   8.167
  939TMC3    C213989   1.673   1.771   8.041
  939TMC3    C313990   1.594   1.782   7.940
  939TMC3    C413991   1.494   1.774   8.191
  939TMC3    C513992   1.407   1.777   8.088
  939TMC3    C613993   1.455   1.785   7.961
  939TMC3     C13994   1.726   1.763   8.281
  939TMC3     O13995   1.681   1.777   8.392
  939TMC3     H13996   1.780   1.766   8.022
  939TMC3    H113997   1.456   1.777   8.293
  939TMC3    H213998   1.401   1.756   7.871
  939TMC3    C713999   1.270   1.740   8.112
  939TMC3    C814000   1.638   1.753   7.808
  939TMC3    O114001   1.227   1.740   8.226
  939TMC3    O214002   1.614   1.645   7.757
  940TMC3    C114003   3.944   1.485   8.213
  940TMC3    C214004   3.824   1.446   8.255
  940TMC3    C314005   3.778   1.502   8.372
  940TMC3    C414006   4.030   1.558   8.288
  940TMC3    C514007   3.985   1.606   8.411
  940TMC3    C614008   3.854   1.584   8.458
  940TMC3     C14009   3.979   1.475   8.076
  940TMC3     O14010   4.021   1.581   8.035
  940TMC3     H14011   3.766   1.395   8.179
  940TMC3    H114012   4.129   1.581   8.250
  940TMC3    H214013   3.822   1.626   8.553
  940TMC3    C714014   4.058   1.713   8.483
  940TMC3    C814015   3.644   1.469   8.406
  940TMC3    O114016   4.032   1.736   8.603
  940TMC3    O214017   3.610   1.357   8.367
  941TMC3    C114018   0.483   2.311  14.857
  941TMC3    C214019   0.478   2.183  14.898
  941TMC3    C314020   0.582   2.103  14.865
  941TMC3    C414021   0.583   2.359  14.778
  941TMC3    C514022   0.676   2.265  14.743
  941TMC3    C614023   0.681   2.134  14.787
  941TMC3     C14024   0.351   2.350  14.813
  941TMC3     O14025   0.317   2.464  14.821
  941TMC3     H14026   0.404   2.147  14.969
  941TMC3    H114027   0.579   2.455  14.728
  941TMC3    H214028   0.759   2.067  14.754
  941TMC3    C714029   0.794   2.313  14.664
  941TMC3    C814030   0.520   1.979  14.844
  941TMC3    O114031   0.803   2.432  14.660
  941TMC3    O214032   0.400   1.978  14.832
  942TMC3    C114033   1.480   3.320   8.152
  942TMC3    C214034   1.399   3.257   8.246
  942TMC3    C314035   1.350   3.135   8.214
  942TMC3    C414036   1.511   3.272   8.028
  942TMC3    C514037   1.467   3.143   8.001
  942TMC3    C614038   1.382   3.078   8.094
  942TMC3     C14039   1.556   3.433   8.198
  942TMC3     O14040   1.561   3.445   8.317
  942TMC3     H14041   1.383   3.304   8.343
  942TMC3    H114042   1.600   3.303   7.974
  942TMC3    H214043   1.328   2.988   8.068
  942TMC3    C714044   1.559   3.060   7.937
  942TMC3    C814045   1.284   3.050   8.310
  942TMC3    O114046   1.618   3.113   7.845
  942TMC3    O214047   1.216   2.957   8.264
  943TMC3    C114048   0.066   2.932  13.505
  943TMC3    C214049   0.095   2.808  13.550
  943TMC3    C314050   0.015   2.704  13.503
  943TMC3    C414051   4.745   2.955  13.433
  943TMC3    C514052   4.663   2.858  13.394
  943TMC3    C614053   4.691   2.726  13.426
  943TMC3     C14054   0.176   3.025  13.495
  943TMC3     O14055   0.275   3.023  13.566
  943TMC3     H14056   0.185   2.782  13.604
  943TMC3    H114057   4.719   3.055  13.401
  943TMC3    H214058   4.615   2.655  13.394
  943TMC3    C714059   4.529   2.889  13.350
  943TMC3    C814060   0.048   2.569  13.549
  943TMC3    O114061   4.488   2.842  13.242
  943TMC3    O214062   0.142   2.544  13.620
  944TMC3    C114063   2.387   4.245  10.317
  944TMC3    C214064   2.493   4.236  10.393
  944TMC3    C314065   2.572   4.123  10.362
  944TMC3    C414066   2.348   4.146  10.227
  944TMC3    C514067   2.433   4.042  10.194
  944TMC3    C614068   2.542   4.026  10.264
  944TMC3     C14069   2.291   4.353  10.330
  944TMC3     O14070   2.219   4.378  10.234
  944TMC3     H14071   2.524   4.322  10.452
  944TMC3    H114072   2.252   4.151  10.178
  944TMC3    H214073   2.608   3.941  10.251
  944TMC3    C714074   2.370   3.939  10.104
  944TMC3    C814075   2.714   4.124  10.397
  944TMC3    O114076   2.253   3.935  10.122
  944TMC3    O214077   2.787   4.091  10.307
    1TMC1    C114078   1.685   3.932  10.806
    1TMC1    C214079   1.784   3.951  10.708
    1TMC1    C314080   1.838   3.836  10.660
    1TMC1    C414081   1.651   3.810  10.862
    1TMC1    C514082   1.726   3.701  10.822
    1TMC1    C614083   1.818   3.710  10.718
    1TMC1     C14084   1.567   4.018  10.788
    1TMC1     O14085   1.461   3.961  10.815
    1TMC1     H14086   1.785   4.048  10.661
    1TMC1    H114087   1.572   3.802  10.936
    1TMC1    H214088   1.870   3.623  10.679
    1TMC1    C714089   1.758   3.601  10.926
    1TMC1    C814090   1.922   3.834  10.549
    1TMC1    O114091   1.709   3.604  11.039
    1TMC1    O214092   1.942   3.734  10.478
    1TMC1    O314093   1.751   3.485  10.860
    1TMC1    H314094   1.757   3.493  10.762
    1TMC1    O514095   1.956   3.963  10.530
    1TMC1    H514096   2.017   3.978  10.455
    2TMC2    C114097   1.696   4.788  10.704
    2TMC2    C214098   1.772   0.078  10.786
    2TMC2    C314099   1.851   0.172  10.719
    2TMC2    C414100   1.698   0.004  10.569
    2TMC2    C514101   1.776   0.106  10.512
    2TMC2    C614102   1.851   0.192  10.584
    2TMC2     C14103   1.649   4.668  10.771
    2TMC2     O14104   1.708   4.625  10.867
    2TMC2     H14105   1.779   0.064  10.893
    2TMC2    H114106   1.648   4.721  10.508
    2TMC2    H214107   1.913   0.266  10.535
    2TMC2    C714108   1.772   0.105  10.370
    2TMC2    C814109   1.923   0.269  10.799
    2TMC2    O114110   1.707   0.013  10.319
    2TMC2    O214111   2.002   0.236  10.883
    2TMC2    O514112   1.828   0.364  10.805
    2TMC2    H514113   1.763   0.371  10.733
    3TMC2    C114114   2.090   0.723  10.187
    3TMC2    C214115   2.210   0.760  10.226
    3TMC2    C314116   2.306   0.666  10.228
    3TMC2    C414117   2.071   0.595  10.135
    3TMC2    C514118   2.179   0.506  10.123
    3TMC2    C614119   2.301   0.546  10.162
    3TMC2     C14120   2.000   0.820  10.131
    3TMC2     O14121   2.065   0.902  10.069
    3TMC2     H14122   2.223   0.858  10.273
    3TMC2    H114123   1.980   0.568  10.084
    3TMC2    H214124   2.379   0.471  10.171
    3TMC2    C714125   2.197   0.414  10.004
    3TMC2    C814126   2.440   0.705  10.264
    3TMC2    O114127   2.310   0.422   9.954
    3TMC2    O214128   2.520   0.638  10.333
    3TMC2    O514129   2.471   0.825  10.216
    3TMC2    H514130   2.405   0.872  10.159
    4MPD1     C14131   0.925   1.400  10.203
    4MPD1    C114132   0.947   1.469  10.078
    4MPD1    C214133   0.842   1.498   9.993
    4MPD1    C314134   0.712   1.477  10.035
    4MPD1    C414135   0.695   1.406  10.156
    4MPD1    C514136   0.796   1.372  10.236
    4MPD1     H14137   0.863   1.540   9.896
    4MPD1    H114138   0.596   1.391  10.196
    4MPD1    H214139   1.010   1.378  10.267
    4MPD1    H314140   0.789   1.321  10.331
    4MPD1     N14141   0.598   1.503   9.954
    4MPD1    H514142   0.514   1.455   9.986
    4MPD1    N114143   1.079   1.474  10.029
    4MPD1    H614144   1.101   1.541   9.956
    4MPD1    H714145   1.151   1.476  10.101
    5MPD2     C14146   0.849   0.874   9.496
    5MPD2    C114147   0.950   0.889   9.585
    5MPD2    C214148   0.989   1.015   9.637
    5MPD2    C314149   0.913   1.122   9.591
    5MPD2    C414150   0.823   1.110   9.490
    5MPD2    C514151   0.788   0.983   9.448
    5MPD2     H14152   1.062   1.022   9.717
    5MPD2    H114153   0.768   1.196   9.452
    5MPD2    H214154   0.824   0.772   9.468
    5MPD2    H314155   0.712   0.957   9.375
    5MPD2     N14156   0.951   1.240   9.648
    5MPD2    H514157   1.045   1.243   9.688
    5MPD2    N114158   0.995   0.770   9.646
    5MPD2    H714159   0.962   0.677   9.623
    6MPD2     C14160   0.446   0.843   9.878
    6MPD2    C114161   0.562   0.903   9.922
    6MPD2    C214162   0.667   0.821   9.964
    6MPD2    C314163   0.658   0.683   9.960
    6MPD2    C414164   0.538   0.623   9.919
    6MPD2    C514165   0.432   0.708   9.888
    6MPD2     H14166   0.765   0.866   9.978
    6MPD2    H114167   0.522   0.516   9.916
    6MPD2    H214168   0.364   0.906   9.844
    6MPD2    H314169   0.346   0.669   9.834
    6MPD2     N14170   0.774   0.603   9.972
    6MPD2    H514171   0.788   0.531   9.902
    6MPD2    N114172   0.592   1.037   9.900
    6MPD2    H714173   0.686   1.063   9.927
    7MPD2     C14174   1.573   0.961   9.876
    7MPD2    C114175   1.524   0.868   9.969
    7MPD2    C214176   1.626   0.817  10.056
    7MPD2    C314177   1.762   0.855  10.055
    7MPD2    C414178   1.794   0.950   9.964
    7MPD2    C514179   1.699   1.001   9.876
    7MPD2     H14180   1.607   0.746  10.136
    7MPD2    H114181   1.889   1.000   9.957
    7MPD2    H214182   1.504   1.003   9.803
    7MPD2    H314183   1.740   1.070   9.803
    7MPD2     N14184   1.866   0.789  10.134
    7MPD2    H514185   1.838   0.709  10.190
    7MPD2    N114186   1.399   0.807   9.961
    7MPD2    H714187   1.330   0.844   9.896
    8MPD2     C14188   1.766   0.160  10.064
    8MPD2    C114189   1.851   0.220  10.162
    8MPD2    C214190   1.946   0.302  10.121
    8MPD2    C314191   1.963   0.334   9.984
    8MPD2    C414192   1.867   0.283   9.898
    8MPD2    C514193   1.763   0.208   9.935
    8MPD2     H14194   2.032   0.323  10.184
    8MPD2    H114195   1.873   0.324   9.798
    8MPD2    H214196   1.683   0.102  10.102
    8MPD2    H314197   1.692   0.168   9.864
    8MPD2     N14198   2.081   0.383   9.931
    8MPD2    H514199   2.097   0.362   9.833
    8MPD2    N114200   1.847   0.200  10.305
    8MPD2    H714201   1.897   0.271  10.357
    9MPD2     C14202   1.367   4.455  10.648
    9MPD2    C114203   1.488   4.484  10.708
    9MPD2    C214204   1.566   4.384  10.754
    9MPD2    C314205   1.513   4.256  10.757
    9MPD2    C414206   1.392   4.226  10.690
    9MPD2    C514207   1.310   4.328  10.646
    9MPD2     H14208   1.663   4.406  10.796
    9MPD2    H114209   1.360   4.124  10.671
    9MPD2    H214210   1.315   4.534  10.594
    9MPD2    H314211   1.217   4.312  10.594
    9MPD2     N14212   1.601   4.148  10.789
    9MPD2    H514213   1.690   4.166  10.835
    9MPD2    N114214   1.537   4.619  10.702
    9MPD2    H714215   1.497   4.678  10.630
   10TMC3    C114216   1.007   0.595   9.980
   10TMC3    C214217   1.118   0.628  10.051
   10TMC3    C314218   1.239   0.650   9.985
   10TMC3    C414219   1.009   0.602   9.844
   10TMC3    C514220   1.125   0.643   9.784
   10TMC3    C614221   1.243   0.647   9.849
   10TMC3     C14222   0.887   0.642  10.038
   10TMC3     O14223   0.903   0.734  10.113
   10TMC3     H14224   1.105   0.650  10.156
   10TMC3    H114225   0.916   0.600   9.790
   10TMC3    H214226   1.336   0.652   9.795
   10TMC3    C714227   1.112   0.765   9.715
   10TMC3    C814228   1.352   0.715  10.053
   10TMC3    O114229   1.210   0.846   9.715
   10TMC3    O214230   1.378   0.683  10.171
   11TMC3    C114231   0.555   1.487   9.725
   11TMC3    C214232   0.662   1.464   9.641
   11TMC3    C314233   0.730   1.344   9.657
   11TMC3    C414234   0.485   1.372   9.770
   11TMC3    C514235   0.558   1.256   9.797
   11TMC3    C614236   0.680   1.254   9.737
   11TMC3     C14237   0.602   1.570   9.834
   11TMC3     O14238   0.676   1.659   9.796
   11TMC3     H14239   0.720   1.550   9.608
   11TMC3    H114240   0.390   1.390   9.821
   11TMC3    H214241   0.744   1.176   9.776
   11TMC3    C714242   0.501   1.135   9.851
   11TMC3    C814243   0.875   1.357   9.645
   11TMC3    O114244   0.380   1.131   9.826
   11TMC3    O214245   0.919   1.472   9.639
    1MPD1     C14246   3.993   1.422  12.992
    1MPD1    C114247   3.935   1.465  13.111
    1MPD1    C214248   3.929   1.369  13.212
    1MPD1    C314249   3.959   1.235  13.185
    1MPD1    C414250   3.999   1.194  13.064
    1MPD1    C514251   4.023   1.294  12.974
    1MPD1     H14252   3.900   1.405  13.310
    1MPD1    H114253   4.017   1.094  13.026
    1MPD1    H214254   4.019   1.493  12.914
    1MPD1    H314255   4.056   1.272  12.873
    1MPD1     N14256   3.928   1.139  13.283
    1MPD1    H514257   3.911   1.182  13.374
    1MPD1    N114258   3.916   1.602  13.138
    1MPD1    H614259   3.895   1.657  13.055
    1MPD1    H714260   3.849   1.631  13.209
    2MPD1     C14261   0.029   0.907  13.469
    2MPD1    C114262   4.765   0.784  13.437
    2MPD1    C214263   4.628   0.770  13.430
    2MPD1    C314264   4.545   0.876  13.440
    2MPD1    C414265   4.597   0.995  13.477
    2MPD1    C514266   4.731   1.009  13.489
    2MPD1     H14267   4.579   0.674  13.419
    2MPD1    H114268   4.535   1.082  13.495
    2MPD1    H214269   0.135   0.931  13.478
    2MPD1    H314270   4.767   1.109  13.509
    2MPD1     N14271   4.408   0.863  13.435
    2MPD1    H514272   4.376   0.767  13.427
    2MPD1    N114273   0.051   0.669  13.426
    2MPD1    H614274   0.008   0.621  13.347
    2MPD1    H714275   0.150   0.684  13.408
    3MPD1     C14276   4.124   0.104  13.594
    3MPD1    C114277   3.999   0.151  13.558
    3MPD1    C214278   3.991   0.282  13.533
    3MPD1    C314279   4.098   0.370  13.539
    3MPD1    C414280   4.221   0.316  13.564
    3MPD1    C514281   4.226   0.190  13.596
    3MPD1     H14282   3.891   0.324  13.524
    3MPD1    H114283   4.305   0.384  13.576
    3MPD1    H214284   4.139   0.007  13.641
    3MPD1    H314285   4.318   0.140  13.626
    3MPD1     N14286   4.095   0.510  13.510
    3MPD1    H514287   4.185   0.556  13.508
    3MPD1    N114288   3.879   0.083  13.585
    3MPD1    H614289   3.802   0.125  13.533
    3MPD1    H714290   3.879   4.773  13.587
    4TMC3    C114291   4.175   0.913  13.478
    4TMC3    C214292   4.074   0.994  13.457
    4TMC3    C314293   3.954   0.949  13.411
    4TMC3    C414294   4.149   0.781  13.465
    4TMC3    C514295   4.022   0.732  13.448
    4TMC3    C614296   3.926   0.819  13.405
    4TMC3     C14297   4.313   0.957  13.468
    4TMC3     O14298   4.327   1.076  13.486
    4TMC3     H14299   4.100   1.099  13.468
    4TMC3    H114300   4.231   0.716  13.492
    4TMC3    H214301   3.829   0.789  13.369
    4TMC3    C714302   3.986   0.586  13.476
    4TMC3    C814303   3.940   1.005  13.276
    4TMC3    O114304   3.864   0.560  13.473
    4TMC3    O214305   3.958   0.933  13.179
    1TMC1    C114306   0.524   0.917   8.595
    1TMC1    C214307   0.468   0.988   8.493
    1TMC1    C314308   0.343   0.955   8.454
    1TMC1    C414309   0.457   0.816   8.660
    1TMC1    C514310   0.329   0.786   8.622
    1TMC1    C614311   0.267   0.855   8.522
    1TMC1     C14312   0.669   0.921   8.603
    1TMC1     O14313   0.716   0.864   8.699
    1TMC1     H14314   0.518   1.072   8.446
    1TMC1    H114315   0.496   0.758   8.743
    1TMC1    H214316   0.163   0.827   8.508
    1TMC1    C714317   0.269   0.680   8.699
    1TMC1    C814318   0.296   1.019   8.331
    1TMC1    O114319   0.151   0.653   8.699
    1TMC1    O214320   0.351   1.116   8.285
    1TMC1    O314321   0.361   0.582   8.687
    1TMC1    H314322   0.445   0.601   8.641
    1TMC1    O514323   0.161   1.008   8.352
    1TMC1    H514324   0.107   1.045   8.279
    2MPD1     C14325   1.100   0.799   8.349
    2MPD1    C114326   1.018   0.869   8.264
    2MPD1    C214327   0.897   0.914   8.310
    2MPD1    C314328   0.858   0.899   8.442
    2MPD1    C414329   0.945   0.839   8.529
    2MPD1    C514330   1.061   0.782   8.479
    2MPD1     H14331   0.824   0.965   8.248
    2MPD1    H114332   0.922   0.833   8.635
    2MPD1    H214333   1.185   0.748   8.305
    2MPD1    H314334   1.125   0.731   8.550
    2MPD1     N14335   0.727   0.936   8.473
    2MPD1    H514336   0.656   0.959   8.404
    2MPD1    N114337   1.049   0.882   8.126
    2MPD1    H614338   0.978   0.942   8.084
    2MPD1    H714339   1.148   0.892   8.104
    1TMC1    C114340   3.971   2.056  14.854
    1TMC1    C214341   3.907   2.094  14.736
    1TMC1    C314342   3.963   2.056  14.620
    1TMC1    C414343   4.093   2.014  14.853
    1TMC1    C514344   4.163   2.001  14.731
    1TMC1    C614345   4.095   2.022  14.611
    1TMC1     C14346   3.934   2.134  14.979
    1TMC1     O14347   4.026   2.157  15.061
    1TMC1     H14348   3.803   2.124  14.729
    1TMC1    H114349   4.153   1.999  14.943
    1TMC1    H214350   4.137   1.985  14.518
    1TMC1    C714351   4.303   1.980  14.742
    1TMC1    C814352   3.897   2.098  14.497
    1TMC1    O114353   4.365   1.942  14.839
    1TMC1    O214354   3.787   2.154  14.499
    1TMC1    O314355   4.354   2.035  14.631
    1TMC1    H314356   4.301   2.109  14.595
    1TMC1    O514357   3.979   2.081  14.390
    1TMC1    H514358   3.925   2.118  14.317
    2MPD1     C14359   3.690   2.551  15.172
    2MPD1    C114360   3.625   2.502  15.063
    2MPD1    C214361   3.665   2.382  15.000
    2MPD1    C314362   3.779   2.317  15.042
    2MPD1    C414363   3.845   2.374  15.150
    2MPD1    C514364   3.797   2.483  15.223
    2MPD1     H14365   3.610   2.350  14.912
    2MPD1    H114366   3.929   2.321  15.194
    2MPD1    H214367   3.656   2.641  15.222
    2MPD1    H314368   3.849   2.518  15.311
    2MPD1     N14369   3.818   2.201  14.968
    2MPD1    H514370   3.747   2.173  14.901
    2MPD1    N114371   3.501   2.554  15.026
    2MPD1    H614372   3.491   2.652  15.054
    2MPD1    H714373   3.482   2.535  14.928
    1MPD1     C14374   1.461   0.994   9.500
    1MPD1    C114375   1.458   1.116   9.440
    1MPD1    C214376   1.579   1.176   9.399
    1MPD1    C314377   1.702   1.125   9.448
    1MPD1    C414378   1.703   1.006   9.517
    1MPD1    C514379   1.584   0.949   9.540
    1MPD1     H14380   1.578   1.265   9.338
    1MPD1    H114381   1.795   0.958   9.549
    1MPD1    H214382   1.372   0.942   9.534
    1MPD1    H314383   1.593   0.851   9.586
    1MPD1     N14384   1.819   1.189   9.405
    1MPD1    H514385   1.802   1.262   9.337
    1MPD1    N114386   1.335   1.169   9.388
    1MPD1    H614387   1.345   1.269   9.374
    1MPD1    H714388   1.247   1.138   9.430
    2MPD1     C14389   1.755   1.509   8.817
    2MPD1    C114390   1.715   1.561   8.695
    2MPD1    C214391   1.773   1.501   8.588
    2MPD1    C314392   1.872   1.403   8.597
    2MPD1    C414393   1.910   1.356   8.724
    2MPD1    C514394   1.856   1.417   8.833
    2MPD1     H14395   1.746   1.543   8.492
    2MPD1    H114396   1.993   1.288   8.732
    2MPD1    H214397   1.708   1.548   8.907
    2MPD1    H314398   1.878   1.389   8.936
    2MPD1     N14399   1.927   1.337   8.488
    2MPD1    H514400   2.009   1.280   8.507
    2MPD1    N114401   1.625   1.671   8.683
    2MPD1    H614402   1.562   1.675   8.763
    2MPD1    H714403   1.574   1.665   8.596
    3MPD1     C14404   2.221   1.878   7.803
    3MPD1    C114405   2.303   1.830   7.898
    3MPD1    C214406   2.282   1.699   7.949
    3MPD1    C314407   2.175   1.622   7.905
    3MPD1    C414408   2.100   1.670   7.800
    3MPD1    C514409   2.120   1.803   7.762
    3MPD1     H14410   2.349   1.660   8.025
    3MPD1    H114411   2.021   1.610   7.757
    3MPD1    H214412   2.237   1.976   7.760
    3MPD1    H314413   2.072   1.850   7.677
    3MPD1     N14414   2.152   1.496   7.961
    3MPD1    H514415   2.229   1.464   8.020
    3MPD1    N114416   2.421   1.898   7.922
    3MPD1    H614417   2.399   1.995   7.941
    3MPD1    H714418   2.477   1.862   7.999
    4MPD2     C14419   2.246   1.789   9.187
    4MPD2    C114420   2.269   1.671   9.125
    4MPD2    C214421   2.381   1.660   9.048
    4MPD2    C314422   2.474   1.766   9.030
    4MPD2    C414423   2.454   1.881   9.099
    4MPD2    C514424   2.342   1.892   9.176
    4MPD2     H14425   2.402   1.565   9.000
    4MPD2    H114426   2.513   1.969   9.076
    4MPD2    H214427   2.159   1.808   9.249
    4MPD2    H314428   2.326   1.989   9.222
    4MPD2     N14429   2.596   1.750   8.962
    4MPD2    H514430   2.671   1.810   8.997
    4MPD2    N114431   2.181   1.563   9.119
    4MPD2    H714432   2.225   1.479   9.082
    5MPD2     C14433   2.767   1.296   9.317
    5MPD2    C114434   2.728   1.299   9.188
    5MPD2    C214435   2.594   1.263   9.163
    5MPD2    C314436   2.503   1.219   9.258
    5MPD2    C414437   2.560   1.210   9.387
    5MPD2    C514438   2.693   1.235   9.410
    5MPD2     H14439   2.563   1.263   9.060
    5MPD2    H114440   2.506   1.178   9.475
    5MPD2    H214441   2.859   1.349   9.341
    5MPD2    H314442   2.738   1.227   9.508
    5MPD2     N14443   2.366   1.202   9.241
    5MPD2    H514444   2.303   1.187   9.320
    5MPD2    N114445   2.820   1.333   9.094
    5MPD2    H714446   2.904   1.382   9.127
    6MPD2     C14447   2.648   1.028   8.622
    6MPD2    C114448   2.655   1.146   8.558
    6MPD2    C214449   2.546   1.177   8.473
    6MPD2    C314450   2.447   1.085   8.442
    6MPD2    C414451   2.438   0.967   8.514
    6MPD2    C514452   2.540   0.945   8.603
    6MPD2     H14453   2.535   1.275   8.427
    6MPD2    H114454   2.368   0.886   8.499
    6MPD2    H214455   2.719   0.990   8.695
    6MPD2    H314456   2.536   0.851   8.656
    6MPD2     N14457   2.333   1.104   8.361
    6MPD2    H514458   2.256   1.047   8.395
    6MPD2    N114459   2.751   1.240   8.601
    6MPD2    H714460   2.777   1.213   8.695
    7TMC3    C114461   2.015   1.412   9.179
    7TMC3    C214462   2.084   1.334   9.095
    7TMC3    C314463   2.150   1.225   9.156
    7TMC3    C414464   1.980   1.364   9.301
    7TMC3    C514465   2.034   1.252   9.358
    7TMC3    C614466   2.119   1.176   9.285
    7TMC3     C14467   2.072   1.545   9.194
    7TMC3     O14468   2.015   1.624   9.268
    7TMC3     H14469   2.115   1.376   9.000
    7TMC3    H114470   1.938   1.438   9.367
    7TMC3    H214471   2.152   1.076   9.312
    7TMC3    C714472   1.949   1.163   9.435
    7TMC3    C814473   2.295   1.233   9.127
    7TMC3    O114474   1.998   1.072   9.501
    7TMC3    O214475   2.334   1.308   9.036
    8TMC3    C114476   1.964   1.278   8.266
    8TMC3    C214477   1.939   1.333   8.140
    8TMC3    C314478   2.040   1.312   8.049
    8TMC3    C414479   2.083   1.220   8.308
    8TMC3    C514480   2.184   1.226   8.219
    8TMC3    C614481   2.165   1.262   8.087
    8TMC3     C14482   1.881   1.346   8.361
    8TMC3     O14483   1.784   1.402   8.308
    8TMC3     H14484   1.845   1.373   8.104
    8TMC3    H114485   2.098   1.172   8.405
    8TMC3    H214486   2.254   1.253   8.026
    8TMC3    C714487   2.319   1.196   8.264
    8TMC3    C814488   2.041   1.419   7.952
    8TMC3    O114489   2.407   1.263   8.217
    8TMC3    O214490   1.936   1.456   7.900
    9TMC3    C114491   2.872   1.433   8.894
    9TMC3    C214492   2.890   1.389   8.764
    9TMC3    C314493   2.824   1.458   8.661
    9TMC3    C414494   2.817   1.557   8.920
    9TMC3    C514495   2.744   1.623   8.820
    9TMC3    C614496   2.752   1.575   8.689
    9TMC3     C14497   2.800   1.333   8.957
    9TMC3     O14498   2.731   1.266   8.878
    9TMC3     H14499   2.938   1.295   8.740
    9TMC3    H114500   2.789   1.585   9.021
    9TMC3    H214501   2.685   1.628   8.622
    9TMC3    C714502   2.609   1.659   8.856
    9TMC3    C814503   2.769   1.371   8.553
    9TMC3    O114504   2.520   1.610   8.786
    9TMC3    O214505   2.723   1.427   8.454
    1TMC2    C114506   2.457   0.112  12.524
    1TMC2    C214507   2.405   0.237  12.516
    1TMC2    C314508   2.472   0.336  12.570
    1TMC2    C414509   2.578   0.087  12.584
    1TMC2    C514510   2.646   0.194  12.640
    1TMC2    C614511   2.594   0.316  12.633
    1TMC2     C14512   2.412   0.010  12.430
    1TMC2     O14513   2.440   4.686  12.462
    1TMC2     H14514   2.323   0.248  12.445
    1TMC2    H114515   2.614   4.776  12.583
    1TMC2    H214516   2.636   0.401  12.686
    1TMC2    C714517   2.790   0.207  12.611
    1TMC2    C814518   2.479   0.448  12.485
    1TMC2    O114519   2.813   0.316  12.563
    1TMC2    O214520   2.389   0.492  12.419
    1TMC2    O514521   2.608   0.463  12.442
    1TMC2    H514522   2.669   0.397  12.482
    2MPD1     C14523   2.460   4.632  11.938
    2MPD1    C114524   2.456   4.771  11.940
    2MPD1    C214525   2.437   0.047  12.062
    2MPD1    C314526   2.420   4.771  12.181
    2MPD1    C414527   2.429   4.632  12.176
    2MPD1    C514528   2.460   4.563  12.059
    2MPD1     H14529   2.437   0.154  12.077
    2MPD1    H114530   2.415   4.573  12.266
    2MPD1    H214531   2.468   4.580  11.844
    2MPD1    H314532   2.471   4.455  12.065
    2MPD1     N14533   2.402   0.060  12.302
    2MPD1    H514534   2.413   0.160  12.289
    2MPD1    N114535   2.456   0.049  11.817
    2MPD1    H614536   2.508   4.784  11.751
    2MPD1    H714537   2.492   0.144  11.812
    3MPD1     C14538   3.239   0.014  12.459
    3MPD1    C114539   3.186   0.136  12.425
    3MPD1    C214540   3.056   0.153  12.475
    3MPD1    C314541   3.000   0.069  12.572
    3MPD1    C414542   3.064   4.748  12.605
    3MPD1    C514543   3.182   4.716  12.541
    3MPD1     H14544   2.998   0.238  12.443
    3MPD1    H114545   3.021   4.670  12.667
    3MPD1    H214546   3.333   4.770  12.418
    3MPD1    H314547   3.236   4.626  12.571
    3MPD1     N14548   2.868   0.094  12.620
    3MPD1    H514549   2.836   0.014  12.673
    3MPD1    N114550   3.246   0.217  12.333
    3MPD1    H614551   3.220   0.314  12.352
    3MPD1    H714552   3.345   0.215  12.353
    1TMC1    C114553   0.447   3.785   9.921
    1TMC1    C214554   0.367   3.857   9.998
    1TMC1    C314555   0.240   3.821  10.024
    1TMC1    C414556   0.404   3.665   9.876
    1TMC1    C514557   0.270   3.632   9.901
    1TMC1    C614558   0.185   3.710   9.968
    1TMC1     C14559   0.567   3.846   9.876
    1TMC1     O14560   0.581   3.876   9.759
    1TMC1     H14561   0.402   3.945  10.049
    1TMC1    H114562   0.469   3.607   9.810
    1TMC1    H214563   0.078   3.698   9.958
    1TMC1    C714564   0.207   3.506   9.860
    1TMC1    C814565   0.153   3.930  10.048
    1TMC1    O114566   0.085   3.498   9.840
    1TMC1    O214567   0.189   4.049  10.055
    1TMC1    O314568   0.301   3.415   9.829
    1TMC1    H314569   0.384   3.437   9.877
    1TMC1    O514570   0.042   3.890  10.113
    1TMC1    H514571   0.031   3.793  10.122
    2TMC1    C114572   1.178   3.988  10.429
    2TMC1    C214573   1.270   3.904  10.479
    2TMC1    C314574   1.248   3.864  10.614
    2TMC1    C414575   1.080   4.047  10.505
    2TMC1    C514576   1.067   4.007  10.640
    2TMC1    C614577   1.152   3.918  10.695
    2TMC1     C14578   1.154   3.977  10.283
    2TMC1     O14579   1.243   3.958  10.200
    2TMC1     H14580   1.340   3.872  10.403
    2TMC1    H114581   1.005   4.114  10.463
    2TMC1    H214582   1.147   3.897  10.802
    2TMC1    C714583   0.993   4.106  10.729
    2TMC1    C814584   1.314   3.744  10.658
    2TMC1    O114585   0.956   4.214  10.683
    2TMC1    O214586   1.270   3.666  10.741
    2TMC1    O314587   1.032   4.087  10.860
    2TMC1    H314588   1.059   3.997  10.890
    2TMC1    O514589   1.427   3.735  10.580
    2TMC1    H514590   1.453   3.822  10.544
    3MPD2     C14591   0.848   3.956   9.863
    3MPD2    C114592   0.776   3.921   9.983
    3MPD2    C214593   0.835   3.950  10.103
    3MPD2    C314594   0.965   3.999  10.115
    3MPD2    C414595   1.036   4.030  10.000
    3MPD2    C514596   0.977   4.015   9.874
    3MPD2     H14597   0.787   3.915  10.193
    3MPD2    H114598   1.137   4.068   9.998
    3MPD2    H214599   0.809   3.925   9.767
    3MPD2    H314600   1.027   4.032   9.780
    3MPD2     N14601   1.021   4.002  10.247
    3MPD2    H514602   0.956   3.987  10.324
    3MPD2    N114603   0.644   3.873   9.987
    3MPD2    H714604   0.604   3.861  10.080
    1TMC1    C114605   4.712   0.464  10.795
    1TMC1    C214606   4.671   0.515  10.912
    1TMC1    C314607   4.770   0.512  11.009
    1TMC1    C414608   0.047   0.413  10.762
    1TMC1    C514609   0.135   0.396  10.868
    1TMC1    C614610   0.103   0.448  10.995
    1TMC1     C14611   4.638   0.511  10.680
    1TMC1     O14612   4.712   0.554  10.591
    1TMC1     H14613   4.580   0.573  10.925
    1TMC1    H114614   0.071   0.387  10.659
    1TMC1    H214615   0.181   0.462  11.069
    1TMC1    C714616   0.273   0.373  10.820
    1TMC1    C814617   4.741   0.585  11.126
    1TMC1    O114618   0.284   0.389  10.697
    1TMC1    O214619   4.629   0.616  11.157
    1TMC1    O314620   0.348   0.433  10.912
    1TMC1    H314621   0.347   0.382  10.996
    1TMC1    O514622   0.047   0.570  11.215
    1TMC1    H514623   0.138   0.576  11.181
    2TMC2    C114624   4.524   4.761  10.864
    2TMC2    C214625   4.533   4.690  10.980
    2TMC2    C314626   4.543   4.754  11.102
    2TMC2    C414627   4.539   0.108  10.871
    2TMC2    C514628   4.543   0.171  10.993
    2TMC2    C614629   4.556   0.098  11.109
    2TMC2     C14630   4.397   4.747  10.783
    2TMC2     O14631   4.367   0.040  10.700
    2TMC2     H14632   4.515   4.583  10.981
    2TMC2    H114633   4.534   0.171  10.783
    2TMC2    H214634   4.572   0.135  11.209
    2TMC2    C714635   4.447   0.281  11.001
    2TMC2    C814636   4.598   4.673  11.214
    2TMC2    O114637   4.409   0.332  10.896
    2TMC2    O214638   4.561   4.697  11.326
    2TMC2    O514639   4.653   4.558  11.162
    2TMC2    H514640   4.675   4.562  11.067
    3MPD2     C14641   4.440   0.529  10.455
    3MPD2    C114642   4.411   0.498  10.589
    3MPD2    C214643   4.284   0.460  10.612
    3MPD2    C314644   4.190   0.451  10.514
    3MPD2    C414645   4.220   0.479  10.381
    3MPD2    C514646   4.347   0.530  10.358
    3MPD2     H14647   4.251   0.437  10.712
    3MPD2    H114648   4.145   0.499  10.306
    3MPD2    H214649   4.538   0.567  10.428
    3MPD2    H314650   4.380   0.560  10.259
    3MPD2     N14651   4.059   0.436  10.562
    3MPD2    H514652   4.052   0.404  10.658
    3MPD2    N114653   4.507   0.486  10.691
    3MPD2    H714654   4.472   0.444  10.776
    4MPD2     C14655   4.049   0.522  11.199
    4MPD2    C114656   4.065   0.448  11.087
    4MPD2    C214657   4.178   0.372  11.064
    4MPD2    C314658   4.281   0.382  11.155
    4MPD2    C414659   4.261   0.449  11.273
    4MPD2    C514660   4.143   0.515  11.298
    4MPD2     H14661   4.189   0.307  10.978
    4MPD2    H114662   4.334   0.449  11.353
    4MPD2    H214663   3.960   0.581  11.215
    4MPD2    H314664   4.119   0.567  11.390
    4MPD2     N14665   4.409   0.325  11.132
    4MPD2    H514666   4.470   0.296  11.208
    4MPD2    N114667   3.948   0.439  11.011
    4MPD2    H714668   3.869   0.489  11.051
    5MPD2     C14669   4.125   4.516  10.828
    5MPD2    C114670   4.182   4.636  10.812
    5MPD2    C214671   4.108   4.748  10.800
    5MPD2    C314672   3.975   4.742  10.760
    5MPD2    C414673   3.911   4.620  10.759
    5MPD2    C514674   3.985   4.511  10.810
    5MPD2     H14675   4.159   0.052  10.809
    5MPD2    H114676   3.808   4.611  10.727
    5MPD2    H214677   4.181   4.425  10.848
    5MPD2    H314678   3.938   4.413  10.813
    5MPD2     N14679   3.902   0.071  10.727
    5MPD2    H514680   3.949   0.156  10.755
    5MPD2    N114681   4.321   4.643  10.831
    5MPD2    H714682   4.352   4.563  10.884
    6TMC3    C114683   3.815   0.391  10.817
    6TMC3    C214684   3.748   0.273  10.811
    6TMC3    C314685   3.736   0.215  10.689
    6TMC3    C414686   3.852   0.462  10.701
    6TMC3    C514687   3.830   0.400  10.579
    6TMC3    C614688   3.781   0.273  10.570
    6TMC3     C14689   3.933   0.365  10.894
    6TMC3     O14690   4.017   0.298  10.836
    6TMC3     H14691   3.732   0.221  10.904
    6TMC3    H114692   3.905   0.556  10.705
    6TMC3    H214693   3.774   0.215  10.478
    6TMC3    C714694   3.943   0.426  10.486
    6TMC3    C814695   3.769   0.079  10.697
    6TMC3    O114696   3.919   0.434  10.367
    6TMC3    O214697   3.685   0.002  10.650
  958TMC0    C114698   3.437   1.737  15.164
  958TMC0    C214699   3.349   1.669  15.247
  958TMC0    C314700   3.380   1.538  15.270
  958TMC0    C414701   3.540   1.672  15.090
  958TMC0    C514702   3.567   1.548  15.123
  958TMC0    C614703   3.489   1.478  15.211
  958TMC0     C14704   3.397   1.874  15.122
  958TMC0     O14705   3.480   1.957  15.088
  958TMC0     H14706   3.269   1.716  15.302
  958TMC0    H114707   3.602   1.726  15.020
  958TMC0    H214708   3.517   1.376  15.236
  958TMC0    C714709   3.690   1.492  15.064
  958TMC0    C814710   3.324   1.472  15.387
  958TMC0    O114711   3.696   1.374  15.028
  958TMC0    O214712   3.303   1.539  15.485
  958TMC0    O314713   3.791   1.575  15.102
  958TMC0    H314714   3.770   1.653  15.158
  958TMC0    O414715   3.259   1.900  15.102
  958TMC0    H414716   3.193   1.829  15.121
  958TMC0    O514717   3.231   1.396  15.327
  958TMC0    H514718   3.270   1.347  15.251
  959TMC0    C114719   3.699   0.529   6.301
  959TMC0    C214720   3.579   0.518   6.360
  959TMC0    C314721   3.570   0.546   6.490
  959TMC0    C414722   3.819   0.560   6.371
  959TMC0    C514723   3.792   0.606   6.503
  959TMC0    C614724   3.677   0.588   6.566
  959TMC0     C14725   3.728   0.479   6.169
  959TMC0     O14726   3.842   0.484   6.123
  959TMC0     H14727   3.485   0.511   6.308
  959TMC0    H114728   3.913   0.574   6.319
  959TMC0    H214729   3.657   0.606   6.671
  959TMC0    C714730   3.898   0.690   6.559
  959TMC0    C814731   3.437   0.582   6.535
  959TMC0    O114732   4.006   0.693   6.513
  959TMC0    O214733   3.344   0.603   6.457
  959TMC0    O314734   3.873   0.734   6.686
  959TMC0    H314735   3.776   0.743   6.695
  959TMC0    O414736   3.614   0.485   6.091
  959TMC0    H414737   3.532   0.505   6.141
  959TMC0    O514738   3.421   0.540   6.663
  959TMC0    H514739   3.497   0.520   6.720
  960TMC0    C114740   3.654   4.391   9.084
  960TMC0    C214741   3.679   4.458   8.972
  960TMC0    C314742   3.599   4.438   8.858
  960TMC0    C414743   3.564   4.285   9.090
  960TMC0    C514744   3.474   4.287   8.989
  960TMC0    C614745   3.492   4.349   8.871
  960TMC0     C14746   3.762   4.400   9.180
  960TMC0     O14747   3.880   4.408   9.152
  960TMC0     H14748   3.766   4.524   8.970
  960TMC0    H114749   3.541   4.233   9.182
  960TMC0    H214750   3.429   4.333   8.785
  960TMC0    C714751   3.378   4.185   8.985
  960TMC0    C814752   3.577   4.541   8.755
  960TMC0    O114753   3.420   4.074   8.971
  960TMC0    O214754   3.464   4.587   8.753
  960TMC0    O314755   3.312   4.219   9.099
  960TMC0    H314756   3.275   4.310   9.095
  960TMC0    O414757   3.717   4.376   9.301
  960TMC0    H414758   3.621   4.384   9.321
  960TMC0    O514759   3.690   4.607   8.746
  960TMC0    H514760   3.765   4.544   8.741
  961SOL     OW14761   2.064   3.287   2.008
  961SOL    HW114762   2.051   3.367   1.957
  961SOL    HW214763   2.038   3.216   1.948
  962SOL     OW14764   3.179   0.553  15.617
  962SOL    HW114765   3.269   0.557  15.649
  962SOL    HW214766   3.141   0.637  15.642
  963SOL     OW14767   0.624   3.319   6.071
  963SOL    HW114768   0.593   3.308   5.982
  963SOL    HW214769   0.557   3.280   6.126
  964SOL     OW14770   3.120   0.755   6.519
  964SOL    HW114771   3.194   0.695   6.504
  964SOL    HW214772   3.117   0.809   6.440
  965SOL     OW14773   4.241   4.510  17.947
  965SOL    HW114774   4.293   4.487  17.869
  965SOL    HW214775   4.173   4.568  17.913
  966SOL     OW14776   4.601   0.860  15.015
  966SOL    HW114777   4.608   0.953  15.036
  966SOL    HW214778   4.532   0.855  14.948
  967SOL     OW14779   2.834   1.323   5.817
  967SOL    HW114780   2.773   1.379   5.865
  967SOL    HW214781   2.901   1.382   5.784
  968SOL     OW14782   2.968   4.187  13.416
  968SOL    HW114783   2.873   4.184  13.407
  968SOL    HW214784   2.984   4.165  13.508
  969SOL     OW14785   4.081   2.592   6.854
  969SOL    HW114786   4.001   2.577   6.905
  969SOL    HW214787   4.072   2.534   6.778
  970SOL     OW14788   1.818   1.804  13.450
  970SOL    HW114789   1.813   1.890  13.494
  970SOL    HW214790   1.838   1.743  13.521
  971SOL     OW14791   1.255   1.113  17.455
  971SOL    HW114792   1.336   1.067  17.431
  971SOL    HW214793   1.206   1.120  17.373
  972SOL     OW14794   2.544   2.668   2.247
  972SOL    HW114795   2.557   2.574   2.257
  972SOL    HW214796   2.449   2.679   2.241
  973SOL     OW14797   4.251   2.000   1.510
  973SOL    HW114798   4.297   1.964   1.586
  973SOL    HW214799   4.159   2.001   1.536
  974SOL     OW14800   2.978   1.034   6.683
  974SOL    HW114801   3.044   1.083   6.633
  974SOL    HW214802   2.894   1.069   6.652
  975SOL     OW14803   2.885   2.200   6.827
  975SOL    HW114804   2.811   2.232   6.879
  975SOL    HW214805   2.857   2.209   6.736
  976SOL     OW14806   1.042   3.477   6.153
  976SOL    HW114807   1.115   3.479   6.215
  976SOL    HW214808   0.964   3.484   6.208
  977SOL     OW14809   3.350   2.140   6.121
  977SOL    HW114810   3.419   2.203   6.097
  977SOL    HW214811   3.296   2.133   6.042
  978SOL     OW14812   3.669   0.706  20.424
  978SOL    HW114813   3.605   0.718  20.494
  978SOL    HW214814   3.747   0.752  20.454
  979SOL     OW14815   1.443   3.169  20.010
  979SOL    HW114816   1.361   3.212  20.031
  979SOL    HW214817   1.506   3.240  19.998
  980SOL     OW14818   3.068   3.436  16.653
  980SOL    HW114819   3.095   3.345  16.640
  980SOL    HW214820   3.049   3.442  16.746
  981SOL     OW14821   1.047   1.518  16.491
  981SOL    HW114822   0.961   1.475  16.490
  981SOL    HW214823   1.062   1.538  16.583
  982SOL     OW14824   3.843   4.267  17.915
  982SOL    HW114825   3.868   4.336  17.853
  982SOL    HW214826   3.797   4.312  17.985
  983SOL     OW14827   2.645   4.386   2.838
  983SOL    HW114828   2.624   4.439   2.761
  983SOL    HW214829   2.575   4.407   2.900
  984SOL     OW14830   0.353   2.378  20.176
  984SOL    HW114831   0.266   2.338  20.183
  984SOL    HW214832   0.336   2.472  20.176
  985SOL     OW14833   0.314   2.061   3.930
  985SOL    HW114834   0.377   1.996   3.960
  985SOL    HW214835   0.262   2.015   3.864
  986SOL     OW14836   4.480   1.802  17.910
  986SOL    HW114837   4.534   1.774  17.837
  986SOL    HW214838   4.413   1.734  17.919
  987SOL     OW14839   3.768   2.140  19.445
  987SOL    HW114840   3.695   2.173  19.498
  987SOL    HW214841   3.745   2.050  19.425
  988SOL     OW14842   4.116   0.963  15.447
  988SOL    HW114843   4.148   0.971  15.537
  988SOL    HW214844   4.084   0.872  15.441
  989SOL     OW14845   1.154   4.025  17.365
  989SOL    HW114846   1.193   4.007  17.279
  989SOL    HW214847   1.061   4.005  17.354
  990SOL     OW14848   1.628   0.565  19.272
  990SOL    HW114849   1.616   0.471  19.257
  990SOL    HW214850   1.696   0.591  19.209
  991SOL     OW14851   4.610   2.420   3.044
  991SOL    HW114852   4.630   2.511   3.021
  991SOL    HW214853   4.514   2.418   3.052
  992SOL     OW14854   3.625   1.784  16.132
  992SOL    HW114855   3.706   1.753  16.174
  992SOL    HW214856   3.651   1.807  16.043
  993SOL     OW14857   2.527   1.360  21.013
  993SOL    HW114858   2.480   1.380  20.932
  993SOL    HW214859   2.517   1.266  21.024
  994SOL     OW14860   4.586   0.521  19.427
  994SOL    HW114861   4.654   0.462  19.394
  994SOL    HW214862   4.549   0.562  19.348
  995SOL     OW14863   3.351   0.729   6.951
  995SOL    HW114864   3.318   0.797   6.892
  995SOL    HW214865   3.274   0.677   6.974
  996SOL     OW14866   0.090   1.804  17.291
  996SOL    HW114867   4.790   1.809  17.322
  996SOL    HW214868   0.123   1.893  17.301
  997SOL     OW14869   2.751   0.517  19.121
  997SOL    HW114870   2.688   0.550  19.183
  997SOL    HW214871   2.834   0.514  19.169
  998SOL     OW14872   2.021   3.132  19.185
  998SOL    HW114873   2.111   3.099  19.187
  998SOL    HW214874   1.988   3.119  19.274
  999SOL     OW14875   2.951   2.802  16.755
  999SOL    HW114876   2.999   2.852  16.821
  999SOL    HW214877   3.012   2.795  16.681
 1000SOL     OW14878   1.770   1.905  20.111
 1000SOL    HW114879   1.707   1.963  20.154
 1000SOL    HW214880   1.848   1.909  20.167
 1001SOL     OW14881   2.616   2.462  17.036
 1001SOL    HW114882   2.559   2.536  17.055
 1001SOL    HW214883   2.577   2.421  16.958
 1002SOL     OW14884   0.969   4.341  15.769
 1002SOL    HW114885   0.914   4.417  15.786
 1002SOL    HW214886   0.948   4.316  15.679
 1003SOL     OW14887   0.446   4.144  18.434
 1003SOL    HW114888   0.505   4.092  18.490
 1003SOL    HW214889   0.500   4.167  18.358
 1004SOL     OW14890   2.447   3.285  18.169
 1004SOL    HW114891   2.437   3.196  18.134
 1004SOL    HW214892   2.505   3.329  18.107
 1005SOL     OW14893   2.411   1.393   3.560
 1005SOL    HW114894   2.320   1.384   3.591
 1005SOL    HW214895   2.462   1.400   3.641
 1006SOL     OW14896   3.537   4.726  21.235
 1006SOL    HW114897   3.445   4.751  21.230
 1006SOL    HW214898   3.549   4.668  21.160
 1007SOL     OW14899   0.967   1.490  20.407
 1007SOL    HW114900   0.975   1.398  20.384
 1007SOL    HW214901   0.966   1.492  20.503
 1008SOL     OW14902   3.724   4.209   2.149
 1008SOL    HW114903   3.717   4.151   2.224
 1008SOL    HW214904   3.782   4.280   2.179
 1009SOL     OW14905   4.529   3.944  17.573
 1009SOL    HW114906   4.550   3.852  17.558
 1009SOL    HW214907   4.613   3.990  17.566
 1010SOL     OW14908   2.796   2.152   1.501
 1010SOL    HW114909   2.873   2.208   1.495
 1010SOL    HW214910   2.831   2.063   1.504
 1011SOL     OW14911   4.350   3.365   2.277
 1011SOL    HW114912   4.311   3.284   2.311
 1011SOL    HW214913   4.308   3.379   2.193
 1012SOL     OW14914   3.282   1.671   2.930
 1012SOL    HW114915   3.372   1.689   2.904
 1012SOL    HW214916   3.229   1.706   2.858
 1013SOL     OW14917   4.276   2.863   1.914
 1013SOL    HW114918   4.234   2.827   1.992
 1013SOL    HW214919   4.260   2.798   1.846
 1014SOL     OW14920   0.381   0.692   5.147
 1014SOL    HW114921   0.439   0.704   5.071
 1014SOL    HW214922   0.328   0.772   5.150
 1015SOL     OW14923   0.215   2.875  20.822
 1015SOL    HW114924   0.220   2.948  20.884
 1015SOL    HW214925   0.306   2.850  20.807
 1016SOL     OW14926   1.133   2.425   4.361
 1016SOL    HW114927   1.218   2.383   4.346
 1016SOL    HW214928   1.070   2.369   4.316
 1017SOL     OW14929   3.276   2.220   0.554
 1017SOL    HW114930   3.301   2.302   0.598
 1017SOL    HW214931   3.190   2.198   0.591
 1018SOL     OW14932   3.471   3.822  17.683
 1018SOL    HW114933   3.384   3.782  17.690
 1018SOL    HW214934   3.470   3.866  17.598
 1019SOL     OW14935   4.036   4.754  19.292
 1019SOL    HW114936   4.096   4.702  19.346
 1019SOL    HW214937   4.092   0.000  19.224
 1020SOL     OW14938   3.267   2.753   4.301
 1020SOL    HW114939   3.244   2.721   4.388
 1020SOL    HW214940   3.233   2.842   4.297
 1021SOL     OW14941   0.226   4.048  15.167
 1021SOL    HW114942   0.264   4.127  15.130
 1021SOL    HW214943   0.131   4.058  15.154
 1022SOL     OW14944   3.388   2.926   5.233
 1022SOL    HW114945   3.462   2.975   5.199
 1022SOL    HW214946   3.342   2.893   5.155
 1023SOL     OW14947   3.445   4.023  16.833
 1023SOL    HW114948   3.359   4.055  16.859
 1023SOL    HW214949   3.493   4.101  16.807
 1024SOL     OW14950   3.449   2.751  15.447
 1024SOL    HW114951   3.430   2.669  15.402
 1024SOL    HW214952   3.407   2.818  15.393
 1025SOL     OW14953   0.853   1.335   5.838
 1025SOL    HW114954   0.924   1.271   5.844
 1025SOL    HW214955   0.848   1.356   5.745
 1026SOL     OW14956   2.017   1.344  20.088
 1026SOL    HW114957   1.950   1.279  20.064
 1026SOL    HW214958   1.968   1.425  20.102
 1027SOL     OW14959   0.290   0.200   5.559
 1027SOL    HW114960   0.269   0.269   5.622
 1027SOL    HW214961   0.258   0.234   5.475
 1028SOL     OW14962   1.834   3.166   4.948
 1028SOL    HW114963   1.819   3.218   5.027
 1028SOL    HW214964   1.773   3.203   4.884
 1029SOL     OW14965   2.029   2.387   6.110
 1029SOL    HW114966   1.982   2.464   6.078
 1029SOL    HW214967   2.090   2.365   6.040
 1030SOL     OW14968   1.622   4.246   3.003
 1030SOL    HW114969   1.542   4.197   2.988
 1030SOL    HW214970   1.638   4.293   2.921
 1031SOL     OW14971   4.036   3.842   2.814
 1031SOL    HW114972   4.046   3.819   2.721
 1031SOL    HW214973   3.978   3.775   2.849
 1032SOL     OW14974   0.395   1.024   2.744
 1032SOL    HW114975   0.472   0.971   2.722
 1032SOL    HW214976   0.368   1.063   2.661
 1033SOL     OW14977   2.452   0.146   4.938
 1033SOL    HW114978   2.501   0.176   5.014
 1033SOL    HW214979   2.360   0.164   4.961
 1034SOL     OW14980   0.938   1.389   1.178
 1034SOL    HW114981   0.873   1.320   1.170
 1034SOL    HW214982   0.947   1.404   1.272
 1035SOL     OW14983   3.724   3.455   5.319
 1035SOL    HW114984   3.726   3.474   5.412
 1035SOL    HW214985   3.648   3.399   5.306
 1036SOL     OW14986   1.529   0.824   6.167
 1036SOL    HW114987   1.598   0.850   6.228
 1036SOL    HW214988   1.484   0.906   6.147
 1037SOL     OW14989   4.272   4.039   8.231
 1037SOL    HW114990   4.246   4.097   8.303
 1037SOL    HW214991   4.363   4.017   8.250
 1038SOL     OW14992   3.176   4.094   0.079
 1038SOL    HW114993   3.160   4.040   0.002
 1038SOL    HW214994   3.270   4.087   0.095
 1039SOL     OW14995   1.334   3.531  20.132
 1039SOL    HW114996   1.345   3.625  20.118
 1039SOL    HW214997   1.379   3.514  20.215
 1040SOL     OW14998   2.755   1.761  19.184
 1040SOL    HW114999   2.765   1.807  19.267
 1040SOL    HW215000   2.675   1.797  19.146
 1041SOL     OW15001   4.357   2.068   7.520
 1041SOL    HW115002   4.289   2.088   7.456
 1041SOL    HW215003   4.330   2.115   7.599
 1042SOL     OW15004   0.564   3.227  19.185
 1042SOL    HW115005   0.578   3.319  19.162
 1042SOL    HW215006   0.649   3.185  19.170
 1043SOL     OW15007   0.697   4.388  17.808
 1043SOL    HW115008   0.776   4.442  17.817
 1043SOL    HW215009   0.685   4.347  17.894
 1044SOL     OW15010   1.591   4.400  18.970
 1044SOL    HW115011   1.561   4.315  19.004
 1044SOL    HW215012   1.650   4.378  18.898
 1045SOL     OW15013   0.352   3.742  18.031
 1045SOL    HW115014   0.388   3.709  18.114
 1045SOL    HW215015   0.271   3.693  18.019
 1046SOL     OW15016   0.555   1.837  18.492
 1046SOL    HW115017   0.635   1.820  18.442
 1046SOL    HW215018   0.579   1.821  18.583
 1047SOL     OW15019   0.559   3.044  17.745
 1047SOL    HW115020   0.624   3.110  17.720
 1047SOL    HW215021   0.610   2.975  17.788
 1048SOL     OW15022   0.583   4.222  15.139
 1048SOL    HW115023   0.536   4.151  15.097
 1048SOL    HW215024   0.518   4.263  15.197
 1049SOL     OW15025   3.527   0.966  17.035
 1049SOL    HW115026   3.433   0.951  17.047
 1049SOL    HW215027   3.537   1.061  17.040
 1050SOL     OW15028   1.281   3.588   4.085
 1050SOL    HW115029   1.306   3.505   4.044
 1050SOL    HW215030   1.286   3.652   4.014
 1051SOL     OW15031   1.551   3.383  19.226
 1051SOL    HW115032   1.493   3.453  19.198
 1051SOL    HW215033   1.603   3.423  19.296
 1052SOL     OW15034   0.972   4.301  18.367
 1052SOL    HW115035   1.038   4.368  18.387
 1052SOL    HW215036   1.008   4.253  18.293
 1053SOL     OW15037   4.030   4.392  17.079
 1053SOL    HW115038   4.006   4.440  17.000
 1053SOL    HW215039   4.125   4.390  17.078
 1054SOL     OW15040   4.483   3.223  20.755
 1054SOL    HW115041   4.476   3.219  20.660
 1054SOL    HW215042   4.464   3.314  20.778
 1055SOL     OW15043   2.158   0.256  19.226
 1055SOL    HW115044   2.204   0.254  19.142
 1055SOL    HW215045   2.182   0.174  19.269
 1056SOL     OW15046   3.792   3.967   3.281
 1056SOL    HW115047   3.720   3.934   3.228
 1056SOL    HW215048   3.756   3.973   3.369
 1057SOL     OW15049   0.371   3.706   5.457
 1057SOL    HW115050   0.330   3.691   5.542
 1057SOL    HW215051   0.305   3.676   5.394
 1058SOL     OW15052   2.356   0.654   6.670
 1058SOL    HW115053   2.327   0.575   6.624
 1058SOL    HW215054   2.409   0.702   6.606
 1059SOL     OW15055   4.472   0.908  15.894
 1059SOL    HW115056   4.554   0.956  15.880
 1059SOL    HW215057   4.488   0.854  15.971
 1060SOL     OW15058   4.557   0.605  18.260
 1060SOL    HW115059   4.490   0.672  18.277
 1060SOL    HW215060   4.523   0.557  18.184
 1061SOL     OW15061   0.382   0.742  18.672
 1061SOL    HW115062   0.403   0.665  18.618
 1061SOL    HW215063   0.287   0.739  18.682
 1062SOL     OW15064   3.353   1.753  21.129
 1062SOL    HW115065   3.273   1.772  21.079
 1062SOL    HW215066   3.378   1.665  21.100
 1063SOL     OW15067   2.002   4.688  18.625
 1063SOL    HW115068   2.000   4.783  18.622
 1063SOL    HW215069   2.039   4.662  18.540
 1064SOL     OW15070   2.486   2.858   4.935
 1064SOL    HW115071   2.421   2.789   4.946
 1064SOL    HW215072   2.510   2.883   5.025
 1065SOL     OW15073   1.954   1.515  19.583
 1065SOL    HW115074   1.897   1.493  19.509
 1065SOL    HW215075   1.898   1.506  19.660
 1066SOL     OW15076   2.867   2.382   2.141
 1066SOL    HW115077   2.905   2.364   2.227
 1066SOL    HW215078   2.918   2.456   2.108
 1067SOL     OW15079   4.398   4.241  16.393
 1067SOL    HW115080   4.339   4.302  16.437
 1067SOL    HW215081   4.347   4.161  16.384
 1068SOL     OW15082   2.255   2.139  16.374
 1068SOL    HW115083   2.345   2.129  16.345
 1068SOL    HW215084   2.259   2.123  16.469
 1069SOL     OW15085   0.929   4.128   2.185
 1069SOL    HW115086   0.882   4.107   2.266
 1069SOL    HW215087   0.975   4.048   2.162
 1070SOL     OW15088   0.074   4.636  16.841
 1070SOL    HW115089   0.150   4.585  16.868
 1070SOL    HW215090   0.110   4.711  16.793
 1071SOL     OW15091   3.727   0.524  17.939
 1071SOL    HW115092   3.648   0.543  17.988
 1071SOL    HW215093   3.731   0.428  17.936
 1072SOL     OW15094   3.433   3.302   0.906
 1072SOL    HW115095   3.427   3.266   0.818
 1072SOL    HW215096   3.469   3.230   0.959
 1073SOL     OW15097   0.977   0.308   1.430
 1073SOL    HW115098   1.012   0.397   1.437
 1073SOL    HW215099   0.938   0.292   1.516
 1074SOL     OW15100   3.128   2.855   4.715
 1074SOL    HW115101   3.194   2.913   4.755
 1074SOL    HW215102   3.046   2.881   4.757
 1075SOL     OW15103   1.808   0.550  18.101
 1075SOL    HW115104   1.837   0.601  18.177
 1075SOL    HW215105   1.733   0.598  18.067
 1076SOL     OW15106   0.996   3.565  19.151
 1076SOL    HW115107   0.911   3.560  19.194
 1076SOL    HW215108   1.055   3.518  19.210
 1077SOL     OW15109   0.705   4.480   7.861
 1077SOL    HW115110   0.673   4.389   7.862
 1077SOL    HW215111   0.766   4.485   7.935
 1078SOL     OW15112   2.812   0.906  19.399
 1078SOL    HW115113   2.837   0.956  19.477
 1078SOL    HW215114   2.785   0.820  19.434
 1079SOL     OW15115   3.530   0.443  15.555
 1079SOL    HW115116   3.483   0.447  15.638
 1079SOL    HW215117   3.518   0.530  15.516
 1080SOL     OW15118   2.553   2.232  15.251
 1080SOL    HW115119   2.602   2.285  15.315
 1080SOL    HW215120   2.505   2.169  15.305
 1081SOL     OW15121   2.147   4.641   5.263
 1081SOL    HW115122   2.186   4.729   5.261
 1081SOL    HW215123   2.065   4.652   5.310
 1082SOL     OW15124   2.303   2.245  19.795
 1082SOL    HW115125   2.332   2.178  19.733
 1082SOL    HW215126   2.216   2.217  19.822
 1083SOL     OW15127   4.707   0.711   1.830
 1083SOL    HW115128   4.754   0.768   1.891
 1083SOL    HW215129   4.648   0.661   1.885
 1084SOL     OW15130   4.484   4.172   3.530
 1084SOL    HW115131   4.408   4.177   3.472
 1084SOL    HW215132   4.501   4.079   3.539
 1085SOL     OW15133   3.494   2.533  12.107
 1085SOL    HW115134   3.547   2.599  12.152
 1085SOL    HW215135   3.404   2.556  12.130
 1086SOL     OW15136   3.618   0.798   6.776
 1086SOL    HW115137   3.619   0.852   6.855
 1086SOL    HW215138   3.551   0.838   6.720
 1087SOL     OW15139   1.634   2.256  19.373
 1087SOL    HW115140   1.674   2.230  19.290
 1087SOL    HW215141   1.700   2.237  19.439
 1088SOL     OW15142   2.020   4.622  14.823
 1088SOL    HW115143   2.113   4.608  14.806
 1088SOL    HW215144   1.983   4.534  14.827
 1089SOL     OW15145   2.788   3.245   1.564
 1089SOL    HW115146   2.782   3.274   1.655
 1089SOL    HW215147   2.875   3.206   1.557
 1090SOL     OW15148   1.054   2.874  13.929
 1090SOL    HW115149   1.103   2.954  13.909
 1090SOL    HW215150   1.121   2.810  13.954
 1091SOL     OW15151   0.204   4.446  19.507
 1091SOL    HW115152   0.213   4.356  19.536
 1091SOL    HW215153   0.252   4.497  19.573
 1092SOL     OW15154   1.100   2.311   2.833
 1092SOL    HW115155   1.130   2.228   2.871
 1092SOL    HW215156   1.006   2.315   2.853
 1093SOL     OW15157   4.665   4.585   2.274
 1093SOL    HW115158   4.592   4.596   2.335
 1093SOL    HW215159   4.624   4.571   2.189
 1094SOL     OW15160   2.328   0.288   1.925
 1094SOL    HW115161   2.337   0.219   1.859
 1094SOL    HW215162   2.367   0.251   2.004
 1095SOL     OW15163   2.743   1.913  16.465
 1095SOL    HW115164   2.801   1.914  16.542
 1095SOL    HW215165   2.798   1.878  16.395
 1096SOL     OW15166   3.150   1.516  20.086
 1096SOL    HW115167   3.067   1.543  20.124
 1096SOL    HW215168   3.210   1.588  20.103
 1097SOL     OW15169   4.360   3.147   6.061
 1097SOL    HW115170   4.275   3.133   6.019
 1097SOL    HW215171   4.415   3.077   6.027
 1098SOL     OW15172   2.347   4.041   3.450
 1098SOL    HW115173   2.412   4.101   3.487
 1098SOL    HW215174   2.359   4.048   3.355
 1099SOL     OW15175   4.618   0.550   2.285
 1099SOL    HW115176   4.646   0.464   2.255
 1099SOL    HW215177   4.558   0.532   2.358
 1100SOL     OW15178   1.215   2.866  18.094
 1100SOL    HW115179   1.305   2.841  18.114
 1100SOL    HW215180   1.203   2.950  18.136
 1101SOL     OW15181   2.171   2.254   5.526
 1101SOL    HW115182   2.179   2.169   5.568
 1101SOL    HW215183   2.077   2.264   5.508
 1102SOL     OW15184   4.313   2.287  17.753
 1102SOL    HW115185   4.289   2.208  17.802
 1102SOL    HW215186   4.368   2.255  17.682
 1103SOL     OW15187   2.000   2.201   5.020
 1103SOL    HW115188   1.925   2.231   4.968
 1103SOL    HW215189   2.071   2.190   4.957
 1104SOL     OW15190   3.105   4.591  20.390
 1104SOL    HW115191   3.016   4.555  20.389
 1104SOL    HW215192   3.133   4.589  20.299
 1105SOL     OW15193   2.870   3.648  15.327
 1105SOL    HW115194   2.935   3.690  15.382
 1105SOL    HW215195   2.793   3.704  15.333
 1106SOL     OW15196   2.226   3.732  15.865
 1106SOL    HW115197   2.131   3.723  15.871
 1106SOL    HW215198   2.242   3.752  15.773
 1107SOL     OW15199   1.393   3.977   4.181
 1107SOL    HW115200   1.368   4.039   4.249
 1107SOL    HW215201   1.376   3.891   4.219
 1108SOL     OW15202   4.107   2.660   4.080
 1108SOL    HW115203   4.023   2.694   4.109
 1108SOL    HW215204   4.097   2.648   3.985
 1109SOL     OW15205   2.111   0.452  16.118
 1109SOL    HW115206   2.171   0.450  16.192
 1109SOL    HW215207   2.027   0.479  16.155
 1110SOL     OW15208   3.239   1.423   0.364
 1110SOL    HW115209   3.160   1.424   0.418
 1110SOL    HW215210   3.208   1.449   0.277
 1111SOL     OW15211   2.963   0.321  19.519
 1111SOL    HW115212   2.935   0.231  19.534
 1111SOL    HW215213   2.890   0.374  19.550
 1112SOL     OW15214   3.830   4.215   1.783
 1112SOL    HW115215   3.761   4.153   1.805
 1112SOL    HW215216   3.911   4.174   1.814
 1113SOL     OW15217   3.144   1.681  16.836
 1113SOL    HW115218   3.186   1.615  16.892
 1113SOL    HW215219   3.180   1.764  16.866
 1114SOL     OW15220   1.376   4.550  20.795
 1114SOL    HW115221   1.421   4.619  20.844
 1114SOL    HW215222   1.406   4.468  20.834
 1115SOL     OW15223   4.748   3.791   1.866
 1115SOL    HW115224   4.752   3.870   1.920
 1115SOL    HW215225   4.656   3.787   1.837
 1116SOL     OW15226   2.341   0.641   1.487
 1116SOL    HW115227   2.369   0.553   1.510
 1116SOL    HW215228   2.311   0.679   1.570
 1117SOL     OW15229   0.275   0.121  14.892
 1117SOL    HW115230   0.249   0.153  14.978
 1117SOL    HW215231   0.193   0.102  14.847
 1118SOL     OW15232   0.739   3.006   3.074
 1118SOL    HW115233   0.696   2.984   2.991
 1118SOL    HW215234   0.670   3.047   3.126
 1119SOL     OW15235   4.464   0.665   6.650
 1119SOL    HW115236   4.511   0.738   6.609
 1119SOL    HW215237   4.389   0.707   6.694
 1120SOL     OW15238   2.789   4.572   6.579
 1120SOL    HW115239   2.781   4.666   6.562
 1120SOL    HW215240   2.699   4.543   6.592
 1121SOL     OW15241   3.255   0.222   5.548
 1121SOL    HW115242   3.307   0.273   5.610
 1121SOL    HW215243   3.312   0.149   5.523
 1122SOL     OW15244   1.086   4.039  20.970
 1122SOL    HW115245   1.069   3.945  20.974
 1122SOL    HW215246   1.097   4.057  20.876
 1123SOL     OW15247   0.570   0.767  20.964
 1123SOL    HW115248   0.534   0.855  20.974
 1123SOL    HW215249   0.526   0.732  20.887
 1124SOL     OW15250   4.283   4.529   1.247
 1124SOL    HW115251   4.312   4.555   1.159
 1124SOL    HW215252   4.214   4.464   1.231
 1125SOL     OW15253   3.933   2.437   0.201
 1125SOL    HW115254   3.879   2.499   0.152
 1125SOL    HW215255   3.930   2.357   0.149
 1126SOL     OW15256   2.290   0.749   0.027
 1126SOL    HW115257   2.278   0.829  21.239
 1126SOL    HW215258   2.245   0.765   0.110
 1127SOL     OW15259   3.674   2.195  16.717
 1127SOL    HW115260   3.724   2.267  16.756
 1127SOL    HW215261   3.726   2.117  16.734
 1128SOL     OW15262   4.785   0.432   0.007
 1128SOL    HW115263   0.011   0.338  21.261
 1128SOL    HW215264   0.054   0.460   0.076
 1129SOL     OW15265   4.206   2.003   8.962
 1129SOL    HW115266   4.131   2.063   8.973
 1129SOL    HW215267   4.168   1.916   8.968
 1130SOL     OW15268   2.136   1.619   3.370
 1130SOL    HW115269   2.184   1.573   3.302
 1130SOL    HW215270   2.053   1.571   3.377
 1131SOL     OW15271   4.089   0.258  19.533
 1131SOL    HW115272   4.025   0.190  19.513
 1131SOL    HW215273   4.164   0.211  19.571
 1132SOL     OW15274   4.376   3.124   1.472
 1132SOL    HW115275   4.283   3.103   1.480
 1132SOL    HW215276   4.378   3.202   1.417
 1133SOL     OW15277   2.966   3.756   5.155
 1133SOL    HW115278   2.934   3.713   5.235
 1133SOL    HW215279   2.886   3.783   5.109
 1134SOL     OW15280   3.855   3.806  12.447
 1134SOL    HW115281   3.807   3.856  12.514
 1134SOL    HW215282   3.900   3.739  12.497
 1135SOL     OW15283   4.490   0.092  19.465
 1135SOL    HW115284   4.556   0.038  19.510
 1135SOL    HW215285   4.452   0.035  19.399
 1136SOL     OW15286   2.086   3.389   0.628
 1136SOL    HW115287   1.990   3.387   0.627
 1136SOL    HW215288   2.111   3.328   0.559
 1137SOL     OW15289   0.419   3.649   2.576
 1137SOL    HW115290   0.457   3.561   2.572
 1137SOL    HW215291   0.363   3.647   2.654
 1138SOL     OW15292   1.749   0.465  15.528
 1138SOL    HW115293   1.776   0.527  15.597
 1138SOL    HW215294   1.704   0.395  15.575
 1139SOL     OW15295   3.394   4.171   4.420
 1139SOL    HW115296   3.448   4.108   4.372
 1139SOL    HW215297   3.304   4.154   4.390
 1140SOL     OW15298   0.818   0.558   4.946
 1140SOL    HW115299   0.794   0.490   5.008
 1140SOL    HW215300   0.914   0.559   4.947
 1141SOL     OW15301   3.953   2.222   7.568
 1141SOL    HW115302   4.007   2.294   7.601
 1141SOL    HW215303   4.006   2.183   7.498
 1142SOL     OW15304   3.393   0.251   1.731
 1142SOL    HW115305   3.313   0.299   1.748
 1142SOL    HW215306   3.456   0.319   1.703
 1143SOL     OW15307   3.731   0.112   5.393
 1143SOL    HW115308   3.661   0.112   5.459
 1143SOL    HW215309   3.803   0.066   5.435
 1144SOL     OW15310   2.975   3.930   5.661
 1144SOL    HW115311   2.996   3.945   5.569
 1144SOL    HW215312   2.880   3.916   5.662
 1145SOL     OW15313   0.932   1.268  15.331
 1145SOL    HW115314   0.848   1.274  15.286
 1145SOL    HW215315   0.937   1.177  15.361
 1146SOL     OW15316   0.112   1.185  15.867
 1146SOL    HW115317   0.082   1.105  15.824
 1146SOL    HW215318   0.165   1.154  15.941
 1147SOL     OW15319   3.201   3.635   3.011
 1147SOL    HW115320   3.124   3.656   3.064
 1147SOL    HW215321   3.166   3.587   2.936
 1148SOL     OW15322   2.703   2.323  21.045
 1148SOL    HW115323   2.692   2.232  21.021
 1148SOL    HW215324   2.664   2.372  20.973
 1149SOL     OW15325   1.704   1.863  18.961
 1149SOL    HW115326   1.786   1.904  18.988
 1149SOL    HW215327   1.689   1.897  18.873
 1150SOL     OW15328   1.058   2.783   4.731
 1150SOL    HW115329   1.117   2.708   4.740
 1150SOL    HW215330   1.071   2.814   4.642
 1151SOL     OW15331   1.825   1.222  18.798
 1151SOL    HW115332   1.757   1.155  18.808
 1151SOL    HW215333   1.840   1.226  18.704
 1152SOL     OW15334   3.883   3.565  15.989
 1152SOL    HW115335   3.833   3.583  16.069
 1152SOL    HW215336   3.974   3.580  16.014
 1153SOL     OW15337   1.967   1.579  17.486
 1153SOL    HW115338   1.922   1.507  17.530
 1153SOL    HW215339   1.943   1.657  17.535
 1154SOL     OW15340   1.803   4.022   3.938
 1154SOL    HW115341   1.744   4.068   3.878
 1154SOL    HW215342   1.755   4.020   4.021
 1155SOL     OW15343   4.338   1.821   2.840
 1155SOL    HW115344   4.243   1.826   2.825
 1155SOL    HW215345   4.353   1.881   2.914
 1156SOL     OW15346   4.479   1.066   2.158
 1156SOL    HW115347   4.391   1.033   2.180
 1156SOL    HW215348   4.463   1.136   2.094
 1157SOL     OW15349   0.964   2.698  14.135
 1157SOL    HW115350   0.975   2.748  14.054
 1157SOL    HW215351   0.987   2.608  14.110
 1158SOL     OW15352   0.862   3.585  17.734
 1158SOL    HW115353   0.906   3.527  17.671
 1158SOL    HW215354   0.927   3.653  17.752
 1159SOL     OW15355   2.555   4.159  13.971
 1159SOL    HW115356   2.646   4.179  13.952
 1159SOL    HW215357   2.539   4.198  14.057
 1160SOL     OW15358   2.232   0.611   2.651
 1160SOL    HW115359   2.247   0.623   2.745
 1160SOL    HW215360   2.166   0.677   2.629
 1161SOL     OW15361   4.345   4.368   5.494
 1161SOL    HW115362   4.271   4.391   5.549
 1161SOL    HW215363   4.318   4.289   5.448
 1162SOL     OW15364   3.832   0.137  20.126
 1162SOL    HW115365   3.762   0.191  20.087
 1162SOL    HW215366   3.785   0.072  20.179
 1163SOL     OW15367   2.848   4.143  17.757
 1163SOL    HW115368   2.766   4.190  17.741
 1163SOL    HW215369   2.907   4.173  17.688
 1164SOL     OW15370   2.313   2.632  15.967
 1164SOL    HW115371   2.370   2.708  15.962
 1164SOL    HW215372   2.224   2.668  15.968
 1165SOL     OW15373   4.634   2.396   0.768
 1165SOL    HW115374   4.721   2.436   0.761
 1165SOL    HW215375   4.651   2.302   0.776
 1166SOL     OW15376   1.562   0.088  13.165
 1166SOL    HW115377   1.597   0.177  13.153
 1166SOL    HW215378   1.469   0.097  13.145
 1167SOL     OW15379   2.339   4.652  15.428
 1167SOL    HW115380   2.417   4.703  15.405
 1167SOL    HW215381   2.326   4.666  15.521
 1168SOL     OW15382   3.679   4.081  16.078
 1168SOL    HW115383   3.607   4.028  16.044
 1168SOL    HW215384   3.755   4.024  16.072
 1169SOL     OW15385   1.677   2.222  17.563
 1169SOL    HW115386   1.733   2.148  17.589
 1169SOL    HW215387   1.704   2.294  17.620
 1170SOL     OW15388   1.774   2.602   6.129
 1170SOL    HW115389   1.748   2.692   6.108
 1170SOL    HW215390   1.850   2.611   6.186
 1171SOL     OW15391   1.299   4.363  12.508
 1171SOL    HW115392   1.304   4.449  12.465
 1171SOL    HW215393   1.285   4.301  12.437
 1172SOL     OW15394   2.802   1.033   2.846
 1172SOL    HW115395   2.889   1.000   2.821
 1172SOL    HW215396   2.807   1.043   2.941
 1173SOL     OW15397   0.278   3.335   0.444
 1173SOL    HW115398   0.277   3.419   0.490
 1173SOL    HW215399   0.210   3.283   0.489
 1174SOL     OW15400   4.614   3.524   8.064
 1174SOL    HW115401   4.585   3.560   7.981
 1174SOL    HW215402   4.697   3.481   8.044
 1175SOL     OW15403   4.194   4.555  19.967
 1175SOL    HW115404   4.129   4.492  19.936
 1175SOL    HW215405   4.171   4.637  19.922
 1176SOL     OW15406   3.183   1.447  18.024
 1176SOL    HW115407   3.239   1.437  18.101
 1176SOL    HW215408   3.237   1.493  17.961
 1177SOL     OW15409   1.844   3.450   6.126
 1177SOL    HW115410   1.867   3.543   6.123
 1177SOL    HW215411   1.899   3.413   6.195
 1178SOL     OW15412   3.547   3.604  15.324
 1178SOL    HW115413   3.628   3.646  15.296
 1178SOL    HW215414   3.481   3.634  15.262
 1179SOL     OW15415   4.160   1.720  20.081
 1179SOL    HW115416   4.227   1.654  20.062
 1179SOL    HW215417   4.125   1.744  19.995
 1180SOL     OW15418   3.141   2.355   0.309
 1180SOL    HW115419   3.177   2.441   0.332
 1180SOL    HW215420   3.217   2.299   0.296
 1181SOL     OW15421   4.365   3.887  21.183
 1181SOL    HW115422   4.380   3.928  21.098
 1181SOL    HW215423   4.431   3.926  21.240
 1182SOL     OW15424   4.254   3.658   3.494
 1182SOL    HW115425   4.258   3.734   3.436
 1182SOL    HW215426   4.333   3.608   3.474
 1183SOL     OW15427   3.048   1.521  17.434
 1183SOL    HW115428   3.122   1.562  17.388
 1183SOL    HW215429   3.081   1.435  17.459
 1184SOL     OW15430   0.404   3.756  18.945
 1184SOL    HW115431   0.433   3.694  18.878
 1184SOL    HW215432   0.483   3.804  18.969
 1185SOL     OW15433   1.715   4.135  14.230
 1185SOL    HW115434   1.793   4.187  14.250
 1185SOL    HW215435   1.644   4.179  14.276
 1186SOL     OW15436   2.944   3.738  17.072
 1186SOL    HW115437   3.007   3.783  17.016
 1186SOL    HW215438   2.881   3.806  17.098
 1187SOL     OW15439   2.834   3.538  19.962
 1187SOL    HW115440   2.817   3.450  19.929
 1187SOL    HW215441   2.927   3.552  19.944
 1188SOL     OW15442   2.678   0.017  19.948
 1188SOL    HW115443   2.623   0.090  19.976
 1188SOL    HW215444   2.688   0.030  19.854
 1189SOL     OW15445   3.235   4.489  15.729
 1189SOL    HW115446   3.300   4.425  15.699
 1189SOL    HW215447   3.270   4.522  15.811
 1190SOL     OW15448   4.431   1.151  20.982
 1190SOL    HW115449   4.341   1.161  21.014
 1190SOL    HW215450   4.428   1.187  20.893
 1191SOL     OW15451   2.744   1.157  16.849
 1191SOL    HW115452   2.669   1.111  16.885
 1191SOL    HW215453   2.746   1.240  16.896
 1192SOL     OW15454   0.363   4.216   0.450
 1192SOL    HW115455   0.317   4.299   0.451
 1192SOL    HW215456   0.446   4.233   0.494
 1193SOL     OW15457   2.812   3.186   4.126
 1193SOL    HW115458   2.786   3.127   4.055
 1193SOL    HW215459   2.905   3.201   4.112
 1194SOL     OW15460   3.246   4.000  19.670
 1194SOL    HW115461   3.341   4.003  19.675
 1194SOL    HW215462   3.216   4.051  19.746
 1195SOL     OW15463   1.279   0.571   5.193
 1195SOL    HW115464   1.322   0.636   5.137
 1195SOL    HW215465   1.251   0.620   5.270
 1196SOL     OW15466   4.753   2.852  16.710
 1196SOL    HW115467   0.029   2.920  16.705
 1196SOL    HW215468   0.003   2.775  16.671
 1197SOL     OW15469   4.241   3.385  18.123
 1197SOL    HW115470   4.167   3.373  18.064
 1197SOL    HW215471   4.286   3.462  18.091
 1198SOL     OW15472   3.623   0.821   0.448
 1198SOL    HW115473   3.633   0.909   0.412
 1198SOL    HW215474   3.529   0.804   0.444
 1199SOL     OW15475   0.940   1.458  20.674
 1199SOL    HW115476   0.888   1.514  20.731
 1199SOL    HW215477   0.902   1.371  20.684
 1200SOL     OW15478   2.563   4.135  16.342
 1200SOL    HW115479   2.524   4.215  16.376
 1200SOL    HW215480   2.535   4.067  16.404
 1201SOL     OW15481   1.401   3.851  17.219
 1201SOL    HW115482   1.380   3.812  17.303
 1201SOL    HW215483   1.496   3.843  17.211
 1202SOL     OW15484   0.293   3.882  17.760
 1202SOL    HW115485   0.335   3.853  17.840
 1202SOL    HW215486   0.362   3.879  17.694
 1203SOL     OW15487   0.959   0.869  18.735
 1203SOL    HW115488   0.899   0.829  18.671
 1203SOL    HW215489   0.910   0.868  18.817
 1204SOL     OW15490   2.961   4.693   5.062
 1204SOL    HW115491   2.977   4.746   5.139
 1204SOL    HW215492   2.996   4.607   5.083
 1205SOL     OW15493   3.291   1.432  18.267
 1205SOL    HW115494   3.291   1.375  18.344
 1205SOL    HW215495   3.383   1.444  18.245
 1206SOL     OW15496   1.314   3.305   4.791
 1206SOL    HW115497   1.295   3.233   4.850
 1206SOL    HW215498   1.351   3.264   4.713
 1207SOL     OW15499   1.701   4.178   5.265
 1207SOL    HW115500   1.695   4.133   5.180
 1207SOL    HW215501   1.740   4.113   5.324
 1208SOL     OW15502   1.751   4.706  16.937
 1208SOL    HW115503   1.777   4.618  16.962
 1208SOL    HW215504   1.791   4.763  17.003
 1209SOL     OW15505   4.742   1.944  16.472
 1209SOL    HW115506   4.764   1.853  16.449
 1209SOL    HW215507   4.716   1.939  16.564
 1210SOL     OW15508   0.935   1.186   0.887
 1210SOL    HW115509   0.852   1.175   0.932
 1210SOL    HW215510   0.930   1.275   0.850
 1211SOL     OW15511   3.165   4.380   4.000
 1211SOL    HW115512   3.124   4.383   4.086
 1211SOL    HW215513   3.163   4.287   3.975
 1212SOL     OW15514   1.925   2.029  13.564
 1212SOL    HW115515   1.930   2.109  13.514
 1212SOL    HW215516   2.016   2.006  13.583
 1213SOL     OW15517   0.926   2.464  18.017
 1213SOL    HW115518   0.982   2.527  18.064
 1213SOL    HW215519   0.855   2.518  17.981
 1214SOL     OW15520   1.321   1.930  16.846
 1214SOL    HW115521   1.231   1.946  16.873
 1214SOL    HW215522   1.364   1.898  16.926
 1215SOL     OW15523   2.828   0.214   1.469
 1215SOL    HW115524   2.774   0.135   1.461
 1215SOL    HW215525   2.868   0.208   1.556
 1216SOL     OW15526   4.499   1.307   3.547
 1216SOL    HW115527   4.554   1.236   3.513
 1216SOL    HW215528   4.554   1.385   3.540
 1217SOL     OW15529   1.600   2.093   0.920
 1217SOL    HW115530   1.624   2.002   0.939
 1217SOL    HW215531   1.562   2.126   1.002
 1218SOL     OW15532   4.013   2.436  19.245
 1218SOL    HW115533   3.938   2.493  19.265
 1218SOL    HW215534   4.008   2.366  19.311
 1219SOL     OW15535   2.191   1.744   6.500
 1219SOL    HW115536   2.123   1.806   6.527
 1219SOL    HW215537   2.172   1.726   6.408
 1220SOL     OW15538   0.489   1.196   3.782
 1220SOL    HW115539   0.472   1.231   3.869
 1220SOL    HW215540   0.429   1.244   3.724
 1221SOL     OW15541   0.541   3.417  14.975
 1221SOL    HW115542   0.475   3.364  15.019
 1221SOL    HW215543   0.618   3.360  14.969
 1222SOL     OW15544   4.703   1.419   8.228
 1222SOL    HW115545   4.709   1.484   8.158
 1222SOL    HW215546   4.697   1.471   8.308
 1223SOL     OW15547   1.389   4.741   3.413
 1223SOL    HW115548   1.406   4.659   3.459
 1223SOL    HW215549   1.335   4.717   3.338
 1224SOL     OW15550   1.226   4.404  21.215
 1224SOL    HW115551   1.227   4.317  21.175
 1224SOL    HW215552   1.307   4.444  21.186
 1225SOL     OW15553   2.056   0.334   0.921
 1225SOL    HW115554   2.112   0.411   0.935
 1225SOL    HW215555   2.062   0.285   1.004
 1226SOL     OW15556   0.597   1.262   8.826
 1226SOL    HW115557   0.566   1.235   8.912
 1226SOL    HW215558   0.522   1.305   8.785
 1227SOL     OW15559   1.493   2.013   1.673
 1227SOL    HW115560   1.420   2.032   1.614
 1227SOL    HW215561   1.469   2.054   1.756
 1228SOL     OW15562   3.439   3.324  17.260
 1228SOL    HW115563   3.408   3.392  17.200
 1228SOL    HW215564   3.426   3.362  17.347
 1229SOL     OW15565   2.326   1.490  18.728
 1229SOL    HW115566   2.292   1.449  18.649
 1229SOL    HW215567   2.275   1.453  18.799
 1230SOL     OW15568   1.747   4.430   5.392
 1230SOL    HW115569   1.691   4.360   5.356
 1230SOL    HW215570   1.687   4.504   5.404
 1231SOL     OW15571   0.391   1.320  17.857
 1231SOL    HW115572   0.468   1.264  17.862
 1231SOL    HW215573   0.402   1.369  17.776
 1232SOL     OW15574   4.686   3.852   3.860
 1232SOL    HW115575   4.709   3.933   3.815
 1232SOL    HW215576   4.706   3.783   3.796
 1233SOL     OW15577   0.600   2.693   6.394
 1233SOL    HW115578   0.570   2.782   6.376
 1233SOL    HW215579   0.666   2.676   6.328
 1234SOL     OW15580   4.409   0.327   2.872
 1234SOL    HW115581   4.411   0.390   2.944
 1234SOL    HW215582   4.443   0.374   2.796
 1235SOL     OW15583   0.143   4.031  15.541
 1235SOL    HW115584   0.232   4.067  15.535
 1235SOL    HW215585   0.136   4.001  15.632
 1236SOL     OW15586   1.661   2.927   3.069
 1236SOL    HW115587   1.672   2.959   3.159
 1236SOL    HW215588   1.719   2.851   3.064
 1237SOL     OW15589   0.690   3.915  20.495
 1237SOL    HW115590   0.674   3.971  20.571
 1237SOL    HW215591   0.716   3.831  20.532
 1238SOL     OW15592   0.185   1.151   0.400
 1238SOL    HW115593   0.204   1.117   0.313
 1238SOL    HW215594   0.101   1.197   0.390
 1239SOL     OW15595   2.991   3.367  16.917
 1239SOL    HW115596   3.002   3.273  16.909
 1239SOL    HW215597   3.073   3.399  16.953
 1240SOL     OW15598   1.823   1.681   6.609
 1240SOL    HW115599   1.844   1.653   6.698
 1240SOL    HW215600   1.727   1.683   6.607
 1241SOL     OW15601   0.389   3.570  19.597
 1241SOL    HW115602   0.448   3.629  19.644
 1241SOL    HW215603   0.301   3.605  19.615
 1242SOL     OW15604   3.040   3.681  15.539
 1242SOL    HW115605   3.101   3.743  15.578
 1242SOL    HW215606   2.974   3.666  15.608
 1243SOL     OW15607   1.725   1.911   1.986
 1243SOL    HW115608   1.782   1.843   1.950
 1243SOL    HW215609   1.755   1.992   1.945
 1244SOL     OW15610   4.294   0.340  21.202
 1244SOL    HW115611   4.241   0.419  21.210
 1244SOL    HW215612   4.380   0.371  21.174
 1245SOL     OW15613   0.479   0.998   5.932
 1245SOL    HW115614   0.396   1.037   5.958
 1245SOL    HW215615   0.533   1.073   5.905
 1246SOL     OW15616   0.606   3.084   1.835
 1246SOL    HW115617   0.586   3.154   1.773
 1246SOL    HW215618   0.531   3.024   1.828
 1247SOL     OW15619   0.368   0.654   3.671
 1247SOL    HW115620   0.372   0.726   3.734
 1247SOL    HW215621   0.364   0.575   3.725
 1248SOL     OW15622   0.300   3.939  16.327
 1248SOL    HW115623   0.338   3.897  16.404
 1248SOL    HW215624   0.312   4.033  16.342
 1249SOL     OW15625   2.031   1.928   4.020
 1249SOL    HW115626   1.952   1.880   4.046
 1249SOL    HW215627   2.065   1.880   3.944
 1250SOL     OW15628   2.446   2.074   4.633
 1250SOL    HW115629   2.426   1.985   4.604
 1250SOL    HW215630   2.448   2.125   4.552
 1251SOL     OW15631   4.720   4.596  20.347
 1251SOL    HW115632   4.778   4.613  20.273
 1251SOL    HW215633   4.730   4.502  20.364
 1252SOL     OW15634   3.557   2.398   5.168
 1252SOL    HW115635   3.514   2.380   5.084
 1252SOL    HW215636   3.562   2.313   5.211
 1253SOL     OW15637   0.447   0.807   1.492
 1253SOL    HW115638   0.468   0.872   1.559
 1253SOL    HW215639   0.518   0.815   1.428
 1254SOL     OW15640   0.758   1.518   1.000
 1254SOL    HW115641   0.809   1.466   1.062
 1254SOL    HW215642   0.823   1.558   0.943
 1255SOL     OW15643   2.519   2.940   2.418
 1255SOL    HW115644   2.431   2.957   2.452
 1255SOL    HW215645   2.504   2.884   2.342
 1256SOL     OW15646   1.847   0.005   2.932
 1256SOL    HW115647   1.899   0.085   2.929
 1256SOL    HW215648   1.784   0.020   3.002
 1257SOL     OW15649   1.801   1.877  20.725
 1257SOL    HW115650   1.800   1.782  20.737
 1257SOL    HW215651   1.708   1.901  20.721
 1258SOL     OW15652   0.324   0.197  18.602
 1258SOL    HW115653   0.235   0.224  18.625
 1258SOL    HW215654   0.331   0.108  18.636
 1259SOL     OW15655   4.695   0.030   7.275
 1259SOL    HW115656   4.649   0.087   7.214
 1259SOL    HW215657   4.753   0.088   7.324
 1260SOL     OW15658   4.651   3.333  15.211
 1260SOL    HW115659   4.737   3.321  15.172
 1260SOL    HW215660   4.601   3.257  15.182
 1261SOL     OW15661   4.760   0.765   0.224
 1261SOL    HW115662   4.769   0.825   0.150
 1261SOL    HW215663   0.052   0.771   0.270
 1262SOL     OW15664   2.511   3.266  15.474
 1262SOL    HW115665   2.563   3.244  15.551
 1262SOL    HW215666   2.437   3.315  15.509
 1263SOL     OW15667   3.517   3.395  17.990
 1263SOL    HW115668   3.606   3.424  18.005
 1263SOL    HW215669   3.516   3.304  18.019
 1264SOL     OW15670   3.870   2.044  19.879
 1264SOL    HW115671   3.839   2.135  19.884
 1264SOL    HW215672   3.808   2.002  19.819
 1265SOL     OW15673   2.774   3.272  17.374
 1265SOL    HW115674   2.814   3.326  17.442
 1265SOL    HW215675   2.759   3.332  17.301
 1266SOL     OW15676   4.753   2.750  18.563
 1266SOL    HW115677   0.048   2.790  18.577
 1266SOL    HW215678   4.729   2.776  18.474
 1267SOL     OW15679   3.923   3.743  19.502
 1267SOL    HW115680   3.964   3.828  19.488
 1267SOL    HW215681   3.977   3.682  19.452
 1268SOL     OW15682   3.320   0.933   2.251
 1268SOL    HW115683   3.391   0.921   2.315
 1268SOL    HW215684   3.342   1.015   2.206
 1269SOL     OW15685   2.932   3.711   0.617
 1269SOL    HW115686   2.932   3.636   0.677
 1269SOL    HW215687   3.025   3.733   0.607
 1270SOL     OW15688   0.862   2.500   0.537
 1270SOL    HW115689   0.878   2.406   0.525
 1270SOL    HW215690   0.949   2.540   0.533
 1271SOL     OW15691   0.716   3.732   3.769
 1271SOL    HW115692   0.721   3.782   3.851
 1271SOL    HW215693   0.624   3.734   3.745
 1272SOL     OW15694   4.319   4.056   5.566
 1272SOL    HW115695   4.325   3.962   5.548
 1272SOL    HW215696   4.272   4.092   5.491
 1273SOL     OW15697   4.521   0.828  17.452
 1273SOL    HW115698   4.528   0.916  17.490
 1273SOL    HW215699   4.610   0.806  17.425
 1274SOL     OW15700   2.204   4.632   8.214
 1274SOL    HW115701   2.246   4.578   8.281
 1274SOL    HW215702   2.248   4.608   8.133
 1275SOL     OW15703   2.977   1.658   5.997
 1275SOL    HW115704   3.067   1.636   5.974
 1275SOL    HW215705   2.956   1.734   5.943
 1276SOL     OW15706   1.046   3.745  20.228
 1276SOL    HW115707   1.017   3.742  20.137
 1276SOL    HW215708   0.974   3.786  20.275
 1277SOL     OW15709   2.062   0.738  18.623
 1277SOL    HW115710   2.066   0.706  18.533
 1277SOL    HW215711   2.058   0.833  18.615
 1278SOL     OW15712   1.186   4.307   5.899
 1278SOL    HW115713   1.222   4.277   5.982
 1278SOL    HW215714   1.246   4.273   5.833
 1279SOL     OW15715   2.309   1.023  20.869
 1279SOL    HW115716   2.271   0.952  20.818
 1279SOL    HW215717   2.327   1.092  20.804
 1280SOL     OW15718   2.407   0.337   3.507
 1280SOL    HW115719   2.447   0.423   3.493
 1280SOL    HW215720   2.421   0.319   3.600
 1281SOL     OW15721   3.572   1.657   1.509
 1281SOL    HW115722   3.607   1.589   1.566
 1281SOL    HW215723   3.484   1.673   1.542
 1282SOL     OW15724   0.528   3.911  19.540
 1282SOL    HW115725   0.536   3.996  19.496
 1282SOL    HW215726   0.483   3.931  19.623
 1283SOL     OW15727   3.269   0.611  18.232
 1283SOL    HW115728   3.282   0.548  18.161
 1283SOL    HW215729   3.328   0.582  18.301
 1284SOL     OW15730   2.505   1.502   3.841
 1284SOL    HW115731   2.433   1.494   3.904
 1284SOL    HW215732   2.576   1.451   3.880
 1285SOL     OW15733   3.306   0.955   3.563
 1285SOL    HW115734   3.282   0.994   3.648
 1285SOL    HW215735   3.384   0.902   3.582
 1286SOL     OW15736   0.007   4.403  20.617
 1286SOL    HW115737   4.763   4.433  20.701
 1286SOL    HW215738   4.723   4.365  20.571
 1287SOL     OW15739   2.651   1.196   2.123
 1287SOL    HW115740   2.728   1.193   2.178
 1287SOL    HW215741   2.594   1.126   2.155
 1288SOL     OW15742   4.350   1.125   2.983
 1288SOL    HW115743   4.377   1.109   2.893
 1288SOL    HW215744   4.430   1.150   3.029
 1289SOL     OW15745   0.163   1.332   5.974
 1289SOL    HW115746   0.161   1.238   5.993
 1289SOL    HW215747   0.182   1.337   5.880
 1290SOL     OW15748   0.097   1.003   5.668
 1290SOL    HW115749   0.109   0.944   5.742
 1290SOL    HW215750   0.185   1.033   5.647
 1291SOL     OW15751   4.652   1.806  17.432
 1291SOL    HW115752   4.601   1.873  17.476
 1291SOL    HW215753   4.595   1.774  17.362
 1292SOL     OW15754   3.172   2.901  16.892
 1292SOL    HW115755   3.256   2.913  16.847
 1292SOL    HW215756   3.193   2.845  16.966
 1293SOL     OW15757   3.376   1.812  19.944
 1293SOL    HW115758   3.365   1.737  19.884
 1293SOL    HW215759   3.292   1.857  19.941
 1294SOL     OW15760   2.353   4.790  14.326
 1294SOL    HW115761   2.369   4.780  14.232
 1294SOL    HW215762   2.264   4.758  14.338
 1295SOL     OW15763   0.168   1.946  12.800
 1295SOL    HW115764   0.159   1.993  12.883
 1295SOL    HW215765   0.114   1.996  12.739
 1296SOL     OW15766   0.075   4.276   0.809
 1296SOL    HW115767   0.152   4.224   0.832
 1296SOL    HW215768   0.050   4.246   0.722
 1297SOL     OW15769   2.340   3.536   5.648
 1297SOL    HW115770   2.334   3.626   5.615
 1297SOL    HW215771   2.355   3.546   5.742
 1298SOL     OW15772   1.246   3.905   5.406
 1298SOL    HW115773   1.293   3.854   5.340
 1298SOL    HW215774   1.185   3.843   5.446
 1299SOL     OW15775   1.493   0.932   4.360
 1299SOL    HW115776   1.545   0.876   4.418
 1299SOL    HW215777   1.557   0.972   4.301
 1300SOL     OW15778   0.768   0.948  15.288
 1300SOL    HW115779   0.795   0.970  15.377
 1300SOL    HW215780   0.699   0.883  15.300
 1301SOL     OW15781   0.641   1.345  17.067
 1301SOL    HW115782   0.551   1.367  17.044
 1301SOL    HW215783   0.680   1.428  17.094
 1302SOL     OW15784   3.077   3.136   6.642
 1302SOL    HW115785   3.125   3.066   6.596
 1302SOL    HW215786   3.071   3.105   6.733
 1303SOL     OW15787   3.087   3.074   5.477
 1303SOL    HW115788   3.064   2.982   5.464
 1303SOL    HW215789   3.008   3.122   5.451
 1304SOL     OW15790   4.179   3.600   4.448
 1304SOL    HW115791   4.186   3.656   4.371
 1304SOL    HW215792   4.140   3.519   4.415
 1305SOL     OW15793   3.173   2.162  17.340
 1305SOL    HW115794   3.241   2.193  17.400
 1305SOL    HW215795   3.105   2.229  17.344
 1306SOL     OW15796   0.350   2.639  17.339
 1306SOL    HW115797   0.401   2.649  17.258
 1306SOL    HW215798   0.320   2.548  17.336
 1307SOL     OW15799   2.574   2.680   0.907
 1307SOL    HW115800   2.594   2.737   0.833
 1307SOL    HW215801   2.640   2.611   0.903
 1308SOL     OW15802   0.979   2.534   1.792
 1308SOL    HW115803   0.946   2.624   1.792
 1308SOL    HW215804   0.951   2.498   1.877
 1309SOL     OW15805   0.556   0.856  15.620
 1309SOL    HW115806   0.560   0.881  15.527
 1309SOL    HW215807   0.466   0.827  15.634
 1310SOL     OW15808   2.753   0.652  20.028
 1310SOL    HW115809   2.830   0.673  20.080
 1310SOL    HW215810   2.786   0.607  19.951
 1311SOL     OW15811   2.554   1.488   0.532
 1311SOL    HW115812   2.569   1.555   0.466
 1311SOL    HW215813   2.533   1.409   0.482
 1312SOL     OW15814   3.444   4.027   0.193
 1312SOL    HW115815   3.493   3.945   0.186
 1312SOL    HW215816   3.505   4.088   0.234
 1313SOL     OW15817   2.627   4.255   5.431
 1313SOL    HW115818   2.566   4.319   5.394
 1313SOL    HW215819   2.598   4.171   5.394
 1314SOL     OW15820   3.061   3.531   9.627
 1314SOL    HW115821   3.125   3.461   9.639
 1314SOL    HW215822   3.103   3.608   9.666
 1315SOL     OW15823   3.804   3.202   1.026
 1315SOL    HW115824   3.865   3.135   0.995
 1315SOL    HW215825   3.735   3.152   1.070
 1316SOL     OW15826   2.261   1.467   4.238
 1316SOL    HW115827   2.168   1.447   4.251
 1316SOL    HW215828   2.301   1.382   4.221
 1317SOL     OW15829   0.821   1.487   6.865
 1317SOL    HW115830   0.732   1.522   6.871
 1317SOL    HW215831   0.809   1.393   6.854
 1318SOL     OW15832   4.140   2.601  20.235
 1318SOL    HW115833   4.212   2.625  20.176
 1318SOL    HW215834   4.068   2.577  20.176
 1319SOL     OW15835   0.151   0.999  20.416
 1319SOL    HW115836   0.215   0.942  20.460
 1319SOL    HW215837   0.135   1.070  20.479
 1320SOL     OW15838   4.170   2.900  13.775
 1320SOL    HW115839   4.104   2.869  13.713
 1320SOL    HW215840   4.178   2.829  13.839
 1321SOL     OW15841   1.158   1.643  13.235
 1321SOL    HW115842   1.207   1.577  13.188
 1321SOL    HW215843   1.151   1.610  13.325
 1322SOL     OW15844   1.211   4.530   0.512
 1322SOL    HW115845   1.169   4.474   0.447
 1322SOL    HW215846   1.205   4.618   0.476
 1323SOL     OW15847   0.785   2.126   8.216
 1323SOL    HW115848   0.724   2.063   8.176
 1323SOL    HW215849   0.866   2.076   8.228
 1324SOL     OW15850   2.663   3.838   5.652
 1324SOL    HW115851   2.572   3.822   5.626
 1324SOL    HW215852   2.675   3.933   5.644
 1325SOL     OW15853   1.967   2.769   9.872
 1325SOL    HW115854   1.897   2.764   9.936
 1325SOL    HW215855   2.038   2.816   9.917
 1326SOL     OW15856   0.957   4.515   3.567
 1326SOL    HW115857   1.034   4.572   3.568
 1326SOL    HW215858   0.886   4.569   3.603
 1327SOL     OW15859   2.787   3.268   3.432
 1327SOL    HW115860   2.710   3.264   3.489
 1327SOL    HW215861   2.842   3.194   3.460
 1328SOL     OW15862   1.537   2.689  16.306
 1328SOL    HW115863   1.540   2.598  16.278
 1328SOL    HW215864   1.465   2.727  16.256
 1329SOL     OW15865   3.168   3.972   2.500
 1329SOL    HW115866   3.251   3.942   2.462
 1329SOL    HW215867   3.173   4.067   2.496
 1330SOL     OW15868   3.790   2.159   1.652
 1330SOL    HW115869   3.844   2.237   1.660
 1330SOL    HW215870   3.706   2.192   1.617
 1331SOL     OW15871   3.963   2.798   5.697
 1331SOL    HW115872   4.058   2.787   5.686
 1331SOL    HW215873   3.927   2.779   5.610
 1332SOL     OW15874   2.867   2.240  16.330
 1332SOL    HW115875   2.884   2.230  16.424
 1332SOL    HW215876   2.955   2.247  16.291
 1333SOL     OW15877   0.336   1.372   0.932
 1333SOL    HW115878   0.356   1.455   0.888
 1333SOL    HW215879   0.241   1.365   0.929
 1334SOL     OW15880   1.542   0.243  17.880
 1334SOL    HW115881   1.553   0.220  17.787
 1334SOL    HW215882   1.480   0.316  17.879
 1335SOL     OW15883   0.314   3.347  18.905
 1335SOL    HW115884   0.372   3.422  18.913
 1335SOL    HW215885   0.281   3.352  18.815
 1336SOL     OW15886   1.912   0.044  20.222
 1336SOL    HW115887   1.823   0.077  20.212
 1336SOL    HW215888   1.913   0.007  20.311
 1337SOL     OW15889   0.873   1.838   2.184
 1337SOL    HW115890   0.849   1.860   2.094
 1337SOL    HW215891   0.950   1.892   2.202
 1338SOL     OW15892   3.557   4.328   0.342
 1338SOL    HW115893   3.578   4.414   0.307
 1338SOL    HW215894   3.642   4.284   0.350
 1339SOL     OW15895   2.796   4.447  17.939
 1339SOL    HW115896   2.729   4.396  17.984
 1339SOL    HW215897   2.873   4.390  17.938
 1340SOL     OW15898   1.711   3.242   1.311
 1340SOL    HW115899   1.709   3.208   1.401
 1340SOL    HW215900   1.788   3.202   1.272
 1341SOL     OW15901   1.445   2.486  20.060
 1341SOL    HW115902   1.365   2.436  20.078
 1341SOL    HW215903   1.487   2.438  19.988
 1342SOL     OW15904   0.673   0.631   3.711
 1342SOL    HW115905   0.748   0.643   3.653
 1342SOL    HW215906   0.600   0.674   3.666
 1343SOL     OW15907   0.016   1.443   6.363
 1343SOL    HW115908   0.001   1.360   6.409
 1343SOL    HW215909   4.758   1.435   6.281
 1344SOL     OW15910   4.689   2.806   3.245
 1344SOL    HW115911   4.708   2.892   3.207
 1344SOL    HW215912   4.646   2.757   3.175
 1345SOL     OW15913   1.582   0.898  17.144
 1345SOL    HW115914   1.572   0.811  17.105
 1345SOL    HW215915   1.521   0.953  17.096
 1346SOL     OW15916   3.008   2.824  21.081
 1346SOL    HW115917   3.033   2.910  21.113
 1346SOL    HW215918   3.083   2.768  21.099
 1347SOL     OW15919   0.442   2.674   5.266
 1347SOL    HW115920   0.368   2.623   5.299
 1347SOL    HW215921   0.514   2.611   5.260
 1348SOL     OW15922   4.145   4.422   6.386
 1348SOL    HW115923   4.058   4.448   6.357
 1348SOL    HW215924   4.136   4.330   6.412
 1349SOL     OW15925   1.918   1.314   3.078
 1349SOL    HW115926   1.952   1.242   3.025
 1349SOL    HW215927   1.989   1.379   3.080
 1350SOL     OW15928   0.616   0.894   5.491
 1350SOL    HW115929   0.577   0.819   5.536
 1350SOL    HW215930   0.632   0.958   5.561
 1351SOL     OW15931   2.099   0.604  17.743
 1351SOL    HW115932   2.006   0.581  17.746
 1351SOL    HW215933   2.126   0.583  17.654
 1352SOL     OW15934   2.424   3.785   5.510
 1352SOL    HW115935   2.405   3.878   5.518
 1352SOL    HW215936   2.397   3.763   5.421
 1353SOL     OW15937   1.267   3.818   1.564
 1353SOL    HW115938   1.205   3.828   1.492
 1353SOL    HW215939   1.305   3.905   1.576
 1354SOL     OW15940   0.149   4.454  15.282
 1354SOL    HW115941   0.109   4.480  15.365
 1354SOL    HW215942   0.099   4.377  15.254
 1355SOL     OW15943   0.692   0.061   1.368
 1355SOL    HW115944   0.688   0.084   1.275
 1355SOL    HW215945   0.650   0.135   1.413
 1356SOL     OW15946   4.558   0.350  15.352
 1356SOL    HW115947   4.467   0.381  15.347
 1356SOL    HW215948   4.575   0.312  15.266
 1357SOL     OW15949   3.481   3.049  18.577
 1357SOL    HW115950   3.424   3.078  18.506
 1357SOL    HW215951   3.422   3.006  18.639
 1358SOL     OW15952   1.656   1.025  11.943
 1358SOL    HW115953   1.664   0.938  11.903
 1358SOL    HW215954   1.723   1.077  11.898
 1359SOL     OW15955   1.588   3.987  16.301
 1359SOL    HW115956   1.495   3.971  16.285
 1359SOL    HW215957   1.608   4.063  16.247
 1360SOL     OW15958   2.498   4.387  19.408
 1360SOL    HW115959   2.544   4.322  19.357
 1360SOL    HW215960   2.409   4.389  19.371
 1361SOL     OW15961   0.741   3.449  17.352
 1361SOL    HW115962   0.715   3.359  17.371
 1361SOL    HW215963   0.833   3.454  17.378
 1362SOL     OW15964   1.676   1.139   5.514
 1362SOL    HW115965   1.630   1.151   5.598
 1362SOL    HW215966   1.637   1.204   5.456
 1363SOL     OW15967   2.741   0.400   5.992
 1363SOL    HW115968   2.700   0.356   6.066
 1363SOL    HW215969   2.768   0.329   5.934
 1364SOL     OW15970   4.590   3.146   6.947
 1364SOL    HW115971   4.581   3.153   7.042
 1364SOL    HW215972   4.520   3.086   6.921
 1365SOL     OW15973   0.052   0.680  19.118
 1365SOL    HW115974   0.093   0.761  19.089
 1365SOL    HW215975   0.084   0.668  19.208
 1366SOL     OW15976   4.032   3.292   2.245
 1366SOL    HW115977   4.023   3.362   2.180
 1366SOL    HW215978   3.942   3.261   2.260
 1367SOL     OW15979   2.425   0.060   3.066
 1367SOL    HW115980   2.423   0.100   3.153
 1367SOL    HW215981   2.373   4.772   3.074
 1368SOL     OW15982   4.141   1.041  17.922
 1368SOL    HW115983   4.067   1.050  17.982
 1368SOL    HW215984   4.112   0.977  17.857
 1369SOL     OW15985   1.996   1.411   7.247
 1369SOL    HW115986   2.039   1.485   7.289
 1369SOL    HW215987   1.926   1.387   7.308
 1370SOL     OW15988   3.674   1.366  18.670
 1370SOL    HW115989   3.599   1.399  18.719
 1370SOL    HW215990   3.678   1.422  18.592
 1371SOL     OW15991   4.080   0.019  17.551
 1371SOL    HW115992   4.095   4.751  17.477
 1371SOL    HW215993   4.109   4.762  17.628
 1372SOL     OW15994   0.078   0.310   6.206
 1372SOL    HW115995   0.142   0.298   6.136
 1372SOL    HW215996   4.784   0.292   6.165
 1373SOL     OW15997   1.713   2.261  19.107
 1373SOL    HW115998   1.635   2.240  19.057
 1373SOL    HW215999   1.784   2.258  19.043
 1374SOL     OW16000   1.251   3.365   0.433
 1374SOL    HW116001   1.189   3.390   0.501
 1374SOL    HW216002   1.333   3.408   0.459
 1375SOL     OW16003   3.263   2.442  13.838
 1375SOL    HW116004   3.235   2.350  13.840
 1375SOL    HW216005   3.185   2.491  13.864
 1376SOL     OW16006   0.678   3.491  11.910
 1376SOL    HW116007   0.679   3.553  11.983
 1376SOL    HW216008   0.768   3.490  11.878
 1377SOL     OW16009   0.999   2.877   1.298
 1377SOL    HW116010   1.026   2.882   1.390
 1377SOL    HW216011   0.998   2.783   1.280
 1378SOL     OW16012   2.353   0.656   0.806
 1378SOL    HW116013   2.425   0.707   0.843
 1378SOL    HW216014   2.386   0.566   0.807
 1379SOL     OW16015   2.744   2.738  21.194
 1379SOL    HW116016   2.822   2.782  21.160
 1379SOL    HW216017   2.778   2.665  21.245
 1380SOL     OW16018   2.369   2.374   5.842
 1380SOL    HW116019   2.373   2.290   5.797
 1380SOL    HW216020   2.455   2.382   5.885
 1381SOL     OW16021   4.451   4.670   6.631
 1381SOL    HW116022   4.539   4.632   6.632
 1381SOL    HW216023   4.394   4.600   6.661
 1382SOL     OW16024   1.710   2.131   5.073
 1382SOL    HW116025   1.770   2.059   5.093
 1382SOL    HW216026   1.708   2.184   5.152
 1383SOL     OW16027   2.845   2.981  19.169
 1383SOL    HW116028   2.902   2.914  19.207
 1383SOL    HW216029   2.823   2.948  19.082
 1384SOL     OW16030   0.835   1.890  17.909
 1384SOL    HW116031   0.756   1.935  17.939
 1384SOL    HW216032   0.906   1.949  17.933
 1385SOL     OW16033   3.829   3.630  20.325
 1385SOL    HW116034   3.891   3.562  20.296
 1385SOL    HW216035   3.745   3.585  20.331
 1386SOL     OW16036   1.184   3.479  21.018
 1386SOL    HW116037   1.277   3.468  21.040
 1386SOL    HW216038   1.180   3.466  20.924
 1387SOL     OW16039   4.616   0.350  11.333
 1387SOL    HW116040   4.623   0.446  11.330
 1387SOL    HW216041   4.704   0.319  11.310
 1388SOL     OW16042   0.084   4.730   3.619
 1388SOL    HW116043   0.177   4.741   3.601
 1388SOL    HW216044   0.040   4.756   3.538
 1389SOL     OW16045   2.799   0.357   1.208
 1389SOL    HW116046   2.829   0.315   1.289
 1389SOL    HW216047   2.740   0.292   1.169
 1390SOL     OW16048   0.253   2.040  17.778
 1390SOL    HW116049   0.207   2.090  17.846
 1390SOL    HW216050   0.206   1.957  17.773
 1391SOL     OW16051   2.556   0.542  15.579
 1391SOL    HW116052   2.548   0.509  15.668
 1391SOL    HW216053   2.491   0.493  15.529
 1392SOL     OW16054   4.739   3.438  18.975
 1392SOL    HW116055   4.737   3.460  18.881
 1392SOL    HW216056   4.742   3.523  19.019
 1393SOL     OW16057   3.887   0.127  13.849
 1393SOL    HW116058   3.973   0.086  13.856
 1393SOL    HW216059   3.873   0.137  13.754
 1394SOL     OW16060   3.078   4.016   0.739
 1394SOL    HW116061   3.068   4.111   0.727
 1394SOL    HW216062   2.991   3.985   0.763
 1395SOL     OW16063   3.084   4.766   6.562
 1395SOL    HW116064   2.999   4.756   6.606
 1395SOL    HW216065   3.070   4.731   6.474
 1396SOL     OW16066   0.728   1.130   3.246
 1396SOL    HW116067   0.653   1.072   3.234
 1396SOL    HW216068   0.793   1.077   3.293
 1397SOL     OW16069   0.998   2.803  15.860
 1397SOL    HW116070   0.978   2.846  15.777
 1397SOL    HW216071   1.067   2.857  15.899
 1398SOL     OW16072   2.504   1.465  18.178
 1398SOL    HW116073   2.580   1.510  18.214
 1398SOL    HW216074   2.429   1.506  18.221
 1399SOL     OW16075   2.976   2.477   1.811
 1399SOL    HW116076   3.021   2.447   1.731
 1399SOL    HW216077   2.936   2.397   1.846
 1400SOL     OW16078   4.786   3.321   5.953
 1400SOL    HW116079   4.693   3.334   5.932
 1400SOL    HW216080   0.037   3.404   5.930
 1401SOL     OW16081   4.502   1.193   0.764
 1401SOL    HW116082   4.586   1.151   0.748
 1401SOL    HW216083   4.518   1.249   0.840
 1402SOL     OW16084   3.971   4.425  19.409
 1402SOL    HW116085   3.993   4.333  19.398
 1402SOL    HW216086   3.876   4.429  19.397
 1403SOL     OW16087   0.071   3.709  18.105
 1403SOL    HW116088   0.024   3.737  18.026
 1403SOL    HW216089   0.067   3.785  18.163
 1404SOL     OW16090   0.870   0.364  18.509
 1404SOL    HW116091   0.859   0.270  18.523
 1404SOL    HW216092   0.842   0.378  18.418
 1405SOL     OW16093   1.224   2.495   0.559
 1405SOL    HW116094   1.267   2.431   0.615
 1405SOL    HW216095   1.268   2.578   0.580
 1406SOL     OW16096   2.595   3.978   5.330
 1406SOL    HW116097   2.624   3.920   5.401
 1406SOL    HW216098   2.674   4.000   5.282
 1407SOL     OW16099   3.808   2.431   4.673
 1407SOL    HW116100   3.885   2.425   4.730
 1407SOL    HW216101   3.740   2.470   4.728
 1408SOL     OW16102   0.677   1.780   2.408
 1408SOL    HW116103   0.748   1.787   2.344
 1408SOL    HW216104   0.719   1.746   2.487
 1409SOL     OW16105   2.915   3.802   4.799
 1409SOL    HW116106   2.865   3.771   4.724
 1409SOL    HW216107   2.987   3.739   4.808
 1410SOL     OW16108   1.672   3.427   3.776
 1410SOL    HW116109   1.663   3.514   3.738
 1410SOL    HW216110   1.712   3.443   3.862
 1411SOL     OW16111   1.272   4.512   2.336
 1411SOL    HW116112   1.279   4.568   2.414
 1411SOL    HW216113   1.180   4.485   2.336
 1412SOL     OW16114   3.524   3.593   3.201
 1412SOL    HW116115   3.546   3.573   3.110
 1412SOL    HW216116   3.593   3.549   3.252
 1413SOL     OW16117   4.610   1.716   6.074
 1413SOL    HW116118   4.592   1.751   6.162
 1413SOL    HW216119   4.590   1.789   6.015
 1414SOL     OW16120   2.980   2.581  20.398
 1414SOL    HW116121   3.057   2.586  20.342
 1414SOL    HW216122   2.934   2.503  20.367
 1415SOL     OW16123   2.189   1.550  17.804
 1415SOL    HW116124   2.258   1.603  17.765
 1415SOL    HW216125   2.176   1.588  17.891
 1416SOL     OW16126   3.562   3.919  18.449
 1416SOL    HW116127   3.537   3.941  18.359
 1416SOL    HW216128   3.657   3.933  18.451
 1417SOL     OW16129   1.635   3.632   7.039
 1417SOL    HW116130   1.641   3.539   7.063
 1417SOL    HW216131   1.649   3.679   7.121
 1418SOL     OW16132   0.753   4.142  19.469
 1418SOL    HW116133   0.847   4.131  19.460
 1418SOL    HW216134   0.717   4.112  19.386
 1419SOL     OW16135   1.401   0.127   1.005
 1419SOL    HW116136   1.358   0.122   1.090
 1419SOL    HW216137   1.434   0.217   1.000
 1420SOL     OW16138   3.759   3.446   6.727
 1420SOL    HW116139   3.767   3.378   6.660
 1420SOL    HW216140   3.772   3.399   6.810
 1421SOL     OW16141   0.276   4.554   7.273
 1421SOL    HW116142   0.304   4.529   7.360
 1421SOL    HW216143   0.185   4.526   7.267
 1422SOL     OW16144   4.246   3.128   1.839
 1422SOL    HW116145   4.249   3.032   1.847
 1422SOL    HW216146   4.315   3.149   1.776
 1423SOL     OW16147   1.506   2.308   3.871
 1423SOL    HW116148   1.427   2.260   3.897
 1423SOL    HW216149   1.577   2.266   3.920
 1424SOL     OW16150   1.200   3.566   4.836
 1424SOL    HW116151   1.198   3.478   4.797
 1424SOL    HW216152   1.166   3.553   4.925
 1425SOL     OW16153   2.870   3.348  18.310
 1425SOL    HW116154   2.905   3.312  18.229
 1425SOL    HW216155   2.843   3.437  18.287
 1426SOL     OW16156   0.848   3.290   6.611
 1426SOL    HW116157   0.814   3.359   6.668
 1426SOL    HW216158   0.897   3.232   6.669
 1427SOL     OW16159   0.557   2.076  16.892
 1427SOL    HW116160   0.469   2.095  16.923
 1427SOL    HW216161   0.612   2.146  16.928
 1428SOL     OW16162   3.528   3.356   4.345
 1428SOL    HW116163   3.511   3.413   4.420
 1428SOL    HW216164   3.620   3.373   4.322
 1429SOL     OW16165   1.728   0.345  13.948
 1429SOL    HW116166   1.711   0.388  13.864
 1429SOL    HW216167   1.650   0.362  14.000
 1430SOL     OW16168   4.751   2.942   4.635
 1430SOL    HW116169   4.671   2.906   4.596
 1430SOL    HW216170   0.013   2.864   4.656
 1431SOL     OW16171   2.599   0.803  21.026
 1431SOL    HW116172   2.630   0.759  20.946
 1431SOL    HW216173   2.584   0.731  21.087
 1432SOL     OW16174   1.043   3.097  19.375
 1432SOL    HW116175   1.100   3.143  19.313
 1432SOL    HW216176   0.996   3.166  19.421
 1433SOL     OW16177   3.438   4.522  13.113
 1433SOL    HW116178   3.368   4.456  13.107
 1433SOL    HW216179   3.418   4.570  13.193
 1434SOL     OW16180   0.540   0.649   0.632
 1434SOL    HW116181   0.507   0.629   0.544
 1434SOL    HW216182   0.635   0.646   0.622
 1435SOL     OW16183   2.075   4.381   4.761
 1435SOL    HW116184   2.009   4.313   4.747
 1435SOL    HW216185   2.044   4.429   4.837
 1436SOL     OW16186   4.028   4.145  14.515
 1436SOL    HW116187   4.123   4.135  14.518
 1436SOL    HW216188   4.002   4.100  14.435
 1437SOL     OW16189   1.812   4.295   6.068
 1437SOL    HW116190   1.745   4.358   6.041
 1437SOL    HW216191   1.893   4.328   6.030
 1438SOL     OW16192   2.055   3.595  20.266
 1438SOL    HW116193   2.104   3.605  20.185
 1438SOL    HW216194   2.085   3.512  20.303
 1439SOL     OW16195   0.831   3.942  17.643
 1439SOL    HW116196   0.912   3.914  17.685
 1439SOL    HW216197   0.767   3.947  17.714
 1440SOL     OW16198   0.077   3.448  18.014
 1440SOL    HW116199   0.080   3.541  18.037
 1440SOL    HW216200   0.165   3.427  17.983
 1441SOL     OW16201   3.856   2.455   4.007
 1441SOL    HW116202   3.917   2.489   3.942
 1441SOL    HW216203   3.910   2.406   4.069
 1442SOL     OW16204   2.978   2.846   6.558
 1442SOL    HW116205   3.052   2.864   6.501
 1442SOL    HW216206   2.924   2.785   6.508
 1443SOL     OW16207   0.549   3.664  16.669
 1443SOL    HW116208   0.513   3.649  16.582
 1443SOL    HW216209   0.472   3.674  16.725
 1444SOL     OW16210   1.204   0.885  19.491
 1444SOL    HW116211   1.276   0.867  19.431
 1444SOL    HW216212   1.242   0.878  19.578
 1445SOL     OW16213   0.989   4.436  19.916
 1445SOL    HW116214   1.002   4.515  19.864
 1445SOL    HW216215   0.993   4.365  19.853
 1446SOL     OW16216   4.383   2.671   0.222
 1446SOL    HW116217   4.376   2.696   0.130
 1446SOL    HW216218   4.375   2.575   0.222
 1447SOL     OW16219   1.167   2.112   4.519
 1447SOL    HW116220   1.233   2.051   4.552
 1447SOL    HW216221   1.166   2.183   4.583
 1448SOL     OW16222   1.816   1.003   5.181
 1448SOL    HW116223   1.803   1.092   5.150
 1448SOL    HW216224   1.842   1.014   5.273
 1449SOL     OW16225   4.685   0.056  18.628
 1449SOL    HW116226   4.689   0.037  18.722
 1449SOL    HW216227   4.722   0.144  18.619
 1450SOL     OW16228   0.850   4.347  18.771
 1450SOL    HW116229   0.767   4.371  18.729
 1450SOL    HW216230   0.824   4.315  18.858
 1451SOL     OW16231   2.107   4.208  13.769
 1451SOL    HW116232   2.162   4.262  13.713
 1451SOL    HW216233   2.139   4.223  13.858
 1452SOL     OW16234   3.226   1.179  16.551
 1452SOL    HW116235   3.253   1.246  16.613
 1452SOL    HW216236   3.166   1.224  16.491
 1453SOL     OW16237   3.116   2.545  16.085
 1453SOL    HW116238   3.208   2.568  16.071
 1453SOL    HW216239   3.117   2.487  16.161
 1454SOL     OW16240   3.013   3.512   1.745
 1454SOL    HW116241   2.979   3.430   1.708
 1454SOL    HW216242   2.997   3.578   1.678
 1455SOL     OW16243   3.121   2.715  17.664
 1455SOL    HW116244   3.040   2.746  17.705
 1455SOL    HW216245   3.116   2.746  17.574
 1456SOL     OW16246   4.740   2.505   5.320
 1456SOL    HW116247   4.672   2.486   5.255
 1456SOL    HW216248   0.012   2.560   5.273
 1457SOL     OW16249   2.174   1.245   1.497
 1457SOL    HW116250   2.161   1.185   1.423
 1457SOL    HW216251   2.247   1.301   1.470
 1458SOL     OW16252   3.639   0.575  20.175
 1458SOL    HW116253   3.556   0.528  20.167
 1458SOL    HW216254   3.650   0.588  20.269
 1459SOL     OW16255   2.070   0.269  20.756
 1459SOL    HW116256   2.128   0.211  20.804
 1459SOL    HW216257   1.984   0.258  20.798
 1460SOL     OW16258   2.114   0.590   1.348
 1460SOL    HW116259   2.065   0.638   1.415
 1460SOL    HW216260   2.205   0.595   1.376
 1461SOL     OW16261   0.520   1.587   3.852
 1461SOL    HW116262   0.455   1.608   3.785
 1461SOL    HW216263   0.475   1.528   3.911
 1462SOL     OW16264   4.054   4.787  18.215
 1462SOL    HW116265   4.051   0.051  18.293
 1462SOL    HW216266   3.968   0.007  18.174
 1463SOL     OW16267   0.057   2.741   4.028
 1463SOL    HW116268   0.087   2.724   4.117
 1463SOL    HW216269   0.137   2.742   3.975
 1464SOL     OW16270   4.634   2.420  15.890
 1464SOL    HW116271   4.543   2.392  15.898
 1464SOL    HW216272   4.655   2.409  15.797
 1465SOL     OW16273   3.763   4.138  21.240
 1465SOL    HW116274   3.848   4.135  21.196
 1465SOL    HW216275   3.761   4.224   0.019
 1466SOL     OW16276   4.043   0.500  18.346
 1466SOL    HW116277   4.033   0.456  18.262
 1466SOL    HW216278   4.023   0.592  18.328
 1467SOL     OW16279   3.229   1.692  16.084
 1467SOL    HW116280   3.136   1.694  16.109
 1467SOL    HW216281   3.270   1.759  16.138
 1468SOL     OW16282   2.712   3.913  12.856
 1468SOL    HW116283   2.670   3.917  12.771
 1468SOL    HW216284   2.651   3.864  12.911
 1469SOL     OW16285   0.768   4.619  18.417
 1469SOL    HW116286   0.712   4.599  18.342
 1469SOL    HW216287   0.722   4.579  18.491
 1470SOL     OW16288   4.035   4.445  14.565
 1470SOL    HW116289   4.036   4.527  14.516
 1470SOL    HW216290   3.999   4.381  14.503
 1471SOL     OW16291   1.240   4.372   1.643
 1471SOL    HW116292   1.302   4.307   1.610
 1471SOL    HW216293   1.215   4.423   1.565
 1472SOL     OW16294   1.142   2.025   5.826
 1472SOL    HW116295   1.147   1.936   5.790
 1472SOL    HW216296   1.114   2.012   5.916
 1473SOL     OW16297   2.341   0.389   4.143
 1473SOL    HW116298   2.356   0.326   4.214
 1473SOL    HW216299   2.292   0.341   4.077
 1474SOL     OW16300   0.909   0.997  20.033
 1474SOL    HW116301   0.968   0.968  19.964
 1474SOL    HW216302   0.842   1.048  19.987
 1475SOL     OW16303   3.034   0.774  15.663
 1475SOL    HW116304   2.985   0.769  15.745
 1475SOL    HW216305   3.032   0.866  15.639
 1476SOL     OW16306   3.070   1.982  19.267
 1476SOL    HW116307   3.037   1.897  19.298
 1476SOL    HW216308   3.009   2.046  19.304
 1477SOL     OW16309   2.966   4.164  18.760
 1477SOL    HW116310   2.904   4.114  18.813
 1477SOL    HW216311   2.975   4.112  18.679
 1478SOL     OW16312   3.146   3.007  21.247
 1478SOL    HW116313   3.176   3.046   0.066
 1478SOL    HW216314   3.193   3.055  21.179
 1479SOL     OW16315   0.660   2.056  18.934
 1479SOL    HW116316   0.610   1.988  18.978
 1479SOL    HW216317   0.619   2.064  18.847
 1480SOL     OW16318   3.257   2.766   5.692
 1480SOL    HW116319   3.252   2.732   5.603
 1480SOL    HW216320   3.236   2.691   5.747
 1481SOL     OW16321   0.808   0.782  18.521
 1481SOL    HW116322   0.734   0.836  18.550
 1481SOL    HW216323   0.794   0.698  18.565
 1482SOL     OW16324   4.263   0.553  19.746
 1482SOL    HW116325   4.237   0.485  19.808
 1482SOL    HW216326   4.354   0.533  19.723
 1483SOL     OW16327   3.771   2.873  20.697
 1483SOL    HW116328   3.703   2.914  20.644
 1483SOL    HW216329   3.807   2.805  20.641
 1484SOL     OW16330   4.655   1.439  15.542
 1484SOL    HW116331   4.660   1.534  15.539
 1484SOL    HW216332   4.593   1.416  15.472
 1485SOL     OW16333   2.542   1.680  17.402
 1485SOL    HW116334   2.499   1.644  17.480
 1485SOL    HW216335   2.632   1.695  17.430
 1486SOL     OW16336   3.556   2.392  20.466
 1486SOL    HW116337   3.478   2.382  20.520
 1486SOL    HW216338   3.616   2.443  20.520
 1487SOL     OW16339   1.848   1.297   6.749
 1487SOL    HW116340   1.899   1.373   6.779
 1487SOL    HW216341   1.806   1.263   6.828
 1488SOL     OW16342   1.061   4.031  15.743
 1488SOL    HW116343   1.056   4.117  15.785
 1488SOL    HW216344   1.014   3.972  15.803
 1489SOL     OW16345   1.291   2.947   5.653
 1489SOL    HW116346   1.324   2.911   5.735
 1489SOL    HW216347   1.259   2.871   5.605
 1490SOL     OW16348   3.328   4.784  20.287
 1490SOL    HW116349   3.282   4.791  20.204
 1490SOL    HW216350   3.260   4.765  20.351
 1491SOL     OW16351   3.491   3.678  18.829
 1491SOL    HW116352   3.484   3.759  18.881
 1491SOL    HW216353   3.400   3.647  18.822
 1492SOL     OW16354   1.165   2.990   2.224
 1492SOL    HW116355   1.120   2.963   2.304
 1492SOL    HW216356   1.228   3.056   2.254
 1493SOL     OW16357   3.779   1.975   6.412
 1493SOL    HW116358   3.810   1.951   6.324
 1493SOL    HW216359   3.850   1.951   6.470
 1494SOL     OW16360   0.827   2.153   5.446
 1494SOL    HW116361   0.774   2.227   5.475
 1494SOL    HW216362   0.795   2.132   5.358
 1495SOL     OW16363   1.743   1.590  20.320
 1495SOL    HW116364   1.838   1.589  20.324
 1495SOL    HW216365   1.718   1.673  20.362
 1496SOL     OW16366   3.671   1.795  12.330
 1496SOL    HW116367   3.755   1.753  12.312
 1496SOL    HW216368   3.675   1.878  12.283
 1497SOL     OW16369   3.528   4.191  14.715
 1497SOL    HW116370   3.587   4.140  14.659
 1497SOL    HW216371   3.584   4.260  14.751
 1498SOL     OW16372   3.740   2.548  14.688
 1498SOL    HW116373   3.664   2.600  14.665
 1498SOL    HW216374   3.708   2.457  14.688
 1499SOL     OW16375   3.874   1.093   3.696
 1499SOL    HW116376   3.789   1.054   3.675
 1499SOL    HW216377   3.855   1.153   3.768
 1500SOL     OW16378   0.832   3.377  18.393
 1500SOL    HW116379   0.738   3.368  18.377
 1500SOL    HW216380   0.867   3.414  18.312
 1501SOL     OW16381   2.017   0.971  19.233
 1501SOL    HW116382   2.018   0.991  19.139
 1501SOL    HW216383   1.925   0.952  19.252
 1502SOL     OW16384   4.440   4.474  17.714
 1502SOL    HW116385   4.385   4.416  17.660
 1502SOL    HW216386   4.463   4.546  17.655
 1503SOL     OW16387   4.581   0.833   2.315
 1503SOL    HW116388   4.589   0.753   2.263
 1503SOL    HW216389   4.562   0.901   2.251
 1504SOL     OW16390   4.621   2.085  14.993
 1504SOL    HW116391   4.556   2.145  14.956
 1504SOL    HW216392   4.603   2.001  14.951
 1505SOL     OW16393   2.139   4.072  19.664
 1505SOL    HW116394   2.219   4.124  19.659
 1505SOL    HW216395   2.163   3.996  19.717
 1506SOL     OW16396   2.285   0.579   2.217
 1506SOL    HW116397   2.278   0.588   2.122
 1506SOL    HW216398   2.328   0.495   2.230
 1507SOL     OW16399   3.805   3.439   2.673
 1507SOL    HW116400   3.741   3.450   2.602
 1507SOL    HW216401   3.772   3.364   2.723
 1508SOL     OW16402   1.241   0.578   4.058
 1508SOL    HW116403   1.152   0.612   4.055
 1508SOL    HW216404   1.241   0.515   4.130
 1509SOL     OW16405   3.696   4.678  14.494
 1509SOL    HW116406   3.784   4.712  14.477
 1509SOL    HW216407   3.643   4.712  14.422
 1510SOL     OW16408   3.289   4.394   0.284
 1510SOL    HW116409   3.232   4.328   0.324
 1510SOL    HW216410   3.377   4.369   0.310
 1511SOL     OW16411   4.176   2.111   5.514
 1511SOL    HW116412   4.185   2.173   5.586
 1511SOL    HW216413   4.156   2.027   5.557
 1512SOL     OW16414   0.221   4.537   7.806
 1512SOL    HW116415   0.214   4.608   7.742
 1512SOL    HW216416   0.207   4.457   7.755
 1513SOL     OW16417   4.520   4.544  15.392
 1513SOL    HW116418   4.475   4.543  15.477
 1513SOL    HW216419   4.560   4.458  15.385
 1514SOL     OW16420   2.548   2.241   8.890
 1514SOL    HW116421   2.518   2.188   8.817
 1514SOL    HW216422   2.482   2.226   8.959
 1515SOL     OW16423   4.121   3.114   2.508
 1515SOL    HW116424   4.138   3.199   2.550
 1515SOL    HW216425   4.176   3.116   2.429
 1516SOL     OW16426   2.521   2.191   5.126
 1516SOL    HW116427   2.551   2.266   5.075
 1516SOL    HW216428   2.432   2.214   5.154
 1517SOL     OW16429   1.195   1.656   1.895
 1517SOL    HW116430   1.164   1.637   1.983
 1517SOL    HW216431   1.222   1.748   1.898
 1518SOL     OW16432   4.366   0.663   4.458
 1518SOL    HW116433   4.390   0.733   4.397
 1518SOL    HW216434   4.377   0.582   4.408
 1519SOL     OW16435   0.419   3.156  19.878
 1519SOL    HW116436   0.513   3.170  19.874
 1519SOL    HW216437   0.384   3.199  19.800
 1520SOL     OW16438   2.516   2.394   0.327
 1520SOL    HW116439   2.514   2.475   0.276
 1520SOL    HW216440   2.581   2.410   0.395
 1521SOL     OW16441   3.619   2.283   9.078
 1521SOL    HW116442   3.653   2.258   9.165
 1521SOL    HW216443   3.546   2.342   9.097
 1522SOL     OW16444   4.359   1.442  17.228
 1522SOL    HW116445   4.400   1.379  17.168
 1522SOL    HW216446   4.278   1.468  17.184
 1523SOL     OW16447   0.494   2.696  17.584
 1523SOL    HW116448   0.575   2.649  17.603
 1523SOL    HW216449   0.473   2.675  17.493
 1524SOL     OW16450   0.187   2.964  18.323
 1524SOL    HW116451   0.145   2.926  18.246
 1524SOL    HW216452   0.280   2.970  18.299
 1525SOL     OW16453   2.752   2.946   2.585
 1525SOL    HW116454   2.663   2.931   2.554
 1525SOL    HW216455   2.785   2.858   2.607
 1526SOL     OW16456   3.119   1.560  19.606
 1526SOL    HW116457   3.036   1.543  19.562
 1526SOL    HW216458   3.186   1.537  19.542
 1527SOL     OW16459   0.949   1.796   5.380
 1527SOL    HW116460   0.876   1.755   5.334
 1527SOL    HW216461   1.016   1.808   5.312
 1528SOL     OW16462   0.268   0.388   0.128
 1528SOL    HW116463   0.287   0.321   0.063
 1528SOL    HW216464   0.274   0.343   0.212
 1529SOL     OW16465   0.287   3.135   5.729
 1529SOL    HW116466   0.229   3.208   5.707
 1529SOL    HW216467   0.262   3.111   5.818
 1530SOL     OW16468   4.568   1.141   5.989
 1530SOL    HW116469   4.511   1.076   5.949
 1530SOL    HW216470   4.572   1.212   5.924
 1531SOL     OW16471   0.838   4.311  13.952
 1531SOL    HW116472   0.822   4.252  13.878
 1531SOL    HW216473   0.885   4.385  13.915
 1532SOL     OW16474   1.794   4.066   0.942
 1532SOL    HW116475   1.725   4.133   0.937
 1532SOL    HW216476   1.870   4.113   0.978
 1533SOL     OW16477   2.977   3.123  17.578
 1533SOL    HW116478   2.981   3.130  17.483
 1533SOL    HW216479   3.060   3.160  17.609
 1534SOL     OW16480   4.537   1.348   6.809
 1534SOL    HW116481   4.537   1.253   6.810
 1534SOL    HW216482   4.630   1.372   6.817
 1535SOL     OW16483   0.858   2.572  15.315
 1535SOL    HW116484   0.907   2.597  15.393
 1535SOL    HW216485   0.919   2.517  15.265
 1536SOL     OW16486   2.870   3.830  21.065
 1536SOL    HW116487   2.838   3.919  21.067
 1536SOL    HW216488   2.792   3.775  21.074
 1537SOL     OW16489   4.375   3.562   4.065
 1537SOL    HW116490   4.438   3.569   3.993
 1537SOL    HW216491   4.298   3.611   4.036
 1538SOL     OW16492   4.526   4.707  17.959
 1538SOL    HW116493   4.559   4.624  17.995
 1538SOL    HW216494   4.450   4.728  18.014
 1539SOL     OW16495   1.318   3.873  19.250
 1539SOL    HW116496   1.383   3.867  19.320
 1539SOL    HW216497   1.369   3.864  19.169
 1540SOL     OW16498   4.022   2.056   6.783
 1540SOL    HW116499   3.972   2.093   6.710
 1540SOL    HW216500   3.969   2.076   6.861
 1541SOL     OW16501   0.534   2.764   0.048
 1541SOL    HW116502   0.449   2.734   0.078
 1541SOL    HW216503   0.597   2.712   0.098
 1542SOL     OW16504   4.180   3.783   4.264
 1542SOL    HW116505   4.142   3.792   4.177
 1542SOL    HW216506   4.238   3.858   4.273
 1543SOL     OW16507   1.407   1.647  17.283
 1543SOL    HW116508   1.472   1.587  17.321
 1543SOL    HW216509   1.410   1.724  17.340
 1544SOL     OW16510   1.658   1.217   6.341
 1544SOL    HW116511   1.701   1.132   6.327
 1544SOL    HW216512   1.678   1.239   6.432
 1545SOL     OW16513   2.182   0.789  18.930
 1545SOL    HW116514   2.238   0.738  18.871
 1545SOL    HW216515   2.236   0.805  19.007
 1546SOL     OW16516   0.584   2.252  16.052
 1546SOL    HW116517   0.501   2.298  16.038
 1546SOL    HW216518   0.640   2.282  15.980
 1547SOL     OW16519   4.004   0.488  14.422
 1547SOL    HW116520   3.950   0.560  14.390
 1547SOL    HW216521   3.958   0.409  14.393
 1548SOL     OW16522   2.971   4.296  15.493
 1548SOL    HW116523   2.939   4.218  15.447
 1548SOL    HW216524   3.010   4.262  15.574
 1549SOL     OW16525   2.432   4.081  14.714
 1549SOL    HW116526   2.420   4.147  14.782
 1549SOL    HW216527   2.526   4.064  14.714
 1550SOL     OW16528   1.901   0.365   4.685
 1550SOL    HW116529   1.834   0.351   4.751
 1550SOL    HW216530   1.856   0.352   4.601
 1551SOL     OW16531   4.690   3.915  19.758
 1551SOL    HW116532   4.755   3.941  19.694
 1551SOL    HW216533   4.655   3.997  19.793
 1552SOL     OW16534   1.550   1.827   3.752
 1552SOL    HW116535   1.572   1.900   3.810
 1552SOL    HW216536   1.457   1.812   3.767
 1553SOL     OW16537   1.992   4.150   6.391
 1553SOL    HW116538   1.932   4.224   6.402
 1553SOL    HW216539   1.937   4.080   6.356
 1554SOL     OW16540   3.896   3.438  17.214
 1554SOL    HW116541   3.961   3.487  17.264
 1554SOL    HW216542   3.946   3.394  17.145
 1555SOL     OW16543   0.055   2.686   0.843
 1555SOL    HW116544   0.026   2.747   0.910
 1555SOL    HW216545   0.147   2.708   0.828
 1556SOL     OW16546   3.908   1.150  18.021
 1556SOL    HW116547   3.955   1.160  18.103
 1556SOL    HW216548   3.824   1.110  18.046
 1557SOL     OW16549   1.843   0.058  20.670
 1557SOL    HW116550   1.847   0.154  20.662
 1557SOL    HW216551   1.930   0.033  20.700
 1558SOL     OW16552   2.162   3.213   7.050
 1558SOL    HW116553   2.113   3.138   7.015
 1558SOL    HW216554   2.250   3.178   7.064
 1559SOL     OW16555   3.914   0.857  20.536
 1559SOL    HW116556   3.866   0.930  20.573
 1559SOL    HW216557   4.005   0.872  20.562
 1560SOL     OW16558   0.148   2.682  16.388
 1560SOL    HW116559   0.230   2.635  16.406
 1560SOL    HW216560   0.161   2.722  16.302
 1561SOL     OW16561   3.382   0.451  15.797
 1561SOL    HW116562   3.319   0.396  15.844
 1561SOL    HW216563   3.423   0.505  15.864
 1562SOL     OW16564   0.864   3.969  19.846
 1562SOL    HW116565   0.774   3.995  19.829
 1562SOL    HW216566   0.915   4.049  19.833
 1563SOL     OW16567   0.454   4.260   5.930
 1563SOL    HW116568   0.542   4.236   5.958
 1563SOL    HW216569   0.466   4.338   5.876
 1564SOL     OW16570   1.879   1.196  14.024
 1564SOL    HW116571   1.860   1.103  14.029
 1564SOL    HW216572   1.796   1.237  13.999
 1565SOL     OW16573   3.150   2.870  15.624
 1565SOL    HW116574   3.099   2.834  15.696
 1565SOL    HW216575   3.219   2.805  15.609
 1566SOL     OW16576   0.003   4.636  12.846
 1566SOL    HW116577   4.777   4.604  12.758
 1566SOL    HW216578   0.088   4.679  12.840
 1567SOL     OW16579   0.469   2.772  20.788
 1567SOL    HW116580   0.484   2.814  20.873
 1567SOL    HW216581   0.534   2.702  20.784
 1568SOL     OW16582   3.950   4.420   4.534
 1568SOL    HW116583   3.880   4.398   4.597
 1568SOL    HW216584   3.923   4.377   4.453
 1569SOL     OW16585   4.248   4.399   4.241
 1569SOL    HW116586   4.274   4.327   4.298
 1569SOL    HW216587   4.252   4.476   4.297
 1570SOL     OW16588   0.010   3.064   0.844
 1570SOL    HW116589   0.066   3.015   0.905
 1570SOL    HW216590   0.018   3.016   0.762
 1571SOL     OW16591   0.864   4.612  19.410
 1571SOL    HW116592   0.848   4.589  19.318
 1571SOL    HW216593   0.946   4.662  19.408
 1572SOL     OW16594   2.801   4.221  16.980
 1572SOL    HW116595   2.788   4.309  17.015
 1572SOL    HW216596   2.756   4.221  16.896
 1573SOL     OW16597   4.343   1.068   4.940
 1573SOL    HW116598   4.265   1.114   4.909
 1573SOL    HW216599   4.324   0.976   4.923
 1574SOL     OW16600   0.974   0.104   4.245
 1574SOL    HW116601   0.891   0.145   4.271
 1574SOL    HW216602   0.947   0.024   4.200
 1575SOL     OW16603   0.491   1.638  18.229
 1575SOL    HW116604   0.580   1.606  18.223
 1575SOL    HW216605   0.472   1.640  18.323
 1576SOL     OW16606   4.151   4.323   2.978
 1576SOL    HW116607   4.172   4.290   2.891
 1576SOL    HW216608   4.199   4.406   2.985
 1577SOL     OW16609   4.335   3.174  17.526
 1577SOL    HW116610   4.382   3.231  17.465
 1577SOL    HW216611   4.393   3.099  17.538
 1578SOL     OW16612   0.182   2.217  15.658
 1578SOL    HW116613   0.167   2.311  15.656
 1578SOL    HW216614   0.239   2.203  15.734
 1579SOL     OW16615   0.440   3.723   6.018
 1579SOL    HW116616   0.484   3.640   5.998
 1579SOL    HW216617   0.393   3.746   5.938
 1580SOL     OW16618   0.312   3.963   0.379
 1580SOL    HW116619   0.308   4.058   0.390
 1580SOL    HW216620   0.366   3.933   0.452
 1581SOL     OW16621   0.719   2.645  17.954
 1581SOL    HW116622   0.762   2.727  17.976
 1581SOL    HW216623   0.638   2.646  18.004
 1582SOL     OW16624   2.293   3.841   4.613
 1582SOL    HW116625   2.232   3.868   4.681
 1582SOL    HW216626   2.378   3.841   4.656
 1583SOL     OW16627   0.219   1.894   3.075
 1583SOL    HW116628   0.257   1.951   3.008
 1583SOL    HW216629   0.131   1.930   3.090
 1584SOL     OW16630   0.406   2.228  15.482
 1584SOL    HW116631   0.465   2.152  15.487
 1584SOL    HW216632   0.342   2.213  15.551
 1585SOL     OW16633   2.415   4.234   4.152
 1585SOL    HW116634   2.374   4.310   4.191
 1585SOL    HW216635   2.509   4.252   4.158
 1586SOL     OW16636   3.976   0.900  19.340
 1586SOL    HW116637   3.924   0.970  19.379
 1586SOL    HW216638   4.049   0.888  19.401
 1587SOL     OW16639   2.765   1.885  12.668
 1587SOL    HW116640   2.769   1.947  12.740
 1587SOL    HW216641   2.700   1.921  12.608
 1588SOL     OW16642   4.103   3.301   0.527
 1588SOL    HW116643   4.048   3.312   0.449
 1588SOL    HW216644   4.164   3.374   0.523
 1589SOL     OW16645   2.350   4.252  19.771
 1589SOL    HW116646   2.423   4.232  19.830
 1589SOL    HW216647   2.356   4.346  19.757
 1590SOL     OW16648   0.532   4.651  15.447
 1590SOL    HW116649   0.454   4.640  15.394
 1590SOL    HW216650   0.603   4.614  15.394
 1591SOL     OW16651   1.601   1.517  17.495
 1591SOL    HW116652   1.535   1.522  17.564
 1591SOL    HW216653   1.684   1.514  17.542
 1592SOL     OW16654   4.508   3.870   7.903
 1592SOL    HW116655   4.577   3.815   7.867
 1592SOL    HW216656   4.496   3.837   7.993
 1593SOL     OW16657   0.829   0.997   0.566
 1593SOL    HW116658   0.779   0.970   0.643
 1593SOL    HW216659   0.919   0.972   0.586
 1594SOL     OW16660   0.870   1.303  13.030
 1594SOL    HW116661   0.936   1.360  12.992
 1594SOL    HW216662   0.803   1.295  12.963
 1595SOL     OW16663   0.676   1.452  21.076
 1595SOL    HW116664   0.677   1.360  21.049
 1595SOL    HW216665   0.737   1.457  21.149
 1596SOL     OW16666   2.287   3.838  16.915
 1596SOL    HW116667   2.301   3.812  16.825
 1596SOL    HW216668   2.271   3.756  16.962
 1597SOL     OW16669   1.564   4.043  20.496
 1597SOL    HW116670   1.492   4.041  20.560
 1597SOL    HW216671   1.539   4.112  20.434
 1598SOL     OW16672   1.372   1.480  17.663
 1598SOL    HW116673   1.347   1.466  17.754
 1598SOL    HW216674   1.291   1.463  17.614
 1599SOL     OW16675   4.462   2.542   6.270
 1599SOL    HW116676   4.408   2.465   6.287
 1599SOL    HW216677   4.417   2.587   6.198
 1600SOL     OW16678   2.433   4.142   5.997
 1600SOL    HW116679   2.504   4.202   6.020
 1600SOL    HW216680   2.442   4.129   5.903
 1601SOL     OW16681   3.537   1.537  18.238
 1601SOL    HW116682   3.588   1.573  18.166
 1601SOL    HW216683   3.582   1.567  18.317
 1602SOL     OW16684   1.000   0.429   5.138
 1602SOL    HW116685   1.074   0.381   5.176
 1602SOL    HW216686   0.926   0.369   5.148
 1603SOL     OW16687   2.019   1.506   6.813
 1603SOL    HW116688   2.088   1.571   6.823
 1603SOL    HW216689   1.940   1.551   6.841
 1604SOL     OW16690   0.062   2.652  19.486
 1604SOL    HW116691   0.138   2.704  19.459
 1604SOL    HW216692   4.779   2.692  19.441
 1605SOL     OW16693   1.885   0.498  17.104
 1605SOL    HW116694   1.826   0.490  17.179
 1605SOL    HW216695   1.890   0.410  17.068
 1606SOL     OW16696   0.986   4.385   3.892
 1606SOL    HW116697   0.929   4.315   3.860
 1606SOL    HW216698   0.959   4.398   3.983
 1607SOL     OW16699   1.716   1.163   1.976
 1607SOL    HW116700   1.751   1.247   1.948
 1607SOL    HW216701   1.793   1.114   2.006
 1608SOL     OW16702   2.495   0.906   3.689
 1608SOL    HW116703   2.420   0.920   3.747
 1608SOL    HW216704   2.458   0.870   3.609
 1609SOL     OW16705   4.485   2.711   2.141
 1609SOL    HW116706   4.532   2.769   2.081
 1609SOL    HW216707   4.457   2.767   2.213
 1610SOL     OW16708   0.294   4.763   1.653
 1610SOL    HW116709   0.305   0.052   1.705
 1610SOL    HW216710   0.207   4.731   1.677
 1611SOL     OW16711   1.613   1.361   7.049
 1611SOL    HW116712   1.574   1.284   7.008
 1611SOL    HW216713   1.708   1.346   7.044
 1612SOL     OW16714   2.609   2.541  19.133
 1612SOL    HW116715   2.602   2.574  19.043
 1612SOL    HW216716   2.699   2.510  19.140
 1613SOL     OW16717   4.131   0.604   2.497
 1613SOL    HW116718   4.134   0.581   2.590
 1613SOL    HW216719   4.094   0.692   2.495
 1614SOL     OW16720   4.694   3.743   2.188
 1614SOL    HW116721   4.677   3.739   2.283
 1614SOL    HW216722   4.700   3.651   2.161
 1615SOL     OW16723   4.215   2.941  15.149
 1615SOL    HW116724   4.229   2.885  15.225
 1615SOL    HW216725   4.124   2.924  15.124
 1616SOL     OW16726   0.734   0.269   4.722
 1616SOL    HW116727   0.736   0.256   4.627
 1616SOL    HW216728   0.778   0.353   4.735
 1617SOL     OW16729   0.468   3.400   4.670
 1617SOL    HW116730   0.412   3.351   4.730
 1617SOL    HW216731   0.540   3.433   4.724
 1618SOL     OW16732   1.180   1.789   5.222
 1618SOL    HW116733   1.215   1.856   5.281
 1618SOL    HW216734   1.252   1.770   5.163
 1619SOL     OW16735   1.125   2.559   6.317
 1619SOL    HW116736   1.034   2.541   6.339
 1619SOL    HW216737   1.176   2.501   6.374
 1620SOL     OW16738   3.905   0.994  14.776
 1620SOL    HW116739   3.962   0.997  14.852
 1620SOL    HW216740   3.844   1.067  14.789
 1621SOL     OW16741   3.941   1.732  20.292
 1621SOL    HW116742   4.029   1.727  20.256
 1621SOL    HW216743   3.894   1.792  20.234
 1622SOL     OW16744   1.609   2.345  19.886
 1622SOL    HW116745   1.589   2.275  19.823
 1622SOL    HW216746   1.663   2.302  19.953
 1623SOL     OW16747   3.527   4.361  21.248
 1623SOL    HW116748   3.521   4.278  21.201
 1623SOL    HW216749   3.613   4.359   0.026
 1624SOL     OW16750   3.134   0.912   1.740
 1624SOL    HW116751   3.211   0.862   1.767
 1624SOL    HW216752   3.151   1.001   1.772
 1625SOL     OW16753   3.582   3.030   5.073
 1625SOL    HW116754   3.653   2.977   5.109
 1625SOL    HW216755   3.581   3.009   4.980
 1626SOL     OW16756   3.452   1.742  20.328
 1626SOL    HW116757   3.370   1.737  20.280
 1626SOL    HW216758   3.487   1.829  20.307
 1627SOL     OW16759   4.400   1.048  20.505
 1627SOL    HW116760   4.333   1.101  20.462
 1627SOL    HW216761   4.457   1.019  20.434
 1628SOL     OW16762   2.178   4.042  14.605
 1628SOL    HW116763   2.118   4.099  14.652
 1628SOL    HW216764   2.264   4.061  14.643
 1629SOL     OW16765   4.712   1.540  20.659
 1629SOL    HW116766   4.746   1.565  20.573
 1629SOL    HW216767   4.625   1.580  20.662
 1630SOL     OW16768   1.510   3.872  19.031
 1630SOL    HW116769   1.503   3.888  18.937
 1630SOL    HW216770   1.585   3.813  19.040
 1631SOL     OW16771   3.082   4.709   4.086
 1631SOL    HW116772   3.050   4.659   4.011
 1631SOL    HW216773   3.163   4.665   4.111
 1632SOL     OW16774   3.476   3.020  20.928
 1632SOL    HW116775   3.492   2.926  20.916
 1632SOL    HW216776   3.451   3.028  21.020
 1633SOL     OW16777   0.744   0.291   6.123
 1633SOL    HW116778   0.678   0.298   6.191
 1633SOL    HW216779   0.709   0.225   6.062
 1634SOL     OW16780   1.880   2.736   4.688
 1634SOL    HW116781   1.812   2.688   4.736
 1634SOL    HW216782   1.957   2.679   4.692
 1635SOL     OW16783   2.080   1.220   0.147
 1635SOL    HW116784   2.071   1.309   0.181
 1635SOL    HW216785   2.000   1.205   0.097
 1636SOL     OW16786   0.316   0.840  15.902
 1636SOL    HW116787   0.320   0.765  15.962
 1636SOL    HW216788   0.281   0.804  15.821
 1637SOL     OW16789   3.352   4.702   1.580
 1637SOL    HW116790   3.298   4.694   1.659
 1637SOL    HW216791   3.405   4.781   1.594
 1638SOL     OW16792   3.907   0.442  15.529
 1638SOL    HW116793   3.997   0.411  15.539
 1638SOL    HW216794   3.901   0.519  15.585
 1639SOL     OW16795   1.820   0.512  17.777
 1639SOL    HW116796   1.823   0.417  17.762
 1639SOL    HW216797   1.756   0.522  17.847
 1640SOL     OW16798   2.812   1.511  16.636
 1640SOL    HW116799   2.857   1.593  16.658
 1640SOL    HW216800   2.763   1.489  16.716
 1641SOL     OW16801   1.017   0.136   4.863
 1641SOL    HW116802   1.023   0.220   4.818
 1641SOL    HW216803   1.043   0.072   4.797
 1642SOL     OW16804   2.857   3.130   6.263
 1642SOL    HW116805   2.943   3.165   6.286
 1642SOL    HW216806   2.876   3.045   6.223
 1643SOL     OW16807   4.051   0.585   5.368
 1643SOL    HW116808   3.996   0.638   5.309
 1643SOL    HW216809   4.002   0.504   5.380
 1644SOL     OW16810   4.784   4.246  15.198
 1644SOL    HW116811   4.747   4.158  15.193
 1644SOL    HW216812   0.005   4.272  15.106
 1645SOL     OW16813   4.391   4.556   0.998
 1645SOL    HW116814   4.485   4.568   0.983
 1645SOL    HW216815   4.363   4.497   0.928
 1646SOL     OW16816   1.310   3.787  20.233
 1646SOL    HW116817   1.221   3.751  20.241
 1646SOL    HW216818   1.340   3.800  20.323
 1647SOL     OW16819   0.316   3.972   5.416
 1647SOL    HW116820   0.266   4.022   5.480
 1647SOL    HW216821   0.312   3.882   5.447
 1648SOL     OW16822   4.684   1.395   5.308
 1648SOL    HW116823   4.594   1.384   5.278
 1648SOL    HW216824   4.701   1.317   5.361
 1649SOL     OW16825   4.285   3.531  19.580
 1649SOL    HW116826   4.246   3.527  19.668
 1649SOL    HW216827   4.371   3.569  19.593
 1650SOL     OW16828   1.440   2.249  13.282
 1650SOL    HW116829   1.427   2.186  13.352
 1650SOL    HW216830   1.371   2.229  13.218
 1651SOL     OW16831   2.721   0.932   5.539
 1651SOL    HW116832   2.812   0.932   5.569
 1651SOL    HW216833   2.683   0.854   5.580
 1652SOL     OW16834   0.049   1.831  15.610
 1652SOL    HW116835   4.763   1.799  15.564
 1652SOL    HW216836   0.117   1.765  15.593
 1653SOL     OW16837   1.610   3.375  18.508
 1653SOL    HW116838   1.569   3.452  18.469
 1653SOL    HW216839   1.675   3.347  18.444
 1654SOL     OW16840   4.417   1.388  18.920
 1654SOL    HW116841   4.363   1.444  18.976
 1654SOL    HW216842   4.422   1.305  18.968
 1655SOL     OW16843   2.325   1.910   4.433
 1655SOL    HW116844   2.319   1.896   4.339
 1655SOL    HW216845   2.308   1.824   4.471
 1656SOL     OW16846   0.291   2.781  16.965
 1656SOL    HW116847   0.309   2.783  16.871
 1656SOL    HW216848   0.363   2.729  17.002
 1657SOL     OW16849   3.903   2.836   4.082
 1657SOL    HW116850   3.844   2.785   4.138
 1657SOL    HW216851   3.893   2.926   4.113
 1658SOL     OW16852   4.213   0.879   5.604
 1658SOL    HW116853   4.130   0.864   5.649
 1658SOL    HW216854   4.188   0.928   5.525
 1659SOL     OW16855   3.264   2.210  14.704
 1659SOL    HW116856   3.253   2.169  14.790
 1659SOL    HW216857   3.357   2.230  14.699
 1660SOL     OW16858   3.136   2.372  16.327
 1660SOL    HW116859   3.193   2.444  16.355
 1660SOL    HW216860   3.194   2.296  16.324
 1661SOL     OW16861   4.734   1.701   7.770
 1661SOL    HW116862   0.027   1.736   7.797
 1661SOL    HW216863   4.726   1.725   7.678
 1662SOL     OW16864   4.541   4.527   3.086
 1662SOL    HW116865   4.485   4.526   3.163
 1662SOL    HW216866   4.614   4.585   3.111
 1663SOL     OW16867   2.831   4.186  18.466
 1663SOL    HW116868   2.899   4.253  18.463
 1663SOL    HW216869   2.877   4.105  18.487
 1664SOL     OW16870   0.931   4.221  16.018
 1664SOL    HW116871   0.928   4.277  15.941
 1664SOL    HW216872   0.857   4.162  16.008
 1665SOL     OW16873   0.362   1.331  17.030
 1665SOL    HW116874   0.314   1.379  17.098
 1665SOL    HW216875   0.337   1.240  17.043
 1666SOL     OW16876   0.613   4.477  18.626
 1666SOL    HW116877   0.542   4.420  18.657
 1666SOL    HW216878   0.629   4.536  18.700
 1667SOL     OW16879   2.302   3.805  15.605
 1667SOL    HW116880   2.362   3.806  15.530
 1667SOL    HW216881   2.237   3.740  15.583
 1668SOL     OW16882   1.490   2.372   4.842
 1668SOL    HW116883   1.450   2.398   4.759
 1668SOL    HW216884   1.544   2.296   4.820
 1669SOL     OW16885   3.421   4.164   2.449
 1669SOL    HW116886   3.394   4.119   2.369
 1669SOL    HW216887   3.349   4.223   2.469
 1670SOL     OW16888   3.833   1.742   2.937
 1670SOL    HW116889   3.769   1.678   2.909
 1670SOL    HW216890   3.876   1.770   2.856
 1671SOL     OW16891   0.655   2.757   6.647
 1671SOL    HW116892   0.710   2.835   6.652
 1671SOL    HW216893   0.632   2.750   6.554
 1672SOL     OW16894   3.665   2.133   1.039
 1672SOL    HW116895   3.627   2.046   1.047
 1672SOL    HW216896   3.691   2.157   1.128
 1673SOL     OW16897   3.726   0.323   2.988
 1673SOL    HW116898   3.745   0.377   3.064
 1673SOL    HW216899   3.805   0.331   2.933
 1674SOL     OW16900   2.606   4.096  19.480
 1674SOL    HW116901   2.545   4.161  19.515
 1674SOL    HW216902   2.580   4.014  19.521
 1675SOL     OW16903   1.907   2.669  16.062
 1675SOL    HW116904   1.965   2.711  16.125
 1675SOL    HW216905   1.871   2.741  16.010
 1676SOL     OW16906   0.720   1.198  21.006
 1676SOL    HW116907   0.806   1.174  21.040
 1676SOL    HW216908   0.660   1.134  21.045
 1677SOL     OW16909   4.546   1.878  20.320
 1677SOL    HW116910   4.639   1.887  20.344
 1677SOL    HW216911   4.500   1.876  20.404
 1678SOL     OW16912   1.031   0.405  18.076
 1678SOL    HW116913   0.982   0.478  18.114
 1678SOL    HW216914   1.120   0.417  18.109
 1679SOL     OW16915   1.716   0.415   9.606
 1679SOL    HW116916   1.753   0.380   9.525
 1679SOL    HW216917   1.635   0.366   9.619
 1680SOL     OW16918   1.697   3.954  17.842
 1680SOL    HW116919   1.724   3.906  17.764
 1680SOL    HW216920   1.607   3.926  17.858
 1681SOL     OW16921   0.070   2.587  18.882
 1681SOL    HW116922   0.015   2.596  18.804
 1681SOL    HW216923   0.125   2.666  18.882
 1682SOL     OW16924   0.799   1.684   0.694
 1682SOL    HW116925   0.762   1.744   0.759
 1682SOL    HW216926   0.724   1.633   0.663
 1683SOL     OW16927   2.814   4.562   3.215
 1683SOL    HW116928   2.858   4.487   3.176
 1683SOL    HW216929   2.793   4.619   3.141
 1684SOL     OW16930   1.593   2.908   8.310
 1684SOL    HW116931   1.661   2.940   8.369
 1684SOL    HW216932   1.556   2.832   8.356
 1685SOL     OW16933   1.267   0.273  15.471
 1685SOL    HW116934   1.215   0.350  15.447
 1685SOL    HW216935   1.233   0.203  15.415
 1686SOL     OW16936   0.750   4.718  14.593
 1686SOL    HW116937   0.723   4.666  14.668
 1686SOL    HW216938   0.693   4.688  14.522
 1687SOL     OW16939   4.230   4.004  20.679
 1687SOL    HW116940   4.235   3.938  20.610
 1687SOL    HW216941   4.195   4.082  20.636
 1688SOL     OW16942   1.913   0.564  16.262
 1688SOL    HW116943   1.856   0.507  16.313
 1688SOL    HW216944   1.955   0.621  16.327
 1689SOL     OW16945   4.229   2.273  14.646
 1689SOL    HW116946   4.250   2.338  14.578
 1689SOL    HW216947   4.143   2.300  14.678
 1690SOL     OW16948   0.504   4.396   2.182
 1690SOL    HW116949   0.544   4.364   2.102
 1690SOL    HW216950   0.480   4.318   2.231
 1691SOL     OW16951   2.804   0.277   2.080
 1691SOL    HW116952   2.709   0.268   2.073
 1691SOL    HW216953   2.817   0.320   2.165
 1692SOL     OW16954   1.169   2.011  20.824
 1692SOL    HW116955   1.089   2.063  20.819
 1692SOL    HW216956   1.169   1.975  20.912
 1693SOL     OW16957   2.515   3.855   4.755
 1693SOL    HW116958   2.565   3.824   4.830
 1693SOL    HW216959   2.556   3.812   4.680
 1694SOL     OW16960   3.223   1.918  16.906
 1694SOL    HW116961   3.286   1.933  16.976
 1694SOL    HW216962   3.187   2.005  16.888
 1695SOL     OW16963   1.044   3.366   1.751
 1695SOL    HW116964   1.051   3.298   1.685
 1695SOL    HW216965   1.065   3.323   1.833
 1696SOL     OW16966   2.451   3.209  15.800
 1696SOL    HW116967   2.528   3.228  15.747
 1696SOL    HW216968   2.381   3.260  15.760
 1697SOL     OW16969   0.623   4.103   3.910
 1697SOL    HW116970   0.604   4.192   3.937
 1697SOL    HW216971   0.588   4.096   3.822
 1698SOL     OW16972   3.579   1.242   2.205
 1698SOL    HW116973   3.522   1.193   2.145
 1698SOL    HW216974   3.653   1.269   2.151
 1699SOL     OW16975   4.166   3.591   7.100
 1699SOL    HW116976   4.166   3.668   7.157
 1699SOL    HW216977   4.078   3.555   7.108
 1700SOL     OW16978   1.812   0.167   3.917
 1700SOL    HW116979   1.737   0.167   3.976
 1700SOL    HW216980   1.843   0.077   3.917
 1701SOL     OW16981   3.401   2.435  17.609
 1701SOL    HW116982   3.329   2.494  17.633
 1701SOL    HW216983   3.411   2.378  17.686
 1702SOL     OW16984   1.769   3.330   2.752
 1702SOL    HW116985   1.800   3.329   2.843
 1702SOL    HW216986   1.769   3.237   2.727
 1703SOL     OW16987   0.568   3.050   4.312
 1703SOL    HW116988   0.620   3.020   4.386
 1703SOL    HW216989   0.506   3.113   4.350
 1704SOL     OW16990   0.591   2.827  16.378
 1704SOL    HW116991   0.601   2.909  16.425
 1704SOL    HW216992   0.620   2.760  16.440
 1705SOL     OW16993   3.901   3.361   7.544
 1705SOL    HW116994   3.948   3.427   7.596
 1705SOL    HW216995   3.813   3.361   7.581
 1706SOL     OW16996   3.361   4.023   2.857
 1706SOL    HW116997   3.301   3.981   2.919
 1706SOL    HW216998   3.398   4.097   2.905
 1707SOL     OW16999   4.027   0.330   2.711
 1707SOL    HW117000   4.106   0.305   2.663
 1707SOL    HW217001   3.966   0.257   2.697
 1708SOL     OW17002   0.633   0.595  15.902
 1708SOL    HW117003   0.667   0.681  15.879
 1708SOL    HW217004   0.666   0.578  15.991
 1709SOL     OW17005   4.711   1.598   5.707
 1709SOL    HW117006   0.002   1.635   5.737
 1709SOL    HW217007   4.726   1.578   5.615
 1710SOL     OW17008   1.502   2.645   4.963
 1710SOL    HW117009   1.445   2.682   5.031
 1710SOL    HW217010   1.461   2.561   4.941
 1711SOL     OW17011   4.527   0.713   1.088
 1711SOL    HW117012   4.584   0.784   1.118
 1711SOL    HW217013   4.547   0.640   1.147
 1712SOL     OW17014   3.220   0.671  20.278
 1712SOL    HW117015   3.218   0.755  20.234
 1712SOL    HW217016   3.173   0.686  20.360
 1713SOL     OW17017   3.450   1.784   3.749
 1713SOL    HW117018   3.465   1.786   3.654
 1713SOL    HW217019   3.420   1.873   3.770
 1714SOL     OW17020   0.884   1.222   8.165
 1714SOL    HW117021   0.941   1.292   8.197
 1714SOL    HW217022   0.898   1.221   8.070
 1715SOL     OW17023   3.887   1.496   0.709
 1715SOL    HW117024   3.941   1.456   0.777
 1715SOL    HW217025   3.933   1.575   0.684
 1716SOL     OW17026   1.180   4.514   3.292
 1716SOL    HW117027   1.105   4.546   3.343
 1716SOL    HW217028   1.150   4.429   3.258
 1717SOL     OW17029   4.337   3.105   4.333
 1717SOL    HW117030   4.285   3.031   4.302
 1717SOL    HW217031   4.353   3.157   4.255
 1718SOL     OW17032   1.857   2.351  17.268
 1718SOL    HW117033   1.936   2.298  17.279
 1718SOL    HW217034   1.889   2.441  17.264
 1719SOL     OW17035   2.856   4.790   6.226
 1719SOL    HW117036   2.864   4.695   6.230
 1719SOL    HW217037   2.780   0.020   6.280
 1720SOL     OW17038   0.178   1.837  19.260
 1720SOL    HW117039   0.082   1.842  19.255
 1720SOL    HW217040   0.200   1.889  19.337
 1721SOL     OW17041   0.630   3.230  18.151
 1721SOL    HW117042   0.552   3.264  18.195
 1721SOL    HW217043   0.651   3.149  18.199
 1722SOL     OW17044   1.770   2.934  18.627
 1722SOL    HW117045   1.775   3.029  18.619
 1722SOL    HW217046   1.845   2.902  18.577
 1723SOL     OW17047   2.549   2.752  20.983
 1723SOL    HW117048   2.611   2.745  21.055
 1723SOL    HW217049   2.565   2.838  20.945
 1724SOL     OW17050   3.887   4.172   5.273
 1724SOL    HW117051   3.835   4.104   5.316
 1724SOL    HW217052   3.885   4.246   5.333
 1725SOL     OW17053   4.573   2.639  20.514
 1725SOL    HW117054   4.631   2.712  20.536
 1725SOL    HW217055   4.626   2.583  20.458
 1726SOL     OW17056   3.265   1.457  16.273
 1726SOL    HW117057   3.278   1.499  16.188
 1726SOL    HW217058   3.228   1.526  16.328
 1727SOL     OW17059   0.524   1.116  20.780
 1727SOL    HW117060   0.526   1.110  20.875
 1727SOL    HW217061   0.522   1.210  20.762
 1728SOL     OW17062   3.412   2.844   3.867
 1728SOL    HW117063   3.471   2.914   3.840
 1728SOL    HW217064   3.457   2.801   3.940
 1729SOL     OW17065   4.155   4.043   6.104
 1729SOL    HW117066   4.215   4.011   6.171
 1729SOL    HW217067   4.212   4.083   6.038
 1730SOL     OW17068   3.765   3.509  16.251
 1730SOL    HW117069   3.715   3.482  16.328
 1730SOL    HW217070   3.765   3.431  16.195
 1731SOL     OW17071   0.058   3.233  20.851
 1731SOL    HW117072   0.006   3.277  20.784
 1731SOL    HW217073   0.149   3.249  20.827
 1732SOL     OW17074   0.267   0.821  18.341
 1732SOL    HW117075   0.237   0.907  18.369
 1732SOL    HW217076   0.191   0.780  18.301
 1733SOL     OW17077   0.684   3.675  20.218
 1733SOL    HW117078   0.669   3.652  20.310
 1733SOL    HW217079   0.623   3.620  20.169
 1734SOL     OW17080   4.552   1.002  15.490
 1734SOL    HW117081   4.494   0.988  15.415
 1734SOL    HW217082   4.626   1.052  15.455
 1735SOL     OW17083   0.756   4.593  13.653
 1735SOL    HW117084   0.722   4.672  13.610
 1735SOL    HW217085   0.732   4.522  13.593
 1736SOL     OW17086   2.770   0.213  17.338
 1736SOL    HW117087   2.745   0.173  17.422
 1736SOL    HW217088   2.722   0.296  17.336
 1737SOL     OW17089   4.441   2.926   4.954
 1737SOL    HW117090   4.492   2.996   4.913
 1737SOL    HW217091   4.378   2.973   5.010
 1738SOL     OW17092   0.721   3.646  20.588
 1738SOL    HW117093   0.669   3.566  20.588
 1738SOL    HW217094   0.796   3.627  20.532
 1739SOL     OW17095   0.729   1.392   3.687
 1739SOL    HW117096   0.799   1.457   3.695
 1739SOL    HW217097   0.678   1.403   3.767
 1740SOL     OW17098   4.145   3.182  19.046
 1740SOL    HW117099   4.147   3.216  18.956
 1740SOL    HW217100   4.132   3.088  19.035
 1741SOL     OW17101   0.370   2.877   4.654
 1741SOL    HW117102   0.335   2.966   4.645
 1741SOL    HW217103   0.292   2.823   4.664
 1742SOL     OW17104   1.692   1.138  12.962
 1742SOL    HW117105   1.695   1.094  13.047
 1742SOL    HW217106   1.599   1.150  12.944
 1743SOL     OW17107   3.176   4.726  20.052
 1743SOL    HW117108   3.106   4.677  20.010
 1743SOL    HW217109   3.167   0.024  20.019
 1744SOL     OW17110   3.038   1.902  17.243
 1744SOL    HW117111   3.108   1.841  17.264
 1744SOL    HW217112   3.082   1.985  17.226
 1745SOL     OW17113   3.747   1.513  17.120
 1745SOL    HW117114   3.808   1.457  17.168
 1745SOL    HW217115   3.752   1.481  17.030
 1746SOL     OW17116   2.605   1.186  16.415
 1746SOL    HW117117   2.614   1.279  16.437
 1746SOL    HW217118   2.663   1.142  16.478
 1747SOL     OW17119   1.571   1.190  17.089
 1747SOL    HW117120   1.488   1.143  17.096
 1747SOL    HW217121   1.572   1.246  17.167
 1748SOL     OW17122   2.249   2.366   5.021
 1748SOL    HW117123   2.307   2.431   4.981
 1748SOL    HW217124   2.220   2.312   4.948
 1749SOL     OW17125   1.524   0.935  18.432
 1749SOL    HW117126   1.505   0.895  18.517
 1749SOL    HW217127   1.449   0.992  18.415
 1750SOL     OW17128   1.267   1.331  18.721
 1750SOL    HW117129   1.270   1.338  18.817
 1750SOL    HW217130   1.245   1.239  18.705
 1751SOL     OW17131   1.779   2.582   3.980
 1751SOL    HW117132   1.845   2.535   4.030
 1751SOL    HW217133   1.809   2.576   3.889
 1752SOL     OW17134   3.273   2.687   3.659
 1752SOL    HW117135   3.331   2.737   3.716
 1752SOL    HW217136   3.312   2.695   3.572
 1753SOL     OW17137   2.558   1.170  17.682
 1753SOL    HW117138   2.570   1.111  17.608
 1753SOL    HW217139   2.589   1.255  17.650
 1754SOL     OW17140   1.445   2.926   5.890
 1754SOL    HW117141   1.494   3.004   5.914
 1754SOL    HW217142   1.496   2.886   5.819
 1755SOL     OW17143   3.805   3.621   3.536
 1755SOL    HW117144   3.795   3.547   3.596
 1755SOL    HW217145   3.733   3.680   3.559
 1756SOL     OW17146   4.775   1.802   5.389
 1756SOL    HW117147   4.771   1.711   5.417
 1756SOL    HW217148   4.783   1.852   5.471
 1757SOL     OW17149   4.369   2.982  15.877
 1757SOL    HW117150   4.393   2.998  15.786
 1757SOL    HW217151   4.316   2.902  15.874
 1758SOL     OW17152   0.629   3.197  20.552
 1758SOL    HW117153   0.708   3.216  20.502
 1758SOL    HW217154   0.642   3.107  20.584
 1759SOL     OW17155   0.867   4.571  15.861
 1759SOL    HW117156   0.825   4.585  15.946
 1759SOL    HW217157   0.816   4.625  15.800
 1760SOL     OW17158   2.033   4.295  20.532
 1760SOL    HW117159   2.035   4.281  20.627
 1760SOL    HW217160   2.049   4.389  20.521
 1761SOL     OW17161   4.171   3.129   1.260
 1761SOL    HW117162   4.242   3.067   1.243
 1761SOL    HW217163   4.189   3.202   1.201
 1762SOL     OW17164   3.861   1.830   2.023
 1762SOL    HW117165   3.892   1.763   1.962
 1762SOL    HW217166   3.862   1.911   1.971
 1763SOL     OW17167   1.567   2.162   8.729
 1763SOL    HW117168   1.557   2.091   8.665
 1763SOL    HW217169   1.660   2.184   8.726
 1764SOL     OW17170   2.000   4.346   7.962
 1764SOL    HW117171   2.040   4.433   7.952
 1764SOL    HW217172   1.933   4.343   7.893
 1765SOL     OW17173   4.627   2.815  21.043
 1765SOL    HW117174   4.598   2.873  21.113
 1765SOL    HW217175   4.633   2.871  20.966
 1766SOL     OW17176   2.292   3.659  13.367
 1766SOL    HW117177   2.253   3.571  13.375
 1766SOL    HW217178   2.251   3.709  13.438
 1767SOL     OW17179   4.414   4.549  19.457
 1767SOL    HW117180   4.422   4.601  19.377
 1767SOL    HW217181   4.458   4.466  19.436
 1768SOL     OW17182   0.419   1.030  15.033
 1768SOL    HW117183   0.361   0.963  15.069
 1768SOL    HW217184   0.389   1.112  15.073
 1769SOL     OW17185   1.634   3.926  17.110
 1769SOL    HW117186   1.629   4.011  17.154
 1769SOL    HW217187   1.569   3.932  17.039
 1770SOL     OW17188   1.266   1.517  17.032
 1770SOL    HW117189   1.194   1.507  17.094
 1770SOL    HW217190   1.332   1.568  17.079
 1771SOL     OW17191   4.166   4.251  20.526
 1771SOL    HW117192   4.182   4.337  20.564
 1771SOL    HW217193   4.099   4.266  20.459
 1772SOL     OW17194   0.076   4.457   1.698
 1772SOL    HW117195   0.167   4.452   1.669
 1772SOL    HW217196   0.027   4.478   1.618
 1773SOL     OW17197   3.455   0.001  17.494
 1773SOL    HW117198   3.499   0.086  17.496
 1773SOL    HW217199   3.409   4.791  17.410
 1774SOL     OW17200   2.625   1.310   6.148
 1774SOL    HW117201   2.709   1.281   6.184
 1774SOL    HW217202   2.649   1.378   6.085
 1775SOL     OW17203   1.789   0.636  19.067
 1775SOL    HW117204   1.875   0.646  19.108
 1775SOL    HW217205   1.805   0.647  18.973
 1776SOL     OW17206   0.128   1.370   1.150
 1776SOL    HW117207   0.105   1.282   1.120
 1776SOL    HW217208   0.044   1.410   1.173
 1777SOL     OW17209   0.677   0.131   4.941
 1777SOL    HW117210   0.691   0.177   4.859
 1777SOL    HW217211   0.723   0.184   5.007
 1778SOL     OW17212   1.765   0.012  15.678
 1778SOL    HW117213   1.737   0.045  15.592
 1778SOL    HW217214   1.685   4.768  15.717
 1779SOL     OW17215   0.446   1.638   2.844
 1779SOL    HW117216   0.516   1.661   2.904
 1779SOL    HW217217   0.371   1.618   2.900
 1780SOL     OW17218   0.587   2.266  20.357
 1780SOL    HW117219   0.500   2.275  20.319
 1780SOL    HW217220   0.626   2.192  20.310
 1781SOL     OW17221   4.075   1.829  15.147
 1781SOL    HW117222   4.022   1.889  15.199
 1781SOL    HW217223   4.063   1.744  15.189
 1782SOL     OW17224   0.981   1.830   0.557
 1782SOL    HW117225   0.925   1.768   0.603
 1782SOL    HW217226   0.966   1.913   0.602
 1783SOL     OW17227   2.233   4.223   6.274
 1783SOL    HW117228   2.157   4.191   6.323
 1783SOL    HW217229   2.215   4.196   6.184
 1784SOL     OW17230   2.787   4.414   2.124
 1784SOL    HW117231   2.701   4.435   2.086
 1784SOL    HW217232   2.841   4.390   2.049
 1785SOL     OW17233   2.214   0.085  16.421
 1785SOL    HW117234   2.231   0.112  16.511
 1785SOL    HW217235   2.299   0.091  16.378
 1786SOL     OW17236   1.125   2.235   8.300
 1786SOL    HW117237   1.058   2.190   8.249
 1786SOL    HW217238   1.165   2.165   8.352
 1787SOL     OW17239   0.821   2.783  18.884
 1787SOL    HW117240   0.826   2.714  18.950
 1787SOL    HW217241   0.865   2.858  18.923
 1788SOL     OW17242   3.859   1.596   9.586
 1788SOL    HW117243   3.895   1.679   9.618
 1788SOL    HW217244   3.873   1.535   9.658
 1789SOL     OW17245   1.602   4.691   7.230
 1789SOL    HW117246   1.546   4.748   7.282
 1789SOL    HW217247   1.562   4.691   7.143
 1790SOL     OW17248   3.218   3.842  13.411
 1790SOL    HW117249   3.127   3.839  13.441
 1790SOL    HW217250   3.265   3.884  13.483
 1791SOL     OW17251   0.431   2.288   6.919
 1791SOL    HW117252   0.406   2.286   7.011
 1791SOL    HW217253   0.474   2.204   6.904
 1792SOL     OW17254   4.769   1.624   9.110
 1792SOL    HW117255   4.733   1.712   9.098
 1792SOL    HW217256   0.056   1.638   9.163
 1793SOL     OW17257   1.255   1.132   0.567
 1793SOL    HW117258   1.308   1.209   0.589
 1793SOL    HW217259   1.313   1.077   0.514
 1794SOL     OW17260   0.208   4.429   5.717
 1794SOL    HW117261   0.125   4.471   5.738
 1794SOL    HW217262   0.269   4.464   5.783
 1795SOL     OW17263   3.009   4.572   7.996
 1795SOL    HW117264   3.081   4.636   7.992
 1795SOL    HW217265   3.045   4.499   8.047
 1796SOL     OW17266   0.609   1.991  10.547
 1796SOL    HW117267   0.703   1.990  10.565
 1796SOL    HW217268   0.576   2.064  10.600
 1797SOL     OW17269   2.884   0.924   7.915
 1797SOL    HW117270   2.804   0.975   7.923
 1797SOL    HW217271   2.953   0.983   7.945
 1798SOL     OW17272   4.315   1.144  17.142
 1798SOL    HW117273   4.225   1.164  17.170
 1798SOL    HW217274   4.304   1.074  17.078
 1799SOL     OW17275   0.470   0.752   9.129
 1799SOL    HW117276   0.541   0.768   9.067
 1799SOL    HW217277   0.401   0.711   9.076
 1800SOL     OW17278   4.713   2.873   9.028
 1800SOL    HW117279   4.786   2.933   9.016
 1800SOL    HW217280   4.678   2.860   8.939
 1801SOL     OW17281   0.624   2.117   9.462
 1801SOL    HW117282   0.716   2.135   9.443
 1801SOL    HW217283   0.576   2.187   9.419
 1802SOL     OW17284   0.143   2.012   7.126
 1802SOL    HW117285   0.165   1.991   7.035
 1802SOL    HW217286   0.221   2.057   7.160
 1803SOL     OW17287   0.527   2.334   9.342
 1803SOL    HW117288   0.512   2.387   9.263
 1803SOL    HW217289   0.449   2.349   9.395
 1804SOL     OW17290   3.002   1.366   7.881
 1804SOL    HW117291   3.071   1.310   7.846
 1804SOL    HW217292   2.942   1.305   7.924
 1805SOL     OW17293   1.739   3.653  20.223
 1805SOL    HW117294   1.796   3.578  20.208
 1805SOL    HW217295   1.776   3.723  20.170
 1806SOL     OW17296   0.446   4.408   8.838
 1806SOL    HW117297   0.454   4.396   8.743
 1806SOL    HW217298   0.499   4.486   8.856
 1807SOL     OW17299   2.301   0.893   8.848
 1807SOL    HW117300   2.360   0.840   8.794
 1807SOL    HW217301   2.337   0.981   8.846
 1808SOL     OW17302   4.417   2.823   1.561
 1808SOL    HW117303   4.372   2.805   1.644
 1808SOL    HW217304   4.361   2.886   1.517
 1809SOL     OW17305   4.294   0.715  15.047
 1809SOL    HW117306   4.270   0.636  15.095
 1809SOL    HW217307   4.374   0.691  15.001
 1810SOL     OW17308   0.215   2.337  10.371
 1810SOL    HW117309   0.153   2.278  10.328
 1810SOL    HW217310   0.186   2.339  10.462
 1811SOL     OW17311   4.619   0.660   9.505
 1811SOL    HW117312   4.537   0.673   9.457
 1811SOL    HW217313   4.595   0.602   9.577
 1812SOL     OW17314   1.010   4.463   0.289
 1812SOL    HW117315   0.938   4.465   0.226
 1812SOL    HW217316   1.080   4.512   0.247
 1813SOL     OW17317   2.940   3.633   9.957
 1813SOL    HW117318   3.002   3.678   9.900
 1813SOL    HW217319   2.897   3.568   9.901
 1814SOL     OW17320   3.618   3.165   8.843
 1814SOL    HW117321   3.679   3.129   8.779
 1814SOL    HW217322   3.616   3.259   8.824
 1815SOL     OW17323   4.499   3.328   5.900
 1815SOL    HW117324   4.418   3.338   5.848
 1815SOL    HW217325   4.495   3.238   5.933
 1816SOL     OW17326   0.823   2.092  10.367
 1816SOL    HW117327   0.738   2.112  10.406
 1816SOL    HW217328   0.870   2.043  10.435
 1817SOL     OW17329   3.448   1.495  11.296
 1817SOL    HW117330   3.428   1.514  11.387
 1817SOL    HW217331   3.367   1.459  11.260
 1818SOL     OW17332   4.326   1.641  10.357
 1818SOL    HW117333   4.347   1.548  10.364
 1818SOL    HW217334   4.411   1.685  10.350
 1819SOL     OW17335   2.615   3.878  11.233
 1819SOL    HW117336   2.522   3.858  11.223
 1819SOL    HW217337   2.646   3.814  11.297
 1820SOL     OW17338   3.812   2.153  10.361
 1820SOL    HW117339   3.743   2.197  10.410
 1820SOL    HW217340   3.833   2.075  10.413
 1821SOL     OW17341   4.360   0.652  11.905
 1821SOL    HW117342   4.291   0.657  11.972
 1821SOL    HW217343   4.337   0.575  11.852
 1822SOL     OW17344   3.089   1.621  11.017
 1822SOL    HW117345   3.013   1.656  11.064
 1822SOL    HW217346   3.058   1.613  10.926
 1823SOL     OW17347   3.249   1.320  11.670
 1823SOL    HW117348   3.255   1.252  11.603
 1823SOL    HW217349   3.321   1.381  11.650
 1824SOL     OW17350   3.626   2.133   9.828
 1824SOL    HW117351   3.595   2.047   9.803
 1824SOL    HW217352   3.573   2.194   9.776
 1825SOL     OW17353   0.208   1.906   9.828
 1825SOL    HW117354   0.300   1.885   9.811
 1825SOL    HW217355   0.179   1.838   9.889
 1826SOL     OW17356   4.104   0.151   9.214
 1826SOL    HW117357   4.183   0.203   9.202
 1826SOL    HW217358   4.036   0.197   9.164
 1827SOL     OW17359   3.789   1.379  10.153
 1827SOL    HW117360   3.713   1.367  10.210
 1827SOL    HW217361   3.851   1.311  10.181
 1828SOL     OW17362   4.754   3.413  11.149
 1828SOL    HW117363   0.044   3.453  11.117
 1828SOL    HW217364   4.729   3.468  11.224
 1829SOL     OW17365   3.167   1.657  10.053
 1829SOL    HW117366   3.229   1.638  10.123
 1829SOL    HW217367   3.189   1.594   9.984
 1830SOL     OW17368   3.469   1.019  10.884
 1830SOL    HW117369   3.432   1.045  10.968
 1830SOL    HW217370   3.544   1.077  10.872
 1831SOL     OW17371   4.733   1.558  13.441
 1831SOL    HW117372   4.722   1.473  13.484
 1831SOL    HW217373   4.700   1.545  13.352
 1832SOL     OW17374   3.592   0.857  13.026
 1832SOL    HW117375   3.536   0.928  12.997
 1832SOL    HW217376   3.553   0.829  13.109
 1833SOL     OW17377   2.181   0.626  11.691
 1833SOL    HW117378   2.147   0.709  11.723
 1833SOL    HW217379   2.113   0.562  11.712
 1834SOL     OW17380   3.873   1.772   9.783
 1834SOL    HW117381   3.851   1.862   9.809
 1834SOL    HW217382   3.962   1.759   9.815
 1835SOL     OW17383   3.195   1.457  11.200
 1835SOL    HW117384   3.165   1.489  11.114
 1835SOL    HW217385   3.114   1.434  11.246
 1836SOL     OW17386   0.456   1.089  12.027
 1836SOL    HW117387   0.376   1.127  12.065
 1836SOL    HW217388   0.424   1.031  11.958
 1837SOL     OW17389   0.311   0.833  12.412
 1837SOL    HW117390   0.317   0.816  12.318
 1837SOL    HW217391   0.284   0.924  12.418
 1838SOL     OW17392   0.039   1.613  12.016
 1838SOL    HW117393   0.099   1.548  11.982
 1838SOL    HW217394   4.744   1.570  12.013
 1839SOL     OW17395   3.091   1.557  11.543
 1839SOL    HW117396   3.129   1.483  11.591
 1839SOL    HW217397   3.165   1.616  11.528
 1840SOL     OW17398   4.740   2.081  12.291
 1840SOL    HW117399   4.693   2.028  12.356
 1840SOL    HW217400   4.775   2.155  12.342
 1841SOL     OW17401   3.315   2.182  12.073
 1841SOL    HW117402   3.336   2.205  11.983
 1841SOL    HW217403   3.288   2.090  12.069
 1842SOL     OW17404   3.990   0.687  10.052
 1842SOL    HW117405   3.907   0.734  10.061
 1842SOL    HW217406   3.977   0.630   9.976
 1843SOL     OW17407   4.346   0.359  11.848
 1843SOL    HW117408   4.438   0.361  11.823
 1843SOL    HW217409   4.336   0.278  11.898
 1844SOL     OW17410   3.920   2.228  10.102
 1844SOL    HW117411   3.908   2.215  10.196
 1844SOL    HW217412   3.868   2.306  10.082
 1845SOL     OW17413   3.170   1.207  12.379
 1845SOL    HW117414   3.219   1.126  12.361
 1845SOL    HW217415   3.238   1.273  12.394
 1846SOL     OW17416   2.908   1.196  12.467
 1846SOL    HW117417   3.000   1.207  12.442
 1846SOL    HW217418   2.860   1.255  12.410
 1847SOL     OW17419   4.102   3.053  11.639
 1847SOL    HW117420   4.169   3.007  11.689
 1847SOL    HW217421   4.056   2.984  11.591
 1848SOL     OW17422   0.013   2.330  12.465
 1848SOL    HW117423   0.106   2.339  12.486
 1848SOL    HW217424   4.759   2.374  12.536
 1849SOL     OW17425   3.615   1.872  11.179
 1849SOL    HW117426   3.605   1.893  11.086
 1849SOL    HW217427   3.525   1.861  11.210
 1850SOL     OW17428   3.904   0.944  10.417
 1850SOL    HW117429   3.993   0.920  10.390
 1850SOL    HW217430   3.875   1.007  10.351
 1851SOL     OW17431   4.559   1.776  11.283
 1851SOL    HW117432   4.581   1.851  11.228
 1851SOL    HW217433   4.505   1.720  11.226
 1852SOL     OW17434   3.895   2.112  13.182
 1852SOL    HW117435   3.989   2.099  13.191
 1852SOL    HW217436   3.878   2.198  13.221
 1853SOL     OW17437   4.750   3.036  17.292
 1853SOL    HW117438   4.713   2.949  17.275
 1853SOL    HW217439   0.036   3.018  17.347
 1854SOL     OW17440   1.522   0.378   2.695
 1854SOL    HW117441   1.523   0.295   2.741
 1854SOL    HW217442   1.472   0.361   2.615
 1855SOL     OW17443   4.428   1.624  12.068
 1855SOL    HW117444   4.503   1.566  12.052
 1855SOL    HW217445   4.360   1.567  12.103
 1856SOL     OW17446   3.178   0.986  19.344
 1856SOL    HW117447   3.263   0.943  19.336
 1856SOL    HW217448   3.117   0.929  19.296
 1857SOL     OW17449   1.076   3.898  18.018
 1857SOL    HW117450   1.130   3.946  18.081
 1857SOL    HW217451   1.001   3.956  18.002
 1858SOL     OW17452   1.073   3.231   2.036
 1858SOL    HW117453   1.094   3.188   2.118
 1858SOL    HW217454   1.017   3.305   2.061
 1859SOL     OW17455   2.370   0.870   5.268
 1859SOL    HW117456   2.285   0.875   5.311
 1859SOL    HW217457   2.352   0.886   5.175
 1860SOL     OW17458   2.084   2.903  20.598
 1860SOL    HW117459   2.115   2.851  20.672
 1860SOL    HW217460   2.162   2.917  20.544
 1861SOL     OW17461   1.572   2.392   0.756
 1861SOL    HW117462   1.503   2.345   0.709
 1861SOL    HW217463   1.585   2.472   0.704
 1862SOL     OW17464   2.632   2.872  17.255
 1862SOL    HW117465   2.544   2.904  17.273
 1862SOL    HW217466   2.676   2.873  17.339
 1863SOL     OW17467   4.725   0.148  20.233
 1863SOL    HW117468   0.025   0.131  20.207
 1863SOL    HW217469   4.689   0.200  20.161
 1864SOL     OW17470   2.936   1.560   1.165
 1864SOL    HW117471   3.014   1.507   1.175
 1864SOL    HW217472   2.941   1.624   1.236
 1865SOL     OW17473   0.010   0.088   5.750
 1865SOL    HW117474   4.752   0.012   5.782
 1865SOL    HW217475   4.775   0.159   5.808
 1866SOL     OW17476   1.030   4.522   6.167
 1866SOL    HW117477   1.013   4.615   6.156
 1866SOL    HW217478   0.981   4.480   6.096
 1867SOL     OW17479   1.313   2.331  16.628
 1867SOL    HW117480   1.336   2.390  16.557
 1867SOL    HW217481   1.373   2.257  16.618
 1868SOL     OW17482   4.228   2.132  12.498
 1868SOL    HW117483   4.235   2.040  12.473
 1868SOL    HW217484   4.166   2.170  12.436
 1869SOL     OW17485   0.025   2.283  17.475
 1869SOL    HW117486   0.099   2.324  17.519
 1869SOL    HW217487   0.007   2.340  17.401
 1870SOL     OW17488   4.211   1.610   6.037
 1870SOL    HW117489   4.200   1.610   6.132
 1870SOL    HW217490   4.271   1.538   6.020
 1871SOL     OW17491   0.362   0.232   0.340
 1871SOL    HW117492   0.297   0.163   0.332
 1871SOL    HW217493   0.394   0.225   0.431
 1872SOL     OW17494   1.315   0.441  12.538
 1872SOL    HW117495   1.234   0.476  12.575
 1872SOL    HW217496   1.286   0.394  12.459
 1873SOL     OW17497   1.749   3.106  15.380
 1873SOL    HW117498   1.817   3.103  15.312
 1873SOL    HW217499   1.672   3.141  15.335
 1874SOL     OW17500   2.769   2.496   0.854
 1874SOL    HW117501   2.699   2.436   0.830
 1874SOL    HW217502   2.827   2.444   0.910
 1875SOL     OW17503   0.034   1.799  13.536
 1875SOL    HW117504   0.033   1.789  13.631
 1875SOL    HW217505   4.776   1.723  13.503
 1876SOL     OW17506   3.393   3.201  19.262
 1876SOL    HW117507   3.371   3.108  19.270
 1876SOL    HW217508   3.410   3.230  19.351
 1877SOL     OW17509   1.799   2.477   5.689
 1877SOL    HW117510   1.738   2.500   5.619
 1877SOL    HW217511   1.854   2.408   5.651
 1878SOL     OW17512   0.910   2.352   3.829
 1878SOL    HW117513   0.935   2.273   3.877
 1878SOL    HW217514   0.837   2.388   3.879
 1879SOL     OW17515   1.700   1.822   1.645
 1879SOL    HW117516   1.672   1.753   1.584
 1879SOL    HW217517   1.624   1.880   1.651
 1880SOL     OW17518   0.119   2.410  13.845
 1880SOL    HW117519   0.115   2.447  13.756
 1880SOL    HW217520   0.183   2.339  13.837
 1881SOL     OW17521   0.572   1.191  11.801
 1881SOL    HW117522   0.566   1.173  11.895
 1881SOL    HW217523   0.482   1.195  11.771
 1882SOL     OW17524   1.891   0.182   5.432
 1882SOL    HW117525   1.903   0.233   5.513
 1882SOL    HW217526   1.836   0.239   5.377
 1883SOL     OW17527   3.596   3.823   2.910
 1883SOL    HW117528   3.625   3.913   2.894
 1883SOL    HW217529   3.537   3.803   2.837
 1884SOL     OW17530   1.055   3.461   5.897
 1884SOL    HW117531   1.000   3.538   5.884
 1884SOL    HW217532   1.046   3.440   5.990
 1885SOL     OW17533   3.636   2.294  15.404
 1885SOL    HW117534   3.594   2.377  15.381
 1885SOL    HW217535   3.710   2.319  15.460
 1886SOL     OW17536   4.497   0.982   3.679
 1886SOL    HW117537   4.432   0.986   3.750
 1886SOL    HW217538   4.519   0.889   3.672
 1887SOL     OW17539   0.296   4.573   3.308
 1887SOL    HW117540   0.258   4.623   3.236
 1887SOL    HW217541   0.391   4.583   3.296
 1888SOL     OW17542   4.457   4.121  14.985
 1888SOL    HW117543   4.507   4.071  15.049
 1888SOL    HW217544   4.450   4.209  15.023
 1889SOL     OW17545   4.180   1.428   4.066
 1889SOL    HW117546   4.094   1.394   4.041
 1889SOL    HW217547   4.204   1.487   3.994
 1890SOL     OW17548   2.109   4.675  14.348
 1890SOL    HW117549   2.027   4.677  14.299
 1890SOL    HW217550   2.081   4.673  14.440
 1891SOL     OW17551   0.725   1.952  14.517
 1891SOL    HW117552   0.793   1.915  14.573
 1891SOL    HW217553   0.672   1.877  14.490
 1892SOL     OW17554   1.350   0.394   5.889
 1892SOL    HW117555   1.256   0.413   5.886
 1892SOL    HW217556   1.389   0.471   5.930
 1893SOL     OW17557   3.699   1.160  16.781
 1893SOL    HW117558   3.671   1.213  16.706
 1893SOL    HW217559   3.686   1.069  16.753
 1894SOL     OW17560   4.373   2.414  16.139
 1894SOL    HW117561   4.394   2.370  16.222
 1894SOL    HW217562   4.409   2.357  16.072
 1895SOL     OW17563   4.526   3.576  16.896
 1895SOL    HW117564   4.583   3.522  16.841
 1895SOL    HW217565   4.517   3.526  16.977
 1896SOL     OW17566   2.998   1.080  20.808
 1896SOL    HW117567   3.073   1.069  20.866
 1896SOL    HW217568   3.028   1.141  20.741
 1897SOL     OW17569   3.811   0.019   6.839
 1897SOL    HW117570   3.849   4.751   6.905
 1897SOL    HW217571   3.825   4.765   6.756
 1898SOL     OW17572   2.126   2.096   1.760
 1898SOL    HW117573   2.049   2.078   1.705
 1898SOL    HW217574   2.095   2.083   1.849
 1899SOL     OW17575   3.183   2.861  17.434
 1899SOL    HW117576   3.167   2.953  17.456
 1899SOL    HW217577   3.250   2.864  17.366
 1900SOL     OW17578   1.847   2.719   3.108
 1900SOL    HW117579   1.921   2.689   3.055
 1900SOL    HW217580   1.877   2.709   3.199
 1901SOL     OW17581   1.538   2.707   5.739
 1901SOL    HW117582   1.458   2.687   5.690
 1901SOL    HW217583   1.560   2.625   5.783
 1902SOL     OW17584   3.594   0.147   2.014
 1902SOL    HW117585   3.595   0.128   2.108
 1902SOL    HW217586   3.673   0.105   1.980
 1903SOL     OW17587   0.795   2.134   4.380
 1903SOL    HW117588   0.701   2.120   4.370
 1903SOL    HW217589   0.827   2.056   4.426
 1904SOL     OW17590   3.954   2.894  15.258
 1904SOL    HW117591   3.920   2.866  15.342
 1904SOL    HW217592   3.918   2.981  15.245
 1905SOL     OW17593   3.362   3.860   4.929
 1905SOL    HW117594   3.422   3.789   4.951
 1905SOL    HW217595   3.401   3.902   4.853
 1906SOL     OW17596   4.677   4.327  15.428
 1906SOL    HW117597   4.677   4.291  15.339
 1906SOL    HW217598   4.698   4.251  15.484
 1907SOL     OW17599   3.964   2.199   6.228
 1907SOL    HW117600   4.034   2.160   6.280
 1907SOL    HW217601   3.923   2.125   6.183
 1908SOL     OW17602   1.392   2.067  16.029
 1908SOL    HW117603   1.414   1.982  16.067
 1908SOL    HW217604   1.297   2.065  16.018
 1909SOL     OW17605   3.585   3.839  19.998
 1909SOL    HW117606   3.615   3.906  19.936
 1909SOL    HW217607   3.663   3.817  20.049
 1910SOL     OW17608   3.876   0.726  17.456
 1910SOL    HW117609   3.939   0.750  17.387
 1910SOL    HW217610   3.841   0.641  17.428
 1911SOL     OW17611   0.475   3.749  12.715
 1911SOL    HW117612   0.481   3.654  12.713
 1911SOL    HW217613   0.421   3.769  12.792
 1912SOL     OW17614   1.868   3.589  19.181
 1912SOL    HW117615   1.915   3.658  19.228
 1912SOL    HW217616   1.928   3.514  19.185
 1913SOL     OW17617   0.058   0.907  15.582
 1913SOL    HW117618   0.051   0.994  15.542
 1913SOL    HW217619   4.783   0.908  15.651
 1914SOL     OW17620   1.833   0.264   2.764
 1914SOL    HW117621   1.766   0.328   2.791
 1914SOL    HW217622   1.911   0.290   2.813
 1915SOL     OW17623   2.925   0.740  16.157
 1915SOL    HW117624   2.831   0.752  16.170
 1915SOL    HW217625   2.952   0.684  16.231
 1916SOL     OW17626   2.289   1.587  16.911
 1916SOL    HW117627   2.228   1.657  16.934
 1916SOL    HW217628   2.246   1.540  16.840
 1917SOL     OW17629   4.249   2.900   4.161
 1917SOL    HW117630   4.225   2.810   4.136
 1917SOL    HW217631   4.244   2.950   4.080
 1918SOL     OW17632   4.136   4.216   0.659
 1918SOL    HW117633   4.113   4.124   0.645
 1918SOL    HW217634   4.052   4.260   0.670
 1919SOL     OW17635   0.140   2.373  16.593
 1919SOL    HW117636   0.086   2.310  16.640
 1919SOL    HW217637   0.177   2.323  16.520
 1920SOL     OW17638   0.177   4.309   7.666
 1920SOL    HW117639   0.222   4.225   7.660
 1920SOL    HW217640   0.100   4.291   7.720
 1921SOL     OW17641   3.712   2.451   3.546
 1921SOL    HW117642   3.799   2.489   3.536
 1921SOL    HW217643   3.666   2.512   3.604
 1922SOL     OW17644   4.274   3.897   3.354
 1922SOL    HW117645   4.214   3.937   3.291
 1922SOL    HW217646   4.236   3.916   3.439
 1923SOL     OW17647   0.153   1.913  19.604
 1923SOL    HW117648   0.226   1.968  19.575
 1923SOL    HW217649   0.196   1.834  19.639
 1924SOL     OW17650   0.042   0.511  17.466
 1924SOL    HW117651   0.015   0.425  17.499
 1924SOL    HW217652   0.010   0.573  17.532
 1925SOL     OW17653   1.618   2.295   5.317
 1925SOL    HW117654   1.537   2.320   5.273
 1925SOL    HW217655   1.648   2.376   5.359
 1926SOL     OW17656   1.675   4.323  13.778
 1926SOL    HW117657   1.614   4.259  13.743
 1926SOL    HW217658   1.693   4.382  13.705
 1927SOL     OW17659   1.236   2.664   5.722
 1927SOL    HW117660   1.189   2.706   5.794
 1927SOL    HW217661   1.171   2.656   5.652
 1928SOL     OW17662   2.154   4.155  16.062
 1928SOL    HW117663   2.212   4.097  16.012
 1928SOL    HW217664   2.105   4.202  15.994
 1929SOL     OW17665   1.967   0.159  18.620
 1929SOL    HW117666   1.872   0.165  18.612
 1929SOL    HW217667   1.983   0.171  18.714
 1930SOL     OW17668   0.690   0.891  19.828
 1930SOL    HW117669   0.703   0.984  19.847
 1930SOL    HW217670   0.772   0.850  19.856
 1931SOL     OW17671   4.337   1.026  18.117
 1931SOL    HW117672   4.270   1.027  18.048
 1931SOL    HW217673   4.392   1.102  18.097
 1932SOL     OW17674   2.229   0.153   5.309
 1932SOL    HW117675   2.153   0.188   5.355
 1932SOL    HW217676   2.304   0.191   5.355
 1933SOL     OW17677   0.194   2.547  18.234
 1933SOL    HW117678   0.246   2.627  18.235
 1933SOL    HW217679   0.181   2.526  18.327
 1934SOL     OW17680   4.614   1.998  15.994
 1934SOL    HW117681   4.665   2.049  16.057
 1934SOL    HW217682   4.656   2.015  15.909
 1935SOL     OW17683   1.528   4.068  20.023
 1935SOL    HW117684   1.623   4.071  20.040
 1935SOL    HW217685   1.512   4.146  19.970
 1936SOL     OW17686   4.398   2.376  21.165
 1936SOL    HW117687   4.357   2.452  21.125
 1936SOL    HW217688   4.413   2.401  21.256
 1937SOL     OW17689   1.278   1.183   1.340
 1937SOL    HW117690   1.262   1.252   1.404
 1937SOL    HW217691   1.302   1.106   1.392
 1938SOL     OW17692   1.926   1.628  17.214
 1938SOL    HW117693   1.961   1.635  17.303
 1938SOL    HW217694   1.970   1.553  17.176
 1939SOL     OW17695   2.884   1.198   6.233
 1939SOL    HW117696   2.958   1.138   6.235
 1939SOL    HW217697   2.923   1.285   6.230
 1940SOL     OW17698   2.830   1.928   0.401
 1940SOL    HW117699   2.839   1.864   0.330
 1940SOL    HW217700   2.892   1.899   0.467
 1941SOL     OW17701   0.432   0.554  20.255
 1941SOL    HW117702   0.500   0.621  20.268
 1941SOL    HW217703   0.350   0.599  20.275
 1942SOL     OW17704   0.794   0.561  18.672
 1942SOL    HW117705   0.801   0.520  18.758
 1942SOL    HW217706   0.826   0.494  18.611
 1943SOL     OW17707   2.701   4.307  18.717
 1943SOL    HW117708   2.787   4.288  18.755
 1943SOL    HW217709   2.716   4.309  18.623
 1944SOL     OW17710   4.421   3.016   3.455
 1944SOL    HW117711   4.406   3.104   3.490
 1944SOL    HW217712   4.481   2.976   3.518
 1945SOL     OW17713   3.399   0.248   2.544
 1945SOL    HW117714   3.439   0.205   2.620
 1945SOL    HW217715   3.311   0.272   2.573
 1946SOL     OW17716   3.212   0.621   4.141
 1946SOL    HW117717   3.172   0.622   4.054
 1946SOL    HW217718   3.294   0.573   4.130
 1947SOL     OW17719   1.692   2.868  20.309
 1947SOL    HW117720   1.647   2.927  20.248
 1947SOL    HW217721   1.650   2.783  20.294
 1948SOL     OW17722   1.984   3.865   8.911
 1948SOL    HW117723   2.079   3.878   8.905
 1948SOL    HW217724   1.951   3.948   8.945
 1949SOL     OW17725   0.468   2.137   1.578
 1949SOL    HW117726   0.467   2.077   1.652
 1949SOL    HW217727   0.541   2.197   1.596
 1950SOL     OW17728   3.886   2.822   0.672
 1950SOL    HW117729   3.964   2.875   0.657
 1950SOL    HW217730   3.901   2.742   0.622
 1951SOL     OW17731   1.550   3.932  15.668
 1951SOL    HW117732   1.555   3.854  15.612
 1951SOL    HW217733   1.459   3.961  15.661
 1952SOL     OW17734   0.067   2.635   3.423
 1952SOL    HW117735   0.014   2.695   3.370
 1952SOL    HW217736   0.022   2.551   3.418
 1953SOL     OW17737   0.039   0.003  16.282
 1953SOL    HW117738   0.030   0.053  16.201
 1953SOL    HW217739   0.130   4.764  16.281
 1954SOL     OW17740   3.163   2.953  19.465
 1954SOL    HW117741   3.145   3.025  19.525
 1954SOL    HW217742   3.096   2.888  19.485
 1955SOL     OW17743   0.695   0.243   4.205
 1955SOL    HW117744   0.607   0.236   4.242
 1955SOL    HW217745   0.712   0.337   4.200
 1956SOL     OW17746   2.290   2.179   4.410
 1956SOL    HW117747   2.284   2.083   4.411
 1956SOL    HW217748   2.364   2.197   4.352
 1957SOL     OW17749   2.642   4.111  20.193
 1957SOL    HW117750   2.578   4.077  20.255
 1957SOL    HW217751   2.712   4.045  20.192
 1958SOL     OW17752   1.534   0.702   1.005
 1958SOL    HW117753   1.450   0.726   0.965
 1958SOL    HW217754   1.519   0.712   1.099
 1959SOL     OW17755   1.432   1.096   3.451
 1959SOL    HW117756   1.421   1.024   3.388
 1959SOL    HW217757   1.522   1.087   3.481
 1960SOL     OW17758   3.403   2.444  20.167
 1960SOL    HW117759   3.406   2.491  20.084
 1960SOL    HW217760   3.492   2.449  20.201
 1961SOL     OW17761   3.771   3.962  13.970
 1961SOL    HW117762   3.780   4.011  13.888
 1961SOL    HW217763   3.680   3.934  13.972
 1962SOL     OW17764   3.442   2.266   6.681
 1962SOL    HW117765   3.347   2.275   6.669
 1962SOL    HW217766   3.477   2.271   6.592
 1963SOL     OW17767   4.202   3.580   4.726
 1963SOL    HW117768   4.209   3.583   4.631
 1963SOL    HW217769   4.234   3.493   4.750
 1964SOL     OW17770   0.687   3.576  20.861
 1964SOL    HW117771   0.691   3.598  20.768
 1964SOL    HW217772   0.626   3.502  20.866
 1965SOL     OW17773   3.203   1.925  19.526
 1965SOL    HW117774   3.143   1.852  19.539
 1965SOL    HW217775   3.164   1.977  19.456
 1966SOL     OW17776   2.877   0.353  16.438
 1966SOL    HW117777   2.900   0.290  16.370
 1966SOL    HW217778   2.799   0.317  16.480
 1967SOL     OW17779   3.174   2.558   1.173
 1967SOL    HW117780   3.208   2.648   1.179
 1967SOL    HW217781   3.190   2.532   1.083
 1968SOL     OW17782   1.182   3.943  17.099
 1968SOL    HW117783   1.266   3.900  17.116
 1968SOL    HW217784   1.116   3.877  17.121
 1969SOL     OW17785   2.657   3.113  20.286
 1969SOL    HW117786   2.610   3.091  20.366
 1969SOL    HW217787   2.710   3.035  20.267
 1970SOL     OW17788   4.752   1.925  18.719
 1970SOL    HW117789   4.670   1.941  18.672
 1970SOL    HW217790   4.764   2.004  18.772
 1971SOL     OW17791   1.475   1.999  16.404
 1971SOL    HW117792   1.533   2.045  16.344
 1971SOL    HW217793   1.478   2.049  16.485
 1972SOL     OW17794   3.646   3.801   5.670
 1972SOL    HW117795   3.584   3.779   5.601
 1972SOL    HW217796   3.593   3.805   5.750
 1973SOL     OW17797   1.066   3.174  17.626
 1973SOL    HW117798   1.089   3.135  17.542
 1973SOL    HW217799   1.009   3.248  17.604
 1974SOL     OW17800   0.185   2.171  15.221
 1974SOL    HW117801   0.142   2.236  15.166
 1974SOL    HW217802   0.115   2.131  15.272
 1975SOL     OW17803   1.471   0.375   4.936
 1975SOL    HW117804   1.435   0.352   5.022
 1975SOL    HW217805   1.417   0.450   4.908
 1976SOL     OW17806   2.339   0.120  17.796
 1976SOL    HW117807   2.322   0.051  17.731
 1976SOL    HW217808   2.338   0.075  17.880
 1977SOL     OW17809   2.016   2.436  16.978
 1977SOL    HW117810   2.034   2.412  16.887
 1977SOL    HW217811   2.082   2.503  16.998
 1978SOL     OW17812   1.147   3.763   5.807
 1978SOL    HW117813   1.055   3.739   5.816
 1978SOL    HW217814   1.187   3.738   5.890
 1979SOL     OW17815   1.925   3.943  18.026
 1979SOL    HW117816   1.870   3.875  18.065
 1979SOL    HW217817   1.877   3.971  17.948
 1980SOL     OW17818   3.652   1.861  18.736
 1980SOL    HW117819   3.578   1.892  18.788
 1980SOL    HW217820   3.638   1.898  18.649
 1981SOL     OW17821   2.876   2.500  17.547
 1981SOL    HW117822   2.925   2.577  17.519
 1981SOL    HW217823   2.919   2.426  17.502
 1982SOL     OW17824   4.149   2.773   2.150
 1982SOL    HW117825   4.224   2.775   2.210
 1982SOL    HW217826   4.129   2.680   2.141
 1983SOL     OW17827   2.437   1.129  20.655
 1983SOL    HW117828   2.498   1.080  20.711
 1983SOL    HW217829   2.443   1.085  20.570
 1984SOL     OW17830   1.963   3.553  16.964
 1984SOL    HW117831   1.935   3.640  16.992
 1984SOL    HW217832   1.887   3.497  16.981
 1985SOL     OW17833   4.431   3.303   4.461
 1985SOL    HW117834   4.462   3.214   4.442
 1985SOL    HW217835   4.454   3.354   4.383
 1986SOL     OW17836   0.964   3.340  16.712
 1986SOL    HW117837   0.895   3.296  16.761
 1986SOL    HW217838   0.988   3.278  16.643
 1987SOL     OW17839   3.837   2.374  13.239
 1987SOL    HW117840   3.880   2.398  13.157
 1987SOL    HW217841   3.753   2.420  13.236
 1988SOL     OW17842   3.190   1.149   4.324
 1988SOL    HW117843   3.126   1.107   4.381
 1988SOL    HW217844   3.253   1.189   4.384
 1989SOL     OW17845   1.795   1.645  14.129
 1989SOL    HW117846   1.795   1.741  14.134
 1989SOL    HW217847   1.703   1.622  14.118
 1990SOL     OW17848   3.908   3.709   1.904
 1990SOL    HW117849   3.896   3.716   1.809
 1990SOL    HW217850   3.833   3.754   1.942
 1991SOL     OW17851   1.800   4.451  17.018
 1991SOL    HW117852   1.863   4.452  16.946
 1991SOL    HW217853   1.754   4.367  17.009
 1992SOL     OW17854   0.511   0.290   5.425
 1992SOL    HW117855   0.453   0.242   5.483
 1992SOL    HW217856   0.483   0.264   5.337
 1993SOL     OW17857   0.301   3.241   4.870
 1993SOL    HW117858   0.360   3.166   4.875
 1993SOL    HW217859   0.218   3.204   4.838
 1994SOL     OW17860   3.265   4.632   4.693
 1994SOL    HW117861   3.297   4.542   4.703
 1994SOL    HW217862   3.245   4.660   4.782
 1995SOL     OW17863   4.352   2.929   3.193
 1995SOL    HW117864   4.387   2.958   3.277
 1995SOL    HW217865   4.356   2.834   3.197
 1996SOL     OW17866   0.526   4.758  13.315
 1996SOL    HW117867   0.507   0.055  13.281
 1996SOL    HW217868   0.616   4.741  13.287
 1997SOL     OW17869   0.277   2.680   0.074
 1997SOL    HW117870   0.269   2.671  21.242
 1997SOL    HW217871   0.187   2.671   0.106
 1998SOL     OW17872   2.260   0.844   2.230
 1998SOL    HW117873   2.278   0.750   2.225
 1998SOL    HW217874   2.308   0.874   2.307
 1999SOL     OW17875   4.075   0.019  14.781
 1999SOL    HW117876   4.164   4.781  14.764
 1999SOL    HW217877   4.085   0.109  14.813
 2000SOL     OW17878   3.711   0.414  16.157
 2000SOL    HW117879   3.690   0.324  16.131
 2000SOL    HW217880   3.758   0.404  16.240
 2001SOL     OW17881   3.251   4.423   1.950
 2001SOL    HW117882   3.286   4.488   2.011
 2001SOL    HW217883   3.321   4.359   1.939
 2002SOL     OW17884   1.753   0.477   1.576
 2002SOL    HW117885   1.832   0.438   1.613
 2002SOL    HW217886   1.715   0.408   1.522
 2003SOL     OW17887   4.770   3.989  16.598
 2003SOL    HW117888   4.746   3.939  16.676
 2003SOL    HW217889   4.763   4.080  16.625
 2004SOL     OW17890   2.684   1.926   8.487
 2004SOL    HW117891   2.712   2.005   8.442
 2004SOL    HW217892   2.749   1.860   8.464
 2005SOL     OW17893   4.028   2.848   3.578
 2005SOL    HW117894   4.042   2.846   3.672
 2005SOL    HW217895   4.113   2.823   3.540
 2006SOL     OW17896   3.276   1.382   3.260
 2006SOL    HW117897   3.230   1.459   3.294
 2006SOL    HW217898   3.272   1.391   3.165
 2007SOL     OW17899   0.206   4.463  18.543
 2007SOL    HW117900   0.122   4.473  18.588
 2007SOL    HW217901   0.183   4.459  18.450
 2008SOL     OW17902   4.138   2.845   2.517
 2008SOL    HW117903   4.145   2.933   2.552
 2008SOL    HW217904   4.097   2.794   2.587
 2009SOL     OW17905   1.471   2.849  18.173
 2009SOL    HW117906   1.543   2.901  18.137
 2009SOL    HW217907   1.502   2.758  18.166
 2010SOL     OW17908   0.611   2.679   0.360
 2010SOL    HW117909   0.552   2.613   0.324
 2010SOL    HW217910   0.694   2.665   0.314
 2011SOL     OW17911   4.430   4.696   2.672
 2011SOL    HW117912   4.493   4.665   2.738
 2011SOL    HW217913   4.381   4.765   2.716
 2012SOL     OW17914   0.022   1.451   0.508
 2012SOL    HW117915   0.036   1.538   0.472
 2012SOL    HW217916   0.020   1.393   0.431
 2013SOL     OW17917   2.239   3.601  15.119
 2013SOL    HW117918   2.274   3.525  15.167
 2013SOL    HW217919   2.157   3.569  15.081
 2014SOL     OW17920   2.535   0.905  20.182
 2014SOL    HW117921   2.522   0.811  20.181
 2014SOL    HW217922   2.615   0.919  20.132
 2015SOL     OW17923   4.082   0.354   2.971
 2015SOL    HW117924   4.123   0.268   2.983
 2015SOL    HW217925   4.070   0.363   2.877
 2016SOL     OW17926   4.278   0.313  16.319
 2016SOL    HW117927   4.334   0.279  16.390
 2016SOL    HW217928   4.308   0.267  16.241
 2017SOL     OW17929   1.347   2.828  21.045
 2017SOL    HW117930   1.287   2.767  21.003
 2017SOL    HW217931   1.334   2.814  21.139
 2018SOL     OW17932   2.396   2.869   4.339
 2018SOL    HW117933   2.398   2.935   4.409
 2018SOL    HW217934   2.392   2.919   4.258
 2019SOL     OW17935   4.685   2.148  13.190
 2019SOL    HW117936   4.646   2.217  13.244
 2019SOL    HW217937   4.734   2.094  13.253
 2020SOL     OW17938   4.760   2.092  12.038
 2020SOL    HW117939   0.043   2.041  12.006
 2020SOL    HW217940   4.760   2.077  12.133
 2021SOL     OW17941   3.805   4.101  17.055
 2021SOL    HW117942   3.761   4.026  17.095
 2021SOL    HW217943   3.793   4.172  17.117
 2022SOL     OW17944   0.866   0.273   1.686
 2022SOL    HW117945   0.871   0.356   1.733
 2022SOL    HW217946   0.800   0.222   1.733
 2023SOL     OW17947   3.307   3.311   6.669
 2023SOL    HW117948   3.244   3.245   6.641
 2023SOL    HW217949   3.376   3.263   6.714
 2024SOL     OW17950   2.068   0.922  20.459
 2024SOL    HW117951   2.016   0.870  20.398
 2024SOL    HW217952   2.043   1.013  20.441
 2025SOL     OW17953   2.953   3.912   3.486
 2025SOL    HW117954   3.022   3.847   3.475
 2025SOL    HW217955   2.872   3.862   3.491
 2026SOL     OW17956   0.869   0.907   1.722
 2026SOL    HW117957   0.940   0.875   1.778
 2026SOL    HW217958   0.906   0.905   1.634
 2027SOL     OW17959   3.467   3.276   0.444
 2027SOL    HW117960   3.551   3.279   0.489
 2027SOL    HW217961   3.468   3.352   0.386
 2028SOL     OW17962   0.567   4.099  20.298
 2028SOL    HW117963   0.572   4.007  20.326
 2028SOL    HW217964   0.655   4.133  20.312
 2029SOL     OW17965   0.766   3.442   2.432
 2029SOL    HW117966   0.678   3.441   2.469
 2029SOL    HW217967   0.801   3.528   2.457
 2030SOL     OW17968   1.788   2.585   6.593
 2030SOL    HW117969   1.878   2.556   6.604
 2030SOL    HW217970   1.747   2.515   6.542
 2031SOL     OW17971   2.968   0.601  18.134
 2031SOL    HW117972   3.059   0.597  18.163
 2031SOL    HW217973   2.955   0.692  18.107
 2032SOL     OW17974   4.075   1.072   8.461
 2032SOL    HW117975   4.108   1.155   8.426
 2032SOL    HW217976   4.153   1.029   8.497
 2033SOL     OW17977   0.179   3.649  15.031
 2033SOL    HW117978   0.197   3.676  15.121
 2033SOL    HW217979   0.210   3.558  15.027
 2034SOL     OW17980   1.061   3.278  19.897
 2034SOL    HW117981   1.033   3.356  19.849
 2034SOL    HW217982   1.048   3.206  19.835
 2035SOL     OW17983   2.215   1.444  18.963
 2035SOL    HW117984   2.145   1.378  18.959
 2035SOL    HW217985   2.235   1.451  19.056
 2036SOL     OW17986   2.846   3.551  17.774
 2036SOL    HW117987   2.903   3.487  17.818
 2036SOL    HW217988   2.844   3.625  17.835
 2037SOL     OW17989   3.746   2.717   1.849
 2037SOL    HW117990   3.776   2.789   1.905
 2037SOL    HW217991   3.792   2.640   1.882
 2038SOL     OW17992   1.991   0.520   5.895
 2038SOL    HW117993   1.958   0.600   5.854
 2038SOL    HW217994   2.078   0.509   5.859
 2039SOL     OW17995   3.973   4.704  15.783
 2039SOL    HW117996   4.043   4.746  15.732
 2039SOL    HW217997   3.894   4.754  15.761
 2040SOL     OW17998   3.196   2.193   1.187
 2040SOL    HW117999   3.187   2.208   1.093
 2040SOL    HW218000   3.190   2.098   1.197
 2041SOL     OW18001   1.310   4.466  18.314
 2041SOL    HW118002   1.347   4.545  18.276
 2041SOL    HW218003   1.217   4.487  18.326
 2042SOL     OW18004   0.132   2.079  20.711
 2042SOL    HW118005   0.187   2.071  20.788
 2042SOL    HW218006   0.047   2.044  20.738
 2043SOL     OW18007   3.705   1.010   4.778
 2043SOL    HW118008   3.629   0.998   4.721
 2043SOL    HW218009   3.767   0.943   4.750
 2044SOL     OW18010   2.301   1.636  21.227
 2044SOL    HW118011   2.395   1.618  21.219
 2044SOL    HW218012   2.258   1.556  21.197
 2045SOL     OW18013   4.445   0.521   0.595
 2045SOL    HW118014   4.378   0.581   0.563
 2045SOL    HW218015   4.516   0.529   0.531
 2046SOL     OW18016   4.361   0.860   3.327
 2046SOL    HW118017   4.379   0.791   3.391
 2046SOL    HW218018   4.306   0.819   3.262
 2047SOL     OW18019   1.212   2.339  16.117
 2047SOL    HW118020   1.159   2.411  16.083
 2047SOL    HW218021   1.149   2.272  16.143
 2048SOL     OW18022   2.053   2.404  15.808
 2048SOL    HW118023   1.991   2.381  15.739
 2048SOL    HW218024   2.051   2.499  15.813
 2049SOL     OW18025   0.713   0.912   0.321
 2049SOL    HW118026   0.761   0.945   0.397
 2049SOL    HW218027   0.621   0.927   0.342
 2050SOL     OW18028   0.974   2.340  20.426
 2050SOL    HW118029   0.885   2.349  20.459
 2050SOL    HW218030   1.027   2.393  20.485
 2051SOL     OW18031   1.858   4.136   1.284
 2051SOL    HW118032   1.829   4.052   1.320
 2051SOL    HW218033   1.778   4.188   1.275
 2052SOL     OW18034   1.608   4.506   3.164
 2052SOL    HW118035   1.669   4.459   3.106
 2052SOL    HW218036   1.664   4.565   3.214
 2053SOL     OW18037   0.441   3.833   3.196
 2053SOL    HW118038   0.353   3.823   3.232
 2053SOL    HW218039   0.429   3.830   3.101
 2054SOL     OW18040   1.353   0.175   3.039
 2054SOL    HW118041   1.311   0.093   3.063
 2054SOL    HW218042   1.396   0.158   2.956
 2055SOL     OW18043   1.436   4.036  14.288
 2055SOL    HW118044   1.415   4.082  14.370
 2055SOL    HW218045   1.529   4.016  14.295
 2056SOL     OW18046   4.485   0.150  13.998
 2056SOL    HW118047   4.534   0.227  14.026
 2056SOL    HW218048   4.489   0.153  13.903
 2057SOL     OW18049   1.949   1.514   3.720
 2057SOL    HW118050   1.985   1.602   3.706
 2057SOL    HW218051   1.854   1.526   3.720
 2058SOL     OW18052   0.301   4.692  16.270
 2058SOL    HW118053   0.312   4.648  16.354
 2058SOL    HW218054   0.368   4.653  16.213
 2059SOL     OW18055   1.376   3.248   2.809
 2059SOL    HW118056   1.435   3.224   2.880
 2059SOL    HW218057   1.292   3.263   2.852
 2060SOL     OW18058   2.254   3.584   6.295
 2060SOL    HW118059   2.333   3.535   6.274
 2060SOL    HW218060   2.194   3.567   6.222
 2061SOL     OW18061   4.281   4.162  18.845
 2061SOL    HW118062   4.264   4.083  18.897
 2061SOL    HW218063   4.247   4.141  18.758
 2062SOL     OW18064   0.779   4.438   6.055
 2062SOL    HW118065   0.744   4.351   6.075
 2062SOL    HW218066   0.714   4.498   6.091
 2063SOL     OW18067   2.915   1.457  16.253
 2063SOL    HW118068   2.852   1.408  16.199
 2063SOL    HW218069   2.960   1.389  16.304
 2064SOL     OW18070   0.022   3.258   5.082
 2064SOL    HW118071   0.108   3.253   5.040
 2064SOL    HW218072   0.009   3.172   5.120
 2065SOL     OW18073   3.882   2.538  16.594
 2065SOL    HW118074   3.908   2.558  16.684
 2065SOL    HW218075   3.895   2.621  16.547
 2066SOL     OW18076   3.788   0.359  20.323
 2066SOL    HW118077   3.822   0.276  20.289
 2066SOL    HW218078   3.700   0.366  20.285
 2067SOL     OW18079   2.077   0.542   7.988
 2067SOL    HW118080   2.013   0.473   7.970
 2067SOL    HW218081   2.156   0.495   8.015
 2068SOL     OW18082   2.936   1.078  16.329
 2068SOL    HW118083   2.862   1.041  16.281
 2068SOL    HW218084   2.900   1.105  16.413
 2069SOL     OW18085   2.226   4.110  20.436
 2069SOL    HW118086   2.164   4.176  20.467
 2069SOL    HW218087   2.175   4.029  20.436
 2070SOL     OW18088   2.066   4.125   1.083
 2070SOL    HW118089   2.145   4.077   1.107
 2070SOL    HW218090   2.000   4.093   1.144
 2071SOL     OW18091   0.679   0.175  20.728
 2071SOL    HW118092   0.704   0.085  20.707
 2071SOL    HW218093   0.715   0.189  20.816
 2072SOL     OW18094   0.271   3.226  15.398
 2072SOL    HW118095   0.321   3.291  15.348
 2072SOL    HW218096   0.335   3.186  15.457
 2073SOL     OW18097   2.914   0.996   3.753
 2073SOL    HW118098   2.970   1.074   3.752
 2073SOL    HW218099   2.952   0.939   3.686
 2074SOL     OW18100   0.695   2.493   1.238
 2074SOL    HW118101   0.740   2.521   1.158
 2074SOL    HW218102   0.747   2.529   1.309
 2075SOL     OW18103   2.263   1.808  16.687
 2075SOL    HW118104   2.180   1.768  16.662
 2075SOL    HW218105   2.327   1.737  16.682
 2076SOL     OW18106   2.126   0.237   3.722
 2076SOL    HW118107   2.220   0.220   3.718
 2076SOL    HW218108   2.085   0.152   3.709
 2077SOL     OW18109   0.740   4.588  12.588
 2077SOL    HW118110   0.699   4.674  12.577
 2077SOL    HW218111   0.802   4.581  12.516
 2078SOL     OW18112   1.419   2.988   3.742
 2078SOL    HW118113   1.502   3.021   3.775
 2078SOL    HW218114   1.413   2.899   3.778
 2079SOL     OW18115   1.232   4.414  16.345
 2079SOL    HW118116   1.265   4.401  16.256
 2079SOL    HW218117   1.146   4.370  16.344
 2080SOL     OW18118   1.269   0.796   4.278
 2080SOL    HW118119   1.303   0.732   4.216
 2080SOL    HW218120   1.347   0.841   4.311
 2081SOL     OW18121   2.370   0.650   8.370
 2081SOL    HW118122   2.452   0.638   8.417
 2081SOL    HW218123   2.360   0.571   8.317
 2082SOL     OW18124   1.819   4.091  15.959
 2082SOL    HW118125   1.890   4.149  15.933
 2082SOL    HW218126   1.857   4.034  16.026
 2083SOL     OW18127   0.483   0.139  17.641
 2083SOL    HW118128   0.560   0.195  17.634
 2083SOL    HW218129   0.512   0.054  17.608
 2084SOL     OW18130   3.722   0.095  20.555
 2084SOL    HW118131   3.643   0.085  20.608
 2084SOL    HW218132   3.767   0.011  20.561
 2085SOL     OW18133   0.376   3.519  16.959
 2085SOL    HW118134   0.456   3.500  17.008
 2085SOL    HW218135   0.396   3.490  16.869
 2086SOL     OW18136   2.294   2.755   3.012
 2086SOL    HW118137   2.348   2.751   2.933
 2086SOL    HW218138   2.206   2.733   2.981
 2087SOL     OW18139   2.854   3.428   4.763
 2087SOL    HW118140   2.948   3.413   4.765
 2087SOL    HW218141   2.833   3.461   4.850
 2088SOL     OW18142   2.212   1.247   7.162
 2088SOL    HW118143   2.151   1.292   7.220
 2088SOL    HW218144   2.162   1.233   7.081
 2089SOL     OW18145   4.164   4.150  18.587
 2089SOL    HW118146   4.088   4.205  18.568
 2089SOL    HW218147   4.207   4.138  18.502
 2090SOL     OW18148   1.314   0.154  19.492
 2090SOL    HW118149   1.363   0.202  19.426
 2090SOL    HW218150   1.266   0.087  19.443
 2091SOL     OW18151   3.025   4.579  12.934
 2091SOL    HW118152   3.029   4.674  12.926
 2091SOL    HW218153   2.991   4.564  13.022
 2092SOL     OW18154   2.477   1.499  19.666
 2092SOL    HW118155   2.562   1.501  19.622
 2092SOL    HW218156   2.461   1.407  19.685
 2093SOL     OW18157   1.244   4.528   0.777
 2093SOL    HW118158   1.244   4.509   0.683
 2093SOL    HW218159   1.303   4.603   0.786
 2094SOL     OW18160   3.141   1.277   4.836
 2094SOL    HW118161   3.186   1.359   4.857
 2094SOL    HW218162   3.210   1.219   4.805
 2095SOL     OW18163   4.067   0.332   4.554
 2095SOL    HW118164   4.018   0.349   4.635
 2095SOL    HW218165   4.148   0.381   4.565
 2096SOL     OW18166   1.752   3.623  17.946
 2096SOL    HW118167   1.665   3.637  17.909
 2096SOL    HW218168   1.754   3.679  18.024
 2097SOL     OW18169   1.157   4.289  17.017
 2097SOL    HW118170   1.099   4.276  17.092
 2097SOL    HW218171   1.137   4.216  16.958
 2098SOL     OW18172   0.855   3.400   2.171
 2098SOL    HW118173   0.826   3.388   2.261
 2098SOL    HW218174   0.865   3.495   2.162
 2099SOL     OW18175   1.142   2.723   4.060
 2099SOL    HW118176   1.173   2.658   3.997
 2099SOL    HW218177   1.145   2.806   4.013
 2100SOL     OW18178   2.488   4.473  20.927
 2100SOL    HW118179   2.393   4.481  20.934
 2100SOL    HW218180   2.507   4.492  20.836
 2101SOL     OW18181   3.602   3.347  15.968
 2101SOL    HW118182   3.686   3.315  16.002
 2101SOL    HW218183   3.545   3.271  15.968
 2102SOL     OW18184   1.173   4.661  19.153
 2102SOL    HW118185   1.096   4.710  19.124
 2102SOL    HW218186   1.246   4.703  19.107
 2103SOL     OW18187   3.911   2.794  17.567
 2103SOL    HW118188   3.986   2.741  17.540
 2103SOL    HW218189   3.913   2.870  17.509
 2104SOL     OW18190   0.303   3.317  20.805
 2104SOL    HW118191   0.361   3.323  20.729
 2104SOL    HW218192   0.319   3.398  20.854
 2105SOL     OW18193   1.377   3.487   5.420
 2105SOL    HW118194   1.428   3.475   5.500
 2105SOL    HW218195   1.369   3.399   5.383
 2106SOL     OW18196   4.312   3.649  17.177
 2106SOL    HW118197   4.335   3.566  17.134
 2106SOL    HW218198   4.308   3.712  17.105
 2107SOL     OW18199   2.692   4.764   1.412
 2107SOL    HW118200   2.646   4.778   1.329
 2107SOL    HW218201   2.632   0.008   1.478
 2108SOL     OW18202   3.394   3.187   2.842
 2108SOL    HW118203   3.348   3.194   2.926
 2108SOL    HW218204   3.330   3.218   2.778
 2109SOL     OW18205   3.956   3.340  17.631
 2109SOL    HW118206   4.041   3.319  17.671
 2109SOL    HW218207   3.914   3.398  17.695
 2110SOL     OW18208   4.641   0.369  14.070
 2110SOL    HW118209   4.734   0.371  14.092
 2110SOL    HW218210   4.600   0.426  14.135
 2111SOL     OW18211   2.402   1.484  16.616
 2111SOL    HW118212   2.457   1.465  16.692
 2111SOL    HW218213   2.448   1.443  16.543
 2112SOL     OW18214   1.138   1.041  15.957
 2112SOL    HW118215   1.087   0.969  15.920
 2112SOL    HW218216   1.226   1.004  15.970
 2113SOL     OW18217   2.406   3.497   5.912
 2113SOL    HW118218   2.328   3.499   5.967
 2113SOL    HW218219   2.477   3.526   5.969
 2114SOL     OW18220   2.055   2.248   2.730
 2114SOL    HW118221   1.968   2.211   2.718
 2114SOL    HW218222   2.107   2.176   2.766
 2115SOL     OW18223   3.519   3.124  18.066
 2115SOL    HW118224   3.570   3.057  18.112
 2115SOL    HW218225   3.529   3.102  17.973
 2116SOL     OW18226   1.661   1.593   0.205
 2116SOL    HW118227   1.683   1.504   0.229
 2116SOL    HW218228   1.740   1.644   0.225
 2117SOL     OW18229   2.275   2.213  19.087
 2117SOL    HW118230   2.304   2.287  19.034
 2117SOL    HW218231   2.225   2.254  19.158
 2118SOL     OW18232   1.561   3.104  16.871
 2118SOL    HW118233   1.528   3.043  16.805
 2118SOL    HW218234   1.519   3.187  16.849
 2119SOL     OW18235   4.130   0.431  12.126
 2119SOL    HW118236   4.141   0.525  12.112
 2119SOL    HW218237   4.100   0.397  12.042
 2120SOL     OW18238   0.655   3.669  19.691
 2120SOL    HW118239   0.649   3.759  19.661
 2120SOL    HW218240   0.738   3.665  19.740
 2121SOL     OW18241   0.347   3.143  16.013
 2121SOL    HW118242   0.265   3.099  16.036
 2121SOL    HW218243   0.322   3.235  16.003
 2122SOL     OW18244   2.367   1.317  11.713
 2122SOL    HW118245   2.457   1.297  11.688
 2122SOL    HW218246   2.320   1.322  11.630
 2123SOL     OW18247   0.682   4.135  19.732
 2123SOL    HW118248   0.731   4.147  19.651
 2123SOL    HW218249   0.658   4.224  19.759
 2124SOL     OW18250   2.118   1.115  16.958
 2124SOL    HW118251   2.031   1.110  16.918
 2124SOL    HW218252   2.167   1.043  16.919
 2125SOL     OW18253   0.929   1.259   2.799
 2125SOL    HW118254   0.953   1.261   2.892
 2125SOL    HW218255   0.945   1.168   2.773
 2126SOL     OW18256   1.676   0.312  16.702
 2126SOL    HW118257   1.731   0.235  16.693
 2126SOL    HW218258   1.621   0.294  16.778
 2127SOL     OW18259   1.825   2.478   0.380
 2127SOL    HW118260   1.756   2.415   0.364
 2127SOL    HW218261   1.786   2.563   0.360
 2128SOL     OW18262   2.895   3.947  19.558
 2128SOL    HW118263   2.812   3.927  19.515
 2128SOL    HW218264   2.876   3.946  19.651
 2129SOL     OW18265   4.325   3.233  15.169
 2129SOL    HW118266   4.405   3.224  15.118
 2129SOL    HW218267   4.320   3.154  15.222
 2130SOL     OW18268   2.249   1.764  19.138
 2130SOL    HW118269   2.258   1.675  19.172
 2130SOL    HW218270   2.164   1.766  19.096
 2131SOL     OW18271   0.874   1.041  12.005
 2131SOL    HW118272   0.893   1.054  11.912
 2131SOL    HW218273   0.946   0.986  12.037
 2132SOL     OW18274   1.273   1.608  15.456
 2132SOL    HW118275   1.295   1.545  15.524
 2132SOL    HW218276   1.212   1.561  15.398
 2133SOL     OW18277   4.582   1.915   3.426
 2133SOL    HW118278   4.488   1.921   3.408
 2133SOL    HW218279   4.608   1.831   3.389
 2134SOL     OW18280   1.684   3.425  16.716
 2134SOL    HW118281   1.734   3.357  16.670
 2134SOL    HW218282   1.596   3.388  16.725
 2135SOL     OW18283   0.512   1.787   2.023
 2135SOL    HW118284   0.523   1.803   2.117
 2135SOL    HW218285   0.434   1.732   2.017
 2136SOL     OW18286   4.726   0.347  17.761
 2136SOL    HW118287   4.725   0.411  17.832
 2136SOL    HW218288   0.028   0.330  17.746
 2137SOL     OW18289   2.606   2.797  15.608
 2137SOL    HW118290   2.680   2.776  15.665
 2137SOL    HW218291   2.549   2.851  15.663
 2138SOL     OW18292   1.146   4.019   3.924
 2138SOL    HW118293   1.098   4.019   4.006
 2138SOL    HW218294   1.093   3.964   3.865
 2139SOL     OW18295   1.800   3.694  19.860
 2139SOL    HW118296   1.843   3.749  19.926
 2139SOL    HW218297   1.722   3.660  19.904
 2140SOL     OW18298   2.291   2.497   3.809
 2140SOL    HW118299   2.351   2.511   3.736
 2140SOL    HW218300   2.297   2.579   3.860
 2141SOL     OW18301   3.250   1.376   3.998
 2141SOL    HW118302   3.156   1.372   3.981
 2141SOL    HW218303   3.290   1.384   3.911
 2142SOL     OW18304   1.488   2.471   6.235
 2142SOL    HW118305   1.457   2.554   6.199
 2142SOL    HW218306   1.455   2.404   6.175
 2143SOL     OW18307   2.458   4.494   3.016
 2143SOL    HW118308   2.497   4.477   3.102
 2143SOL    HW218309   2.366   4.470   3.026
 2144SOL     OW18310   4.530   3.280  19.065
 2144SOL    HW118311   4.514   3.225  18.989
 2144SOL    HW218312   4.602   3.338  19.038
 2145SOL     OW18313   0.830   4.499  20.781
 2145SOL    HW118314   0.915   4.482  20.821
 2145SOL    HW218315   0.780   4.544  20.849
 2146SOL     OW18316   4.382   1.726   2.092
 2146SOL    HW118317   4.355   1.642   2.130
 2146SOL    HW218318   4.364   1.790   2.161
 2147SOL     OW18319   4.603   0.399   2.689
 2147SOL    HW118320   4.576   0.435   2.604
 2147SOL    HW218321   4.697   0.419   2.695
 2148SOL     OW18322   2.651   2.981   3.085
 2148SOL    HW118323   2.725   3.014   3.033
 2148SOL    HW218324   2.621   2.904   3.036
 2149SOL     OW18325   4.763   3.455  14.842
 2149SOL    HW118326   4.784   3.548  14.839
 2149SOL    HW218327   0.054   3.411  14.818
 2150SOL     OW18328   1.618   1.437   4.212
 2150SOL    HW118329   1.575   1.465   4.131
 2150SOL    HW218330   1.705   1.407   4.184
 2151SOL     OW18331   2.293   0.570  18.821
 2151SOL    HW118332   2.267   0.492  18.870
 2151SOL    HW218333   2.300   0.539  18.730
 2152SOL     OW18334   0.553   0.010  19.697
 2152SOL    HW118335   0.506   0.042  19.774
 2152SOL    HW218336   0.532   0.073  19.628
 2153SOL     OW18337   2.652   2.944  20.802
 2153SOL    HW118338   2.740   2.909  20.820
 2153SOL    HW218339   2.667   3.036  20.782
 2154SOL     OW18340   3.531   2.850   5.703
 2154SOL    HW118341   3.457   2.811   5.749
 2154SOL    HW218342   3.569   2.911   5.767
 2155SOL     OW18343   3.190   2.321   6.588
 2155SOL    HW118344   3.141   2.299   6.509
 2155SOL    HW218345   3.126   2.362   6.646
 2156SOL     OW18346   4.632   0.581  20.102
 2156SOL    HW118347   4.587   0.640  20.162
 2156SOL    HW218348   4.568   0.512  20.084
 2157SOL     OW18349   1.755   3.893   1.673
 2157SOL    HW118350   1.750   3.902   1.577
 2157SOL    HW218351   1.721   3.975   1.707
 2158SOL     OW18352   1.221   4.296  15.135
 2158SOL    HW118353   1.260   4.210  15.120
 2158SOL    HW218354   1.177   4.289  15.220
 2159SOL     OW18355   0.666   3.055   2.731
 2159SOL    HW118356   0.644   3.054   2.638
 2159SOL    HW218357   0.606   2.992   2.770
 2160SOL     OW18358   1.139   2.190  16.840
 2160SOL    HW118359   1.192   2.223  16.767
 2160SOL    HW218360   1.190   2.211  16.918
 2161SOL     OW18361   2.071   3.301   5.868
 2161SOL    HW118362   2.139   3.284   5.802
 2161SOL    HW218363   2.062   3.218   5.916
 2162SOL     OW18364   0.801   2.668  12.985
 2162SOL    HW118365   0.725   2.613  12.969
 2162SOL    HW218366   0.783   2.712  13.069
 2163SOL     OW18367   2.491   4.281  14.198
 2163SOL    HW118368   2.482   4.227  14.276
 2163SOL    HW218369   2.506   4.369  14.231
 2164SOL     OW18370   4.360   0.781  18.302
 2164SOL    HW118371   4.344   0.851  18.238
 2164SOL    HW218372   4.297   0.798  18.372
 2165SOL     OW18373   0.573   0.505   5.160
 2165SOL    HW118374   0.492   0.547   5.190
 2165SOL    HW218375   0.640   0.574   5.168
 2166SOL     OW18376   2.230   2.087   2.854
 2166SOL    HW118377   2.322   2.060   2.850
 2166SOL    HW218378   2.221   2.128   2.940
 2167SOL     OW18379   1.877   1.117  20.068
 2167SOL    HW118380   1.823   1.123  19.989
 2167SOL    HW218381   1.956   1.070  20.040
 2168SOL     OW18382   0.346   1.210  19.102
 2168SOL    HW118383   0.430   1.176  19.131
 2168SOL    HW218384   0.282   1.146  19.133
 2169SOL     OW18385   1.368   3.991   4.567
 2169SOL    HW118386   1.413   3.944   4.497
 2169SOL    HW218387   1.384   3.938   4.645
 2170SOL     OW18388   3.737   0.882   6.207
 2170SOL    HW118389   3.754   0.974   6.186
 2170SOL    HW218390   3.694   0.885   6.292
 2171SOL     OW18391   4.497   2.325  18.316
 2171SOL    HW118392   4.482   2.288  18.403
 2171SOL    HW218393   4.548   2.405  18.333
 2172SOL     OW18394   0.462   2.192  15.217
 2172SOL    HW118395   0.389   2.147  15.175
 2172SOL    HW218396   0.433   2.207  15.307
 2173SOL     OW18397   2.878   0.437   5.168
 2173SOL    HW118398   2.884   0.458   5.261
 2173SOL    HW218399   2.827   0.356   5.164
 2174SOL     OW18400   1.996   0.227   3.017
 2174SOL    HW118401   2.072   0.270   2.978
 2174SOL    HW218402   1.939   0.299   3.044
 2175SOL     OW18403   0.817   0.390   0.471
 2175SOL    HW118404   0.909   0.392   0.446
 2175SOL    HW218405   0.772   0.355   0.393
 2176SOL     OW18406   2.002   0.964  15.221
 2176SOL    HW118407   1.913   0.982  15.191
 2176SOL    HW218408   1.992   0.949  15.316
 2177SOL     OW18409   4.489   3.225   2.044
 2177SOL    HW118410   4.496   3.130   2.039
 2177SOL    HW218411   4.397   3.243   2.024
 2178SOL     OW18412   3.925   4.727   7.710
 2178SOL    HW118413   3.871   4.648   7.709
 2178SOL    HW218414   4.012   4.697   7.737
 2179SOL     OW18415   3.647   2.122   5.873
 2179SOL    HW118416   3.646   2.211   5.909
 2179SOL    HW218417   3.674   2.067   5.947
 2180SOL     OW18418   2.570   1.454   2.221
 2180SOL    HW118419   2.564   1.375   2.168
 2180SOL    HW218420   2.479   1.479   2.237
 2181SOL     OW18421   0.268   4.547  14.181
 2181SOL    HW118422   0.292   4.476  14.240
 2181SOL    HW218423   0.332   4.542  14.110
 2182SOL     OW18424   1.426   4.186  16.946
 2182SOL    HW118425   1.415   4.092  16.942
 2182SOL    HW218426   1.395   4.211  17.033
 2183SOL     OW18427   2.079   4.083   3.456
 2183SOL    HW118428   2.173   4.068   3.452
 2183SOL    HW218429   2.067   4.175   3.432
 2184SOL     OW18430   4.478   1.771   5.654
 2184SOL    HW118431   4.432   1.777   5.738
 2184SOL    HW218432   4.570   1.764   5.678
 2185SOL     OW18433   3.332   3.831  17.218
 2185SOL    HW118434   3.405   3.783  17.257
 2185SOL    HW218435   3.328   3.914  17.266
 2186SOL     OW18436   2.193   3.032   7.788
 2186SOL    HW118437   2.196   3.039   7.692
 2186SOL    HW218438   2.100   3.044   7.809
 2187SOL     OW18439   1.114   3.494  19.386
 2187SOL    HW118440   1.199   3.450  19.393
 2187SOL    HW218441   1.053   3.435  19.430
 2188SOL     OW18442   1.746   4.578   6.405
 2188SOL    HW118443   1.667   4.625   6.432
 2188SOL    HW218444   1.812   4.647   6.394
 2189SOL     OW18445   2.242   3.893   1.199
 2189SOL    HW118446   2.252   3.867   1.108
 2189SOL    HW218447   2.332   3.899   1.232
 2190SOL     OW18448   0.774   2.685  16.023
 2190SOL    HW118449   0.842   2.727  15.970
 2190SOL    HW218450   0.762   2.599  15.982
 2191SOL     OW18451   1.423   3.157   4.320
 2191SOL    HW118452   1.451   3.068   4.342
 2191SOL    HW218453   1.423   3.203   4.404
 2192SOL     OW18454   3.950   4.316  18.263
 2192SOL    HW118455   4.019   4.269  18.310
 2192SOL    HW218456   3.994   4.391  18.224
 2193SOL     OW18457   3.833   2.931  21.200
 2193SOL    HW118458   3.863   2.928  21.109
 2193SOL    HW218459   3.865   3.016  21.232
 2194SOL     OW18460   4.391   3.834   3.931
 2194SOL    HW118461   4.396   3.914   3.984
 2194SOL    HW218462   4.477   3.826   3.890
 2195SOL     OW18463   3.305   4.627  15.970
 2195SOL    HW118464   3.399   4.626  15.987
 2195SOL    HW218465   3.290   4.702  15.914
 2196SOL     OW18466   3.823   1.930   3.333
 2196SOL    HW118467   3.762   1.856   3.336
 2196SOL    HW218468   3.849   1.943   3.425
 2197SOL     OW18469   3.268   4.053   4.085
 2197SOL    HW118470   3.357   4.088   4.097
 2197SOL    HW218471   3.224   4.069   4.168
 2198SOL     OW18472   2.079   4.287  20.830
 2198SOL    HW118473   2.125   4.214  20.790
 2198SOL    HW218474   2.025   4.248  20.899
 2199SOL     OW18475   3.039   4.737   3.695
 2199SOL    HW118476   2.956   4.739   3.649
 2199SOL    HW218477   3.031   4.663   3.756
 2200SOL     OW18478   1.960   2.213   0.430
 2200SOL    HW118479   1.930   2.301   0.451
 2200SOL    HW218480   2.000   2.182   0.511
 2201SOL     OW18481   1.397   0.445  18.923
 2201SOL    HW118482   1.433   0.356  18.918
 2201SOL    HW218483   1.303   0.433  18.909
 2202SOL     OW18484   2.121   1.783   6.015
 2202SOL    HW118485   2.123   1.835   6.095
 2202SOL    HW218486   2.111   1.693   6.046
 2203SOL     OW18487   3.058   0.582  17.829
 2203SOL    HW118488   2.968   0.553  17.838
 2203SOL    HW218489   3.069   0.600  17.736
 2204SOL     OW18490   3.280   2.186   0.128
 2204SOL    HW118491   3.354   2.207   0.185
 2204SOL    HW218492   3.290   2.093   0.108
 2205SOL     OW18493   0.647   0.152   1.750
 2205SOL    HW118494   0.577   0.183   1.808
 2205SOL    HW218495   0.630   0.196   1.667
 2206SOL     OW18496   1.798   2.564   2.551
 2206SOL    HW118497   1.882   2.526   2.579
 2206SOL    HW218498   1.749   2.490   2.515
 2207SOL     OW18499   4.736   0.612   4.004
 2207SOL    HW118500   4.783   0.535   3.971
 2207SOL    HW218501   4.644   0.590   3.995
 2208SOL     OW18502   4.647   2.157   9.483
 2208SOL    HW118503   4.671   2.091   9.547
 2208SOL    HW218504   4.617   2.232   9.536
 2209SOL     OW18505   0.879   1.268  18.595
 2209SOL    HW118506   0.867   1.361  18.616
 2209SOL    HW218507   0.793   1.238  18.567
 2210SOL     OW18508   0.572   1.423  15.777
 2210SOL    HW118509   0.549   1.376  15.697
 2210SOL    HW218510   0.668   1.416  15.783
 2211SOL     OW18511   3.053   4.405   1.450
 2211SOL    HW118512   3.009   4.477   1.405
 2211SOL    HW218513   3.064   4.436   1.540
 2212SOL     OW18514   3.835   2.760  18.144
 2212SOL    HW118515   3.798   2.677  18.174
 2212SOL    HW218516   3.761   2.821  18.144
 2213SOL     OW18517   4.272   1.758  19.698
 2213SOL    HW118518   4.180   1.762  19.722
 2213SOL    HW218519   4.314   1.711  19.770
 2214SOL     OW18520   0.375   4.695  11.821
 2214SOL    HW118521   0.421   4.620  11.860
 2214SOL    HW218522   0.409   4.771  11.867
 2215SOL     OW18523   1.289   3.391   3.306
 2215SOL    HW118524   1.289   3.435   3.221
 2215SOL    HW218525   1.285   3.298   3.285
 2216SOL     OW18526   1.048   4.579  18.362
 2216SOL    HW118527   1.078   4.634  18.434
 2216SOL    HW218528   0.958   4.608  18.346
 2217SOL     OW18529   2.687   3.287  15.212
 2217SOL    HW118530   2.774   3.290  15.252
 2217SOL    HW218531   2.630   3.255  15.282
 2218SOL     OW18532   2.965   0.719   9.102
 2218SOL    HW118533   2.981   0.812   9.118
 2218SOL    HW218534   2.871   0.708   9.115
 2219SOL     OW18535   2.922   0.106   4.738
 2219SOL    HW118536   2.987   0.081   4.804
 2219SOL    HW218537   2.898   0.024   4.695
 2220SOL     OW18538   3.926   3.782  16.852
 2220SOL    HW118539   3.951   3.788  16.945
 2220SOL    HW218540   3.837   3.748  16.854
 2221SOL     OW18541   3.503   3.658  17.354
 2221SOL    HW118542   3.594   3.638  17.376
 2221SOL    HW218543   3.452   3.590  17.399
 2222SOL     OW18544   2.795   4.437  21.256
 2222SOL    HW118545   2.755   4.424   0.079
 2222SOL    HW218546   2.883   4.401   0.003
 2223SOL     OW18547   1.093   1.915  21.095
 2223SOL    HW118548   1.085   1.824  21.065
 2223SOL    HW218549   1.015   1.929  21.148
 2224SOL     OW18550   3.572   3.053   3.801
 2224SOL    HW118551   3.537   3.041   3.712
 2224SOL    HW218552   3.659   3.089   3.788
 2225SOL     OW18553   1.174   3.415   2.900
 2225SOL    HW118554   1.239   3.459   2.955
 2225SOL    HW218555   1.099   3.400   2.958
 2226SOL     OW18556   3.808   2.124   7.168
 2226SOL    HW118557   3.717   2.114   7.140
 2226SOL    HW218558   3.845   2.186   7.105
 2227SOL     OW18559   3.798   3.833  14.209
 2227SOL    HW118560   3.780   3.741  14.188
 2227SOL    HW218561   3.785   3.879  14.126
 2228SOL     OW18562   1.710   0.948  14.020
 2228SOL    HW118563   1.762   0.928  14.098
 2228SOL    HW218564   1.619   0.937  14.048
 2229SOL     OW18565   3.089   1.519  21.131
 2229SOL    HW118566   3.161   1.514  21.067
 2229SOL    HW218567   3.010   1.508  21.078
 2230SOL     OW18568   3.470   3.961  17.927
 2230SOL    HW118569   3.475   3.905  17.849
 2230SOL    HW218570   3.376   3.966  17.947
 2231SOL     OW18571   0.408   4.214   0.166
 2231SOL    HW118572   0.367   4.217   0.252
 2231SOL    HW218573   0.490   4.167   0.180
 2232SOL     OW18574   4.633   2.685   1.495
 2232SOL    HW118575   4.592   2.615   1.443
 2232SOL    HW218576   4.564   2.750   1.508
 2233SOL     OW18577   1.070   1.497  21.133
 2233SOL    HW118578   1.121   1.545  21.199
 2233SOL    HW218579   1.054   1.562  21.064
 2234SOL     OW18580   1.168   1.278  18.045
 2234SOL    HW118581   1.234   1.347  18.050
 2234SOL    HW218582   1.218   1.198  18.029
 2235SOL     OW18583   2.432   4.780  21.009
 2235SOL    HW118584   2.456   0.064  21.062
 2235SOL    HW218585   2.494   4.711  21.035
 2236SOL     OW18586   0.982   4.241  13.303
 2236SOL    HW118587   1.068   4.201  13.286
 2236SOL    HW218588   0.941   4.247  13.217
 2237SOL     OW18589   2.441   1.313  19.869
 2237SOL    HW118590   2.348   1.329  19.855
 2237SOL    HW218591   2.453   1.320  19.963
 2238SOL     OW18592   3.504   4.294   1.976
 2238SOL    HW118593   3.551   4.350   1.915
 2238SOL    HW218594   3.572   4.255   2.031
 2239SOL     OW18595   2.404   0.267  12.897
 2239SOL    HW118596   2.475   0.330  12.911
 2239SOL    HW218597   2.409   0.209  12.974
 2240SOL     OW18598   2.804   4.342   3.944
 2240SOL    HW118599   2.834   4.255   3.917
 2240SOL    HW218600   2.726   4.358   3.891
 2241SOL     OW18601   2.124   2.142  19.476
 2241SOL    HW118602   2.157   2.230  19.463
 2241SOL    HW218603   2.182   2.104  19.543
 2242SOL     OW18604   3.337   2.161  19.297
 2242SOL    HW118605   3.265   2.123  19.246
 2242SOL    HW218606   3.394   2.202  19.232
 2243SOL     OW18607   3.756   3.296  18.878
 2243SOL    HW118608   3.811   3.251  18.942
 2243SOL    HW218609   3.801   3.286  18.795
 2244SOL     OW18610   3.172   0.821  16.048
 2244SOL    HW118611   3.093   0.779  16.080
 2244SOL    HW218612   3.164   0.912  16.076
 2245SOL     OW18613   1.020   3.453  17.545
 2245SOL    HW118614   1.112   3.444  17.571
 2245SOL    HW218615   1.022   3.519  17.476
 2246SOL     OW18616   2.031   1.725   4.666
 2246SOL    HW118617   2.033   1.761   4.577
 2246SOL    HW218618   2.117   1.687   4.679
 2247SOL     OW18619   4.241   3.364   3.235
 2247SOL    HW118620   4.312   3.428   3.248
 2247SOL    HW218621   4.282   3.294   3.184
 2248SOL     OW18622   0.406   0.027  18.919
 2248SOL    HW118623   0.320   0.065  18.938
 2248SOL    HW218624   0.404   0.011  18.825
 2249SOL     OW18625   1.694   2.552  16.655
 2249SOL    HW118626   1.697   2.485  16.724
 2249SOL    HW218627   1.674   2.503  16.575
 2250SOL     OW18628   4.376   4.319   7.715
 2250SOL    HW118629   4.389   4.240   7.768
 2250SOL    HW218630   4.331   4.287   7.637
 2251SOL     OW18631   3.258   1.513   4.862
 2251SOL    HW118632   3.268   1.557   4.947
 2251SOL    HW218633   3.193   1.565   4.815
 2252SOL     OW18634   1.373   3.411  19.563
 2252SOL    HW118635   1.335   3.399  19.650
 2252SOL    HW218636   1.465   3.386  19.573
 2253SOL     OW18637   2.057   3.065   4.842
 2253SOL    HW118638   2.108   3.139   4.810
 2253SOL    HW218639   1.976   3.103   4.874
 2254SOL     OW18640   4.362   2.225   9.580
 2254SOL    HW118641   4.362   2.277   9.500
 2254SOL    HW218642   4.428   2.157   9.564
 2255SOL     OW18643   0.829   2.927  17.883
 2255SOL    HW118644   0.853   2.954  17.972
 2255SOL    HW218645   0.909   2.889  17.847
 2256SOL     OW18646   2.350   0.869  16.299
 2256SOL    HW118647   2.261   0.898  16.280
 2256SOL    HW218648   2.402   0.950  16.305
 2257SOL     OW18649   0.311   1.520   4.465
 2257SOL    HW118650   0.394   1.514   4.418
 2257SOL    HW218651   0.278   1.430   4.467
 2258SOL     OW18652   0.133   2.653   2.141
 2258SOL    HW118653   0.210   2.630   2.089
 2258SOL    HW218654   0.135   2.592   2.215
 2259SOL     OW18655   1.901   4.322   0.746
 2259SOL    HW118656   1.836   4.364   0.690
 2259SOL    HW218657   1.961   4.279   0.686
 2260SOL     OW18658   1.694   0.893   3.479
 2260SOL    HW118659   1.724   0.898   3.389
 2260SOL    HW218660   1.773   0.876   3.530
 2261SOL     OW18661   2.469   3.391   0.180
 2261SOL    HW118662   2.491   3.309   0.135
 2261SOL    HW218663   2.448   3.452   0.109
 2262SOL     OW18664   0.514   2.996   6.032
 2262SOL    HW118665   0.449   2.955   5.975
 2262SOL    HW218666   0.543   3.074   5.985
 2263SOL     OW18667   4.135   1.234   5.194
 2263SOL    HW118668   4.120   1.241   5.100
 2263SOL    HW218669   4.053   1.263   5.233
 2264SOL     OW18670   2.618   4.233   1.513
 2264SOL    HW118671   2.614   4.245   1.608
 2264SOL    HW218672   2.712   4.230   1.494
 2265SOL     OW18673   4.540   1.690  17.226
 2265SOL    HW118674   4.538   1.704  17.131
 2265SOL    HW218675   4.472   1.624  17.241
 2266SOL     OW18676   3.759   3.323  14.196
 2266SOL    HW118677   3.720   3.310  14.282
 2266SOL    HW218678   3.695   3.288  14.134
 2267SOL     OW18679   4.042   1.724   0.591
 2267SOL    HW118680   4.114   1.706   0.652
 2267SOL    HW218681   4.086   1.743   0.508
 2268SOL     OW18682   1.210   1.469   3.723
 2268SOL    HW118683   1.148   1.398   3.737
 2268SOL    HW218684   1.262   1.441   3.647
 2269SOL     OW18685   4.124   3.828  16.511
 2269SOL    HW118686   4.068   3.811  16.435
 2269SOL    HW218687   4.113   3.750  16.566
 2270SOL     OW18688   3.578   0.734   1.441
 2270SOL    HW118689   3.546   0.658   1.392
 2270SOL    HW218690   3.651   0.767   1.388
 2271SOL     OW18691   4.734   4.424  17.486
 2271SOL    HW118692   4.752   4.409  17.578
 2271SOL    HW218693   4.708   4.339  17.452
 2272SOL     OW18694   3.277   0.428   6.986
 2272SOL    HW118695   3.257   0.460   7.074
 2272SOL    HW218696   3.215   0.472   6.929
 2273SOL     OW18697   4.002   3.831   2.224
 2273SOL    HW118698   4.054   3.864   2.298
 2273SOL    HW218699   4.062   3.836   2.149
 2274SOL     OW18700   0.031   4.485   0.420
 2274SOL    HW118701   4.761   4.415   0.395
 2274SOL    HW218702   0.095   4.442   0.477
 2275SOL     OW18703   0.276   2.580   6.852
 2275SOL    HW118704   0.205   2.645   6.849
 2275SOL    HW218705   0.328   2.598   6.774
 2276SOL     OW18706   1.334   1.814  16.583
 2276SOL    HW118707   1.318   1.894  16.532
 2276SOL    HW218708   1.364   1.846  16.668
 2277SOL     OW18709   3.108   4.450   8.269
 2277SOL    HW118710   3.177   4.514   8.282
 2277SOL    HW218711   3.049   4.463   8.343
 2278SOL     OW18712   0.539   3.563   1.179
 2278SOL    HW118713   0.530   3.531   1.089
 2278SOL    HW218714   0.450   3.562   1.214
 2279SOL     OW18715   2.873   3.647  15.747
 2279SOL    HW118716   2.825   3.613  15.672
 2279SOL    HW218717   2.840   3.597  15.822
 2280SOL     OW18718   0.662   3.936  16.774
 2280SOL    HW118719   0.584   3.946  16.829
 2280SOL    HW218720   0.699   3.852  16.799
 2281SOL     OW18721   4.214   3.888   0.605
 2281SOL    HW118722   4.147   3.904   0.671
 2281SOL    HW218723   4.173   3.915   0.523
 2282SOL     OW18724   2.636   3.630   1.931
 2282SOL    HW118725   2.701   3.565   1.960
 2282SOL    HW218726   2.594   3.660   2.012
 2283SOL     OW18727   4.539   0.128   3.036
 2283SOL    HW118728   4.463   0.162   2.988
 2283SOL    HW218729   4.540   0.177   3.118
 2284SOL     OW18730   3.625   2.692   7.133
 2284SOL    HW118731   3.646   2.732   7.217
 2284SOL    HW218732   3.589   2.764   7.081
 2285SOL     OW18733   3.080   4.781  16.453
 2285SOL    HW118734   3.046   0.053  16.389
 2285SOL    HW218735   3.175   4.789  16.445
 2286SOL     OW18736   0.069   4.388   2.805
 2286SOL    HW118737   0.063   4.392   2.709
 2286SOL    HW218738   0.044   4.298   2.827
 2287SOL     OW18739   3.513   4.562   1.372
 2287SOL    HW118740   3.497   4.467   1.367
 2287SOL    HW218741   3.554   4.574   1.458
 2288SOL     OW18742   1.174   3.675   1.825
 2288SOL    HW118743   1.081   3.677   1.804
 2288SOL    HW218744   1.213   3.745   1.772
 2289SOL     OW18745   1.586   1.503  17.029
 2289SOL    HW118746   1.658   1.505  16.966
 2289SOL    HW218747   1.513   1.463  16.981
 2290SOL     OW18748   0.611   4.741  17.466
 2290SOL    HW118749   0.539   4.682  17.490
 2290SOL    HW218750   0.613   4.739  17.371
 2291SOL     OW18751   4.511   2.149   5.179
 2291SOL    HW118752   4.418   2.172   5.183
 2291SOL    HW218753   4.539   2.144   5.270
 2292SOL     OW18754   1.498   0.236  15.653
 2292SOL    HW118755   1.534   0.176  15.588
 2292SOL    HW218756   1.410   0.256  15.622
 2293SOL     OW18757   4.530   2.292  17.552
 2293SOL    HW118758   4.563   2.347  17.622
 2293SOL    HW218759   4.608   2.261  17.506
 2294SOL     OW18760   4.648   0.252   6.089
 2294SOL    HW118761   4.567   0.302   6.076
 2294SOL    HW218762   4.637   0.174   6.036
 2295SOL     OW18763   2.376   0.181   6.220
 2295SOL    HW118764   2.299   0.195   6.164
 2295SOL    HW218765   2.358   0.097   6.263
 2296SOL     OW18766   0.146   3.385   5.646
 2296SOL    HW118767   0.156   3.429   5.731
 2296SOL    HW218768   0.084   3.440   5.598
 2297SOL     OW18769   4.552   1.980   7.705
 2297SOL    HW118770   4.495   2.005   7.633
 2297SOL    HW218771   4.635   1.955   7.663
 2298SOL     OW18772   1.433   3.607  18.416
 2298SOL    HW118773   1.422   3.546  18.343
 2298SOL    HW218774   1.344   3.637  18.435
 2299SOL     OW18775   2.324   0.090   2.754
 2299SOL    HW118776   2.307   0.175   2.795
 2299SOL    HW218777   2.314   0.027   2.825
 2300SOL     OW18778   1.475   4.695  19.877
 2300SOL    HW118779   1.561   4.679  19.916
 2300SOL    HW218780   1.460   4.620  19.821
 2301SOL     OW18781   2.978   2.313  14.841
 2301SOL    HW118782   2.951   2.377  14.776
 2301SOL    HW218783   3.059   2.276  14.807
 2302SOL     OW18784   1.463   4.326  18.492
 2302SOL    HW118785   1.432   4.246  18.450
 2302SOL    HW218786   1.416   4.397  18.448
 2303SOL     OW18787   1.922   4.178  21.131
 2303SOL    HW118788   1.961   4.221  21.207
 2303SOL    HW218789   1.987   4.113  21.105
 2304SOL     OW18790   1.846   3.830   0.048
 2304SOL    HW118791   1.893   3.880  21.244
 2304SOL    HW218792   1.904   3.756   0.069
 2305SOL     OW18793   4.726   1.310  17.319
 2305SOL    HW118794   4.655   1.373  17.315
 2305SOL    HW218795   4.698   1.238  17.263
 2306SOL     OW18796   4.306   1.328  17.725
 2306SOL    HW118797   4.335   1.350  17.637
 2306SOL    HW218798   4.311   1.233  17.730
 2307SOL     OW18799   0.005   1.217  17.607
 2307SOL    HW118800   4.785   1.250  17.517
 2307SOL    HW218801   4.759   1.286  17.662
 2308SOL     OW18802   1.501   0.718   8.799
 2308SOL    HW118803   1.531   0.808   8.785
 2308SOL    HW218804   1.523   0.699   8.890
 2309SOL     OW18805   2.439   2.518   4.798
 2309SOL    HW118806   2.456   2.534   4.705
 2309SOL    HW218807   2.514   2.558   4.843
 2310SOL     OW18808   2.896   1.272  18.495
 2310SOL    HW118809   2.921   1.306  18.409
 2310SOL    HW218810   2.950   1.194  18.507
 2311SOL     OW18811   3.958   1.581   5.555
 2311SOL    HW118812   3.999   1.507   5.511
 2311SOL    HW218813   3.984   1.573   5.646
 2312SOL     OW18814   1.913   3.861  20.044
 2312SOL    HW118815   1.916   3.905  20.129
 2312SOL    HW218816   1.915   3.931  19.980
 2313SOL     OW18817   0.281   0.976   2.993
 2313SOL    HW118818   0.361   0.957   3.042
 2313SOL    HW218819   0.310   0.983   2.902
 2314SOL     OW18820   3.800   1.920  20.099
 2314SOL    HW118821   3.823   1.967  20.019
 2314SOL    HW218822   3.744   1.848  20.070
 2315SOL     OW18823   1.827   4.217   2.198
 2315SOL    HW118824   1.742   4.250   2.229
 2315SOL    HW218825   1.861   4.166   2.271
 2316SOL     OW18826   1.093   2.696  19.242
 2316SOL    HW118827   1.085   2.791  19.232
 2316SOL    HW218828   1.067   2.679  19.332
 2317SOL     OW18829   0.469   0.297   5.810
 2317SOL    HW118830   0.500   0.376   5.853
 2317SOL    HW218831   0.383   0.321   5.774
 2318SOL     OW18832   3.498   2.049  14.315
 2318SOL    HW118833   3.485   2.022  14.406
 2318SOL    HW218834   3.590   2.027  14.297
 2319SOL     OW18835   3.639   0.960   5.435
 2319SOL    HW118836   3.562   0.932   5.484
 2319SOL    HW218837   3.682   1.024   5.492
 2320SOL     OW18838   1.299   1.406  19.739
 2320SOL    HW118839   1.259   1.439  19.820
 2320SOL    HW218840   1.393   1.408  19.757
 2321SOL     OW18841   1.705   0.460  20.350
 2321SOL    HW118842   1.669   0.426  20.432
 2321SOL    HW218843   1.628   0.491  20.302
 2322SOL     OW18844   3.667   2.590   6.177
 2322SOL    HW118845   3.705   2.560   6.260
 2322SOL    HW218846   3.741   2.589   6.115
 2323SOL     OW18847   1.411   2.277   1.913
 2323SOL    HW118848   1.481   2.290   1.849
 2323SOL    HW218849   1.440   2.203   1.965
 2324SOL     OW18850   2.657   1.103   4.239
 2324SOL    HW118851   2.725   1.052   4.195
 2324SOL    HW218852   2.610   1.040   4.292
 2325SOL     OW18853   0.999   1.143  19.089
 2325SOL    HW118854   1.020   1.163  19.180
 2325SOL    HW218855   1.039   1.058  19.073
 2326SOL     OW18856   3.145   0.068   0.318
 2326SOL    HW118857   3.132   4.776   0.271
 2326SOL    HW218858   3.146   0.043   0.410
 2327SOL     OW18859   1.872   3.349   3.027
 2327SOL    HW118860   1.929   3.424   3.045
 2327SOL    HW218861   1.903   3.281   3.087
 2328SOL     OW18862   1.360   4.442   5.175
 2328SOL    HW118863   1.407   4.471   5.097
 2328SOL    HW218864   1.373   4.347   5.176
 2329SOL     OW18865   0.912   4.425   5.818
 2329SOL    HW118866   0.986   4.380   5.858
 2329SOL    HW218867   0.842   4.419   5.883
 2330SOL     OW18868   4.196   4.238  14.192
 2330SOL    HW118869   4.221   4.218  14.102
 2330SOL    HW218870   4.125   4.177  14.211
 2331SOL     OW18871   1.962   3.823  15.890
 2331SOL    HW118872   1.898   3.763  15.928
 2331SOL    HW218873   1.918   3.860  15.814
 2332SOL     OW18874   2.827   1.434  20.037
 2332SOL    HW118875   2.863   1.510  20.083
 2332SOL    HW218876   2.830   1.458  19.945
 2333SOL     OW18877   0.430   2.924   3.646
 2333SOL    HW118878   0.373   2.999   3.663
 2333SOL    HW218879   0.391   2.881   3.570
 2334SOL     OW18880   4.206   1.250   2.048
 2334SOL    HW118881   4.162   1.212   2.124
 2334SOL    HW218882   4.140   1.246   1.978
 2335SOL     OW18883   0.344   0.178   3.824
 2335SOL    HW118884   0.409   0.108   3.835
 2335SOL    HW218885   0.260   0.133   3.830
 2336SOL     OW18886   0.666   0.860  18.220
 2336SOL    HW118887   0.675   0.887  18.128
 2336SOL    HW218888   0.708   0.930  18.269
 2337SOL     OW18889   1.975   2.952   4.396
 2337SOL    HW118890   2.045   2.948   4.461
 2337SOL    HW218891   1.965   2.862   4.366
 2338SOL     OW18892   0.697   0.191  15.797
 2338SOL    HW118893   0.700   0.117  15.736
 2338SOL    HW218894   0.734   0.157  15.878
 2339SOL     OW18895   2.693   0.994  13.315
 2339SOL    HW118896   2.712   1.050  13.240
 2339SOL    HW218897   2.694   1.054  13.391
 2340SOL     OW18898   2.459   0.140   9.012
 2340SOL    HW118899   2.421   0.222   9.041
 2340SOL    HW218900   2.384   0.084   8.992
 2341SOL     OW18901   4.341   2.382  19.772
 2341SOL    HW118902   4.425   2.424  19.754
 2341SOL    HW218903   4.340   2.369  19.867
 2342SOL     OW18904   4.538   2.127   2.261
 2342SOL    HW118905   4.520   2.217   2.232
 2342SOL    HW218906   4.634   2.124   2.269
 2343SOL     OW18907   0.607   0.581   0.272
 2343SOL    HW118908   0.652   0.649   0.322
 2343SOL    HW218909   0.519   0.579   0.310
 2344SOL     OW18910   3.469   0.719  15.496
 2344SOL    HW118911   3.452   0.748  15.586
 2344SOL    HW218912   3.482   0.800  15.446
 2345SOL     OW18913   2.569   2.485  20.870
 2345SOL    HW118914   2.485   2.462  20.911
 2345SOL    HW218915   2.569   2.580  20.867
 2346SOL     OW18916   4.308   0.087  15.414
 2346SOL    HW118917   4.239   0.147  15.441
 2346SOL    HW218918   4.265   0.002  15.406
 2347SOL     OW18919   2.366   0.218  19.528
 2347SOL    HW118920   2.414   0.152  19.479
 2347SOL    HW218921   2.372   0.297  19.474
 2348SOL     OW18922   3.091   4.129  19.495
 2348SOL    HW118923   3.161   4.067  19.514
 2348SOL    HW218924   3.011   4.082  19.516
 2349SOL     OW18925   1.882   3.258  13.510
 2349SOL    HW118926   1.904   3.296  13.595
 2349SOL    HW218927   1.787   3.246  13.513
 2350SOL     OW18928   2.116   1.653   2.498
 2350SOL    HW118929   2.090   1.702   2.576
 2350SOL    HW218930   2.210   1.642   2.507
 2351SOL     OW18931   2.283   4.415   5.866
 2351SOL    HW118932   2.332   4.493   5.840
 2351SOL    HW218933   2.336   4.376   5.936
 2352SOL     OW18934   2.051   0.749  15.947
 2352SOL    HW118935   2.004   0.666  15.949
 2352SOL    HW218936   2.133   0.732  15.993
 2353SOL     OW18937   0.372   0.384   4.139
 2353SOL    HW118938   0.306   0.450   4.161
 2353SOL    HW218939   0.335   0.302   4.173
 2354SOL     OW18940   3.482   2.362  20.999
 2354SOL    HW118941   3.483   2.267  21.009
 2354SOL    HW218942   3.389   2.383  20.986
 2355SOL     OW18943   2.284   0.396   4.521
 2355SOL    HW118944   2.272   0.362   4.432
 2355SOL    HW218945   2.277   0.318   4.577
 2356SOL     OW18946   3.717   1.818  17.084
 2356SOL    HW118947   3.752   1.748  17.139
 2356SOL    HW218948   3.739   1.792  16.995
 2357SOL     OW18949   2.073   3.330  17.544
 2357SOL    HW118950   2.017   3.402  17.516
 2357SOL    HW218951   2.013   3.264  17.577
 2358SOL     OW18952   2.679   2.376   3.046
 2358SOL    HW118953   2.761   2.408   3.009
 2358SOL    HW218954   2.706   2.314   3.113
 2359SOL     OW18955   0.613   3.625  17.826
 2359SOL    HW118956   0.560   3.620  17.747
 2359SOL    HW218957   0.704   3.621  17.795
 2360SOL     OW18958   0.196   4.042   2.966
 2360SOL    HW118959   0.266   3.978   2.960
 2360SOL    HW218960   0.235   4.117   3.010
 2361SOL     OW18961   3.218   2.783   1.862
 2361SOL    HW118962   3.239   2.803   1.953
 2361SOL    HW218963   3.134   2.827   1.847
 2362SOL     OW18964   2.888   2.977  15.599
 2362SOL    HW118965   2.966   2.923  15.613
 2362SOL    HW218966   2.869   2.967  15.506
 2363SOL     OW18967   4.094   0.972  17.298
 2363SOL    HW118968   4.034   0.972  17.223
 2363SOL    HW218969   4.153   0.898  17.281
 2364SOL     OW18970   2.914   3.369  12.846
 2364SOL    HW118971   2.962   3.328  12.918
 2364SOL    HW218972   2.974   3.436  12.812
 2365SOL     OW18973   2.224   1.544  18.254
 2365SOL    HW118974   2.155   1.482  18.229
 2365SOL    HW218975   2.215   1.553  18.349
 2366SOL     OW18976   1.038   3.532  16.940
 2366SOL    HW118977   0.979   3.490  16.878
 2366SOL    HW218978   1.114   3.474  16.945
 2367SOL     OW18979   4.754   0.750   3.250
 2367SOL    HW118980   4.708   0.704   3.321
 2367SOL    HW218981   0.044   0.701   3.238
 2368SOL     OW18982   3.210   1.311   5.518
 2368SOL    HW118983   3.298   1.338   5.491
 2368SOL    HW218984   3.196   1.228   5.473
 2369SOL     OW18985   4.706   4.669   4.723
 2369SOL    HW118986   4.720   4.602   4.656
 2369SOL    HW218987   0.003   4.693   4.753
 2370SOL     OW18988   4.349   0.388   1.806
 2370SOL    HW118989   4.306   0.398   1.721
 2370SOL    HW218990   4.332   0.470   1.851
 2371SOL     OW18991   3.654   0.382  21.031
 2371SOL    HW118992   3.729   0.431  21.065
 2371SOL    HW218993   3.641   0.311  21.095
 2372SOL     OW18994   4.164   4.398  16.227
 2372SOL    HW118995   4.102   4.325  16.227
 2372SOL    HW218996   4.193   4.404  16.318
 2373SOL     OW18997   2.066   1.331   0.843
 2373SOL    HW118998   2.016   1.251   0.853
 2373SOL    HW218999   2.151   1.302   0.808
 2374SOL     OW19000   2.056   3.897   6.848
 2374SOL    HW119001   2.069   3.805   6.870
 2374SOL    HW219002   2.097   3.908   6.762
 2375SOL     OW19003   0.277   1.897  18.449
 2375SOL    HW119004   0.215   1.824  18.446
 2375SOL    HW219005   0.362   1.854  18.461
 2376SOL     OW19006   0.457   0.283  18.370
 2376SOL    HW119007   0.401   0.252  18.441
 2376SOL    HW219008   0.539   0.235  18.381
 2377SOL     OW19009   3.009   1.744  21.244
 2377SOL    HW119010   3.052   1.670  21.201
 2377SOL    HW219011   3.001   1.811  21.176
 2378SOL     OW19012   3.015   4.304  21.263
 2378SOL    HW119013   3.075   4.327  21.192
 2378SOL    HW219014   3.059   4.233   0.047
 2379SOL     OW19015   4.201   4.055   0.178
 2379SOL    HW119016   4.292   4.083   0.169
 2379SOL    HW219017   4.151   4.119   0.127
 2380SOL     OW19018   2.552   2.910   7.276
 2380SOL    HW119019   2.614   2.975   7.307
 2380SOL    HW219020   2.519   2.868   7.356
 2381SOL     OW19021   3.412   4.046  20.279
 2381SOL    HW119022   3.361   3.978  20.235
 2381SOL    HW219023   3.367   4.060  20.362
 2382SOL     OW19024   0.369   2.827  15.238
 2382SOL    HW119025   0.437   2.820  15.305
 2382SOL    HW219026   0.352   2.736  15.212
 2383SOL     OW19027   4.198   2.717   0.443
 2383SOL    HW119028   4.257   2.689   0.513
 2383SOL    HW219029   4.249   2.706   0.362
 2384SOL     OW19030   2.708   2.530  14.452
 2384SOL    HW119031   2.621   2.555  14.421
 2384SOL    HW219032   2.732   2.454  14.398
 2385SOL     OW19033   3.190   2.736  19.991
 2385SOL    HW119034   3.284   2.721  19.979
 2385SOL    HW219035   3.178   2.827  19.967
 2386SOL     OW19036   2.350   4.117   5.302
 2386SOL    HW119037   2.425   4.072   5.264
 2386SOL    HW219038   2.347   4.202   5.257
 2387SOL     OW19039   0.283   3.241  13.822
 2387SOL    HW119040   0.200   3.264  13.864
 2387SOL    HW219041   0.317   3.325  13.791
 2388SOL     OW19042   3.982   2.575   0.463
 2388SOL    HW119043   4.062   2.628   0.474
 2388SOL    HW219044   4.001   2.520   0.387
 2389SOL     OW19045   1.140   0.469  18.512
 2389SOL    HW119046   1.174   0.409  18.579
 2389SOL    HW219047   1.050   0.439  18.498
 2390SOL     OW19048   2.376   3.057  16.019
 2390SOL    HW119049   2.389   3.112  15.942
 2390SOL    HW219050   2.430   2.979  16.002
 2391SOL     OW19051   2.609   2.216   1.718
 2391SOL    HW119052   2.662   2.181   1.646
 2391SOL    HW219053   2.546   2.147   1.737
 2392SOL     OW19054   2.318   3.018   7.153
 2392SOL    HW119055   2.240   2.963   7.162
 2392SOL    HW219056   2.387   2.971   7.199
 2393SOL     OW19057   4.479   1.795  18.427
 2393SOL    HW119058   4.499   1.868  18.485
 2393SOL    HW219059   4.408   1.827  18.372
 2394SOL     OW19060   0.126   2.519  15.673
 2394SOL    HW119061   0.160   2.573  15.602
 2394SOL    HW219062   0.121   2.579  15.748
 2395SOL     OW19063   0.455   1.809  17.081
 2395SOL    HW119064   0.378   1.754  17.092
 2395SOL    HW219065   0.421   1.899  17.086
 2396SOL     OW19066   1.820   1.927  19.311
 2396SOL    HW119067   1.811   1.984  19.387
 2396SOL    HW219068   1.907   1.888  19.321
 2397SOL     OW19069   1.689   2.198   3.576
 2397SOL    HW119070   1.630   2.259   3.619
 2397SOL    HW219071   1.732   2.152   3.649
 2398SOL     OW19072   2.671   3.515  18.040
 2398SOL    HW119073   2.765   3.498  18.035
 2398SOL    HW219074   2.659   3.598  17.993
 2399SOL     OW19075   4.044   0.402   2.341
 2399SOL    HW119076   4.110   0.343   2.305
 2399SOL    HW219077   4.094   0.467   2.390
 2400SOL     OW19078   0.418   2.548  15.879
 2400SOL    HW119079   0.419   2.557  15.975
 2400SOL    HW219080   0.353   2.613  15.850
 2401SOL     OW19081   0.759   3.214  16.853
 2401SOL    HW119082   0.703   3.168  16.791
 2401SOL    HW219083   0.697   3.265  16.906
 2402SOL     OW19084   2.130   3.447   3.412
 2402SOL    HW119085   2.200   3.511   3.426
 2402SOL    HW219086   2.151   3.407   3.328
 2403SOL     OW19087   3.213   3.636  17.429
 2403SOL    HW119088   3.221   3.707  17.364
 2403SOL    HW219089   3.163   3.569  17.384
 2404SOL     OW19090   2.817   1.491  17.842
 2404SOL    HW119091   2.826   1.579  17.878
 2404SOL    HW219092   2.730   1.491  17.801
 2405SOL     OW19093   2.146   0.996   5.340
 2405SOL    HW119094   2.096   1.056   5.394
 2405SOL    HW219095   2.129   1.024   5.251
 2406SOL     OW19096   2.340   1.774  19.714
 2406SOL    HW119097   2.341   1.726  19.631
 2406SOL    HW219098   2.313   1.710  19.779
 2407SOL     OW19099   0.705   1.376   4.207
 2407SOL    HW119100   0.759   1.298   4.218
 2407SOL    HW219101   0.764   1.441   4.168
 2408SOL     OW19102   0.554   4.413   4.411
 2408SOL    HW119103   0.638   4.397   4.454
 2408SOL    HW219104   0.519   4.326   4.392
 2409SOL     OW19105   3.196   4.597   6.050
 2409SOL    HW119106   3.264   4.530   6.048
 2409SOL    HW219107   3.239   4.676   6.019
 2410SOL     OW19108   2.168   3.222   0.425
 2410SOL    HW119109   2.248   3.176   0.400
 2410SOL    HW219110   2.116   3.225   0.344
 2411SOL     OW19111   3.813   3.774  19.745
 2411SOL    HW119112   3.865   3.769  19.665
 2411SOL    HW219113   3.732   3.817  19.718
 2412SOL     OW19114   3.751   1.585   2.103
 2412SOL    HW119115   3.764   1.508   2.047
 2412SOL    HW219116   3.786   1.658   2.051
 2413SOL     OW19117   3.165   0.983   0.624
 2413SOL    HW119118   3.209   0.959   0.542
 2413SOL    HW219119   3.085   1.028   0.596
 2414SOL     OW19120   0.298   3.663  20.673
 2414SOL    HW119121   0.219   3.629  20.632
 2414SOL    HW219122   0.321   3.740  20.621
 2415SOL     OW19123   4.122   0.372  19.892
 2415SOL    HW119124   4.186   0.338  19.955
 2415SOL    HW219125   4.039   0.334  19.919
 2416SOL     OW19126   0.651   0.130   1.123
 2416SOL    HW119127   0.659   0.205   1.064
 2416SOL    HW219128   0.569   0.088   1.097
 2417SOL     OW19129   4.770   0.892   6.470
 2417SOL    HW119130   0.025   0.819   6.511
 2417SOL    HW219131   4.690   0.853   6.435
 2418SOL     OW19132   1.104   0.668  20.565
 2418SOL    HW119133   1.022   0.629  20.535
 2418SOL    HW219134   1.104   0.653  20.660
 2419SOL     OW19135   3.031   1.830  18.480
 2419SOL    HW119136   3.031   1.789  18.567
 2419SOL    HW219137   3.120   1.815  18.447
 2420SOL     OW19138   3.226   0.509   5.901
 2420SOL    HW119139   3.169   0.491   5.826
 2420SOL    HW219140   3.235   0.425   5.945
 2421SOL     OW19141   1.815   0.618  15.751
 2421SOL    HW119142   1.840   0.541  15.802
 2421SOL    HW219143   1.766   0.673  15.811
 2422SOL     OW19144   0.719   3.356   4.091
 2422SOL    HW119145   0.749   3.337   4.180
 2422SOL    HW219146   0.733   3.274   4.043
 2423SOL     OW19147   1.729   2.861   6.280
 2423SOL    HW119148   1.728   2.869   6.185
 2423SOL    HW219149   1.703   2.947   6.312
 2424SOL     OW19150   0.067   2.821   3.659
 2424SOL    HW119151   0.111   2.803   3.575
 2424SOL    HW219152   0.064   2.736   3.703
 2425SOL     OW19153   3.746   0.732   8.187
 2425SOL    HW119154   3.818   0.766   8.240
 2425SOL    HW219155   3.680   0.706   8.251
 2426SOL     OW19156   0.098   4.629  13.925
 2426SOL    HW119157   0.136   4.592  13.844
 2426SOL    HW219158   0.171   4.633  13.986
 2427SOL     OW19159   2.085   3.787   3.140
 2427SOL    HW119160   2.141   3.797   3.063
 2427SOL    HW219161   2.005   3.833   3.116
 2428SOL     OW19162   2.278   3.406   1.178
 2428SOL    HW119163   2.225   3.463   1.122
 2428SOL    HW219164   2.214   3.361   1.233
 2429SOL     OW19165   3.665   2.381  17.791
 2429SOL    HW119166   3.672   2.459  17.736
 2429SOL    HW219167   3.720   2.316  17.747
 2430SOL     OW19168   4.121   2.278   4.612
 2430SOL    HW119169   4.126   2.324   4.529
 2430SOL    HW219170   4.031   2.245   4.617
 2431SOL     OW19171   2.640   0.055   5.616
 2431SOL    HW119172   2.553   0.019   5.598
 2431SOL    HW219173   2.689   0.041   5.534
 2432SOL     OW19174   2.083   0.942   1.377
 2432SOL    HW119175   2.039   1.015   1.333
 2432SOL    HW219176   2.165   0.931   1.329
 2433SOL     OW19177   1.616   1.211   6.632
 2433SOL    HW119178   1.588   1.135   6.683
 2433SOL    HW219179   1.700   1.236   6.672
 2434SOL     OW19180   0.523   3.218   5.849
 2434SOL    HW119181   0.532   3.161   5.773
 2434SOL    HW219182   0.462   3.287   5.821
 2435SOL     OW19183   0.041   1.553   5.444
 2435SOL    HW119184   4.780   1.497   5.387
 2435SOL    HW219185   0.132   1.528   5.426
 2436SOL     OW19186   4.376   0.769   5.302
 2436SOL    HW119187   4.315   0.843   5.296
 2436SOL    HW219188   4.320   0.692   5.310
 2437SOL     OW19189   1.285   4.417   3.908
 2437SOL    HW119190   1.264   4.405   4.001
 2437SOL    HW219191   1.204   4.397   3.862
 2438SOL     OW19192   4.186   4.475   5.709
 2438SOL    HW119193   4.212   4.545   5.769
 2438SOL    HW219194   4.094   4.493   5.689
 2439SOL     OW19195   3.492   1.230  17.088
 2439SOL    HW119196   3.468   1.308  17.037
 2439SOL    HW219197   3.466   1.251  17.177
 2440SOL     OW19198   3.442   0.928  17.457
 2440SOL    HW119199   3.382   0.981  17.405
 2440SOL    HW219200   3.523   0.927  17.406
 2441SOL     OW19201   1.373   1.446   5.124
 2441SOL    HW119202   1.390   1.453   5.030
 2441SOL    HW219203   1.304   1.510   5.141
 2442SOL     OW19204   1.641   3.009   3.325
 2442SOL    HW119205   1.697   2.993   3.401
 2442SOL    HW219206   1.553   3.015   3.362
 2443SOL     OW19207   3.812   0.777   4.701
 2443SOL    HW119208   3.893   0.737   4.671
 2443SOL    HW219209   3.745   0.712   4.683
 2444SOL     OW19210   2.442   0.558   1.163
 2444SOL    HW119211   2.435   0.502   1.240
 2444SOL    HW219212   2.363   0.539   1.113
 2445SOL     OW19213   0.356   2.018  14.501
 2445SOL    HW119214   0.280   1.962  14.490
 2445SOL    HW219215   0.424   1.961  14.538
 2446SOL     OW19216   1.099   2.921  15.401
 2446SOL    HW119217   1.144   3.005  15.405
 2446SOL    HW219218   1.164   2.857  15.428
 2447SOL     OW19219   1.556   3.318  17.769
 2447SOL    HW119220   1.548   3.239  17.823
 2447SOL    HW219221   1.524   3.291  17.683
 2448SOL     OW19222   2.273   4.361   1.233
 2448SOL    HW119223   2.358   4.373   1.275
 2448SOL    HW219224   2.292   4.312   1.153
 2449SOL     OW19225   4.334   1.922   3.311
 2449SOL    HW119226   4.316   1.834   3.279
 2449SOL    HW219227   4.259   1.944   3.367
 2450SOL     OW19228   3.537   4.166   0.593
 2450SOL    HW119229   3.497   4.194   0.511
 2450SOL    HW219230   3.531   4.243   0.650
 2451SOL     OW19231   4.408   4.619   5.216
 2451SOL    HW119232   4.476   4.685   5.203
 2451SOL    HW219233   4.345   4.635   5.145
 2452SOL     OW19234   1.485   2.355  20.438
 2452SOL    HW119235   1.392   2.341  20.419
 2452SOL    HW219236   1.529   2.278  20.402
 2453SOL     OW19237   2.110   3.265  20.823
 2453SOL    HW119238   2.183   3.273  20.761
 2453SOL    HW219239   2.037   3.237  20.769
 2454SOL     OW19240   0.714   0.432   7.115
 2454SOL    HW119241   0.771   0.493   7.068
 2454SOL    HW219242   0.650   0.403   7.051
 2455SOL     OW19243   3.060   4.537  19.701
 2455SOL    HW119244   3.067   4.612  19.760
 2455SOL    HW219245   3.009   4.570  19.627
 2456SOL     OW19246   0.485   2.906   2.939
 2456SOL    HW119247   0.499   2.845   3.011
 2456SOL    HW219248   0.402   2.879   2.900
 2457SOL     OW19249   0.012   2.406  20.592
 2457SOL    HW119250   0.047   2.471  20.652
 2457SOL    HW219251   0.090   2.370  20.549
 2458SOL     OW19252   0.093   0.258  12.589
 2458SOL    HW119253   0.120   0.348  12.607
 2458SOL    HW219254   0.038   0.235  12.664
 2459SOL     OW19255   2.868   2.578  16.352
 2459SOL    HW119256   2.940   2.525  16.386
 2459SOL    HW219257   2.800   2.572  16.418
 2460SOL     OW19258   2.727   4.311   7.566
 2460SOL    HW119259   2.704   4.388   7.618
 2460SOL    HW219260   2.718   4.339   7.475
 2461SOL     OW19261   1.144   4.219   3.586
 2461SOL    HW119262   1.137   4.154   3.516
 2461SOL    HW219263   1.053   4.235   3.613
 2462SOL     OW19264   2.705   3.457  19.325
 2462SOL    HW119265   2.781   3.502  19.288
 2462SOL    HW219266   2.727   3.364  19.319
 2463SOL     OW19267   3.448   2.739  19.726
 2463SOL    HW119268   3.396   2.679  19.672
 2463SOL    HW219269   3.435   2.825  19.685
 2464SOL     OW19270   0.615   1.544  19.645
 2464SOL    HW119271   0.544   1.503  19.696
 2464SOL    HW219272   0.621   1.490  19.566
 2465SOL     OW19273   4.472   1.572   1.673
 2465SOL    HW119274   4.418   1.575   1.594
 2465SOL    HW219275   4.432   1.503   1.727
 2466SOL     OW19276   4.158   0.147   0.085
 2466SOL    HW119277   4.208   0.216   0.041
 2466SOL    HW219278   4.190   0.149   0.176
 2467SOL     OW19279   1.958   4.364   1.003
 2467SOL    HW119280   1.930   4.336   0.916
 2467SOL    HW219281   2.007   4.290   1.037
 2468SOL     OW19282   1.865   1.966   6.029
 2468SOL    HW119283   1.893   1.985   6.119
 2468SOL    HW219284   1.878   1.872   6.019
 2469SOL     OW19285   4.768   0.876   2.520
 2469SOL    HW119286   4.716   0.860   2.441
 2469SOL    HW219287   0.028   0.954   2.499
 2470SOL     OW19288   3.615   4.496  19.935
 2470SOL    HW119289   3.631   4.590  19.941
 2470SOL    HW219290   3.533   4.483  19.981
 2471SOL     OW19291   4.603   3.655  17.697
 2471SOL    HW119292   4.562   3.637  17.612
 2471SOL    HW219293   4.673   3.590  17.703
 2472SOL     OW19294   3.932   0.964  17.062
 2472SOL    HW119295   3.868   1.025  17.097
 2472SOL    HW219296   3.953   0.998  16.975
 2473SOL     OW19297   3.695   4.389  20.273
 2473SOL    HW119298   3.649   4.473  20.271
 2473SOL    HW219299   3.646   4.333  20.213
 2474SOL     OW19300   1.144   3.623  15.765
 2474SOL    HW119301   1.084   3.640  15.837
 2474SOL    HW219302   1.088   3.611  15.688
 2475SOL     OW19303   3.815   2.280   0.656
 2475SOL    HW119304   3.895   2.265   0.606
 2475SOL    HW219305   3.824   2.370   0.689
 2476SOL     OW19306   1.821   4.221   3.622
 2476SOL    HW119307   1.900   4.184   3.583
 2476SOL    HW219308   1.753   4.155   3.608
 2477SOL     OW19309   2.638   4.017   2.516
 2477SOL    HW119310   2.725   3.992   2.547
 2477SOL    HW219311   2.603   4.073   2.586
 2478SOL     OW19312   4.226   2.318  15.122
 2478SOL    HW119313   4.225   2.358  15.035
 2478SOL    HW219314   4.170   2.241  15.114
 2479SOL     OW19315   3.120   3.940  20.415
 2479SOL    HW119316   3.202   3.925  20.461
 2479SOL    HW219317   3.080   3.852  20.408
 2480SOL     OW19318   4.529   3.251   7.215
 2480SOL    HW119319   4.616   3.290   7.203
 2480SOL    HW219320   4.469   3.317   7.180
 2481SOL     OW19321   1.885   3.743  18.210
 2481SOL    HW119322   1.851   3.802  18.277
 2481SOL    HW219323   1.952   3.692  18.254
 2482SOL     OW19324   0.915   1.114  21.259
 2482SOL    HW119325   0.926   1.047  21.191
 2482SOL    HW219326   1.002   1.120   0.037
 2483SOL     OW19327   1.788   3.796  16.385
 2483SOL    HW119328   1.834   3.841  16.456
 2483SOL    HW219329   1.744   3.865  16.337
 2484SOL     OW19330   1.145   0.475  18.916
 2484SOL    HW119331   1.185   0.559  18.938
 2484SOL    HW219332   1.051   0.493  18.913
 2485SOL     OW19333   2.994   1.555  14.529
 2485SOL    HW119334   2.987   1.477  14.474
 2485SOL    HW219335   3.017   1.520  14.616
 2486SOL     OW19336   3.450   3.549  16.160
 2486SOL    HW119337   3.522   3.604  16.191
 2486SOL    HW219338   3.487   3.499  16.087
 2487SOL     OW19339   3.756   3.873   4.624
 2487SOL    HW119340   3.722   3.794   4.665
 2487SOL    HW219341   3.850   3.871   4.643
 2488SOL     OW19342   3.387   1.066  16.211
 2488SOL    HW119343   3.409   1.143  16.264
 2488SOL    HW219344   3.298   1.083  16.180
 2489SOL     OW19345   1.309   1.401  19.230
 2489SOL    HW119346   1.256   1.464  19.179
 2489SOL    HW219347   1.251   1.374  19.301
 2490SOL     OW19348   1.799   1.549  18.875
 2490SOL    HW119349   1.710   1.515  18.861
 2490SOL    HW219350   1.786   1.641  18.901
 2491SOL     OW19351   4.396   1.197   1.273
 2491SOL    HW119352   4.365   1.261   1.209
 2491SOL    HW219353   4.335   1.124   1.266
 2492SOL     OW19354   1.519   3.348   6.406
 2492SOL    HW119355   1.550   3.371   6.494
 2492SOL    HW219356   1.437   3.397   6.396
 2493SOL     OW19357   3.472   2.813   3.180
 2493SOL    HW119358   3.563   2.831   3.157
 2493SOL    HW219359   3.452   2.731   3.135
 2494SOL     OW19360   2.745   2.117  20.039
 2494SOL    HW119361   2.719   2.045  19.982
 2494SOL    HW219362   2.841   2.115  20.039
 2495SOL     OW19363   0.094   0.368  19.329
 2495SOL    HW119364   0.154   0.305  19.288
 2495SOL    HW219365   0.133   0.453  19.311
 2496SOL     OW19366   3.083   2.535  17.938
 2496SOL    HW119367   3.074   2.629  17.949
 2496SOL    HW219368   3.039   2.498  18.015
 2497SOL     OW19369   0.763   2.514   4.800
 2497SOL    HW119370   0.731   2.469   4.722
 2497SOL    HW219371   0.847   2.552   4.772
 2498SOL     OW19372   2.998   3.788   2.114
 2498SOL    HW119373   2.929   3.786   2.180
 2498SOL    HW219374   2.952   3.806   2.032
 2499SOL     OW19375   2.961   3.666   1.117
 2499SOL    HW119376   2.941   3.744   1.169
 2499SOL    HW219377   2.934   3.592   1.172
 2500SOL     OW19378   1.404   1.327   6.474
 2500SOL    HW119379   1.485   1.277   6.467
 2500SOL    HW219380   1.390   1.336   6.569
 2501SOL     OW19381   3.497   4.101  14.229
 2501SOL    HW119382   3.536   4.073  14.146
 2501SOL    HW219383   3.501   4.197  14.227
 2502SOL     OW19384   1.642   3.529  19.991
 2502SOL    HW119385   1.616   3.567  20.075
 2502SOL    HW219386   1.675   3.442  20.014
 2503SOL     OW19387   3.144   0.553   2.435
 2503SOL    HW119388   3.063   0.604   2.432
 2503SOL    HW219389   3.130   0.483   2.371
 2504SOL     OW19390   4.585   2.812   2.563
 2504SOL    HW119391   4.580   2.893   2.513
 2504SOL    HW219392   4.594   2.744   2.497
 2505SOL     OW19393   2.577   1.668  20.185
 2505SOL    HW119394   2.608   1.657  20.095
 2505SOL    HW219395   2.545   1.758  20.188
 2506SOL     OW19396   3.175   0.358   2.071
 2506SOL    HW119397   3.113   0.290   2.042
 2506SOL    HW219398   3.128   0.440   2.058
 2507SOL     OW19399   0.973   4.310   0.663
 2507SOL    HW119400   1.068   4.302   0.652
 2507SOL    HW219401   0.951   4.250   0.734
 2508SOL     OW19402   1.242   4.152   0.913
 2508SOL    HW119403   1.236   4.245   0.888
 2508SOL    HW219404   1.249   4.106   0.830
 2509SOL     OW19405   1.030   3.061   0.154
 2509SOL    HW119406   0.953   3.070   0.098
 2509SOL    HW219407   1.054   3.150   0.177
 2510SOL     OW19408   2.961   3.084  16.952
 2510SOL    HW119409   2.881   3.092  16.899
 2510SOL    HW219410   3.013   3.018  16.906
 2511SOL     OW19411   4.604   3.324   5.299
 2511SOL    HW119412   4.667   3.324   5.226
 2511SOL    HW219413   4.552   3.403   5.286
 2512SOL     OW19414   3.946   2.117   8.997
 2512SOL    HW119415   3.935   2.196   9.050
 2512SOL    HW219416   3.873   2.061   9.022
 2513SOL     OW19417   1.110   2.321  19.289
 2513SOL    HW119418   1.203   2.315  19.271
 2513SOL    HW219419   1.105   2.346  19.381
 2514SOL     OW19420   4.421   3.277   3.532
 2514SOL    HW119421   4.403   3.344   3.467
 2514SOL    HW219422   4.502   3.305   3.574
 2515SOL     OW19423   2.755   3.029   3.889
 2515SOL    HW119424   2.694   3.057   3.821
 2515SOL    HW219425   2.735   2.936   3.902
 2516SOL     OW19426   3.095   1.910   1.274
 2516SOL    HW119427   3.038   1.947   1.206
 2516SOL    HW219428   3.046   1.921   1.355
 2517SOL     OW19429   0.593   2.364  20.901
 2517SOL    HW119430   0.521   2.354  20.838
 2517SOL    HW219431   0.647   2.434  20.865
 2518SOL     OW19432   1.367   1.850  16.202
 2518SOL    HW119433   1.324   1.773  16.238
 2518SOL    HW219434   1.394   1.901  16.278
 2519SOL     OW19435   1.137   0.192   5.388
 2519SOL    HW119436   1.194   0.247   5.442
 2519SOL    HW219437   1.074   0.156   5.450
 2520SOL     OW19438   3.136   2.451   1.537
 2520SOL    HW119439   3.207   2.403   1.580
 2520SOL    HW219440   3.175   2.536   1.514
 2521SOL     OW19441   0.402   0.022   2.695
 2521SOL    HW119442   0.443   0.108   2.692
 2521SOL    HW219443   0.312   0.037   2.665
 2522SOL     OW19444   3.891   4.327   4.277
 2522SOL    HW119445   3.959   4.293   4.218
 2522SOL    HW219446   3.872   4.415   4.244
 2523SOL     OW19447   1.533   0.495  18.351
 2523SOL    HW119448   1.495   0.505  18.438
 2523SOL    HW219449   1.476   0.546  18.294
 2524SOL     OW19450   3.962   0.748   0.678
 2524SOL    HW119451   3.916   0.832   0.682
 2524SOL    HW219452   4.012   0.744   0.759
 2525SOL     OW19453   0.414   1.145   1.111
 2525SOL    HW119454   0.423   1.186   1.197
 2525SOL    HW219455   0.452   1.209   1.050
 2526SOL     OW19456   1.418   4.344  11.415
 2526SOL    HW119457   1.423   4.373  11.324
 2526SOL    HW219458   1.507   4.356  11.449
 2527SOL     OW19459   0.756   2.421   4.076
 2527SOL    HW119460   0.820   2.482   4.114
 2527SOL    HW219461   0.762   2.343   4.131
 2528SOL     OW19462   1.506   4.467  13.454
 2528SOL    HW119463   1.600   4.450  13.448
 2528SOL    HW219464   1.498   4.562  13.441
 2529SOL     OW19465   1.799   1.901  15.869
 2529SOL    HW119466   1.812   1.820  15.818
 2529SOL    HW219467   1.818   1.875  15.959
 2530SOL     OW19468   0.504   4.290  15.978
 2530SOL    HW119469   0.543   4.332  15.902
 2530SOL    HW219470   0.411   4.281  15.955
 2531SOL     OW19471   1.196   4.470   2.622
 2531SOL    HW119472   1.170   4.515   2.702
 2531SOL    HW219473   1.143   4.511   2.553
 2532SOL     OW19474   4.117   0.999  19.119
 2532SOL    HW119475   4.050   0.988  19.186
 2532SOL    HW219476   4.168   0.917  19.121
 2533SOL     OW19477   2.413   1.978   5.314
 2533SOL    HW119478   2.433   2.071   5.328
 2533SOL    HW219479   2.491   1.933   5.346
 2534SOL     OW19480   3.036   3.820  16.345
 2534SOL    HW119481   2.979   3.758  16.391
 2534SOL    HW219482   2.981   3.898  16.333
 2535SOL     OW19483   3.124   4.276  18.370
 2535SOL    HW119484   3.173   4.334  18.312
 2535SOL    HW219485   3.090   4.208  18.312
 2536SOL     OW19486   1.371   2.523   3.132
 2536SOL    HW119487   1.462   2.525   3.102
 2536SOL    HW219488   1.321   2.560   3.060
 2537SOL     OW19489   3.424   0.564  16.874
 2537SOL    HW119490   3.460   0.584  16.960
 2537SOL    HW219491   3.380   0.644  16.847
 2538SOL     OW19492   1.761   0.947  20.948
 2538SOL    HW119493   1.789   0.931  21.038
 2538SOL    HW219494   1.665   0.950  20.952
 2539SOL     OW19495   1.202   4.781   4.365
 2539SOL    HW119496   1.122   0.027   4.327
 2539SOL    HW219497   1.193   4.687   4.353
 2540SOL     OW19498   1.223   2.986  16.529
 2540SOL    HW119499   1.298   2.982  16.469
 2540SOL    HW219500   1.204   3.080  16.536
 2541SOL     OW19501   0.197   4.064   4.311
 2541SOL    HW119502   0.184   4.158   4.303
 2541SOL    HW219503   0.109   4.027   4.308
 2542SOL     OW19504   0.764   4.537  19.159
 2542SOL    HW119505   0.755   4.453  19.116
 2542SOL    HW219506   0.698   4.593  19.119
 2543SOL     OW19507   3.957   0.052  10.324
 2543SOL    HW119508   3.957   4.749  10.342
 2543SOL    HW219509   4.033   0.086  10.371
 2544SOL     OW19510   4.282   0.096  20.000
 2544SOL    HW119511   4.359   0.077  20.053
 2544SOL    HW219512   4.208   0.063  20.053
 2545SOL     OW19513   2.126   1.467   0.335
 2545SOL    HW119514   2.090   1.541   0.385
 2545SOL    HW219515   2.191   1.428   0.394
 2546SOL     OW19516   1.060   4.539   4.466
 2546SOL    HW119517   1.042   4.446   4.480
 2546SOL    HW219518   1.012   4.561   4.386
 2547SOL     OW19519   2.357   2.721  12.707
 2547SOL    HW119520   2.279   2.667  12.697
 2547SOL    HW219521   2.408   2.705  12.628
 2548SOL     OW19522   0.593   2.324   5.464
 2548SOL    HW119523   0.532   2.273   5.411
 2548SOL    HW219524   0.589   2.284   5.551
 2549SOL     OW19525   3.999   2.398   6.672
 2549SOL    HW119526   4.034   2.438   6.592
 2549SOL    HW219527   3.927   2.343   6.641
 2550SOL     OW19528   3.942   4.114  20.129
 2550SOL    HW119529   3.957   4.190  20.185
 2550SOL    HW219530   3.934   4.151  20.041
 2551SOL     OW19531   0.607   3.609   1.722
 2551SOL    HW119532   0.515   3.601   1.699
 2551SOL    HW219533   0.632   3.521   1.749
 2552SOL     OW19534   4.015   2.750   0.141
 2552SOL    HW119535   3.974   2.787   0.063
 2552SOL    HW219536   3.943   2.706   0.187
 2553SOL     OW19537   2.955   0.634   5.627
 2553SOL    HW119538   2.982   0.659   5.716
 2553SOL    HW219539   2.877   0.688   5.610
 2554SOL     OW19540   2.784   2.668  15.052
 2554SOL    HW119541   2.813   2.694  15.139
 2554SOL    HW219542   2.693   2.700  15.047
 2555SOL     OW19543   3.060   0.820   0.802
 2555SOL    HW119544   3.093   0.865   0.724
 2555SOL    HW219545   2.981   0.869   0.826
 2556SOL     OW19546   4.609   4.287  16.930
 2556SOL    HW119547   4.597   4.263  16.839
 2556SOL    HW219548   4.618   4.204  16.976
 2557SOL     OW19549   4.513   4.260  18.712
 2557SOL    HW119550   4.427   4.276  18.752
 2557SOL    HW219551   4.495   4.259  18.618
 2558SOL     OW19552   1.141   2.685   6.016
 2558SOL    HW119553   1.111   2.667   6.106
 2558SOL    HW219554   1.108   2.773   5.997
 2559SOL     OW19555   3.012   2.268   8.111
 2559SOL    HW119556   2.968   2.348   8.136
 2559SOL    HW219557   2.974   2.245   8.026
 2560SOL     OW19558   3.750   1.442  19.906
 2560SOL    HW119559   3.745   1.443  20.001
 2560SOL    HW219560   3.827   1.495  19.885
 2561SOL     OW19561   2.299   3.070   1.636
 2561SOL    HW119562   2.282   3.036   1.548
 2561SOL    HW219563   2.368   3.013   1.670
 2562SOL     OW19564   4.614   0.124   2.764
 2562SOL    HW119565   4.618   0.219   2.763
 2562SOL    HW219566   4.569   0.103   2.846
 2563SOL     OW19567   3.821   0.455  17.244
 2563SOL    HW119568   3.855   0.396  17.311
 2563SOL    HW219569   3.874   0.437  17.167
 2564SOL     OW19570   2.999   0.878   2.695
 2564SOL    HW119571   3.049   0.858   2.616
 2564SOL    HW219572   3.049   0.839   2.766
 2565SOL     OW19573   0.822   2.962   6.708
 2565SOL    HW119574   0.838   2.995   6.620
 2565SOL    HW219575   0.908   2.961   6.750
 2566SOL     OW19576   0.176   2.829  18.848
 2566SOL    HW119577   0.098   2.882  18.860
 2566SOL    HW219578   0.210   2.855  18.763
 2567SOL     OW19579   2.240   3.653  19.041
 2567SOL    HW119580   2.200   3.566  19.046
 2567SOL    HW219581   2.303   3.654  19.113
 2568SOL     OW19582   0.548   2.949  18.807
 2568SOL    HW119583   0.514   2.860  18.813
 2568SOL    HW219584   0.483   3.003  18.852
 2569SOL     OW19585   3.911   4.223  15.905
 2569SOL    HW119586   3.931   4.303  15.954
 2569SOL    HW219587   3.932   4.152  15.965
 2570SOL     OW19588   1.917   2.465   1.691
 2570SOL    HW119589   1.848   2.515   1.734
 2570SOL    HW219590   1.876   2.428   1.613
 2571SOL     OW19591   3.670   4.036  12.402
 2571SOL    HW119592   3.673   4.067  12.311
 2571SOL    HW219593   3.581   4.002  12.412
 2572SOL     OW19594   4.448   1.470   4.116
 2572SOL    HW119595   4.459   1.519   4.198
 2572SOL    HW219596   4.364   1.426   4.127
 2573SOL     OW19597   1.481   0.548   2.930
 2573SOL    HW119598   1.533   0.506   2.861
 2573SOL    HW219599   1.545   0.575   2.996
 2574SOL     OW19600   4.337   2.045   0.466
 2574SOL    HW119601   4.252   2.087   0.461
 2574SOL    HW219602   4.332   1.972   0.404
 2575SOL     OW19603   4.634   4.284  11.389
 2575SOL    HW119604   4.720   4.256  11.420
 2575SOL    HW219605   4.625   4.374  11.420
 2576SOL     OW19606   0.696   4.331   7.596
 2576SOL    HW119607   0.683   4.419   7.563
 2576SOL    HW219608   0.734   4.343   7.683
 2577SOL     OW19609   0.901   1.795  19.007
 2577SOL    HW119610   0.815   1.754  19.000
 2577SOL    HW219611   0.898   1.841  19.091
 2578SOL     OW19612   3.959   2.581  16.209
 2578SOL    HW119613   3.931   2.670  16.187
 2578SOL    HW219614   3.877   2.535  16.230
 2579SOL     OW19615   0.226   3.048  12.846
 2579SOL    HW119616   0.144   3.070  12.801
 2579SOL    HW219617   0.240   2.955  12.827
 2580SOL     OW19618   1.014   3.889  16.665
 2580SOL    HW119619   0.993   3.933  16.583
 2580SOL    HW219620   1.068   3.814  16.640
 2581SOL     OW19621   1.243   2.594   2.030
 2581SOL    HW119622   1.160   2.559   2.064
 2581SOL    HW219623   1.310   2.542   2.074
 2582SOL     OW19624   3.048   2.342   4.957
 2582SOL    HW119625   2.985   2.394   5.007
 2582SOL    HW219626   3.077   2.275   5.018
 2583SOL     OW19627   3.656   4.464  18.827
 2583SOL    HW119628   3.660   4.483  18.921
 2583SOL    HW219629   3.580   4.408  18.817
 2584SOL     OW19630   3.722   2.083  15.253
 2584SOL    HW119631   3.714   2.164  15.303
 2584SOL    HW219632   3.639   2.076  15.205
 2585SOL     OW19633   2.502   0.236   2.562
 2585SOL    HW119634   2.464   0.176   2.626
 2585SOL    HW219635   2.428   0.263   2.507
 2586SOL     OW19636   2.610   2.365  19.507
 2586SOL    HW119637   2.562   2.413  19.574
 2586SOL    HW219638   2.581   2.404  19.424
 2587SOL     OW19639   3.161   2.643  17.062
 2587SOL    HW119640   3.087   2.627  17.121
 2587SOL    HW219641   3.230   2.586  17.094
 2588SOL     OW19642   2.845   0.822   4.597
 2588SOL    HW119643   2.924   0.771   4.577
 2588SOL    HW219644   2.821   0.796   4.686
 2589SOL     OW19645   1.477   0.605  20.226
 2589SOL    HW119646   1.396   0.577  20.183
 2589SOL    HW219647   1.448   0.665  20.295
 2590SOL     OW19648   4.692   4.140   2.485
 2590SOL    HW119649   4.724   4.063   2.532
 2590SOL    HW219650   4.740   4.140   2.402
 2591SOL     OW19651   1.607   1.975  18.718
 2591SOL    HW119652   1.608   1.899  18.659
 2591SOL    HW219653   1.517   1.980  18.749
 2592SOL     OW19654   0.001   3.300  16.019
 2592SOL    HW119655   4.701   3.270  16.008
 2592SOL    HW219656   0.049   3.221  16.044
 2593SOL     OW19657   3.330   2.276   7.859
 2593SOL    HW119658   3.247   2.232   7.838
 2593SOL    HW219659   3.304   2.366   7.881
 2594SOL     OW19660   3.382   3.061   3.600
 2594SOL    HW119661   3.308   3.005   3.575
 2594SOL    HW219662   3.359   3.148   3.567
 2595SOL     OW19663   2.340   2.641   0.197
 2595SOL    HW119664   2.434   2.654   0.190
 2595SOL    HW219665   2.325   2.619   0.289
 2596SOL     OW19666   1.088   2.454  19.977
 2596SOL    HW119667   1.159   2.413  20.025
 2596SOL    HW219668   1.009   2.429  20.025
 2597SOL     OW19669   1.033   3.188   2.754
 2597SOL    HW119670   0.946   3.223   2.772
 2597SOL    HW219671   1.072   3.252   2.695
 2598SOL     OW19672   2.376   1.279   6.683
 2598SOL    HW119673   2.381   1.370   6.654
 2598SOL    HW219674   2.435   1.275   6.759
 2599SOL     OW19675   2.399   1.397  20.751
 2599SOL    HW119676   2.308   1.422  20.736
 2599SOL    HW219677   2.410   1.315  20.703
 2600SOL     OW19678   1.330   1.034   3.148
 2600SOL    HW119679   1.328   0.974   3.222
 2600SOL    HW219680   1.380   0.988   3.081
 2601SOL     OW19681   0.820   4.252  17.526
 2601SOL    HW119682   0.787   4.334  17.563
 2601SOL    HW219683   0.760   4.233  17.454
 2602SOL     OW19684   1.080   3.721  21.128
 2602SOL    HW119685   1.131   3.654  21.083
 2602SOL    HW219686   1.085   3.697  21.220
 2603SOL     OW19687   2.179   4.057  19.353
 2603SOL    HW119688   2.140   4.053  19.440
 2603SOL    HW219689   2.175   4.149  19.329
 2604SOL     OW19690   3.920   4.241  13.867
 2604SOL    HW119691   3.846   4.194  13.828
 2604SOL    HW219692   3.939   4.192  13.948
 2605SOL     OW19693   1.482   1.156   0.103
 2605SOL    HW119694   1.497   1.218   0.032
 2605SOL    HW219695   1.523   1.197   0.180
 2606SOL     OW19696   2.545   1.105   5.122
 2606SOL    HW119697   2.517   1.019   5.152
 2606SOL    HW219698   2.467   1.160   5.128
 2607SOL     OW19699   2.123   2.571  19.248
 2607SOL    HW119700   2.062   2.632  19.207
 2607SOL    HW219701   2.134   2.605  19.337
 2608SOL     OW19702   0.992   3.295  17.216
 2608SOL    HW119703   1.070   3.256  17.256
 2608SOL    HW219704   1.023   3.332  17.134
 2609SOL     OW19705   4.775   0.992  16.586
 2609SOL    HW119706   0.061   0.935  16.587
 2609SOL    HW219707   4.790   1.054  16.658
 2610SOL     OW19708   3.065   2.460  12.551
 2610SOL    HW119709   3.003   2.507  12.495
 2610SOL    HW219710   3.048   2.367  12.534
 2611SOL     OW19711   2.069   2.011   2.470
 2611SOL    HW119712   2.066   2.105   2.488
 2611SOL    HW219713   2.153   1.998   2.428
 2612SOL     OW19714   2.843   0.870   0.946
 2612SOL    HW119715   2.825   0.791   0.998
 2612SOL    HW219716   2.837   0.942   1.009
 2613SOL     OW19717   0.268   2.297  19.721
 2613SOL    HW119718   0.296   2.379  19.679
 2613SOL    HW219719   0.321   2.292  19.800
 2614SOL     OW19720   1.734   1.932  21.153
 2614SOL    HW119721   1.820   1.966  21.130
 2614SOL    HW219722   1.708   1.982  21.231
 2615SOL     OW19723   0.491   3.523  20.085
 2615SOL    HW119724   0.409   3.537  20.037
 2615SOL    HW219725   0.536   3.455  20.036
 2616SOL     OW19726   0.339   2.406  21.212
 2616SOL    HW119727   0.268   2.347  21.237
 2616SOL    HW219728   0.344   2.469   0.021
 2617SOL     OW19729   0.177   2.400   0.931
 2617SOL    HW119730   0.202   2.310   0.906
 2617SOL    HW219731   0.257   2.451   0.918
 2618SOL     OW19732   2.013   0.851   9.650
 2618SOL    HW119733   1.949   0.786   9.621
 2618SOL    HW219734   2.013   0.917   9.581
 2619SOL     OW19735   2.404   4.218   0.126
 2619SOL    HW119736   2.404   4.248   0.036
 2619SOL    HW219737   2.376   4.126   0.121
 2620SOL     OW19738   1.838   3.653   3.717
 2620SOL    HW119739   1.856   3.743   3.690
 2620SOL    HW219740   1.863   3.600   3.642
 2621SOL     OW19741   0.708   4.000   0.675
 2621SOL    HW119742   0.752   4.038   0.599
 2621SOL    HW219743   0.712   3.905   0.661
 2622SOL     OW19744   3.603   3.189   3.123
 2622SOL    HW119745   3.603   3.145   3.208
 2622SOL    HW219746   3.513   3.218   3.110
 2623SOL     OW19747   2.109   1.634   0.922
 2623SOL    HW119748   2.100   1.545   0.888
 2623SOL    HW219749   2.203   1.652   0.918
 2624SOL     OW19750   2.455   2.772   3.582
 2624SOL    HW119751   2.525   2.759   3.518
 2624SOL    HW219752   2.497   2.820   3.654
 2625SOL     OW19753   1.444   1.268   1.975
 2625SOL    HW119754   1.458   1.350   1.926
 2625SOL    HW219755   1.530   1.226   1.976
 2626SOL     OW19756   4.478   1.170  19.069
 2626SOL    HW119757   4.570   1.196  19.068
 2626SOL    HW219758   4.476   1.084  19.027
 2627SOL     OW19759   2.633   1.250   0.014
 2627SOL    HW119760   2.630   1.323  21.216
 2627SOL    HW219761   2.565   1.270   0.079
 2628SOL     OW19762   3.976   0.961   1.760
 2628SOL    HW119763   4.002   0.872   1.734
 2628SOL    HW219764   3.916   0.990   1.691
 2629SOL     OW19765   2.532   1.181   2.876
 2629SOL    HW119766   2.569   1.268   2.859
 2629SOL    HW219767   2.590   1.144   2.943
 2630SOL     OW19768   4.025   4.760   2.496
 2630SOL    HW119769   3.984   0.042   2.543
 2630SOL    HW219770   3.972   4.750   2.417
 2631SOL     OW19771   3.887   4.030   2.661
 2631SOL    HW119772   3.819   4.029   2.728
 2631SOL    HW219773   3.967   4.007   2.707
 2632SOL     OW19774   0.491   0.121   5.220
 2632SOL    HW119775   0.503   0.029   5.242
 2632SOL    HW219776   0.510   0.126   5.127
 2633SOL     OW19777   2.822   0.762  18.961
 2633SOL    HW119778   2.762   0.688  18.968
 2633SOL    HW219779   2.909   0.724  18.972
 2634SOL     OW19780   0.274   1.674  15.615
 2634SOL    HW119781   0.329   1.622  15.556
 2634SOL    HW219782   0.248   1.613  15.683
 2635SOL     OW19783   0.462   1.000  16.108
 2635SOL    HW119784   0.430   0.923  16.061
 2635SOL    HW219785   0.536   1.031  16.057
 2636SOL     OW19786   2.554   2.805  19.859
 2636SOL    HW119787   2.600   2.727  19.828
 2636SOL    HW219788   2.486   2.820  19.793
 2637SOL     OW19789   2.606   3.577   6.081
 2637SOL    HW119790   2.695   3.548   6.100
 2637SOL    HW219791   2.615   3.666   6.049
 2638SOL     OW19792   1.963   2.815   1.695
 2638SOL    HW119793   1.992   2.766   1.772
 2638SOL    HW219794   1.867   2.811   1.698
 2639SOL     OW19795   1.629   3.292  14.771
 2639SOL    HW119796   1.719   3.260  14.777
 2639SOL    HW219797   1.577   3.212  14.756
 2640SOL     OW19798   0.297   1.129   7.846
 2640SOL    HW119799   0.336   1.104   7.762
 2640SOL    HW219800   0.370   1.125   7.908
 2641SOL     OW19801   3.749   0.354  19.720
 2641SOL    HW119802   3.825   0.395  19.679
 2641SOL    HW219803   3.786   0.290  19.780
 2642SOL     OW19804   4.418   2.608   4.665
 2642SOL    HW119805   4.428   2.527   4.615
 2642SOL    HW219806   4.331   2.641   4.641
 2643SOL     OW19807   2.335   0.311  19.030
 2643SOL    HW119808   2.430   0.322  19.038
 2643SOL    HW219809   2.320   0.304  18.936
 2644SOL     OW19810   2.245   0.351   5.574
 2644SOL    HW119811   2.174   0.312   5.625
 2644SOL    HW219812   2.205   0.428   5.533
 2645SOL     OW19813   1.902   2.275   5.508
 2645SOL    HW119814   1.880   2.327   5.430
 2645SOL    HW219815   1.869   2.188   5.489
 2646SOL     OW19816   1.344   1.297   5.637
 2646SOL    HW119817   1.282   1.225   5.648
 2646SOL    HW219818   1.323   1.333   5.551
 2647SOL     OW19819   0.096   2.327   0.261
 2647SOL    HW119820   0.021   2.332   0.320
 2647SOL    HW219821   0.162   2.277   0.310
 2648SOL     OW19822   1.448   0.590   0.023
 2648SOL    HW119823   1.409   0.678   0.028
 2648SOL    HW219824   1.381   0.532   0.058
 2649SOL     OW19825   4.091   2.930   5.265
 2649SOL    HW119826   4.091   2.947   5.171
 2649SOL    HW219827   4.018   2.982   5.299
 2650SOL     OW19828   3.405   2.219  20.646
 2650SOL    HW119829   3.317   2.189  20.624
 2650SOL    HW219830   3.428   2.171  20.726
 2651SOL     OW19831   3.811   3.244   6.544
 2651SOL    HW119832   3.813   3.304   6.469
 2651SOL    HW219833   3.747   3.177   6.518
 2652SOL     OW19834   4.608   4.288   2.150
 2652SOL    HW119835   4.529   4.334   2.177
 2652SOL    HW219836   4.654   4.349   2.092
 2653SOL     OW19837   2.093   3.489   0.971
 2653SOL    HW119838   2.130   3.402   0.956
 2653SOL    HW219839   2.053   3.513   0.887
 2654SOL     OW19840   3.994   3.926   0.743
 2654SOL    HW119841   3.976   3.989   0.812
 2654SOL    HW219842   3.911   3.917   0.696
 2655SOL     OW19843   2.157   1.941   3.386
 2655SOL    HW119844   2.085   1.965   3.328
 2655SOL    HW219845   2.201   1.869   3.340
 2656SOL     OW19846   1.491   1.963   0.047
 2656SOL    HW119847   1.498   1.932  21.220
 2656SOL    HW219848   1.441   1.894   0.092
 2657SOL     OW19849   1.836   3.229   4.049
 2657SOL    HW119850   1.795   3.143   4.052
 2657SOL    HW219851   1.837   3.252   3.956
 2658SOL     OW19852   0.100   4.203  17.965
 2658SOL    HW119853   0.188   4.230  17.937
 2658SOL    HW219854   0.058   4.171  17.886
 2659SOL     OW19855   4.556   4.514   4.934
 2659SOL    HW119856   4.615   4.572   4.886
 2659SOL    HW219857   4.485   4.571   4.963
 2660SOL     OW19858   3.325   3.698  15.129
 2660SOL    HW119859   3.250   3.740  15.086
 2660SOL    HW219860   3.401   3.743  15.094
 2661SOL     OW19861   3.412   1.304  19.481
 2661SOL    HW119862   3.468   1.253  19.422
 2661SOL    HW219863   3.424   1.395  19.453
 2662SOL     OW19864   1.946   4.504  18.090
 2662SOL    HW119865   1.935   4.409  18.079
 2662SOL    HW219866   2.004   4.529  18.019
 2663SOL     OW19867   0.221   1.684  17.083
 2663SOL    HW119868   0.172   1.603  17.066
 2663SOL    HW219869   0.176   1.723  17.159
 2664SOL     OW19870   4.773   2.973   5.202
 2664SOL    HW119871   4.751   2.889   5.162
 2664SOL    HW219872   0.077   2.973   5.207
 2665SOL     OW19873   2.090   2.533   1.323
 2665SOL    HW119874   2.061   2.443   1.342
 2665SOL    HW219875   2.140   2.558   1.401
 2666SOL     OW19876   1.138   4.073  16.831
 2666SOL    HW119877   1.138   4.027  16.914
 2666SOL    HW219878   1.093   4.014  16.770
 2667SOL     OW19879   3.324   0.498  15.134
 2667SOL    HW119880   3.385   0.426  15.155
 2667SOL    HW219881   3.338   0.562  15.204
 2668SOL     OW19882   1.098   2.622   1.153
 2668SOL    HW119883   1.072   2.663   1.071
 2668SOL    HW219884   1.188   2.651   1.167
 2669SOL     OW19885   2.706   1.483   4.866
 2669SOL    HW119886   2.672   1.440   4.787
 2669SOL    HW219887   2.786   1.435   4.887
 2670SOL     OW19888   4.594   2.833  19.445
 2670SOL    HW119889   4.632   2.859  19.529
 2670SOL    HW219890   4.516   2.782  19.469
 2671SOL     OW19891   3.061   1.880  17.853
 2671SOL    HW119892   3.095   1.943  17.917
 2671SOL    HW219893   3.115   1.894  17.775
 2672SOL     OW19894   0.456   1.630   1.375
 2672SOL    HW119895   0.419   1.712   1.409
 2672SOL    HW219896   0.551   1.639   1.389
 2673SOL     OW19897   2.526   4.648   2.263
 2673SOL    HW119898   2.570   4.716   2.313
 2673SOL    HW219899   2.498   4.583   2.328
 2674SOL     OW19900   3.890   0.077  19.463
 2674SOL    HW119901   3.838   0.140  19.412
 2674SOL    HW219902   3.946   0.035  19.398
 2675SOL     OW19903   0.031   0.004  18.385
 2675SOL    HW119904   4.756   0.048  18.332
 2675SOL    HW219905   0.009   0.026  18.476
 2676SOL     OW19906   0.881   0.007  14.008
 2676SOL    HW119907   0.893   4.744  13.929
 2676SOL    HW219908   0.943   0.079  13.997
 2677SOL     OW19909   2.102   4.560   0.873
 2677SOL    HW119910   2.132   4.512   0.796
 2677SOL    HW219911   2.073   4.492   0.934
 2678SOL     OW19912   1.759   2.372   2.350
 2678SOL    HW119913   1.729   2.377   2.260
 2678SOL    HW219914   1.854   2.378   2.344
 2679SOL     OW19915   3.121   1.579   3.373
 2679SOL    HW119916   3.156   1.608   3.458
 2679SOL    HW219917   3.027   1.567   3.389
 2680SOL     OW19918   4.609   3.266   2.401
 2680SOL    HW119919   4.611   3.325   2.476
 2680SOL    HW219920   4.543   3.303   2.343
 2681SOL     OW19921   4.151   0.292  15.474
 2681SOL    HW119922   4.129   0.307  15.382
 2681SOL    HW219923   4.190   0.375  15.503
 2682SOL     OW19924   0.581   4.334  14.354
 2682SOL    HW119925   0.655   4.384  14.389
 2682SOL    HW219926   0.621   4.259  14.310
 2683SOL     OW19927   1.162   0.995   6.085
 2683SOL    HW119928   1.248   1.029   6.111
 2683SOL    HW219929   1.136   0.938   6.157
 2684SOL     OW19930   1.265   0.971  11.382
 2684SOL    HW119931   1.225   1.056  11.363
 2684SOL    HW219932   1.250   0.919  11.304
 2685SOL     OW19933   0.125   0.345   0.491
 2685SOL    HW119934   0.126   0.439   0.512
 2685SOL    HW219935   0.047   0.334   0.436
 2686SOL     OW19936   0.748   4.709   5.761
 2686SOL    HW119937   0.714   4.658   5.687
 2686SOL    HW219938   0.802   4.648   5.810
 2687SOL     OW19939   3.797   3.259   6.913
 2687SOL    HW119940   3.864   3.191   6.908
 2687SOL    HW219941   3.752   3.241   6.996
 2688SOL     OW19942   2.549   1.782  18.158
 2688SOL    HW119943   2.607   1.708  18.177
 2688SOL    HW219944   2.600   1.839  18.101
 2689SOL     OW19945   2.672   0.760  19.778
 2689SOL    HW119946   2.671   0.734  19.870
 2689SOL    HW219947   2.749   0.816  19.770
 2690SOL     OW19948   3.556   4.365  14.118
 2690SOL    HW119949   3.469   4.400  14.104
 2690SOL    HW219950   3.584   4.334  14.032
 2691SOL     OW19951   1.619   2.582  19.747
 2691SOL    HW119952   1.634   2.492  19.778
 2691SOL    HW219953   1.602   2.632  19.827
 2692SOL     OW19954   4.380   1.384   5.202
 2692SOL    HW119955   4.297   1.338   5.215
 2692SOL    HW219956   4.355   1.470   5.169
 2693SOL     OW19957   3.817   3.646   1.170
 2693SOL    HW119958   3.768   3.605   1.098
 2693SOL    HW219959   3.909   3.628   1.150
 2694SOL     OW19960   1.588   1.774  18.375
 2694SOL    HW119961   1.676   1.773  18.335
 2694SOL    HW219962   1.574   1.865  18.399
 2695SOL     OW19963   1.210   2.368   2.554
 2695SOL    HW119964   1.263   2.290   2.535
 2695SOL    HW219965   1.173   2.350   2.640
 2696SOL     OW19966   0.824   0.406   7.730
 2696SOL    HW119967   0.748   0.402   7.671
 2696SOL    HW219968   0.836   0.316   7.761
 2697SOL     OW19969   1.919   4.762  17.775
 2697SOL    HW119970   1.946   4.733  17.688
 2697SOL    HW219971   1.978   4.714  17.835
 2698SOL     OW19972   4.708   1.401  18.516
 2698SOL    HW119973   4.670   1.345  18.583
 2698SOL    HW219974   4.691   1.490  18.547
 2699SOL     OW19975   1.062   4.648   3.894
 2699SOL    HW119976   1.122   4.686   3.830
 2699SOL    HW219977   1.061   4.554   3.874
 2700SOL     OW19978   2.146   0.158  15.296
 2700SOL    HW119979   2.059   0.147  15.335
 2700SOL    HW219980   2.199   0.089  15.337
 2701SOL     OW19981   0.385   0.905  16.404
 2701SOL    HW119982   0.455   0.970  16.413
 2701SOL    HW219983   0.354   0.890  16.493
 2702SOL     OW19984   1.632   0.146  18.118
 2702SOL    HW119985   1.606   0.190  18.037
 2702SOL    HW219986   1.695   0.080  18.090
 2703SOL     OW19987   4.234   0.043  13.947
 2703SOL    HW119988   4.238   4.745  13.914
 2703SOL    HW219989   4.325   0.066  13.965
 2704SOL     OW19990   0.225   1.105  17.727
 2704SOL    HW119991   0.265   1.175  17.779
 2704SOL    HW219992   0.150   1.146  17.684
 2705SOL     OW19993   3.040   3.410  20.172
 2705SOL    HW119994   2.978   3.481  20.188
 2705SOL    HW219995   3.097   3.410  20.249
 2706SOL     OW19996   0.799   1.525   6.245
 2706SOL    HW119997   0.729   1.494   6.188
 2706SOL    HW219998   0.779   1.617   6.259
 2707SOL     OW19999   3.608   1.967   1.934
 2707SOL    HW120000   3.688   2.016   1.949
 2707SOL    HW220001   3.618   1.929   1.847
 2708SOL     OW20002   3.406   4.784   3.569
 2708SOL    HW120003   3.497   4.758   3.552
 2708SOL    HW220004   3.362   4.702   3.593
 2709SOL     OW20005   2.361   0.353   1.418
 2709SOL    HW120006   2.366   0.305   1.335
 2709SOL    HW220007   2.355   0.286   1.485
 2710SOL     OW20008   2.048   4.475  16.924
 2710SOL    HW120009   2.048   4.380  16.931
 2710SOL    HW220010   2.041   4.506  17.015
 2711SOL     OW20011   4.115   1.640  18.359
 2711SOL    HW120012   4.161   1.557  18.349
 2711SOL    HW220013   4.097   1.669  18.270
 2712SOL     OW20014   2.583   0.553  13.225
 2712SOL    HW120015   2.619   0.642  13.227
 2712SOL    HW220016   2.496   0.562  13.264
 2713SOL     OW20017   2.291   4.075  12.499
 2713SOL    HW120018   2.364   4.022  12.466
 2713SOL    HW220019   2.320   4.166  12.486
 2714SOL     OW20020   3.063   3.313   6.341
 2714SOL    HW120021   3.157   3.321   6.356
 2714SOL    HW220022   3.024   3.334   6.426
 2715SOL     OW20023   1.771   1.081   0.490
 2715SOL    HW120024   1.755   0.988   0.504
 2715SOL    HW220025   1.865   1.087   0.472
 2716SOL     OW20026   3.978   0.528  17.816
 2716SOL    HW120027   3.922   0.511  17.891
 2716SOL    HW220028   3.963   0.453  17.758
 2717SOL     OW20029   3.428   4.741   5.965
 2717SOL    HW120030   3.485   4.682   6.015
 2717SOL    HW220031   3.479   0.031   5.957
 2718SOL     OW20032   1.268   4.173   5.405
 2718SOL    HW120033   1.273   4.078   5.409
 2718SOL    HW220034   1.196   4.191   5.344
 2719SOL     OW20035   0.998   3.846   6.169
 2719SOL    HW120036   0.914   3.832   6.124
 2719SOL    HW220037   1.049   3.767   6.151
 2720SOL     OW20038   3.166   1.764  20.227
 2720SOL    HW120039   3.167   1.858  20.205
 2720SOL    HW220040   3.101   1.757  20.297
 2721SOL     OW20041   3.685   2.970  18.229
 2721SOL    HW120042   3.766   2.985  18.278
 2721SOL    HW220043   3.633   2.913  18.286
 2722SOL     OW20044   0.646   3.018   4.586
 2722SOL    HW120045   0.579   3.018   4.654
 2722SOL    HW220046   0.712   2.956   4.618
 2723SOL     OW20047   2.919   0.033  17.174
 2723SOL    HW120048   2.910   0.100  17.242
 2723SOL    HW220049   2.930   4.742  17.223
 2724SOL     OW20050   0.519   1.273  16.560
 2724SOL    HW120051   0.514   1.330  16.638
 2724SOL    HW220052   0.446   1.302  16.505
 2725SOL     OW20053   1.409   0.432   3.472
 2725SOL    HW120054   1.352   0.358   3.493
 2725SOL    HW220055   1.365   0.508   3.510
 2726SOL     OW20056   2.458   0.331   5.370
 2726SOL    HW120057   2.424   0.357   5.456
 2726SOL    HW220058   2.449   0.410   5.316
 2727SOL     OW20059   1.587   1.246   2.380
 2727SOL    HW120060   1.553   1.163   2.416
 2727SOL    HW220061   1.509   1.290   2.346
 2728SOL     OW20062   1.296   2.695  13.926
 2728SOL    HW120063   1.385   2.672  13.952
 2728SOL    HW220064   1.290   2.666  13.834
 2729SOL     OW20065   4.405   2.298   4.568
 2729SOL    HW120066   4.395   2.265   4.478
 2729SOL    HW220067   4.318   2.291   4.606
 2730SOL     OW20068   0.743   4.541  14.136
 2730SOL    HW120069   0.792   4.602  14.081
 2730SOL    HW220070   0.737   4.461  14.084
 2731SOL     OW20071   0.003   0.886   2.957
 2731SOL    HW120072   0.096   0.898   2.976
 2731SOL    HW220073   4.757   0.855   3.039
 2732SOL     OW20074   0.230   4.677  20.543
 2732SOL    HW120075   0.326   4.675  20.537
 2732SOL    HW220076   0.201   4.690  20.452
 2733SOL     OW20077   2.023   4.470  19.814
 2733SOL    HW120078   2.069   4.401  19.861
 2733SOL    HW220079   1.931   4.460  19.840
 2734SOL     OW20080   4.763   1.170  15.429
 2734SOL    HW120081   4.745   1.250  15.379
 2734SOL    HW220082   0.042   1.195  15.490
 2735SOL     OW20083   3.122   4.407   5.373
 2735SOL    HW120084   3.114   4.462   5.451
 2735SOL    HW220085   3.049   4.346   5.380
 2736SOL     OW20086   2.651   0.200   8.844
 2736SOL    HW120087   2.673   0.126   8.787
 2736SOL    HW220088   2.584   0.165   8.903
 2737SOL     OW20089   2.529   0.066  19.324
 2737SOL    HW120090   2.590   0.100  19.258
 2737SOL    HW220091   2.565   4.772  19.348
 2738SOL     OW20092   2.364   0.190   4.338
 2738SOL    HW120093   2.447   0.157   4.373
 2738SOL    HW220094   2.305   0.115   4.344
 2739SOL     OW20095   0.826   0.109   3.550
 2739SOL    HW120096   0.850   0.198   3.577
 2739SOL    HW220097   0.731   0.105   3.560
 2740SOL     OW20098   2.888   2.946   4.807
 2740SOL    HW120099   2.824   2.893   4.758
 2740SOL    HW220100   2.867   2.930   4.899
 2741SOL     OW20101   0.812   0.802   3.243
 2741SOL    HW120102   0.895   0.847   3.230
 2741SOL    HW220103   0.746   0.864   3.212
 2742SOL     OW20104   1.604   3.781   3.938
 2742SOL    HW120105   1.688   3.825   3.952
 2742SOL    HW220106   1.600   3.715   4.007
 2743SOL     OW20107   4.221   0.346   0.671
 2743SOL    HW120108   4.251   0.430   0.635
 2743SOL    HW220109   4.269   0.337   0.753
 2744SOL     OW20110   2.447   1.885  14.529
 2744SOL    HW120111   2.484   1.948  14.591
 2744SOL    HW220112   2.453   1.929  14.445
 2745SOL     OW20113   1.337   3.877  16.190
 2745SOL    HW120114   1.248   3.912  16.189
 2745SOL    HW220115   1.355   3.853  16.099
 2746SOL     OW20116   1.915   1.249  20.615
 2746SOL    HW120117   1.947   1.166  20.651
 2746SOL    HW220118   1.989   1.309  20.621
 2747SOL     OW20119   0.828   2.356   0.217
 2747SOL    HW120120   0.781   2.352   0.301
 2747SOL    HW220121   0.855   2.265   0.201
 2748SOL     OW20122   4.395   4.361   4.465
 2748SOL    HW120123   4.355   4.297   4.523
 2748SOL    HW220124   4.355   4.444   4.490
 2749SOL     OW20125   0.064   3.658   5.063
 2749SOL    HW120126   0.084   3.654   4.970
 2749SOL    HW220127   0.019   3.742   5.075
 2750SOL     OW20128   0.761   0.594   4.680
 2750SOL    HW120129   0.815   0.589   4.758
 2750SOL    HW220130   0.685   0.646   4.707
 2751SOL     OW20131   2.088   3.059  18.576
 2751SOL    HW120132   2.094   3.015  18.491
 2751SOL    HW220133   2.013   3.117  18.567
 2752SOL     OW20134   4.603   4.122  19.064
 2752SOL    HW120135   4.581   4.032  19.041
 2752SOL    HW220136   4.662   4.114  19.138
 2753SOL     OW20137   2.921   1.320   4.987
 2753SOL    HW120138   2.957   1.378   5.055
 2753SOL    HW220139   2.995   1.300   4.931
 2754SOL     OW20140   1.731   2.803   1.428
 2754SOL    HW120141   1.654   2.837   1.473
 2754SOL    HW220142   1.805   2.833   1.481
 2755SOL     OW20143   2.104   2.924  15.999
 2755SOL    HW120144   2.191   2.963  16.004
 2755SOL    HW220145   2.067   2.935  16.087
 2756SOL     OW20146   2.852   1.534   6.771
 2756SOL    HW120147   2.901   1.578   6.701
 2756SOL    HW220148   2.841   1.602   6.838
 2757SOL     OW20149   2.291   0.486  18.448
 2757SOL    HW120150   2.207   0.442  18.435
 2757SOL    HW220151   2.290   0.558  18.385
 2758SOL     OW20152   4.480   2.851   4.560
 2758SOL    HW120153   4.399   2.881   4.519
 2758SOL    HW220154   4.453   2.779   4.617
 2759SOL     OW20155   3.330   3.681  20.236
 2759SOL    HW120156   3.403   3.719  20.285
 2759SOL    HW220157   3.279   3.756  20.206
 2760SOL     OW20158   0.276   3.221  17.505
 2760SOL    HW120159   0.269   3.166  17.583
 2760SOL    HW220160   0.221   3.297  17.525
 2761SOL     OW20161   0.249   1.771  16.609
 2761SOL    HW120162   0.343   1.755  16.601
 2761SOL    HW220163   0.238   1.810  16.695
 2762SOL     OW20164   3.651   3.626   6.545
 2762SOL    HW120165   3.608   3.698   6.591
 2762SOL    HW220166   3.652   3.554   6.607
 2763SOL     OW20167   2.417   3.575   3.817
 2763SOL    HW120168   2.401   3.598   3.909
 2763SOL    HW220169   2.330   3.567   3.779
 2764SOL     OW20170   3.165   4.787   4.908
 2764SOL    HW120171   3.100   4.735   4.954
 2764SOL    HW220172   3.226   0.024   4.977
 2765SOL     OW20173   1.952   0.164   2.511
 2765SOL    HW120174   2.012   0.098   2.546
 2765SOL    HW220175   1.903   0.195   2.588
 2766SOL     OW20176   4.408   1.540   2.913
 2766SOL    HW120177   4.478   1.479   2.887
 2766SOL    HW220178   4.335   1.483   2.937
 2767SOL     OW20179   3.838   2.783  16.476
 2767SOL    HW120180   3.788   2.822  16.405
 2767SOL    HW220181   3.912   2.842  16.489
 2768SOL     OW20182   0.074   3.519  13.086
 2768SOL    HW120183   0.093   3.522  13.180
 2768SOL    HW220184   0.119   3.440  13.055
 2769SOL     OW20185   0.004   4.532   6.676
 2769SOL    HW120186   4.743   4.565   6.749
 2769SOL    HW220187   0.081   4.589   6.673
 2770SOL     OW20188   1.242   0.147  17.686
 2770SOL    HW120189   1.180   0.174  17.753
 2770SOL    HW220190   1.192   0.088  17.629
 2771SOL     OW20191   0.845   4.049   4.665
 2771SOL    HW120192   0.765   4.047   4.718
 2771SOL    HW220193   0.916   4.054   4.729
 2772SOL     OW20194   1.355   4.757   2.488
 2772SOL    HW120195   1.397   4.750   2.402
 2772SOL    HW220196   1.422   4.726   2.550
 2773SOL     OW20197   0.148   0.755  16.308
 2773SOL    HW120198   0.231   0.802  16.320
 2773SOL    HW220199   0.116   0.738  16.397
 2774SOL     OW20200   3.459   3.698   5.489
 2774SOL    HW120201   3.455   3.624   5.429
 2774SOL    HW220202   3.381   3.688   5.545
 2775SOL     OW20203   3.539   2.317  14.606
 2775SOL    HW120204   3.589   2.241  14.577
 2775SOL    HW220205   3.481   2.337  14.533
 2776SOL     OW20206   1.725   2.854   5.468
 2776SOL    HW120207   1.709   2.779   5.525
 2776SOL    HW220208   1.646   2.908   5.476
 2777SOL     OW20209   1.461   3.408  21.100
 2777SOL    HW120210   1.469   3.328  21.049
 2777SOL    HW220211   1.476   3.380  21.191
 2778SOL     OW20212   4.166   3.561  16.651
 2778SOL    HW120213   4.131   3.477  16.624
 2778SOL    HW220214   4.140   3.570  16.743
 2779SOL     OW20215   0.894   1.185  20.236
 2779SOL    HW120216   0.947   1.130  20.179
 2779SOL    HW220217   0.946   1.194  20.316
 2780SOL     OW20218   3.391   1.480  21.126
 2780SOL    HW120219   3.426   1.419  21.191
 2780SOL    HW220220   3.343   1.424  21.065
 2781SOL     OW20221   0.526   2.246   0.203
 2781SOL    HW120222   0.451   2.204   0.161
 2781SOL    HW220223   0.533   2.331   0.160
 2782SOL     OW20224   1.747   3.116   4.381
 2782SOL    HW120225   1.674   3.059   4.359
 2782SOL    HW220226   1.823   3.057   4.385
 2783SOL     OW20227   4.037   0.677  17.240
 2783SOL    HW120228   4.125   0.683  17.279
 2783SOL    HW220229   4.040   0.598  17.187
 2784SOL     OW20230   0.810   4.451  12.827
 2784SOL    HW120231   0.799   4.498  12.745
 2784SOL    HW220232   0.903   4.455  12.846
 2785SOL     OW20233   3.722   1.657   0.381
 2785SOL    HW120234   3.643   1.710   0.373
 2785SOL    HW220235   3.699   1.573   0.341
 2786SOL     OW20236   2.925   1.757  16.711
 2786SOL    HW120237   3.012   1.747  16.750
 2786SOL    HW220238   2.921   1.849  16.684
 2787SOL     OW20239   0.015   2.663  16.934
 2787SOL    HW120240   0.005   2.689  16.843
 2787SOL    HW220241   0.095   2.708  16.963
 2788SOL     OW20242   2.549   1.739  15.813
 2788SOL    HW120243   2.644   1.747  15.802
 2788SOL    HW220244   2.517   1.717  15.725
 2789SOL     OW20245   3.427   0.548   2.397
 2789SOL    HW120246   3.339   0.523   2.426
 2789SOL    HW220247   3.429   0.523   2.304
 2790SOL     OW20248   3.475   0.270  17.204
 2790SOL    HW120249   3.552   0.315  17.172
 2790SOL    HW220250   3.411   0.340  17.220
 2791SOL     OW20251   4.322   4.303  17.012
 2791SOL    HW120252   4.416   4.321  17.006
 2791SOL    HW220253   4.317   4.213  17.045
 2792SOL     OW20254   0.408   0.824   3.361
 2792SOL    HW120255   0.438   0.823   3.452
 2792SOL    HW220256   0.315   0.804   3.366
 2793SOL     OW20257   1.302   4.771   6.232
 2793SOL    HW120258   1.357   4.755   6.309
 2793SOL    HW220259   1.333   4.709   6.167
 2794SOL     OW20260   0.484   3.500  21.132
 2794SOL    HW120261   0.419   3.500  21.202
 2794SOL    HW220262   0.433   3.513  21.052
 2795SOL     OW20263   0.556   2.125  16.560
 2795SOL    HW120264   0.512   2.042  16.542
 2795SOL    HW220265   0.622   2.104  16.625
 2796SOL     OW20266   1.760   2.888  18.895
 2796SOL    HW120267   1.703   2.812  18.905
 2796SOL    HW220268   1.761   2.904  18.801
 2797SOL     OW20269   1.508   2.617   2.310
 2797SOL    HW120270   1.460   2.690   2.350
 2797SOL    HW220271   1.549   2.655   2.232
 2798SOL     OW20272   2.569   2.580  18.202
 2798SOL    HW120273   2.575   2.511  18.136
 2798SOL    HW220274   2.526   2.538  18.277
 2799SOL     OW20275   1.592   2.524   2.997
 2799SOL    HW120276   1.579   2.523   2.902
 2799SOL    HW220277   1.683   2.552   3.008
 2800SOL     OW20278   4.410   0.597   6.306
 2800SOL    HW120279   4.322   0.566   6.325
 2800SOL    HW220280   4.461   0.575   6.385
 2801SOL     OW20281   2.909   2.223   4.009
 2801SOL    HW120282   2.944   2.302   4.050
 2801SOL    HW220283   2.819   2.217   4.043
 2802SOL     OW20284   1.887   4.489  14.059
 2802SOL    HW120285   1.854   4.568  14.101
 2802SOL    HW220286   1.822   4.467  13.993
 2803SOL     OW20287   2.742   1.943   6.550
 2803SOL    HW120288   2.693   1.953   6.631
 2803SOL    HW220289   2.691   1.879   6.499
 2804SOL     OW20290   3.320   3.380  16.332
 2804SOL    HW120291   3.344   3.422  16.414
 2804SOL    HW220292   3.367   3.431  16.265
 2805SOL     OW20293   4.653   3.438   2.125
 2805SOL    HW120294   4.601   3.360   2.108
 2805SOL    HW220295   4.744   3.408   2.118
 2806SOL     OW20296   3.215   1.027  20.976
 2806SOL    HW120297   3.309   1.036  20.959
 2806SOL    HW220298   3.205   0.941  21.017
 2807SOL     OW20299   2.696   0.963   3.917
 2807SOL    HW120300   2.701   0.868   3.929
 2807SOL    HW220301   2.767   0.983   3.856
 2808SOL     OW20302   2.505   2.035  18.767
 2808SOL    HW120303   2.444   2.013  18.838
 2808SOL    HW220304   2.543   1.951  18.741
 2809SOL     OW20305   4.178   0.537   5.883
 2809SOL    HW120306   4.159   0.444   5.891
 2809SOL    HW220307   4.154   0.560   5.794
 2810SOL     OW20308   2.870   2.162  19.319
 2810SOL    HW120309   2.854   2.249  19.356
 2810SOL    HW220310   2.835   2.166  19.231
 2811SOL     OW20311   0.087   4.220  17.093
 2811SOL    HW120312   0.015   4.185  17.040
 2811SOL    HW220313   0.160   4.229  17.032
 2812SOL     OW20314   2.550   0.120  16.923
 2812SOL    HW120315   2.645   0.117  16.915
 2812SOL    HW220316   2.524   0.196  16.870
 2813SOL     OW20317   3.114   0.680   0.425
 2813SOL    HW120318   3.136   0.667   0.333
 2813SOL    HW220319   3.018   0.686   0.426
 2814SOL     OW20320   4.733   1.910   5.092
 2814SOL    HW120321   4.676   1.909   5.169
 2814SOL    HW220322   4.746   2.003   5.073
 2815SOL     OW20323   0.327   2.043  17.088
 2815SOL    HW120324   0.276   2.070  17.164
 2815SOL    HW220325   0.274   2.069  17.013
 2816SOL     OW20326   0.169   4.065  18.686
 2816SOL    HW120327   0.084   4.091  18.720
 2816SOL    HW220328   0.215   4.028  18.761
 2817SOL     OW20329   4.073   1.197  15.330
 2817SOL    HW120330   4.094   1.105  15.350
 2817SOL    HW220331   4.126   1.247  15.392
 2818SOL     OW20332   4.183   3.359   2.588
 2818SOL    HW120333   4.098   3.389   2.554
 2818SOL    HW220334   4.245   3.427   2.563
 2819SOL     OW20335   1.306   4.510   6.457
 2819SOL    HW120336   1.298   4.459   6.538
 2819SOL    HW220337   1.218   4.509   6.420
 2820SOL     OW20338   2.980   3.411   0.102
 2820SOL    HW120339   2.985   3.474   0.030
 2820SOL    HW220340   3.051   3.436   0.161
 2821SOL     OW20341   0.815   0.713   3.503
 2821SOL    HW120342   0.799   0.749   3.416
 2821SOL    HW220343   0.878   0.773   3.543
 2822SOL     OW20344   3.212   3.155   1.782
 2822SOL    HW120345   3.255   3.171   1.865
 2822SOL    HW220346   3.258   3.080   1.744
 2823SOL     OW20347   4.242   2.792  16.921
 2823SOL    HW120348   4.284   2.835  16.995
 2823SOL    HW220349   4.279   2.704  16.920
 2824SOL     OW20350   4.582   4.564  19.666
 2824SOL    HW120351   4.509   4.563  19.605
 2824SOL    HW220352   4.551   4.513  19.741
 2825SOL     OW20353   3.240   1.780  19.070
 2825SOL    HW120354   3.329   1.769  19.105
 2825SOL    HW220355   3.206   1.691  19.061
 2826SOL     OW20356   3.471   3.305   7.033
 2826SOL    HW120357   3.515   3.299   7.118
 2826SOL    HW220358   3.377   3.299   7.055
 2827SOL     OW20359   1.561   1.303   6.024
 2827SOL    HW120360   1.651   1.270   6.025
 2827SOL    HW220361   1.565   1.385   6.074
 2828SOL     OW20362   1.099   1.195  16.172
 2828SOL    HW120363   1.145   1.151  16.244
 2828SOL    HW220364   1.146   1.168  16.093
 2829SOL     OW20365   2.223   3.378   6.838
 2829SOL    HW120366   2.191   3.363   6.927
 2829SOL    HW220367   2.202   3.296   6.792
 2830SOL     OW20368   4.603   2.245   4.748
 2830SOL    HW120369   4.524   2.259   4.697
 2830SOL    HW220370   4.631   2.157   4.724
 2831SOL     OW20371   1.993   3.815  17.667
 2831SOL    HW120372   2.027   3.778  17.749
 2831SOL    HW220373   1.903   3.783  17.661
 2832SOL     OW20374   0.583   0.724  16.290
 2832SOL    HW120375   0.539   0.778  16.355
 2832SOL    HW220376   0.616   0.786  16.225
 2833SOL     OW20377   1.410   1.135  12.241
 2833SOL    HW120378   1.348   1.207  12.227
 2833SOL    HW220379   1.420   1.095  12.154
 2834SOL     OW20380   0.250   1.582   3.771
 2834SOL    HW120381   0.189   1.554   3.838
 2834SOL    HW220382   0.234   1.676   3.760
 2835SOL     OW20383   0.029   0.187   1.586
 2835SOL    HW120384   0.021   0.096   1.615
 2835SOL    HW220385   0.051   0.236   1.665
 2836SOL     OW20386   0.997   2.631  17.224
 2836SOL    HW120387   0.947   2.640  17.305
 2836SOL    HW220388   1.088   2.627  17.254
 2837SOL     OW20389   3.025   2.304   2.370
 2837SOL    HW120390   3.031   2.217   2.409
 2837SOL    HW220391   3.115   2.338   2.374
 2838SOL     OW20392   2.977   2.092   4.588
 2838SOL    HW120393   2.978   2.032   4.663
 2838SOL    HW220394   2.987   2.179   4.627
 2839SOL     OW20395   2.670   0.517  20.415
 2839SOL    HW120396   2.634   0.605  20.428
 2839SOL    HW220397   2.750   0.531  20.366
 2840SOL     OW20398   0.404   1.125  15.778
 2840SOL    HW120399   0.493   1.108  15.808
 2840SOL    HW220400   0.358   1.041  15.790
 2841SOL     OW20401   0.476   0.724  19.166
 2841SOL    HW120402   0.428   0.788  19.113
 2841SOL    HW220403   0.454   0.639  19.127
 2842SOL     OW20404   0.435   2.513   5.879
 2842SOL    HW120405   0.431   2.428   5.835
 2842SOL    HW220406   0.528   2.526   5.897
 2843SOL     OW20407   3.649   0.678  15.794
 2843SOL    HW120408   3.705   0.650  15.866
 2843SOL    HW220409   3.666   0.613  15.725
 2844SOL     OW20410   0.321   3.197   3.372
 2844SOL    HW120411   0.404   3.224   3.414
 2844SOL    HW220412   0.260   3.268   3.393
 2845SOL     OW20413   3.805   0.533   5.572
 2845SOL    HW120414   3.756   0.590   5.631
 2845SOL    HW220415   3.760   0.542   5.488
 2846SOL     OW20416   2.811   1.764   0.183
 2846SOL    HW120417   2.732   1.811   0.159
 2846SOL    HW220418   2.861   1.756   0.102
 2847SOL     OW20419   1.766   4.715   2.488
 2847SOL    HW120420   1.834   4.710   2.555
 2847SOL    HW220421   1.687   4.683   2.531
 2848SOL     OW20422   2.826   0.398  14.821
 2848SOL    HW120423   2.848   0.484  14.785
 2848SOL    HW220424   2.738   0.409  14.858
 2849SOL     OW20425   3.005   1.381  20.759
 2849SOL    HW120426   2.938   1.396  20.826
 2849SOL    HW220427   2.958   1.382  20.676
 2850SOL     OW20428   4.068   1.097   2.384
 2850SOL    HW120429   3.989   1.149   2.369
 2850SOL    HW220430   4.039   1.026   2.441
 2851SOL     OW20431   4.716   0.039  18.899
 2851SOL    HW120432   4.651   4.761  18.904
 2851SOL    HW220433   4.706   0.088  18.980
 2852SOL     OW20434   3.692   4.554   3.850
 2852SOL    HW120435   3.607   4.580   3.887
 2852SOL    HW220436   3.695   4.459   3.862
 2853SOL     OW20437   1.995   0.001  14.573
 2853SOL    HW120438   2.028   0.090  14.585
 2853SOL    HW220439   2.021   4.746  14.654
 2854SOL     OW20440   2.770   0.327   3.916
 2854SOL    HW120441   2.737   0.248   3.872
 2854SOL    HW220442   2.759   0.309   4.009
 2855SOL     OW20443   2.745   2.648   1.807
 2855SOL    HW120444   2.836   2.624   1.824
 2855SOL    HW220445   2.742   2.663   1.713
 2856SOL     OW20446   0.359   0.082  20.193
 2856SOL    HW120447   0.443   0.098  20.235
 2856SOL    HW220448   0.337   4.783  20.219
 2857SOL     OW20449   0.689   0.542  17.902
 2857SOL    HW120450   0.702   0.451  17.927
 2857SOL    HW220451   0.622   0.575  17.962
 2858SOL     OW20452   3.857   0.797   3.883
 2858SOL    HW120453   3.825   0.760   3.965
 2858SOL    HW220454   3.937   0.845   3.908
 2859SOL     OW20455   1.347   3.158   5.042
 2859SOL    HW120456   1.425   3.104   5.058
 2859SOL    HW220457   1.280   3.120   5.099
 2860SOL     OW20458   4.415   2.942   6.797
 2860SOL    HW120459   4.346   2.881   6.772
 2860SOL    HW220460   4.444   2.981   6.715
 2861SOL     OW20461   1.190   3.093   1.845
 2861SOL    HW120462   1.222   3.010   1.882
 2861SOL    HW220463   1.131   3.128   1.912
 2862SOL     OW20464   4.391   0.048   3.931
 2862SOL    HW120465   4.397   4.746   3.912
 2862SOL    HW220466   4.306   0.075   3.897
 2863SOL     OW20467   4.405   2.640   3.252
 2863SOL    HW120468   4.435   2.573   3.313
 2863SOL    HW220469   4.359   2.591   3.183
 2864SOL     OW20470   0.343   0.545  17.828
 2864SOL    HW120471   0.305   0.460  17.806
 2864SOL    HW220472   0.394   0.530  17.907
 2865SOL     OW20473   2.206   1.161  16.015
 2865SOL    HW120474   2.128   1.110  16.035
 2865SOL    HW220475   2.266   1.143  16.087
 2866SOL     OW20476   2.240   0.103  17.294
 2866SOL    HW120477   2.146   0.108  17.309
 2866SOL    HW220478   2.249   0.095  17.200
 2867SOL     OW20479   4.304   4.132  15.638
 2867SOL    HW120480   4.340   4.160  15.553
 2867SOL    HW220481   4.211   4.155  15.633
 2868SOL     OW20482   1.469   1.982  19.462
 2868SOL    HW120483   1.526   2.057  19.448
 2868SOL    HW220484   1.523   1.919  19.511
 2869SOL     OW20485   1.715   4.253   0.285
 2869SOL    HW120486   1.672   4.277   0.203
 2869SOL    HW220487   1.754   4.168   0.267
 2870SOL     OW20488   3.348   3.680   1.273
 2870SOL    HW120489   3.293   3.706   1.199
 2870SOL    HW220490   3.344   3.754   1.334
 2871SOL     OW20491   1.412   2.251   3.399
 2871SOL    HW120492   1.483   2.314   3.387
 2871SOL    HW220493   1.415   2.197   3.320
 2872SOL     OW20494   1.118   4.417  20.801
 2872SOL    HW120495   1.189   4.447  20.745
 2872SOL    HW220496   1.090   4.495  20.848
 2873SOL     OW20497   1.991   4.782   6.466
 2873SOL    HW120498   2.032   4.712   6.518
 2873SOL    HW220499   2.017   4.764   6.376
 2874SOL     OW20500   1.563   4.131  16.013
 2874SOL    HW120501   1.572   4.185  16.092
 2874SOL    HW220502   1.653   4.110  15.989
 2875SOL     OW20503   4.039   2.677   2.963
 2875SOL    HW120504   3.975   2.720   2.908
 2875SOL    HW220505   4.007   2.587   2.972
 2876SOL     OW20506   2.579   1.770   6.406
 2876SOL    HW120507   2.520   1.828   6.455
 2876SOL    HW220508   2.525   1.737   6.335
 2877SOL     OW20509   3.728   2.334   8.847
 2877SOL    HW120510   3.666   2.303   8.781
 2877SOL    HW220511   3.695   2.299   8.930
 2878SOL     OW20512   3.621   3.827   0.077
 2878SOL    HW120513   3.669   3.849  21.261
 2878SOL    HW220514   3.639   3.734   0.091
 2879SOL     OW20515   3.792   1.232   3.386
 2879SOL    HW120516   3.792   1.266   3.476
 2879SOL    HW220517   3.702   1.200   3.373
 2880SOL     OW20518   3.418   0.383  19.852
 2880SOL    HW120519   3.357   0.317  19.886
 2880SOL    HW220520   3.454   0.343  19.773
 2881SOL     OW20521   0.310   3.201  17.781
 2881SOL    HW120522   0.359   3.283  17.796
 2881SOL    HW220523   0.377   3.137  17.756
 2882SOL     OW20524   4.470   1.294  20.089
 2882SOL    HW120525   4.461   1.370  20.032
 2882SOL    HW220526   4.446   1.219  20.033
 2883SOL     OW20527   3.405   2.912  19.317
 2883SOL    HW120528   3.321   2.904  19.363
 2883SOL    HW220529   3.385   2.887  19.227
 2884SOL     OW20530   1.696   1.397   4.931
 2884SOL    HW120531   1.685   1.332   4.862
 2884SOL    HW220532   1.720   1.346   5.009
 2885SOL     OW20533   1.653   0.362   1.879
 2885SOL    HW120534   1.685   0.340   1.792
 2885SOL    HW220535   1.558   0.362   1.870
 2886SOL     OW20536   1.466   1.489   0.050
 2886SOL    HW120537   1.385   1.535   0.069
 2886SOL    HW220538   1.527   1.518   0.118
 2887SOL     OW20539   3.319   3.988  16.587
 2887SOL    HW120540   3.374   3.995  16.664
 2887SOL    HW220541   3.311   4.078  16.555
 2888SOL     OW20542   3.673   3.586   0.424
 2888SOL    HW120543   3.624   3.662   0.455
 2888SOL    HW220544   3.745   3.622   0.373
 2889SOL     OW20545   2.944   2.738   4.030
 2889SOL    HW120546   3.003   2.810   4.006
 2889SOL    HW220547   2.862   2.759   3.986
 2890SOL     OW20548   1.846   0.292   5.758
 2890SOL    HW120549   1.829   0.246   5.840
 2890SOL    HW220550   1.907   0.362   5.782
 2891SOL     OW20551   0.431   1.903  14.188
 2891SOL    HW120552   0.417   1.941  14.275
 2891SOL    HW220553   0.514   1.941  14.159
 2892SOL     OW20554   4.547   1.774   2.653
 2892SOL    HW120555   4.530   1.855   2.604
 2892SOL    HW220556   4.510   1.791   2.739
 2893SOL     OW20557   4.782   4.567   7.300
 2893SOL    HW120558   4.752   4.544   7.388
 2893SOL    HW220559   4.740   4.651   7.282
 2894SOL     OW20560   3.747   0.859  14.988
 2894SOL    HW120561   3.812   0.862  14.918
 2894SOL    HW220562   3.732   0.765  15.002
 2895SOL     OW20563   2.817   1.421  17.265
 2895SOL    HW120564   2.898   1.472  17.261
 2895SOL    HW220565   2.762   1.459  17.196
 2896SOL     OW20566   1.399   2.571  18.499
 2896SOL    HW120567   1.467   2.629  18.533
 2896SOL    HW220568   1.345   2.627  18.443
 2897SOL     OW20569   3.090   0.045  15.638
 2897SOL    HW120570   3.052   0.097  15.567
 2897SOL    HW220571   3.080   4.745  15.609
 2898SOL     OW20572   4.038   0.298  20.745
 2898SOL    HW120573   3.957   0.339  20.717
 2898SOL    HW220574   4.019   0.266  20.834
 2899SOL     OW20575   1.028   2.145  14.859
 2899SOL    HW120576   0.997   2.205  14.926
 2899SOL    HW220577   1.109   2.185  14.827
 2900SOL     OW20578   4.667   0.306   2.221
 2900SOL    HW120579   4.643   0.264   2.138
 2900SOL    HW220580   4.719   0.240   2.267
 2901SOL     OW20581   3.516   4.211  18.262
 2901SOL    HW120582   3.487   4.267  18.190
 2901SOL    HW220583   3.528   4.125  18.221
 2902SOL     OW20584   1.397   3.601  17.412
 2902SOL    HW120585   1.407   3.677  17.469
 2902SOL    HW220586   1.486   3.567  17.401
 2903SOL     OW20587   1.226   2.152  21.226
 2903SOL    HW120588   1.213   2.097   0.040
 2903SOL    HW220589   1.204   2.094  21.152
 2904SOL     OW20590   0.344   0.158  19.251
 2904SOL    HW120591   0.285   0.117  19.188
 2904SOL    HW220592   0.417   0.191  19.199
 2905SOL     OW20593   3.183   2.712  13.572
 2905SOL    HW120594   3.205   2.801  13.544
 2905SOL    HW220595   3.262   2.661  13.556
 2906SOL     OW20596   0.702   1.873  16.750
 2906SOL    HW120597   0.665   1.946  16.799
 2906SOL    HW220598   0.776   1.911  16.704
 2907SOL     OW20599   3.059   0.191  17.971
 2907SOL    HW120600   3.085   0.210  17.881
 2907SOL    HW220601   2.976   0.237  17.982
 2908SOL     OW20602   0.985   2.208  20.879
 2908SOL    HW120603   0.957   2.217  20.970
 2908SOL    HW220604   1.025   2.292  20.858
 2909SOL     OW20605   0.046   0.170   0.013
 2909SOL    HW120606   0.009   0.087   0.044
 2909SOL    HW220607   0.140   0.152   0.004
 2910SOL     OW20608   4.703   2.323  15.619
 2910SOL    HW120609   4.663   2.334  15.532
 2910SOL    HW220610   4.779   2.381  15.618
 2911SOL     OW20611   0.070   3.593   5.886
 2911SOL    HW120612   0.011   3.667   5.880
 2911SOL    HW220613   0.086   3.583   5.980
 2912SOL     OW20614   3.774   4.712   3.297
 2912SOL    HW120615   3.687   4.747   3.279
 2912SOL    HW220616   3.829   4.743   3.225
 2913SOL     OW20617   2.795   2.434   4.277
 2913SOL    HW120618   2.841   2.398   4.353
 2913SOL    HW220619   2.865   2.455   4.215
 2914SOL     OW20620   4.633   1.916  18.085
 2914SOL    HW120621   4.565   1.903  18.019
 2914SOL    HW220622   4.680   1.833  18.088
 2915SOL     OW20623   0.404   0.520   0.442
 2915SOL    HW120624   0.373   0.508   0.532
 2915SOL    HW220625   0.388   0.436   0.399
 2916SOL     OW20626   4.766   0.886   2.025
 2916SOL    HW120627   0.024   0.967   2.008
 2916SOL    HW220628   0.008   0.856   2.110
 2917SOL     OW20629   1.676   1.875  17.678
 2917SOL    HW120630   1.624   1.829  17.744
 2917SOL    HW220631   1.759   1.893  17.722
 2918SOL     OW20632   0.242   0.176  17.499
 2918SOL    HW120633   0.309   0.235  17.465
 2918SOL    HW220634   0.291   0.108  17.544
 2919SOL     OW20635   3.555   2.507  21.257
 2919SOL    HW120636   3.494   2.493  21.184
 2919SOL    HW220637   3.628   2.449  21.237
 2920SOL     OW20638   0.106   0.817   5.125
 2920SOL    HW120639   0.112   0.885   5.192
 2920SOL    HW220640   0.013   0.816   5.101
 2921SOL     OW20641   4.046   0.469   4.883
 2921SOL    HW120642   4.047   0.430   4.971
 2921SOL    HW220643   3.960   0.449   4.849
 2922SOL     OW20644   1.088   0.354   0.439
 2922SOL    HW120645   1.126   0.398   0.515
 2922SOL    HW220646   1.164   0.323   0.389
 2923SOL     OW20647   1.959   3.556   8.919
 2923SOL    HW120648   2.054   3.545   8.917
 2923SOL    HW220649   1.945   3.649   8.902
 2924SOL     OW20650   1.951   0.177  15.808
 2924SOL    HW120651   1.946   0.115  15.881
 2924SOL    HW220652   1.883   0.147  15.747
 2925SOL     OW20653   4.498   3.420  14.813
 2925SOL    HW120654   4.591   3.441  14.807
 2925SOL    HW220655   4.454   3.492  14.768
 2926SOL     OW20656   3.295   1.313  18.551
 2926SOL    HW120657   3.335   1.371  18.615
 2926SOL    HW220658   3.284   1.230  18.597
 2927SOL     OW20659   0.152   3.939  15.815
 2927SOL    HW120660   0.078   3.879  15.804
 2927SOL    HW220661   0.191   3.912  15.898
 2928SOL     OW20662   0.730   2.356  21.135
 2928SOL    HW120663   0.821   2.360  21.105
 2928SOL    HW220664   0.678   2.372  21.056
 2929SOL     OW20665   3.511   2.656  17.988
 2929SOL    HW120666   3.584   2.673  17.930
 2929SOL    HW220667   3.440   2.712  17.955
 2930SOL     OW20668   4.423   3.662   4.914
 2930SOL    HW120669   4.350   3.608   4.885
 2930SOL    HW220670   4.500   3.605   4.906
 2931SOL     OW20671   3.541   1.157   7.020
 2931SOL    HW120672   3.609   1.225   7.027
 2931SOL    HW220673   3.588   1.075   7.033
 2932SOL     OW20674   1.489   3.292  20.468
 2932SOL    HW120675   1.421   3.312  20.532
 2932SOL    HW220676   1.507   3.375  20.425
 2933SOL     OW20677   3.840   2.862   6.624
 2933SOL    HW120678   3.791   2.780   6.619
 2933SOL    HW220679   3.912   2.852   6.562
 2934SOL     OW20680   2.218   4.486   6.269
 2934SOL    HW120681   2.143   4.496   6.210
 2934SOL    HW220682   2.218   4.393   6.292
 2935SOL     OW20683   3.157   0.659   3.139
 2935SOL    HW120684   3.163   0.609   3.057
 2935SOL    HW220685   3.081   0.715   3.127
 2936SOL     OW20686   4.186   1.271   8.308
 2936SOL    HW120687   4.225   1.187   8.284
 2936SOL    HW220688   4.242   1.336   8.266
 2937SOL     OW20689   1.139   0.294  17.216
 2937SOL    HW120690   1.123   0.299  17.310
 2937SOL    HW220691   1.136   0.384  17.185
 2938SOL     OW20692   4.314   3.112  13.900
 2938SOL    HW120693   4.407   3.099  13.921
 2938SOL    HW220694   4.287   3.028  13.861
 2939SOL     OW20695   0.090   0.004  17.988
 2939SOL    HW120696   0.128   4.721  18.034
 2939SOL    HW220697   0.164   0.043  17.940
 2940SOL     OW20698   1.682   4.234  16.939
 2940SOL    HW120699   1.589   4.216  16.945
 2940SOL    HW220700   1.716   4.168  16.879
 2941SOL     OW20701   2.837   3.315  20.558
 2941SOL    HW120702   2.834   3.220  20.574
 2941SOL    HW220703   2.911   3.346  20.609
 2942SOL     OW20704   3.434   3.424  17.521
 2942SOL    HW120705   3.492   3.446  17.594
 2942SOL    HW220706   3.346   3.445  17.553
 2943SOL     OW20707   2.095   2.483  18.524
 2943SOL    HW120708   2.163   2.417  18.538
 2943SOL    HW220709   2.080   2.521  18.610
 2944SOL     OW20710   2.066   4.230   9.269
 2944SOL    HW120711   2.091   4.322   9.278
 2944SOL    HW220712   2.120   4.198   9.198
 2945SOL     OW20713   2.225   3.590  18.773
 2945SOL    HW120714   2.141   3.551  18.795
 2945SOL    HW220715   2.255   3.630  18.855
 2946SOL     OW20716   3.548   1.879  16.718
 2946SOL    HW120717   3.461   1.895  16.755
 2946SOL    HW220718   3.578   1.799  16.762
 2947SOL     OW20719   1.952   4.402   9.827
 2947SOL    HW120720   1.875   4.352   9.856
 2947SOL    HW220721   2.001   4.340   9.773
 2948SOL     OW20722   0.920   4.300  12.210
 2948SOL    HW120723   0.830   4.268  12.203
 2948SOL    HW220724   0.974   4.222  12.197
 2949SOL     OW20725   1.876   3.118  13.799
 2949SOL    HW120726   1.919   3.065  13.732
 2949SOL    HW220727   1.947   3.144  13.857
 2950SOL     OW20728   1.915   2.772  18.200
 2950SOL    HW120729   1.942   2.795  18.111
 2950SOL    HW220730   1.891   2.679  18.195
 2951SOL     OW20731   4.769   0.889  17.556
 2951SOL    HW120732   4.707   0.821  17.583
 2951SOL    HW220733   0.052   0.878  17.615
 2952SOL     OW20734   4.627   1.714  15.494
 2952SOL    HW120735   4.577   1.778  15.545
 2952SOL    HW220736   4.595   1.725  15.404
 2953SOL     OW20737   2.751   3.497  15.557
 2953SOL    HW120738   2.675   3.540  15.518
 2953SOL    HW220739   2.785   3.439  15.489
 2954SOL     OW20740   3.375   4.755  19.501
 2954SOL    HW120741   3.368   4.772  19.595
 2954SOL    HW220742   3.361   4.660  19.494
 2955SOL     OW20743   1.333   3.858  19.974
 2955SOL    HW120744   1.398   3.926  19.958
 2955SOL    HW220745   1.344   3.836  20.067
 2956SOL     OW20746   0.006   1.183  16.253
 2956SOL    HW120747   4.788   1.262  16.306
 2956SOL    HW220748   4.727   1.125  16.284
 2957SOL     OW20749   1.865   2.250  14.133
 2957SOL    HW120750   1.812   2.201  14.196
 2957SOL    HW220751   1.815   2.244  14.051
 2958SOL     OW20752   2.607   4.564  19.586
 2958SOL    HW120753   2.567   4.533  19.505
 2958SOL    HW220754   2.644   4.485  19.626
 2959SOL     OW20755   3.797   0.877  18.149
 2959SOL    HW120756   3.705   0.878  18.176
 2959SOL    HW220757   3.795   0.862  18.055
 2960SOL     OW20758   0.509   4.346   3.997
 2960SOL    HW120759   0.559   4.427   3.995
 2960SOL    HW220760   0.477   4.339   4.087
 2961SOL     OW20761   1.086   0.306  11.774
 2961SOL    HW120762   1.171   0.263  11.776
 2961SOL    HW220763   1.102   0.389  11.730
 2962SOL     OW20764   1.750   3.694   3.347
 2962SOL    HW120765   1.785   3.619   3.396
 2962SOL    HW220766   1.676   3.658   3.298
 2963SOL     OW20767   4.609   4.018   2.105
 2963SOL    HW120768   4.620   4.111   2.125
 2963SOL    HW220769   4.677   3.974   2.157
 2964SOL     OW20770   1.415   1.733   4.665
 2964SOL    HW120771   1.436   1.681   4.742
 2964SOL    HW220772   1.327   1.767   4.683
 2965SOL     OW20773   2.184   0.724  18.362
 2965SOL    HW120774   2.185   0.766  18.276
 2965SOL    HW220775   2.234   0.784  18.418
 2966SOL     OW20776   4.393   1.844   4.522
 2966SOL    HW120777   4.414   1.755   4.493
 2966SOL    HW220778   4.466   1.868   4.579
 2967SOL     OW20779   4.548   0.120   4.748
 2967SOL    HW120780   4.455   0.122   4.769
 2967SOL    HW220781   4.561   0.035   4.706
 2968SOL     OW20782   2.847   1.399   7.662
 2968SOL    HW120783   2.768   1.380   7.712
 2968SOL    HW220784   2.916   1.407   7.727
 2969SOL     OW20785   2.443   2.565  16.495
 2969SOL    HW120786   2.530   2.577  16.533
 2969SOL    HW220787   2.394   2.642  16.524
 2970SOL     OW20788   1.711   3.874  21.000
 2970SOL    HW120789   1.684   3.785  21.021
 2970SOL    HW220790   1.782   3.863  20.937
 2971SOL     OW20791   2.631   3.211   2.403
 2971SOL    HW120792   2.614   3.117   2.408
 2971SOL    HW220793   2.613   3.244   2.492
 2972SOL     OW20794   1.648   4.642  13.275
 2972SOL    HW120795   1.591   4.576  13.236
 2972SOL    HW220796   1.623   4.724  13.232
 2973SOL     OW20797   3.904   1.337   4.233
 2973SOL    HW120798   3.860   1.408   4.279
 2973SOL    HW220799   3.841   1.307   4.168
 2974SOL     OW20800   4.426   0.135   2.437
 2974SOL    HW120801   4.508   0.184   2.429
 2974SOL    HW220802   4.375   0.159   2.360
 2975SOL     OW20803   3.076   3.769  19.055
 2975SOL    HW120804   3.060   3.781  18.961
 2975SOL    HW220805   3.067   3.856  19.092
 2976SOL     OW20806   0.318   2.389   8.204
 2976SOL    HW120807   0.239   2.385   8.151
 2976SOL    HW220808   0.296   2.343   8.285
 2977SOL     OW20809   3.976   3.742  17.142
 2977SOL    HW120810   4.016   3.679  17.203
 2977SOL    HW220811   3.898   3.773  17.188
 2978SOL     OW20812   4.585   2.124  19.108
 2978SOL    HW120813   4.595   2.155  19.198
 2978SOL    HW220814   4.594   2.202  19.054
 2979SOL     OW20815   3.554   4.184   7.837
 2979SOL    HW120816   3.472   4.190   7.887
 2979SOL    HW220817   3.525   4.170   7.747
 2980SOL     OW20818   3.933   1.726   6.572
 2980SOL    HW120819   3.962   1.648   6.619
 2980SOL    HW220820   3.847   1.746   6.609
 2981SOL     OW20821   4.212   1.127  17.500
 2981SOL    HW120822   4.175   1.061  17.441
 2981SOL    HW220823   4.253   1.077  17.570
 2982SOL     OW20824   0.842   3.090   5.480
 2982SOL    HW120825   0.757   3.121   5.509
 2982SOL    HW220826   0.823   3.011   5.430
 2983SOL     OW20827   1.495   2.237  21.105
 2983SOL    HW120828   1.412   2.225  21.152
 2983SOL    HW220829   1.476   2.210  21.015
 2984SOL     OW20830   1.337   4.605  17.661
 2984SOL    HW120831   1.354   4.557  17.743
 2984SOL    HW220832   1.371   4.693  17.678
 2985SOL     OW20833   2.289   4.470  18.496
 2985SOL    HW120834   2.250   4.523  18.427
 2985SOL    HW220835   2.223   4.403  18.516
 2986SOL     OW20836   2.549   3.975  15.747
 2986SOL    HW120837   2.469   3.928  15.723
 2986SOL    HW220838   2.517   4.060  15.778
 2987SOL     OW20839   2.257   2.224   3.092
 2987SOL    HW120840   2.334   2.197   3.143
 2987SOL    HW220841   2.270   2.317   3.077
 2988SOL     OW20842   4.634   2.396   4.201
 2988SOL    HW120843   4.689   2.434   4.269
 2988SOL    HW220844   4.685   2.404   4.121
 2989SOL     OW20845   2.434   1.738  14.234
 2989SOL    HW120846   2.471   1.683  14.165
 2989SOL    HW220847   2.501   1.739  14.302
 2990SOL     OW20848   0.270   4.232  13.777
 2990SOL    HW120849   0.268   4.139  13.801
 2990SOL    HW220850   0.363   4.253  13.771
 2991SOL     OW20851   1.338   3.603  15.574
 2991SOL    HW120852   1.404   3.534  15.573
 2991SOL    HW220853   1.287   3.586  15.654
 2992SOL     OW20854   1.323   2.111   1.462
 2992SOL    HW120855   1.290   2.127   1.550
 2992SOL    HW220856   1.245   2.098   1.409
 2993SOL     OW20857   0.247   1.720   4.107
 2993SOL    HW120858   0.332   1.762   4.094
 2993SOL    HW220859   0.263   1.655   4.176
 2994SOL     OW20860   3.236   0.306  18.380
 2994SOL    HW120861   3.182   0.384  18.388
 2994SOL    HW220862   3.299   0.312  18.452
 2995SOL     OW20863   3.641   1.641   2.586
 2995SOL    HW120864   3.570   1.577   2.579
 2995SOL    HW220865   3.600   1.725   2.567
 2996SOL     OW20866   0.695   0.282  17.903
 2996SOL    HW120867   0.608   0.275  17.943
 2996SOL    HW220868   0.686   0.237  17.819
 2997SOL     OW20869   0.726   1.379   5.085
 2997SOL    HW120870   0.790   1.406   5.020
 2997SOL    HW220871   0.689   1.298   5.050
 2998SOL     OW20872   1.760   0.795   0.895
 2998SOL    HW120873   1.714   0.874   0.868
 2998SOL    HW220874   1.691   0.740   0.933
 2999SOL     OW20875   0.156   1.285  19.974
 2999SOL    HW120876   0.203   1.222  19.920
 2999SOL    HW220877   0.085   1.236  20.013
 3000SOL     OW20878   3.376   1.939   0.056
 3000SOL    HW120879   3.465   1.975   0.053
 3000SOL    HW220880   3.368   1.887  21.239
 3001SOL     OW20881   4.350   2.195   0.930
 3001SOL    HW120882   4.421   2.234   0.980
 3001SOL    HW220883   4.312   2.268   0.881
 3002SOL     OW20884   3.512   2.486   8.104
 3002SOL    HW120885   3.422   2.473   8.134
 3002SOL    HW220886   3.509   2.565   8.050
 3003SOL     OW20887   3.161   2.623   0.696
 3003SOL    HW120888   3.205   2.671   0.766
 3003SOL    HW220889   3.150   2.688   0.626
 3004SOL     OW20890   3.976   0.206   0.690
 3004SOL    HW120891   4.065   0.227   0.717
 3004SOL    HW220892   3.949   0.280   0.636
 3005SOL     OW20893   1.044   4.765   4.603
 3005SOL    HW120894   1.057   4.690   4.545
 3005SOL    HW220895   1.107   0.039   4.570
 3006SOL     OW20896   0.526   2.066  18.314
 3006SOL    HW120897   0.612   2.067  18.274
 3006SOL    HW220898   0.530   1.996  18.379
 3007SOL     OW20899   2.761   2.669   3.241
 3007SOL    HW120900   2.726   2.649   3.154
 3007SOL    HW220901   2.691   2.645   3.301
 3008SOL     OW20902   2.665   0.761   0.569
 3008SOL    HW120903   2.630   0.777   0.657
 3008SOL    HW220904   2.593   0.719   0.522
 3009SOL     OW20905   0.718   3.596  19.240
 3009SOL    HW120906   0.704   3.536  19.313
 3009SOL    HW220907   0.631   3.617  19.209
 3010SOL     OW20908   2.498   4.364   2.358
 3010SOL    HW120909   2.506   4.323   2.272
 3010SOL    HW220910   2.435   4.310   2.405
 3011SOL     OW20911   3.318   3.885   1.492
 3011SOL    HW120912   3.259   3.949   1.453
 3011SOL    HW220913   3.395   3.936   1.518
 3012SOL     OW20914   0.076   2.445  17.258
 3012SOL    HW120915   0.063   2.539  17.241
 3012SOL    HW220916   0.170   2.437  17.277
 3013SOL     OW20917   1.037   0.593   3.031
 3013SOL    HW120918   1.073   0.528   2.970
 3013SOL    HW220919   0.955   0.556   3.061
 3014SOL     OW20920   0.273   1.060  17.142
 3014SOL    HW120921   0.199   1.112  17.110
 3014SOL    HW220922   0.268   0.978  17.093
 3015SOL     OW20923   4.011   4.462   2.482
 3015SOL    HW120924   4.072   4.528   2.451
 3015SOL    HW220925   3.960   4.505   2.550
 3016SOL     OW20926   3.128   3.208  16.290
 3016SOL    HW120927   3.183   3.286  16.287
 3016SOL    HW220928   3.071   3.221  16.366
 3017SOL     OW20929   0.919   2.647   2.733
 3017SOL    HW120930   0.937   2.613   2.821
 3017SOL    HW220931   0.918   2.742   2.744
 3018SOL     OW20932   4.001   4.707  20.721
 3018SOL    HW120933   3.930   4.736  20.778
 3018SOL    HW220934   4.014   4.780  20.661
 3019SOL     OW20935   0.438   0.913  19.383
 3019SOL    HW120936   0.345   0.893  19.388
 3019SOL    HW220937   0.475   0.844  19.327
 3020SOL     OW20938   4.434   0.091  14.992
 3020SOL    HW120939   4.402   0.032  14.924
 3020SOL    HW220940   4.446   0.035  15.069
 3021SOL     OW20941   0.850   1.236  20.768
 3021SOL    HW120942   0.802   1.211  20.847
 3021SOL    HW220943   0.932   1.187  20.773
 3022SOL     OW20944   0.657   1.762   2.967
 3022SOL    HW120945   0.607   1.840   2.992
 3022SOL    HW220946   0.719   1.750   3.038
 3023SOL     OW20947   4.735   0.570  17.916
 3023SOL    HW120948   4.720   0.630  17.844
 3023SOL    HW220949   4.663   0.585  17.976
 3024SOL     OW20950   3.284   0.618  18.602
 3024SOL    HW120951   3.207   0.648  18.554
 3024SOL    HW220952   3.255   0.611  18.693
 3025SOL     OW20953   4.094   0.648  16.949
 3025SOL    HW120954   4.086   0.743  16.941
 3025SOL    HW220955   4.065   0.614  16.864
 3026SOL     OW20956   0.917   1.607   4.170
 3026SOL    HW120957   0.952   1.536   4.116
 3026SOL    HW220958   0.991   1.635   4.224
 3027SOL     OW20959   4.019   0.249   5.063
 3027SOL    HW120960   3.957   0.296   5.118
 3027SOL    HW220961   4.087   0.219   5.123
 3028SOL     OW20962   2.545   1.929  20.138
 3028SOL    HW120963   2.469   1.985  20.155
 3028SOL    HW220964   2.548   1.919  20.043
 3029SOL     OW20965   4.656   3.671  20.305
 3029SOL    HW120966   4.697   3.739  20.358
 3029SOL    HW220967   4.564   3.697  20.300
 3030SOL     OW20968   3.148   3.901   0.299
 3030SOL    HW120969   3.170   3.961   0.228
 3030SOL    HW220970   3.088   3.838   0.260
 3031SOL     OW20971   3.370   0.792   1.052
 3031SOL    HW120972   3.387   0.865   0.992
 3031SOL    HW220973   3.444   0.792   1.112
 3032SOL     OW20974   4.302   1.913  17.425
 3032SOL    HW120975   4.349   1.844  17.472
 3032SOL    HW220976   4.212   1.883  17.422
 3033SOL     OW20977   3.990   0.185  21.010
 3033SOL    HW120978   4.075   0.157  21.046
 3033SOL    HW220979   3.940   0.104  21.002
 3034SOL     OW20980   3.011   3.086  15.253
 3034SOL    HW120981   3.045   3.112  15.168
 3034SOL    HW220982   2.995   3.168  15.299
 3035SOL     OW20983   2.720   0.425  19.607
 3035SOL    HW120984   2.762   0.464  19.683
 3035SOL    HW220985   2.639   0.387  19.641
 3036SOL     OW20986   2.920   2.480  14.652
 3036SOL    HW120987   2.869   2.485  14.572
 3036SOL    HW220988   2.893   2.556  14.703
 3037SOL     OW20989   0.441   0.609   0.065
 3037SOL    HW120990   0.376   0.551   0.105
 3037SOL    HW220991   0.519   0.599   0.120
 3038SOL     OW20992   3.543   1.653  19.711
 3038SOL    HW120993   3.453   1.625  19.728
 3038SOL    HW220994   3.597   1.594  19.763
 3039SOL     OW20995   2.842   3.181  14.791
 3039SOL    HW120996   2.909   3.247  14.772
 3039SOL    HW220997   2.809   3.156  14.705
 3040SOL     OW20998   2.442   2.702  14.791
 3040SOL    HW120999   2.456   2.763  14.718
 3040SOL    HW221000   2.483   2.745  14.866
 3041SOL     OW21001   0.738   1.532  20.028
 3041SOL    HW121002   0.737   1.554  20.121
 3041SOL    HW221003   0.662   1.577  19.992
 3042SOL     OW21004   2.039   0.050   7.973
 3042SOL    HW121005   2.024   0.136   7.935
 3042SOL    HW221006   2.118   0.061   8.027
 3043SOL     OW21007   3.271   2.955   6.128
 3043SOL    HW121008   3.306   2.995   6.049
 3043SOL    HW221009   3.259   3.028   6.189
 3044SOL     OW21010   2.541   3.018   1.979
 3044SOL    HW121011   2.526   2.999   1.886
 3044SOL    HW221012   2.604   2.951   2.007
 3045SOL     OW21013   0.655   4.189   5.284
 3045SOL    HW121014   0.738   4.233   5.267
 3045SOL    HW221015   0.624   4.161   5.198
 3046SOL     OW21016   0.978   1.681   3.392
 3046SOL    HW121017   1.014   1.594   3.374
 3046SOL    HW221018   0.889   1.678   3.357
 3047SOL     OW21019   2.354   1.003   9.668
 3047SOL    HW121020   2.353   0.929   9.729
 3047SOL    HW221021   2.327   0.965   9.585
 3048SOL     OW21022   0.768   3.492   6.222
 3048SOL    HW121023   0.721   3.446   6.152
 3048SOL    HW221024   0.716   3.477   6.301
 3049SOL     OW21025   3.582   1.056   3.999
 3049SOL    HW121026   3.587   0.968   3.961
 3049SOL    HW221027   3.491   1.064   4.028
 3050SOL     OW21028   0.814   0.412   3.541
 3050SOL    HW121029   0.734   0.413   3.487
 3050SOL    HW221030   0.858   0.494   3.519
 3051SOL     OW21031   4.233   2.850   4.439
 3051SOL    HW121032   4.211   2.768   4.485
 3051SOL    HW221033   4.181   2.847   4.359
 3052SOL     OW21034   2.571   0.791  16.472
 3052SOL    HW121035   2.488   0.781  16.425
 3052SOL    HW221036   2.633   0.818  16.404
 3053SOL     OW21037   2.509   0.065  14.543
 3053SOL    HW121038   2.455   0.018  14.479
 3053SOL    HW221039   2.585   0.008  14.556
 3054SOL     OW21040   3.795   0.223   8.169
 3054SOL    HW121041   3.834   0.161   8.107
 3054SOL    HW221042   3.812   0.309   8.130
 3055SOL     OW21043   2.684   2.751   3.908
 3055SOL    HW121044   2.719   2.697   3.838
 3055SOL    HW221045   2.614   2.699   3.948
 3056SOL     OW21046   4.621   2.098   3.034
 3056SOL    HW121047   4.659   2.034   2.974
 3056SOL    HW221048   4.692   2.120   3.095
 3057SOL     OW21049   0.117   1.762   6.063
 3057SOL    HW121050   0.031   1.733   6.094
 3057SOL    HW221051   0.177   1.691   6.086
 3058SOL     OW21052   3.214   2.261   2.141
 3058SOL    HW121053   3.176   2.341   2.176
 3058SOL    HW221054   3.267   2.290   2.067
 3059SOL     OW21055   3.800   3.387   9.132
 3059SOL    HW121056   3.816   3.481   9.119
 3059SOL    HW221057   3.832   3.347   9.051
 3060SOL     OW21058   3.032   1.299   6.504
 3060SOL    HW121059   3.023   1.358   6.429
 3060SOL    HW221060   3.042   1.358   6.579
 3061SOL     OW21061   3.494   3.580  19.740
 3061SOL    HW121062   3.512   3.673  19.728
 3061SOL    HW221063   3.454   3.573  19.826
 3062SOL     OW21064   0.693   0.867  15.946
 3062SOL    HW121065   0.664   0.955  15.921
 3062SOL    HW221066   0.752   0.881  16.020
 3063SOL     OW21067   3.730   1.164   1.177
 3063SOL    HW121068   3.697   1.126   1.096
 3063SOL    HW221069   3.653   1.205   1.217
 3064SOL     OW21070   0.767   0.910  18.932
 3064SOL    HW121071   0.781   0.870  19.018
 3064SOL    HW221072   0.768   1.004  18.949
 3065SOL     OW21073   1.527   3.202   4.590
 3065SOL    HW121074   1.609   3.152   4.593
 3065SOL    HW221075   1.459   3.138   4.611
 3066SOL     OW21076   1.359   3.482  17.111
 3066SOL    HW121077   1.340   3.508  17.021
 3066SOL    HW221078   1.386   3.564  17.154
 3067SOL     OW21079   3.262   3.428  15.172
 3067SOL    HW121080   3.237   3.447  15.263
 3067SOL    HW221081   3.277   3.514  15.134
 3068SOL     OW21082   3.156   0.695  17.401
 3068SOL    HW121083   3.070   0.703  17.442
 3068SOL    HW221084   3.216   0.736  17.463
 3069SOL     OW21085   4.408   1.612  19.955
 3069SOL    HW121086   4.477   1.564  19.911
 3069SOL    HW221087   4.438   1.623  20.045
 3070SOL     OW21088   3.718   0.542  15.316
 3070SOL    HW121089   3.727   0.633  15.345
 3070SOL    HW221090   3.778   0.493  15.372
 3071SOL     OW21091   1.202   4.626  19.587
 3071SOL    HW121092   1.151   4.644  19.666
 3071SOL    HW221093   1.155   4.555  19.543
 3072SOL     OW21094   1.107   3.337  13.701
 3072SOL    HW121095   1.043   3.344  13.630
 3072SOL    HW221096   1.185   3.378  13.666
 3073SOL     OW21097   1.759   1.184  19.802
 3073SOL    HW121098   1.689   1.146  19.750
 3073SOL    HW221099   1.839   1.145  19.767
 3074SOL     OW21100   3.128   2.340  17.759
 3074SOL    HW121101   3.202   2.294  17.800
 3074SOL    HW221102   3.124   2.424  17.805
 3075SOL     OW21103   1.348   3.611  16.214
 3075SOL    HW121104   1.330   3.704  16.231
 3075SOL    HW221105   1.264   3.568  16.226
 3076SOL     OW21106   0.755   0.663  21.176
 3076SOL    HW121107   0.705   0.703  21.105
 3076SOL    HW221108   0.710   0.581  21.194
 3077SOL     OW21109   3.916   1.281  16.129
 3077SOL    HW121110   3.824   1.283  16.101
 3077SOL    HW221111   3.918   1.215  16.199
 3078SOL     OW21112   3.167   3.921   3.021
 3078SOL    HW121113   3.102   3.897   2.954
 3078SOL    HW221114   3.207   3.837   3.046
 3079SOL     OW21115   1.287   1.948  19.271
 3079SOL    HW121116   1.281   2.020  19.207
 3079SOL    HW221117   1.367   1.966  19.320
 3080SOL     OW21118   0.653   1.809  19.781
 3080SOL    HW121119   0.632   1.856  19.700
 3080SOL    HW221120   0.640   1.717  19.759
 3081SOL     OW21121   3.623   2.250   4.218
 3081SOL    HW121122   3.538   2.293   4.230
 3081SOL    HW221123   3.602   2.167   4.175
 3082SOL     OW21124   3.464   3.497   6.110
 3082SOL    HW121125   3.385   3.518   6.061
 3082SOL    HW221126   3.434   3.438   6.179
 3083SOL     OW21127   0.578   2.859  20.331
 3083SOL    HW121128   0.590   2.939  20.278
 3083SOL    HW221129   0.565   2.891  20.420
 3084SOL     OW21130   3.054   1.437  17.089
 3084SOL    HW121131   3.012   1.372  17.146
 3084SOL    HW221132   2.982   1.482  17.046
 3085SOL     OW21133   1.834   1.351  16.425
 3085SOL    HW121134   1.897   1.342  16.497
 3085SOL    HW221135   1.864   1.429  16.377
 3086SOL     OW21136   0.152   4.547   0.768
 3086SOL    HW121137   0.129   4.460   0.801
 3086SOL    HW221138   0.077   4.574   0.716
 3087SOL     OW21139   0.506   4.409   5.395
 3087SOL    HW121140   0.559   4.335   5.364
 3087SOL    HW221141   0.416   4.382   5.380
 3088SOL     OW21142   2.601   2.504   1.389
 3088SOL    HW121143   2.686   2.460   1.389
 3088SOL    HW221144   2.580   2.514   1.482
 3089SOL     OW21145   3.088   0.887  14.534
 3089SOL    HW121146   3.173   0.931  14.526
 3089SOL    HW221147   3.046   0.928  14.610
 3090SOL     OW21148   3.506   2.769  16.528
 3090SOL    HW121149   3.536   2.679  16.520
 3090SOL    HW221150   3.539   2.813  16.450
 3091SOL     OW21151   2.299   4.745  18.054
 3091SOL    HW121152   2.245   0.028  18.080
 3091SOL    HW221153   2.377   4.752  18.109
 3092SOL     OW21154   0.620   1.375   2.465
 3092SOL    HW121155   0.603   1.281   2.459
 3092SOL    HW221156   0.618   1.394   2.559
 3093SOL     OW21157   0.871   3.746  19.993
 3093SOL    HW121158   0.807   3.727  20.061
 3093SOL    HW221159   0.855   3.838  19.970
 3094SOL     OW21160   0.373   2.430   7.725
 3094SOL    HW121161   0.331   2.351   7.691
 3094SOL    HW221162   0.464   2.423   7.696
 3095SOL     OW21163   1.559   2.757  13.677
 3095SOL    HW121164   1.578   2.838  13.725
 3095SOL    HW221165   1.642   2.709  13.678
 3096SOL     OW21166   1.300   0.772  16.532
 3096SOL    HW121167   1.280   0.680  16.550
 3096SOL    HW221168   1.215   0.815  16.535
 3097SOL     OW21169   2.981   2.766  16.198
 3097SOL    HW121170   2.925   2.720  16.260
 3097SOL    HW221171   3.014   2.697  16.139
 3098SOL     OW21172   3.000   3.978  18.527
 3098SOL    HW121173   3.093   3.963  18.511
 3098SOL    HW221174   2.959   3.894  18.508
 3099SOL     OW21175   2.134   4.767   2.106
 3099SOL    HW121176   2.143   0.071   2.120
 3099SOL    HW221177   2.078   4.759   2.029
 3100SOL     OW21178   0.153   3.081  20.351
 3100SOL    HW121179   0.124   3.172  20.362
 3100SOL    HW221180   0.142   3.064  20.258
 3101SOL     OW21181   2.435   1.970  21.194
 3101SOL    HW121182   2.468   2.060  21.189
 3101SOL    HW221183   2.359   1.969  21.136
 3102SOL     OW21184   2.664   1.444   3.044
 3102SOL    HW121185   2.739   1.447   3.103
 3102SOL    HW221186   2.694   1.489   2.965
 3103SOL     OW21187   4.601   0.898  16.403
 3103SOL    HW121188   4.671   0.932  16.459
 3103SOL    HW221189   4.623   0.806  16.391
 3104SOL     OW21190   0.689   3.202   0.570
 3104SOL    HW121191   0.735   3.182   0.488
 3104SOL    HW221192   0.695   3.121   0.621
 3105SOL     OW21193   1.397   2.136  18.206
 3105SOL    HW121194   1.432   2.124  18.295
 3105SOL    HW221195   1.351   2.054  18.188
 3106SOL     OW21196   0.309   0.230   6.060
 3106SOL    HW121197   0.276   0.146   6.091
 3106SOL    HW221198   0.370   0.207   5.990
 3107SOL     OW21199   2.860   0.963   4.187
 3107SOL    HW121200   2.908   0.982   4.268
 3107SOL    HW221201   2.918   0.907   4.137
 3108SOL     OW21202   2.728   3.755   4.597
 3108SOL    HW121203   2.717   3.663   4.575
 3108SOL    HW221204   2.708   3.801   4.516
 3109SOL     OW21205   3.569   2.089  14.865
 3109SOL    HW121206   3.590   2.000  14.835
 3109SOL    HW221207   3.515   2.075  14.943
 3110SOL     OW21208   2.525   1.083   6.490
 3110SOL    HW121209   2.619   1.091   6.470
 3110SOL    HW221210   2.511   1.144   6.562
 3111SOL     OW21211   1.039   4.662  20.933
 3111SOL    HW121212   0.989   4.741  20.914
 3111SOL    HW221213   1.064   4.671  21.025
 3112SOL     OW21214   2.898   2.479  11.551
 3112SOL    HW121215   2.986   2.472  11.514
 3112SOL    HW221216   2.912   2.480  11.646
 3113SOL     OW21217   0.517   4.327   1.753
 3113SOL    HW121218   0.607   4.302   1.732
 3113SOL    HW221219   0.526   4.410   1.799
 3114SOL     OW21220   3.028   0.917   3.113
 3114SOL    HW121221   3.049   0.973   3.188
 3114SOL    HW221222   3.102   0.928   3.053
 3115SOL     OW21223   3.675   3.769   1.376
 3115SOL    HW121224   3.635   3.848   1.339
 3115SOL    HW221225   3.733   3.738   1.307
 3116SOL     OW21226   4.461   3.369  17.399
 3116SOL    HW121227   4.439   3.374  17.306
 3116SOL    HW221228   4.455   3.460  17.430
 3117SOL     OW21229   2.892   2.423  19.400
 3117SOL    HW121230   2.832   2.485  19.442
 3117SOL    HW221231   2.947   2.391  19.471
 3118SOL     OW21232   4.060   0.067   1.112
 3118SOL    HW121233   4.062   0.016   1.031
 3118SOL    HW221234   4.066   0.158   1.084
 3119SOL     OW21235   3.115   0.241  20.149
 3119SOL    HW121236   3.022   0.255  20.135
 3119SOL    HW221237   3.120   0.190  20.230
 3120SOL     OW21238   3.514   2.355   6.043
 3120SOL    HW121239   3.466   2.400   6.113
 3120SOL    HW221240   3.593   2.408   6.030
 3121SOL     OW21241   1.028   2.898   7.983
 3121SOL    HW121242   1.094   2.863   7.924
 3121SOL    HW221243   1.047   2.857   8.068
 3122SOL     OW21244   1.883   1.293   7.028
 3122SOL    HW121245   1.887   1.208   7.070
 3122SOL    HW221246   1.935   1.350   7.084
 3123SOL     OW21247   0.884   4.365   4.217
 3123SOL    HW121248   0.847   4.363   4.306
 3123SOL    HW221249   0.937   4.285   4.213
 3124SOL     OW21250   4.193   1.454  15.442
 3124SOL    HW121251   4.235   1.400  15.509
 3124SOL    HW221252   4.193   1.543  15.478
 3125SOL     OW21253   3.914   2.896  15.860
 3125SOL    HW121254   3.940   2.823  15.803
 3125SOL    HW221255   3.842   2.937  15.813
 3126SOL     OW21256   4.384   2.788   5.830
 3126SOL    HW121257   4.457   2.732   5.804
 3126SOL    HW221258   4.425   2.867   5.863
 3127SOL     OW21259   3.960   2.826  19.635
 3127SOL    HW121260   4.004   2.810  19.552
 3127SOL    HW221261   4.004   2.902  19.672
 3128SOL     OW21262   1.988   3.667  16.282
 3128SOL    HW121263   1.920   3.731  16.303
 3128SOL    HW221264   2.069   3.705  16.316
 3129SOL     OW21265   0.994   1.018   2.730
 3129SOL    HW121266   1.078   0.996   2.770
 3129SOL    HW221267   0.939   0.941   2.746
 3130SOL     OW21268   4.052   4.299   6.995
 3130SOL    HW121269   4.024   4.381   7.035
 3130SOL    HW221270   4.011   4.299   6.908
 3131SOL     OW21271   4.014   1.494  19.849
 3131SOL    HW121272   4.066   1.502  19.769
 3131SOL    HW221273   4.075   1.458  19.914
 3132SOL     OW21274   4.175   2.633  13.918
 3132SOL    HW121275   4.182   2.565  13.851
 3132SOL    HW221276   4.251   2.619  13.974
 3133SOL     OW21277   3.150   4.660   6.867
 3133SOL    HW121278   3.188   4.692   6.785
 3133SOL    HW221279   3.226   4.635   6.921
 3134SOL     OW21280   0.395   4.594  17.551
 3134SOL    HW121281   0.356   4.589  17.638
 3134SOL    HW221282   0.321   4.586  17.491
 3135SOL     OW21283   2.577   1.304   4.678
 3135SOL    HW121284   2.494   1.349   4.664
 3135SOL    HW221285   2.558   1.241   4.748
 3136SOL     OW21286   2.117   1.068  12.436
 3136SOL    HW121287   2.160   1.141  12.392
 3136SOL    HW221288   2.033   1.059  12.390
 3137SOL     OW21289   4.387   2.673   6.532
 3137SOL    HW121290   4.442   2.682   6.610
 3137SOL    HW221291   4.413   2.589   6.493
 3138SOL     OW21292   2.357   4.157   4.820
 3138SOL    HW121293   2.284   4.158   4.883
 3138SOL    HW221294   2.398   4.242   4.830
 3139SOL     OW21295   3.521   0.316  19.575
 3139SOL    HW121296   3.566   0.273  19.502
 3139SOL    HW221297   3.587   0.371  19.616
 3140SOL     OW21298   0.284   2.017  20.921
 3140SOL    HW121299   0.338   2.083  20.963
 3140SOL    HW221300   0.346   1.946  20.899
 3141SOL     OW21301   1.525   0.482  16.127
 3141SOL    HW121302   1.588   0.420  16.163
 3141SOL    HW221303   1.492   0.440  16.048
 3142SOL     OW21304   3.581   1.552  17.806
 3142SOL    HW121305   3.525   1.592  17.872
 3142SOL    HW221306   3.580   1.459  17.827
 3143SOL     OW21307   0.558   3.441   5.361
 3143SOL    HW121308   0.474   3.485   5.351
 3143SOL    HW221309   0.548   3.358   5.316
 3144SOL     OW21310   1.734   2.126   3.197
 3144SOL    HW121311   1.828   2.142   3.202
 3144SOL    HW221312   1.720   2.047   3.250
 3145SOL     OW21313   3.024   0.081   2.819
 3145SOL    HW121314   2.953   0.048   2.762
 3145SOL    HW221315   2.979   0.131   2.887
 3146SOL     OW21316   4.616   1.418  17.753
 3146SOL    HW121317   4.651   1.502  17.723
 3146SOL    HW221318   4.541   1.401  17.696
 3147SOL     OW21319   0.889   0.292  20.085
 3147SOL    HW121320   0.953   0.340  20.033
 3147SOL    HW221321   0.939   0.255  20.157
 3148SOL     OW21322   3.271   4.180  15.681
 3148SOL    HW121323   3.186   4.161  15.720
 3148SOL    HW221324   3.329   4.198  15.755
 3149SOL     OW21325   3.631   3.694  13.191
 3149SOL    HW121326   3.615   3.778  13.235
 3149SOL    HW221327   3.545   3.651  13.190
 3150SOL     OW21328   3.982   2.692  13.689
 3150SOL    HW121329   3.945   2.606  13.711
 3150SOL    HW221330   3.982   2.694  13.593
 3151SOL     OW21331   1.747   2.912   3.755
 3151SOL    HW121332   1.752   2.827   3.710
 3151SOL    HW221333   1.777   2.975   3.690
 3152SOL     OW21334   4.560   2.731   1.091
 3152SOL    HW121335   4.631   2.776   1.137
 3152SOL    HW221336   4.505   2.801   1.056
 3153SOL     OW21337   1.145   0.946   0.111
 3153SOL    HW121338   1.063   0.897   0.124
 3153SOL    HW221339   1.214   0.887   0.141
 3154SOL     OW21340   1.916   0.808  20.274
 3154SOL    HW121341   1.902   0.865  20.198
 3154SOL    HW221342   1.920   0.720  20.237
 3155SOL     OW21343   1.313   2.400  18.161
 3155SOL    HW121344   1.235   2.373  18.209
 3155SOL    HW221345   1.365   2.321  18.154
 3156SOL     OW21346   2.956   2.850  20.408
 3156SOL    HW121347   2.965   2.755  20.396
 3156SOL    HW221348   3.046   2.883  20.398
 3157SOL     OW21349   1.137   3.750  19.463
 3157SOL    HW121350   1.075   3.745  19.536
 3157SOL    HW221351   1.139   3.662  19.427
 3158SOL     OW21352   3.185   4.113  12.988
 3158SOL    HW121353   3.174   4.083  13.079
 3158SOL    HW221354   3.175   4.208  12.993
 3159SOL     OW21355   2.490   2.537   3.358
 3159SOL    HW121356   2.463   2.471   3.294
 3159SOL    HW221357   2.411   2.590   3.373
 3160SOL     OW21358   2.026   0.289   0.661
 3160SOL    HW121359   2.030   0.293   0.756
 3160SOL    HW221360   2.102   0.237   0.636
 3161SOL     OW21361   1.186   4.094  18.765
 3161SOL    HW121362   1.148   4.122  18.848
 3161SOL    HW221363   1.273   4.134  18.763
 3162SOL     OW21364   1.861   1.992   4.647
 3162SOL    HW121365   1.874   1.938   4.569
 3162SOL    HW221366   1.923   1.957   4.711
 3163SOL     OW21367   2.098   1.288   6.485
 3163SOL    HW121368   2.179   1.333   6.509
 3163SOL    HW221369   2.034   1.358   6.474
 3164SOL     OW21370   0.703   0.420  20.630
 3164SOL    HW121371   0.611   0.418  20.603
 3164SOL    HW221372   0.717   0.335  20.673
 3165SOL     OW21373   1.906   2.775   0.887
 3165SOL    HW121374   1.901   2.797   0.980
 3165SOL    HW221375   1.996   2.794   0.862
 3166SOL     OW21376   3.783   3.378  20.969
 3166SOL    HW121377   3.690   3.362  20.986
 3166SOL    HW221378   3.786   3.405  20.877
 3167SOL     OW21379   2.744   0.912  18.452
 3167SOL    HW121380   2.727   0.873  18.538
 3167SOL    HW221381   2.715   0.846  18.389
 3168SOL     OW21382   2.789   1.071  16.574
 3168SOL    HW121383   2.764   1.125  16.650
 3168SOL    HW221384   2.783   0.981  16.606
 3169SOL     OW21385   0.594   2.021   4.691
 3169SOL    HW121386   0.505   2.013   4.725
 3169SOL    HW221387   0.583   2.041   4.598
 3170SOL     OW21388   0.651   0.516   0.900
 3170SOL    HW121389   0.601   0.466   0.836
 3170SOL    HW221390   0.592   0.526   0.975
 3171SOL     OW21391   4.145   1.184  20.445
 3171SOL    HW121392   4.190   1.268  20.435
 3171SOL    HW221393   4.136   1.173  20.540
 3172SOL     OW21394   4.348   0.733  16.098
 3172SOL    HW121395   4.290   0.685  16.040
 3172SOL    HW221396   4.320   0.708  16.186
 3173SOL     OW21397   2.285   1.937  14.114
 3173SOL    HW121398   2.239   1.954  14.197
 3173SOL    HW221399   2.354   1.874  14.138
 3174SOL     OW21400   0.111   4.240   3.653
 3174SOL    HW121401   0.191   4.270   3.698
 3174SOL    HW221402   0.060   4.198   3.722
 3175SOL     OW21403   1.473   2.579   3.819
 3175SOL    HW121404   1.383   2.596   3.791
 3175SOL    HW221405   1.474   2.487   3.845
 3176SOL     OW21406   0.181   1.357   5.676
 3176SOL    HW121407   0.223   1.273   5.656
 3176SOL    HW221408   0.105   1.360   5.618
 3177SOL     OW21409   0.349   2.354  17.300
 3177SOL    HW121410   0.374   2.345  17.208
 3177SOL    HW221411   0.411   2.299  17.347
 3178SOL     OW21412   0.260   2.555  20.606
 3178SOL    HW121413   0.286   2.647  20.616
 3178SOL    HW221414   0.238   2.546  20.514
 3179SOL     OW21415   4.106   2.286  17.164
 3179SOL    HW121416   4.182   2.240  17.200
 3179SOL    HW221417   4.043   2.288  17.235
 3180SOL     OW21418   3.921   2.104  16.866
 3180SOL    HW121419   3.954   2.163  16.798
 3180SOL    HW221420   3.879   2.161  16.930
 3181SOL     OW21421   1.836   4.185  20.363
 3181SOL    HW121422   1.898   4.223  20.426
 3181SOL    HW221423   1.807   4.260  20.311
 3182SOL     OW21424   0.305   0.127  17.901
 3182SOL    HW121425   0.377   0.085  17.854
 3182SOL    HW221426   0.336   0.132  17.992
 3183SOL     OW21427   3.942   4.160  18.821
 3183SOL    HW121428   3.953   4.221  18.748
 3183SOL    HW221429   3.917   4.078  18.780
 3184SOL     OW21430   2.604   0.315  19.050
 3184SOL    HW121431   2.648   0.397  19.070
 3184SOL    HW221432   2.674   0.249  19.053
 3185SOL     OW21433   0.023   4.326  14.938
 3185SOL    HW121434   0.113   4.313  14.907
 3185SOL    HW221435   4.761   4.280  14.873
 3186SOL     OW21436   2.636   3.151  14.971
 3186SOL    HW121437   2.715   3.159  14.917
 3186SOL    HW221438   2.662   3.185  15.057
 3187SOL     OW21439   0.076   0.141  20.699
 3187SOL    HW121440   0.156   0.193  20.698
 3187SOL    HW221441   0.103   0.055  20.730
 3188SOL     OW21442   2.419   3.496   2.999
 3188SOL    HW121443   2.394   3.517   3.089
 3188SOL    HW221444   2.505   3.535   2.988
 3189SOL     OW21445   1.093   2.557  17.676
 3189SOL    HW121446   1.013   2.506  17.678
 3189SOL    HW221447   1.150   2.515  17.740
 3190SOL     OW21448   2.069   2.024  16.962
 3190SOL    HW121449   1.999   2.069  17.010
 3190SOL    HW221450   2.149   2.064  16.996
 3191SOL     OW21451   1.700   3.405   4.447
 3191SOL    HW121452   1.618   3.425   4.492
 3191SOL    HW221453   1.687   3.317   4.412
 3192SOL     OW21454   3.387   0.717   3.267
 3192SOL    HW121455   3.338   0.740   3.347
 3192SOL    HW221456   3.319   0.703   3.201
 3193SOL     OW21457   0.455   1.466   5.713
 3193SOL    HW121458   0.384   1.426   5.762
 3193SOL    HW221459   0.501   1.393   5.673
 3194SOL     OW21460   2.326   1.203  19.576
 3194SOL    HW121461   2.273   1.270  19.620
 3194SOL    HW221462   2.277   1.182  19.496
 3195SOL     OW21463   1.560   3.728   6.489
 3195SOL    HW121464   1.645   3.685   6.495
 3195SOL    HW221465   1.557   3.787   6.564
 3196SOL     OW21466   1.408   0.397  17.051
 3196SOL    HW121467   1.457   0.330  17.003
 3196SOL    HW221468   1.318   0.363  17.053
 3197SOL     OW21469   1.473   4.424  17.234
 3197SOL    HW121470   1.410   4.443  17.164
 3197SOL    HW221471   1.423   4.439  17.315
 3198SOL     OW21472   2.008   0.852   0.044
 3198SOL    HW121473   1.940   0.911   0.077
 3198SOL    HW221474   2.057   0.904  21.244
 3199SOL     OW21475   4.594   3.181   4.019
 3199SOL    HW121476   4.683   3.208   3.997
 3199SOL    HW221477   4.600   3.086   4.030
 3200SOL     OW21478   2.605   3.554   6.881
 3200SOL    HW121479   2.535   3.571   6.817
 3200SOL    HW221480   2.591   3.618   6.950
 3201SOL     OW21481   0.742   4.700  16.695
 3201SOL    HW121482   0.671   4.745  16.740
 3201SOL    HW221483   0.783   4.645  16.763
 3202SOL     OW21484   1.545   4.669  20.269
 3202SOL    HW121485   1.482   4.735  20.239
 3202SOL    HW221486   1.499   4.624  20.341
 3203SOL     OW21487   3.744   2.668  16.995
 3203SOL    HW121488   3.780   2.756  16.981
 3203SOL    HW221489   3.765   2.648  17.086
 3204SOL     OW21490   4.236   3.269  16.118
 3204SOL    HW121491   4.243   3.278  16.023
 3204SOL    HW221492   4.325   3.282  16.150
 3205SOL     OW21493   0.844   4.428   0.022
 3205SOL    HW121494   0.836   4.520  21.260
 3205SOL    HW221495   0.913   4.394  21.228
 3206SOL     OW21496   3.084   0.929  18.845
 3206SOL    HW121497   3.014   0.973  18.893
 3206SOL    HW221498   3.043   0.899  18.764
 3207SOL     OW21499   1.974   1.038  16.584
 3207SOL    HW121500   1.919   1.036  16.505
 3207SOL    HW221501   1.978   0.946  16.611
 3208SOL     OW21502   2.568   3.264  17.047
 3208SOL    HW121503   2.569   3.303  17.134
 3208SOL    HW221504   2.532   3.176  17.061
 3209SOL     OW21505   0.348   1.493  16.214
 3209SOL    HW121506   0.389   1.429  16.156
 3209SOL    HW221507   0.307   1.556  16.154
 3210SOL     OW21508   3.504   2.869  20.588
 3210SOL    HW121509   3.510   2.943  20.527
 3210SOL    HW221510   3.415   2.835  20.575
 3211SOL     OW21511   3.325   0.640   8.737
 3211SOL    HW121512   3.378   0.717   8.715
 3211SOL    HW221513   3.377   0.566   8.706
 3212SOL     OW21514   0.492   3.359  16.483
 3212SOL    HW121515   0.402   3.345  16.452
 3212SOL    HW221516   0.528   3.424  16.423
 3213SOL     OW21517   1.783   3.347  19.017
 3213SOL    HW121518   1.760   3.254  19.019
 3213SOL    HW221519   1.699   3.393  19.018
 3214SOL     OW21520   4.447   2.218   3.590
 3214SOL    HW121521   4.455   2.128   3.558
 3214SOL    HW221522   4.481   2.215   3.679
 3215SOL     OW21523   3.622   0.999  17.930
 3215SOL    HW121524   3.537   0.964  17.956
 3215SOL    HW221525   3.661   0.930  17.877
 3216SOL     OW21526   3.350   4.333   5.990
 3216SOL    HW121527   3.432   4.382   5.993
 3216SOL    HW221528   3.369   4.257   5.935
 3217SOL     OW21529   1.255   0.158  13.134
 3217SOL    HW121530   1.232   0.065  13.143
 3217SOL    HW221531   1.276   0.186  13.223
 3218SOL     OW21532   0.234   2.168  18.659
 3218SOL    HW121533   0.147   2.139  18.686
 3218SOL    HW221534   0.230   2.172  18.563
 3219SOL     OW21535   4.636   0.888   5.065
 3219SOL    HW121536   4.604   0.942   5.137
 3219SOL    HW221537   4.560   0.875   5.009
 3220SOL     OW21538   1.620   1.813   5.222
 3220SOL    HW121539   1.631   1.857   5.306
 3220SOL    HW221540   1.707   1.812   5.183
 3221SOL     OW21541   1.597   1.251   2.731
 3221SOL    HW121542   1.536   1.194   2.684
 3221SOL    HW221543   1.568   1.246   2.822
 3222SOL     OW21544   1.971   3.301   4.306
 3222SOL    HW121545   1.919   3.298   4.226
 3222SOL    HW221546   1.927   3.241   4.365
 3223SOL     OW21547   1.462   0.035   1.687
 3223SOL    HW121548   1.468   0.063   1.596
 3223SOL    HW221549   1.433   0.113   1.734
 3224SOL     OW21550   2.294   2.725   5.133
 3224SOL    HW121551   2.273   2.818   5.139
 3224SOL    HW221552   2.256   2.687   5.212
 3225SOL     OW21553   0.588   1.314   0.951
 3225SOL    HW121554   0.634   1.397   0.952
 3225SOL    HW221555   0.497   1.336   0.931
 3226SOL     OW21556   1.488   2.434   8.770
 3226SOL    HW121557   1.504   2.342   8.789
 3226SOL    HW221558   1.572   2.477   8.785
 3227SOL     OW21559   0.789   0.528  19.185
 3227SOL    HW121560   0.705   0.496  19.219
 3227SOL    HW221561   0.776   0.622  19.174
 3228SOL     OW21562   4.536   0.651  20.788
 3228SOL    HW121563   4.542   0.693  20.702
 3228SOL    HW221564   4.507   0.562  20.769
 3229SOL     OW21565   0.769   2.861   3.942
 3229SOL    HW121566   0.801   2.773   3.964
 3229SOL    HW221567   0.742   2.854   3.850
 3230SOL     OW21568   2.343   0.872   2.495
 3230SOL    HW121569   2.256   0.833   2.508
 3230SOL    HW221570   2.404   0.799   2.511
 3231SOL     OW21571   4.128   1.021   3.048
 3231SOL    HW121572   4.105   1.071   3.126
 3231SOL    HW221573   4.210   1.060   3.017
 3232SOL     OW21574   2.316   2.492   3.134
 3232SOL    HW121575   2.320   2.584   3.107
 3232SOL    HW221576   2.237   2.486   3.188
 3233SOL     OW21577   0.332   3.449  18.214
 3233SOL    HW121578   0.394   3.416  18.279
 3233SOL    HW221579   0.252   3.466  18.263
 3234SOL     OW21580   0.851   1.792  18.455
 3234SOL    HW121581   0.846   1.820  18.547
 3234SOL    HW221582   0.872   1.699  18.459
 3235SOL     OW21583   3.948   4.523   0.449
 3235SOL    HW121584   4.036   4.500   0.420
 3235SOL    HW221585   3.942   4.485   0.537
 3236SOL     OW21586   4.548   1.816   4.064
 3236SOL    HW121587   4.504   1.732   4.059
 3236SOL    HW221588   4.625   1.800   4.119
 3237SOL     OW21589   3.091   0.790   2.175
 3237SOL    HW121590   3.185   0.809   2.184
 3237SOL    HW221591   3.055   0.809   2.261
 3238SOL     OW21592   3.004   1.429   6.251
 3238SOL    HW121593   3.092   1.466   6.240
 3238SOL    HW221594   2.950   1.504   6.277
 3239SOL     OW21595   4.333   1.157  14.837
 3239SOL    HW121596   4.393   1.224  14.872
 3239SOL    HW221597   4.254   1.206  14.815
 3240SOL     OW21598   1.697   2.234   4.056
 3240SOL    HW121599   1.676   2.304   4.118
 3240SOL    HW221600   1.789   2.249   4.035
 3241SOL     OW21601   1.217   2.218  20.373
 3241SOL    HW121602   1.194   2.132  20.407
 3241SOL    HW221603   1.142   2.273  20.394
 3242SOL     OW21604   2.462   4.548   4.674
 3242SOL    HW121605   2.379   4.542   4.627
 3242SOL    HW221606   2.487   4.640   4.668
 3243SOL     OW21607   1.546   2.747   0.400
 3243SOL    HW121608   1.485   2.775   0.332
 3243SOL    HW221609   1.631   2.779   0.370
 3244SOL     OW21610   1.124   1.579  19.905
 3244SOL    HW121611   1.062   1.628  19.959
 3244SOL    HW221612   1.080   1.570  19.820
 3245SOL     OW21613   3.730   3.826   6.297
 3245SOL    HW121614   3.674   3.803   6.222
 3245SOL    HW221615   3.676   3.807   6.374
 3246SOL     OW21616   2.899   1.103  17.523
 3246SOL    HW121617   2.985   1.144  17.522
 3246SOL    HW221618   2.837   1.176  17.529
 3247SOL     OW21619   0.807   1.938   1.630
 3247SOL    HW121620   0.745   1.869   1.655
 3247SOL    HW221621   0.797   1.946   1.535
 3248SOL     OW21622   3.413   4.652   2.474
 3248SOL    HW121623   3.456   4.574   2.439
 3248SOL    HW221624   3.324   4.624   2.494
 3249SOL     OW21625   4.450   2.269  14.865
 3249SOL    HW121626   4.372   2.270  14.810
 3249SOL    HW221627   4.499   2.346  14.839
 3250SOL     OW21628   1.682   4.588  17.261
 3250SOL    HW121629   1.723   4.551  17.183
 3250SOL    HW221630   1.596   4.546  17.265
 3251SOL     OW21631   4.742   1.024   6.165
 3251SOL    HW121632   4.700   1.082   6.102
 3251SOL    HW221633   4.674   0.961   6.188
 3252SOL     OW21634   2.824   2.035  18.839
 3252SOL    HW121635   2.743   1.992  18.811
 3252SOL    HW221636   2.868   1.969  18.893
 3253SOL     OW21637   1.131   1.829   2.830
 3253SOL    HW121638   1.092   1.830   2.743
 3253SOL    HW221639   1.224   1.813   2.814
 3254SOL     OW21640   0.548   4.104  16.160
 3254SOL    HW121641   0.477   4.116  16.223
 3254SOL    HW221642   0.527   4.166  16.089
 3255SOL     OW21643   1.185   0.318   3.725
 3255SOL    HW121644   1.268   0.316   3.773
 3255SOL    HW221645   1.198   0.258   3.652
 3256SOL     OW21646   1.334   4.689   4.780
 3256SOL    HW121647   1.314   4.613   4.835
 3256SOL    HW221648   1.356   4.652   4.695
 3257SOL     OW21649   3.356   1.651  15.857
 3257SOL    HW121650   3.315   1.668  15.942
 3257SOL    HW221651   3.300   1.696  15.794
 3258SOL     OW21652   3.790   3.159   1.597
 3258SOL    HW121653   3.777   3.068   1.569
 3258SOL    HW221654   3.776   3.211   1.517
 3259SOL     OW21655   1.698   1.041   4.227
 3259SOL    HW121656   1.775   0.984   4.238
 3259SOL    HW221657   1.683   1.043   4.133
 3260SOL     OW21658   3.448   0.171   1.064
 3260SOL    HW121659   3.544   0.177   1.063
 3260SOL    HW221660   3.427   0.131   1.149
 3261SOL     OW21661   4.581   0.687  15.226
 3261SOL    HW121662   4.643   0.715  15.294
 3261SOL    HW221663   4.588   0.754  15.158
 3262SOL     OW21664   3.245   2.469   2.341
 3262SOL    HW121665   3.309   2.525   2.296
 3262SOL    HW221666   3.206   2.527   2.407
 3263SOL     OW21667   1.621   0.898  20.618
 3263SOL    HW121668   1.541   0.913  20.568
 3263SOL    HW221669   1.674   0.841  20.561
 3264SOL     OW21670   1.539   1.242  19.015
 3264SOL    HW121671   1.608   1.287  19.064
 3264SOL    HW221672   1.585   1.204  18.939
 3265SOL     OW21673   3.121   3.734  19.577
 3265SOL    HW121674   3.052   3.787  19.617
 3265SOL    HW221675   3.173   3.797  19.526
 3266SOL     OW21676   4.241   2.253   6.112
 3266SOL    HW121677   4.259   2.286   6.200
 3266SOL    HW221678   4.146   2.262   6.102
 3267SOL     OW21679   4.019   2.806  17.855
 3267SOL    HW121680   3.967   2.729  17.878
 3267SOL    HW221681   3.972   2.845  17.781
 3268SOL     OW21682   2.243   1.101  17.212
 3268SOL    HW121683   2.186   1.097  17.135
 3268SOL    HW221684   2.259   1.009  17.234
 3269SOL     OW21685   1.660   4.649  17.823
 3269SOL    HW121686   1.751   4.659  17.796
 3269SOL    HW221687   1.610   4.659  17.743
 3270SOL     OW21688   2.428   2.908  14.604
 3270SOL    HW121689   2.510   2.912  14.555
 3270SOL    HW221690   2.434   2.981  14.666
 3271SOL     OW21691   2.259   3.711   2.928
 3271SOL    HW121692   2.277   3.726   2.835
 3271SOL    HW221693   2.323   3.645   2.955
 3272SOL     OW21694   3.866   4.713   6.583
 3272SOL    HW121695   3.935   4.723   6.518
 3272SOL    HW221696   3.837   4.623   6.573
 3273SOL     OW21697   2.055   0.135   3.439
 3273SOL    HW121698   1.971   0.176   3.461
 3273SOL    HW221699   2.067   0.068   3.506
 3274SOL     OW21700   4.027   4.701  16.213
 3274SOL    HW121701   4.019   0.005  16.200
 3274SOL    HW221702   4.121   4.687  16.225
 3275SOL     OW21703   2.349   0.509  16.276
 3275SOL    HW121704   2.325   0.545  16.361
 3275SOL    HW221705   2.436   0.470  16.290
 3276SOL     OW21706   3.015   3.299  19.326
 3276SOL    HW121707   3.093   3.307  19.271
 3276SOL    HW221708   3.002   3.387  19.362
 3277SOL     OW21709   3.955   0.492  19.593
 3277SOL    HW121710   3.998   0.408  19.578
 3277SOL    HW221711   4.015   0.540  19.650
 3278SOL     OW21712   3.971   1.130  16.830
 3278SOL    HW121713   3.877   1.149  16.818
 3278SOL    HW221714   4.012   1.217  16.828
 3279SOL     OW21715   1.658   4.052   6.295
 3279SOL    HW121716   1.662   4.013   6.382
 3279SOL    HW221717   1.673   4.146   6.311
 3280SOL     OW21718   0.860   0.567  20.416
 3280SOL    HW121719   0.812   0.516  20.480
 3280SOL    HW221720   0.792   0.613  20.366
 3281SOL     OW21721   1.585   3.947  18.117
 3281SOL    HW121722   1.596   3.991  18.033
 3281SOL    HW221723   1.547   3.862  18.096
 3282SOL     OW21724   1.426   4.157   5.826
 3282SOL    HW121725   1.464   4.117   5.905
 3282SOL    HW221726   1.370   4.089   5.789
 3283SOL     OW21727   1.959   3.732  13.676
 3283SOL    HW121728   1.922   3.821  13.681
 3283SOL    HW221729   1.891   3.676  13.712
 3284SOL     OW21730   0.284   3.030  16.363
 3284SOL    HW121731   0.363   3.034  16.417
 3284SOL    HW221732   0.305   2.967  16.294
 3285SOL     OW21733   1.875   1.165  17.505
 3285SOL    HW121734   1.883   1.213  17.423
 3285SOL    HW221735   1.787   1.186  17.537
 3286SOL     OW21736   2.030   2.336   2.396
 3286SOL    HW121737   2.058   2.425   2.417
 3286SOL    HW221738   2.112   2.286   2.390
 3287SOL     OW21739   0.457   0.750   4.128
 3287SOL    HW121740   0.429   0.826   4.076
 3287SOL    HW221741   0.388   0.741   4.194
 3288SOL     OW21742   2.415   3.106   0.329
 3288SOL    HW121743   2.421   3.011   0.325
 3288SOL    HW221744   2.483   3.131   0.392
 3289SOL     OW21745   1.992   4.341   6.957
 3289SOL    HW121746   1.971   4.291   7.036
 3289SOL    HW221747   2.069   4.393   6.982
 3290SOL     OW21748   2.463   0.645   8.727
 3290SOL    HW121749   2.433   0.554   8.723
 3290SOL    HW221750   2.558   0.640   8.720
 3291SOL     OW21751   4.307   3.771   5.859
 3291SOL    HW121752   4.401   3.771   5.844
 3291SOL    HW221753   4.289   3.856   5.899
 3292SOL     OW21754   3.101   1.905   0.832
 3292SOL    HW121755   3.195   1.892   0.842
 3292SOL    HW221756   3.066   1.817   0.818
 3293SOL     OW21757   1.525   0.420   0.945
 3293SOL    HW121758   1.545   0.496   1.000
 3293SOL    HW221759   1.608   0.374   0.936
 3294SOL     OW21760   3.908   3.491   0.725
 3294SOL    HW121761   3.978   3.521   0.783
 3294SOL    HW221762   3.832   3.481   0.782
 3295SOL     OW21763   1.134   4.582   6.742
 3295SOL    HW121764   1.069   4.520   6.708
 3295SOL    HW221765   1.154   4.638   6.667
 3296SOL     OW21766   3.416   4.615  18.986
 3296SOL    HW121767   3.473   4.580  19.055
 3296SOL    HW221768   3.463   4.691  18.952
 3297SOL     OW21769   2.552   3.752  17.086
 3297SOL    HW121770   2.577   3.735  17.177
 3297SOL    HW221771   2.490   3.825  17.092
 3298SOL     OW21772   2.896   4.113  12.836
 3298SOL    HW121773   2.879   4.203  12.809
 3298SOL    HW221774   2.811   4.080  12.865
 3299SOL     OW21775   0.993   2.683   5.632
 3299SOL    HW121776   0.945   2.606   5.665
 3299SOL    HW221777   0.945   2.758   5.667
 3300SOL     OW21778   1.695   1.114  18.246
 3300SOL    HW121779   1.712   1.172  18.320
 3300SOL    HW221780   1.602   1.125  18.226
 3301SOL     OW21781   2.630   0.890   2.140
 3301SOL    HW121782   2.702   0.867   2.082
 3301SOL    HW221783   2.553   0.849   2.101
 3302SOL     OW21784   2.267   2.787  20.780
 3302SOL    HW121785   2.190   2.766  20.834
 3302SOL    HW221786   2.336   2.731  20.816
 3303SOL     OW21787   1.529   3.620   1.138
 3303SOL    HW121788   1.557   3.610   1.229
 3303SOL    HW221789   1.539   3.713   1.119
 3304SOL     OW21790   0.405   2.589   3.796
 3304SOL    HW121791   0.451   2.511   3.827
 3304SOL    HW221792   0.457   2.620   3.722
 3305SOL     OW21793   2.918   1.823   5.693
 3305SOL    HW121794   2.993   1.764   5.697
 3305SOL    HW221795   2.842   1.766   5.696
 3306SOL     OW21796   0.073   2.007   1.434
 3306SOL    HW121797   0.122   1.938   1.480
 3306SOL    HW221798   0.065   1.974   1.345
 3307SOL     OW21799   4.685   3.707  18.423
 3307SOL    HW121800   4.676   3.732  18.515
 3307SOL    HW221801   4.711   3.788  18.379
 3308SOL     OW21802   2.056   0.680   7.672
 3308SOL    HW121803   2.033   0.772   7.660
 3308SOL    HW221804   2.139   0.670   7.625
 3309SOL     OW21805   1.514   2.869   1.583
 3309SOL    HW121806   1.455   2.797   1.560
 3309SOL    HW221807   1.464   2.948   1.564
 3310SOL     OW21808   2.220   0.795   1.774
 3310SOL    HW121809   2.218   0.699   1.779
 3310SOL    HW221810   2.136   0.824   1.809
 3311SOL     OW21811   2.817   0.608   1.084
 3311SOL    HW121812   2.780   0.540   1.139
 3311SOL    HW221813   2.815   0.571   0.995
 3312SOL     OW21814   1.219   0.476  20.188
 3312SOL    HW121815   1.128   0.486  20.161
 3312SOL    HW221816   1.265   0.448  20.108
 3313SOL     OW21817   4.462   4.244  20.869
 3313SOL    HW121818   4.549   4.284  20.875
 3313SOL    HW221819   4.408   4.310  20.825
 3314SOL     OW21820   2.953   0.193   6.074
 3314SOL    HW121821   2.927   0.127   6.139
 3314SOL    HW221822   2.951   0.275   6.123
 3315SOL     OW21823   1.531   3.564  16.012
 3315SOL    HW121824   1.478   3.624  15.960
 3315SOL    HW221825   1.472   3.537  16.084
 3316SOL     OW21826   4.436   0.232   0.154
 3316SOL    HW121827   4.375   0.263   0.220
 3316SOL    HW221828   4.420   0.287   0.078
 3317SOL     OW21829   2.456   3.398   6.249
 3317SOL    HW121830   2.504   3.447   6.182
 3317SOL    HW221831   2.463   3.306   6.221
 3318SOL     OW21832   1.810   3.721   7.730
 3318SOL    HW121833   1.739   3.662   7.757
 3318SOL    HW221834   1.890   3.669   7.741
 3319SOL     OW21835   1.522   4.335  15.781
 3319SOL    HW121836   1.531   4.261  15.842
 3319SOL    HW221837   1.427   4.345  15.771
 3320SOL     OW21838   0.704   2.388  16.513
 3320SOL    HW121839   0.768   2.366  16.581
 3320SOL    HW221840   0.641   2.316  16.517
 3321SOL     OW21841   4.201   3.141   3.680
 3321SOL    HW121842   4.284   3.189   3.679
 3321SOL    HW221843   4.171   3.144   3.589
 3322SOL     OW21844   0.922   4.540   0.530
 3322SOL    HW121845   0.953   4.493   0.452
 3322SOL    HW221846   0.916   4.472   0.597
 3323SOL     OW21847   1.194   1.611   5.474
 3323SOL    HW121848   1.154   1.694   5.449
 3323SOL    HW221849   1.211   1.620   5.568
 3324SOL     OW21850   3.326   4.098  19.205
 3324SOL    HW121851   3.271   4.161  19.159
 3324SOL    HW221852   3.402   4.150  19.234
 3325SOL     OW21853   3.463   0.017  14.580
 3325SOL    HW121854   3.549   0.008  14.621
 3325SOL    HW221855   3.446   4.723  14.541
 3326SOL     OW21856   0.113   2.143   4.625
 3326SOL    HW121857   0.053   2.073   4.652
 3326SOL    HW221858   0.100   2.212   4.690
 3327SOL     OW21859   2.214   3.738   5.307
 3327SOL    HW121860   2.173   3.651   5.302
 3327SOL    HW221861   2.238   3.758   5.216
 3328SOL     OW21862   4.480   4.253  18.053
 3328SOL    HW121863   4.385   4.261  18.050
 3328SOL    HW221864   4.496   4.172  18.101
 3329SOL     OW21865   1.221   3.529   1.557
 3329SOL    HW121866   1.210   3.618   1.525
 3329SOL    HW221867   1.173   3.527   1.640
 3330SOL     OW21868   0.615   1.933  20.538
 3330SOL    HW121869   0.609   2.014  20.589
 3330SOL    HW221870   0.709   1.918  20.526
 3331SOL     OW21871   0.845   2.108  16.716
 3331SOL    HW121872   0.940   2.110  16.705
 3331SOL    HW221873   0.827   2.182  16.774
 3332SOL     OW21874   2.575   0.051   0.873
 3332SOL    HW121875   2.515   4.777   0.837
 3332SOL    HW221876   2.662   0.015   0.857
 3333SOL     OW21877   1.829   4.587  18.801
 3333SOL    HW121878   1.888   4.610  18.729
 3333SOL    HW221879   1.844   4.493  18.815
 3334SOL     OW21880   3.143   4.583   2.546
 3334SOL    HW121881   3.097   4.500   2.557
 3334SOL    HW221882   3.084   4.636   2.492
 3335SOL     OW21883   2.978   2.861  15.879
 3335SOL    HW121884   2.932   2.944  15.867
 3335SOL    HW221885   2.984   2.850  15.974
 3336SOL     OW21886   1.732   0.473   6.031
 3336SOL    HW121887   1.811   0.517   6.000
 3336SOL    HW221888   1.741   0.383   6.000
 3337SOL     OW21889   2.135   0.578  21.142
 3337SOL    HW121890   2.179   0.639  21.201
 3337SOL    HW221891   2.146   0.492  21.184
 3338SOL     OW21892   3.967   2.679   5.175
 3338SOL    HW121893   4.045   2.689   5.229
 3338SOL    HW221894   3.968   2.588   5.147
 3339SOL     OW21895   2.104   3.164   7.392
 3339SOL    HW121896   2.131   3.101   7.325
 3339SOL    HW221897   2.044   3.115   7.448
 3340SOL     OW21898   1.306   2.304  17.592
 3340SOL    HW121899   1.382   2.360  17.574
 3340SOL    HW221900   1.327   2.262  17.675
 3341SOL     OW21901   0.242   2.723   0.378
 3341SOL    HW121902   0.151   2.721   0.407
 3341SOL    HW221903   0.253   2.810   0.340
 3342SOL     OW21904   1.703   0.093   4.476
 3342SOL    HW121905   1.675   0.182   4.453
 3342SOL    HW221906   1.622   0.042   4.477
 3343SOL     OW21907   2.418   2.037   6.106
 3343SOL    HW121908   2.420   2.024   6.011
 3343SOL    HW221909   2.328   2.015   6.131
 3344SOL     OW21910   3.231   2.288   7.278
 3344SOL    HW121911   3.321   2.316   7.295
 3344SOL    HW221912   3.240   2.222   7.208
 3345SOL     OW21913   4.746   2.804   0.385
 3345SOL    HW121914   4.674   2.866   0.369
 3345SOL    HW221915   4.744   2.746   0.309
 3346SOL     OW21916   2.173   2.253   1.458
 3346SOL    HW121917   2.172   2.266   1.552
 3346SOL    HW221918   2.263   2.274   1.431
 3347SOL     OW21919   1.794   3.624  15.896
 3347SOL    HW121920   1.705   3.644  15.926
 3347SOL    HW221921   1.781   3.575  15.815
 3348SOL     OW21922   1.274   4.671   1.184
 3348SOL    HW121923   1.274   4.758   1.223
 3348SOL    HW221924   1.183   4.657   1.158
 3349SOL     OW21925   3.815   3.760  17.556
 3349SOL    HW121926   3.795   3.673  17.520
 3349SOL    HW221927   3.738   3.812  17.533
 3350SOL     OW21928   1.495   3.807  15.397
 3350SOL    HW121929   1.409   3.770  15.415
 3350SOL    HW221930   1.479   3.900  15.382
 3351SOL     OW21931   2.904   3.558  19.121
 3351SOL    HW121932   2.962   3.618  19.075
 3351SOL    HW221933   2.943   3.549  19.208
 3352SOL     OW21934   3.937   3.997   1.947
 3352SOL    HW121935   3.871   4.024   2.011
 3352SOL    HW221936   4.020   4.023   1.987
 3353SOL     OW21937   3.299   4.462  19.533
 3353SOL    HW121938   3.227   4.486  19.591
 3353SOL    HW221939   3.377   4.468  19.588
 3354SOL     OW21940   4.459   4.188  13.383
 3354SOL    HW121941   4.518   4.208  13.310
 3354SOL    HW221942   4.512   4.136  13.443
 3355SOL     OW21943   4.484   0.744   0.259
 3355SOL    HW121944   4.570   0.774   0.229
 3355SOL    HW221945   4.495   0.732   0.353
 3356SOL     OW21946   3.390   1.575  19.384
 3356SOL    HW121947   3.403   1.668  19.398
 3356SOL    HW221948   3.345   1.569  19.299
 3357SOL     OW21949   3.684   4.749   6.083
 3357SOL    HW121950   3.720   0.015   6.151
 3357SOL    HW221951   3.722   4.782   6.002
 3358SOL     OW21952   0.661   1.640  17.133
 3358SOL    HW121953   0.692   1.655  17.222
 3358SOL    HW221954   0.587   1.700  17.123
 3359SOL     OW21955   4.623   1.771  20.062
 3359SOL    HW121956   4.668   1.855  20.069
 3359SOL    HW221957   4.545   1.790  20.010
 3360SOL     OW21958   1.043   1.019  18.381
 3360SOL    HW121959   1.054   0.925  18.398
 3360SOL    HW221960   0.950   1.029  18.361
 3361SOL     OW21961   0.259   4.711  21.234
 3361SOL    HW121962   0.308   4.677   0.046
 3361SOL    HW221963   0.174   4.668  21.241
 3362SOL     OW21964   3.170   1.721   2.341
 3362SOL    HW121965   3.084   1.758   2.320
 3362SOL    HW221966   3.219   1.724   2.259
 3363SOL     OW21967   2.403   3.288  18.909
 3363SOL    HW121968   2.347   3.227  18.859
 3363SOL    HW221969   2.341   3.341  18.958
 3364SOL     OW21970   2.618   2.351   8.051
 3364SOL    HW121971   2.592   2.262   8.073
 3364SOL    HW221972   2.544   2.386   8.001
 3365SOL     OW21973   4.366   0.091   5.629
 3365SOL    HW121974   4.367   0.004   5.589
 3365SOL    HW221975   4.426   0.143   5.575
 3366SOL     OW21976   3.676   4.682   4.205
 3366SOL    HW121977   3.622   4.609   4.232
 3366SOL    HW221978   3.631   4.719   4.129
 3367SOL     OW21979   3.666   4.379  16.024
 3367SOL    HW121980   3.689   4.303  16.078
 3367SOL    HW221981   3.747   4.429  16.017
 3368SOL     OW21982   0.659   2.320   0.434
 3368SOL    HW121983   0.570   2.299   0.405
 3368SOL    HW221984   0.651   2.403   0.481
 3369SOL     OW21985   2.842   3.220   5.422
 3369SOL    HW121986   2.826   3.300   5.373
 3369SOL    HW221987   2.769   3.215   5.484
 3370SOL     OW21988   4.353   1.054   8.361
 3370SOL    HW121989   4.347   0.991   8.432
 3370SOL    HW221990   4.435   1.033   8.316
 3371SOL     OW21991   0.141   3.364  16.584
 3371SOL    HW121992   0.053   3.331  16.566
 3371SOL    HW221993   0.197   3.323  16.518
 3372SOL     OW21994   1.044   2.320  16.573
 3372SOL    HW121995   1.025   2.230  16.547
 3372SOL    HW221996   1.138   2.329  16.559
 3373SOL     OW21997   3.499   3.058   1.963
 3373SOL    HW121998   3.476   3.071   2.055
 3373SOL    HW221999   3.590   3.090   1.957
 3374SOL     OW22000   1.936   3.115  19.448
 3374SOL    HW122001   1.847   3.150  19.443
 3374SOL    HW222002   1.924   3.021  19.462
 3375SOL     OW22003   0.760   1.792   6.218
 3375SOL    HW122004   0.756   1.820   6.127
 3375SOL    HW222005   0.758   1.874   6.268
 3376SOL     OW22006   3.265   0.929  15.536
 3376SOL    HW122007   3.292   0.841  15.562
 3376SOL    HW222008   3.313   0.987  15.595
 3377SOL     OW22009   3.965   4.063   6.457
 3377SOL    HW122010   3.994   3.979   6.421
 3377SOL    HW222011   3.901   4.039   6.525
 3378SOL     OW22012   3.815   2.855   1.609
 3378SOL    HW122013   3.792   2.778   1.661
 3378SOL    HW222014   3.898   2.885   1.645
 3379SOL     OW22015   3.287   2.665   1.471
 3379SOL    HW122016   3.262   2.736   1.412
 3379SOL    HW222017   3.381   2.678   1.486
 3380SOL     OW22018   4.017   1.557   5.093
 3380SOL    HW122019   4.105   1.594   5.104
 3380SOL    HW222020   4.021   1.512   5.008
 3381SOL     OW22021   1.587   4.203   2.351
 3381SOL    HW122022   1.528   4.248   2.411
 3381SOL    HW222023   1.531   4.138   2.307
 3382SOL     OW22024   0.214   1.417  21.096
 3382SOL    HW122025   0.134   1.468  21.088
 3382SOL    HW222026   0.283   1.476  21.065
 3383SOL     OW22027   2.301   0.039   1.764
 3383SOL    HW122028   2.347   4.786   1.835
 3383SOL    HW222029   2.212   0.053   1.797
 3384SOL     OW22030   1.112   3.620   0.120
 3384SOL    HW122031   1.193   3.608   0.170
 3384SOL    HW222032   1.043   3.618   0.186
 3385SOL     OW22033   3.587   3.891  14.403
 3385SOL    HW122034   3.673   3.874  14.364
 3385SOL    HW222035   3.544   3.950  14.341
 3386SOL     OW22036   2.502   1.854  20.525
 3386SOL    HW122037   2.551   1.822  20.449
 3386SOL    HW222038   2.538   1.941  20.542
 3387SOL     OW22039   3.769   4.559  18.575
 3387SOL    HW122040   3.744   4.495  18.509
 3387SOL    HW222041   3.715   4.538  18.651
 3388SOL     OW22042   2.092   1.668  20.621
 3388SOL    HW122043   2.024   1.723  20.583
 3388SOL    HW222044   2.174   1.715  20.601
 3389SOL     OW22045   2.702   1.176  17.207
 3389SOL    HW122046   2.635   1.194  17.142
 3389SOL    HW222047   2.738   1.261  17.230
 3390SOL     OW22048   2.366   3.195  16.820
 3390SOL    HW122049   2.429   3.263  16.847
 3390SOL    HW222050   2.285   3.243  16.802
 3391SOL     OW22051   1.265   2.011   7.866
 3391SOL    HW122052   1.320   2.052   7.799
 3391SOL    HW222053   1.272   2.069   7.942
 3392SOL     OW22054   3.952   1.128  21.220
 3392SOL    HW122055   3.857   1.132  21.217
 3392SOL    HW222056   3.973   1.122   0.050
 3393SOL     OW22057   1.933   2.332  15.546
 3393SOL    HW122058   1.854   2.320  15.600
 3393SOL    HW222059   1.969   2.243  15.538
 3394SOL     OW22060   1.233   4.777  16.024
 3394SOL    HW122061   1.285   0.013  16.099
 3394SOL    HW222062   1.297   4.751  15.958
 3395SOL     OW22063   2.546   1.830   0.167
 3395SOL    HW122064   2.536   1.919   0.133
 3395SOL    HW222065   2.473   1.781   0.128
 3396SOL     OW22066   4.665   4.730  20.586
 3396SOL    HW122067   4.667   4.692  20.498
 3396SOL    HW222068   4.730   0.009  20.583
 3397SOL     OW22069   4.176   2.895  20.258
 3397SOL    HW122070   4.133   2.809  20.259
 3397SOL    HW222071   4.104   2.957  20.272
 3398SOL     OW22072   1.881   2.941   7.562
 3398SOL    HW122073   1.843   3.006   7.622
 3398SOL    HW222074   1.826   2.945   7.484
 3399SOL     OW22075   2.425   0.134  16.009
 3399SOL    HW122076   2.419   0.084  15.928
 3399SOL    HW222077   2.351   0.194  16.006
 3400SOL     OW22078   2.123   3.606  15.572
 3400SOL    HW122079   2.042   3.568  15.607
 3400SOL    HW222080   2.100   3.632  15.483
 3401SOL     OW22081   2.856   2.784   0.889
 3401SOL    HW122082   2.868   2.699   0.846
 3401SOL    HW222083   2.789   2.827   0.837
 3402SOL     OW22084   2.709   1.538   2.791
 3402SOL    HW122085   2.622   1.576   2.781
 3402SOL    HW222086   2.767   1.599   2.745
 3403SOL     OW22087   2.345   1.194   3.354
 3403SOL    HW122088   2.272   1.147   3.394
 3403SOL    HW222089   2.391   1.235   3.427
 3404SOL     OW22090   1.403   0.885  15.557
 3404SOL    HW122091   1.450   0.921  15.632
 3404SOL    HW222092   1.467   0.888  15.485
 3405SOL     OW22093   4.548   2.689  16.181
 3405SOL    HW122094   4.584   2.614  16.229
 3405SOL    HW222095   4.487   2.650  16.119
 3406SOL     OW22096   2.932   0.988  15.790
 3406SOL    HW122097   2.850   1.024  15.826
 3406SOL    HW222098   2.995   1.060  15.799
 3407SOL     OW22099   4.329   0.434   4.296
 3407SOL    HW122100   4.378   0.364   4.340
 3407SOL    HW222101   4.247   0.393   4.270
 3408SOL     OW22102   2.516   4.432   2.087
 3408SOL    HW122103   2.526   4.471   2.174
 3408SOL    HW222104   2.445   4.482   2.046
 3409SOL     OW22105   2.058   1.168   4.069
 3409SOL    HW122106   2.153   1.179   4.064
 3409SOL    HW222107   2.026   1.200   3.985
 3410SOL     OW22108   1.588   3.355   6.146
 3410SOL    HW122109   1.572   3.341   6.239
 3410SOL    HW222110   1.683   3.366   6.140
 3411SOL     OW22111   3.761   2.186  18.502
 3411SOL    HW122112   3.790   2.175  18.412
 3411SOL    HW222113   3.703   2.111  18.518
 3412SOL     OW22114   4.235   0.515  15.950
 3412SOL    HW122115   4.300   0.474  15.894
 3412SOL    HW222116   4.172   0.446  15.970
 3413SOL     OW22117   4.294   2.664  20.033
 3413SOL    HW122118   4.343   2.746  20.030
 3413SOL    HW222119   4.334   2.610  19.965
 3414SOL     OW22120   0.555   0.242   3.652
 3414SOL    HW122121   0.595   0.281   3.729
 3414SOL    HW222122   0.474   0.203   3.684
 3415SOL     OW22123   0.405   4.273  18.653
 3415SOL    HW122124   0.330   4.333  18.643
 3415SOL    HW222125   0.408   4.225  18.570
 3416SOL     OW22126   3.777   1.401   1.894
 3416SOL    HW122127   3.835   1.401   1.818
 3416SOL    HW222128   3.746   1.311   1.902
 3417SOL     OW22129   0.978   0.111   5.624
 3417SOL    HW122130   0.901   0.167   5.636
 3417SOL    HW222131   0.997   0.077   5.711
 3418SOL     OW22132   3.828   4.215   0.382
 3418SOL    HW122133   3.822   4.122   0.360
 3418SOL    HW222134   3.893   4.251   0.322
 3419SOL     OW22135   0.512   4.776  16.517
 3419SOL    HW122136   0.529   0.069  16.475
 3419SOL    HW222137   0.521   0.002  16.610
 3420SOL     OW22138   3.245   0.866  20.089
 3420SOL    HW122139   3.322   0.918  20.109
 3420SOL    HW222140   3.228   0.884  19.996
 3421SOL     OW22141   3.756   0.879   1.270
 3421SOL    HW122142   3.707   0.840   1.197
 3421SOL    HW222143   3.834   0.916   1.229
 3422SOL     OW22144   0.957   2.724  20.774
 3422SOL    HW122145   0.964   2.753  20.865
 3422SOL    HW222146   0.953   2.805  20.723
 3423SOL     OW22147   0.170   4.012  14.075
 3423SOL    HW122148   0.240   4.066  14.039
 3423SOL    HW222149   0.160   3.941  14.011
 3424SOL     OW22150   2.079   1.437   4.850
 3424SOL    HW122151   2.074   1.345   4.878
 3424SOL    HW222152   2.046   1.487   4.925
 3425SOL     OW22153   1.558   1.273   7.319
 3425SOL    HW122154   1.590   1.300   7.233
 3425SOL    HW222155   1.478   1.224   7.300
 3426SOL     OW22156   3.238   1.016   3.821
 3426SOL    HW122157   3.149   0.989   3.842
 3426SOL    HW222158   3.273   1.050   3.903
 3427SOL     OW22159   2.435   3.809  20.525
 3427SOL    HW122160   2.397   3.746  20.464
 3427SOL    HW222161   2.514   3.766  20.557
 3428SOL     OW22162   0.722   4.438   4.739
 3428SOL    HW122163   0.750   4.529   4.753
 3428SOL    HW222164   0.708   4.404   4.827
 3429SOL     OW22165   1.792   4.178  20.809
 3429SOL    HW122166   1.867   4.119  20.815
 3429SOL    HW222167   1.742   4.162  20.889
 3430SOL     OW22168   2.892   0.858   1.624
 3430SOL    HW122169   2.898   0.835   1.532
 3430SOL    HW222170   2.982   0.859   1.655
 3431SOL     OW22171   3.139   1.265   9.568
 3431SOL    HW122172   3.185   1.244   9.650
 3431SOL    HW222173   3.103   1.181   9.539
 3432SOL     OW22174   2.789   4.155   7.822
 3432SOL    HW122175   2.754   4.077   7.778
 3432SOL    HW222176   2.827   4.207   7.751
 3433SOL     OW22177   4.336   3.404   7.873
 3433SOL    HW122178   4.331   3.492   7.910
 3433SOL    HW222179   4.398   3.412   7.800
 3434SOL     OW22180   4.093   3.612  10.018
 3434SOL    HW122181   4.179   3.573  10.031
 3434SOL    HW222182   4.094   3.692  10.069
 3435SOL     OW22183   1.283   2.171   8.086
 3435SOL    HW122184   1.240   2.197   8.168
 3435SOL    HW222185   1.335   2.248   8.062
 3436SOL     OW22186   1.570   0.905   9.204
 3436SOL    HW122187   1.629   0.892   9.278
 3436SOL    HW222188   1.557   1.000   9.201
 3437SOL     OW22189   4.282   2.141   5.804
 3437SOL    HW122190   4.210   2.126   5.865
 3437SOL    HW222191   4.359   2.152   5.859
 3438SOL     OW22192   1.008   0.629   7.812
 3438SOL    HW122193   0.962   0.550   7.783
 3438SOL    HW222194   0.961   0.655   7.891
 3439SOL     OW22195   2.092   2.259   4.610
 3439SOL    HW122196   2.146   2.221   4.678
 3439SOL    HW222197   2.118   2.214   4.530
 3440SOL     OW22198   3.608   1.071   1.455
 3440SOL    HW122199   3.513   1.060   1.451
 3440SOL    HW222200   3.638   1.044   1.368
 3441SOL     OW22201   1.850   0.367   8.650
 3441SOL    HW122202   1.840   0.452   8.694
 3441SOL    HW222203   1.781   0.313   8.688
 3442SOL     OW22204   1.489   4.188   3.298
 3442SOL    HW122205   1.455   4.131   3.228
 3442SOL    HW222206   1.532   4.260   3.251
 3443SOL     OW22207   3.526   0.446   8.615
 3443SOL    HW122208   3.579   0.374   8.581
 3443SOL    HW222209   3.588   0.519   8.624
 3444SOL     OW22210   2.586   4.084   7.539
 3444SOL    HW122211   2.638   4.062   7.462
 3444SOL    HW222212   2.624   4.165   7.572
 3445SOL     OW22213   1.755   4.308   6.343
 3445SOL    HW122214   1.734   4.308   6.250
 3445SOL    HW222215   1.749   4.400   6.369
 3446SOL     OW22216   0.077   3.350   9.312
 3446SOL    HW122217   0.013   3.369   9.381
 3446SOL    HW222218   0.107   3.436   9.284
 3447SOL     OW22219   4.717   2.299  20.877
 3447SOL    HW122220   4.716   2.395  20.877
 3447SOL    HW222221   4.765   2.276  20.798
 3448SOL     OW22222   1.325   3.118   9.358
 3448SOL    HW122223   1.379   3.058   9.410
 3448SOL    HW222224   1.315   3.075   9.274
 3449SOL     OW22225   2.754   3.780  10.130
 3449SOL    HW122226   2.816   3.746  10.066
 3449SOL    HW222227   2.808   3.817  10.199
 3450SOL     OW22228   3.497   3.145  10.883
 3450SOL    HW122229   3.441   3.101  10.947
 3450SOL    HW222230   3.441   3.211  10.843
 3451SOL     OW22231   0.108   3.121   9.911
 3451SOL    HW122232   0.175   3.167   9.861
 3451SOL    HW222233   0.153   3.045   9.947
 3452SOL     OW22234   2.893   3.477   9.153
 3452SOL    HW122235   2.954   3.446   9.220
 3452SOL    HW222236   2.946   3.532   9.096
 3453SOL     OW22237   0.153   4.263   9.500
 3453SOL    HW122238   0.112   4.211   9.431
 3453SOL    HW222239   0.130   4.353   9.479
 3454SOL     OW22240   3.636   4.076  10.386
 3454SOL    HW122241   3.550   4.090  10.346
 3454SOL    HW222242   3.629   3.991  10.430
 3455SOL     OW22243   4.574   0.465   9.793
 3455SOL    HW122244   4.497   0.461   9.737
 3455SOL    HW222245   4.539   0.467   9.882
 3456SOL     OW22246   3.921   3.931  11.000
 3456SOL    HW122247   3.981   3.951  10.928
 3456SOL    HW222248   3.964   3.859  11.047
 3457SOL     OW22249   0.223   3.581  10.996
 3457SOL    HW122250   0.230   3.642  10.923
 3457SOL    HW222251   0.303   3.596  11.047
 3458SOL     OW22252   3.213   2.958  10.449
 3458SOL    HW122253   3.164   2.948  10.367
 3458SOL    HW222254   3.192   3.047  10.479
 3459SOL     OW22255   3.209   4.696  10.372
 3459SOL    HW122256   3.155   4.764  10.411
 3459SOL    HW222257   3.228   4.637  10.445
 3460SOL     OW22258   4.193   4.694   8.958
 3460SOL    HW122259   4.179   4.631   9.029
 3460SOL    HW222260   4.192   4.780   9.000
 3461SOL     OW22261   0.024   0.576   9.831
 3461SOL    HW122262   0.072   0.494   9.829
 3461SOL    HW222263   4.726   0.553   9.804
 3462SOL     OW22264   4.672   3.598   9.251
 3462SOL    HW122265   4.690   3.560   9.337
 3462SOL    HW222266   4.696   3.529   9.189
 3463SOL     OW22267   0.301   4.185   9.838
 3463SOL    HW122268   0.252   4.168   9.918
 3463SOL    HW222269   0.275   4.114   9.779
 3464SOL     OW22270   0.064   3.702   9.049
 3464SOL    HW122271   0.145   3.659   9.079
 3464SOL    HW222272   4.789   3.674   9.112
 3465SOL     OW22273   3.423   3.383  10.760
 3465SOL    HW122274   3.394   3.454  10.703
 3465SOL    HW222275   3.454   3.428  10.839
 3466SOL     OW22276   4.790   3.627  10.197
 3466SOL    HW122277   0.068   3.563  10.212
 3466SOL    HW222278   4.731   3.616  10.272
 3467SOL     OW22279   0.662   0.075  10.962
 3467SOL    HW122280   0.684   0.057  10.871
 3467SOL    HW222281   0.747   0.086  11.005
 3468SOL     OW22282   4.232   3.262  10.592
 3468SOL    HW122283   4.282   3.324  10.540
 3468SOL    HW222284   4.294   3.233  10.660
 3469SOL     OW22285   3.880   2.572  10.305
 3469SOL    HW122286   3.815   2.532  10.247
 3469SOL    HW222287   3.961   2.569  10.255
 3470SOL     OW22288   3.447   4.351   9.376
 3470SOL    HW122289   3.398   4.287   9.427
 3470SOL    HW222290   3.381   4.417   9.351
 3471SOL     OW22291   4.116   3.201  11.283
 3471SOL    HW122292   4.031   3.203  11.239
 3471SOL    HW222293   4.095   3.186  11.375
 3472SOL     OW22294   0.603   4.156   9.846
 3472SOL    HW122295   0.508   4.150   9.857
 3472SOL    HW222296   0.628   4.072   9.808
 3473SOL     OW22297   3.915   2.800  10.460
 3473SOL    HW122298   3.939   2.728  10.401
 3473SOL    HW222299   3.820   2.804  10.454
 3474SOL     OW22300   0.374   1.869  10.464
 3474SOL    HW122301   0.313   1.877  10.537
 3474SOL    HW222302   0.453   1.915  10.493
 3475SOL     OW22303   2.822   3.461   9.743
 3475SOL    HW122304   2.811   3.366   9.753
 3475SOL    HW222305   2.898   3.469   9.685
 3476SOL     OW22306   4.515   2.853   9.696
 3476SOL    HW122307   4.560   2.875   9.614
 3476SOL    HW222308   4.440   2.913   9.698
 3477SOL     OW22309   3.129   3.202  13.287
 3477SOL    HW122310   3.195   3.208  13.218
 3477SOL    HW222311   3.104   3.293  13.304
 3478SOL     OW22312   0.074   0.923  20.127
 3478SOL    HW122313   0.064   1.014  20.100
 3478SOL    HW222314   0.120   0.928  20.211
 3479SOL     OW22315   0.149   0.338   1.053
 3479SOL    HW122316   0.117   0.369   1.137
 3479SOL    HW222317   0.134   0.243   1.055
 3480SOL     OW22318   3.887   4.421  12.592
 3480SOL    HW122319   3.964   4.477  12.601
 3480SOL    HW222320   3.814   4.475  12.624
 3481SOL     OW22321   1.963   2.851  11.096
 3481SOL    HW122322   1.932   2.859  11.186
 3481SOL    HW222323   2.040   2.795  11.102
 3482SOL     OW22324   4.132   3.728  11.426
 3482SOL    HW122325   4.154   3.661  11.491
 3482SOL    HW222326   4.216   3.758  11.392
 3483SOL     OW22327   4.746   3.412  17.749
 3483SOL    HW122328   4.715   3.321  17.745
 3483SOL    HW222329   4.778   3.422  17.839
 3484SOL     OW22330   2.647   3.858   2.851
 3484SOL    HW122331   2.586   3.909   2.904
 3484SOL    HW222332   2.601   3.844   2.768
 3485SOL     OW22333   3.756   4.626  12.718
 3485SOL    HW122334   3.772   4.718  12.695
 3485SOL    HW222335   3.676   4.628  12.770
 3486SOL     OW22336   4.084   0.265  12.790
 3486SOL    HW122337   4.166   0.314  12.782
 3486SOL    HW222338   4.016   0.330  12.773
 3487SOL     OW22339   4.283   1.169  11.733
 3487SOL    HW122340   4.271   1.088  11.782
 3487SOL    HW222341   4.326   1.228  11.795
 3488SOL     OW22342   3.068   4.734   2.326
 3488SOL    HW122343   3.105   0.030   2.321
 3488SOL    HW222344   3.139   4.675   2.301
 3489SOL     OW22345   0.312   3.798  12.948
 3489SOL    HW122346   0.337   3.709  12.973
 3489SOL    HW222347   0.279   3.838  13.028
 3490SOL     OW22348   3.226   0.170  12.057
 3490SOL    HW122349   3.243   0.077  12.042
 3490SOL    HW222350   3.256   0.185  12.146
 3491SOL     OW22351   2.555   0.101  20.768
 3491SOL    HW122352   2.512   0.080  20.852
 3491SOL    HW222353   2.512   0.043  20.705
 3492SOL     OW22354   4.619   3.299  10.546
 3492SOL    HW122355   4.542   3.334  10.501
 3492SOL    HW222356   4.586   3.269  10.631
 3493SOL     OW22357   4.285   1.345  19.868
 3493SOL    HW122358   4.268   1.267  19.815
 3493SOL    HW222359   4.358   1.388  19.825
 3494SOL     OW22360   4.275   1.441  12.201
 3494SOL    HW122361   4.230   1.453  12.285
 3494SOL    HW222362   4.315   1.354  12.208
 3495SOL     OW22363   2.236   2.695   3.496
 3495SOL    HW122364   2.172   2.709   3.566
 3495SOL    HW222365   2.320   2.718   3.535
 3496SOL     OW22366   4.317   3.351   4.723
 3496SOL    HW122367   4.359   3.346   4.637
 3496SOL    HW222368   4.290   3.261   4.742
 3497SOL     OW22369   2.985   2.832   3.199
 3497SOL    HW122370   2.895   2.800   3.200
 3497SOL    HW222371   2.997   2.864   3.110
 3498SOL     OW22372   2.811   0.735   4.841
 3498SOL    HW122373   2.742   0.744   4.907
 3498SOL    HW222374   2.868   0.666   4.874
 3499SOL     OW22375   2.637   0.084   2.395
 3499SOL    HW122376   2.604   0.168   2.428
 3499SOL    HW222377   2.732   0.095   2.391
 3500SOL     OW22378   4.259   0.946  15.707
 3500SOL    HW122379   4.178   0.924  15.752
 3500SOL    HW222380   4.328   0.926  15.771
 3501SOL     OW22381   0.644   3.745  14.791
 3501SOL    HW122382   0.700   3.759  14.867
 3501SOL    HW222383   0.613   3.832  14.768
 3502SOL     OW22384   3.111   0.240   1.642
 3502SOL    HW122385   3.103   0.334   1.659
 3502SOL    HW222386   3.130   0.234   1.549
 3503SOL     OW22387   2.499   3.279  10.730
 3503SOL    HW122388   2.472   3.232  10.651
 3503SOL    HW222389   2.578   3.325  10.705
 3504SOL     OW22390   4.378   3.371   4.984
 3504SOL    HW122391   4.351   3.384   4.893
 3504SOL    HW222392   4.469   3.340   4.978
 3505SOL     OW22393   3.296   1.575  19.817
 3505SOL    HW122394   3.236   1.557  19.745
 3505SOL    HW222395   3.256   1.534  19.893
 3506SOL     OW22396   1.267   1.205  13.834
 3506SOL    HW122397   1.330   1.226  13.903
 3506SOL    HW222398   1.183   1.238  13.867
 3507SOL     OW22399   3.900   1.584   1.285
 3507SOL    HW122400   3.897   1.679   1.272
 3507SOL    HW222401   3.993   1.563   1.285
 3508SOL     OW22402   0.409   2.300   4.957
 3508SOL    HW122403   0.436   2.371   5.015
 3508SOL    HW222404   0.318   2.319   4.936
 3509SOL     OW22405   1.755   1.759  16.813
 3509SOL    HW122406   1.755   1.787  16.905
 3509SOL    HW222407   1.749   1.663  16.817
 3510SOL     OW22408   0.986   0.638  14.817
 3510SOL    HW122409   0.922   0.707  14.834
 3510SOL    HW222410   0.958   0.564  14.871
 3511SOL     OW22411   0.937   0.162  11.991
 3511SOL    HW122412   0.845   0.177  11.967
 3511SOL    HW222413   0.987   0.202  11.920
 3512SOL     OW22414   0.088   0.044  10.996
 3512SOL    HW122415   0.078   0.084  11.082
 3512SOL    HW222416   0.182   0.039  10.982
 3513SOL     OW22417   0.763   1.593  15.483
 3513SOL    HW122418   0.848   1.556  15.508
 3513SOL    HW222419   0.765   1.596  15.388
 3514SOL     OW22420   0.170   1.277   2.066
 3514SOL    HW122421   0.114   1.224   2.122
 3514SOL    HW222422   0.127   1.362   2.060
 3515SOL     OW22423   4.455   1.605  18.104
 3515SOL    HW122424   4.541   1.642  18.087
 3515SOL    HW222425   4.464   1.561  18.189
 3516SOL     OW22426   2.958   1.756  15.423
 3516SOL    HW122427   2.898   1.756  15.348
 3516SOL    HW222428   2.916   1.699  15.487
 3517SOL     OW22429   3.248   0.594  16.542
 3517SOL    HW122430   3.196   0.527  16.497
 3517SOL    HW222431   3.335   0.555  16.552
 3518SOL     OW22432   4.718   3.856  15.091
 3518SOL    HW122433   4.714   3.763  15.071
 3518SOL    HW222434   4.705   3.899  15.006
 3519SOL     OW22435   4.612   1.102  12.484
 3519SOL    HW122436   4.661   1.184  12.489
 3519SOL    HW222437   4.593   1.080  12.575
 3520SOL     OW22438   4.597   3.974  16.044
 3520SOL    HW122439   4.560   4.026  15.972
 3520SOL    HW222440   4.620   4.039  16.110
 3521SOL     OW22441   4.314   2.857   0.861
 3521SOL    HW122442   4.286   2.770   0.831
 3521SOL    HW222443   4.385   2.881   0.802
 3522SOL     OW22444   3.837   1.757   5.003
 3522SOL    HW122445   3.781   1.690   4.963
 3522SOL    HW222446   3.915   1.710   5.030
 3523SOL     OW22447   3.549   4.318   5.099
 3523SOL    HW122448   3.592   4.236   5.075
 3523SOL    HW222449   3.503   4.299   5.180
 3524SOL     OW22450   4.697   3.989  20.825
 3524SOL    HW122451   4.666   3.901  20.850
 3524SOL    HW222452   4.666   4.001  20.736
 3525SOL     OW22453   1.684   2.975  18.046
 3525SOL    HW122454   1.750   2.921  18.088
 3525SOL    HW222455   1.732   3.024  17.979
 3526SOL     OW22456   3.648   1.927   4.889
 3526SOL    HW122457   3.652   2.018   4.859
 3526SOL    HW222458   3.738   1.905   4.910
 3527SOL     OW22459   4.398   3.897   4.766
 3527SOL    HW122460   4.485   3.886   4.726
 3527SOL    HW222461   4.369   3.807   4.785
 3528SOL     OW22462   2.411   0.710   1.979
 3528SOL    HW122463   2.441   0.782   1.924
 3528SOL    HW222464   2.353   0.658   1.923
 3529SOL     OW22465   2.913   1.828  15.770
 3529SOL    HW122466   2.860   1.900  15.805
 3529SOL    HW222467   2.881   1.816  15.681
 3530SOL     OW22468   4.504   1.959   0.641
 3530SOL    HW122469   4.582   1.966   0.586
 3530SOL    HW222470   4.433   1.992   0.585
 3531SOL     OW22471   0.102   1.199  20.618
 3531SOL    HW122472   0.153   1.145  20.679
 3531SOL    HW222473   0.144   1.285  20.622
 3532SOL     OW22474   2.829   1.501  19.782
 3532SOL    HW122475   2.906   1.454  19.752
 3532SOL    HW222476   2.756   1.457  19.738
 3533SOL     OW22477   2.811   3.567   0.915
 3533SOL    HW122478   2.729   3.617   0.915
 3533SOL    HW222479   2.865   3.609   0.982
 3534SOL     OW22480   4.672   2.454  12.695
 3534SOL    HW122481   4.577   2.463  12.685
 3534SOL    HW222482   4.707   2.541  12.676
 3535SOL     OW22483   1.025   0.094  21.152
 3535SOL    HW122484   1.120   0.091  21.159
 3535SOL    HW222485   1.004   0.188  21.155
 3536SOL     OW22486   0.991   4.142   0.228
 3536SOL    HW122487   0.969   4.049   0.228
 3536SOL    HW222488   0.959   4.174   0.143
 3537SOL     OW22489   1.739   1.783  17.099
 3537SOL    HW122490   1.736   1.847  17.169
 3537SOL    HW222491   1.800   1.715  17.130
 3538SOL     OW22492   3.963   2.255   2.102
 3538SOL    HW122493   4.038   2.272   2.160
 3538SOL    HW222494   3.891   2.234   2.162
 3539SOL     OW22495   2.251   2.735  11.121
 3539SOL    HW122496   2.208   2.655  11.091
 3539SOL    HW222497   2.332   2.704  11.161
 3540SOL     OW22498   4.346   1.836  15.071
 3540SOL    HW122499   4.371   1.882  14.991
 3540SOL    HW222500   4.261   1.874  15.095
 3541SOL     OW22501   2.265   2.407  18.872
 3541SOL    HW122502   2.204   2.375  18.806
 3541SOL    HW222503   2.239   2.498  18.886
 3542SOL     OW22504   0.384   2.261  14.426
 3542SOL    HW122505   0.382   2.177  14.474
 3542SOL    HW222506   0.311   2.311  14.463
 3543SOL     OW22507   2.605   0.789   8.298
 3543SOL    HW122508   2.610   0.699   8.331
 3543SOL    HW222509   2.512   0.804   8.282
 3544SOL     OW22510   1.129   2.584   2.426
 3544SOL    HW122511   1.159   2.509   2.477
 3544SOL    HW222512   1.125   2.551   2.336
 3545SOL     OW22513   0.593   0.708   1.908
 3545SOL    HW122514   0.505   0.745   1.909
 3545SOL    HW222515   0.602   0.667   1.994
 3546SOL     OW22516   3.439   4.408  15.542
 3546SOL    HW122517   3.441   4.313  15.530
 3546SOL    HW222518   3.370   4.439  15.483
 3547SOL     OW22519   4.018   4.519  18.797
 3547SOL    HW122520   4.027   4.584  18.727
 3547SOL    HW222521   3.948   4.553  18.852
 3548SOL     OW22522   3.844   2.917   2.013
 3548SOL    HW122523   3.878   2.967   1.939
 3548SOL    HW222524   3.913   2.920   2.079
 3549SOL     OW22525   2.101   4.220  17.467
 3549SOL    HW122526   2.118   4.310  17.495
 3549SOL    HW222527   2.054   4.229  17.385
 3550SOL     OW22528   1.926   4.315   5.146
 3550SOL    HW122529   1.831   4.314   5.151
 3550SOL    HW222530   1.955   4.255   5.215
 3551SOL     OW22531   0.373   3.935   5.136
 3551SOL    HW122532   0.311   3.863   5.148
 3551SOL    HW222533   0.384   3.973   5.223
 3552SOL     OW22534   3.827   4.601  13.510
 3552SOL    HW122535   3.909   4.553  13.493
 3552SOL    HW222536   3.788   4.613  13.424
 3553SOL     OW22537   0.609   4.093  20.678
 3553SOL    HW122538   0.619   4.097  20.773
 3553SOL    HW222539   0.611   4.184  20.649
 3554SOL     OW22540   2.947   1.495  19.391
 3554SOL    HW122541   2.980   1.405  19.383
 3554SOL    HW222542   2.960   1.533  19.303
 3555SOL     OW22543   2.443   1.310   3.132
 3555SOL    HW122544   2.525   1.352   3.104
 3555SOL    HW222545   2.465   1.265   3.213
 3556SOL     OW22546   0.518   4.175  17.458
 3556SOL    HW122547   0.565   4.236  17.513
 3556SOL    HW222548   0.546   4.195  17.369
 3557SOL     OW22549   2.496   2.978  16.644
 3557SOL    HW122550   2.469   3.007  16.557
 3557SOL    HW222551   2.447   3.034  16.704
 3558SOL     OW22552   2.776   2.616   5.817
 3558SOL    HW122553   2.770   2.711   5.822
 3558SOL    HW222554   2.754   2.596   5.726
 3559SOL     OW22555   0.134   1.746  18.891
 3559SOL    HW122556   0.106   1.772  18.803
 3559SOL    HW222557   0.053   1.714  18.932
 3560SOL     OW22558   4.510   2.028  11.893
 3560SOL    HW122559   4.586   2.073  11.931
 3560SOL    HW222560   4.538   1.937  11.883
 3561SOL     OW22561   0.412   2.348  20.691
 3561SOL    HW122562   0.348   2.408  20.653
 3561SOL    HW222563   0.473   2.330  20.619
 3562SOL     OW22564   1.869   1.159   3.653
 3562SOL    HW122565   1.883   1.065   3.640
 3562SOL    HW222566   1.814   1.185   3.578
 3563SOL     OW22567   2.605   1.071   1.261
 3563SOL    HW122568   2.616   1.091   1.354
 3563SOL    HW222569   2.620   0.976   1.255
 3564SOL     OW22570   3.629   4.605  15.523
 3564SOL    HW122571   3.562   4.540  15.501
 3564SOL    HW222572   3.691   4.558  15.579
 3565SOL     OW22573   2.997   0.307   0.595
 3565SOL    HW122574   2.936   0.277   0.528
 3565SOL    HW222575   2.974   0.399   0.609
 3566SOL     OW22576   3.914   3.832   5.266
 3566SOL    HW122577   3.919   3.846   5.360
 3566SOL    HW222578   3.990   3.878   5.230
 3567SOL     OW22579   4.508   0.418  17.271
 3567SOL    HW122580   4.423   0.378  17.250
 3567SOL    HW222581   4.570   0.376  17.211
 3568SOL     OW22582   2.168   0.225  15.663
 3568SOL    HW122583   2.090   0.202  15.714
 3568SOL    HW222584   2.141   0.301  15.611
 3569SOL     OW22585   0.340   2.871   3.403
 3569SOL    HW122586   0.278   2.859   3.331
 3569SOL    HW222587   0.393   2.947   3.376
 3570SOL     OW22588   0.114   3.560  13.351
 3570SOL    HW122589   0.057   3.605  13.413
 3570SOL    HW222590   0.202   3.573  13.386
 3571SOL     OW22591   2.563   1.637   7.802
 3571SOL    HW122592   2.637   1.698   7.801
 3571SOL    HW222593   2.486   1.692   7.805
 3572SOL     OW22594   2.469   2.134   3.230
 3572SOL    HW122595   2.440   2.092   3.311
 3572SOL    HW222596   2.559   2.103   3.218
 3573SOL     OW22597   4.353   2.535  20.714
 3573SOL    HW122598   4.351   2.462  20.652
 3573SOL    HW222599   4.426   2.590  20.683
 3574SOL     OW22600   0.406   2.905  15.916
 3574SOL    HW122601   0.476   2.877  15.975
 3574SOL    HW222602   0.394   2.998  15.936
 3575SOL     OW22603   0.761   2.703  15.588
 3575SOL    HW122604   0.719   2.645  15.524
 3575SOL    HW222605   0.846   2.663  15.606
 3576SOL     OW22606   2.401   3.901   5.778
 3576SOL    HW122607   2.320   3.907   5.829
 3576SOL    HW222608   2.386   3.958   5.702
 3577SOL     OW22609   2.345   0.937  12.181
 3577SOL    HW122610   2.372   0.866  12.123
 3577SOL    HW222611   2.424   0.956  12.232
 3578SOL     OW22612   1.192   3.599  18.576
 3578SOL    HW122613   1.186   3.671  18.638
 3578SOL    HW222614   1.102   3.568  18.565
 3579SOL     OW22615   0.877   3.332   5.651
 3579SOL    HW122616   0.945   3.334   5.719
 3579SOL    HW222617   0.897   3.254   5.599
 3580SOL     OW22618   4.281   3.449  20.648
 3580SOL    HW122619   4.194   3.410  20.635
 3580SOL    HW222620   4.333   3.417  20.575
 3581SOL     OW22621   2.278   3.963  16.577
 3581SOL    HW122622   2.302   4.052  16.600
 3581SOL    HW222623   2.348   3.909  16.613
 3582SOL     OW22624   3.728   2.924  19.745
 3582SOL    HW122625   3.819   2.905  19.720
 3582SOL    HW222626   3.692   2.839  19.770
 3583SOL     OW22627   4.551   3.690   5.427
 3583SOL    HW122628   4.480   3.709   5.489
 3583SOL    HW222629   4.508   3.651   5.352
 3584SOL     OW22630   0.084   2.469   2.331
 3584SOL    HW122631   0.165   2.421   2.310
 3584SOL    HW222632   0.033   2.408   2.383
 3585SOL     OW22633   3.039   0.734  16.629
 3585SOL    HW122634   3.074   0.799  16.568
 3585SOL    HW222635   3.104   0.664  16.629
 3586SOL     OW22636   0.470   4.616   4.927
 3586SOL    HW122637   0.536   4.685   4.930
 3586SOL    HW222638   0.425   4.622   5.011
 3587SOL     OW22639   3.707   2.724  15.598
 3587SOL    HW122640   3.672   2.729  15.687
 3587SOL    HW222641   3.629   2.720  15.542
 3588SOL     OW22642   0.761   4.589  16.154
 3588SOL    HW122643   0.710   4.564  16.231
 3588SOL    HW222644   0.852   4.570  16.178
 3589SOL     OW22645   2.656   1.948   5.461
 3589SOL    HW122646   2.683   2.031   5.499
 3589SOL    HW222647   2.604   1.906   5.530
 3590SOL     OW22648   4.601   3.756   4.138
 3590SOL    HW122649   4.512   3.723   4.125
 3590SOL    HW222650   4.642   3.744   4.052
 3591SOL     OW22651   1.613   2.598  15.444
 3591SOL    HW122652   1.610   2.563  15.533
 3591SOL    HW222653   1.672   2.540  15.398
 3592SOL     OW22654   3.064   0.864   4.940
 3592SOL    HW122655   2.985   0.918   4.931
 3592SOL    HW222656   3.033   0.781   4.975
 3593SOL     OW22657   3.534   0.774  16.495
 3593SOL    HW122658   3.546   0.869  16.487
 3593SOL    HW222659   3.460   0.754  16.438
 3594SOL     OW22660   2.804   1.140  13.126
 3594SOL    HW122661   2.822   1.120  13.035
 3594SOL    HW222662   2.882   1.111  13.173
 3595SOL     OW22663   2.948   4.581  19.410
 3595SOL    HW122664   2.857   4.552  19.400
 3595SOL    HW222665   3.000   4.507  19.379
 3596SOL     OW22666   2.024   3.151  20.020
 3596SOL    HW122667   2.009   3.133  20.113
 3596SOL    HW222668   1.956   3.102  19.974
 3597SOL     OW22669   2.017   3.687  15.329
 3597SOL    HW122670   2.015   3.631  15.250
 3597SOL    HW222671   1.930   3.727  15.331
 3598SOL     OW22672   4.641   2.257  21.164
 3598SOL    HW122673   4.557   2.301  21.178
 3598SOL    HW222674   4.668   2.287  21.077
 3599SOL     OW22675   4.524   1.971  17.616
 3599SOL    HW122676   4.596   1.996  17.674
 3599SOL    HW222677   4.475   2.053  17.601
 3600SOL     OW22678   1.008   3.831  15.941
 3600SOL    HW122679   1.034   3.807  16.030
 3600SOL    HW222680   0.960   3.754  15.910
 3601SOL     OW22681   1.287   4.750  15.551
 3601SOL    HW122682   1.310   0.025  15.485
 3601SOL    HW222683   1.219   4.697  15.508
 3602SOL     OW22684   2.731   0.847   1.903
 3602SOL    HW122685   2.744   0.753   1.896
 3602SOL    HW222686   2.767   0.882   1.821
 3603SOL     OW22687   2.215   3.221   5.340
 3603SOL    HW122688   2.301   3.250   5.309
 3603SOL    HW222689   2.206   3.133   5.305
 3604SOL     OW22690   0.426   4.294  18.042
 3604SOL    HW122691   0.372   4.248  18.106
 3604SOL    HW222692   0.371   4.365  18.010
 3605SOL     OW22693   1.818   4.743   4.956
 3605SOL    HW122694   1.882   4.775   4.893
 3605SOL    HW222695   1.801   0.026   5.014
 3606SOL     OW22696   1.215   4.115  18.133
 3606SOL    HW122697   1.182   4.203  18.117
 3606SOL    HW222698   1.306   4.127  18.158
 3607SOL     OW22699   3.405   0.733  21.200
 3607SOL    HW122700   3.392   0.644  21.166
 3607SOL    HW222701   3.416   0.788  21.123
 3608SOL     OW22702   3.692   1.441  14.147
 3608SOL    HW122703   3.693   1.521  14.095
 3608SOL    HW222704   3.785   1.419  14.159
 3609SOL     OW22705   0.346   0.552  15.909
 3609SOL    HW122706   0.346   0.502  15.990
 3609SOL    HW222707   0.436   0.581  15.898
 3610SOL     OW22708   2.383   2.229   0.701
 3610SOL    HW122709   2.419   2.174   0.632
 3610SOL    HW222710   2.422   2.196   0.781
 3611SOL     OW22711   4.130   2.826  16.397
 3611SOL    HW122712   4.218   2.853  16.372
 3611SOL    HW222713   4.080   2.829  16.315
 3612SOL     OW22714   1.640   3.692   5.144
 3612SOL    HW122715   1.735   3.703   5.132
 3612SOL    HW222716   1.625   3.712   5.236
 3613SOL     OW22717   1.060   4.761   5.080
 3613SOL    HW122718   1.003   0.029   5.031
 3613SOL    HW222719   1.084   0.020   5.158
 3614SOL     OW22720   4.524   2.987   0.407
 3614SOL    HW122721   4.567   3.031   0.334
 3614SOL    HW222722   4.436   3.025   0.409
 3615SOL     OW22723   0.157   4.439  13.137
 3615SOL    HW122724   0.222   4.487  13.086
 3615SOL    HW222725   0.096   4.405  13.072
 3616SOL     OW22726   3.995   0.508   4.006
 3616SOL    HW122727   4.022   0.430   4.054
 3616SOL    HW222728   3.985   0.479   3.916
 3617SOL     OW22729   0.526   3.858  16.030
 3617SOL    HW122730   0.550   3.855  15.937
 3617SOL    HW222731   0.535   3.951  16.054
 3618SOL     OW22732   0.856   3.641  17.080
 3618SOL    HW122733   0.928   3.590  17.042
 3618SOL    HW222734   0.841   3.711  17.017
 3619SOL     OW22735   3.323   1.251   6.913
 3619SOL    HW122736   3.394   1.203   6.954
 3619SOL    HW222737   3.244   1.216   6.954
 3620SOL     OW22738   3.738   3.953   0.328
 3620SOL    HW122739   3.695   3.903   0.397
 3620SOL    HW222740   3.710   3.910   0.247
 3621SOL     OW22741   3.199   4.285  16.101
 3621SOL    HW122742   3.253   4.297  16.024
 3621SOL    HW222743   3.192   4.373  16.140
 3622SOL     OW22744   3.299   4.571   2.213
 3622SOL    HW122745   3.346   4.629   2.154
 3622SOL    HW222746   3.367   4.525   2.262
 3623SOL     OW22747   1.769   4.250  19.249
 3623SOL    HW122748   1.861   4.270  19.267
 3623SOL    HW222749   1.727   4.336  19.243
 3624SOL     OW22750   4.407   2.909  16.316
 3624SOL    HW122751   4.361   2.949  16.242
 3624SOL    HW222752   4.458   2.837  16.277
 3625SOL     OW22753   1.804   0.455   2.991
 3625SOL    HW122754   1.781   0.537   2.948
 3625SOL    HW222755   1.840   0.481   3.075
 3626SOL     OW22756   0.181   2.927  19.240
 3626SOL    HW122757   0.204   2.881  19.159
 3626SOL    HW222758   0.093   2.961  19.225
 3627SOL     OW22759   0.396   0.913  17.645
 3627SOL    HW122760   0.346   0.985  17.684
 3627SOL    HW222761   0.339   0.836  17.655
 3628SOL     OW22762   3.742   4.441   1.062
 3628SOL    HW122763   3.808   4.465   0.996
 3628SOL    HW222764   3.732   4.520   1.116
 3629SOL     OW22765   2.199   3.377  21.210
 3629SOL    HW122766   2.213   3.318  21.136
 3629SOL    HW222767   2.161   3.321   0.015
 3630SOL     OW22768   0.280   4.131   0.866
 3630SOL    HW122769   0.304   4.212   0.911
 3630SOL    HW222770   0.273   4.066   0.936
 3631SOL     OW22771   4.670   4.733   5.504
 3631SOL    HW122772   4.670   0.037   5.494
 3631SOL    HW222773   4.718   4.700   5.429
 3632SOL     OW22774   1.308   3.095  18.885
 3632SOL    HW122775   1.301   3.190  18.877
 3632SOL    HW222776   1.395   3.080  18.923
 3633SOL     OW22777   0.015   3.092   5.464
 3633SOL    HW122778   0.019   3.187   5.448
 3633SOL    HW222779   4.770   3.056   5.383
 3634SOL     OW22780   1.938   0.165  21.003
 3634SOL    HW122781   1.924   0.249  21.048
 3634SOL    HW222782   2.030   0.145  21.019
 3635SOL     OW22783   1.191   0.748   6.241
 3635SOL    HW122784   1.113   0.734   6.295
 3635SOL    HW222785   1.198   0.669   6.188
 3636SOL     OW22786   1.836   3.686   5.583
 3636SOL    HW122787   1.837   3.763   5.639
 3636SOL    HW222788   1.879   3.618   5.636
 3637SOL     OW22789   1.506   3.123  19.126
 3637SOL    HW122790   1.509   3.214  19.154
 3637SOL    HW222791   1.597   3.099  19.113
 3638SOL     OW22792   1.890   3.958   2.676
 3638SOL    HW122793   1.804   3.949   2.635
 3638SOL    HW222794   1.871   3.961   2.770
 3639SOL     OW22795   2.032   4.338  19.343
 3639SOL    HW122796   2.062   4.373  19.427
 3639SOL    HW222797   2.081   4.386  19.277
 3640SOL     OW22798   1.324   3.193  20.950
 3640SOL    HW122799   1.384   3.121  20.968
 3640SOL    HW222800   1.256   3.184  21.018
 3641SOL     OW22801   2.775   4.007  19.255
 3641SOL    HW122802   2.744   3.928  19.210
 3641SOL    HW222803   2.723   4.012  19.334
 3642SOL     OW22804   2.429   0.375   5.763
 3642SOL    HW122805   2.348   0.385   5.714
 3642SOL    HW222806   2.426   0.285   5.796
 3643SOL     OW22807   2.428   1.935   6.541
 3643SOL    HW122808   2.482   1.961   6.616
 3643SOL    HW222809   2.351   1.894   6.581
 3644SOL     OW22810   0.770   1.967  18.252
 3644SOL    HW122811   0.836   2.020  18.206
 3644SOL    HW222812   0.820   1.900  18.298
 3645SOL     OW22813   0.051   0.364   1.842
 3645SOL    HW122814   0.130   0.336   1.889
 3645SOL    HW222815   0.065   0.457   1.826
 3646SOL     OW22816   1.677   4.004   4.168
 3646SOL    HW122817   1.591   4.034   4.139
 3646SOL    HW222818   1.659   3.946   4.242
 3647SOL     OW22819   1.770   0.409   2.116
 3647SOL    HW122820   1.709   0.399   2.044
 3647SOL    HW222821   1.730   0.360   2.188
 3648SOL     OW22822   1.577   3.735  20.707
 3648SOL    HW122823   1.600   3.672  20.776
 3648SOL    HW222824   1.659   3.750  20.660
 3649SOL     OW22825   4.104   1.000  16.269
 3649SOL    HW122826   4.149   1.063  16.324
 3649SOL    HW222827   4.140   1.014  16.181
 3650SOL     OW22828   4.391   1.841   0.269
 3650SOL    HW122829   4.348   1.755   0.273
 3650SOL    HW222830   4.454   1.833   0.197
 3651SOL     OW22831   3.200   3.013   1.408
 3651SOL    HW122832   3.199   2.971   1.322
 3651SOL    HW222833   3.122   2.979   1.452
 3652SOL     OW22834   3.424   2.495   7.099
 3652SOL    HW122835   3.468   2.571   7.138
 3652SOL    HW222836   3.338   2.527   7.074
 3653SOL     OW22837   0.095   1.757   8.223
 3653SOL    HW122838   0.084   1.691   8.154
 3653SOL    HW222839   0.023   1.739   8.283
 3654SOL     OW22840   1.631   3.879   6.715
 3654SOL    HW122841   1.678   3.909   6.793
 3654SOL    HW222842   1.684   3.911   6.641
 3655SOL     OW22843   3.211   1.265  20.214
 3655SOL    HW122844   3.174   1.317  20.144
 3655SOL    HW222845   3.266   1.326  20.263
 3656SOL     OW22846   2.895   4.526  16.801
 3656SOL    HW122847   2.970   4.473  16.774
 3656SOL    HW222848   2.828   4.508  16.735
 3657SOL     OW22849   2.516   0.802   4.781
 3657SOL    HW122850   2.550   0.721   4.821
 3657SOL    HW222851   2.534   0.791   4.687
 3658SOL     OW22852   3.579   2.503  16.523
 3658SOL    HW122853   3.671   2.519  16.540
 3658SOL    HW222854   3.553   2.439  16.589
 3659SOL     OW22855   2.113   4.607   5.594
 3659SOL    HW122856   2.143   4.526   5.552
 3659SOL    HW222857   2.032   4.630   5.548
 3660SOL     OW22858   1.694   4.789   3.415
 3660SOL    HW122859   1.603   4.762   3.405
 3660SOL    HW222860   1.719   0.032   3.330
 3661SOL     OW22861   3.131   1.111  16.107
 3661SOL    HW122862   3.044   1.117  16.146
 3661SOL    HW222863   3.124   1.162  16.026
 3662SOL     OW22864   0.762   4.712   1.608
 3662SOL    HW122865   0.747   4.761   1.528
 3662SOL    HW222866   0.747   4.775   1.679
 3663SOL     OW22867   4.284   2.714   5.402
 3663SOL    HW122868   4.258   2.631   5.362
 3663SOL    HW222869   4.271   2.779   5.333
 3664SOL     OW22870   4.568   2.981   0.987
 3664SOL    HW122871   4.644   3.020   0.944
 3664SOL    HW222872   4.511   3.056   1.007
 3665SOL     OW22873   1.130   4.715   6.504
 3665SOL    HW122874   1.180   4.674   6.432
 3665SOL    HW222875   1.094   0.004   6.465
 3666SOL     OW22876   0.940   3.208   3.260
 3666SOL    HW122877   0.998   3.149   3.308
 3666SOL    HW222878   0.939   3.173   3.171
 3667SOL     OW22879   4.186   1.000   5.330
 3667SOL    HW122880   4.179   1.075   5.270
 3667SOL    HW222881   4.095   0.980   5.353
 3668SOL     OW22882   3.879   2.447   2.823
 3668SOL    HW122883   3.799   2.466   2.774
 3668SOL    HW222884   3.855   2.375   2.881
 3669SOL     OW22885   4.404   3.646  20.117
 3669SOL    HW122886   4.416   3.724  20.062
 3669SOL    HW222887   4.410   3.573  20.056
 3670SOL     OW22888   0.006   2.225   1.586
 3670SOL    HW122889   0.044   2.294   1.531
 3670SOL    HW222890   0.014   2.145   1.534
 3671SOL     OW22891   3.065   4.161   0.376
 3671SOL    HW122892   3.112   4.080   0.356
 3671SOL    HW222893   3.008   4.175   0.300
 3672SOL     OW22894   3.977   0.651  15.730
 3672SOL    HW122895   3.994   0.746  15.730
 3672SOL    HW222896   3.972   0.627  15.822
 3673SOL     OW22897   1.513   3.147  17.328
 3673SOL    HW122898   1.581   3.211  17.305
 3673SOL    HW222899   1.529   3.073  17.269
 3674SOL     OW22900   4.402   1.032   4.472
 3674SOL    HW122901   4.493   1.047   4.498
 3674SOL    HW222902   4.351   1.095   4.522
 3675SOL     OW22903   4.431   3.521   1.382
 3675SOL    HW122904   4.358   3.496   1.439
 3675SOL    HW222905   4.395   3.586   1.322
 3676SOL     OW22906   2.572   3.548   2.579
 3676SOL    HW122907   2.519   3.485   2.627
 3676SOL    HW222908   2.535   3.633   2.600
 3677SOL     OW22909   1.051   2.981  16.284
 3677SOL    HW122910   1.043   2.903  16.228
 3677SOL    HW222911   1.089   2.948  16.365
 3678SOL     OW22912   2.142   3.892  19.007
 3678SOL    HW122913   2.213   3.930  19.058
 3678SOL    HW222914   2.152   3.797  19.018
 3679SOL     OW22915   1.408   3.208   1.745
 3679SOL    HW122916   1.402   3.229   1.652
 3679SOL    HW222917   1.320   3.177   1.768
 3680SOL     OW22918   4.335   4.073   1.743
 3680SOL    HW122919   4.400   4.125   1.790
 3680SOL    HW222920   4.355   3.982   1.767
 3681SOL     OW22921   0.742   3.879   3.994
 3681SOL    HW122922   0.697   3.958   3.966
 3681SOL    HW222923   0.826   3.909   4.028
 3682SOL     OW22924   4.702   4.742   2.537
 3682SOL    HW122925   4.650   4.779   2.609
 3682SOL    HW222926   4.694   4.647   2.550
 3683SOL     OW22927   0.297   0.152   1.884
 3683SOL    HW122928   0.373   0.160   1.941
 3683SOL    HW222929   0.229   0.115   1.941
 3684SOL     OW22930   4.225   0.785  17.809
 3684SOL    HW122931   4.263   0.699  17.792
 3684SOL    HW222932   4.142   0.784  17.760
 3685SOL     OW22933   4.139   0.592   6.179
 3685SOL    HW122934   4.113   0.553   6.095
 3685SOL    HW222935   4.179   0.520   6.227
 3686SOL     OW22936   3.249   1.205  18.837
 3686SOL    HW122937   3.242   1.109  18.835
 3686SOL    HW222938   3.315   1.223  18.903
 3687SOL     OW22939   2.576   0.424  16.413
 3687SOL    HW122940   2.575   0.355  16.480
 3687SOL    HW222941   2.627   0.495  16.453
 3688SOL     OW22942   0.184   4.683  17.237
 3688SOL    HW122943   0.254   4.745  17.215
 3688SOL    HW222944   0.106   4.738  17.247
 3689SOL     OW22945   3.533   4.441   4.247
 3689SOL    HW122946   3.523   4.373   4.180
 3689SOL    HW222947   3.526   4.393   4.330
 3690SOL     OW22948   1.585   3.869   2.958
 3690SOL    HW122949   1.528   3.940   2.985
 3690SOL    HW222950   1.546   3.790   2.996
 3691SOL     OW22951   3.917   0.711   1.065
 3691SOL    HW122952   4.008   0.717   1.094
 3691SOL    HW222953   3.911   0.625   1.025
 3692SOL     OW22954   4.297   0.460   1.528
 3692SOL    HW122955   4.212   0.480   1.489
 3692SOL    HW222956   4.353   0.534   1.503
 3693SOL     OW22957   3.130   2.950   3.964
 3693SOL    HW122958   3.204   2.908   3.919
 3693SOL    HW222959   3.138   3.043   3.942
 3694SOL     OW22960   3.507   4.501   1.758
 3694SOL    HW122961   3.427   4.485   1.708
 3694SOL    HW222962   3.578   4.474   1.699
 3695SOL     OW22963   4.557   0.590   2.037
 3695SOL    HW122964   4.575   0.569   2.128
 3695SOL    HW222965   4.463   0.608   2.035
 3696SOL     OW22966   4.751   4.753  19.285
 3696SOL    HW122967   4.771   4.660  19.279
 3696SOL    HW222968   0.038   4.791  19.327
 3697SOL     OW22969   3.792   3.571  18.855
 3697SOL    HW122970   3.712   3.624  18.862
 3697SOL    HW222971   3.760   3.482  18.842
 3698SOL     OW22972   1.161   2.678  17.445
 3698SOL    HW122973   1.151   2.647  17.535
 3698SOL    HW222974   1.255   2.669  17.427
 3699SOL     OW22975   3.144   2.920   3.550
 3699SOL    HW122976   3.054   2.948   3.566
 3699SOL    HW222977   3.157   2.845   3.608
 3700SOL     OW22978   1.754   3.418  18.245
 3700SOL    HW122979   1.677   3.416  18.189
 3700SOL    HW222980   1.772   3.511  18.260
 3701SOL     OW22981   2.031   2.837   1.436
 3701SOL    HW122982   2.028   2.813   1.528
 3701SOL    HW222983   2.116   2.805   1.405
 3702SOL     OW22984   4.186   4.015   1.511
 3702SOL    HW122985   4.139   3.954   1.568
 3702SOL    HW222986   4.247   4.060   1.569
 3703SOL     OW22987   2.933   4.233  19.075
 3703SOL    HW122988   2.870   4.203  19.010
 3703SOL    HW222989   2.959   4.154  19.121
 3704SOL     OW22990   0.505   0.029   4.662
 3704SOL    HW122991   0.563   0.045   4.737
 3704SOL    HW222992   0.507   4.726   4.650
 3705SOL     OW22993   4.068   3.509  19.373
 3705SOL    HW122994   3.974   3.494  19.374
 3705SOL    HW222995   4.106   3.428  19.407
 3706SOL     OW22996   1.710   3.130   0.646
 3706SOL    HW122997   1.700   3.194   0.716
 3706SOL    HW222998   1.704   3.045   0.689
 3707SOL     OW22999   2.748   1.365   6.590
 3707SOL    HW123000   2.778   1.384   6.679
 3707SOL    HW223001   2.746   1.450   6.546
 3708SOL     OW23002   4.446   3.978   0.826
 3708SOL    HW123003   4.406   3.952   0.742
 3708SOL    HW223004   4.381   4.035   0.866
 3709SOL     OW23005   3.974   4.317   9.790
 3709SOL    HW123006   3.930   4.365   9.860
 3709SOL    HW223007   4.064   4.351   9.790
 3710SOL     OW23008   1.369   1.192   4.742
 3710SOL    HW123009   1.399   1.266   4.690
 3710SOL    HW223010   1.305   1.229   4.803
 3711SOL     OW23011   4.263   3.514   0.307
 3711SOL    HW123012   4.336   3.488   0.252
 3711SOL    HW223013   4.301   3.576   0.370
 3712SOL     OW23014   1.066   1.524  18.714
 3712SOL    HW123015   1.113   1.441  18.710
 3712SOL    HW223016   1.072   1.551  18.806
 3713SOL     OW23017   2.415   0.781  19.436
 3713SOL    HW123018   2.365   0.818  19.509
 3713SOL    HW223019   2.494   0.744  19.477
 3714SOL     OW23020   4.300   2.214  18.161
 3714SOL    HW123021   4.244   2.291  18.157
 3714SOL    HW223022   4.371   2.239  18.221
 3715SOL     OW23023   3.032   2.955   2.448
 3715SOL    HW123024   3.039   3.034   2.394
 3715SOL    HW223025   3.004   2.988   2.534
 3716SOL     OW23026   0.071   4.742   4.363
 3716SOL    HW123027   0.098   4.704   4.446
 3716SOL    HW223028   0.109   4.685   4.297
 3717SOL     OW23029   1.225   1.932  18.203
 3717SOL    HW123030   1.230   1.853  18.256
 3717SOL    HW223031   1.274   1.911  18.124
 3718SOL     OW23032   1.222   2.596  17.936
 3718SOL    HW123033   1.313   2.595  17.965
 3718SOL    HW223034   1.178   2.533  17.993
 3719SOL     OW23035   2.709   2.246   0.706
 3719SOL    HW123036   2.682   2.175   0.764
 3719SOL    HW223037   2.687   2.216   0.618
 3720SOL     OW23038   2.892   0.255  15.600
 3720SOL    HW123039   2.895   0.279  15.508
 3720SOL    HW223040   2.885   0.339  15.646
 3721SOL     OW23041   1.302   3.028  12.798
 3721SOL    HW123042   1.210   3.001  12.802
 3721SOL    HW223043   1.339   2.998  12.882
 3722SOL     OW23044   2.999   4.300  16.622
 3722SOL    HW123045   3.065   4.347  16.571
 3722SOL    HW223046   3.019   4.207  16.609
 3723SOL     OW23047   0.640   2.587  15.014
 3723SOL    HW123048   0.595   2.600  15.098
 3723SOL    HW223049   0.661   2.493  15.013
 3724SOL     OW23050   3.437   4.507  17.557
 3724SOL    HW123051   3.428   4.602  17.548
 3724SOL    HW223052   3.531   4.492  17.553
 3725SOL     OW23053   3.487   4.185  17.784
 3725SOL    HW123054   3.540   4.236  17.845
 3725SOL    HW223055   3.475   4.101  17.827
 3726SOL     OW23056   3.897   2.027   8.486
 3726SOL    HW123057   3.898   2.085   8.562
 3726SOL    HW223058   3.988   1.997   8.477
 3727SOL     OW23059   0.197   3.948  18.952
 3727SOL    HW123060   0.134   3.921  19.018
 3727SOL    HW223061   0.272   3.890  18.966
 3728SOL     OW23062   3.843   4.292  19.914
 3728SOL    HW123063   3.761   4.339  19.927
 3728SOL    HW223064   3.837   4.257  19.825
 3729SOL     OW23065   4.265   1.216   0.424
 3729SOL    HW123066   4.332   1.272   0.464
 3729SOL    HW223067   4.287   1.215   0.331
 3730SOL     OW23068   3.920   2.334   2.442
 3730SOL    HW123069   3.911   2.414   2.494
 3730SOL    HW223070   3.964   2.272   2.501
 3731SOL     OW23071   2.504   1.286  16.028
 3731SOL    HW123072   2.421   1.291  15.981
 3731SOL    HW223073   2.536   1.376  16.029
 3732SOL     OW23074   0.026   3.217   6.839
 3732SOL    HW123075   4.733   3.205   6.883
 3732SOL    HW223076   0.082   3.257   6.906
 3733SOL     OW23077   0.065   2.245   4.355
 3733SOL    HW123078   0.137   2.306   4.371
 3733SOL    HW223079   0.034   2.221   4.442
 3734SOL     OW23080   2.500   1.856   1.058
 3734SOL    HW123081   2.592   1.869   1.081
 3734SOL    HW223082   2.467   1.944   1.041
 3735SOL     OW23083   3.405   2.946   1.750
 3735SOL    HW123084   3.340   2.877   1.768
 3735SOL    HW223085   3.441   2.968   1.835
 3736SOL     OW23086   3.504   4.559  20.289
 3736SOL    HW123087   3.446   4.630  20.261
 3736SOL    HW223088   3.445   4.486  20.307
 3737SOL     OW23089   1.928   1.490   5.671
 3737SOL    HW123090   1.845   1.537   5.664
 3737SOL    HW223091   1.911   1.420   5.734
 3738SOL     OW23092   3.712   4.201  16.803
 3738SOL    HW123093   3.733   4.207  16.896
 3738SOL    HW223094   3.793   4.173  16.761
 3739SOL     OW23095   3.021   4.031  16.659
 3739SOL    HW123096   2.988   3.945  16.686
 3739SOL    HW223097   3.114   4.018  16.644
 3740SOL     OW23098   0.212   2.217   7.594
 3740SOL    HW123099   0.165   2.226   7.512
 3740SOL    HW223100   0.230   2.123   7.602
 3741SOL     OW23101   0.017   3.280  13.929
 3741SOL    HW123102   0.027   3.315  14.017
 3741SOL    HW223103   4.713   3.277  13.915
 3742SOL     OW23104   3.300   1.475  16.992
 3742SOL    HW123105   3.350   1.501  17.069
 3742SOL    HW223106   3.216   1.446  17.027
 3743SOL     OW23107   2.683   0.215  16.048
 3743SOL    HW123108   2.738   0.164  15.989
 3743SOL    HW223109   2.597   0.173  16.044
 3744SOL     OW23110   0.478   3.631  17.586
 3744SOL    HW123111   0.502   3.723  17.578
 3744SOL    HW223112   0.398   3.622  17.534
 3745SOL     OW23113   3.657   4.089   5.526
 3745SOL    HW123114   3.591   4.074   5.594
 3745SOL    HW223115   3.626   4.038   5.450
 3746SOL     OW23116   0.440   0.765   6.073
 3746SOL    HW123117   0.359   0.780   6.121
 3746SOL    HW223118   0.457   0.847   6.027
 3747SOL     OW23119   1.671   2.385  16.434
 3747SOL    HW123120   1.707   2.297  16.421
 3747SOL    HW223121   1.683   2.428  16.349
 3748SOL     OW23122   0.299   3.025   1.509
 3748SOL    HW123123   0.340   2.946   1.543
 3748SOL    HW223124   0.206   3.001   1.499
 3749SOL     OW23125   2.456   3.817   3.526
 3749SOL    HW123126   2.381   3.762   3.550
 3749SOL    HW223127   2.419   3.905   3.521
 3750SOL     OW23128   2.201   0.385   0.060
 3750SOL    HW123129   2.266   0.334   0.109
 3750SOL    HW223130   2.144   0.423   0.127
 3751SOL     OW23131   2.214   2.056   3.636
 3751SOL    HW123132   2.195   2.059   3.543
 3751SOL    HW223133   2.256   1.971   3.650
 3752SOL     OW23134   3.962   2.251  20.744
 3752SOL    HW123135   4.006   2.309  20.682
 3752SOL    HW223136   4.031   2.191  20.772
 3753SOL     OW23137   3.739   3.334  16.783
 3753SOL    HW123138   3.787   3.252  16.777
 3753SOL    HW223139   3.654   3.310  16.821
 3754SOL     OW23140   2.037   3.534   4.413
 3754SOL    HW123141   1.986   3.453   4.415
 3754SOL    HW223142   2.117   3.511   4.365
 3755SOL     OW23143   3.689   4.205  14.398
 3755SOL    HW123144   3.742   4.262  14.343
 3755SOL    HW223145   3.615   4.180  14.342
 3756SOL     OW23146   3.208   4.511  16.293
 3756SOL    HW123147   3.262   4.515  16.372
 3756SOL    HW223148   3.260   4.555  16.226
 3757SOL     OW23149   3.069   3.537   0.764
 3757SOL    HW123150   3.147   3.569   0.810
 3757SOL    HW223151   3.037   3.465   0.818
 3758SOL     OW23152   1.210   3.464  15.349
 3758SOL    HW123153   1.243   3.528  15.412
 3758SOL    HW223154   1.261   3.480  15.270
 3759SOL     OW23155   4.001   0.649  20.945
 3759SOL    HW123156   4.045   0.660  21.030
 3759SOL    HW223157   4.066   0.605  20.890
 3760SOL     OW23158   2.097   1.688  15.719
 3760SOL    HW123159   2.175   1.654  15.675
 3760SOL    HW223160   2.130   1.739  15.792
 3761SOL     OW23161   1.134   2.712  21.241
 3761SOL    HW123162   1.199   2.768   0.020
 3761SOL    HW223163   1.126   2.637   0.037
 3762SOL     OW23164   3.797   0.372  16.406
 3762SOL    HW123165   3.761   0.397  16.491
 3762SOL    HW223166   3.882   0.333  16.426
 3763SOL     OW23167   3.120   0.928  16.437
 3763SOL    HW123168   3.174   0.999  16.473
 3763SOL    HW223169   3.055   0.973  16.383
 3764SOL     OW23170   1.754   1.826  20.450
 3764SOL    HW123171   1.843   1.857  20.467
 3764SOL    HW223172   1.719   1.805  20.537
 3765SOL     OW23173   0.940   2.202   4.954
 3765SOL    HW123174   1.019   2.245   4.921
 3765SOL    HW223175   0.946   2.112   4.922
 3766SOL     OW23176   2.207   0.807   3.984
 3766SOL    HW123177   2.280   0.869   3.982
 3766SOL    HW223178   2.212   0.767   4.071
 3767SOL     OW23179   4.262   3.369  20.050
 3767SOL    HW123180   4.352   3.348  20.028
 3767SOL    HW223181   4.220   3.284  20.065
 3768SOL     OW23182   0.059   3.208   3.913
 3768SOL    HW123183   0.082   3.144   3.846
 3768SOL    HW223184   0.129   3.200   3.978
 3769SOL     OW23185   2.444   4.412  14.486
 3769SOL    HW123186   2.392   4.419  14.407
 3769SOL    HW223187   2.473   4.320  14.487
 3770SOL     OW23188   2.397   1.145  16.259
 3770SOL    HW123189   2.415   1.194  16.179
 3770SOL    HW223190   2.459   1.179  16.323
 3771SOL     OW23191   4.718   4.136  18.823
 3771SOL    HW123192   4.641   4.157  18.770
 3771SOL    HW223193   4.692   4.159  18.912
 3772SOL     OW23194   2.320   2.935   6.115
 3772SOL    HW123195   2.248   2.932   6.177
 3772SOL    HW223196   2.378   3.004   6.147
 3773SOL     OW23197   3.534   0.445  20.505
 3773SOL    HW123198   3.559   0.526  20.461
 3773SOL    HW223199   3.558   0.376  20.444
 3774SOL     OW23200   2.438   1.966  17.585
 3774SOL    HW123201   2.382   1.955  17.661
 3774SOL    HW223202   2.507   1.900  17.595
 3775SOL     OW23203   0.079   2.806  18.066
 3775SOL    HW123204   4.785   2.814  18.022
 3775SOL    HW223205   0.088   2.713  18.085
 3776SOL     OW23206   0.675   2.641  16.555
 3776SOL    HW123207   0.708   2.661  16.642
 3776SOL    HW223208   0.680   2.546  16.549
 3777SOL     OW23209   1.903   0.327  19.153
 3777SOL    HW123210   1.888   0.397  19.090
 3777SOL    HW223211   1.997   0.327  19.168
 3778SOL     OW23212   1.022   1.578  16.768
 3778SOL    HW123213   0.931   1.605  16.773
 3778SOL    HW223214   1.061   1.609  16.849
 3779SOL     OW23215   0.486   0.385  15.703
 3779SOL    HW123216   0.555   0.323  15.728
 3779SOL    HW223217   0.497   0.459  15.763
 3780SOL     OW23218   3.950   2.550   1.857
 3780SOL    HW123219   4.028   2.554   1.913
 3780SOL    HW223220   3.979   2.502   1.780
 3781SOL     OW23221   2.174   0.084  21.153
 3781SOL    HW123222   2.235   0.142  21.199
 3781SOL    HW223223   2.228   0.033  21.093
 3782SOL     OW23224   4.648   4.167   0.964
 3782SOL    HW123225   4.699   4.230   0.913
 3782SOL    HW223226   4.613   4.106   0.899
 3783SOL     OW23227   2.565   2.172  18.072
 3783SOL    HW123228   2.610   2.175  18.156
 3783SOL    HW223229   2.566   2.263  18.041
 3784SOL     OW23230   4.001   0.932  15.787
 3784SOL    HW123231   3.967   0.988  15.717
 3784SOL    HW223232   3.961   0.967  15.867
 3785SOL     OW23233   1.981   3.529  15.070
 3785SOL    HW123234   1.967   3.444  15.030
 3785SOL    HW223235   1.893   3.568  15.076
 3786SOL     OW23236   4.429   3.256   2.709
 3786SOL    HW123237   4.346   3.264   2.663
 3786SOL    HW223238   4.409   3.198   2.783
 3787SOL     OW23239   0.639   3.876  19.061
 3787SOL    HW123240   0.676   3.952  19.015
 3787SOL    HW223241   0.626   3.907  19.151
 3788SOL     OW23242   4.426   4.067   5.003
 3788SOL    HW123243   4.504   4.113   4.972
 3788SOL    HW223244   4.391   4.025   4.924
 3789SOL     OW23245   0.144   3.067   5.952
 3789SOL    HW123246   0.086   2.993   5.972
 3789SOL    HW223247   0.089   3.144   5.967
 3790SOL     OW23248   2.275   2.175  20.763
 3790SOL    HW123249   2.192   2.211  20.732
 3790SOL    HW223250   2.298   2.228  20.839
 3791SOL     OW23251   1.200   2.181   4.857
 3791SOL    HW123252   1.223   2.260   4.808
 3791SOL    HW223253   1.282   2.156   4.901
 3792SOL     OW23254   1.208   3.959   5.067
 3792SOL    HW123255   1.178   3.883   5.117
 3792SOL    HW223256   1.196   4.034   5.125
 3793SOL     OW23257   0.064   2.026  18.008
 3793SOL    HW123258   4.775   1.982  18.039
 3793SOL    HW223259   0.134   1.985  18.059
 3794SOL     OW23260   0.494   3.711   3.591
 3794SOL    HW123261   0.414   3.730   3.641
 3794SOL    HW223262   0.467   3.646   3.527
 3795SOL     OW23263   4.771   3.532   0.789
 3795SOL    HW123264   0.017   3.579   0.864
 3795SOL    HW223265   4.716   3.464   0.829
 3796SOL     OW23266   1.175   3.563   3.785
 3796SOL    HW123267   1.238   3.496   3.811
 3796SOL    HW223268   1.208   3.643   3.825
 3797SOL     OW23269   4.734   3.930   4.306
 3797SOL    HW123270   4.720   3.863   4.239
 3797SOL    HW223271   4.732   3.881   4.388
 3798SOL     OW23272   3.000   4.116  15.741
 3798SOL    HW123273   2.978   4.122  15.834
 3798SOL    HW223274   2.949   4.042  15.708
 3799SOL     OW23275   2.980   3.547   3.412
 3799SOL    HW123276   2.911   3.535   3.477
 3799SOL    HW223277   3.060   3.558   3.464
 3800SOL     OW23278   3.857   1.681   4.519
 3800SOL    HW123279   3.920   1.615   4.546
 3800SOL    HW223280   3.818   1.712   4.601
 3801SOL     OW23281   3.331   0.492  19.510
 3801SOL    HW123282   3.286   0.443  19.442
 3801SOL    HW223283   3.396   0.431  19.545
 3802SOL     OW23284   3.758   0.233   0.388
 3802SOL    HW123285   3.791   0.284   0.462
 3802SOL    HW223286   3.804   0.269   0.312
 3803SOL     OW23287   0.609   3.834  13.734
 3803SOL    HW123288   0.693   3.878  13.725
 3803SOL    HW223289   0.569   3.839  13.647
 3804SOL     OW23290   2.495   2.916   1.736
 3804SOL    HW123291   2.572   2.875   1.695
 3804SOL    HW223292   2.431   2.846   1.741
 3805SOL     OW23293   4.292   0.777  17.265
 3805SOL    HW123294   4.363   0.764  17.328
 3805SOL    HW223295   4.336   0.774  17.180
 3806SOL     OW23296   4.629   0.222   5.519
 3806SOL    HW123297   4.704   0.204   5.576
 3806SOL    HW223298   4.654   0.301   5.470
 3807SOL     OW23299   2.981   0.336   3.606
 3807SOL    HW123300   2.906   0.291   3.566
 3807SOL    HW223301   3.053   0.274   3.598
 3808SOL     OW23302   3.582   2.214  12.167
 3808SOL    HW123303   3.623   2.258  12.093
 3808SOL    HW223304   3.488   2.221  12.150
 3809SOL     OW23305   1.619   2.250  17.301
 3809SOL    HW123306   1.593   2.220  17.389
 3809SOL    HW223307   1.712   2.269  17.309
 3810SOL     OW23308   4.319   2.727  15.786
 3810SOL    HW123309   4.269   2.704  15.707
 3810SOL    HW223310   4.291   2.663  15.851
 3811SOL     OW23311   3.214   4.378  12.949
 3811SOL    HW123312   3.277   4.385  12.877
 3811SOL    HW223313   3.149   4.445  12.930
 3812SOL     OW23314   2.224   2.000   0.938
 3812SOL    HW123315   2.307   2.046   0.931
 3812SOL    HW223316   2.172   2.033   0.865
 3813SOL     OW23317   2.063   2.471   4.121
 3813SOL    HW123318   2.100   2.545   4.074
 3813SOL    HW223319   2.127   2.452   4.190
 3814SOL     OW23320   2.112   3.580   2.127
 3814SOL    HW123321   2.074   3.578   2.040
 3814SOL    HW223322   2.138   3.671   2.140
 3815SOL     OW23323   1.072   3.438  20.336
 3815SOL    HW123324   1.107   3.374  20.274
 3815SOL    HW223325   1.047   3.513  20.282
 3816SOL     OW23326   3.202   4.246  11.632
 3816SOL    HW123327   3.217   4.153  11.615
 3816SOL    HW223328   3.248   4.263  11.714
 3817SOL     OW23329   2.793   1.485   2.047
 3817SOL    HW123330   2.749   1.474   2.132
 3817SOL    HW223331   2.837   1.402   2.032
 3818SOL     OW23332   1.833   1.840   8.761
 3818SOL    HW123333   1.778   1.767   8.733
 3818SOL    HW223334   1.843   1.828   8.856
 3819SOL     OW23335   0.641   1.607   0.476
 3819SOL    HW123336   0.723   1.639   0.439
 3819SOL    HW223337   0.617   1.532   0.423
 3820SOL     OW23338   0.901   2.343  20.146
 3820SOL    HW123339   0.855   2.262  20.164
 3820SOL    HW223340   0.957   2.357  20.223
 3821SOL     OW23341   1.995   0.302   4.303
 3821SOL    HW123342   1.911   0.330   4.338
 3821SOL    HW223343   1.988   0.207   4.295
 3822SOL     OW23344   0.404   0.692  20.762
 3822SOL    HW123345   0.323   0.647  20.737
 3822SOL    HW223346   0.426   0.744  20.684
 3823SOL     OW23347   1.383   4.498  17.935
 3823SOL    HW123348   1.295   4.530  17.954
 3823SOL    HW223349   1.439   4.546  17.997
 3824SOL     OW23350   3.456   3.370  18.519
 3824SOL    HW123351   3.420   3.300  18.572
 3824SOL    HW223352   3.379   3.418  18.487
 3825SOL     OW23353   3.109   1.970  15.403
 3825SOL    HW123354   3.027   2.020  15.406
 3825SOL    HW223355   3.081   1.878  15.404
 3826SOL     OW23356   3.428   1.958  14.576
 3826SOL    HW123357   3.502   1.914  14.620
 3826SOL    HW223358   3.358   1.958  14.641
 3827SOL     OW23359   4.436   0.668   1.453
 3827SOL    HW123360   4.467   0.739   1.509
 3827SOL    HW223361   4.431   0.707   1.366
 3828SOL     OW23362   4.236   2.998  17.970
 3828SOL    HW123363   4.224   2.976  18.062
 3828SOL    HW223364   4.161   2.958  17.926
 3829SOL     OW23365   0.745   1.713   3.790
 3829SOL    HW123366   0.674   1.658   3.823
 3829SOL    HW223367   0.818   1.653   3.775
 3830SOL     OW23368   1.240   1.187  19.572
 3830SOL    HW123369   1.147   1.193  19.590
 3830SOL    HW223370   1.274   1.274  19.589
 3831SOL     OW23371   3.284   0.839  19.022
 3831SOL    HW123372   3.205   0.860  18.973
 3831SOL    HW223373   3.356   0.853  18.961
 3832SOL     OW23374   4.754   3.184  15.719
 3832SOL    HW123375   4.721   3.250  15.659
 3832SOL    HW223376   4.717   3.207  15.804
 3833SOL     OW23377   3.467   2.362   0.969
 3833SOL    HW123378   3.441   2.273   0.994
 3833SOL    HW223379   3.552   2.350   0.926
 3834SOL     OW23380   3.107   4.570  20.786
 3834SOL    HW123381   3.038   4.516  20.747
 3834SOL    HW223382   3.062   4.650  20.814
 3835SOL     OW23383   1.828   0.476   0.851
 3835SOL    HW123384   1.785   0.490   0.935
 3835SOL    HW223385   1.904   0.422   0.872
 3836SOL     OW23386   1.810   4.519   0.340
 3836SOL    HW123387   1.893   4.541   0.381
 3836SOL    HW223388   1.782   4.438   0.382
 3837SOL     OW23389   3.699   4.017   5.883
 3837SOL    HW123390   3.763   4.012   5.813
 3837SOL    HW223391   3.745   3.986   5.961
 3838SOL     OW23392   1.522   2.142  16.628
 3838SOL    HW123393   1.582   2.215  16.644
 3838SOL    HW223394   1.554   2.071  16.684
 3839SOL     OW23395   4.239   4.451  16.488
 3839SOL    HW123396   4.157   4.461  16.537
 3839SOL    HW223397   4.277   4.538  16.489
 3840SOL     OW23398   3.982   0.378  18.103
 3840SOL    HW123399   3.900   0.338  18.132
 3840SOL    HW223400   4.000   0.337  18.019
 3841SOL     OW23401   3.040   0.863   4.002
 3841SOL    HW123402   2.980   0.915   3.949
 3841SOL    HW223403   3.070   0.793   3.944
 3842SOL     OW23404   0.245   3.512   1.855
 3842SOL    HW123405   0.271   3.604   1.859
 3842SOL    HW223406   0.158   3.513   1.816
 3843SOL     OW23407   2.451   4.747  18.293
 3843SOL    HW123408   2.522   0.018  18.277
 3843SOL    HW223409   2.446   4.739  18.388
 3844SOL     OW23410   2.784   3.740  13.753
 3844SOL    HW123411   2.755   3.758  13.843
 3844SOL    HW223412   2.816   3.649  13.756
 3845SOL     OW23413   2.264   3.048  20.381
 3845SOL    HW123414   2.351   3.044  20.420
 3845SOL    HW223415   2.278   3.027  20.289
 3846SOL     OW23416   1.886   2.034   1.617
 3846SOL    HW123417   1.918   2.040   1.527
 3846SOL    HW223418   1.812   1.973   1.612
 3847SOL     OW23419   2.839   4.589  15.378
 3847SOL    HW123420   2.778   4.663  15.375
 3847SOL    HW223421   2.899   4.610  15.450
 3848SOL     OW23422   1.293   0.039  15.284
 3848SOL    HW123423   1.265   4.766  15.218
 3848SOL    HW223424   1.359   0.091  15.240
 3849SOL     OW23425   4.650   2.044   2.596
 3849SOL    HW123426   4.586   2.013   2.532
 3849SOL    HW223427   4.723   1.982   2.588
 3850SOL     OW23428   2.982   2.484   3.257
 3850SOL    HW123429   2.969   2.413   3.320
 3850SOL    HW223430   2.903   2.538   3.265
 3851SOL     OW23431   1.270   0.520   1.557
 3851SOL    HW123432   1.344   0.558   1.605
 3851SOL    HW223433   1.217   0.596   1.532
 3852SOL     OW23434   4.063   3.024  12.953
 3852SOL    HW123435   4.052   2.945  13.006
 3852SOL    HW223436   4.056   2.993  12.863
 3853SOL     OW23437   4.208   2.937   0.228
 3853SOL    HW123438   4.273   2.905   0.165
 3853SOL    HW223439   4.154   2.861   0.247
 3854SOL     OW23440   0.182   3.618  16.618
 3854SOL    HW123441   0.124   3.641  16.690
 3854SOL    HW223442   0.171   3.523  16.608
 3855SOL     OW23443   3.939   3.268   0.282
 3855SOL    HW123444   3.867   3.265   0.346
 3855SOL    HW223445   3.927   3.350   0.235
 3856SOL     OW23446   4.566   3.116  15.077
 3856SOL    HW123447   4.611   3.113  14.993
 3856SOL    HW223448   4.598   3.039  15.124
 3857SOL     OW23449   2.304   2.545   5.521
 3857SOL    HW123450   2.263   2.461   5.544
 3857SOL    HW223451   2.324   2.585   5.606
 3858SOL     OW23452   2.657   3.826  16.036
 3858SOL    HW123453   2.722   3.886  16.074
 3858SOL    HW223454   2.582   3.881  16.016
 3859SOL     OW23455   4.211   4.029  13.458
 3859SOL    HW123456   4.305   4.035  13.439
 3859SOL    HW223457   4.177   3.971  13.390
 3860SOL     OW23458   3.040   3.364  17.282
 3860SOL    HW123459   3.029   3.271  17.263
 3860SOL    HW223460   2.999   3.376  17.368
 3861SOL     OW23461   3.235   3.464  17.700
 3861SOL    HW123462   3.246   3.511  17.783
 3861SOL    HW223463   3.198   3.529  17.640
 3862SOL     OW23464   2.200   4.349   0.250
 3862SOL    HW123465   2.167   4.389   0.170
 3862SOL    HW223466   2.284   4.312   0.225
 3863SOL     OW23467   4.241   4.672   4.967
 3863SOL    HW123468   4.260   4.732   4.894
 3863SOL    HW223469   4.148   4.651   4.956
 3864SOL     OW23470   3.858   1.743  18.376
 3864SOL    HW123471   3.940   1.694  18.383
 3864SOL    HW223472   3.881   1.832  18.399
 3865SOL     OW23473   2.319   3.384  15.651
 3865SOL    HW123474   2.316   3.479  15.638
 3865SOL    HW223475   2.233   3.353  15.622
 3866SOL     OW23476   3.596   3.638  19.153
 3866SOL    HW123477   3.521   3.584  19.127
 3866SOL    HW223478   3.612   3.694  19.077
 3867SOL     OW23479   3.231   3.917  20.118
 3867SOL    HW123480   3.180   3.997  20.131
 3867SOL    HW223481   3.215   3.892  20.027
 3868SOL     OW23482   4.333   0.546  16.997
 3868SOL    HW123483   4.248   0.584  16.977
 3868SOL    HW223484   4.317   0.491  17.074
 3869SOL     OW23485   0.773   0.654   0.476
 3869SOL    HW123486   0.843   0.688   0.533
 3869SOL    HW223487   0.799   0.564   0.458
 3870SOL     OW23488   2.699   4.059  17.960
 3870SOL    HW123489   2.627   4.122  17.968
 3870SOL    HW223490   2.761   4.101  17.899
 3871SOL     OW23491   1.942   1.422   2.431
 3871SOL    HW123492   2.017   1.364   2.417
 3871SOL    HW223493   1.980   1.501   2.470
 3872SOL     OW23494   1.301   1.793   0.855
 3872SOL    HW123495   1.256   1.844   0.922
 3872SOL    HW223496   1.244   1.718   0.839
 3873SOL     OW23497   1.337   3.371  18.626
 3873SOL    HW123498   1.425   3.360  18.590
 3873SOL    HW223499   1.311   3.459  18.599
 3874SOL     OW23500   4.379   1.567   8.292
 3874SOL    HW123501   4.358   1.627   8.220
 3874SOL    HW223502   4.417   1.491   8.248
 3875SOL     OW23503   0.749   1.183   1.115
 3875SOL    HW123504   0.680   1.213   1.057
 3875SOL    HW223505   0.703   1.150   1.192
 3876SOL     OW23506   0.592   0.239  21.110
 3876SOL    HW123507   0.676   0.229  21.065
 3876SOL    HW223508   0.612   0.295  21.185
 3877SOL     OW23509   1.980   1.300  18.048
 3877SOL    HW123510   1.940   1.285  17.962
 3877SOL    HW223511   2.074   1.296  18.031
 3878SOL     OW23512   3.755   3.519  17.445
 3878SOL    HW123513   3.810   3.460  17.497
 3878SOL    HW223514   3.779   3.502  17.354
 3879SOL     OW23515   4.616   4.487  15.863
 3879SOL    HW123516   4.582   4.500  15.951
 3879SOL    HW223517   4.642   4.395  15.861
 3880SOL     OW23518   0.296   3.181  16.874
 3880SOL    HW123519   0.370   3.189  16.935
 3880SOL    HW223520   0.304   3.257  16.817
 3881SOL     OW23521   0.146   2.341   4.870
 3881SOL    HW123522   0.127   2.415   4.813
 3881SOL    HW223523   0.071   2.336   4.929
 3882SOL     OW23524   0.959   2.525  16.389
 3882SOL    HW123525   1.021   2.453  16.405
 3882SOL    HW223526   0.877   2.495  16.428
 3883SOL     OW23527   2.142   0.253  19.670
 3883SOL    HW123528   2.215   0.238  19.610
 3883SOL    HW223529   2.176   0.314  19.735
 3884SOL     OW23530   2.942   0.936  16.879
 3884SOL    HW123531   2.868   0.996  16.871
 3884SOL    HW223532   2.929   0.871  16.809
 3885SOL     OW23533   4.513   2.173   5.993
 3885SOL    HW123534   4.462   2.199   6.070
 3885SOL    HW223535   4.600   2.153   6.028
 3886SOL     OW23536   2.925   3.522   2.323
 3886SOL    HW123537   2.922   3.502   2.417
 3886SOL    HW223538   2.890   3.611   2.317
 3887SOL     OW23539   0.524   2.023  15.842
 3887SOL    HW123540   0.462   2.094  15.857
 3887SOL    HW223541   0.474   1.957  15.794
 3888SOL     OW23542   1.725   2.272   4.504
 3888SOL    HW123543   1.635   2.272   4.536
 3888SOL    HW223544   1.765   2.194   4.544
 3889SOL     OW23545   1.603   3.800   2.251
 3889SOL    HW123546   1.527   3.858   2.248
 3889SOL    HW223547   1.575   3.722   2.202
 3890SOL     OW23548   2.780   0.406   3.334
 3890SOL    HW123549   2.752   0.458   3.258
 3890SOL    HW223550   2.876   0.414   3.335
 3891SOL     OW23551   3.566   0.497  18.209
 3891SOL    HW123552   3.612   0.508  18.292
 3891SOL    HW223553   3.521   0.581  18.195
 3892SOL     OW23554   0.586   0.794  14.374
 3892SOL    HW123555   0.580   0.800  14.470
 3892SOL    HW223556   0.537   0.716  14.352
 3893SOL     OW23557   4.092   2.500   7.518
 3893SOL    HW123558   4.072   2.583   7.560
 3893SOL    HW223559   4.183   2.482   7.540
 3894SOL     OW23560   4.460   4.135   7.904
 3894SOL    HW123561   4.477   4.155   7.996
 3894SOL    HW223562   4.507   4.053   7.888
 3895SOL     OW23563   2.640   3.681  16.846
 3895SOL    HW123564   2.616   3.740  16.918
 3895SOL    HW223565   2.674   3.603  16.890
 3896SOL     OW23566   4.696   4.647  14.767
 3896SOL    HW123567   4.639   4.658  14.691
 3896SOL    HW223568   4.650   4.585  14.822
 3897SOL     OW23569   1.366   2.022  19.722
 3897SOL    HW123570   1.275   2.051  19.720
 3897SOL    HW223571   1.377   1.971  19.642
 3898SOL     OW23572   2.194   0.458  13.122
 3898SOL    HW123573   2.199   0.423  13.033
 3898SOL    HW223574   2.104   0.441  13.150
 3899SOL     OW23575   1.115   3.840   1.350
 3899SOL    HW123576   1.033   3.793   1.365
 3899SOL    HW223577   1.105   3.877   1.263
 3900SOL     OW23578   2.058   1.815   5.711
 3900SOL    HW123579   2.094   1.838   5.797
 3900SOL    HW223580   1.963   1.820   5.723
 3901SOL     OW23581   0.574   2.741   3.128
 3901SOL    HW123582   0.602   2.652   3.106
 3901SOL    HW223583   0.638   2.771   3.192
 3902SOL     OW23584   0.721   3.884  12.695
 3902SOL    HW123585   0.638   3.836  12.698
 3902SOL    HW223586   0.777   3.832  12.638
 3903SOL     OW23587   4.118   0.050  16.559
 3903SOL    HW123588   4.181   0.017  16.495
 3903SOL    HW223589   4.137   0.001  16.638
 3904SOL     OW23590   0.241   1.646  18.074
 3904SOL    HW123591   0.230   1.556  18.041
 3904SOL    HW223592   0.328   1.645  18.115
 3905SOL     OW23593   3.314   3.447  16.821
 3905SOL    HW123594   3.358   3.483  16.898
 3905SOL    HW223595   3.252   3.515  16.794
 3906SOL     OW23596   1.334   2.608  20.835
 3906SOL    HW123597   1.429   2.595  20.836
 3906SOL    HW223598   1.316   2.643  20.748
 3907SOL     OW23599   4.088   3.463   3.574
 3907SOL    HW123600   4.164   3.519   3.556
 3907SOL    HW223601   4.025   3.485   3.505
 3908SOL     OW23602   1.110   1.682  19.483
 3908SOL    HW123603   1.092   1.743  19.411
 3908SOL    HW223604   1.198   1.707  19.514
 3909SOL     OW23605   2.806   3.885  20.187
 3909SOL    HW123606   2.791   3.832  20.108
 3909SOL    HW223607   2.812   3.821  20.258
 3910SOL     OW23608   1.840   3.934  20.290
 3910SOL    HW123609   1.845   4.030  20.298
 3910SOL    HW223610   1.775   3.908  20.356
 3911SOL     OW23611   2.133   0.923   1.036
 3911SOL    HW123612   2.092   0.844   1.073
 3911SOL    HW223613   2.059   0.979   1.013
 3912SOL     OW23614   4.280   3.074  20.092
 3912SOL    HW123615   4.239   3.001  20.138
 3912SOL    HW223616   4.343   3.033  20.032
 3913SOL     OW23617   4.176   0.856  18.508
 3913SOL    HW123618   4.205   0.773  18.545
 3913SOL    HW223619   4.087   0.839  18.476
 3914SOL     OW23620   3.449   0.215   7.124
 3914SOL    HW123621   3.394   0.238   7.050
 3914SOL    HW223622   3.537   0.207   7.087
 3915SOL     OW23623   2.085   3.295   8.468
 3915SOL    HW123624   2.127   3.280   8.552
 3915SOL    HW223625   1.993   3.270   8.481
 3916SOL     OW23626   2.374   0.483  14.325
 3916SOL    HW123627   2.429   0.404  14.327
 3916SOL    HW223628   2.349   0.497  14.416
 3917SOL     OW23629   3.688   4.066   2.900
 3917SOL    HW123630   3.636   4.143   2.879
 3917SOL    HW223631   3.776   4.101   2.918
 3918SOL     OW23632   0.032   0.791   4.835
 3918SOL    HW123633   0.037   0.858   4.903
 3918SOL    HW223634   4.735   0.800   4.798
 3919SOL     OW23635   0.701   0.080  18.245
 3919SOL    HW123636   0.762   0.134  18.194
 3919SOL    HW223637   0.752   0.003  18.269
 3920SOL     OW23638   3.758   4.427   6.547
 3920SOL    HW123639   3.670   4.391   6.556
 3920SOL    HW223640   3.781   4.410   6.455
 3921SOL     OW23641   0.731   2.147  18.592
 3921SOL    HW123642   0.764   2.194  18.516
 3921SOL    HW223643   0.779   2.064  18.592
 3922SOL     OW23644   1.582   1.294  21.170
 3922SOL    HW123645   1.556   1.364  21.230
 3922SOL    HW223646   1.662   1.326  21.128
 3923SOL     OW23647   2.227   3.310  18.011
 3923SOL    HW123648   2.314   3.283  18.041
 3923SOL    HW223649   2.243   3.387  17.957
 3924SOL     OW23650   2.809   3.953  16.262
 3924SOL    HW123651   2.832   4.043  16.283
 3924SOL    HW223652   2.746   3.928  16.329
 3925SOL     OW23653   3.451   4.184  18.528
 3925SOL    HW123654   3.497   4.209  18.448
 3925SOL    HW223655   3.480   4.095  18.546
 3926SOL     OW23656   2.734   3.639   0.140
 3926SOL    HW123657   2.682   3.682   0.208
 3926SOL    HW223658   2.731   3.546   0.163
 3927SOL     OW23659   1.500   1.006   2.105
 3927SOL    HW123660   1.497   1.031   2.197
 3927SOL    HW223661   1.574   1.056   2.069
 3928SOL     OW23662   4.430   3.638  17.448
 3928SOL    HW123663   4.349   3.597  17.480
 3928SOL    HW223664   4.403   3.685  17.369
 3929SOL     OW23665   0.495   3.246   2.837
 3929SOL    HW123666   0.555   3.189   2.790
 3929SOL    HW223667   0.533   3.334   2.829
 3930SOL     OW23668   1.180   0.160  16.822
 3930SOL    HW123669   1.093   0.199  16.825
 3930SOL    HW223670   1.169   0.078  16.774
 3931SOL     OW23671   1.628   4.464   2.131
 3931SOL    HW123672   1.608   4.507   2.048
 3931SOL    HW223673   1.558   4.400   2.142
 3932SOL     OW23674   0.198   1.077   6.360
 3932SOL    HW123675   0.110   1.102   6.333
 3932SOL    HW223676   0.210   0.988   6.328
 3933SOL     OW23677   0.585   1.725   5.928
 3933SOL    HW123678   0.532   1.801   5.907
 3933SOL    HW223679   0.675   1.754   5.916
 3934SOL     OW23680   1.401   0.951  18.131
 3934SOL    HW123681   1.391   1.046  18.123
 3934SOL    HW223682   1.439   0.924  18.047
 3935SOL     OW23683   1.076   0.035  10.140
 3935SOL    HW123684   1.146   0.078  10.189
 3935SOL    HW223685   1.086   4.733  10.161
 3936SOL     OW23686   4.671   3.581  15.100
 3936SOL    HW123687   4.642   3.512  15.160
 3936SOL    HW223688   4.716   3.534  15.029
 3937SOL     OW23689   3.636   3.990   3.502
 3937SOL    HW123690   3.649   3.920   3.566
 3937SOL    HW223691   3.543   3.986   3.480
 3938SOL     OW23692   2.312   3.828   6.419
 3938SOL    HW123693   2.316   3.734   6.402
 3938SOL    HW223694   2.285   3.866   6.335
 3939SOL     OW23695   2.535   1.471  17.898
 3939SOL    HW123696   2.545   1.515  17.982
 3939SOL    HW223697   2.514   1.381  17.920
 3940SOL     OW23698   0.344   3.562  20.916
 3940SOL    HW123699   0.338   3.599  20.828
 3940SOL    HW223700   0.283   3.614  20.969
 3941SOL     OW23701   0.600   2.412  17.683
 3941SOL    HW123702   0.668   2.383  17.744
 3941SOL    HW223703   0.527   2.439  17.739
 3942SOL     OW23704   3.037   4.300  17.606
 3942SOL    HW123705   3.127   4.271  17.590
 3942SOL    HW223706   3.044   4.361  17.679
 3943SOL     OW23707   3.306   3.640  18.309
 3943SOL    HW123708   3.243   3.580  18.350
 3943SOL    HW223709   3.364   3.666  18.381
 3944SOL     OW23710   4.044   2.486  21.197
 3944SOL    HW123711   4.045   2.566  21.144
 3944SOL    HW223712   4.125   2.491  21.248
 3945SOL     OW23713   3.294   4.201   3.227
 3945SOL    HW123714   3.205   4.199   3.191
 3945SOL    HW223715   3.284   4.239   3.314
 3946SOL     OW23716   0.350   3.790  16.863
 3946SOL    HW123717   0.374   3.797  16.955
 3946SOL    HW223718   0.276   3.729  16.862
 3947SOL     OW23719   3.915   4.176   8.970
 3947SOL    HW123720   3.935   4.249   9.029
 3947SOL    HW223721   3.980   4.184   8.900
 3948SOL     OW23722   2.418   3.592   7.847
 3948SOL    HW123723   2.406   3.552   7.933
 3948SOL    HW223724   2.469   3.671   7.864
 3949SOL     OW23725   3.348   2.425   6.380
 3949SOL    HW123726   3.274   2.365   6.396
 3949SOL    HW223727   3.426   2.372   6.398
 3950SOL     OW23728   4.755   3.311   7.136
 3950SOL    HW123729   4.743   3.391   7.086
 3950SOL    HW223730   0.058   3.301   7.145
 3951SOL     OW23731   3.046   2.645   2.787
 3951SOL    HW123732   3.064   2.617   2.876
 3951SOL    HW223733   2.962   2.605   2.765
 3952SOL     OW23734   3.411   1.573   5.117
 3952SOL    HW123735   3.434   1.603   5.205
 3952SOL    HW223736   3.339   1.629   5.090
 3953SOL     OW23737   4.538   4.337   0.447
 3953SOL    HW123738   4.461   4.296   0.408
 3953SOL    HW223739   4.508   4.423   0.475
 3954SOL     OW23740   0.793   3.535  14.692
 3954SOL    HW123741   0.755   3.595  14.756
 3954SOL    HW223742   0.766   3.570  14.607
 3955SOL     OW23743   3.183   2.086   5.058
 3955SOL    HW123744   3.264   2.038   5.071
 3955SOL    HW223745   3.133   2.071   5.139
 3956SOL     OW23746   0.523   4.608  20.479
 3956SOL    HW123747   0.581   4.677  20.513
 3956SOL    HW223748   0.524   4.540  20.546
 3957SOL     OW23749   2.003   4.598   0.038
 3957SOL    HW123750   2.067   4.654  21.257
 3957SOL    HW223751   1.918   4.638   0.019
 3958SOL     OW23752   4.255   3.945  19.872
 3958SOL    HW123753   4.219   3.928  19.959
 3958SOL    HW223754   4.316   3.873  19.857
 3959SOL     OW23755   0.978   0.528  15.655
 3959SOL    HW123756   1.048   0.566  15.603
 3959SOL    HW223757   0.915   0.599  15.667
 3960SOL     OW23758   3.577   4.220  19.243
 3960SOL    HW123759   3.648   4.156  19.240
 3960SOL    HW223760   3.609   4.293  19.190
 3961SOL     OW23761   3.652   1.268  21.013
 3961SOL    HW123762   3.724   1.315  21.055
 3961SOL    HW223763   3.617   1.331  20.950
 3962SOL     OW23764   2.534   2.477   3.655
 3962SOL    HW123765   2.491   2.510   3.576
 3962SOL    HW223766   2.613   2.531   3.663
 3963SOL     OW23767   0.719   1.172  19.049
 3963SOL    HW123768   0.813   1.177  19.067
 3963SOL    HW223769   0.677   1.179  19.134
 3964SOL     OW23770   2.398   1.484  15.789
 3964SOL    HW123771   2.479   1.489  15.738
 3964SOL    HW223772   2.345   1.418  15.745
 3965SOL     OW23773   4.448   1.823  16.456
 3965SOL    HW123774   4.539   1.807  16.483
 3965SOL    HW223775   4.448   1.806  16.362
 3966SOL     OW23776   4.509   1.151   5.175
 3966SOL    HW123777   4.478   1.242   5.183
 3966SOL    HW223778   4.471   1.121   5.093
 3967SOL     OW23779   3.214   0.947   2.896
 3967SOL    HW123780   3.302   0.957   2.934
 3967SOL    HW223781   3.228   0.952   2.802
 3968SOL     OW23782   0.753   3.737   0.688
 3968SOL    HW123783   0.824   3.713   0.748
 3968SOL    HW223784   0.711   3.654   0.666
 3969SOL     OW23785   3.459   3.601  20.030
 3969SOL    HW123786   3.409   3.607  20.111
 3969SOL    HW223787   3.495   3.689  20.018
 3970SOL     OW23788   1.867   4.282   6.713
 3970SOL    HW123789   1.927   4.315   6.779
 3970SOL    HW223790   1.817   4.359   6.685
 3971SOL     OW23791   4.531   0.753  15.584
 3971SOL    HW123792   4.552   0.839  15.547
 3971SOL    HW223793   4.444   0.764  15.622
 3972SOL     OW23794   3.592   2.251  14.162
 3972SOL    HW123795   3.672   2.198  14.166
 3972SOL    HW223796   3.523   2.191  14.189
 3973SOL     OW23797   2.854   4.012  20.778
 3973SOL    HW123798   2.792   4.043  20.844
 3973SOL    HW223799   2.818   4.040  20.695
 3974SOL     OW23800   1.638   0.758  18.164
 3974SOL    HW123801   1.588   0.836  18.189
 3974SOL    HW223802   1.717   0.762  18.219
 3975SOL     OW23803   0.731   3.751   1.231
 3975SOL    HW123804   0.707   3.781   1.319
 3975SOL    HW223805   0.653   3.704   1.200
 3976SOL     OW23806   4.608   3.526  16.091
 3976SOL    HW123807   4.667   3.588  16.135
 3976SOL    HW223808   4.661   3.488  16.021
 3977SOL     OW23809   1.844   2.209   0.203
 3977SOL    HW123810   1.922   2.205   0.147
 3977SOL    HW223811   1.878   2.202   0.292
 3978SOL     OW23812   4.224   0.381  20.582
 3978SOL    HW123813   4.187   0.460  20.543
 3978SOL    HW223814   4.164   0.357  20.652
 3979SOL     OW23815   0.119   1.882   2.191
 3979SOL    HW123816   0.076   1.967   2.197
 3979SOL    HW223817   0.060   1.823   2.239
 3980SOL     OW23818   1.464   0.113  20.498
 3980SOL    HW123819   1.434   0.022  20.492
 3980SOL    HW223820   1.554   0.106  20.530
 3981SOL     OW23821   4.455   0.488  15.036
 3981SOL    HW123822   4.475   0.395  15.024
 3981SOL    HW223823   4.501   0.512  15.117
 3982SOL     OW23824   3.716   2.057   7.601
 3982SOL    HW123825   3.729   1.978   7.548
 3982SOL    HW223826   3.803   2.095   7.608
 3983SOL     OW23827   2.393   0.578   5.198
 3983SOL    HW123828   2.480   0.581   5.159
 3983SOL    HW223829   2.385   0.660   5.247
 3984SOL     OW23830   3.845   3.214   5.761
 3984SOL    HW123831   3.901   3.273   5.811
 3984SOL    HW223832   3.887   3.208   5.675
 3985SOL     OW23833   0.197   0.328  17.751
 3985SOL    HW123834   0.222   0.261  17.814
 3985SOL    HW223835   0.209   0.287  17.665
 3986SOL     OW23836   2.108   2.579  17.415
 3986SOL    HW123837   2.040   2.632  17.456
 3986SOL    HW223838   2.093   2.589  17.321
 3987SOL     OW23839   0.423   0.460  19.069
 3987SOL    HW123840   0.466   0.499  18.993
 3987SOL    HW223841   0.467   0.376  19.082
 3988SOL     OW23842   0.700   4.297  19.035
 3988SOL    HW123843   0.751   4.216  19.044
 3988SOL    HW223844   0.609   4.267  19.029
 3989SOL     OW23845   2.322   3.634   4.420
 3989SOL    HW123846   2.279   3.706   4.466
 3989SOL    HW223847   2.365   3.675   4.345
 3990SOL     OW23848   0.019   1.196  18.768
 3990SOL    HW123849   0.053   1.281  18.797
 3990SOL    HW223850   4.719   1.213  18.746
 3991SOL     OW23851   1.653   4.294   4.324
 3991SOL    HW123852   1.693   4.281   4.410
 3991SOL    HW223853   1.726   4.296   4.262
 3992SOL     OW23854   0.782   2.760   3.306
 3992SOL    HW123855   0.804   2.675   3.343
 3992SOL    HW223856   0.862   2.812   3.318
 3993SOL     OW23857   0.406   1.852  20.382
 3993SOL    HW123858   0.473   1.888  20.441
 3993SOL    HW223859   0.447   1.853  20.296
 3994SOL     OW23860   2.412   1.871   0.771
 3994SOL    HW123861   2.332   1.906   0.811
 3994SOL    HW223862   2.428   1.789   0.817
 3995SOL     OW23863   3.238   0.873   4.730
 3995SOL    HW123864   3.175   0.888   4.800
 3995SOL    HW223865   3.294   0.950   4.730
 3996SOL     OW23866   0.188   1.452  18.535
 3996SOL    HW123867   0.105   1.420  18.499
 3996SOL    HW223868   0.192   1.415  18.623
 3997SOL     OW23869   4.123   1.966  19.530
 3997SOL    HW123870   4.102   1.902  19.599
 3997SOL    HW223871   4.219   1.965  19.525
 3998SOL     OW23872   1.091   2.772   0.779
 3998SOL    HW123873   1.126   2.829   0.848
 3998SOL    HW223874   1.163   2.762   0.717
 3999SOL     OW23875   2.509   2.175  19.222
 3999SOL    HW123876   2.576   2.187  19.154
 3999SOL    HW223877   2.428   2.163  19.173
 4000SOL     OW23878   1.479   0.085   3.798
 4000SOL    HW123879   1.508   0.130   3.878
 4000SOL    HW223880   1.558   0.040   3.766
 4001SOL     OW23881   3.073   4.456  19.966
 4001SOL    HW123882   3.058   4.477  19.874
 4001SOL    HW223883   3.167   4.435  19.971
 4002SOL     OW23884   3.199   1.709  14.375
 4002SOL    HW123885   3.131   1.643  14.371
 4002SOL    HW223886   3.203   1.735  14.467
 4003SOL     OW23887   2.904   3.232   1.066
 4003SOL    HW123888   2.966   3.249   0.995
 4003SOL    HW223889   2.936   3.284   1.139
 4004SOL     OW23890   2.861   3.504   3.648
 4004SOL    HW123891   2.870   3.433   3.711
 4004SOL    HW223892   2.767   3.506   3.627
 4005SOL     OW23893   4.489   3.392  17.107
 4005SOL    HW123894   4.568   3.354  17.146
 4005SOL    HW223895   4.443   3.317  17.070
 4006SOL     OW23896   4.075   3.870   1.239
 4006SOL    HW123897   4.085   3.778   1.215
 4006SOL    HW223898   4.158   3.893   1.281
 4007SOL     OW23899   0.594   2.438  15.509
 4007SOL    HW123900   0.664   2.374  15.496
 4007SOL    HW223901   0.514   2.386  15.512
 4008SOL     OW23902   2.740   4.176  16.714
 4008SOL    HW123903   2.831   4.147  16.716
 4008SOL    HW223904   2.743   4.262  16.672
 4009SOL     OW23905   0.809   1.861  18.720
 4009SOL    HW123906   0.885   1.819  18.762
 4009SOL    HW223907   0.774   1.920  18.786
 4010SOL     OW23908   0.062   4.157   4.698
 4010SOL    HW123909   0.055   4.241   4.743
 4010SOL    HW223910   0.155   4.135   4.701
 4011SOL     OW23911   2.051   2.203  15.999
 4011SOL    HW123912   2.101   2.126  15.972
 4011SOL    HW223913   2.075   2.271  15.937
 4012SOL     OW23914   2.621   1.936   2.380
 4012SOL    HW123915   2.567   1.858   2.372
 4012SOL    HW223916   2.604   1.969   2.468
 4013SOL     OW23917   3.134   2.423   7.620
 4013SOL    HW123918   3.162   2.445   7.709
 4013SOL    HW223919   3.175   2.338   7.602
 4014SOL     OW23920   0.762   3.631   4.154
 4014SOL    HW123921   0.768   3.711   4.101
 4014SOL    HW223922   0.818   3.568   4.108
 4015SOL     OW23923   3.899   0.662  16.321
 4015SOL    HW123924   3.869   0.578  16.356
 4015SOL    HW223925   3.827   0.692  16.266
 4016SOL     OW23926   2.285   3.288   8.296
 4016SOL    HW123927   2.345   3.285   8.371
 4016SOL    HW223928   2.198   3.294   8.335
 4017SOL     OW23929   2.472   3.226   5.289
 4017SOL    HW123930   2.532   3.228   5.214
 4017SOL    HW223931   2.472   3.134   5.316
 4018SOL     OW23932   0.307   3.853   0.799
 4018SOL    HW123933   0.255   3.933   0.794
 4018SOL    HW223934   0.260   3.790   0.745
 4019SOL     OW23935   1.069   4.532  12.141
 4019SOL    HW123936   1.137   4.524  12.074
 4019SOL    HW223937   1.060   4.443  12.176
 4020SOL     OW23938   3.461   1.302  19.948
 4020SOL    HW123939   3.482   1.389  19.983
 4020SOL    HW223940   3.507   1.299  19.864
 4021SOL     OW23941   1.059   4.079   4.507
 4021SOL    HW123942   0.992   4.067   4.574
 4021SOL    HW223943   1.136   4.033   4.541
 4022SOL     OW23944   3.533   1.495  20.134
 4022SOL    HW123945   3.616   1.475  20.177
 4022SOL    HW223946   3.470   1.504  20.206
 4023SOL     OW23947   2.060   3.469   2.773
 4023SOL    HW123948   2.010   3.536   2.819
 4023SOL    HW223949   1.999   3.396   2.762
 4024SOL     OW23950   0.386   1.857   0.971
 4024SOL    HW123951   0.356   1.919   1.038
 4024SOL    HW223952   0.432   1.789   1.020
 4025SOL     OW23953   2.632   0.762   1.215
 4025SOL    HW123954   2.611   0.717   1.133
 4025SOL    HW223955   2.693   0.704   1.260
 4026SOL     OW23956   1.302   4.086  16.538
 4026SOL    HW123957   1.344   4.170  16.519
 4026SOL    HW223958   1.366   4.039  16.592
 4027SOL     OW23959   3.258   3.314   3.533
 4027SOL    HW123960   3.165   3.299   3.515
 4027SOL    HW223961   3.287   3.369   3.460
 4028SOL     OW23962   1.416   4.271  18.753
 4028SOL    HW123963   1.421   4.337  18.822
 4028SOL    HW223964   1.460   4.312  18.678
 4029SOL     OW23965   4.761   1.260   0.279
 4029SOL    HW123966   4.673   1.290   0.258
 4029SOL    HW223967   0.026   1.301   0.213
 4030SOL     OW23968   4.297   0.256  17.940
 4030SOL    HW123969   4.301   0.173  17.987
 4030SOL    HW223970   4.364   0.247  17.872
 4031SOL     OW23971   2.389   2.044  19.629
 4031SOL    HW123972   2.480   2.036  19.601
 4031SOL    HW223973   2.367   1.959  19.666
 4032SOL     OW23974   1.596   3.542  14.655
 4032SOL    HW123975   1.600   3.452  14.686
 4032SOL    HW223976   1.677   3.554  14.606
 4033SOL     OW23977   1.069   3.664   3.565
 4033SOL    HW123978   1.091   3.604   3.636
 4033SOL    HW223979   1.093   3.617   3.485
 4034SOL     OW23980   4.622   2.153  13.875
 4034SOL    HW123981   4.690   2.149  13.943
 4034SOL    HW223982   4.669   2.144  13.793
 4035SOL     OW23983   2.067   2.884  15.609
 4035SOL    HW123984   2.103   2.935  15.536
 4035SOL    HW223985   1.981   2.923  15.626
 4036SOL     OW23986   3.061   2.026   3.924
 4036SOL    HW123987   3.038   1.961   3.992
 4036SOL    HW223988   3.008   2.102   3.945
 4037SOL     OW23989   2.353   3.943   6.155
 4037SOL    HW123990   2.401   3.881   6.100
 4037SOL    HW223991   2.370   4.028   6.116
 4038SOL     OW23992   4.545   3.915   3.408
 4038SOL    HW123993   4.457   3.891   3.378
 4038SOL    HW223994   4.601   3.846   3.374
 4039SOL     OW23995   3.504   4.290   6.333
 4039SOL    HW123996   3.431   4.336   6.374
 4039SOL    HW223997   3.488   4.198   6.352
 4040SOL     OW23998   0.482   3.496  12.262
 4040SOL    HW123999   0.388   3.487  12.275
 4040SOL    HW224000   0.507   3.571  12.317
 4041SOL     OW24001   0.327   0.199  21.191
 4041SOL    HW124002   0.329   0.107  21.217
 4041SOL    HW224003   0.408   0.213  21.142
 4042SOL     OW24004   3.926   1.976   2.681
 4042SOL    HW124005   3.941   1.883   2.691
 4042SOL    HW224006   3.831   1.985   2.673
 4043SOL     OW24007   0.270   4.186   2.444
 4043SOL    HW124008   0.206   4.245   2.484
 4043SOL    HW224009   0.324   4.156   2.518
 4044SOL     OW24010   2.726   4.609  18.532
 4044SOL    HW124011   2.806   4.566  18.563
 4044SOL    HW224012   2.738   4.615  18.437
 4045SOL     OW24013   2.564   0.049   4.121
 4045SOL    HW124014   2.639   0.108   4.122
 4045SOL    HW224015   2.503   0.090   4.059
 4046SOL     OW24016   1.258   2.772  11.847
 4046SOL    HW124017   1.182   2.776  11.905
 4046SOL    HW224018   1.331   2.801  11.902
 4047SOL     OW24019   1.757   3.838  15.327
 4047SOL    HW124020   1.814   3.899  15.374
 4047SOL    HW224021   1.669   3.861  15.356
 4048SOL     OW24022   0.648   3.926   7.587
 4048SOL    HW124023   0.713   3.995   7.575
 4048SOL    HW224024   0.571   3.971   7.620
 4049SOL     OW24025   0.484   0.867  20.040
 4049SOL    HW124026   0.539   0.901  19.970
 4049SOL    HW224027   0.540   0.872  20.118
 4050SOL     OW24028   2.356   0.000  15.755
 4050SOL    HW124029   2.290   0.068  15.739
 4050SOL    HW224030   2.314   4.710  15.727
 4051SOL     OW24031   4.248   4.090   5.848
 4051SOL    HW124032   4.260   4.121   5.758
 4051SOL    HW224033   4.166   4.041   5.847
 4052SOL     OW24034   1.205   4.242   0.422
 4052SOL    HW124035   1.123   4.243   0.372
 4052SOL    HW224036   1.274   4.239   0.355
 4053SOL     OW24037   0.718   1.543  16.599
 4053SOL    HW124038   0.628   1.571  16.581
 4053SOL    HW224039   0.745   1.596  16.674
 4054SOL     OW24040   1.921   1.345   1.582
 4054SOL    HW124041   2.006   1.352   1.538
 4054SOL    HW224042   1.876   1.274   1.536
 4055SOL     OW24043   4.016   1.798  19.783
 4055SOL    HW124044   3.924   1.772  19.771
 4055SOL    HW224045   4.011   1.884  19.824
 4056SOL     OW24046   0.703   4.521   1.883
 4056SOL    HW124047   0.741   4.436   1.906
 4056SOL    HW224048   0.767   4.561   1.825
 4057SOL     OW24049   2.597   2.299   4.434
 4057SOL    HW124050   2.639   2.213   4.437
 4057SOL    HW224051   2.666   2.358   4.403
 4058SOL     OW24052   0.143   1.889  16.200
 4058SOL    HW124053   0.221   1.937  16.229
 4058SOL    HW224054   0.069   1.941  16.231
 4059SOL     OW24055   0.358   3.813  12.391
 4059SOL    HW124056   0.314   3.892  12.359
 4059SOL    HW224057   0.296   3.743  12.375
 4060SOL     OW24058   4.338   0.558  15.346
 4060SOL    HW124059   4.406   0.625  15.340
 4060SOL    HW224060   4.307   0.564  15.437
 4061SOL     OW24061   2.085   3.664   4.909
 4061SOL    HW124062   2.044   3.630   4.829
 4061SOL    HW224063   2.115   3.751   4.885
 4062SOL     OW24064   0.212   3.939   6.179
 4062SOL    HW124065   0.294   3.984   6.161
 4062SOL    HW224066   0.235   3.874   6.246
 4063SOL     OW24067   0.067   1.012   5.309
 4063SOL    HW124068   4.765   0.993   5.325
 4063SOL    HW224069   0.080   1.098   5.349
 4064SOL     OW24070   1.237   4.312  16.728
 4064SOL    HW124071   1.266   4.227  16.760
 4064SOL    HW224072   1.148   4.296  16.697
 4065SOL     OW24073   4.616   2.777  15.056
 4065SOL    HW124074   4.667   2.820  15.125
 4065SOL    HW224075   4.527   2.812  15.067
 4066SOL     OW24076   0.261   3.095   2.389
 4066SOL    HW124077   0.201   3.153   2.344
 4066SOL    HW224078   0.227   3.007   2.372
 4067SOL     OW24079   0.803   3.699  16.798
 4067SOL    HW124080   0.734   3.661  16.743
 4067SOL    HW224081   0.877   3.708  16.738
 4068SOL     OW24082   2.609   1.637   1.878
 4068SOL    HW124083   2.596   1.576   1.806
 4068SOL    HW224084   2.694   1.615   1.915
 4069SOL     OW24085   2.818   3.917  15.666
 4069SOL    HW124086   2.726   3.926  15.688
 4069SOL    HW224087   2.840   3.827  15.691
 4070SOL     OW24088   2.522   3.525  18.844
 4070SOL    HW124089   2.470   3.447  18.862
 4070SOL    HW224090   2.458   3.591  18.819
 4071SOL     OW24091   1.397   1.185   4.396
 4071SOL    HW124092   1.477   1.190   4.448
 4071SOL    HW224093   1.363   1.097   4.412
 4072SOL     OW24094   2.210   2.875   0.616
 4072SOL    HW124095   2.248   2.963   0.606
 4072SOL    HW224096   2.199   2.865   0.711
 4073SOL     OW24097   2.143   4.600  20.105
 4073SOL    HW124098   2.121   4.692  20.116
 4073SOL    HW224099   2.180   4.594  20.017
 4074SOL     OW24100   0.667   0.487  20.008
 4074SOL    HW124101   0.576   0.457  20.001
 4074SOL    HW224102   0.707   0.427  20.070
 4075SOL     OW24103   2.536   2.815  16.870
 4075SOL    HW124104   2.620   2.770  16.870
 4075SOL    HW224105   2.522   2.841  16.779
 4076SOL     OW24106   1.479   4.066   7.177
 4076SOL    HW124107   1.573   4.047   7.177
 4076SOL    HW224108   1.442   4.007   7.242
 4077SOL     OW24109   0.129   3.425   3.459
 4077SOL    HW124110   0.097   3.432   3.369
 4077SOL    HW224111   0.053   3.443   3.513
 4078SOL     OW24112   2.177   0.213   5.017
 4078SOL    HW124113   2.178   0.309   5.025
 4078SOL    HW224114   2.184   0.181   5.107
 4079SOL     OW24115   4.537   0.537  19.699
 4079SOL    HW124116   4.573   0.515  19.613
 4079SOL    HW224117   4.558   0.629  19.710
 4080SOL     OW24118   3.686   1.563   5.572
 4080SOL    HW124119   3.679   1.548   5.666
 4080SOL    HW224120   3.780   1.572   5.556
 4081SOL     OW24121   2.741   3.425   4.487
 4081SOL    HW124122   2.770   3.426   4.578
 4081SOL    HW224123   2.731   3.332   4.467
 4082SOL     OW24124   0.092   2.239   0.010
 4082SOL    HW124125   0.072   2.282   0.093
 4082SOL    HW224126   0.007   2.227  21.231
 4083SOL     OW24127   2.377   2.183   3.996
 4083SOL    HW124128   2.305   2.200   3.935
 4083SOL    HW224129   2.364   2.246   4.067
 4084SOL     OW24130   3.411   4.286   5.361
 4084SOL    HW124131   3.337   4.346   5.359
 4084SOL    HW224132   3.372   4.199   5.353
 4085SOL     OW24133   3.839   0.599   4.368
 4085SOL    HW124134   3.774   0.604   4.438
 4085SOL    HW224135   3.821   0.515   4.326
 4086SOL     OW24136   2.039   3.212   3.588
 4086SOL    HW124137   2.066   3.275   3.521
 4086SOL    HW224138   2.090   3.134   3.569
 4087SOL     OW24139   1.068   1.687   4.362
 4087SOL    HW124140   1.034   1.614   4.414
 4087SOL    HW224141   1.036   1.766   4.405
 4088SOL     OW24142   4.408   3.450   7.086
 4088SOL    HW124143   4.322   3.492   7.076
 4088SOL    HW224144   4.443   3.446   6.997
 4089SOL     OW24145   0.064   0.935  18.045
 4089SOL    HW124146   0.111   0.852  18.052
 4089SOL    HW224147   0.125   1.001  18.080
 4090SOL     OW24148   3.317   1.559   6.183
 4090SOL    HW124149   3.272   1.556   6.098
 4090SOL    HW224150   3.366   1.642   6.181
 4091SOL     OW24151   1.575   2.312  20.713
 4091SOL    HW124152   1.520   2.249  20.760
 4091SOL    HW224153   1.536   2.319  20.626
 4092SOL     OW24154   3.175   3.182   5.111
 4092SOL    HW124155   3.193   3.194   5.204
 4092SOL    HW224156   3.243   3.233   5.066
 4093SOL     OW24157   1.177   0.764  15.613
 4093SOL    HW124158   1.135   0.791  15.532
 4093SOL    HW224159   1.270   0.774  15.597
 4094SOL     OW24160   3.390   3.282  13.161
 4094SOL    HW124161   3.389   3.377  13.163
 4094SOL    HW224162   3.439   3.260  13.082
 4095SOL     OW24163   4.063   3.023   4.988
 4095SOL    HW124164   4.131   3.063   5.041
 4095SOL    HW224165   4.002   3.093   4.969
 4096SOL     OW24166   2.513   4.709   6.516
 4096SOL    HW124167   2.513   4.616   6.540
 4096SOL    HW224168   2.447   4.717   6.448
 4097SOL     OW24169   0.173   1.453  20.717
 4097SOL    HW124170   0.102   1.515  20.735
 4097SOL    HW224171   0.212   1.485  20.636
 4098SOL     OW24172   3.206   0.272   0.157
 4098SOL    HW124173   3.260   0.335   0.206
 4098SOL    HW224174   3.192   0.200   0.218
 4099SOL     OW24175   1.221   4.027  11.298
 4099SOL    HW124176   1.296   3.995  11.348
 4099SOL    HW224177   1.186   4.099  11.350
 4100SOL     OW24178   2.079   0.006   0.307
 4100SOL    HW124179   2.016   4.752   0.250
 4100SOL    HW224180   2.050   0.097   0.308
 4101SOL     OW24181   4.142   0.730  19.166
 4101SOL    HW124182   4.086   0.772  19.231
 4101SOL    HW224183   4.100   0.645  19.151
 4102SOL     OW24184   1.048   4.400   6.398
 4102SOL    HW124185   1.049   4.436   6.309
 4102SOL    HW224186   0.956   4.378   6.414
 4103SOL     OW24187   1.606   0.966   4.711
 4103SOL    HW124188   1.515   0.952   4.735
 4103SOL    HW224189   1.627   0.891   4.654
 4104SOL     OW24190   1.513   4.645   1.921
 4104SOL    HW124191   1.542   4.723   1.968
 4104SOL    HW224192   1.491   4.676   1.833
 4105SOL     OW24193   3.593   0.490   6.877
 4105SOL    HW124194   3.578   0.565   6.935
 4105SOL    HW224195   3.654   0.434   6.926
 4106SOL     OW24196   2.087   3.330  18.297
 4106SOL    HW124197   2.026   3.262  18.270
 4106SOL    HW224198   2.151   3.335  18.227
 4107SOL     OW24199   2.550   3.519  19.552
 4107SOL    HW124200   2.487   3.458  19.591
 4107SOL    HW224201   2.568   3.483  19.465
 4108SOL     OW24202   1.337   1.129   7.285
 4108SOL    HW124203   1.263   1.190   7.275
 4108SOL    HW224204   1.302   1.058   7.340
 4109SOL     OW24205   4.756   1.569   4.953
 4109SOL    HW124206   4.748   1.638   4.887
 4109SOL    HW224207   0.002   1.613   5.030
 4110SOL     OW24208   0.411   1.088  16.810
 4110SOL    HW124209   0.486   1.129  16.767
 4110SOL    HW224210   0.334   1.129  16.771
 4111SOL     OW24211   0.112   1.663   0.383
 4111SOL    HW124212   0.190   1.711   0.356
 4111SOL    HW224213   0.052   1.672   0.309
 4112SOL     OW24214   2.482   3.807  13.043
 4112SOL    HW124215   2.401   3.756  13.043
 4112SOL    HW224216   2.462   3.883  13.098
 4113SOL     OW24217   1.381   4.314  19.969
 4113SOL    HW124218   1.356   4.290  19.880
 4113SOL    HW224219   1.325   4.389  19.990
 4114SOL     OW24220   2.508   0.152  15.537
 4114SOL    HW124221   2.477   0.146  15.627
 4114SOL    HW224222   2.480   0.238  15.507
 4115SOL     OW24223   0.739   1.353   3.086
 4115SOL    HW124224   0.680   1.339   3.012
 4115SOL    HW224225   0.718   1.282   3.147
 4116SOL     OW24226   1.754   2.849  16.338
 4116SOL    HW124227   1.695   2.774  16.326
 4116SOL    HW224228   1.702   2.912  16.389
 4117SOL     OW24229   3.994   3.182  14.187
 4117SOL    HW124230   3.927   3.248  14.207
 4117SOL    HW224231   4.010   3.192  14.093
 4118SOL     OW24232   1.711   3.798   7.239
 4118SOL    HW124233   1.764   3.796   7.319
 4118SOL    HW224234   1.736   3.880   7.197
 4119SOL     OW24235   0.756   4.774  17.824
 4119SOL    HW124236   0.815   0.034  17.878
 4119SOL    HW224237   0.809   4.700  17.793
 4120SOL     OW24238   3.197   0.876   6.784
 4120SOL    HW124239   3.170   0.790   6.750
 4120SOL    HW224240   3.121   0.932   6.768
 4121SOL     OW24241   4.201   0.251   1.996
 4121SOL    HW124242   4.265   0.273   1.928
 4121SOL    HW224243   4.120   0.237   1.947
 4122SOL     OW24244   4.345   1.372  20.399
 4122SOL    HW124245   4.271   1.410  20.353
 4122SOL    HW224246   4.422   1.403  20.351
 4123SOL     OW24247   0.814   2.600   6.200
 4123SOL    HW124248   0.860   2.675   6.237
 4123SOL    HW224249   0.825   2.530   6.264
 4124SOL     OW24250   2.495   0.183  21.214
 4124SOL    HW124251   2.445   0.199   0.031
 4124SOL    HW224252   2.580   0.152  21.244
 4125SOL     OW24253   1.486   4.527   1.612
 4125SOL    HW124254   1.446   4.462   1.669
 4125SOL    HW224255   1.470   4.611   1.655
 4126SOL     OW24256   1.341   1.629   2.757
 4126SOL    HW124257   1.298   1.550   2.789
 4126SOL    HW224258   1.370   1.607   2.669
 4127SOL     OW24259   2.347   2.279   8.574
 4127SOL    HW124260   2.396   2.317   8.501
 4127SOL    HW224261   2.415   2.242   8.631
 4128SOL     OW24262   1.789   2.375  17.775
 4128SOL    HW124263   1.814   2.296  17.824
 4128SOL    HW224264   1.860   2.387  17.711
 4129SOL     OW24265   0.245   1.958   1.955
 4129SOL    HW124266   0.193   1.946   1.876
 4129SOL    HW224267   0.199   1.908   2.022
 4130SOL     OW24268   3.033   2.625   5.082
 4130SOL    HW124269   3.031   2.609   5.177
 4130SOL    HW224270   2.960   2.686   5.067
 4131SOL     OW24271   0.987   4.257   1.733
 4131SOL    HW124272   1.062   4.315   1.733
 4131SOL    HW224273   1.013   4.183   1.788
 4132SOL     OW24274   4.411   0.026  14.346
 4132SOL    HW124275   4.344   0.079  14.303
 4132SOL    HW224276   4.483   0.021  14.283
 4133SOL     OW24277   4.498   1.992   3.849
 4133SOL    HW124278   4.527   2.076   3.884
 4133SOL    HW224279   4.498   1.933   3.925
 4134SOL     OW24280   4.042   0.304  16.464
 4134SOL    HW124281   4.124   0.332  16.423
 4134SOL    HW224282   4.065   0.227  16.515
 4135SOL     OW24283   0.648   3.435  16.256
 4135SOL    HW124284   0.631   3.483  16.175
 4135SOL    HW224285   0.652   3.344  16.229
 4136SOL     OW24286   0.636   0.817   1.279
 4136SOL    HW124287   0.726   0.805   1.249
 4136SOL    HW224288   0.584   0.814   1.198
 4137SOL     OW24289   2.359   0.231   0.214
 4137SOL    HW124290   2.304   0.244   0.290
 4137SOL    HW224291   2.433   0.180   0.247
 4138SOL     OW24292   0.093   4.750   0.265
 4138SOL    HW124293   0.075   4.663   0.300
 4138SOL    HW224294   0.007   4.783   0.236
 4139SOL     OW24295   2.703   2.201   5.529
 4139SOL    HW124296   2.703   2.226   5.622
 4139SOL    HW224297   2.795   2.201   5.504
 4140SOL     OW24298   2.289   4.245  20.174
 4140SOL    HW124299   2.285   4.203  20.260
 4140SOL    HW224300   2.349   4.318  20.187
 4141SOL     OW24301   2.671   4.537   2.581
 4141SOL    HW124302   2.593   4.544   2.526
 4141SOL    HW224303   2.730   4.480   2.531
 4142SOL     OW24304   0.586   1.093   2.447
 4142SOL    HW124305   0.630   1.034   2.508
 4142SOL    HW224306   0.492   1.081   2.465
 4143SOL     OW24307   3.084   4.256   0.623
 4143SOL    HW124308   3.073   4.349   0.604
 4143SOL    HW224309   3.095   4.215   0.538
 4144SOL     OW24310   4.539   2.502   5.128
 4144SOL    HW124311   4.455   2.548   5.132
 4144SOL    HW224312   4.566   2.511   5.036
 4145SOL     OW24313   4.515   1.805  16.151
 4145SOL    HW124314   4.509   1.878  16.089
 4145SOL    HW224315   4.607   1.803  16.177
 4146SOL     OW24316   0.973   3.960   4.134
 4146SOL    HW124317   1.016   3.893   4.187
 4146SOL    HW224318   0.889   3.974   4.179
 4147SOL     OW24319   0.207   1.811  14.480
 4147SOL    HW124320   0.142   1.780  14.416
 4147SOL    HW224321   0.247   1.731  14.514
 4148SOL     OW24322   3.980   1.282   6.470
 4148SOL    HW124323   4.049   1.225   6.437
 4148SOL    HW224324   3.950   1.330   6.393
 4149SOL     OW24325   0.386   0.570  17.182
 4149SOL    HW124326   0.354   0.585  17.271
 4149SOL    HW224327   0.441   0.492  17.189
 4150SOL     OW24328   0.262   3.788  15.261
 4150SOL    HW124329   0.342   3.800  15.312
 4150SOL    HW224330   0.247   3.873  15.219
 4151SOL     OW24331   4.597   1.374  15.792
 4151SOL    HW124332   4.605   1.388  15.698
 4151SOL    HW224333   4.571   1.458  15.828
 4152SOL     OW24334   3.322   2.347   4.430
 4152SOL    HW124335   3.413   2.363   4.454
 4152SOL    HW224336   3.309   2.254   4.445
 4153SOL     OW24337   2.759   0.226   4.162
 4153SOL    HW124338   2.841   0.178   4.175
 4153SOL    HW224339   2.732   0.251   4.251
 4154SOL     OW24340   0.153   0.592  13.699
 4154SOL    HW124341   0.132   0.641  13.620
 4154SOL    HW224342   0.206   0.518  13.668
 4155SOL     OW24343   2.842   4.492  17.078
 4155SOL    HW124344   2.749   4.511  17.072
 4155SOL    HW224345   2.880   4.529  16.998
 4156SOL     OW24346   1.389   0.898   0.469
 4156SOL    HW124347   1.383   0.815   0.515
 4156SOL    HW224348   1.390   0.875   0.376
 4157SOL     OW24349   2.719   1.502   5.967
 4157SOL    HW124350   2.791   1.561   5.989
 4157SOL    HW224351   2.640   1.554   5.979
 4158SOL     OW24352   0.014   0.604  15.928
 4158SOL    HW124353   0.066   0.592  16.008
 4158SOL    HW224354   4.715   0.586  15.955
 4159SOL     OW24355   1.445   1.802  17.038
 4159SOL    HW124356   1.530   1.818  16.997
 4159SOL    HW224357   1.464   1.738  17.107
 4160SOL     OW24358   3.520   4.105  13.951
 4160SOL    HW124359   3.531   4.030  13.892
 4160SOL    HW224360   3.430   4.134  13.936
 4161SOL     OW24361   3.878   2.922   6.206
 4161SOL    HW124362   3.863   2.910   6.112
 4161SOL    HW224363   3.943   2.992   6.212
 4162SOL     OW24364   2.905   0.174   2.431
 4162SOL    HW124365   2.992   0.212   2.443
 4162SOL    HW224366   2.922   0.082   2.409
 4163SOL     OW24367   2.033   3.205  16.999
 4163SOL    HW124368   2.093   3.147  17.045
 4163SOL    HW224369   2.046   3.290  17.041
 4164SOL     OW24370   3.433   1.345   5.357
 4164SOL    HW124371   3.466   1.422   5.311
 4164SOL    HW224372   3.411   1.283   5.287
 4165SOL     OW24373   0.749   3.958  15.559
 4165SOL    HW124374   0.818   4.014  15.523
 4165SOL    HW224375   0.754   3.878  15.507
 4166SOL     OW24376   2.998   2.326  21.063
 4166SOL    HW124377   2.906   2.328  21.039
 4166SOL    HW224378   2.999   2.301  21.156
 4167SOL     OW24379   3.054   1.438  15.103
 4167SOL    HW124380   3.101   1.366  15.062
 4167SOL    HW224381   2.962   1.416  15.093
 4168SOL     OW24382   2.652   3.451   4.054
 4168SOL    HW124383   2.702   3.459   4.135
 4168SOL    HW224384   2.561   3.464   4.080
 4169SOL     OW24385   4.550   2.238   0.427
 4169SOL    HW124386   4.589   2.203   0.347
 4169SOL    HW224387   4.470   2.186   0.439
 4170SOL     OW24388   1.939   2.273   3.999
 4170SOL    HW124389   1.965   2.337   4.065
 4170SOL    HW224390   2.017   2.263   3.943
 4171SOL     OW24391   1.869   1.993   0.939
 4171SOL    HW124392   1.854   2.046   1.018
 4171SOL    HW224393   1.851   2.053   0.867
 4172SOL     OW24394   2.726   1.324  17.518
 4172SOL    HW124395   2.703   1.414  17.542
 4172SOL    HW224396   2.757   1.331  17.428
 4173SOL     OW24397   1.696   1.550   0.724
 4173SOL    HW124398   1.667   1.587   0.641
 4173SOL    HW224399   1.712   1.457   0.706
 4174SOL     OW24400   1.160   0.830  15.139
 4174SOL    HW124401   1.166   0.735  15.141
 4174SOL    HW224402   1.231   0.857  15.080
 4175SOL     OW24403   1.091   3.907   2.168
 4175SOL    HW124404   1.187   3.904   2.172
 4175SOL    HW224405   1.062   3.852   2.241
 4176SOL     OW24406   3.317   2.750  17.829
 4176SOL    HW124407   3.244   2.717  17.777
 4176SOL    HW224408   3.283   2.828  17.872
 4177SOL     OW24409   3.566   4.600  20.639
 4177SOL    HW124410   3.504   4.541  20.597
 4177SOL    HW224411   3.640   4.603  20.579
 4178SOL     OW24412   2.560   4.206  19.942
 4178SOL    HW124413   2.584   4.161  20.023
 4178SOL    HW224414   2.641   4.248  19.913
 4179SOL     OW24415   0.896   1.332   2.095
 4179SOL    HW124416   0.821   1.379   2.059
 4179SOL    HW224417   0.932   1.284   2.020
 4180SOL     OW24418   2.409   0.086  14.053
 4180SOL    HW124419   2.486   0.090  13.996
 4180SOL    HW224420   2.334   0.088  13.993
 4181SOL     OW24421   3.783   3.427  15.743
 4181SOL    HW124422   3.832   3.490  15.795
 4181SOL    HW224423   3.704   3.410  15.793
 4182SOL     OW24424   1.041   1.797   4.924
 4182SOL    HW124425   0.956   1.753   4.929
 4182SOL    HW224426   1.082   1.780   5.008
 4183SOL     OW24427   0.307   1.061  18.821
 4183SOL    HW124428   0.395   1.097  18.821
 4183SOL    HW224429   0.250   1.136  18.837
 4184SOL     OW24430   4.612   0.006   5.200
 4184SOL    HW124431   4.663   0.061   5.141
 4184SOL    HW224432   4.673   4.729   5.228
 4185SOL     OW24433   3.869   4.412   2.249
 4185SOL    HW124434   3.865   4.502   2.215
 4185SOL    HW224435   3.928   4.417   2.324
 4186SOL     OW24436   3.553   0.368  15.203
 4186SOL    HW124437   3.607   0.290  15.211
 4186SOL    HW224438   3.598   0.434  15.257
 4187SOL     OW24439   0.168   2.906   1.016
 4187SOL    HW124440   0.258   2.923   1.044
 4187SOL    HW224441   0.117   2.912   1.097
 4188SOL     OW24442   3.368   1.898   5.468
 4188SOL    HW124443   3.402   1.959   5.535
 4188SOL    HW224444   3.289   1.941   5.435
 4189SOL     OW24445   4.024   1.695  15.842
 4189SOL    HW124446   3.982   1.615  15.874
 4189SOL    HW224447   4.053   1.740  15.922
 4190SOL     OW24448   2.868   1.368  20.523
 4190SOL    HW124449   2.785   1.412  20.504
 4190SOL    HW224450   2.852   1.276  20.501
 4191SOL     OW24451   3.726   3.223   1.947
 4191SOL    HW124452   3.784   3.173   1.889
 4191SOL    HW224453   3.750   3.195   2.035
 4192SOL     OW24454   3.373   2.690  15.705
 4192SOL    HW124455   3.423   2.681  15.624
 4192SOL    HW224456   3.369   2.601  15.740
 4193SOL     OW24457   0.957   4.086  15.484
 4193SOL    HW124458   0.999   4.160  15.440
 4193SOL    HW224459   1.014   4.067  15.559
 4194SOL     OW24460   1.826   3.874   7.511
 4194SOL    HW124461   1.818   3.825   7.593
 4194SOL    HW224462   1.904   3.928   7.524
 4195SOL     OW24463   3.050   1.340   8.446
 4195SOL    HW124464   3.107   1.415   8.433
 4195SOL    HW224465   3.071   1.280   8.375
 4196SOL     OW24466   3.498   2.272  19.866
 4196SOL    HW124467   3.566   2.339  19.868
 4196SOL    HW224468   3.540   2.195  19.905
 4197SOL     OW24469   1.494   1.152  15.849
 4197SOL    HW124470   1.488   1.147  15.753
 4197SOL    HW224471   1.457   1.070  15.880
 4198SOL     OW24472   3.485   0.018  17.057
 4198SOL    HW124473   3.578   0.031  17.077
 4198SOL    HW224474   3.444   0.100  17.084
 4199SOL     OW24475   2.211   1.475   6.018
 4199SOL    HW124476   2.267   1.398   6.007
 4199SOL    HW224477   2.198   1.508   5.930
 4200SOL     OW24478   0.735   4.161  14.177
 4200SOL    HW124479   0.657   4.121  14.141
 4200SOL    HW224480   0.778   4.203  14.102
 4201SOL     OW24481   4.695   3.227  16.874
 4201SOL    HW124482   4.673   3.293  16.809
 4201SOL    HW224483   4.694   3.274  16.958
 4202SOL     OW24484   4.667   2.863   8.108
 4202SOL    HW124485   4.714   2.814   8.041
 4202SOL    HW224486   4.635   2.941   8.063
 4203SOL     OW24487   1.427   0.856  15.032
 4203SOL    HW124488   1.475   0.870  15.114
 4203SOL    HW224489   1.458   0.771  15.001
 4204SOL     OW24490   3.705   4.460  16.985
 4204SOL    HW124491   3.644   4.417  17.045
 4204SOL    HW224492   3.770   4.502  17.042
 4205SOL     OW24493   0.173   4.605   5.024
 4205SOL    HW124494   0.170   4.679   5.086
 4205SOL    HW224495   0.177   4.647   4.938
 4206SOL     OW24496   0.372   1.223  18.394
 4206SOL    HW124497   0.342   1.136  18.368
 4206SOL    HW224498   0.297   1.280  18.378
 4207SOL     OW24499   3.508   0.899  19.181
 4207SOL    HW124500   3.548   0.812  19.181
 4207SOL    HW224501   3.420   0.886  19.146
 4208SOL     OW24502   0.760   1.581   2.011
 4208SOL    HW124503   0.807   1.616   2.086
 4208SOL    HW224504   0.705   1.654   1.982
 4209SOL     OW24505   4.640   3.483   1.233
 4209SOL    HW124506   4.669   3.574   1.233
 4209SOL    HW224507   4.563   3.483   1.291
 4210SOL     OW24508   2.383   1.835   2.084
 4210SOL    HW124509   2.366   1.826   1.990
 4210SOL    HW224510   2.296   1.843   2.123
 4211SOL     OW24511   1.070   4.744   0.784
 4211SOL    HW124512   1.120   4.662   0.783
 4211SOL    HW224513   1.010   4.734   0.858
 4212SOL     OW24514   3.982   0.950   2.591
 4212SOL    HW124515   3.949   1.014   2.654
 4212SOL    HW224516   3.915   0.882   2.588
 4213SOL     OW24517   4.203   2.814  20.693
 4213SOL    HW124518   4.253   2.780  20.618
 4213SOL    HW224519   4.196   2.908  20.677
 4214SOL     OW24520   3.173   3.220  19.570
 4214SOL    HW124521   3.109   3.222  19.499
 4214SOL    HW224522   3.196   3.312  19.584
 4215SOL     OW24523   3.714   4.334  18.408
 4215SOL    HW124524   3.641   4.299  18.357
 4215SOL    HW224525   3.789   4.331  18.348
 4216SOL     OW24526   1.455   3.868  16.913
 4216SOL    HW124527   1.454   3.876  16.818
 4216SOL    HW224528   1.422   3.779  16.929
 4217SOL     OW24529   2.479   0.051   4.688
 4217SOL    HW124530   2.472   0.069   4.782
 4217SOL    HW224531   2.393   0.074   4.652
 4218SOL     OW24532   4.400   2.900  14.928
 4218SOL    HW124533   4.410   2.992  14.901
 4218SOL    HW224534   4.337   2.902  14.999
 4219SOL     OW24535   1.855   0.996   3.266
 4219SOL    HW124536   1.846   0.970   3.174
 4219SOL    HW224537   1.949   1.010   3.278
 4220SOL     OW24538   4.363   3.178   3.071
 4220SOL    HW124539   4.336   3.135   2.990
 4220SOL    HW224540   4.362   3.108   3.136
 4221SOL     OW24541   4.138   1.993   3.476
 4221SOL    HW124542   4.121   1.939   3.553
 4221SOL    HW224543   4.073   2.062   3.480
 4222SOL     OW24544   3.698   2.965   0.527
 4222SOL    HW124545   3.694   2.873   0.500
 4222SOL    HW224546   3.775   2.971   0.583
 4223SOL     OW24547   4.738   0.244  12.838
 4223SOL    HW124548   4.713   0.169  12.893
 4223SOL    HW224549   4.655   0.289  12.820
 4224SOL     OW24550   3.145   1.460  20.495
 4224SOL    HW124551   3.053   1.436  20.487
 4224SOL    HW224552   3.177   1.409  20.570
 4225SOL     OW24553   1.735   1.214  16.896
 4225SOL    HW124554   1.683   1.202  16.975
 4225SOL    HW224555   1.717   1.305  16.870
 4226SOL     OW24556   4.466   3.868   1.902
 4226SOL    HW124557   4.468   3.775   1.924
 4226SOL    HW224558   4.520   3.910   1.969
 4227SOL     OW24559   1.876   2.071   2.255
 4227SOL    HW124560   1.844   1.987   2.288
 4227SOL    HW224561   1.903   2.118   2.333
 4228SOL     OW24562   4.109   0.889  14.927
 4228SOL    HW124563   4.115   0.962  14.989
 4228SOL    HW224564   4.168   0.823  14.963
 4229SOL     OW24565   1.548   1.391   3.291
 4229SOL    HW124566   1.464   1.404   3.336
 4229SOL    HW224567   1.565   1.474   3.246
 4230SOL     OW24568   3.214   3.479  19.604
 4230SOL    HW124569   3.194   3.566  19.570
 4230SOL    HW224570   3.236   3.493  19.696
 4231SOL     OW24571   4.513   3.008  21.233
 4231SOL    HW124572   4.495   3.058  21.152
 4231SOL    HW224573   4.538   3.075   0.034
 4232SOL     OW24574   1.102   3.242   0.703
 4232SOL    HW124575   1.073   3.182   0.772
 4232SOL    HW224576   1.078   3.198   0.622
 4233SOL     OW24577   3.820   4.621  20.525
 4233SOL    HW124578   3.891   4.634  20.587
 4233SOL    HW224579   3.863   4.586  20.447
 4234SOL     OW24580   1.102   1.954   2.218
 4234SOL    HW124581   1.107   2.049   2.232
 4234SOL    HW224582   1.160   1.937   2.144
 4235SOL     OW24583   3.037   3.427  20.728
 4235SOL    HW124584   3.011   3.432  20.820
 4235SOL    HW224585   3.110   3.365  20.727
 4236SOL     OW24586   4.265   0.006  18.052
 4236SOL    HW124587   4.179   0.006  18.094
 4236SOL    HW224588   4.327   0.002  18.125
 4237SOL     OW24589   4.056   2.223   2.656
 4237SOL    HW124590   4.010   2.141   2.673
 4237SOL    HW224591   4.036   2.278   2.732
 4238SOL     OW24592   0.686   0.164  16.306
 4238SOL    HW124593   0.704   0.257  16.291
 4238SOL    HW224594   0.723   0.119  16.230
 4239SOL     OW24595   1.590   1.041  16.696
 4239SOL    HW124596   1.525   1.110  16.711
 4239SOL    HW224597   1.668   1.072  16.741
 4240SOL     OW24598   1.065   2.465  20.826
 4240SOL    HW124599   1.019   2.548  20.812
 4240SOL    HW224600   1.155   2.490  20.845
 4241SOL     OW24601   2.277   0.172  19.962
 4241SOL    HW124602   2.314   0.210  19.882
 4241SOL    HW224603   2.267   0.079  19.941
 4242SOL     OW24604   0.898   2.841   6.309
 4242SOL    HW124605   0.861   2.884   6.232
 4242SOL    HW224606   0.906   2.910   6.375
 4243SOL     OW24607   4.479   3.380   6.826
 4243SOL    HW124608   4.508   3.296   6.863
 4243SOL    HW224609   4.541   3.398   6.756
 4244SOL     OW24610   2.706   4.326  21.035
 4244SOL    HW124611   2.747   4.369  21.111
 4244SOL    HW224612   2.650   4.393  20.997
 4245SOL     OW24613   3.395   2.461  15.408
 4245SOL    HW124614   3.369   2.433  15.320
 4245SOL    HW224615   3.333   2.417  15.466
 4246SOL     OW24616   1.796   4.036   7.128
 4246SOL    HW124617   1.855   4.104   7.161
 4246SOL    HW224618   1.799   4.046   7.033
 4247SOL     OW24619   2.154   0.374   6.078
 4247SOL    HW124620   2.080   0.423   6.040
 4247SOL    HW224621   2.226   0.437   6.078
 4248SOL     OW24622   4.539   3.486   2.900
 4248SOL    HW124623   4.560   3.395   2.880
 4248SOL    HW224624   4.605   3.512   2.965
 4249SOL     OW24625   0.338   4.468  14.556
 4249SOL    HW124626   0.271   4.513  14.608
 4249SOL    HW224627   0.396   4.428  14.621
 4250SOL     OW24628   4.213   3.876  18.289
 4250SOL    HW124629   4.285   3.835  18.240
 4250SOL    HW224630   4.192   3.813  18.358
 4251SOL     OW24631   0.505   0.140  20.505
 4251SOL    HW124632   0.485   0.233  20.512
 4251SOL    HW224633   0.526   0.113  20.594
 4252SOL     OW24634   3.045   4.557  15.921
 4252SOL    HW124635   3.117   4.569  15.983
 4252SOL    HW224636   3.088   4.535  15.838
 4253SOL     OW24637   2.397   2.019   1.721
 4253SOL    HW124638   2.420   1.960   1.793
 4253SOL    HW224639   2.303   2.033   1.731
 4254SOL     OW24640   1.803   2.431  15.311
 4254SOL    HW124641   1.740   2.367  15.280
 4254SOL    HW224642   1.849   2.386  15.382
 4255SOL     OW24643   1.882   0.405  15.935
 4255SOL    HW124644   1.900   0.323  15.888
 4255SOL    HW224645   1.867   0.378  16.025
 4256SOL     OW24646   3.814   3.617  16.544
 4256SOL    HW124647   3.890   3.568  16.515
 4256SOL    HW224648   3.842   3.661  16.624
 4257SOL     OW24649   2.772   3.082  16.736
 4257SOL    HW124650   2.743   3.169  16.762
 4257SOL    HW224651   2.708   3.022  16.775
 4258SOL     OW24652   2.871   1.601   3.777
 4258SOL    HW124653   2.818   1.649   3.840
 4258SOL    HW224654   2.961   1.619   3.802
 4259SOL     OW24655   3.698   1.688  21.007
 4259SOL    HW124656   3.620   1.636  20.988
 4259SOL    HW224657   3.749   1.633  21.067
 4260SOL     OW24658   0.389   4.524   4.657
 4260SOL    HW124659   0.457   4.499   4.594
 4260SOL    HW224660   0.407   4.469   4.734
 4261SOL     OW24661   2.291   3.494   0.358
 4261SOL    HW124662   2.354   3.463   0.293
 4261SOL    HW224663   2.230   3.422   0.369
 4262SOL     OW24664   0.196   0.176  18.984
 4262SOL    HW124665   0.104   0.154  18.971
 4262SOL    HW224666   0.202   0.268  18.957
 4263SOL     OW24667   2.354   4.349  21.132
 4263SOL    HW124668   2.299   4.413  21.088
 4263SOL    HW224669   2.441   4.360  21.094
 4264SOL     OW24670   2.306   0.719  16.080
 4264SOL    HW124671   2.337   0.777  16.150
 4264SOL    HW224672   2.324   0.631  16.112
 4265SOL     OW24673   1.110   4.329  12.718
 4265SOL    HW124674   1.031   4.287  12.684
 4265SOL    HW224675   1.162   4.349  12.640
 4266SOL     OW24676   1.352   0.361  19.978
 4266SOL    HW124677   1.370   0.307  19.901
 4266SOL    HW224678   1.388   0.311  20.052
 4267SOL     OW24679   0.902   4.751   2.120
 4267SOL    HW124680   0.997   4.763   2.115
 4267SOL    HW224681   0.888   4.697   2.198
 4268SOL     OW24682   1.554   1.332   3.784
 4268SOL    HW124683   1.577   1.261   3.844
 4268SOL    HW224684   1.560   1.292   3.697
 4269SOL     OW24685   0.173   3.870   4.006
 4269SOL    HW124686   0.082   3.843   4.018
 4269SOL    HW224687   0.169   3.965   3.996
 4270SOL     OW24688   1.883   3.046   5.677
 4270SOL    HW124689   1.966   3.063   5.721
 4270SOL    HW224690   1.906   3.038   5.585
 4271SOL     OW24691   3.303   3.541  18.010
 4271SOL    HW124692   3.365   3.469  18.002
 4271SOL    HW224693   3.354   3.611  18.051
 4272SOL     OW24694   3.971   0.157   3.517
 4272SOL    HW124695   3.948   0.085   3.575
 4272SOL    HW224696   3.896   0.216   3.521
 4273SOL     OW24697   2.209   3.852   2.080
 4273SOL    HW124698   2.144   3.867   2.011
 4273SOL    HW224699   2.269   3.926   2.074
 4274SOL     OW24700   4.604   2.275   1.075
 4274SOL    HW124701   4.692   2.311   1.090
 4274SOL    HW224702   4.610   2.234   0.988
 4275SOL     OW24703   0.578   1.223   2.897
 4275SOL    HW124704   0.595   1.135   2.932
 4275SOL    HW224705   0.491   1.216   2.858
 4276SOL     OW24706   0.186   4.774   6.719
 4276SOL    HW124707   0.130   0.058   6.701
 4276SOL    HW224708   0.230   4.756   6.636
 4277SOL     OW24709   3.027   0.144   1.994
 4277SOL    HW124710   2.941   0.184   2.012
 4277SOL    HW224711   3.010   0.050   1.994
 4278SOL     OW24712   3.054   1.126   5.212
 4278SOL    HW124713   2.990   1.097   5.147
 4278SOL    HW224714   3.034   1.219   5.225
 4279SOL     OW24715   0.577   3.083  16.480
 4279SOL    HW124716   0.543   3.168  16.509
 4279SOL    HW224717   0.656   3.104  16.431
 4280SOL     OW24718   1.948   3.659   0.791
 4280SOL    HW124719   1.853   3.649   0.800
 4280SOL    HW224720   1.961   3.753   0.779
 4281SOL     OW24721   0.740   4.273  16.381
 4281SOL    HW124722   0.697   4.222  16.451
 4281SOL    HW224723   0.704   4.361  16.391
 4282SOL     OW24724   0.858   3.022  17.260
 4282SOL    HW124725   0.936   2.994  17.308
 4282SOL    HW224726   0.888   3.094  17.204
 4283SOL     OW24727   2.946   1.902  16.263
 4283SOL    HW124728   2.868   1.927  16.214
 4283SOL    HW224729   2.987   1.985  16.287
 4284SOL     OW24730   0.628   3.890  16.295
 4284SOL    HW124731   0.626   3.974  16.250
 4284SOL    HW224732   0.569   3.834  16.244
 4285SOL     OW24733   3.411   3.084  18.326
 4285SOL    HW124734   3.440   3.143  18.256
 4285SOL    HW224735   3.317   3.102  18.336
 4286SOL     OW24736   0.870   0.735  17.960
 4286SOL    HW124737   0.806   0.666  17.945
 4286SOL    HW224738   0.823   0.816  17.941
 4287SOL     OW24739   3.857   3.654   2.865
 4287SOL    HW124740   3.770   3.686   2.888
 4287SOL    HW224741   3.844   3.607   2.783
 4288SOL     OW24742   2.880   0.866   6.126
 4288SOL    HW124743   2.925   0.886   6.043
 4288SOL    HW224744   2.844   0.779   6.113
 4289SOL     OW24745   1.334   3.099   1.087
 4289SOL    HW124746   1.386   3.167   1.129
 4289SOL    HW224747   1.399   3.042   1.045
 4290SOL     OW24748   2.363   4.053   3.174
 4290SOL    HW124749   2.415   4.053   3.094
 4290SOL    HW224750   2.272   4.059   3.144
 4291SOL     OW24751   3.476   1.511   3.576
 4291SOL    HW124752   3.465   1.461   3.657
 4291SOL    HW224753   3.561   1.553   3.585
 4292SOL     OW24754   4.123   0.177   5.757
 4292SOL    HW124755   4.070   0.233   5.701
 4292SOL    HW224756   4.206   0.167   5.710
 4293SOL     OW24757   3.311   0.154  18.079
 4293SOL    HW124758   3.344   0.237  18.114
 4293SOL    HW224759   3.226   0.176  18.041
 4294SOL     OW24760   1.704   3.021  16.547
 4294SOL    HW124761   1.665   2.991  16.629
 4294SOL    HW224762   1.780   3.073  16.575
 4295SOL     OW24763   4.785   1.499  19.890
 4295SOL    HW124764   0.044   1.553  19.951
 4295SOL    HW224765   0.041   1.416  19.887
 4296SOL     OW24766   4.133   2.378  15.845
 4296SOL    HW124767   4.179   2.411  15.768
 4296SOL    HW224768   4.144   2.446  15.911
 4297SOL     OW24769   2.551   1.560  21.187
 4297SOL    HW124770   2.607   1.616  21.133
 4297SOL    HW224771   2.549   1.476  21.141
 4298SOL     OW24772   3.783   0.498  19.358
 4298SOL    HW124773   3.823   0.492  19.444
 4298SOL    HW224774   3.758   0.590  19.349
 4299SOL     OW24775   4.615   2.449   2.691
 4299SOL    HW124776   4.565   2.394   2.752
 4299SOL    HW224777   4.548   2.496   2.642
 4300SOL     OW24778   3.892   1.959   3.593
 4300SOL    HW124779   3.856   2.045   3.613
 4300SOL    HW224780   3.849   1.900   3.655
 4301SOL     OW24781   4.605   2.632   1.806
 4301SOL    HW124782   4.661   2.673   1.872
 4301SOL    HW224783   4.655   2.640   1.724
 4302SOL     OW24784   1.671   2.376  18.217
 4302SOL    HW124785   1.600   2.315  18.196
 4302SOL    HW224786   1.706   2.345  18.300
 4303SOL     OW24787   2.796   3.290   1.836
 4303SOL    HW124788   2.809   3.197   1.852
 4303SOL    HW224789   2.780   3.328   1.923
 4304SOL     OW24790   0.221   2.894  17.382
 4304SOL    HW124791   0.272   2.813  17.378
 4304SOL    HW224792   0.244   2.940  17.301
 4305SOL     OW24793   3.278   0.685  16.281
 4305SOL    HW124794   3.231   0.739  16.217
 4305SOL    HW224795   3.223   0.688  16.360
 4306SOL     OW24796   0.744   0.524   1.340
 4306SOL    HW124797   0.815   0.461   1.354
 4306SOL    HW224798   0.750   0.583   1.415
 4307SOL     OW24799   3.378   1.119   4.807
 4307SOL    HW124800   3.451   1.107   4.745
 4307SOL    HW224801   3.414   1.176   4.875
 4308SOL     OW24802   1.673   4.204  13.341
 4308SOL    HW124803   1.613   4.267  13.381
 4308SOL    HW224804   1.700   4.245  13.259
 4309SOL     OW24805   0.376   1.150   0.577
 4309SOL    HW124806   0.302   1.152   0.517
 4309SOL    HW224807   0.419   1.235   0.566
 4310SOL     OW24808   4.192   2.731   1.670
 4310SOL    HW124809   4.138   2.764   1.599
 4310SOL    HW224810   4.185   2.635   1.663
 4311SOL     OW24811   3.560   0.317   4.885
 4311SOL    HW124812   3.468   0.329   4.862
 4311SOL    HW224813   3.557   0.272   4.970
 4312SOL     OW24814   3.134   3.645   4.772
 4312SOL    HW124815   3.108   3.554   4.785
 4312SOL    HW224816   3.215   3.654   4.822
 4313SOL     OW24817   0.433   2.344  18.430
 4313SOL    HW124818   0.491   2.269  18.442
 4313SOL    HW224819   0.346   2.305  18.418
 4314SOL     OW24820   3.174   2.439   3.787
 4314SOL    HW124821   3.080   2.452   3.800
 4314SOL    HW224822   3.201   2.514   3.733
 4315SOL     OW24823   2.267   1.925  20.642
 4315SOL    HW124824   2.276   1.992  20.709
 4315SOL    HW224825   2.353   1.921  20.600
 4316SOL     OW24826   2.540   2.147  20.637
 4316SOL    HW124827   2.456   2.138  20.681
 4316SOL    HW224828   2.555   2.242  20.633
 4317SOL     OW24829   1.870   4.692  20.439
 4317SOL    HW124830   1.849   4.756  20.507
 4317SOL    HW224831   1.810   4.620  20.455
 4318SOL     OW24832   3.439   3.552  11.663
 4318SOL    HW124833   3.489   3.611  11.607
 4318SOL    HW224834   3.425   3.474  11.609
 4319SOL     OW24835   4.018   0.180   7.675
 4319SOL    HW124836   4.107   0.170   7.642
 4319SOL    HW224837   3.989   0.090   7.694
 4320SOL     OW24838   0.492   1.413  20.749
 4320SOL    HW124839   0.554   1.479  20.779
 4320SOL    HW224840   0.413   1.428  20.801
 4321SOL     OW24841   4.678   3.706   0.206
 4321SOL    HW124842   4.640   3.793   0.191
 4321SOL    HW224843   4.758   3.706   0.153
 4322SOL     OW24844   1.864   3.510  15.632
 4322SOL    HW124845   1.797   3.541  15.570
 4322SOL    HW224846   1.882   3.420  15.604
 4323SOL     OW24847   2.377   4.710   5.635
 4323SOL    HW124848   2.284   4.695   5.619
 4323SOL    HW224849   2.381   0.004   5.679
 4324SOL     OW24850   2.879   1.880  17.464
 4324SOL    HW124851   2.891   1.955  17.522
 4324SOL    HW224852   2.937   1.897  17.390
 4325SOL     OW24853   3.302   0.087   5.108
 4325SOL    HW124854   3.326   0.033   5.183
 4325SOL    HW224855   3.298   0.176   5.144
 4326SOL     OW24856   2.215   0.104   4.622
 4326SOL    HW124857   2.144   0.116   4.685
 4326SOL    HW224858   2.171   0.079   4.541
 4327SOL     OW24859   0.716   2.412  20.543
 4327SOL    HW124860   0.731   2.487  20.486
 4327SOL    HW224861   0.673   2.347  20.486
 4328SOL     OW24862   1.449   4.081  15.401
 4328SOL    HW124863   1.514   4.131  15.451
 4328SOL    HW224864   1.365   4.106  15.441
 4329SOL     OW24865   3.762   0.828  21.213
 4329SOL    HW124866   3.782   0.827  21.119
 4329SOL    HW224867   3.720   0.743  21.230
 4330SOL     OW24868   0.681   2.411   3.630
 4330SOL    HW124869   0.649   2.405   3.720
 4330SOL    HW224870   0.649   2.496   3.599
 4331SOL     OW24871   0.627   3.329   2.029
 4331SOL    HW124872   0.696   3.373   2.078
 4331SOL    HW224873   0.669   3.250   1.994
 4332SOL     OW24874   2.676   4.310   0.940
 4332SOL    HW124875   2.741   4.295   1.007
 4332SOL    HW224876   2.715   4.275   0.860
 4333SOL     OW24877   3.732   1.851  19.417
 4333SOL    HW124878   3.756   1.822  19.329
 4333SOL    HW224879   3.760   1.780  19.474
 4334SOL     OW24880   1.465   0.016   5.708
 4334SOL    HW124881   1.556   0.044   5.704
 4334SOL    HW224882   1.440   0.031   5.799
 4335SOL     OW24883   4.517   0.177   0.478
 4335SOL    HW124884   4.579   0.234   0.433
 4335SOL    HW224885   4.510   0.214   0.566
 4336SOL     OW24886   3.261   0.977  20.611
 4336SOL    HW124887   3.246   1.009  20.522
 4336SOL    HW224888   3.178   0.938  20.637
 4337SOL     OW24889   4.094   0.467  17.533
 4337SOL    HW124890   4.103   0.499  17.623
 4337SOL    HW224891   4.081   0.547  17.482
 4338SOL     OW24892   3.295   0.746  17.612
 4338SOL    HW124893   3.266   0.802  17.684
 4338SOL    HW224894   3.366   0.794  17.570
 4339SOL     OW24895   4.378   4.609  18.780
 4339SOL    HW124896   4.323   4.537  18.810
 4339SOL    HW224897   4.429   4.634  18.857
 4340SOL     OW24898   2.043   3.978  14.196
 4340SOL    HW124899   2.061   4.015  14.109
 4340SOL    HW224900   1.982   4.039  14.237
 4341SOL     OW24901   1.892   2.735   4.224
 4341SOL    HW124902   1.816   2.734   4.165
 4341SOL    HW224903   1.963   2.699   4.171
 4342SOL     OW24904   3.499   3.226   4.674
 4342SOL    HW124905   3.425   3.176   4.641
 4342SOL    HW224906   3.474   3.318   4.661
 4343SOL     OW24907   3.294   0.034  21.233
 4343SOL    HW124908   3.281   0.068  21.144
 4343SOL    HW224909   3.234   0.086   0.024
 4344SOL     OW24910   0.485   3.867  13.476
 4344SOL    HW124911   0.551   3.862  13.407
 4344SOL    HW224912   0.418   3.926  13.442
 4345SOL     OW24913   2.601   2.658   6.084
 4345SOL    HW124914   2.546   2.721   6.036
 4345SOL    HW224915   2.663   2.626   6.019
 4346SOL     OW24916   1.801   1.168   6.079
 4346SOL    HW124917   1.771   1.124   6.159
 4346SOL    HW224918   1.896   1.170   6.087
 4347SOL     OW24919   0.878   1.510   5.610
 4347SOL    HW124920   0.897   1.603   5.619
 4347SOL    HW224921   0.851   1.499   5.519
 4348SOL     OW24922   3.158   1.796   8.158
 4348SOL    HW124923   3.142   1.885   8.189
 4348SOL    HW224924   3.235   1.803   8.101
 4349SOL     OW24925   3.080   4.501   1.730
 4349SOL    HW124926   3.083   4.596   1.740
 4349SOL    HW224927   3.123   4.467   1.808
 4350SOL     OW24928   3.817   2.458   5.352
 4350SOL    HW124929   3.763   2.379   5.342
 4350SOL    HW224930   3.880   2.453   5.279
 4351SOL     OW24931   2.487   2.115  18.501
 4351SOL    HW124932   2.447   2.039  18.459
 4351SOL    HW224933   2.500   2.088  18.592
 4352SOL     OW24934   1.331   0.726  17.861
 4352SOL    HW124935   1.238   0.740  17.842
 4352SOL    HW224936   1.361   0.809  17.897
 4353SOL     OW24937   3.335   2.770  15.972
 4353SOL    HW124938   3.301   2.853  16.004
 4353SOL    HW224939   3.315   2.770  15.879
 4354SOL     OW24940   0.088   4.568  15.013
 4354SOL    HW124941   0.091   4.531  15.101
 4354SOL    HW224942   0.035   4.506  14.963
 4355SOL     OW24943   4.275   0.060   6.227
 4355SOL    HW124944   4.313   0.093   6.145
 4355SOL    HW224945   4.241   0.138   6.271
 4356SOL     OW24946   0.683   2.036   2.275
 4356SOL    HW124947   0.751   1.974   2.251
 4356SOL    HW224948   0.722   2.089   2.345
 4357SOL     OW24949   3.983   3.197   7.358
 4357SOL    HW124950   3.948   3.251   7.429
 4357SOL    HW224951   4.077   3.191   7.375
 4358SOL     OW24952   4.747   0.924  18.731
 4358SOL    HW124953   4.787   1.008  18.754
 4358SOL    HW224954   4.685   0.946  18.661
 4359SOL     OW24955   2.910   3.006   0.469
 4359SOL    HW124956   2.886   3.090   0.430
 4359SOL    HW224957   2.931   3.027   0.560
 4360SOL     OW24958   0.015   4.185  18.246
 4360SOL    HW124959   4.750   4.256  18.278
 4360SOL    HW224960   0.010   4.193  18.150
 4361SOL     OW24961   3.671   4.569  14.731
 4361SOL    HW124962   3.755   4.584  14.774
 4361SOL    HW224963   3.687   4.593  14.639
 4362SOL     OW24964   0.619   2.512   0.097
 4362SOL    HW124965   0.637   2.488   0.006
 4362SOL    HW224966   0.704   2.503   0.141
 4363SOL     OW24967   2.442   1.076  14.334
 4363SOL    HW124968   2.472   1.057  14.424
 4363SOL    HW224969   2.455   0.994  14.287
 4364SOL     OW24970   1.258   4.207  15.568
 4364SOL    HW124971   1.247   4.119  15.604
 4364SOL    HW224972   1.275   4.262  15.645
 4365SOL     OW24973   3.676   1.319   4.702
 4365SOL    HW124974   3.593   1.354   4.670
 4365SOL    HW224975   3.670   1.225   4.685
 4366SOL     OW24976   3.442   0.282   3.124
 4366SOL    HW124977   3.482   0.319   3.045
 4366SOL    HW224978   3.425   0.191   3.102
 4367SOL     OW24979   3.551   3.298   6.303
 4367SOL    HW124980   3.572   3.247   6.225
 4367SOL    HW224981   3.634   3.336   6.330
 4368SOL     OW24982   0.033   2.364  15.087
 4368SOL    HW124983   0.008   2.318  15.007
 4368SOL    HW224984   4.746   2.413  15.112
 4369SOL     OW24985   3.181   2.337   5.374
 4369SOL    HW124986   3.237   2.269   5.334
 4369SOL    HW224987   3.243   2.404   5.403
 4370SOL     OW24988   1.985   0.059  17.401
 4370SOL    HW124989   2.003   0.136  17.456
 4370SOL    HW224990   1.969   4.779  17.463
 4371SOL     OW24991   4.413   2.431   1.807
 4371SOL    HW124992   4.479   2.500   1.803
 4371SOL    HW224993   4.411   2.394   1.718
 4372SOL     OW24994   3.167   1.337   2.189
 4372SOL    HW124995   3.170   1.242   2.197
 4372SOL    HW224996   3.077   1.356   2.164
 4373SOL     OW24997   3.392   0.437   4.214
 4373SOL    HW124998   3.429   0.385   4.142
 4373SOL    HW224999   3.321   0.384   4.249
 4374SOL     OW25000   3.855   4.009  18.407
 4374SOL    HW125001   3.877   3.940  18.345
 4374SOL    HW225002   3.850   4.088  18.355
 4375SOL     OW25003   4.336   4.034  19.462
 4375SOL    HW125004   4.348   4.091  19.386
 4375SOL    HW225005   4.307   4.092  19.532
 4376SOL     OW25006   2.411   2.288  20.374
 4376SOL    HW125007   2.325   2.251  20.392
 4376SOL    HW225008   2.442   2.319  20.459
 4377SOL     OW25009   0.987   1.239   4.463
 4377SOL    HW125010   0.909   1.200   4.424
 4377SOL    HW225011   1.055   1.230   4.395
 4378SOL     OW25012   2.433   3.857  21.219
 4378SOL    HW125013   2.379   3.778  21.220
 4378SOL    HW225014   2.441   3.881  21.127
 4379SOL     OW25015   4.029   2.803  17.087
 4379SOL    HW125016   4.006   2.891  17.116
 4379SOL    HW225017   4.068   2.816  17.000
 4380SOL     OW25018   0.972   2.785  21.031
 4380SOL    HW125019   0.906   2.820  21.091
 4380SOL    HW225020   1.043   2.754  21.087
 4381SOL     OW25021   0.743   0.847  16.852
 4381SOL    HW125022   0.747   0.807  16.766
 4381SOL    HW225023   0.794   0.928  16.844
 4382SOL     OW25024   2.287   1.207  15.736
 4382SOL    HW125025   2.234   1.183  15.812
 4382SOL    HW225026   2.224   1.233  15.669
 4383SOL     OW25027   2.399   3.516   4.123
 4383SOL    HW125028   2.351   3.448   4.171
 4383SOL    HW225029   2.366   3.598   4.158
 4384SOL     OW25030   2.962   0.566   4.955
 4384SOL    HW125031   2.924   0.516   5.027
 4384SOL    HW225032   3.051   0.531   4.946
 4385SOL     OW25033   1.843   4.042   5.500
 4385SOL    HW125034   1.776   4.002   5.556
 4385SOL    HW225035   1.873   3.970   5.443
 4386SOL     OW25036   3.694   0.909  17.333
 4386SOL    HW125037   3.729   0.849  17.400
 4386SOL    HW225038   3.700   0.860  17.251
 4387SOL     OW25039   2.766   2.177  17.484
 4387SOL    HW125040   2.723   2.139  17.408
 4387SOL    HW225041   2.694   2.197  17.544
 4388SOL     OW25042   0.664   4.351   3.399
 4388SOL    HW125043   0.714   4.293   3.457
 4388SOL    HW225044   0.616   4.291   3.342
 4389SOL     OW25045   0.239   4.309  20.552
 4389SOL    HW125046   0.149   4.337  20.571
 4389SOL    HW225047   0.287   4.327  20.633
 4390SOL     OW25048   0.994   1.256   3.078
 4390SOL    HW125049   0.920   1.314   3.062
 4390SOL    HW225050   0.957   1.181   3.125
 4391SOL     OW25051   0.972   3.558   1.397
 4391SOL    HW125052   0.907   3.490   1.378
 4391SOL    HW225053   1.056   3.511   1.399
 4392SOL     OW25054   3.669   3.710  17.851
 4392SOL    HW125055   3.617   3.770  17.797
 4392SOL    HW225056   3.630   3.714  17.937
 4393SOL     OW25057   0.765   3.998   4.299
 4393SOL    HW125058   0.772   3.927   4.362
 4393SOL    HW225059   0.670   4.011   4.288
 4394SOL     OW25060   2.078   4.671  17.148
 4394SOL    HW125061   2.020   4.708  17.214
 4394SOL    HW225062   2.062   4.723  17.070
 4395SOL     OW25063   4.495   2.011  21.196
 4395SOL    HW125064   4.559   2.066  21.150
 4395SOL    HW225065   4.498   1.927  21.150
 4396SOL     OW25066   1.490   2.053   2.041
 4396SOL    HW125067   1.459   2.038   2.130
 4396SOL    HW225068   1.578   2.014   2.040
 4397SOL     OW25069   1.360   0.952  13.762
 4397SOL    HW125070   1.419   0.998  13.702
 4397SOL    HW225071   1.308   1.021  13.802
 4398SOL     OW25072   0.921   1.045  16.666
 4398SOL    HW125073   0.911   0.998  16.584
 4398SOL    HW225074   0.860   1.119  16.659
 4399SOL     OW25075   1.376   2.677   1.140
 4399SOL    HW125076   1.464   2.715   1.137
 4399SOL    HW225077   1.389   2.585   1.119
 4400SOL     OW25078   2.026   4.545  19.087
 4400SOL    HW125079   2.053   4.595  19.010
 4400SOL    HW225080   1.993   4.462  19.052
 4401SOL     OW25081   2.397   4.416   3.906
 4401SOL    HW125082   2.423   4.326   3.886
 4401SOL    HW225083   2.459   4.444   3.974
 4402SOL     OW25084   1.941   1.295  16.688
 4402SOL    HW125085   1.938   1.200  16.672
 4402SOL    HW225086   2.034   1.317  16.684
 4403SOL     OW25087   4.078   4.514  13.461
 4403SOL    HW125088   4.152   4.575  13.457
 4403SOL    HW225089   4.107   4.438  13.409
 4404SOL     OW25090   1.059   3.781  17.768
 4404SOL    HW125091   1.140   3.811  17.727
 4404SOL    HW225092   1.080   3.779  17.862
 4405SOL     OW25093   0.770   2.501   3.157
 4405SOL    HW125094   0.833   2.528   3.090
 4405SOL    HW225095   0.803   2.418   3.189
 4406SOL     OW25096   2.907   3.250  14.476
 4406SOL    HW125097   2.844   3.191  14.516
 4406SOL    HW225098   2.990   3.231  14.520
 4407SOL     OW25099   1.419   0.609   1.760
 4407SOL    HW125100   1.514   0.604   1.751
 4407SOL    HW225101   1.399   0.556   1.836
 4408SOL     OW25102   4.753   0.702   2.773
 4408SOL    HW125103   4.767   0.754   2.852
 4408SOL    HW225104   4.779   0.760   2.701
 4409SOL     OW25105   0.434   4.208   5.097
 4409SOL    HW125106   0.383   4.245   5.169
 4409SOL    HW225107   0.404   4.117   5.090
 4410SOL     OW25108   1.967   1.518   0.691
 4410SOL    HW125109   1.884   1.543   0.730
 4410SOL    HW225110   1.997   1.443   0.742
 4411SOL     OW25111   3.294   4.579   4.196
 4411SOL    HW125112   3.365   4.518   4.175
 4411SOL    HW225113   3.338   4.663   4.212
 4412SOL     OW25114   3.844   1.612  16.425
 4412SOL    HW125115   3.792   1.689  16.450
 4412SOL    HW225116   3.896   1.592  16.503
 4413SOL     OW25117   3.308   4.513  20.566
 4413SOL    HW125118   3.275   4.537  20.652
 4413SOL    HW225119   3.233   4.523  20.508
 4414SOL     OW25120   4.196   0.551   1.057
 4414SOL    HW125121   4.262   0.522   0.995
 4414SOL    HW225122   4.223   0.641   1.080
 4415SOL     OW25123   3.263   2.159  14.963
 4415SOL    HW125124   3.299   2.216  15.031
 4415SOL    HW225125   3.266   2.071  15.002
 4416SOL     OW25126   2.657   0.938  18.120
 4416SOL    HW125127   2.638   0.892  18.201
 4416SOL    HW225128   2.641   1.030  18.140
 4417SOL     OW25129   2.117   1.063  17.730
 4417SOL    HW125130   2.127   1.089  17.638
 4417SOL    HW225131   2.129   1.144  17.779
 4418SOL     OW25132   1.257   4.759   3.737
 4418SOL    HW125133   1.323   0.016   3.787
 4418SOL    HW225134   1.302   4.679   3.709
 4419SOL     OW25135   2.979   4.121  18.214
 4419SOL    HW125136   3.015   4.032  18.220
 4419SOL    HW225137   2.888   4.108  18.190
 4420SOL     OW25138   4.496   0.593   4.155
 4420SOL    HW125139   4.468   0.685   4.153
 4420SOL    HW225140   4.424   0.547   4.199
 4421SOL     OW25141   3.442   0.895   1.628
 4421SOL    HW125142   3.386   0.944   1.568
 4421SOL    HW225143   3.495   0.839   1.572
 4422SOL     OW25144   2.982   3.155  15.933
 4422SOL    HW125145   2.886   3.159  15.937
 4422SOL    HW225146   3.007   3.234  15.884
 4423SOL     OW25147   3.749   2.546  19.321
 4423SOL    HW125148   3.730   2.640  19.326
 4423SOL    HW225149   3.699   2.508  19.393
 4424SOL     OW25150   4.394   0.855   4.251
 4424SOL    HW125151   4.338   0.899   4.187
 4424SOL    HW225152   4.402   0.919   4.322
 4425SOL     OW25153   1.602   1.656   6.019
 4425SOL    HW125154   1.622   1.647   5.926
 4425SOL    HW225155   1.512   1.625   6.027
 4426SOL     OW25156   4.063   3.983   0.393
 4426SOL    HW125157   4.099   4.009   0.309
 4426SOL    HW225158   3.989   3.926   0.372
 4427SOL     OW25159   0.324   0.894   1.239
 4427SOL    HW125160   0.349   0.955   1.170
 4427SOL    HW225161   0.390   0.906   1.307
 4428SOL     OW25162   3.845   4.661  17.376
 4428SOL    HW125163   3.836   4.710  17.295
 4428SOL    HW225164   3.928   4.614  17.367
 4429SOL     OW25165   3.822   1.192   7.001
 4429SOL    HW125166   3.909   1.154   7.015
 4429SOL    HW225167   3.840   1.281   6.970
 4430SOL     OW25168   1.079   3.793  20.645
 4430SOL    HW125169   1.044   3.777  20.733
 4430SOL    HW225170   1.089   3.888  20.640
 4431SOL     OW25171   0.338   0.785   0.792
 4431SOL    HW125172   0.408   0.744   0.742
 4431SOL    HW225173   0.316   0.722   0.860
 4432SOL     OW25174   2.443   3.022  17.018
 4432SOL    HW125175   2.421   3.069  16.937
 4432SOL    HW225176   2.448   2.930  16.991
 4433SOL     OW25177   3.679   1.623   4.751
 4433SOL    HW125178   3.685   1.531   4.726
 4433SOL    HW225179   3.586   1.643   4.747
 4434SOL     OW25180   3.829   3.622  19.968
 4434SOL    HW125181   3.919   3.643  19.993
 4434SOL    HW225182   3.816   3.666  19.884
 4435SOL     OW25183   3.875   2.065   1.906
 4435SOL    HW125184   3.836   2.108   1.831
 4435SOL    HW225185   3.908   2.136   1.961
 4436SOL     OW25186   3.474   1.287  13.920
 4436SOL    HW125187   3.514   1.365  13.959
 4436SOL    HW225188   3.508   1.214  13.973
 4437SOL     OW25189   1.285   0.104  17.982
 4437SOL    HW125190   1.298   0.101  18.077
 4437SOL    HW225191   1.369   0.135  17.948
 4438SOL     OW25192   4.145   1.420   0.587
 4438SOL    HW125193   4.089   1.478   0.535
 4438SOL    HW225194   4.172   1.351   0.526
 4439SOL     OW25195   0.876   4.151   3.672
 4439SOL    HW125196   0.939   4.079   3.678
 4439SOL    HW225197   0.791   4.110   3.688
 4440SOL     OW25198   3.970   1.644  17.874
 4440SOL    HW125199   3.936   1.555  17.882
 4440SOL    HW225200   4.032   1.640  17.801
 4441SOL     OW25201   4.751   0.889   4.101
 4441SOL    HW125202   4.731   0.803   4.062
 4441SOL    HW225203   4.778   0.943   4.027
 4442SOL     OW25204   1.258   1.596   5.753
 4442SOL    HW125205   1.307   1.581   5.834
 4442SOL    HW225206   1.177   1.547   5.765
 4443SOL     OW25207   2.365   1.216   1.889
 4443SOL    HW125208   2.371   1.179   1.976
 4443SOL    HW225209   2.409   1.301   1.896
 4444SOL     OW25210   2.424   3.236  21.069
 4444SOL    HW125211   2.458   3.195  20.990
 4444SOL    HW225212   2.453   3.179  21.140
 4445SOL     OW25213   3.988   1.072   1.209
 4445SOL    HW125214   3.915   1.127   1.183
 4445SOL    HW225215   4.037   1.057   1.128
 4446SOL     OW25216   3.481   1.233   3.608
 4446SOL    HW125217   3.535   1.209   3.532
 4446SOL    HW225218   3.393   1.243   3.573
 4447SOL     OW25219   4.786   3.260   4.465
 4447SOL    HW125220   0.022   3.344   4.430
 4447SOL    HW225221   4.769   3.277   4.558
 4448SOL     OW25222   0.026   1.543  19.275
 4448SOL    HW125223   0.117   1.556  19.304
 4448SOL    HW225224   4.764   1.587  19.341
 4449SOL     OW25225   2.126   1.125   5.761
 4449SOL    HW125226   2.034   1.149   5.774
 4449SOL    HW225227   2.168   1.207   5.734
 4450SOL     OW25228   1.635   2.203   2.957
 4450SOL    HW125229   1.651   2.179   3.048
 4450SOL    HW225230   1.549   2.166   2.937
 4451SOL     OW25231   3.539   0.674  17.103
 4451SOL    HW125232   3.483   0.749  17.121
 4451SOL    HW225233   3.628   0.710  17.102
 4452SOL     OW25234   2.744   1.580  18.176
 4452SOL    HW125235   2.782   1.611  18.094
 4452SOL    HW225236   2.817   1.536  18.221
 4453SOL     OW25237   4.337   2.712  18.765
 4453SOL    HW125238   4.277   2.680  18.697
 4453SOL    HW225239   4.318   2.656  18.841
 4454SOL     OW25240   3.960   0.002  18.832
 4454SOL    HW125241   4.052   4.769  18.834
 4454SOL    HW225242   3.956   0.080  18.776
 4455SOL     OW25243   0.741   3.574  21.249
 4455SOL    HW125244   0.804   3.515  21.209
 4455SOL    HW225245   0.664   3.569  21.193
 4456SOL     OW25246   0.414   2.628   6.640
 4456SOL    HW125247   0.503   2.660   6.655
 4456SOL    HW225248   0.419   2.581   6.557
 4457SOL     OW25249   1.383   0.176  19.781
 4457SOL    HW125250   1.354   0.162  19.691
 4457SOL    HW225251   1.401   0.088  19.814
 4458SOL     OW25252   1.273   1.252  18.979
 4458SOL    HW125253   1.226   1.272  19.060
 4458SOL    HW225254   1.365   1.253  19.004
 4459SOL     OW25255   2.369   3.779  17.847
 4459SOL    HW125256   2.308   3.852  17.855
 4459SOL    HW225257   2.315   3.701  17.857
 4460SOL     OW25258   2.112   3.281   1.358
 4460SOL    HW125259   2.047   3.210   1.361
 4460SOL    HW225260   2.108   3.320   1.446
 4461SOL     OW25261   2.871   1.197   0.766
 4461SOL    HW125262   2.862   1.112   0.724
 4461SOL    HW225263   2.866   1.260   0.694
 4462SOL     OW25264   3.251   1.147   1.802
 4462SOL    HW125265   3.333   1.161   1.754
 4462SOL    HW225266   3.184   1.187   1.746
 4463SOL     OW25267   1.513   1.832  20.932
 4463SOL    HW125268   1.486   1.749  20.970
 4463SOL    HW225269   1.585   1.862  20.987
 4464SOL     OW25270   3.456   2.979   6.933
 4464SOL    HW125271   3.461   3.013   7.022
 4464SOL    HW225272   3.546   2.988   6.899
 4465SOL     OW25273   1.633   0.021   3.142
 4465SOL    HW125274   1.574   0.085   3.104
 4465SOL    HW225275   1.607   4.729   3.103
 4466SOL     OW25276   3.224   3.514   5.952
 4466SOL    HW125277   3.185   3.427   5.950
 4466SOL    HW225278   3.151   3.573   5.971
 4467SOL     OW25279   2.809   1.890   3.082
 4467SOL    HW125280   2.879   1.836   3.119
 4467SOL    HW225281   2.806   1.865   2.990
 4468SOL     OW25282   1.334   1.868  17.905
 4468SOL    HW125283   1.430   1.863  17.908
 4468SOL    HW225284   1.314   1.908  17.821
 4469SOL     OW25285   1.248   1.537  20.774
 4469SOL    HW125286   1.152   1.532  20.772
 4469SOL    HW225287   1.276   1.453  20.809
 4470SOL     OW25288   1.721   0.401   4.451
 4470SOL    HW125289   1.655   0.425   4.385
 4470SOL    HW225290   1.692   0.445   4.531
 4471SOL     OW25291   0.319   0.327  16.462
 4471SOL    HW125292   0.406   0.328  16.502
 4471SOL    HW225293   0.331   0.283  16.378
 4472SOL     OW25294   0.871   3.692   5.848
 4472SOL    HW125295   0.834   3.701   5.935
 4472SOL    HW225296   0.832   3.763   5.797
 4473SOL     OW25297   0.285   2.171   0.403
 4473SOL    HW125298   0.336   2.235   0.453
 4473SOL    HW225299   0.262   2.103   0.467
 4474SOL     OW25300   1.725   1.049  15.159
 4474SOL    HW125301   1.714   1.071  15.067
 4474SOL    HW225302   1.680   1.119  15.207
 4475SOL     OW25303   4.110   1.264  20.058
 4475SOL    HW125304   4.159   1.276  19.977
 4475SOL    HW225305   4.176   1.264  20.127
 4476SOL     OW25306   3.131   0.642   3.868
 4476SOL    HW125307   3.167   0.692   3.793
 4476SOL    HW225308   3.088   0.567   3.828
 4477SOL     OW25309   2.840   1.755  20.548
 4477SOL    HW125310   2.934   1.766  20.539
 4477SOL    HW225311   2.829   1.693  20.620
 4478SOL     OW25312   4.192   1.941  15.593
 4478SOL    HW125313   4.220   1.995  15.519
 4478SOL    HW225314   4.100   1.966  15.607
 4479SOL     OW25315   2.807   0.547  18.753
 4479SOL    HW125316   2.896   0.546  18.789
 4479SOL    HW225317   2.767   0.466  18.785
 4480SOL     OW25318   1.500   3.000   5.454
 4480SOL    HW125319   1.426   2.975   5.508
 4480SOL    HW225320   1.477   3.086   5.419
 4481SOL     OW25321   0.446   1.574  21.062
 4481SOL    HW125322   0.418   1.625  21.138
 4481SOL    HW225323   0.538   1.553  21.079
 4482SOL     OW25324   2.921   4.322   1.108
 4482SOL    HW125325   2.899   4.232   1.082
 4482SOL    HW225326   3.007   4.313   1.150
 4483SOL     OW25327   1.594   4.700  17.560
 4483SOL    HW125328   1.622   4.675  17.472
 4483SOL    HW225329   1.593   0.005  17.558
 4484SOL     OW25330   3.263   2.671   6.438
 4484SOL    HW125331   3.173   2.654   6.411
 4484SOL    HW225332   3.304   2.584   6.442
 4485SOL     OW25333   4.082   0.924  19.951
 4485SOL    HW125334   4.006   0.868  19.938
 4485SOL    HW225335   4.070   0.997  19.890
 4486SOL     OW25336   0.087   2.463   4.625
 4486SOL    HW125337   0.028   2.522   4.578
 4486SOL    HW225338   0.128   2.411   4.556
 4487SOL     OW25339   1.327   3.781   3.890
 4487SOL    HW125340   1.297   3.870   3.909
 4487SOL    HW225341   1.421   3.783   3.908
 4488SOL     OW25342   3.469   3.688  18.541
 4488SOL    HW125343   3.488   3.707  18.633
 4488SOL    HW225344   3.492   3.769  18.494
 4489SOL     OW25345   3.216   3.454   1.283
 4489SOL    HW125346   3.215   3.419   1.373
 4489SOL    HW225347   3.293   3.512   1.282
 4490SOL     OW25348   1.739   0.318   4.895
 4490SOL    HW125349   1.760   0.264   4.972
 4490SOL    HW225350   1.650   0.350   4.912
 4491SOL     OW25351   3.677   2.518  20.071
 4491SOL    HW125352   3.655   2.521  19.978
 4491SOL    HW225353   3.653   2.604  20.105
 4492SOL     OW25354   1.794   0.861  17.473
 4492SOL    HW125355   1.787   0.851  17.568
 4492SOL    HW225356   1.770   0.953  17.457
 4493SOL     OW25357   0.197   1.290   6.712
 4493SOL    HW125358   0.276   1.339   6.688
 4493SOL    HW225359   0.207   1.275   6.806
 4494SOL     OW25360   0.979   2.547   3.637
 4494SOL    HW125361   0.966   2.510   3.550
 4494SOL    HW225362   0.932   2.488   3.696
 4495SOL     OW25363   2.554   0.041   0.245
 4495SOL    HW125364   2.546   4.737   0.250
 4495SOL    HW225365   2.647   0.058   0.254
 4496SOL     OW25366   4.045   2.726  21.089
 4496SOL    HW125367   3.974   2.747  21.028
 4496SOL    HW225368   4.108   2.798  21.079
 4497SOL     OW25369   1.870   0.566   3.252
 4497SOL    HW125370   1.896   0.640   3.307
 4497SOL    HW225371   1.803   0.520   3.303
 4498SOL     OW25372   2.248   2.998   5.131
 4498SOL    HW125373   2.311   3.046   5.078
 4498SOL    HW225374   2.179   2.973   5.069
 4499SOL     OW25375   3.171   1.775   0.492
 4499SOL    HW125376   3.157   1.803   0.402
 4499SOL    HW225377   3.088   1.795   0.536
 4500SOL     OW25378   4.751   3.551   6.968
 4500SOL    HW125379   4.668   3.578   6.929
 4500SOL    HW225380   4.791   3.632   6.999
 4501SOL     OW25381   4.748   2.072  18.302
 4501SOL    HW125382   4.737   2.000  18.364
 4501SOL    HW225383   4.707   2.042  18.221
 4502SOL     OW25384   1.205   2.345   3.235
 4502SOL    HW125385   1.271   2.305   3.291
 4502SOL    HW225386   1.250   2.419   3.193
 4503SOL     OW25387   4.419   0.727  20.261
 4503SOL    HW125388   4.456   0.717  20.348
 4503SOL    HW225389   4.401   0.821  20.253
 4504SOL     OW25390   3.300   3.176   2.445
 4504SOL    HW125391   3.278   3.107   2.508
 4504SOL    HW225392   3.228   3.175   2.383
 4505SOL     OW25393   0.848   2.928  17.538
 4505SOL    HW125394   0.828   2.909  17.630
 4505SOL    HW225395   0.940   2.955  17.539
 4506SOL     OW25396   4.244   2.500  17.271
 4506SOL    HW125397   4.261   2.520  17.179
 4506SOL    HW225398   4.215   2.409  17.271
 4507SOL     OW25399   1.566   1.869   5.499
 4507SOL    HW125400   1.485   1.920   5.497
 4507SOL    HW225401   1.537   1.780   5.517
 4508SOL     OW25402   2.425   2.456  17.735
 4508SOL    HW125403   2.480   2.461  17.657
 4508SOL    HW225404   2.346   2.411  17.705
 4509SOL     OW25405   3.710   1.497   5.846
 4509SOL    HW125406   3.706   1.405   5.872
 4509SOL    HW225407   3.802   1.512   5.823
 4510SOL     OW25408   2.350   2.319  14.208
 4510SOL    HW125409   2.327   2.325  14.301
 4510SOL    HW225410   2.411   2.246  14.203
 4511SOL     OW25411   0.290   2.117   0.127
 4511SOL    HW125412   0.283   2.128   0.222
 4511SOL    HW225413   0.227   2.180   0.091
 4512SOL     OW25414   3.776   4.310   6.310
 4512SOL    HW125415   3.686   4.279   6.319
 4512SOL    HW225416   3.819   4.244   6.254
 4513SOL     OW25417   2.887   4.269  17.357
 4513SOL    HW125418   2.943   4.289  17.432
 4513SOL    HW225419   2.925   4.319  17.285
 4514SOL     OW25420   0.984   3.524  16.478
 4514SOL    HW125421   0.900   3.547  16.438
 4514SOL    HW225422   0.961   3.473  16.556
 4515SOL     OW25423   3.043   3.338  14.749
 4515SOL    HW125424   3.116   3.334  14.687
 4515SOL    HW225425   3.058   3.419  14.798
 4516SOL     OW25426   0.350   4.446   7.525
 4516SOL    HW125427   0.288   4.382   7.559
 4516SOL    HW225428   0.417   4.453   7.592
 4517SOL     OW25429   3.117   0.856  15.310
 4517SOL    HW125430   3.159   0.903  15.381
 4517SOL    HW225431   3.145   0.766  15.320
 4518SOL     OW25432   0.838   0.101   5.358
 4518SOL    HW125433   0.802   0.028   5.306
 4518SOL    HW225434   0.844   0.066   5.447
 4519SOL     OW25435   1.414   4.180   4.361
 4519SOL    HW125436   1.508   4.201   4.354
 4519SOL    HW225437   1.386   4.223   4.441
 4520SOL     OW25438   2.624   1.539  15.990
 4520SOL    HW125439   2.631   1.588  16.072
 4520SOL    HW225440   2.576   1.598  15.931
 4521SOL     OW25441   4.397   0.967   0.530
 4521SOL    HW125442   4.412   1.060   0.545
 4521SOL    HW225443   4.326   0.963   0.467
 4522SOL     OW25444   0.984   1.194  19.679
 4522SOL    HW125445   0.999   1.107  19.717
 4522SOL    HW225446   0.951   1.246  19.751
 4523SOL     OW25447   1.982   4.088   4.643
 4523SOL    HW125448   1.913   4.149   4.669
 4523SOL    HW225449   1.936   4.012   4.610
 4524SOL     OW25450   3.263   2.742   5.404
 4524SOL    HW125451   3.313   2.661   5.403
 4524SOL    HW225452   3.318   2.805   5.358
 4525SOL     OW25453   1.931   2.303   3.417
 4525SOL    HW125454   1.879   2.383   3.416
 4525SOL    HW225455   1.895   2.251   3.489
 4526SOL     OW25456   4.584   4.515  20.092
 4526SOL    HW125457   4.656   4.578  20.088
 4526SOL    HW225458   4.607   4.458  20.165
 4527SOL     OW25459   1.506   0.986   2.363
 4527SOL    HW125460   1.540   0.902   2.332
 4527SOL    HW225461   1.435   0.963   2.422
 4528SOL     OW25462   3.362   3.625  12.170
 4528SOL    HW125463   3.352   3.648  12.077
 4528SOL    HW225464   3.454   3.602  12.179
 4529SOL     OW25465   0.282   0.568  19.763
 4529SOL    HW125466   0.376   0.577  19.745
 4529SOL    HW225467   0.268   0.619  19.842
 4530SOL     OW25468   4.094   4.354   5.045
 4530SOL    HW125469   4.042   4.346   4.965
 4530SOL    HW225470   4.183   4.330   5.018
 4531SOL     OW25471   4.562   3.462   1.627
 4531SOL    HW125472   4.517   3.381   1.652
 4531SOL    HW225473   4.531   3.481   1.539
 4532SOL     OW25474   1.510   0.556   6.162
 4532SOL    HW125475   1.586   0.520   6.117
 4532SOL    HW225476   1.527   0.650   6.168
 4533SOL     OW25477   2.295   1.282   4.506
 4533SOL    HW125478   2.298   1.360   4.560
 4533SOL    HW225479   2.216   1.292   4.453
 4534SOL     OW25480   4.465   1.011  18.649
 4534SOL    HW125481   4.373   1.031  18.630
 4534SOL    HW225482   4.463   0.920  18.679
 4535SOL     OW25483   1.331   1.412  15.635
 4535SOL    HW125484   1.371   1.420  15.722
 4535SOL    HW225485   1.381   1.343  15.592
 4536SOL     OW25486   0.309   2.461   2.829
 4536SOL    HW125487   0.216   2.442   2.828
 4536SOL    HW225488   0.317   2.547   2.787
 4537SOL     OW25489   2.796   3.511  14.466
 4537SOL    HW125490   2.839   3.426  14.463
 4537SOL    HW225491   2.740   3.508  14.543
 4538SOL     OW25492   0.447   3.982   6.329
 4538SOL    HW125493   0.528   3.932   6.324
 4538SOL    HW225494   0.475   4.071   6.351
 4539SOL     OW25495   4.731   1.194  20.137
 4539SOL    HW125496   4.753   1.217  20.227
 4539SOL    HW225497   4.636   1.205  20.132
 4540SOL     OW25498   3.883   3.202   4.939
 4540SOL    HW125499   3.859   3.276   4.994
 4540SOL    HW225500   3.873   3.234   4.849
 4541SOL     OW25501   1.837   4.311  18.803
 4541SOL    HW125502   1.804   4.257  18.732
 4541SOL    HW225503   1.854   4.250  18.874
 4542SOL     OW25504   3.812   4.382  14.240
 4542SOL    HW125505   3.877   4.431  14.190
 4542SOL    HW225506   3.728   4.408  14.201
 4543SOL     OW25507   1.042   0.603   0.853
 4543SOL    HW125508   1.003   0.519   0.830
 4543SOL    HW225509   1.054   0.598   0.948
 4544SOL     OW25510   2.682   0.557  16.674
 4544SOL    HW125511   2.593   0.532  16.700
 4544SOL    HW225512   2.739   0.503  16.728
 4545SOL     OW25513   0.488   3.356  18.418
 4545SOL    HW125514   0.490   3.280  18.477
 4545SOL    HW225515   0.418   3.411  18.453
 4546SOL     OW25516   4.406   1.590   5.467
 4546SOL    HW125517   4.321   1.623   5.440
 4546SOL    HW225518   4.430   1.643   5.543
 4547SOL     OW25519   4.180   0.218  16.910
 4547SOL    HW125520   4.250   0.153  16.905
 4547SOL    HW225521   4.191   0.271  16.832
 4548SOL     OW25522   2.734   0.471   1.565
 4548SOL    HW125523   2.725   0.389   1.517
 4548SOL    HW225524   2.799   0.521   1.515
 4549SOL     OW25525   1.063   0.001  18.612
 4549SOL    HW125526   1.041   0.062  18.682
 4549SOL    HW225527   1.058   4.706  18.653
 4550SOL     OW25528   1.203   4.610  13.507
 4550SOL    HW125529   1.266   4.682  13.502
 4550SOL    HW225530   1.249   4.536  13.467
 4551SOL     OW25531   4.737   0.674  16.502
 4551SOL    HW125532   0.024   0.617  16.505
 4551SOL    HW225533   4.729   0.707  16.591
 4552SOL     OW25534   4.082   1.203   7.003
 4552SOL    HW125535   4.165   1.181   7.046
 4552SOL    HW225536   4.096   1.292   6.969
 4553SOL     OW25537   0.963   0.275  16.683
 4553SOL    HW125538   0.896   0.323  16.733
 4553SOL    HW225539   0.914   0.228  16.616
 4554SOL     OW25540   3.286   4.440  20.955
 4554SOL    HW125541   3.271   4.454  21.049
 4554SOL    HW225542   3.217   4.491  20.912
 4555SOL     OW25543   3.707   0.256  15.523
 4555SOL    HW125544   3.634   0.318  15.530
 4555SOL    HW225545   3.785   0.309  15.538
 4556SOL     OW25546   1.109   0.898  20.237
 4556SOL    HW125547   1.200   0.872  20.221
 4556SOL    HW225548   1.083   0.943  20.157
 4557SOL     OW25549   2.967   4.124  15.994
 4557SOL    HW125550   2.883   4.132  16.040
 4557SOL    HW225551   3.029   4.171  16.050
 4558SOL     OW25552   0.821   4.501  17.145
 4558SOL    HW125553   0.911   4.521  17.172
 4558SOL    HW225554   0.785   4.451  17.219
 4559SOL     OW25555   0.284   3.935   0.121
 4559SOL    HW125556   0.365   3.976   0.091
 4559SOL    HW225557   0.292   3.934   0.217
 4560SOL     OW25558   3.924   0.407   8.449
 4560SOL    HW125559   3.942   0.338   8.512
 4560SOL    HW225560   3.877   0.363   8.378
 4561SOL     OW25561   2.289   1.335   5.202
 4561SOL    HW125562   2.250   1.422   5.199
 4561SOL    HW225563   2.233   1.281   5.146
 4562SOL     OW25564   1.037   2.558   3.308
 4562SOL    HW125565   1.082   2.475   3.317
 4562SOL    HW225566   0.984   2.549   3.228
 4563SOL     OW25567   2.823   1.061   5.066
 4563SOL    HW125568   2.759   1.059   5.138
 4563SOL    HW225569   2.817   1.150   5.032
 4564SOL     OW25570   0.042   2.903   1.463
 4564SOL    HW125571   4.786   2.826   1.495
 4564SOL    HW225572   4.786   2.927   1.383
 4565SOL     OW25573   2.738   1.305  18.896
 4565SOL    HW125574   2.670   1.290  18.831
 4565SOL    HW225575   2.694   1.352  18.967
 4566SOL     OW25576   2.988   0.760   3.633
 4566SOL    HW125577   2.982   0.732   3.541
 4566SOL    HW225578   2.955   0.685   3.682
 4567SOL     OW25579   2.216   3.795  20.704
 4567SOL    HW125580   2.298   3.762  20.666
 4567SOL    HW225581   2.157   3.805  20.629
 4568SOL     OW25582   2.924   4.023  15.419
 4568SOL    HW125583   3.008   3.985  15.393
 4568SOL    HW225584   2.904   3.983  15.503
 4569SOL     OW25585   1.685   3.518   4.155
 4569SOL    HW125586   1.737   3.485   4.229
 4569SOL    HW225587   1.739   3.498   4.078
 4570SOL     OW25588   2.753   0.361   4.543
 4570SOL    HW125589   2.839   0.387   4.574
 4570SOL    HW225590   2.706   0.332   4.621
 4571SOL     OW25591   0.890   2.966  20.628
 4571SOL    HW125592   0.948   3.008  20.565
 4571SOL    HW225593   0.882   3.030  20.699
 4572SOL     OW25594   3.695   3.695   5.178
 4572SOL    HW125595   3.783   3.733   5.186
 4572SOL    HW225596   3.699   3.616   5.233
 4573SOL     OW25597   1.264   3.319   5.747
 4573SOL    HW125598   1.342   3.367   5.719
 4573SOL    HW225599   1.207   3.387   5.785
 4574SOL     OW25600   4.086   1.778  21.169
 4574SOL    HW125601   4.021   1.776  21.240
 4574SOL    HW225602   4.140   1.700  21.184
 4575SOL     OW25603   0.266   1.607  19.084
 4575SOL    HW125604   0.242   1.668  19.153
 4575SOL    HW225605   0.229   1.645  19.004
 4576SOL     OW25606   2.183   3.161   3.897
 4576SOL    HW125607   2.100   3.117   3.878
 4576SOL    HW225608   2.206   3.131   3.985
 4577SOL     OW25609   2.747   3.348  16.324
 4577SOL    HW125610   2.794   3.400  16.259
 4577SOL    HW225611   2.669   3.317  16.278
 4578SOL     OW25612   2.957   2.617  13.659
 4578SOL    HW125613   2.922   2.587  13.575
 4578SOL    HW225614   3.040   2.659  13.636
 4579SOL     OW25615   2.799   1.592  15.604
 4579SOL    HW125616   2.848   1.540  15.669
 4579SOL    HW225617   2.795   1.537  15.527
 4580SOL     OW25618   2.059   0.249   2.171
 4580SOL    HW125619   1.974   0.273   2.208
 4580SOL    HW225620   2.052   0.273   2.079
 4581SOL     OW25621   0.493   2.700   6.993
 4581SOL    HW125622   0.472   2.753   7.070
 4581SOL    HW225623   0.407   2.677   6.956
 4582SOL     OW25624   0.985   1.248  13.947
 4582SOL    HW125625   0.895   1.282  13.947
 4582SOL    HW225626   0.974   1.153  13.954
 4583SOL     OW25627   0.206   0.595  20.389
 4583SOL    HW125628   0.131   0.584  20.447
 4583SOL    HW225629   0.174   0.570  20.302
 4584SOL     OW25630   2.860   0.384  18.001
 4584SOL    HW125631   2.889   0.461  18.050
 4584SOL    HW225632   2.769   0.371  18.028
 4585SOL     OW25633   1.149   1.389   6.057
 4585SOL    HW125634   1.192   1.332   6.121
 4585SOL    HW225635   1.121   1.329   5.987
 4586SOL     OW25636   2.408   0.500  13.882
 4586SOL    HW125637   2.389   0.533  13.970
 4586SOL    HW225638   2.478   0.557  13.850
 4587SOL     OW25639   1.346   2.753  20.066
 4587SOL    HW125640   1.384   2.671  20.094
 4587SOL    HW225641   1.315   2.736  19.977
 4588SOL     OW25642   2.904   0.971  14.348
 4588SOL    HW125643   2.978   0.940  14.400
 4588SOL    HW225644   2.879   1.053  14.389
 4589SOL     OW25645   1.288   0.517  16.632
 4589SOL    HW125646   1.270   0.424  16.616
 4589SOL    HW225647   1.273   0.529  16.725
 4590SOL     OW25648   1.053   0.098   5.931
 4590SOL    HW125649   1.110   0.038   5.884
 4590SOL    HW225650   1.011   0.045   5.999
 4591SOL     OW25651   2.316   2.498  20.978
 4591SOL    HW125652   2.240   2.480  20.923
 4591SOL    HW225653   2.288   2.476  21.067
 4592SOL     OW25654   1.068   2.180   0.956
 4592SOL    HW125655   1.144   2.236   0.965
 4592SOL    HW225656   0.993   2.239   0.964
 4593SOL     OW25657   1.720   4.097  13.958
 4593SOL    HW125658   1.694   4.119  14.048
 4593SOL    HW225659   1.710   4.179  13.909
 4594SOL     OW25660   1.098   0.280   1.162
 4594SOL    HW125661   1.048   0.345   1.112
 4594SOL    HW225662   1.041   0.257   1.235
 4595SOL     OW25663   2.260   2.671  16.730
 4595SOL    HW125664   2.186   2.675  16.669
 4595SOL    HW225665   2.269   2.760  16.763
 4596SOL     OW25666   0.577   3.408   0.164
 4596SOL    HW125667   0.638   3.467   0.120
 4596SOL    HW225668   0.632   3.345   0.209
 4597SOL     OW25669   0.385   1.518  20.308
 4597SOL    HW125670   0.432   1.602  20.308
 4597SOL    HW225671   0.454   1.453  20.319
 4598SOL     OW25672   4.181   4.237  18.021
 4598SOL    HW125673   4.098   4.212  17.980
 4598SOL    HW225674   4.186   4.331  18.008
 4599SOL     OW25675   4.592   0.442   3.740
 4599SOL    HW125676   4.576   0.351   3.767
 4599SOL    HW225677   4.686   0.446   3.724
 4600SOL     OW25678   0.020   2.626  17.617
 4600SOL    HW125679   0.025   2.538  17.653
 4600SOL    HW225680   4.723   2.633  17.581
 4601SOL     OW25681   4.693   3.693   3.307
 4601SOL    HW125682   4.725   3.763   3.249
 4601SOL    HW225683   4.751   3.619   3.289
 4602SOL     OW25684   2.600   3.275  20.679
 4602SOL    HW125685   2.631   3.309  20.763
 4602SOL    HW225686   2.665   3.303  20.615
 4603SOL     OW25687   3.723   0.249   5.155
 4603SOL    HW125688   3.699   0.215   5.241
 4603SOL    HW225689   3.778   0.181   5.116
 4604SOL     OW25690   0.423   2.632   2.359
 4604SOL    HW125691   0.405   2.715   2.403
 4604SOL    HW225692   0.400   2.565   2.424
 4605SOL     OW25693   2.871   0.998   9.192
 4605SOL    HW125694   2.925   1.043   9.257
 4605SOL    HW225695   2.808   0.949   9.245
 4606SOL     OW25696   3.003   2.065  19.909
 4606SOL    HW125697   3.055   2.142  19.934
 4606SOL    HW225698   2.990   2.074  19.815
 4607SOL     OW25699   0.500   1.884  16.452
 4607SOL    HW125700   0.559   1.932  16.393
 4607SOL    HW225701   0.525   1.792  16.441
 4608SOL     OW25702   4.756   1.880  15.112
 4608SOL    HW125703   4.734   1.961  15.067
 4608SOL    HW225704   0.059   1.869  15.099
 4609SOL     OW25705   3.417   0.496  17.539
 4609SOL    HW125706   3.491   0.519  17.483
 4609SOL    HW225707   3.390   0.580  17.578
 4610SOL     OW25708   3.495   3.423  19.482
 4610SOL    HW125709   3.429   3.481  19.519
 4610SOL    HW225710   3.578   3.468  19.497
 4611SOL     OW25711   2.089   3.488  19.601
 4611SOL    HW125712   2.137   3.406  19.606
 4611SOL    HW225713   2.150   3.549  19.558
 4612SOL     OW25714   4.096   2.885   6.455
 4612SOL    HW125715   4.178   2.877   6.406
 4612SOL    HW225716   4.103   2.968   6.500
 4613SOL     OW25717   0.442   2.534   0.734
 4613SOL    HW125718   0.484   2.450   0.752
 4613SOL    HW225719   0.514   2.598   0.739
 4614SOL     OW25720   3.647   0.737   1.059
 4614SOL    HW125721   3.742   0.743   1.054
 4614SOL    HW225722   3.620   0.707   0.972
 4615SOL     OW25723   0.429   3.561  14.775
 4615SOL    HW125724   0.485   3.636  14.753
 4615SOL    HW225725   0.476   3.516  14.845
 4616SOL     OW25726   4.517   2.957   2.003
 4616SOL    HW125727   4.435   2.929   1.961
 4616SOL    HW225728   4.585   2.938   1.937
 4617SOL     OW25729   3.950   4.698   4.011
 4617SOL    HW125730   3.888   4.662   4.075
 4617SOL    HW225731   4.004   4.759   4.062
 4618SOL     OW25732   3.843   3.892  16.245
 4618SOL    HW125733   3.768   3.879  16.303
 4618SOL    HW225734   3.902   3.820  16.266
 4619SOL     OW25735   3.450   3.014   7.212
 4619SOL    HW125736   3.443   2.933   7.262
 4619SOL    HW225737   3.413   3.081   7.269
 4620SOL     OW25738   0.458   0.469  17.490
 4620SOL    HW125739   0.532   0.504  17.540
 4620SOL    HW225740   0.382   0.517  17.524
 4621SOL     OW25741   1.541   2.805  15.307
 4621SOL    HW125742   1.487   2.849  15.372
 4621SOL    HW225743   1.562   2.720  15.347
 4622SOL     OW25744   0.709   3.413   1.326
 4622SOL    HW125745   0.651   3.474   1.280
 4622SOL    HW225746   0.658   3.384   1.401
 4623SOL     OW25747   2.400   2.487  19.325
 4623SOL    HW125748   2.328   2.542  19.295
 4623SOL    HW225749   2.465   2.493  19.255
 4624SOL     OW25750   0.410   3.896   1.194
 4624SOL    HW125751   0.446   3.836   1.259
 4624SOL    HW225752   0.434   3.984   1.225
 4625SOL     OW25753   1.507   3.680   1.424
 4625SOL    HW125754   1.497   3.770   1.395
 4625SOL    HW225755   1.451   3.673   1.502
 4626SOL     OW25756   2.291   2.376  20.051
 4626SOL    HW125757   2.380   2.383  20.084
 4626SOL    HW225758   2.300   2.374  19.956
 4627SOL     OW25759   2.664   4.573   0.587
 4627SOL    HW125760   2.676   4.591   0.680
 4627SOL    HW225761   2.614   4.492   0.584
 4628SOL     OW25762   4.014   3.341   5.943
 4628SOL    HW125763   4.067   3.420   5.935
 4628SOL    HW225764   3.939   3.367   5.996
 4629SOL     OW25765   0.520   4.013  14.980
 4629SOL    HW125766   0.442   3.980  14.936
 4629SOL    HW225767   0.582   4.030  14.909
 4630SOL     OW25768   3.244   0.620  15.370
 4630SOL    HW125769   3.328   0.653  15.404
 4630SOL    HW225770   3.204   0.577  15.446
 4631SOL     OW25771   2.659   4.720   5.336
 4631SOL    HW125772   2.713   4.660   5.388
 4631SOL    HW225773   2.578   4.671   5.320
 4632SOL     OW25774   0.412   3.176  14.829
 4632SOL    HW125775   0.502   3.205  14.812
 4632SOL    HW225776   0.421   3.111  14.898
 4633SOL     OW25777   0.607   4.202   9.027
 4633SOL    HW125778   0.566   4.210   9.113
 4633SOL    HW225779   0.552   4.253   8.969
 4634SOL     OW25780   3.906   3.177  15.313
 4634SOL    HW125781   3.894   3.241  15.383
 4634SOL    HW225782   3.962   3.222  15.249
 4635SOL     OW25783   1.667   4.149  21.042
 4635SOL    HW125784   1.758   4.148  21.073
 4635SOL    HW225785   1.642   4.057  21.040
 4636SOL     OW25786   3.241   1.419   2.973
 4636SOL    HW125787   3.265   1.510   2.957
 4636SOL    HW225788   3.168   1.402   2.914
 4637SOL     OW25789   0.692   0.794   3.993
 4637SOL    HW125790   0.651   0.776   3.908
 4637SOL    HW225791   0.628   0.766   4.058
 4638SOL     OW25792   0.510   0.915   4.709
 4638SOL    HW125793   0.489   0.823   4.726
 4638SOL    HW225794   0.602   0.923   4.737
 4639SOL     OW25795   3.892   2.357  15.584
 4639SOL    HW125796   3.823   2.377  15.647
 4639SOL    HW225797   3.929   2.274  15.615
 4640SOL     OW25798   0.089   3.292   2.319
 4640SOL    HW125799   4.785   3.291   2.323
 4640SOL    HW225800   0.109   3.308   2.227
 4641SOL     OW25801   2.163   0.130   8.237
 4641SOL    HW125802   2.159   0.039   8.268
 4641SOL    HW225803   2.073   0.163   8.248
 4642SOL     OW25804   3.682   2.660  20.337
 4642SOL    HW125805   3.587   2.661  20.348
 4642SOL    HW225806   3.715   2.618  20.417
 4643SOL     OW25807   4.503   4.334   1.794
 4643SOL    HW125808   4.521   4.401   1.728
 4643SOL    HW225809   4.571   4.347   1.861
 4644SOL     OW25810   3.285   1.102  17.308
 4644SOL    HW125811   3.258   1.181  17.355
 4644SOL    HW225812   3.234   1.102  17.227
 4645SOL     OW25813   2.791   2.963  18.037
 4645SOL    HW125814   2.728   2.993  17.971
 4645SOL    HW225815   2.776   3.020  18.113
 4646SOL     OW25816   4.037   3.191  20.852
 4646SOL    HW125817   3.964   3.253  20.856
 4646SOL    HW225818   4.092   3.213  20.927
 4647SOL     OW25819   0.666   0.825   8.951
 4647SOL    HW125820   0.674   0.850   8.859
 4647SOL    HW225821   0.742   0.866   8.994
 4648SOL     OW25822   4.747   0.973   4.358
 4648SOL    HW125823   4.741   0.925   4.275
 4648SOL    HW225824   4.754   1.065   4.332
 4649SOL     OW25825   4.277   4.212   0.427
 4649SOL    HW125826   4.245   4.128   0.395
 4649SOL    HW225827   4.232   4.226   0.510
 4650SOL     OW25828   4.242   1.281   2.444
 4650SOL    HW125829   4.185   1.358   2.453
 4650SOL    HW225830   4.183   1.212   2.412
 4651SOL     OW25831   0.888   1.918  14.896
 4651SOL    HW125832   0.944   1.994  14.878
 4651SOL    HW225833   0.897   1.904  14.990
 4652SOL     OW25834   0.763   4.374   6.423
 4652SOL    HW125835   0.690   4.369   6.362
 4652SOL    HW225836   0.727   4.343   6.506
 4653SOL     OW25837   3.389   3.200   3.942
 4653SOL    HW125838   3.453   3.165   3.881
 4653SOL    HW225839   3.420   3.173   4.029
 4654SOL     OW25840   3.204   0.513  17.167
 4654SOL    HW125841   3.130   0.554  17.212
 4654SOL    HW225842   3.270   0.583  17.163
 4655SOL     OW25843   0.767   2.931   0.482
 4655SOL    HW125844   0.763   2.859   0.419
 4655SOL    HW225845   0.693   2.915   0.542
 4656SOL     OW25846   1.845   4.244  17.843
 4656SOL    HW125847   1.902   4.180  17.800
 4656SOL    HW225848   1.844   4.319  17.783
 4657SOL     OW25849   3.283   4.702   5.734
 4657SOL    HW125850   3.221   4.773   5.751
 4657SOL    HW225851   3.346   4.709   5.806
 4658SOL     OW25852   0.572   0.807   0.969
 4658SOL    HW125853   0.486   0.780   0.936
 4658SOL    HW225854   0.634   0.748   0.927
 4659SOL     OW25855   1.455   2.107  20.850
 4659SOL    HW125856   1.368   2.076  20.824
 4659SOL    HW225857   1.502   2.028  20.874
 4660SOL     OW25858   2.789   4.075   2.208
 4660SOL    HW125859   2.883   4.089   2.196
 4660SOL    HW225860   2.783   3.994   2.258
 4661SOL     OW25861   4.139   0.708   4.971
 4661SOL    HW125862   4.107   0.628   4.930
 4661SOL    HW225863   4.083   0.721   5.047
 4662SOL     OW25864   4.267   1.022  16.060
 4662SOL    HW125865   4.326   1.079  16.110
 4662SOL    HW225866   4.319   0.943  16.044
 4663SOL     OW25867   1.955   3.696   0.450
 4663SOL    HW125868   1.969   3.649   0.532
 4663SOL    HW225869   1.954   3.789   0.475
 4664SOL     OW25870   1.908   1.096   6.545
 4664SOL    HW125871   1.878   1.140   6.626
 4664SOL    HW225872   1.974   1.155   6.509
 4665SOL     OW25873   1.400   4.773  13.437
 4665SOL    HW125874   1.345   0.061  13.438
 4665SOL    HW225875   1.480   0.009  13.392
 4666SOL     OW25876   2.135   4.548   6.557
 4666SOL    HW125877   2.169   4.472   6.604
 4666SOL    HW225878   2.160   4.533   6.466
 4667SOL     OW25879   2.401   0.243   1.008
 4667SOL    HW125880   2.421   0.316   0.949
 4667SOL    HW225881   2.439   0.166   0.965
 4668SOL     OW25882   0.948   4.554  13.845
 4668SOL    HW125883   0.876   4.566  13.782
 4668SOL    HW225884   1.013   4.619  13.819
 4669SOL     OW25885   4.565   0.967   5.371
 4669SOL    HW125886   4.492   0.904   5.371
 4669SOL    HW225887   4.536   1.037   5.313
 4670SOL     OW25888   0.805   3.590  13.535
 4670SOL    HW125889   0.716   3.593  13.569
 4670SOL    HW225890   0.828   3.497  13.535
 4671SOL     OW25891   1.060   3.115  14.163
 4671SOL    HW125892   1.046   3.188  14.224
 4671SOL    HW225893   1.016   3.142  14.083
 4672SOL     OW25894   0.334   1.963   4.281
 4672SOL    HW125895   0.364   1.952   4.191
 4672SOL    HW225896   0.240   1.982   4.273
 4673SOL     OW25897   2.458   0.364   2.942
 4673SOL    HW125898   2.455   0.418   3.021
 4673SOL    HW225899   2.453   0.274   2.975
 4674SOL     OW25900   4.244   3.381   1.987
 4674SOL    HW125901   4.159   3.424   1.989
 4674SOL    HW225902   4.234   3.308   1.926
 4675SOL     OW25903   0.999   0.840   3.667
 4675SOL    HW125904   1.037   0.899   3.602
 4675SOL    HW225905   0.967   0.898   3.736
 4676SOL     OW25906   0.363   2.643   1.998
 4676SOL    HW125907   0.376   2.648   2.093
 4676SOL    HW225908   0.368   2.549   1.979
 4677SOL     OW25909   2.661   2.353  15.456
 4677SOL    HW125910   2.722   2.314  15.519
 4677SOL    HW225911   2.709   2.427  15.419
 4678SOL     OW25912   3.287   2.533  19.601
 4678SOL    HW125913   3.211   2.584  19.572
 4678SOL    HW225914   3.258   2.442  19.594
 4679SOL     OW25915   1.135   4.742  20.540
 4679SOL    HW125916   1.135   0.045  20.558
 4679SOL    HW225917   1.221   4.726  20.501
 4680SOL     OW25918   2.037   1.781  19.503
 4680SOL    HW125919   2.125   1.769  19.468
 4680SOL    HW225920   2.006   1.692  19.521
 4681SOL     OW25921   4.775   3.860  21.146
 4681SOL    HW125922   0.028   3.930  21.096
 4681SOL    HW225923   4.694   3.844  21.097
 4682SOL     OW25924   4.028   1.488   4.553
 4682SOL    HW125925   3.997   1.407   4.513
 4682SOL    HW225926   4.085   1.527   4.487
 4683SOL     OW25927   0.544   2.669  18.847
 4683SOL    HW125928   0.609   2.738  18.833
 4683SOL    HW225929   0.594   2.595  18.881
 4684SOL     OW25930   4.100   1.366   1.270
 4684SOL    HW125931   4.012   1.362   1.307
 4684SOL    HW225932   4.155   1.396   1.343
 4685SOL     OW25933   0.195   2.049  16.515
 4685SOL    HW125934   0.244   1.967  16.511
 4685SOL    HW225935   0.108   2.027  16.481
 4686SOL     OW25936   2.171   3.364  15.943
 4686SOL    HW125937   2.256   3.400  15.966
 4686SOL    HW225938   2.109   3.432  15.971
 4687SOL     OW25939   1.919   4.624   3.904
 4687SOL    HW125940   2.004   4.581   3.920
 4687SOL    HW225941   1.865   4.597   3.979
 4688SOL     OW25942   2.414   0.361   3.802
 4688SOL    HW125943   2.445   0.436   3.853
 4688SOL    HW225944   2.397   0.293   3.867
 4689SOL     OW25945   2.128   4.615  13.930
 4689SOL    HW125946   2.108   4.709  13.927
 4689SOL    HW225947   2.045   4.574  13.956
 4690SOL     OW25948   0.568   4.556  18.181
 4690SOL    HW125949   0.511   4.486  18.149
 4690SOL    HW225950   0.541   4.633  18.131
 4691SOL     OW25951   1.056   0.976   1.196
 4691SOL    HW125952   0.994   0.904   1.181
 4691SOL    HW225953   1.033   1.041   1.129
 4692SOL     OW25954   4.419   2.273   4.280
 4692SOL    HW125955   4.437   2.199   4.223
 4692SOL    HW225956   4.490   2.335   4.264
 4693SOL     OW25957   0.307   1.313  15.397
 4693SOL    HW125958   0.369   1.382  15.422
 4693SOL    HW225959   0.301   1.320  15.302
 4694SOL     OW25960   3.343   2.684  18.457
 4694SOL    HW125961   3.274   2.737  18.497
 4694SOL    HW225962   3.330   2.695  18.363
 4695SOL     OW25963   1.617   3.314  16.200
 4695SOL    HW125964   1.599   3.357  16.117
 4695SOL    HW225965   1.614   3.384  16.265
 4696SOL     OW25966   1.228   0.698   5.417
 4696SOL    HW125967   1.234   0.650   5.500
 4696SOL    HW225968   1.294   0.767   5.425
 4697SOL     OW25969   0.297   1.230  19.735
 4697SOL    HW125970   0.357   1.161  19.706
 4697SOL    HW225971   0.241   1.247  19.659
 4698SOL     OW25972   1.092   3.115   4.284
 4698SOL    HW125973   1.024   3.119   4.217
 4698SOL    HW225974   1.174   3.135   4.238
 4699SOL     OW25975   1.262   0.911  20.685
 4699SOL    HW125976   1.336   0.958  20.646
 4699SOL    HW225977   1.257   0.829  20.635
 4700SOL     OW25978   0.380   4.573   0.209
 4700SOL    HW125979   0.466   4.537   0.233
 4700SOL    HW225980   0.358   4.633   0.280
 4701SOL     OW25981   3.777   1.757  20.558
 4701SOL    HW125982   3.836   1.811  20.610
 4701SOL    HW225983   3.809   1.765  20.469
 4702SOL     OW25984   3.525   1.794   6.107
 4702SOL    HW125985   3.490   1.852   6.174
 4702SOL    HW225986   3.490   1.829   6.025
 4703SOL     OW25987   1.199   0.543   0.088
 4703SOL    HW125988   1.139   0.599   0.039
 4703SOL    HW225989   1.189   0.572   0.179
 4704SOL     OW25990   0.189   3.071   3.670
 4704SOL    HW125991   0.166   2.978   3.674
 4704SOL    HW225992   0.112   3.113   3.632
 4705SOL     OW25993   1.060   2.132   1.376
 4705SOL    HW125994   1.008   2.169   1.448
 4705SOL    HW225995   1.082   2.207   1.321
 4706SOL     OW25996   4.637   1.463   7.505
 4706SOL    HW125997   4.603   1.389   7.556
 4706SOL    HW225998   4.561   1.519   7.490
 4707SOL     OW25999   0.877   3.432   5.252
 4707SOL    HW126000   0.851   3.476   5.333
 4707SOL    HW226001   0.821   3.470   5.185
 4708SOL     OW26002   3.259   2.252   2.538
 4708SOL    HW126003   3.287   2.319   2.476
 4708SOL    HW226004   3.247   2.299   2.620
 4709SOL     OW26005   2.347   1.727   3.561
 4709SOL    HW126006   2.370   1.638   3.588
 4709SOL    HW226007   2.318   1.718   3.470
 4710SOL     OW26008   2.353   0.519  13.359
 4710SOL    HW126009   2.312   0.509  13.273
 4710SOL    HW226010   2.280   0.524  13.421
 4711SOL     OW26011   4.355   2.525  17.867
 4711SOL    HW126012   4.370   2.511  17.961
 4711SOL    HW226013   4.342   2.437  17.831
 4712SOL     OW26014   3.595   1.878  20.801
 4712SOL    HW126015   3.646   1.823  20.861
 4712SOL    HW226016   3.660   1.931  20.755
 4713SOL     OW26017   4.354   4.051   2.220
 4713SOL    HW126018   4.399   4.135   2.219
 4713SOL    HW226019   4.422   3.987   2.195
 4714SOL     OW26020   4.136   3.712  18.514
 4714SOL    HW126021   4.155   3.640  18.453
 4714SOL    HW226022   4.043   3.704  18.532
 4715SOL     OW26023   2.208   2.643  20.088
 4715SOL    HW126024   2.226   2.665  20.179
 4715SOL    HW226025   2.239   2.552  20.079
 4716SOL     OW26026   3.173   4.509   7.240
 4716SOL    HW126027   3.167   4.592   7.287
 4716SOL    HW226028   3.212   4.532   7.156
 4717SOL     OW26029   3.338   1.895   8.416
 4717SOL    HW126030   3.277   1.927   8.351
 4717SOL    HW226031   3.412   1.955   8.412
 4718SOL     OW26032   1.171   1.936  20.460
 4718SOL    HW126033   1.169   1.862  20.399
 4718SOL    HW226034   1.226   1.907  20.532
 4719SOL     OW26035   4.176   4.140   5.346
 4719SOL    HW126036   4.216   4.140   5.259
 4719SOL    HW226037   4.082   4.142   5.329
 4720SOL     OW26038   4.766   2.414  19.327
 4720SOL    HW126039   0.019   2.494  19.358
 4720SOL    HW226040   4.674   2.427  19.350
 4721SOL     OW26041   4.161   3.456  16.309
 4721SOL    HW126042   4.149   3.384  16.247
 4721SOL    HW226043   4.245   3.436  16.352
 4722SOL     OW26044   0.470   3.742   1.414
 4722SOL    HW126045   0.492   3.654   1.443
 4722SOL    HW226046   0.449   3.790   1.494
 4723SOL     OW26047   4.118   0.124  15.698
 4723SOL    HW126048   4.200   0.137  15.745
 4723SOL    HW226049   4.125   0.182  15.621
 4724SOL     OW26050   4.626   1.705  14.308
 4724SOL    HW126051   4.621   1.799  14.288
 4724SOL    HW226052   4.714   1.680  14.283
 4725SOL     OW26053   4.036   1.435  15.078
 4725SOL    HW126054   3.953   1.480  15.096
 4725SOL    HW226055   4.097   1.470  15.142
 4726SOL     OW26056   1.238   0.212  15.834
 4726SOL    HW126057   1.255   0.191  15.742
 4726SOL    HW226058   1.292   0.151  15.883
 4727SOL     OW26059   0.272   3.970  17.208
 4727SOL    HW126060   0.236   4.051  17.171
 4727SOL    HW226061   0.235   3.966  17.296
 4728SOL     OW26062   4.288   0.311   4.871
 4728SOL    HW126063   4.373   0.342   4.901
 4728SOL    HW226064   4.226   0.377   4.902
 4729SOL     OW26065   2.285   3.779   1.646
 4729SOL    HW126066   2.287   3.696   1.598
 4729SOL    HW226067   2.200   3.778   1.692
 4730SOL     OW26068   4.609   0.696   7.384
 4730SOL    HW126069   4.645   0.783   7.364
 4730SOL    HW226070   4.590   0.699   7.478
 4731SOL     OW26071   4.072   0.273  15.934
 4731SOL    HW126072   4.123   0.248  15.856
 4731SOL    HW226073   3.981   0.272  15.904
 4732SOL     OW26074   3.454   1.136   1.082
 4732SOL    HW126075   3.448   1.101   0.993
 4732SOL    HW226076   3.393   1.209   1.083
 4733SOL     OW26077   3.157   1.013  17.044
 4733SOL    HW126078   3.200   1.027  16.959
 4733SOL    HW226079   3.071   0.978  17.022
 4734SOL     OW26080   2.053   2.103  18.582
 4734SOL    HW126081   2.061   2.010  18.604
 4734SOL    HW226082   1.958   2.120  18.584
 4735SOL     OW26083   1.075   4.761   3.484
 4735SOL    HW126084   0.993   0.008   3.515
 4735SOL    HW226085   1.130   4.756   3.562
 4736SOL     OW26086   3.827   1.104   8.566
 4736SOL    HW126087   3.781   1.093   8.482
 4736SOL    HW226088   3.917   1.124   8.541
 4737SOL     OW26089   2.635   4.244  17.254
 4737SOL    HW126090   2.650   4.319  17.197
 4737SOL    HW226091   2.713   4.239  17.309
 4738SOL     OW26092   2.690   2.756   1.559
 4738SOL    HW126093   2.689   2.840   1.512
 4738SOL    HW226094   2.722   2.693   1.495
 4739SOL     OW26095   3.053   0.054  19.208
 4739SOL    HW126096   3.056   4.749  19.204
 4739SOL    HW226097   3.144   0.081  19.197
 4740SOL     OW26098   4.203   1.138   4.649
 4740SOL    HW126099   4.142   1.122   4.577
 4740SOL    HW226100   4.185   1.068   4.712
 4741SOL     OW26101   4.768   0.125  14.802
 4741SOL    HW126102   4.750   0.032  14.813
 4741SOL    HW226103   4.731   0.166  14.880
 4742SOL     OW26104   2.839   3.870   0.419
 4742SOL    HW126105   2.887   3.817   0.356
 4742SOL    HW226106   2.854   3.827   0.503
 4743SOL     OW26107   1.304   2.824   2.900
 4743SOL    HW126108   1.398   2.825   2.884
 4743SOL    HW226109   1.269   2.765   2.833
 4744SOL     OW26110   0.520   4.711  17.952
 4744SOL    HW126111   0.504   4.622  17.923
 4744SOL    HW226112   0.606   4.734  17.915
 4745SOL     OW26113   1.543   2.802  18.588
 4745SOL    HW126114   1.616   2.859  18.609
 4745SOL    HW226115   1.487   2.854  18.531
 4746SOL     OW26116   4.615   0.043   0.258
 4746SOL    HW126117   4.574   0.078   0.337
 4746SOL    HW226118   4.572   0.089   0.186
 4747SOL     OW26119   0.953   0.142  18.860
 4747SOL    HW126120   0.874   0.193  18.881
 4747SOL    HW226121   0.964   0.083  18.935
 4748SOL     OW26122   2.016   4.294   4.122
 4748SOL    HW126123   1.926   4.295   4.090
 4748SOL    HW226124   2.008   4.289   4.217
 4749SOL     OW26125   2.429   4.276  14.966
 4749SOL    HW126126   2.420   4.348  14.904
 4749SOL    HW226127   2.519   4.283  14.999
 4750SOL     OW26128   4.563   0.133   3.730
 4750SOL    HW126129   4.517   0.117   3.813
 4750SOL    HW226130   4.517   0.078   3.666
 4751SOL     OW26131   0.512   1.632   4.817
 4751SOL    HW126132   0.451   1.629   4.890
 4751SOL    HW226133   0.459   1.663   4.743
 4752SOL     OW26134   0.494   0.365   6.225
 4752SOL    HW126135   0.423   0.317   6.183
 4752SOL    HW226136   0.451   0.441   6.265
 4753SOL     OW26137   1.856   1.882  17.468
 4753SOL    HW126138   1.822   1.913  17.384
 4753SOL    HW226139   1.782   1.889  17.528
 4754SOL     OW26140   4.333   0.792   6.003
 4754SOL    HW126141   4.363   0.788   5.913
 4754SOL    HW226142   4.280   0.712   6.015
 4755SOL     OW26143   4.643   0.550  18.509
 4755SOL    HW126144   4.587   0.479  18.541
 4755SOL    HW226145   4.612   0.567  18.420
 4756SOL     OW26146   0.940   4.136  18.614
 4756SOL    HW126147   1.028   4.129  18.576
 4756SOL    HW226148   0.937   4.225  18.649
 4757SOL     OW26149   2.972   1.951   6.985
 4757SOL    HW126150   3.063   1.933   6.961
 4757SOL    HW226151   2.947   2.023   6.928
 4758SOL     OW26152   4.478   1.070   2.712
 4758SOL    HW126153   4.484   1.101   2.622
 4758SOL    HW226154   4.566   1.082   2.747
 4759SOL     OW26155   1.554   0.872  15.293
 4759SOL    HW126156   1.639   0.909  15.270
 4759SOL    HW226157   1.491   0.942  15.275
 4760SOL     OW26158   3.233   4.636   8.828
 4760SOL    HW126159   3.190   4.551   8.818
 4760SOL    HW226160   3.315   4.628   8.779
 4761SOL     OW26161   1.019   1.150   8.560
 4761SOL    HW126162   1.007   1.175   8.651
 4761SOL    HW226163   0.935   1.111   8.534
 4762SOL     OW26164   4.293   3.035  11.180
 4762SOL    HW126165   4.229   3.101  11.209
 4762SOL    HW226166   4.239   2.961  11.151
 4763SOL     OW26167   3.837   0.117   9.923
 4763SOL    HW126168   3.878   0.186   9.975
 4763SOL    HW226169   3.784   0.068   9.986
 4764SOL     OW26170   3.903   0.306  11.487
 4764SOL    HW126171   3.816   0.303  11.527
 4764SOL    HW226172   3.943   0.385  11.523
 4765SOL     OW26173   4.505   0.052   8.236
 4765SOL    HW126174   4.456   0.109   8.176
 4765SOL    HW226175   4.549   0.113   8.296
 4766SOL     OW26176   4.555   4.678   8.806
 4766SOL    HW126177   4.585   4.656   8.718
 4766SOL    HW226178   4.585   4.606   8.861
 4767SOL     OW26179   4.110   2.594  10.171
 4767SOL    HW126180   4.125   2.642  10.089
 4767SOL    HW226181   4.167   2.517  10.165
 4768SOL     OW26182   4.416   4.620   9.852
 4768SOL    HW126183   4.499   4.661   9.876
 4768SOL    HW226184   4.369   4.688   9.803
 4769SOL     OW26185   4.535   0.172   9.836
 4769SOL    HW126186   4.591   0.095   9.831
 4769SOL    HW226187   4.595   0.246   9.823
 4770SOL     OW26188   3.350   1.783  11.142
 4770SOL    HW126189   3.346   1.687  11.147
 4770SOL    HW226190   3.339   1.802  11.049
 4771SOL     OW26191   4.097   1.227  10.730
 4771SOL    HW126192   4.186   1.192  10.724
 4771SOL    HW226193   4.090   1.288  10.657
 4772SOL     OW26194   4.659   0.267   8.333
 4772SOL    HW126195   4.700   0.314   8.406
 4772SOL    HW226196   4.694   0.310   8.254
 4773SOL     OW26197   3.694   0.623   9.334
 4773SOL    HW126198   3.658   0.587   9.253
 4773SOL    HW226199   3.779   0.581   9.344
 4774SOL     OW26200   3.301   3.842   8.859
 4774SOL    HW126201   3.329   3.923   8.901
 4774SOL    HW226202   3.216   3.864   8.820
 4775SOL     OW26203   3.852   2.017   9.922
 4775SOL    HW126204   3.778   2.075   9.901
 4775SOL    HW226205   3.902   2.065   9.988
 4776SOL     OW26206   1.026   3.657  12.883
 4776SOL    HW126207   0.997   3.740  12.921
 4776SOL    HW226208   1.119   3.652  12.904
 4777SOL     OW26209   3.122   0.503  12.319
 4777SOL    HW126210   3.126   0.510  12.224
 4777SOL    HW226211   3.034   0.532  12.341
 4778SOL     OW26212   0.335   0.294  11.132
 4778SOL    HW126213   0.361   0.312  11.223
 4778SOL    HW226214   0.348   0.199  11.122
 4779SOL     OW26215   2.981   1.478  12.374
 4779SOL    HW126216   3.072   1.506  12.368
 4779SOL    HW226217   2.942   1.540  12.436
 4780SOL     OW26218   4.267   0.912  11.808
 4780SOL    HW126219   4.194   0.886  11.752
 4780SOL    HW226220   4.311   0.831  11.831
 4781SOL     OW26221   3.707   2.395  10.189
 4781SOL    HW126222   3.612   2.403  10.181
 4781SOL    HW226223   3.720   2.349  10.272
 4782SOL     OW26224   3.266   4.778  13.818
 4782SOL    HW126225   3.256   4.754  13.910
 4782SOL    HW226226   3.184   0.029  13.795
 4783SOL     OW26227   3.647   1.873  10.875
 4783SOL    HW126228   3.558   1.840  10.870
 4783SOL    HW226229   3.668   1.901  10.787
 4784SOL     OW26230   1.162   1.247  11.353
 4784SOL    HW126231   1.070   1.245  11.326
 4784SOL    HW226232   1.200   1.319  11.303
 4785SOL     OW26233   3.856   0.215  11.955
 4785SOL    HW126234   3.903   0.289  11.916
 4785SOL    HW226235   3.924   0.163  11.997
 4786SOL     OW26236   3.783   0.847  12.240
 4786SOL    HW126237   3.748   0.813  12.158
 4786SOL    HW226238   3.721   0.914  12.267
 4787SOL     OW26239   4.308   0.147  12.003
 4787SOL    HW126240   4.369   0.085  12.044
 4787SOL    HW226241   4.223   0.103  12.009
 4788SOL     OW26242   3.590   1.596  12.176
 4788SOL    HW126243   3.555   1.663  12.118
 4788SOL    HW226244   3.615   1.643  12.256
 4789SOL     OW26245   0.014   4.643  11.551
 4789SOL    HW126246   4.753   4.590  11.611
 4789SOL    HW226247   4.770   4.731  11.559
 4790SOL     OW26248   3.259   0.470  12.556
 4790SOL    HW126249   3.187   0.487  12.616
 4790SOL    HW226250   3.219   0.474  12.469
 4791SOL     OW26251   3.109   4.629  10.743
 4791SOL    HW126252   3.016   4.617  10.763
 4791SOL    HW226253   3.121   4.724  10.744
 4792SOL     OW26254   2.378   2.047  11.483
 4792SOL    HW126255   2.363   2.135  11.449
 4792SOL    HW226256   2.426   2.062  11.565
 4793SOL     OW26257   3.484   1.980  11.390
 4793SOL    HW126258   3.529   2.019  11.465
 4793SOL    HW226259   3.553   1.937  11.340
 4794SOL     OW26260   3.745   4.579  11.026
 4794SOL    HW126261   3.718   4.492  10.997
 4794SOL    HW226262   3.840   4.578  11.018
 4795SOL     OW26263   3.093   2.485  12.824
 4795SOL    HW126264   3.068   2.469  12.734
 4795SOL    HW226265   3.086   2.399  12.867
 4796SOL     OW26266   2.437   2.668  17.109
 4796SOL    HW126267   2.479   2.737  17.058
 4796SOL    HW226268   2.443   2.697  17.200
 4797SOL     OW26269   0.567   2.885  15.645
 4797SOL    HW126270   0.520   2.846  15.719
 4797SOL    HW226271   0.614   2.811  15.606
 4798SOL     OW26272   0.070   4.645  20.100
 4798SOL    HW126273   0.154   4.682  20.075
 4798SOL    HW226274   0.006   4.695  20.049
 4799SOL     OW26275   3.048   0.147  13.682
 4799SOL    HW126276   3.118   0.212  13.683
 4799SOL    HW226277   2.977   0.188  13.633
 4800SOL     OW26278   2.002   2.449  18.279
 4800SOL    HW126279   2.021   2.465  18.372
 4800SOL    HW226280   1.949   2.369  18.279
 4801SOL     OW26281   0.900   4.538  16.528
 4801SOL    HW126282   0.961   4.611  16.519
 4801SOL    HW226283   0.842   4.565  16.599
 4802SOL     OW26284   1.332   1.292  14.308
 4802SOL    HW126285   1.381   1.370  14.335
 4802SOL    HW226286   1.248   1.327  14.276
 4803SOL     OW26287   0.502   0.196   4.407
 4803SOL    HW126288   0.501   0.134   4.479
 4803SOL    HW226289   0.437   0.163   4.345
 4804SOL     OW26290   4.382   2.419  18.909
 4804SOL    HW126291   4.315   2.453  18.969
 4804SOL    HW226292   4.345   2.336  18.878
 4805SOL     OW26293   2.224   3.860  19.839
 4805SOL    HW126294   2.277   3.899  19.909
 4805SOL    HW226295   2.147   3.826  19.884
 4806SOL     OW26296   2.252   2.162   4.824
 4806SOL    HW126297   2.231   2.070   4.841
 4806SOL    HW226298   2.341   2.160   4.790
 4807SOL     OW26299   0.004   3.248  19.180
 4807SOL    HW126300   4.756   3.307  19.114
 4807SOL    HW226301   0.058   3.188  19.129
 4808SOL     OW26302   1.319   1.612  12.252
 4808SOL    HW126303   1.307   1.581  12.162
 4808SOL    HW226304   1.407   1.583  12.276
 4809SOL     OW26305   3.630   0.522   5.339
 4809SOL    HW126306   3.547   0.557   5.304
 4809SOL    HW226307   3.673   0.485   5.262
 4810SOL     OW26308   2.554   2.208   3.648
 4810SOL    HW126309   2.486   2.184   3.585
 4810SOL    HW226310   2.544   2.303   3.660
 4811SOL     OW26311   3.566   3.995   4.194
 4811SOL    HW126312   3.563   3.900   4.191
 4811SOL    HW226313   3.611   4.015   4.276
 4812SOL     OW26314   3.643   1.724  20.000
 4812SOL    HW126315   3.619   1.648  20.052
 4812SOL    HW226316   3.563   1.745  19.951
 4813SOL     OW26317   1.847   4.436  18.397
 4813SOL    HW126318   1.798   4.355  18.380
 4813SOL    HW226319   1.843   4.484  18.314
 4814SOL     OW26320   3.859   3.132  17.988
 4814SOL    HW126321   3.811   3.120  17.906
 4814SOL    HW226322   3.811   3.078  18.051
 4815SOL     OW26323   1.246   0.297   5.168
 4815SOL    HW126324   1.217   0.257   5.250
 4815SOL    HW226325   1.249   0.391   5.187
 4816SOL     OW26326   0.467   4.506  13.999
 4816SOL    HW126327   0.432   4.465  13.920
 4816SOL    HW226328   0.514   4.583  13.967
 4817SOL     OW26329   1.704   0.817   5.026
 4817SOL    HW126330   1.760   0.868   5.085
 4817SOL    HW226331   1.738   0.836   4.938
 4818SOL     OW26332   3.281   4.445  18.609
 4818SOL    HW126333   3.339   4.483  18.544
 4818SOL    HW226334   3.302   4.352  18.611
 4819SOL     OW26335   2.719   0.673  19.500
 4819SOL    HW126336   2.705   0.706  19.588
 4819SOL    HW226337   2.726   0.578  19.511
 4820SOL     OW26338   2.722   2.728   6.528
 4820SOL    HW126339   2.689   2.811   6.562
 4820SOL    HW226340   2.726   2.670   6.605
 4821SOL     OW26341   3.753   1.769   3.742
 4821SOL    HW126342   3.752   1.735   3.831
 4821SOL    HW226343   3.665   1.806   3.729
 4822SOL     OW26344   3.352   4.401   3.419
 4822SOL    HW126345   3.434   4.431   3.457
 4822SOL    HW226346   3.326   4.471   3.359
 4823SOL     OW26347   4.074   3.165   6.544
 4823SOL    HW126348   3.980   3.182   6.541
 4823SOL    HW226349   4.109   3.231   6.603
 4824SOL     OW26350   3.960   4.117   0.920
 4824SOL    HW126351   3.886   4.176   0.906
 4824SOL    HW226352   3.939   4.072   1.002
 4825SOL     OW26353   4.511   4.510  11.507
 4825SOL    HW126354   4.509   4.576  11.437
 4825SOL    HW226355   4.419   4.496  11.529
 4826SOL     OW26356   3.306   3.430   2.606
 4826SOL    HW126357   3.293   3.365   2.536
 4826SOL    HW226358   3.243   3.499   2.585
 4827SOL     OW26359   3.708   2.930  16.061
 4827SOL    HW126360   3.687   2.854  16.006
 4827SOL    HW226361   3.721   3.002  15.999
 4828SOL     OW26362   1.775   4.638   4.137
 4828SOL    HW126363   1.683   4.626   4.116
 4828SOL    HW226364   1.788   4.586   4.216
 4829SOL     OW26365   1.502   1.974   3.446
 4829SOL    HW126366   1.516   1.931   3.531
 4829SOL    HW226367   1.558   2.052   3.450
 4830SOL     OW26368   4.282   4.146   1.238
 4830SOL    HW126369   4.216   4.152   1.307
 4830SOL    HW226370   4.314   4.056   1.243
 4831SOL     OW26371   3.056   2.204  12.881
 4831SOL    HW126372   2.968   2.180  12.854
 4831SOL    HW226373   3.083   2.134  12.941
 4832SOL     OW26374   4.200   4.727  17.793
 4832SOL    HW126375   4.286   4.716  17.752
 4832SOL    HW226376   4.220   4.776  17.874
 4833SOL     OW26377   1.000   3.367  14.698
 4833SOL    HW126378   0.929   3.431  14.693
 4833SOL    HW226379   0.992   3.330  14.786
 4834SOL     OW26380   1.923   2.506  18.793
 4834SOL    HW126381   1.962   2.590  18.815
 4834SOL    HW226382   1.834   2.528  18.765
 4835SOL     OW26383   0.194   0.481   5.119
 4835SOL    HW126384   0.118   0.509   5.067
 4835SOL    HW226385   0.243   0.561   5.136
 4836SOL     OW26386   2.003   0.643  19.254
 4836SOL    HW126387   1.980   0.618  19.344
 4836SOL    HW226388   2.098   0.653  19.256
 4837SOL     OW26389   2.380   0.096  18.643
 4837SOL    HW126390   2.433   0.019  18.659
 4837SOL    HW226391   2.307   0.065  18.589
 4838SOL     OW26392   3.597   2.393   4.497
 4838SOL    HW126393   3.628   2.333   4.430
 4838SOL    HW226394   3.674   2.411   4.550
 4839SOL     OW26395   1.057   0.976   1.503
 4839SOL    HW126396   1.063   1.063   1.542
 4839SOL    HW226397   1.041   0.993   1.410
 4840SOL     OW26398   1.540   1.922  20.622
 4840SOL    HW126399   1.521   1.899  20.531
 4840SOL    HW226400   1.472   1.877  20.672
 4841SOL     OW26401   3.693   1.061   0.908
 4841SOL    HW126402   3.659   1.014   0.831
 4841SOL    HW226403   3.682   1.154   0.886
 4842SOL     OW26404   1.285   1.191  16.373
 4842SOL    HW126405   1.321   1.276  16.399
 4842SOL    HW226406   1.347   1.127  16.408
 4843SOL     OW26407   2.160   1.188   3.558
 4843SOL    HW126408   2.178   1.254   3.624
 4843SOL    HW226409   2.065   1.176   3.560
 4844SOL     OW26410   2.805   3.229  19.854
 4844SOL    HW126411   2.828   3.175  19.778
 4844SOL    HW226412   2.797   3.166  19.925
 4845SOL     OW26413   1.067   2.108   5.579
 4845SOL    HW126414   1.071   2.111   5.674
 4845SOL    HW226415   0.974   2.097   5.558
 4846SOL     OW26416   4.560   4.702   6.280
 4846SOL    HW126417   4.507   4.748   6.216
 4846SOL    HW226418   4.501   4.636   6.317
 4847SOL     OW26419   4.735   1.998   5.997
 4847SOL    HW126420   0.020   2.055   6.011
 4847SOL    HW226421   4.768   1.910   6.014
 4848SOL     OW26422   3.528   4.781   5.253
 4848SOL    HW126423   3.571   4.698   5.232
 4848SOL    HW226424   3.598   0.046   5.288
 4849SOL     OW26425   2.737   4.098   7.333
 4849SOL    HW126426   2.762   4.164   7.268
 4849SOL    HW226427   2.819   4.058   7.361
 4850SOL     OW26428   2.448   2.796   8.168
 4850SOL    HW126429   2.403   2.875   8.198
 4850SOL    HW226430   2.404   2.774   8.086
 4851SOL     OW26431   1.553   4.541   2.567
 4851SOL    HW126432   1.505   4.476   2.617
 4851SOL    HW226433   1.569   4.500   2.482
 4852SOL     OW26434   0.704   1.224  15.625
 4852SOL    HW126435   0.687   1.176  15.544
 4852SOL    HW226436   0.768   1.169  15.671
 4853SOL     OW26437   1.431   0.744  17.599
 4853SOL    HW126438   1.429   0.754  17.694
 4853SOL    HW226439   1.343   0.769  17.571
 4854SOL     OW26440   3.483   2.774  18.903
 4854SOL    HW126441   3.554   2.837  18.893
 4854SOL    HW226442   3.526   2.689  18.894
 4855SOL     OW26443   3.986   3.162  15.962
 4855SOL    HW126444   4.073   3.173  15.924
 4855SOL    HW226445   3.942   3.100  15.903
 4856SOL     OW26446   4.186   3.510  21.197
 4856SOL    HW126447   4.278   3.495  21.176
 4856SOL    HW226448   4.187   3.579   0.000
 4857SOL     OW26449   0.507   1.337   0.376
 4857SOL    HW126450   0.544   1.284   0.305
 4857SOL    HW226451   0.439   1.389   0.334
 4858SOL     OW26452   0.044   0.248   3.652
 4858SOL    HW126453   4.763   0.201   3.694
 4858SOL    HW226454   0.073   0.190   3.582
 4859SOL     OW26455   3.257   1.565   2.524
 4859SOL    HW126456   3.236   1.634   2.460
 4859SOL    HW226457   3.307   1.501   2.474
 4860SOL     OW26458   0.821   4.470  13.394
 4860SOL    HW126459   0.875   4.396  13.368
 4860SOL    HW226460   0.813   4.524  13.315
 4861SOL     OW26461   3.282   2.687  21.000
 4861SOL    HW126462   3.348   2.705  20.932
 4861SOL    HW226463   3.234   2.612  20.966
 4862SOL     OW26464   3.834   4.329   6.825
 4862SOL    HW126465   3.778   4.392   6.780
 4862SOL    HW226466   3.774   4.274   6.874
 4863SOL     OW26467   3.972   1.390   2.197
 4863SOL    HW126468   3.967   1.479   2.230
 4863SOL    HW226469   3.976   1.399   2.102
 4864SOL     OW26470   0.596   1.241   5.904
 4864SOL    HW126471   0.550   1.324   5.912
 4864SOL    HW226472   0.688   1.265   5.896
 4865SOL     OW26473   0.551   2.837   1.265
 4865SOL    HW126474   0.516   2.880   1.343
 4865SOL    HW226475   0.621   2.896   1.236
 4866SOL     OW26476   2.122   0.539   4.701
 4866SOL    HW126477   2.185   0.504   4.638
 4866SOL    HW226478   2.043   0.487   4.687
 4867SOL     OW26479   0.707   3.492  15.788
 4867SOL    HW126480   0.744   3.529  15.708
 4867SOL    HW226481   0.622   3.458  15.761
 4868SOL     OW26482   0.386   2.499   0.345
 4868SOL    HW126483   0.337   2.581   0.351
 4868SOL    HW226484   0.359   2.449   0.422
 4869SOL     OW26485   2.977   2.098   2.598
 4869SOL    HW126486   2.976   2.012   2.557
 4869SOL    HW226487   3.003   2.081   2.689
 4870SOL     OW26488   1.133   3.477   2.635
 4870SOL    HW126489   1.047   3.517   2.627
 4870SOL    HW226490   1.151   3.475   2.729
 4871SOL     OW26491   4.607   4.768   1.287
 4871SOL    HW126492   4.537   4.703   1.292
 4871SOL    HW226493   4.563   0.061   1.300
 4872SOL     OW26494   0.884   0.722  19.975
 4872SOL    HW126495   0.832   0.643  19.959
 4872SOL    HW226496   0.939   0.700  20.051
 4873SOL     OW26497   0.415   0.409   1.389
 4873SOL    HW126498   0.382   0.460   1.464
 4873SOL    HW226499   0.343   0.350   1.367
 4874SOL     OW26500   0.232   3.380  14.782
 4874SOL    HW126501   0.285   3.304  14.804
 4874SOL    HW226502   0.296   3.448  14.762
 4875SOL     OW26503   4.703   4.164  16.207
 4875SOL    HW126504   4.718   4.233  16.272
 4875SOL    HW226505   4.679   4.087  16.260
 4876SOL     OW26506   0.635   1.161  15.953
 4876SOL    HW126507   0.592   1.243  15.928
 4876SOL    HW226508   0.709   1.188  16.007
 4877SOL     OW26509   0.642   2.477   6.875
 4877SOL    HW126510   0.598   2.548   6.921
 4877SOL    HW226511   0.584   2.402   6.886
 4878SOL     OW26512   2.312   2.663   8.846
 4878SOL    HW126513   2.217   2.663   8.854
 4878SOL    HW226514   2.329   2.687   8.755
 4879SOL     OW26515   4.134   3.843  14.182
 4879SOL    HW126516   4.066   3.875  14.241
 4879SOL    HW226517   4.216   3.866  14.225
 4880SOL     OW26518   2.720   3.075  15.922
 4880SOL    HW126519   2.686   3.069  16.012
 4880SOL    HW226520   2.645   3.102  15.870
 4881SOL     OW26521   1.249   1.940   1.956
 4881SOL    HW126522   1.324   1.984   1.918
 4881SOL    HW226523   1.174   1.993   1.929
 4882SOL     OW26524   3.899   0.404   3.217
 4882SOL    HW126525   3.934   0.316   3.233
 4882SOL    HW226526   3.970   0.451   3.174
 4883SOL     OW26527   3.369   2.356   1.330
 4883SOL    HW126528   3.298   2.419   1.345
 4883SOL    HW226529   3.331   2.290   1.272
 4884SOL     OW26530   0.126   1.569   0.824
 4884SOL    HW126531   0.045   1.608   0.857
 4884SOL    HW226532   0.097   1.504   0.760
 4885SOL     OW26533   3.786   4.217   3.520
 4885SOL    HW126534   3.711   4.159   3.508
 4885SOL    HW226535   3.862   4.160   3.514
 4886SOL     OW26536   4.506   1.959  15.581
 4886SOL    HW126537   4.531   2.037  15.629
 4886SOL    HW226538   4.440   1.989  15.518
 4887SOL     OW26539   0.269   4.098   2.709
 4887SOL    HW126540   0.358   4.125   2.730
 4887SOL    HW226541   0.236   4.059   2.791
 4888SOL     OW26542   0.653   3.885   1.716
 4888SOL    HW126543   0.573   3.908   1.670
 4888SOL    HW226544   0.643   3.792   1.737
 4889SOL     OW26545   1.212   3.203  19.201
 4889SOL    HW126546   1.291   3.236  19.244
 4889SOL    HW226547   1.239   3.183  19.112
 4890SOL     OW26548   0.550   2.243  19.113
 4890SOL    HW126549   0.552   2.338  19.102
 4890SOL    HW226550   0.619   2.210  19.055
 4891SOL     OW26551   3.717   0.660   5.805
 4891SOL    HW126552   3.630   0.678   5.842
 4891SOL    HW226553   3.778   0.688   5.873
 4892SOL     OW26554   1.037   2.562  19.729
 4892SOL    HW126555   1.049   2.508  19.808
 4892SOL    HW226556   1.088   2.641  19.746
 4893SOL     OW26557   2.533   2.031  17.838
 4893SOL    HW126558   2.581   2.063  17.915
 4893SOL    HW226559   2.595   1.974  17.793
 4894SOL     OW26560   0.425   3.169  20.331
 4894SOL    HW126561   0.336   3.133  20.327
 4894SOL    HW226562   0.454   3.150  20.420
 4895SOL     OW26563   3.682   0.280  18.117
 4895SOL    HW126564   3.671   0.272  18.022
 4895SOL    HW226565   3.642   0.365  18.138
 4896SOL     OW26566   0.990   2.533  16.737
 4896SOL    HW126567   1.033   2.465  16.685
 4896SOL    HW226568   1.060   2.595  16.758
 4897SOL     OW26569   4.354   4.352   0.796
 4897SOL    HW126570   4.369   4.283   0.860
 4897SOL    HW226571   4.289   4.316   0.736
 4898SOL     OW26572   0.249   4.265  15.899
 4898SOL    HW126573   0.163   4.279  15.937
 4898SOL    HW226574   0.250   4.173  15.874
 4899SOL     OW26575   0.211   3.268  17.205
 4899SOL    HW126576   0.268   3.200  17.169
 4899SOL    HW226577   0.236   3.274  17.298
 4900SOL     OW26578   3.840   2.560  19.645
 4900SOL    HW126579   3.847   2.652  19.619
 4900SOL    HW226580   3.929   2.525  19.635
 4901SOL     OW26581   0.210   0.880  19.033
 4901SOL    HW126582   0.241   0.930  18.957
 4901SOL    HW226583   0.214   0.942  19.105
 4902SOL     OW26584   2.823   1.644   4.510
 4902SOL    HW126585   2.792   1.582   4.444
 4902SOL    HW226586   2.918   1.648   4.496
 4903SOL     OW26587   1.569   2.586  21.022
 4903SOL    HW126588   1.511   2.659  21.045
 4903SOL    HW226589   1.630   2.579  21.095
 4904SOL     OW26590   2.040   0.810   2.838
 4904SOL    HW126591   2.105   0.744   2.862
 4904SOL    HW226592   2.090   0.892   2.834
 4905SOL     OW26593   0.874   0.570  20.799
 4905SOL    HW126594   0.828   0.650  20.824
 4905SOL    HW226595   0.814   0.524  20.741
 4906SOL     OW26596   2.655   3.519   3.321
 4906SOL    HW126597   2.579   3.468   3.350
 4906SOL    HW226598   2.720   3.453   3.296
 4907SOL     OW26599   3.515   4.340  18.009
 4907SOL    HW126600   3.592   4.389  18.039
 4907SOL    HW226601   3.444   4.404  18.010
 4908SOL     OW26602   3.530   0.500   1.322
 4908SOL    HW126603   3.470   0.425   1.317
 4908SOL    HW226604   3.592   0.485   1.251
 4909SOL     OW26605   2.812   3.303  20.942
 4909SOL    HW126606   2.811   3.275  21.034
 4909SOL    HW226607   2.879   3.248  20.901
 4910SOL     OW26608   1.401   0.861  14.057
 4910SOL    HW126609   1.406   0.942  14.108
 4910SOL    HW226610   1.318   0.867  14.010
 4911SOL     OW26611   1.899   3.312  20.242
 4911SOL    HW126612   1.990   3.310  20.268
 4911SOL    HW226613   1.853   3.260  20.307
 4912SOL     OW26614   3.618   4.028   1.851
 4912SOL    HW126615   3.658   3.963   1.909
 4912SOL    HW226616   3.529   4.038   1.885
 4913SOL     OW26617   3.254   2.978  17.955
 4913SOL    HW126618   3.185   3.025  18.002
 4913SOL    HW226619   3.287   3.041  17.891
 4914SOL     OW26620   0.118   0.962   1.472
 4914SOL    HW126621   0.129   0.898   1.401
 4914SOL    HW226622   0.202   1.007   1.478
 4915SOL     OW26623   3.052   2.085  20.750
 4915SOL    HW126624   3.087   2.173  20.734
 4915SOL    HW226625   2.963   2.089  20.715
 4916SOL     OW26626   2.772   1.869   4.850
 4916SOL    HW126627   2.827   1.804   4.895
 4916SOL    HW226628   2.770   1.840   4.759
 4917SOL     OW26629   1.111   4.641  17.980
 4917SOL    HW126630   1.029   4.648  18.030
 4917SOL    HW226631   1.149   4.729  17.983
 4918SOL     OW26632   1.242   0.783  17.207
 4918SOL    HW126633   1.254   0.773  17.302
 4918SOL    HW226634   1.147   0.786  17.195
 4919SOL     OW26635   1.748   0.970  13.553
 4919SOL    HW126636   1.727   0.927  13.636
 4919SOL    HW226637   1.699   0.921  13.487
 4920SOL     OW26638   1.509   2.166   5.790
 4920SOL    HW126639   1.434   2.121   5.751
 4920SOL    HW226640   1.513   2.250   5.745
 4921SOL     OW26641   1.917   0.785   5.876
 4921SOL    HW126642   1.985   0.839   5.918
 4921SOL    HW226643   1.844   0.845   5.863
 4922SOL     OW26644   0.591   4.088  19.250
 4922SOL    HW126645   0.576   4.179  19.275
 4922SOL    HW226646   0.508   4.059  19.212
 4923SOL     OW26647   2.259   4.555  16.504
 4923SOL    HW126648   2.314   4.520  16.434
 4923SOL    HW226649   2.176   4.508  16.496
 4924SOL     OW26650   4.478   4.765  20.240
 4924SOL    HW126651   4.529   0.054  20.250
 4924SOL    HW226652   4.527   4.713  20.177
 4925SOL     OW26653   4.790   2.381  16.140
 4925SOL    HW126654   4.759   2.402  16.052
 4925SOL    HW226655   4.749   2.447  16.196
 4926SOL     OW26656   0.650   3.799   5.412
 4926SOL    HW126657   0.700   3.718   5.426
 4926SOL    HW226658   0.559   3.773   5.427
 4927SOL     OW26659   4.213   0.080  19.090
 4927SOL    HW126660   4.210   0.094  18.996
 4927SOL    HW226661   4.284   0.137  19.120
 4928SOL     OW26662   4.395   0.879  19.012
 4928SOL    HW126663   4.341   0.800  19.003
 4928SOL    HW226664   4.357   0.941  18.949
 4929SOL     OW26665   1.376   4.286   0.204
 4929SOL    HW126666   1.448   4.322   0.152
 4929SOL    HW226667   1.304   4.278   0.141
 4930SOL     OW26668   1.213   0.691   3.583
 4930SOL    HW126669   1.135   0.728   3.625
 4930SOL    HW226670   1.267   0.661   3.656
 4931SOL     OW26671   3.512   3.123   1.119
 4931SOL    HW126672   3.437   3.066   1.140
 4931SOL    HW226673   3.587   3.080   1.160
 4932SOL     OW26674   2.697   0.234  16.609
 4932SOL    HW126675   2.673   0.141  16.612
 4932SOL    HW226676   2.699   0.262  16.701
 4933SOL     OW26677   0.928   1.810  14.655
 4933SOL    HW126678   1.021   1.819  14.635
 4933SOL    HW226679   0.921   1.833  14.748
 4934SOL     OW26680   2.487   0.707  20.547
 4934SOL    HW126681   2.403   0.689  20.505
 4934SOL    HW226682   2.503   0.631  20.603
 4935SOL     OW26683   1.475   4.789  20.887
 4935SOL    HW126684   1.549   0.047  20.924
 4935SOL    HW226685   1.421   0.064  20.843
 4936SOL     OW26686   3.627   2.740   2.144
 4936SOL    HW126687   3.698   2.686   2.110
 4936SOL    HW226688   3.652   2.829   2.120
 4937SOL     OW26689   2.628   0.981   6.141
 4937SOL    HW126690   2.634   1.077   6.148
 4937SOL    HW226691   2.718   0.953   6.121
 4938SOL     OW26692   1.239   1.700  21.263
 4938SOL    HW126693   1.261   1.701   0.093
 4938SOL    HW226694   1.263   1.787  21.231
 4939SOL     OW26695   4.527   3.182   4.797
 4939SOL    HW126696   4.460   3.151   4.737
 4939SOL    HW226697   4.609   3.177   4.747
 4940SOL     OW26698   3.437   2.570   2.781
 4940SOL    HW126699   3.496   2.506   2.820
 4940SOL    HW226700   3.349   2.535   2.795
 4941SOL     OW26701   2.497   2.519  15.250
 4941SOL    HW126702   2.558   2.536  15.321
 4941SOL    HW226703   2.411   2.544  15.285
 4942SOL     OW26704   3.448   0.498   8.342
 4942SOL    HW126705   3.477   0.415   8.304
 4942SOL    HW226706   3.472   0.492   8.434
 4943SOL     OW26707   4.326   0.884  19.362
 4943SOL    HW126708   4.346   0.813  19.300
 4943SOL    HW226709   4.247   0.854  19.407
 4944SOL     OW26710   4.351   0.036   4.229
 4944SOL    HW126711   4.396   0.070   4.306
 4944SOL    HW226712   4.409   0.058   4.156
 4945SOL     OW26713   1.209   4.505  20.046
 4945SOL    HW126714   1.131   4.482  19.997
 4945SOL    HW226715   1.213   4.601  20.042
 4946SOL     OW26716   3.864   1.391  19.469
 4946SOL    HW126717   3.927   1.406  19.399
 4946SOL    HW226718   3.916   1.389  19.549
 4947SOL     OW26719   4.460   2.548   0.914
 4947SOL    HW126720   4.535   2.497   0.883
 4947SOL    HW226721   4.498   2.615   0.970
 4948SOL     OW26722   1.920   4.689   5.389
 4948SOL    HW126723   1.898   4.781   5.402
 4948SOL    HW226724   1.840   4.649   5.355
 4949SOL     OW26725   2.912   4.205   2.594
 4949SOL    HW126726   2.853   4.253   2.537
 4949SOL    HW226727   2.872   4.210   2.681
 4950SOL     OW26728   1.870   3.836  16.986
 4950SOL    HW126729   1.881   3.836  16.891
 4950SOL    HW226730   1.783   3.874  17.000
 4951SOL     OW26731   2.296   0.402   8.031
 4951SOL    HW126732   2.299   0.383   8.125
 4951SOL    HW226733   2.386   0.428   8.010
 4952SOL     OW26734   3.508   0.205   3.719
 4952SOL    HW126735   3.435   0.153   3.684
 4952SOL    HW226736   3.474   0.240   3.802
 4953SOL     OW26737   0.538   1.658   1.075
 4953SOL    HW126738   0.619   1.619   1.043
 4953SOL    HW226739   0.545   1.654   1.170
 4954SOL     OW26740   0.202   2.375  18.032
 4954SOL    HW126741   0.205   2.444  18.098
 4954SOL    HW226742   0.233   2.297  18.077
 4955SOL     OW26743   1.920   2.134  16.587
 4955SOL    HW126744   1.949   2.112  16.499
 4955SOL    HW226745   1.928   2.052  16.636
 4956SOL     OW26746   3.034   2.138   0.696
 4956SOL    HW126747   3.049   2.047   0.724
 4956SOL    HW226748   2.948   2.159   0.731
 4957SOL     OW26749   0.947   1.635  17.374
 4957SOL    HW126750   0.997   1.652  17.294
 4957SOL    HW226751   0.884   1.707  17.378
 4958SOL     OW26752   4.330   4.222  15.366
 4958SOL    HW126753   4.252   4.171  15.343
 4958SOL    HW226754   4.324   4.301  15.313
 4959SOL     OW26755   0.868   0.931  21.030
 4959SOL    HW126756   0.777   0.899  21.035
 4959SOL    HW226757   0.904   0.885  20.954
 4960SOL     OW26758   2.988   3.097   0.704
 4960SOL    HW126759   2.937   3.178   0.702
 4960SOL    HW226760   3.066   3.116   0.652
 4961SOL     OW26761   0.502   2.060   5.005
 4961SOL    HW126762   0.552   2.028   4.930
 4961SOL    HW226763   0.469   2.145   4.977
 4962SOL     OW26764   0.126   0.453   8.461
 4962SOL    HW126765   0.201   0.394   8.456
 4962SOL    HW226766   0.075   0.420   8.535
 4963SOL     OW26767   3.403   1.290   4.427
 4963SOL    HW126768   3.392   1.353   4.498
 4963SOL    HW226769   3.410   1.344   4.348
 4964SOL     OW26770   3.235   2.616   2.582
 4964SOL    HW126771   3.160   2.626   2.640
 4964SOL    HW226772   3.309   2.598   2.641
 4965SOL     OW26773   4.480   0.471   3.094
 4965SOL    HW126774   4.409   0.461   3.158
 4965SOL    HW226775   4.515   0.559   3.110
 4966SOL     OW26776   3.714   1.581   4.294
 4966SOL    HW126777   3.789   1.606   4.349
 4966SOL    HW226778   3.639   1.585   4.352
 4967SOL     OW26779   2.202   3.304   5.608
 4967SOL    HW126780   2.225   3.397   5.609
 4967SOL    HW226781   2.201   3.280   5.515
 4968SOL     OW26782   1.189   2.233   2.266
 4968SOL    HW126783   1.220   2.206   2.353
 4968SOL    HW226784   1.260   2.288   2.232
 4969SOL     OW26785   1.559   0.334   5.727
 4969SOL    HW126786   1.586   0.263   5.784
 4969SOL    HW226787   1.479   0.368   5.768
 4970SOL     OW26788   2.388   0.861  17.272
 4970SOL    HW126789   2.364   0.796  17.206
 4970SOL    HW226790   2.355   0.824  17.354
 4971SOL     OW26791   4.549   4.433  16.172
 4971SOL    HW126792   4.467   4.387  16.189
 4971SOL    HW226793   4.605   4.410  16.246
 4972SOL     OW26794   0.664   3.797  15.783
 4972SOL    HW126795   0.677   3.868  15.720
 4972SOL    HW226796   0.709   3.722  15.744
 4973SOL     OW26797   3.688   1.859  15.859
 4973SOL    HW126798   3.686   1.796  15.787
 4973SOL    HW226799   3.649   1.939  15.822
 4974SOL     OW26800   1.750   3.123   1.564
 4974SOL    HW126801   1.811   3.160   1.627
 4974SOL    HW226802   1.678   3.088   1.617
 4975SOL     OW26803   2.739   3.990  14.142
 4975SOL    HW126804   2.655   3.944  14.137
 4975SOL    HW226805   2.769   3.974  14.232
 4976SOL     OW26806   1.165   0.471  13.865
 4976SOL    HW126807   1.169   0.549  13.810
 4976SOL    HW226808   1.103   0.493  13.934
 4977SOL     OW26809   4.742   2.308   2.499
 4977SOL    HW126810   4.725   2.217   2.522
 4977SOL    HW226811   4.697   2.358   2.567
 4978SOL     OW26812   4.002   2.547   2.596
 4978SOL    HW126813   4.075   2.596   2.634
 4978SOL    HW226814   3.969   2.493   2.668
 4979SOL     OW26815   4.757   2.316   2.035
 4979SOL    HW126816   4.752   2.261   1.957
 4979SOL    HW226817   0.042   2.372   2.020
 4980SOL     OW26818   1.502   4.696   6.455
 4980SOL    HW126819   1.501   4.726   6.546
 4980SOL    HW226820   1.435   4.628   6.451
 4981SOL     OW26821   4.426   2.215  15.951
 4981SOL    HW126822   4.485   2.140  15.961
 4981SOL    HW226823   4.410   2.221  15.857
 4982SOL     OW26824   1.846   2.596  19.580
 4982SOL    HW126825   1.831   2.569  19.489
 4982SOL    HW226826   1.761   2.583  19.623
 4983SOL     OW26827   0.830   2.692   2.267
 4983SOL    HW126828   0.796   2.652   2.347
 4983SOL    HW226829   0.864   2.777   2.296
 4984SOL     OW26830   1.952   3.937  18.709
 4984SOL    HW126831   2.038   3.966  18.680
 4984SOL    HW226832   1.930   3.994  18.783
 4985SOL     OW26833   0.238   0.292   2.712
 4985SOL    HW126834   0.174   0.360   2.690
 4985SOL    HW226835   0.222   0.273   2.804
 4986SOL     OW26836   2.771   2.532   5.536
 4986SOL    HW126837   2.836   2.505   5.470
 4986SOL    HW226838   2.687   2.514   5.495
 4987SOL     OW26839   3.674   4.042  19.823
 4987SOL    HW126840   3.765   4.030  19.794
 4987SOL    HW226841   3.625   4.055  19.743
 4988SOL     OW26842   3.038   0.565  16.376
 4988SOL    HW126843   3.003   0.640  16.424
 4988SOL    HW226844   2.988   0.490  16.408
 4989SOL     OW26845   1.652   0.008   1.154
 4989SOL    HW126846   1.707   4.739   1.103
 4989SOL    HW226847   1.568   0.008   1.108
 4990SOL     OW26848   0.612   0.494  13.513
 4990SOL    HW126849   0.591   0.406  13.545
 4990SOL    HW226850   0.533   0.545  13.531
 4991SOL     OW26851   0.707   0.457  16.307
 4991SOL    HW126852   0.693   0.547  16.337
 4991SOL    HW226853   0.788   0.462  16.255
 4992SOL     OW26854   3.696   4.187  15.747
 4992SOL    HW126855   3.706   4.108  15.694
 4992SOL    HW226856   3.776   4.190  15.800
 4993SOL     OW26857   2.423   2.145   0.957
 4993SOL    HW126858   2.509   2.185   0.970
 4993SOL    HW226859   2.364   2.195   1.013
 4994SOL     OW26860   1.926   1.784  19.941
 4994SOL    HW126861   1.986   1.842  19.895
 4994SOL    HW226862   1.878   1.841  20.001
 4995SOL     OW26863   2.959   4.470  18.850
 4995SOL    HW126864   3.042   4.511  18.824
 4995SOL    HW226865   2.970   4.378  18.828
 4996SOL     OW26866   2.701   1.384   7.910
 4996SOL    HW126867   2.641   1.456   7.891
 4996SOL    HW226868   2.730   1.400   8.000
 4997SOL     OW26869   2.071   1.153   6.154
 4997SOL    HW126870   2.138   1.107   6.205
 4997SOL    HW226871   2.120   1.219   6.105
 4998SOL     OW26872   1.533   1.443  20.414
 4998SOL    HW126873   1.600   1.504  20.383
 4998SOL    HW226874   1.582   1.377  20.463
 4999SOL     OW26875   2.414   2.514   7.928
 4999SOL    HW126876   2.426   2.601   7.890
 4999SOL    HW226877   2.324   2.514   7.960
 5000SOL     OW26878   2.389   1.703   4.794
 5000SOL    HW126879   2.469   1.737   4.754
 5000SOL    HW226880   2.412   1.692   4.887
 5001SOL     OW26881   3.612   2.513   0.651
 5001SOL    HW126882   3.651   2.435   0.613
 5001SOL    HW226883   3.523   2.515   0.617
 5002SOL     OW26884   0.358   1.031   4.899
 5002SOL    HW126885   0.426   0.995   4.841
 5002SOL    HW226886   0.292   0.962   4.905
 5003SOL     OW26887   1.201   0.978   5.328
 5003SOL    HW126888   1.131   1.042   5.336
 5003SOL    HW226889   1.160   0.894   5.349
 5004SOL     OW26890   2.039   1.669  16.572
 5004SOL    HW126891   1.989   1.638  16.496
 5004SOL    HW226892   2.002   1.755  16.590
 5005SOL     OW26893   1.224   1.113   2.025
 5005SOL    HW126894   1.260   1.026   2.039
 5005SOL    HW226895   1.295   1.162   1.982
 5006SOL     OW26896   3.113   1.599  16.451
 5006SOL    HW126897   3.044   1.534  16.446
 5006SOL    HW226898   3.081   1.664  16.513
 5007SOL     OW26899   2.504   1.649  18.525
 5007SOL    HW126900   2.590   1.609  18.516
 5007SOL    HW226901   2.455   1.587  18.579
 5008SOL     OW26902   1.120   1.542   5.171
 5008SOL    HW126903   1.117   1.490   5.252
 5008SOL    HW226904   1.154   1.627   5.199
 5009SOL     OW26905   3.187   4.395   2.921
 5009SOL    HW126906   3.193   4.481   2.880
 5009SOL    HW226907   3.266   4.349   2.892
 5010SOL     OW26908   2.294   2.152  14.588
 5010SOL    HW126909   2.387   2.138  14.607
 5010SOL    HW226910   2.291   2.237  14.544
 5011SOL     OW26911   3.039   2.692  19.493
 5011SOL    HW126912   3.023   2.681  19.400
 5011SOL    HW226913   2.952   2.700  19.532
 5012SOL     OW26914   3.779   2.579   5.759
 5012SOL    HW126915   3.707   2.576   5.696
 5012SOL    HW226916   3.839   2.645   5.724
 5013SOL     OW26917   2.688   0.138   1.121
 5013SOL    HW126918   2.604   0.106   1.152
 5013SOL    HW226919   2.691   0.114   1.029
 5014SOL     OW26920   2.318   3.069  19.798
 5014SOL    HW126921   2.408   3.103  19.794
 5014SOL    HW226922   2.282   3.106  19.878
 5015SOL     OW26923   1.714   3.797  17.611
 5015SOL    HW126924   1.738   3.784  17.519
 5015SOL    HW226925   1.622   3.823  17.608
 5016SOL     OW26926   1.273   1.306   3.355
 5016SOL    HW126927   1.319   1.234   3.397
 5016SOL    HW226928   1.282   1.288   3.261
 5017SOL     OW26929   2.328   0.397  20.172
 5017SOL    HW126930   2.299   0.330  20.234
 5017SOL    HW226931   2.252   0.411  20.115
 5018SOL     OW26932   3.913   3.031   4.633
 5018SOL    HW126933   3.901   2.952   4.684
 5018SOL    HW226934   3.843   3.090   4.662
 5019SOL     OW26935   0.957   4.030  16.418
 5019SOL    HW126936   0.966   4.099  16.353
 5019SOL    HW226937   0.866   4.037  16.447
 5020SOL     OW26938   2.086   0.116  18.112
 5020SOL    HW126939   2.035   0.139  18.035
 5020SOL    HW226940   2.068   0.185  18.175
 5021SOL     OW26941   0.506   0.923   3.757
 5021SOL    HW126942   0.441   0.892   3.820
 5021SOL    HW226943   0.521   1.015   3.781
 5022SOL     OW26944   4.030   2.207   2.946
 5022SOL    HW126945   3.995   2.221   3.034
 5022SOL    HW226946   4.068   2.119   2.949
 5023SOL     OW26947   4.637   0.261  15.090
 5023SOL    HW126948   4.688   0.195  15.137
 5023SOL    HW226949   4.577   0.210  15.035
 5024SOL     OW26950   1.963   3.636   2.481
 5024SOL    HW126951   1.896   3.627   2.548
 5024SOL    HW226952   2.034   3.684   2.525
 5025SOL     OW26953   3.129   1.291  17.582
 5025SOL    HW126954   3.218   1.261  17.601
 5025SOL    HW226955   3.086   1.293  17.667
 5026SOL     OW26956   1.577   1.166  20.813
 5026SOL    HW126957   1.667   1.170  20.780
 5026SOL    HW226958   1.582   1.111  20.890
 5027SOL     OW26959   0.928   1.937  20.504
 5027SOL    HW126960   1.024   1.937  20.498
 5027SOL    HW226961   0.909   1.996  20.578
 5028SOL     OW26962   3.510   1.773  19.150
 5028SOL    HW126963   3.498   1.786  19.244
 5028SOL    HW226964   3.603   1.753  19.140
 5029SOL     OW26965   2.853   4.321  14.478
 5029SOL    HW126966   2.885   4.365  14.557
 5029SOL    HW226967   2.808   4.243  14.510
 5030SOL     OW26968   1.697   4.344  16.613
 5030SOL    HW126969   1.653   4.262  16.590
 5030SOL    HW226970   1.783   4.317  16.644
 5031SOL     OW26971   1.601   2.361   1.730
 5031SOL    HW126972   1.544   2.430   1.763
 5031SOL    HW226973   1.600   2.372   1.635
 5032SOL     OW26974   2.035   3.919   1.875
 5032SOL    HW126975   1.947   3.943   1.903
 5032SOL    HW226976   2.043   3.954   1.786
 5033SOL     OW26977   2.693   3.598   2.941
 5033SOL    HW126978   2.679   3.691   2.925
 5033SOL    HW226979   2.752   3.595   3.016
 5034SOL     OW26980   0.824   0.849  20.762
 5034SOL    HW126981   0.735   0.874  20.735
 5034SOL    HW226982   0.881   0.885  20.695
 5035SOL     OW26983   0.101   1.087  19.182
 5035SOL    HW126984   0.068   1.169  19.146
 5035SOL    HW226985   0.074   1.089  19.274
 5036SOL     OW26986   1.548   1.534  16.315
 5036SOL    HW126987   1.458   1.564  16.332
 5036SOL    HW226988   1.552   1.447  16.356
 5037SOL     OW26989   4.046   3.797   3.614
 5037SOL    HW126990   4.120   3.741   3.588
 5037SOL    HW226991   3.969   3.744   3.594
 5038SOL     OW26992   3.909   2.876   7.736
 5038SOL    HW126993   3.899   2.903   7.645
 5038SOL    HW226994   3.875   2.949   7.787
 5039SOL     OW26995   4.167   2.541  15.617
 5039SOL    HW126996   4.074   2.563  15.623
 5039SOL    HW226997   4.180   2.517  15.525
 5040SOL     OW26998   0.368   2.534  17.834
 5040SOL    HW126999   0.346   2.627  17.848
 5040SOL    HW227000   0.318   2.488  17.901
 5041SOL     OW27001   2.577   3.008   3.662
 5041SOL    HW127002   2.598   3.005   3.569
 5041SOL    HW227003   2.496   3.058   3.668
 5042SOL     OW27004   0.273   0.026   7.223
 5042SOL    HW127005   0.296   4.725   7.234
 5042SOL    HW227006   0.182   0.032   7.253
 5043SOL     OW27007   2.606   4.282   1.793
 5043SOL    HW127008   2.584   4.375   1.793
 5043SOL    HW227009   2.538   4.240   1.845
 5044SOL     OW27010   3.650   0.904   6.476
 5044SOL    HW127011   3.556   0.918   6.481
 5044SOL    HW227012   3.688   0.978   6.525
 5045SOL     OW27013   0.736   2.526  19.705
 5045SOL    HW127014   0.830   2.524  19.684
 5045SOL    HW227015   0.732   2.571  19.789
 5046SOL     OW27016   0.483   1.338   4.048
 5046SOL    HW127017   0.397   1.347   4.089
 5046SOL    HW227018   0.546   1.355   4.118
 5047SOL     OW27019   4.629   3.089   7.704
 5047SOL    HW127020   4.629   3.120   7.613
 5047SOL    HW227021   4.653   2.997   7.699
 5048SOL     OW27022   1.785   1.339  19.090
 5048SOL    HW127023   1.766   1.414  19.035
 5048SOL    HW227024   1.862   1.298  19.049
 5049SOL     OW27025   2.862   1.622   6.338
 5049SOL    HW127026   2.918   1.696   6.364
 5049SOL    HW227027   2.773   1.652   6.358
 5050SOL     OW27028   2.014   4.388  14.986
 5050SOL    HW127029   2.081   4.333  15.026
 5050SOL    HW227030   1.970   4.332  14.923
 5051SOL     OW27031   3.690   0.620  14.278
 5051SOL    HW127032   3.775   0.661  14.264
 5051SOL    HW227033   3.678   0.624  14.373
 5052SOL     OW27034   2.041   4.601   9.030
 5052SOL    HW127035   2.087   4.581   9.112
 5052SOL    HW227036   1.958   4.554   9.037
 5053SOL     OW27037   3.249   3.627  11.899
 5053SOL    HW127038   3.204   3.711  11.907
 5053SOL    HW227039   3.321   3.645  11.839
 5054SOL     OW27040   3.371   1.797   0.690
 5054SOL    HW127041   3.306   1.813   0.621
 5054SOL    HW227042   3.450   1.772   0.643
 5055SOL     OW27043   2.899   1.493  13.652
 5055SOL    HW127044   2.876   1.403  13.674
 5055SOL    HW227045   2.881   1.501  13.558
 5056SOL     OW27046   2.437   2.440  14.699
 5056SOL    HW127047   2.493   2.369  14.732
 5056SOL    HW227048   2.446   2.510  14.764
 5057SOL     OW27049   3.689   1.245   5.946
 5057SOL    HW127050   3.754   1.197   5.895
 5057SOL    HW227051   3.708   1.222   6.037
 5058SOL     OW27052   2.252   0.846  18.111
 5058SOL    HW127053   2.175   0.859  18.055
 5058SOL    HW227054   2.323   0.829  18.050
 5059SOL     OW27055   4.148   0.102  20.506
 5059SOL    HW127056   4.231   0.061  20.530
 5059SOL    HW227057   4.155   0.192  20.538
 5060SOL     OW27058   2.316   4.730  17.605
 5060SOL    HW127059   2.389   4.722  17.543
 5060SOL    HW227060   2.238   4.716  17.552
 5061SOL     OW27061   2.290   1.127   6.338
 5061SOL    HW127062   2.215   1.147   6.394
 5061SOL    HW227063   2.364   1.119   6.398
 5062SOL     OW27064   1.335   0.393   3.205
 5062SOL    HW127065   1.373   0.319   3.158
 5062SOL    HW227066   1.374   0.390   3.292
 5063SOL     OW27067   0.868   4.536  16.882
 5063SOL    HW127068   0.868   4.445  16.855
 5063SOL    HW227069   0.839   4.535  16.973
 5064SOL     OW27070   0.476   1.981   6.122
 5064SOL    HW127071   0.494   1.898   6.166
 5064SOL    HW227072   0.562   2.018   6.104
 5065SOL     OW27073   0.305   3.551   3.949
 5065SOL    HW127074   0.355   3.487   3.900
 5065SOL    HW227075   0.338   3.544   4.038
 5066SOL     OW27076   1.414   1.081  12.965
 5066SOL    HW127077   1.369   1.019  13.023
 5066SOL    HW227078   1.354   1.092  12.891
 5067SOL     OW27079   3.882   1.964   0.572
 5067SOL    HW127080   3.907   2.019   0.646
 5067SOL    HW227081   3.921   1.879   0.591
 5068SOL     OW27082   0.417   4.338  15.322
 5068SOL    HW127083   0.325   4.321  15.340
 5068SOL    HW227084   0.446   4.394  15.394
 5069SOL     OW27085   3.287   2.108   7.080
 5069SOL    HW127086   3.317   2.066   7.160
 5069SOL    HW227087   3.256   2.035   7.025
 5070SOL     OW27088   3.883   0.588  20.028
 5070SOL    HW127089   3.936   0.537  20.088
 5070SOL    HW227090   3.794   0.583  20.064
 5071SOL     OW27091   0.622   0.107   5.933
 5071SOL    HW127092   0.592   0.181   5.880
 5071SOL    HW227093   0.662   0.047   5.870
 5072SOL     OW27094   1.005   3.445   3.097
 5072SOL    HW127095   0.944   3.400   3.154
 5072SOL    HW227096   1.007   3.535   3.129
 5073SOL     OW27097   4.477   2.880   0.647
 5073SOL    HW127098   4.542   2.922   0.702
 5073SOL    HW227099   4.498   2.908   0.558
 5074SOL     OW27100   1.472   0.956  21.008
 5074SOL    HW127101   1.437   0.909  20.933
 5074SOL    HW227102   1.395   0.987  21.055
 5075SOL     OW27103   1.493   1.573  21.065
 5075SOL    HW127104   1.455   1.550  21.150
 5075SOL    HW227105   1.587   1.580  21.083
 5076SOL     OW27106   0.782   2.711  14.697
 5076SOL    HW127107   0.693   2.745  14.695
 5076SOL    HW227108   0.772   2.616  14.685
 5077SOL     OW27109   1.019   2.825  17.731
 5077SOL    HW127110   1.094   2.882  17.716
 5077SOL    HW227111   1.053   2.737  17.723
 5078SOL     OW27112   2.659   1.180  19.247
 5078SOL    HW127113   2.658   1.152  19.338
 5078SOL    HW227114   2.711   1.114  19.202
 5079SOL     OW27115   0.746   1.192  17.632
 5079SOL    HW127116   0.781   1.272  17.673
 5079SOL    HW227117   0.669   1.221  17.584
 5080SOL     OW27118   0.359   0.454   3.866
 5080SOL    HW127119   0.370   0.463   3.961
 5080SOL    HW227120   0.348   0.360   3.852
 5081SOL     OW27121   3.587   1.407   1.304
 5081SOL    HW127122   3.528   1.442   1.238
 5081SOL    HW227123   3.663   1.465   1.301
 5082SOL     OW27124   0.852   1.298   0.481
 5082SOL    HW127125   0.844   1.204   0.496
 5082SOL    HW227126   0.817   1.311   0.393
 5083SOL     OW27127   0.116   0.075   1.147
 5083SOL    HW127128   0.036   0.034   1.179
 5083SOL    HW227129   0.120   0.052   1.054
 5084SOL     OW27130   1.998   4.312  15.884
 5084SOL    HW127131   1.973   4.384  15.942
 5084SOL    HW227132   1.978   4.343  15.796
 5085SOL     OW27133   2.713   2.712   8.149
 5085SOL    HW127134   2.757   2.784   8.103
 5085SOL    HW227135   2.619   2.731   8.139
 5086SOL     OW27136   1.510   0.171  15.189
 5086SOL    HW127137   1.495   0.260  15.157
 5086SOL    HW227138   1.575   0.134  15.130
 5087SOL     OW27139   3.620   4.034   6.447
 5087SOL    HW127140   3.680   3.988   6.388
 5087SOL    HW227141   3.549   3.971   6.462
 5088SOL     OW27142   4.488   4.565   0.605
 5088SOL    HW127143   4.411   4.532   0.652
 5088SOL    HW227144   4.558   4.565   0.670
 5089SOL     OW27145   1.177   3.603   2.085
 5089SOL    HW127146   1.194   3.632   1.996
 5089SOL    HW227147   1.257   3.557   2.111
 5090SOL     OW27148   2.685   2.231  16.118
 5090SOL    HW127149   2.745   2.242  16.193
 5090SOL    HW227150   2.637   2.313  16.113
 5091SOL     OW27151   0.881   4.018  20.339
 5091SOL    HW127152   0.926   4.076  20.400
 5091SOL    HW227153   0.803   3.989  20.386
 5092SOL     OW27154   4.650   3.294   0.831
 5092SOL    HW127155   4.704   3.217   0.818
 5092SOL    HW227156   4.587   3.292   0.760
 5093SOL     OW27157   1.126   1.368  17.562
 5093SOL    HW127158   1.044   1.380  17.611
 5093SOL    HW227159   1.102   1.307  17.491
 5094SOL     OW27160   4.041   3.112   3.251
 5094SOL    HW127161   4.125   3.156   3.237
 5094SOL    HW227162   4.045   3.033   3.197
 5095SOL     OW27163   4.745   0.323  16.182
 5095SOL    HW127164   0.015   0.396  16.171
 5095SOL    HW227165   4.679   0.356  16.243
 5096SOL     OW27166   2.579   3.685  15.456
 5096SOL    HW127167   2.572   3.639  15.373
 5096SOL    HW227168   2.617   3.770  15.434
 5097SOL     OW27169   3.674   0.346  18.855
 5097SOL    HW127170   3.624   0.265  18.841
 5097SOL    HW227171   3.613   0.416  18.830
 5098SOL     OW27172   2.450   2.821  15.394
 5098SOL    HW127173   2.513   2.801  15.463
 5098SOL    HW227174   2.379   2.758  15.407
 5099SOL     OW27175   0.105   4.669  20.805
 5099SOL    HW127176   0.023   4.620  20.815
 5099SOL    HW227177   0.134   4.649  20.716
 5100SOL     OW27178   0.197   3.330  21.140
 5100SOL    HW127179   0.241   3.323  21.224
 5100SOL    HW227180   0.180   3.423  21.129
 5101SOL     OW27181   4.637   1.710   6.579
 5101SOL    HW127182   4.700   1.641   6.599
 5101SOL    HW227183   4.632   1.762   6.659
 5102SOL     OW27184   2.204   3.721   2.642
 5102SOL    HW127185   2.250   3.718   2.558
 5102SOL    HW227186   2.166   3.634   2.652
 5103SOL     OW27187   1.744   4.073   4.490
 5103SOL    HW127188   1.749   3.978   4.479
 5103SOL    HW227189   1.668   4.087   4.547
 5104SOL     OW27190   3.924   0.323   0.190
 5104SOL    HW127191   4.020   0.326   0.184
 5104SOL    HW227192   3.895   0.323   0.099
 5105SOL     OW27193   3.769   4.453   1.647
 5105SOL    HW127194   3.782   4.376   1.703
 5105SOL    HW227195   3.821   4.435   1.569
 5106SOL     OW27196   0.416   1.734  13.977
 5106SOL    HW127197   0.455   1.802  13.921
 5106SOL    HW227198   0.408   1.776  14.063
 5107SOL     OW27199   3.793   2.612  18.440
 5107SOL    HW127200   3.754   2.561  18.369
 5107SOL    HW227201   3.739   2.691  18.444
 5108SOL     OW27202   1.094   0.753   4.721
 5108SOL    HW127203   1.103   0.673   4.774
 5108SOL    HW227204   1.124   0.727   4.634
 5109SOL     OW27205   2.893   4.384  20.811
 5109SOL    HW127206   2.952   4.313  20.835
 5109SOL    HW227207   2.838   4.396  20.888
 5110SOL     OW27208   1.351   0.503   4.527
 5110SOL    HW127209   1.334   0.417   4.487
 5110SOL    HW227210   1.273   0.555   4.507
 5111SOL     OW27211   3.629   3.304   0.098
 5111SOL    HW127212   3.594   3.256   0.024
 5111SOL    HW227213   3.658   3.237   0.159
 5112SOL     OW27214   0.543   2.159   3.418
 5112SOL    HW127215   0.619   2.148   3.474
 5112SOL    HW227216   0.545   2.251   3.392
 5113SOL     OW27217   0.895   4.176  20.119
 5113SOL    HW127218   0.960   4.136  20.060
 5113SOL    HW227219   0.893   4.119  20.195
 5114SOL     OW27220   0.171   3.640  21.166
 5114SOL    HW127221   0.181   3.629  21.261
 5114SOL    HW227222   0.139   3.729  21.155
 5115SOL     OW27223   3.099   2.903   0.885
 5115SOL    HW127224   3.009   2.873   0.877
 5115SOL    HW227225   3.099   2.990   0.845
 5116SOL     OW27226   1.313   3.042   4.643
 5116SOL    HW127227   1.368   2.968   4.671
 5116SOL    HW227228   1.243   3.001   4.592
 5117SOL     OW27229   4.480   2.792  16.732
 5117SOL    HW127230   4.561   2.843  16.727
 5117SOL    HW227231   4.410   2.857  16.732
 5118SOL     OW27232   3.986   0.043  17.168
 5118SOL    HW127233   4.057   4.769  17.170
 5118SOL    HW227234   4.012   0.109  17.232
 5119SOL     OW27235   1.501   3.593   4.591
 5119SOL    HW127236   1.486   3.620   4.681
 5119SOL    HW227237   1.585   3.633   4.567
 5120SOL     OW27238   4.363   0.407   6.729
 5120SOL    HW127239   4.329   0.411   6.818
 5120SOL    HW227240   4.386   0.498   6.707
 5121SOL     OW27241   1.883   1.917  17.923
 5121SOL    HW127242   1.898   1.980  17.852
 5121SOL    HW227243   1.908   1.965  18.002
 5122SOL     OW27244   1.645   0.221  18.640
 5122SOL    HW127245   1.600   0.225  18.556
 5122SOL    HW227246   1.585   0.174  18.698
 5123SOL     OW27247   2.750   4.558  18.262
 5123SOL    HW127248   2.699   4.539  18.184
 5123SOL    HW227249   2.826   4.500  18.256
 5124SOL     OW27250   4.445   2.180  15.197
 5124SOL    HW127251   4.504   2.145  15.131
 5124SOL    HW227252   4.387   2.239  15.150
 5125SOL     OW27253   2.452   3.129  14.746
 5125SOL    HW127254   2.477   3.200  14.688
 5125SOL    HW227255   2.502   3.146  14.827
 5126SOL     OW27256   0.393   2.289   5.720
 5126SOL    HW127257   0.299   2.305   5.725
 5126SOL    HW227258   0.400   2.194   5.707
 5127SOL     OW27259   0.782   3.523  18.080
 5127SOL    HW127260   0.834   3.455  18.037
 5127SOL    HW227261   0.727   3.558  18.010
 5128SOL     OW27262   3.681   3.382   3.929
 5128SOL    HW127263   3.753   3.446   3.924
 5128SOL    HW227264   3.607   3.432   3.964
 5129SOL     OW27265   1.585   0.568   4.659
 5129SOL    HW127266   1.500   0.555   4.617
 5129SOL    HW227267   1.565   0.592   4.749
 5130SOL     OW27268   1.225   2.536   2.897
 5130SOL    HW127269   1.184   2.451   2.877
 5130SOL    HW227270   1.317   2.524   2.872
 5131SOL     OW27271   1.970   2.283  18.932
 5131SOL    HW127272   1.952   2.356  18.873
 5131SOL    HW227273   2.066   2.277  18.935
 5132SOL     OW27274   1.623   1.727  19.348
 5132SOL    HW127275   1.669   1.811  19.347
 5132SOL    HW227276   1.644   1.690  19.434
 5133SOL     OW27277   2.569   3.854   3.957
 5133SOL    HW127278   2.615   3.917   4.012
 5133SOL    HW227279   2.634   3.822   3.895
 5134SOL     OW27280   1.885   3.240  15.617
 5134SOL    HW127281   1.820   3.179  15.584
 5134SOL    HW227282   1.931   3.191  15.685
 5135SOL     OW27283   3.246   4.355  17.887
 5135SOL    HW127284   3.264   4.431  17.832
 5135SOL    HW227285   3.304   4.287  17.854
 5136SOL     OW27286   1.672   0.869  19.908
 5136SOL    HW127287   1.617   0.936  19.948
 5136SOL    HW227288   1.682   0.803  19.977
 5137SOL     OW27289   3.470   1.295   4.998
 5137SOL    HW127290   3.416   1.244   5.058
 5137SOL    HW227291   3.447   1.386   5.017
 5138SOL     OW27292   1.964   4.644   5.890
 5138SOL    HW127293   1.895   4.643   5.957
 5138SOL    HW227294   1.916   4.648   5.807
 5139SOL     OW27295   4.033   3.648   6.105
 5139SOL    HW127296   3.963   3.701   6.067
 5139SOL    HW227297   4.102   3.649   6.039
 5140SOL     OW27298   4.777   2.413   3.983
 5140SOL    HW127299   0.076   2.390   3.957
 5140SOL    HW227300   4.760   2.496   3.938
 5141SOL     OW27301   4.592   3.190   0.198
 5141SOL    HW127302   4.552   3.277   0.187
 5141SOL    HW227303   4.653   3.182   0.124
 5142SOL     OW27304   2.472   2.696   6.821
 5142SOL    HW127305   2.395   2.638   6.817
 5142SOL    HW227306   2.489   2.707   6.914
 5143SOL     OW27307   3.079   1.805  13.959
 5143SOL    HW127308   3.113   1.862  14.028
 5143SOL    HW227309   3.063   1.864  13.885
 5144SOL     OW27310   2.471   3.601   1.146
 5144SOL    HW127311   2.414   3.531   1.177
 5144SOL    HW227312   2.503   3.643   1.226
 5145SOL     OW27313   1.061   0.936  19.784
 5145SOL    HW127314   1.023   0.875  19.721
 5145SOL    HW227315   1.155   0.933  19.767
 5146SOL     OW27316   1.479   3.897  11.129
 5146SOL    HW127317   1.427   3.843  11.189
 5146SOL    HW227318   1.418   3.921  11.059
 5147SOL     OW27319   0.737   1.097   2.193
 5147SOL    HW127320   0.686   1.099   2.274
 5147SOL    HW227321   0.803   1.164   2.204
 5148SOL     OW27322   4.397   1.692  17.569
 5148SOL    HW127323   4.360   1.645  17.644
 5148SOL    HW227324   4.477   1.732  17.603
 5149SOL     OW27325   3.151   0.262  17.182
 5149SOL    HW127326   3.204   0.247  17.104
 5149SOL    HW227327   3.152   0.356  17.195
 5150SOL     OW27328   1.386   1.279   6.878
 5150SOL    HW127329   1.341   1.349   6.925
 5150SOL    HW227330   1.348   1.198   6.913
 5151SOL     OW27331   2.233   3.414   5.019
 5151SOL    HW127332   2.203   3.498   4.983
 5151SOL    HW227333   2.240   3.357   4.942
 5152SOL     OW27334   4.335   2.678  19.502
 5152SOL    HW127335   4.267   2.728  19.458
 5152SOL    HW227336   4.302   2.663  19.590
 5153SOL     OW27337   0.631   2.834   8.500
 5153SOL    HW127338   0.722   2.833   8.469
 5153SOL    HW227339   0.581   2.793   8.429
 5154SOL     OW27340   2.176   3.899   8.054
 5154SOL    HW127341   2.171   3.993   8.042
 5154SOL    HW227342   2.264   3.875   8.022
 5155SOL     OW27343   4.312   4.458  20.168
 5155SOL    HW127344   4.255   4.493  20.099
 5155SOL    HW227345   4.401   4.467  20.134
 5156SOL     OW27346   2.777   4.340   2.421
 5156SOL    HW127347   2.687   4.310   2.412
 5156SOL    HW227348   2.805   4.359   2.332
 5157SOL     OW27349   0.179   1.048   0.943
 5157SOL    HW127350   0.253   1.093   0.983
 5157SOL    HW227351   0.220   0.981   0.887
 5158SOL     OW27352   1.130   1.052  11.850
 5158SOL    HW127353   1.169   1.095  11.774
 5158SOL    HW227354   1.182   0.972  11.861
 5159SOL     OW27355   2.310   4.701   1.043
 5159SOL    HW127356   2.325   4.670   0.954
 5159SOL    HW227357   2.228   4.660   1.069
 5160SOL     OW27358   2.759   2.276  16.610
 5160SOL    HW127359   2.736   2.362  16.645
 5160SOL    HW227360   2.685   2.253  16.554
 5161SOL     OW27361   3.862   4.473  17.714
 5161SOL    HW127362   3.798   4.460  17.644
 5161SOL    HW227363   3.833   4.552  17.759
 5162SOL     OW27364   3.028   1.335   2.822
 5162SOL    HW127365   3.060   1.330   2.732
 5162SOL    HW227366   2.933   1.345   2.813
 5163SOL     OW27367   3.256   1.715  18.730
 5163SOL    HW127368   3.162   1.706  18.715
 5163SOL    HW227369   3.262   1.766  18.811
 5164SOL     OW27370   2.343   4.708  19.570
 5164SOL    HW127371   2.336   4.731  19.663
 5164SOL    HW227372   2.384   4.622  19.570
 5165SOL     OW27373   1.940   0.632  20.639
 5165SOL    HW127374   1.864   0.655  20.586
 5165SOL    HW227375   2.012   0.681  20.598
 5166SOL     OW27376   3.494   3.814   6.125
 5166SOL    HW127377   3.510   3.877   6.055
 5166SOL    HW227378   3.451   3.740   6.081
 5167SOL     OW27379   3.422   2.436  18.571
 5167SOL    HW127380   3.514   2.427  18.594
 5167SOL    HW227381   3.418   2.518  18.521
 5168SOL     OW27382   1.410   1.418  15.896
 5168SOL    HW127383   1.501   1.447  15.890
 5168SOL    HW227384   1.415   1.322  15.897
 5169SOL     OW27385   2.884   1.767   8.407
 5169SOL    HW127386   2.864   1.717   8.328
 5169SOL    HW227387   2.976   1.748   8.425
 5170SOL     OW27388   1.096   3.495   5.094
 5170SOL    HW127389   1.176   3.493   5.147
 5170SOL    HW227390   1.025   3.500   5.157
 5171SOL     OW27391   1.879   0.429  21.027
 5171SOL    HW127392   1.956   0.484  21.047
 5171SOL    HW227393   1.836   0.475  20.955
 5172SOL     OW27394   4.130   0.925   4.819
 5172SOL    HW127395   4.075   0.880   4.755
 5172SOL    HW227396   4.130   0.867   4.896
 5173SOL     OW27397   1.150   2.945   3.896
 5173SOL    HW127398   1.102   2.925   3.816
 5173SOL    HW227399   1.143   3.040   3.904
 5174SOL     OW27400   3.935   2.804   2.334
 5174SOL    HW127401   4.001   2.825   2.400
 5174SOL    HW227402   3.986   2.777   2.257
 5175SOL     OW27403   1.427   0.284   0.512
 5175SOL    HW127404   1.391   0.198   0.491
 5175SOL    HW227405   1.517   0.267   0.541
 5176SOL     OW27406   3.320   3.020  19.918
 5176SOL    HW127407   3.392   2.990  19.972
 5176SOL    HW227408   3.352   3.012  19.828
 5177SOL     OW27409   4.278   2.789   3.456
 5177SOL    HW127410   4.299   2.752   3.370
 5177SOL    HW227411   4.323   2.873   3.457
 5178SOL     OW27412   2.236   0.119   0.734
 5178SOL    HW127413   2.227   0.158   0.821
 5178SOL    HW227414   2.241   0.025   0.751
 5179SOL     OW27415   3.418   0.952   6.635
 5179SOL    HW127416   3.356   0.930   6.705
 5179SOL    HW227417   3.394   1.041   6.609
 5180SOL     OW27418   1.159   0.401   1.782
 5180SOL    HW127419   1.207   0.432   1.706
 5180SOL    HW227420   1.088   0.464   1.794
 5181SOL     OW27421   1.593   4.026   3.696
 5181SOL    HW127422   1.580   3.931   3.702
 5181SOL    HW227423   1.518   4.063   3.742
 5182SOL     OW27424   0.681   1.166  19.543
 5182SOL    HW127425   0.617   1.106  19.581
 5182SOL    HW227426   0.722   1.207  19.619
 5183SOL     OW27427   4.467   1.512  12.435
 5183SOL    HW127428   4.453   1.602  12.407
 5183SOL    HW227429   4.382   1.483  12.467
 5184SOL     OW27430   0.794   0.054  11.390
 5184SOL    HW127431   0.799   4.756  11.424
 5184SOL    HW227432   0.856   0.104  11.443
 5185SOL     OW27433   1.517   2.712   4.073
 5185SOL    HW127434   1.471   2.712   3.990
 5185SOL    HW227435   1.581   2.641   4.066
 5186SOL     OW27436   3.669   2.537  18.207
 5186SOL    HW127437   3.601   2.573  18.150
 5186SOL    HW227438   3.654   2.443  18.206
 5187SOL     OW27439   0.027   3.054  16.470
 5187SOL    HW127440   0.047   3.077  16.561
 5187SOL    HW227441   0.111   3.028  16.433
 5188SOL     OW27442   2.983   1.287  19.708
 5188SOL    HW127443   3.024   1.314  19.791
 5188SOL    HW227444   3.057   1.265  19.651
 5189SOL     OW27445   1.767   0.554  19.781
 5189SOL    HW127446   1.737   0.464  19.792
 5189SOL    HW227447   1.823   0.570  19.857
 5190SOL     OW27448   1.444   1.823  20.357
 5190SOL    HW127449   1.388   1.785  20.289
 5190SOL    HW227450   1.482   1.748  20.402
 5191SOL     OW27451   1.812   1.626   6.905
 5191SOL    HW127452   1.719   1.622   6.886
 5191SOL    HW227453   1.817   1.635   7.001
 5192SOL     OW27454   4.443   2.189  12.637
 5192SOL    HW127455   4.367   2.161  12.586
 5192SOL    HW227456   4.447   2.284  12.622
 5193SOL     OW27457   4.441   3.012  15.352
 5193SOL    HW127458   4.524   2.975  15.322
 5193SOL    HW227459   4.388   2.936  15.376
 5194SOL     OW27460   1.383   2.740   6.105
 5194SOL    HW127461   1.306   2.726   6.050
 5194SOL    HW227462   1.422   2.820   6.072
 5195SOL     OW27463   1.684   4.485  20.468
 5195SOL    HW127464   1.697   4.413  20.529
 5195SOL    HW227465   1.664   4.443  20.385
 5196SOL     OW27466   2.018   2.843   5.463
 5196SOL    HW127467   2.034   2.766   5.409
 5196SOL    HW227468   1.924   2.843   5.478
 5197SOL     OW27469   3.286   3.020   5.806
 5197SOL    HW127470   3.202   3.063   5.819
 5197SOL    HW227471   3.263   2.931   5.779
 5198SOL     OW27472   2.026   0.398  17.986
 5198SOL    HW127473   1.954   0.367  17.932
 5198SOL    HW227474   1.985   0.455  18.051
 5199SOL     OW27475   4.441   3.749  18.163
 5199SOL    HW127476   4.498   3.735  18.088
 5199SOL    HW227477   4.451   3.670  18.216
 5200SOL     OW27478   4.066   1.165   4.385
 5200SOL    HW127479   4.015   1.210   4.318
 5200SOL    HW227480   4.022   1.081   4.396
 5201SOL     OW27481   0.956   3.793   4.974
 5201SOL    HW127482   1.003   3.846   4.910
 5201SOL    HW227483   0.957   3.846   5.054
 5202SOL     OW27484   0.632   4.422  19.827
 5202SOL    HW127485   0.682   4.493  19.787
 5202SOL    HW227486   0.677   4.404  19.909
 5203SOL     OW27487   3.013   3.101  20.834
 5203SOL    HW127488   2.964   3.019  20.826
 5203SOL    HW227489   3.029   3.128  20.743
 5204SOL     OW27490   4.238   2.174  18.848
 5204SOL    HW127491   4.158   2.121  18.848
 5204SOL    HW227492   4.294   2.131  18.912
 5205SOL     OW27493   3.146   1.653   8.380
 5205SOL    HW127494   3.141   1.682   8.289
 5205SOL    HW227495   3.224   1.695   8.416
 5206SOL     OW27496   4.353   4.594   7.817
 5206SOL    HW127497   4.357   4.588   7.722
 5206SOL    HW227498   4.324   4.507   7.845
 5207SOL     OW27499   1.194   0.721  18.687
 5207SOL    HW127500   1.173   0.636  18.649
 5207SOL    HW227501   1.111   0.755  18.718
 5208SOL     OW27502   0.124   3.062  16.127
 5208SOL    HW127503   0.138   2.971  16.155
 5208SOL    HW227504   0.032   3.079  16.147
 5209SOL     OW27505   0.691   4.079  20.946
 5209SOL    HW127506   0.674   3.989  20.972
 5209SOL    HW227507   0.693   4.128  21.028
 5210SOL     OW27508   2.115   2.988   5.937
 5210SOL    HW127509   2.166   3.010   5.859
 5210SOL    HW227510   2.179   2.986   6.009
 5211SOL     OW27511   1.503   1.711  18.680
 5211SOL    HW127512   1.460   1.723  18.764
 5211SOL    HW227513   1.432   1.700  18.618
 5212SOL     OW27514   4.097   3.599   5.799
 5212SOL    HW127515   4.163   3.657   5.836
 5212SOL    HW227516   4.013   3.636   5.827
 5213SOL     OW27517   0.451   0.317  20.048
 5213SOL    HW127518   0.394   0.383  20.088
 5213SOL    HW227519   0.508   0.288  20.119
 5214SOL     OW27520   0.153   0.007  19.496
 5214SOL    HW127521   0.179   4.712  19.530
 5214SOL    HW227522   0.229   0.062  19.511
 5215SOL     OW27523   3.984   3.377   1.282
 5215SOL    HW127524   4.018   3.452   1.234
 5215SOL    HW227525   4.030   3.302   1.245
 5216SOL     OW27526   4.588   4.467  18.354
 5216SOL    HW127527   4.543   4.538  18.400
 5216SOL    HW227528   4.554   4.387  18.395
 5217SOL     OW27529   4.650   0.927  17.012
 5217SOL    HW127530   4.611   0.919  16.925
 5217SOL    HW227531   4.618   0.851  17.060
 5218SOL     OW27532   2.024   2.560   4.913
 5218SOL    HW127533   2.071   2.527   4.990
 5218SOL    HW227534   1.955   2.495   4.897
 5219SOL     OW27535   3.193   3.990  13.708
 5219SOL    HW127536   3.210   4.070  13.758
 5219SOL    HW227537   3.160   3.928  13.773
 5220SOL     OW27538   2.723   3.116  18.246
 5220SOL    HW127539   2.696   3.048  18.308
 5220SOL    HW227540   2.742   3.192  18.300
 5221SOL     OW27541   3.354   3.220  15.712
 5221SOL    HW127542   3.283   3.279  15.687
 5221SOL    HW227543   3.356   3.154  15.642
 5222SOL     OW27544   2.751   1.269   3.612
 5222SOL    HW127545   2.714   1.188   3.576
 5222SOL    HW227546   2.845   1.252   3.617
 5223SOL     OW27547   1.263   3.997  18.483
 5223SOL    HW127548   1.242   4.028  18.571
 5223SOL    HW227549   1.182   3.958  18.451
 5224SOL     OW27550   1.663   2.552   5.452
 5224SOL    HW127551   1.575   2.585   5.469
 5224SOL    HW227552   1.673   2.557   5.357
 5225SOL     OW27553   4.117   1.490  17.086
 5225SOL    HW127554   4.105   1.584  17.080
 5225SOL    HW227555   4.039   1.459  17.133
 5226SOL     OW27556   4.010   3.439  20.503
 5226SOL    HW127557   3.931   3.390  20.524
 5226SOL    HW227558   4.000   3.464  20.411
 5227SOL     OW27559   1.698   2.948   4.046
 5227SOL    HW127560   1.701   2.910   3.958
 5227SOL    HW227561   1.646   2.887   4.097
 5228SOL     OW27562   4.761   3.990  14.859
 5228SOL    HW127563   4.727   4.060  14.803
 5228SOL    HW227564   0.063   4.012  14.870
 5229SOL     OW27565   3.653   1.536   5.017
 5229SOL    HW127566   3.652   1.562   4.925
 5229SOL    HW227567   3.564   1.551   5.048
 5230SOL     OW27568   0.840   1.396  19.811
 5230SOL    HW127569   0.808   1.452  19.882
 5230SOL    HW227570   0.847   1.454  19.736
 5231SOL     OW27571   2.215   3.084  14.486
 5231SOL    HW127572   2.291   3.030  14.508
 5231SOL    HW227573   2.187   3.121  14.570
 5232SOL     OW27574   1.125   2.994  16.840
 5232SOL    HW127575   1.088   2.985  16.752
 5232SOL    HW227576   1.069   2.940  16.896
 5233SOL     OW27577   2.686   0.260   4.800
 5233SOL    HW127578   2.766   0.208   4.790
 5233SOL    HW227579   2.616   0.196   4.803
 5234SOL     OW27580   2.175   4.334   3.660
 5234SOL    HW127581   2.131   4.251   3.642
 5234SOL    HW227582   2.199   4.330   3.753
 5235SOL     OW27583   0.398   4.777   3.529
 5235SOL    HW127584   0.403   4.778   3.433
 5235SOL    HW227585   0.489   4.785   3.558
 5236SOL     OW27586   2.413   2.304   1.378
 5236SOL    HW127587   2.481   2.244   1.351
 5236SOL    HW227588   2.460   2.378   1.417
 5237SOL     OW27589   4.119   2.477  19.644
 5237SOL    HW127590   4.190   2.450  19.702
 5237SOL    HW227591   4.091   2.396  19.602
 5238SOL     OW27592   2.778   3.869   0.789
 5238SOL    HW127593   2.823   3.807   0.733
 5238SOL    HW227594   2.713   3.816   0.836
 5239SOL     OW27595   2.985   1.369  14.324
 5239SOL    HW127596   3.074   1.341  14.344
 5239SOL    HW227597   2.994   1.425  14.247
 5240SOL     OW27598   1.251   0.448  18.215
 5240SOL    HW127599   1.234   0.437  18.308
 5240SOL    HW227600   1.288   0.536  18.207
 5241SOL     OW27601   1.059   0.369   5.900
 5241SOL    HW127602   1.052   0.400   5.990
 5241SOL    HW227603   1.055   0.273   5.907
 5242SOL     OW27604   1.613   0.651   9.027
 5242SOL    HW127605   1.644   0.568   9.065
 5242SOL    HW227606   1.623   0.714   9.098
 5243SOL     OW27607   0.832   1.883   4.693
 5243SOL    HW127608   0.769   1.953   4.676
 5243SOL    HW227609   0.839   1.880   4.789
 5244SOL     OW27610   2.599   3.547  15.222
 5244SOL    HW127611   2.567   3.565  15.133
 5244SOL    HW227612   2.639   3.460  15.216
 5245SOL     OW27613   0.963   1.513   4.535
 5245SOL    HW127614   0.960   1.419   4.517
 5245SOL    HW227615   0.895   1.527   4.601
 5246SOL     OW27616   0.122   4.342   1.383
 5246SOL    HW127617   0.193   4.372   1.440
 5246SOL    HW227618   0.134   4.392   1.302
 5247SOL     OW27619   3.655   1.104  18.727
 5247SOL    HW127620   3.737   1.059  18.709
 5247SOL    HW227621   3.670   1.194  18.700
 5248SOL     OW27622   1.922   1.855   4.423
 5248SOL    HW127623   1.857   1.794   4.390
 5248SOL    HW227624   1.906   1.936   4.374
 5249SOL     OW27625   4.152   0.574   3.364
 5249SOL    HW127626   4.142   0.634   3.290
 5249SOL    HW227627   4.064   0.567   3.401
 5250SOL     OW27628   2.679   3.699   1.667
 5250SOL    HW127629   2.691   3.794   1.671
 5250SOL    HW227630   2.673   3.672   1.758
 5251SOL     OW27631   1.335   0.667  15.933
 5251SOL    HW127632   1.295   0.620  16.006
 5251SOL    HW227633   1.380   0.599  15.882
 5252SOL     OW27634   0.055   0.083   3.895
 5252SOL    HW127635   0.012   0.032   3.964
 5252SOL    HW227636   0.020   0.047   3.814
 5253SOL     OW27637   1.286   4.254   6.147
 5253SOL    HW127638   1.226   4.214   6.210
 5253SOL    HW227639   1.355   4.189   6.135
 5254SOL     OW27640   4.022   2.998  15.526
 5254SOL    HW127641   3.967   3.070  15.495
 5254SOL    HW227642   4.111   3.034  15.527
 5255SOL     OW27643   4.766   2.052   7.370
 5255SOL    HW127644   4.684   2.093   7.342
 5255SOL    HW227645   0.024   2.039   7.288
 5256SOL     OW27646   0.821   1.822   5.895
 5256SOL    HW127647   0.832   1.855   5.806
 5256SOL    HW227648   0.905   1.781   5.915
 5257SOL     OW27649   4.572   3.240  15.491
 5257SOL    HW127650   4.547   3.170  15.432
 5257SOL    HW227651   4.657   3.270  15.458
 5258SOL     OW27652   4.532   4.572   5.886
 5258SOL    HW127653   4.568   4.561   5.798
 5258SOL    HW227654   4.508   4.483   5.914
 5259SOL     OW27655   0.775   0.498  12.644
 5259SOL    HW127656   0.732   0.565  12.590
 5259SOL    HW227657   0.815   0.438  12.581
 5260SOL     OW27658   4.169   0.059   6.674
 5260SOL    HW127659   4.153   0.007   6.596
 5260SOL    HW227660   4.197   4.787   6.740
 5261SOL     OW27661   2.421   3.943  13.490
 5261SOL    HW127662   2.486   3.884  13.529
 5261SOL    HW227663   2.338   3.914  13.529
 5262SOL     OW27664   3.098   0.244  17.687
 5262SOL    HW127665   3.064   0.313  17.630
 5262SOL    HW227666   3.068   0.162  17.647
 5263SOL     OW27667   2.217   0.539  20.669
 5263SOL    HW127668   2.301   0.494  20.666
 5263SOL    HW227669   2.152   0.469  20.673
 5264SOL     OW27670   0.177   0.242   4.842
 5264SOL    HW127671   0.242   0.224   4.909
 5264SOL    HW227672   0.093   0.237   4.888
 5265SOL     OW27673   1.162   0.746   5.920
 5265SOL    HW127674   1.182   0.838   5.937
 5265SOL    HW227675   1.068   0.738   5.937
 5266SOL     OW27676   0.584   2.848  16.124
 5266SOL    HW127677   0.648   2.784  16.094
 5266SOL    HW227678   0.574   2.830  16.217
 5267SOL     OW27679   4.018   1.589  16.652
 5267SOL    HW127680   4.083   1.559  16.588
 5267SOL    HW227681   4.026   1.684  16.653
 5268SOL     OW27682   4.650   0.497  15.569
 5268SOL    HW127683   4.627   0.589  15.553
 5268SOL    HW227684   4.614   0.450  15.494
 5269SOL     OW27685   0.254   3.176   2.831
 5269SOL    HW127686   0.226   3.233   2.759
 5269SOL    HW227687   0.347   3.195   2.841
 5270SOL     OW27688   4.775   4.122  17.521
 5270SOL    HW127689   0.062   4.171  17.495
 5270SOL    HW227690   0.011   4.074  17.599
 5271SOL     OW27691   0.031   2.602   0.172
 5271SOL    HW127692   4.778   2.572   0.092
 5271SOL    HW227693   0.070   2.523   0.208
 5272SOL     OW27694   3.781   3.492  18.036
 5272SOL    HW127695   3.876   3.494  18.029
 5272SOL    HW227696   3.763   3.446  18.118
 5273SOL     OW27697   3.184   3.567   4.471
 5273SOL    HW127698   3.094   3.552   4.442
 5273SOL    HW227699   3.213   3.644   4.422
 5274SOL     OW27700   4.494   2.811   4.232
 5274SOL    HW127701   4.416   2.862   4.254
 5274SOL    HW227702   4.565   2.853   4.281
 5275SOL     OW27703   1.229   3.792  16.449
 5275SOL    HW127704   1.256   3.883  16.462
 5275SOL    HW227705   1.175   3.794  16.370
 5276SOL     OW27706   3.983   4.239  15.634
 5276SOL    HW127707   3.967   4.147  15.613
 5276SOL    HW227708   3.983   4.242  15.729
 5277SOL     OW27709   1.155   1.233  16.618
 5277SOL    HW127710   1.062   1.210  16.625
 5277SOL    HW227711   1.171   1.243  16.524
 5278SOL     OW27712   1.552   1.179   5.779
 5278SOL    HW127713   1.543   1.224   5.863
 5278SOL    HW227714   1.471   1.199   5.731
 5279SOL     OW27715   2.242   3.155   2.453
 5279SOL    HW127716   2.293   3.217   2.506
 5279SOL    HW227717   2.153   3.188   2.455
 5280SOL     OW27718   3.717   1.665  16.845
 5280SOL    HW127719   3.712   1.573  16.869
 5280SOL    HW227720   3.800   1.674  16.799
 5281SOL     OW27721   1.167   1.337  12.320
 5281SOL    HW127722   1.234   1.397  12.287
 5281SOL    HW227723   1.162   1.268  12.254
 5282SOL     OW27724   1.872   3.457  16.460
 5282SOL    HW127725   1.911   3.485  16.377
 5282SOL    HW227726   1.783   3.491  16.457
 5283SOL     OW27727   4.461   0.948   6.484
 5283SOL    HW127728   4.486   1.028   6.439
 5283SOL    HW227729   4.395   0.907   6.427
 5284SOL     OW27730   2.316   4.046   5.557
 5284SOL    HW127731   2.321   4.079   5.467
 5284SOL    HW227732   2.254   4.105   5.601
 5285SOL     OW27733   4.495   2.026  17.247
 5285SOL    HW127734   4.456   2.008  17.162
 5285SOL    HW227735   4.435   1.985  17.310
 5286SOL     OW27736   0.898   0.388   0.733
 5286SOL    HW127737   0.967   0.321   0.729
 5286SOL    HW227738   0.867   0.396   0.642
 5287SOL     OW27739   4.786   3.021   1.209
 5287SOL    HW127740   0.013   3.113   1.228
 5287SOL    HW227741   4.690   3.013   1.214
 5288SOL     OW27742   0.696   3.123  13.562
 5288SOL    HW127743   0.693   3.052  13.497
 5288SOL    HW227744   0.627   3.101  13.624
 5289SOL     OW27745   0.807   4.725   3.315
 5289SOL    HW127746   0.816   4.756   3.405
 5289SOL    HW227747   0.850   4.640   3.314
 5290SOL     OW27748   2.979   3.558  19.372
 5290SOL    HW127749   3.068   3.586  19.393
 5290SOL    HW227750   2.928   3.580  19.450
 5291SOL     OW27751   2.601   4.778  16.666
 5291SOL    HW127752   2.602   4.713  16.596
 5291SOL    HW227753   2.598   4.726  16.747
 5292SOL     OW27754   0.139   2.633   5.125
 5292SOL    HW127755   0.075   2.692   5.086
 5292SOL    HW227756   0.224   2.674   5.105
 5293SOL     OW27757   0.115   2.866   2.350
 5293SOL    HW127758   0.020   2.881   2.344
 5293SOL    HW227759   0.134   2.809   2.275
 5294SOL     OW27760   1.803   1.643   4.953
 5294SOL    HW127761   1.773   1.685   4.872
 5294SOL    HW227762   1.758   1.559   4.955
 5295SOL     OW27763   0.556   3.033   4.018
 5295SOL    HW127764   0.573   3.049   4.111
 5295SOL    HW227765   0.616   2.963   3.994
 5296SOL     OW27766   1.618   4.675  18.944
 5296SOL    HW127767   1.606   4.598  18.999
 5296SOL    HW227768   1.707   4.667  18.909
 5297SOL     OW27769   3.557   3.169  16.344
 5297SOL    HW127770   3.466   3.187  16.322
 5297SOL    HW227771   3.589   3.249  16.385
 5298SOL     OW27772   0.023   2.722   6.840
 5298SOL    HW127773   0.002   2.659   6.771
 5298SOL    HW227774   4.729   2.743   6.880
 5299SOL     OW27775   4.470   4.209  18.403
 5299SOL    HW127776   4.493   4.118  18.384
 5299SOL    HW227777   4.387   4.223  18.356
 5300SOL     OW27778   2.995   3.230   2.592
 5300SOL    HW127779   2.949   3.311   2.616
 5300SOL    HW227780   2.948   3.198   2.515
 5301SOL     OW27781   0.127   3.353  20.366
 5301SOL    HW127782   0.222   3.363  20.353
 5301SOL    HW227783   0.088   3.409  20.299
 5302SOL     OW27784   2.476   1.547  13.715
 5302SOL    HW127785   2.472   1.641  13.696
 5302SOL    HW227786   2.438   1.539  13.802
 5303SOL     OW27787   4.686   1.314  20.843
 5303SOL    HW127788   4.713   1.392  20.793
 5303SOL    HW227789   4.614   1.277  20.793
 5304SOL     OW27790   3.323   1.115   4.102
 5304SOL    HW127791   3.310   1.202   4.065
 5304SOL    HW227792   3.293   1.123   4.193
 5305SOL     OW27793   4.609   0.600   5.181
 5305SOL    HW127794   4.658   0.600   5.098
 5305SOL    HW227795   4.590   0.692   5.198
 5306SOL     OW27796   3.928   3.814  20.485
 5306SOL    HW127797   3.989   3.755  20.529
 5306SOL    HW227798   3.895   3.764  20.410
 5307SOL     OW27799   2.678   4.268   4.222
 5307SOL    HW127800   2.717   4.355   4.213
 5307SOL    HW227801   2.695   4.243   4.313
 5308SOL     OW27802   1.702   1.966   5.816
 5308SOL    HW127803   1.749   1.981   5.898
 5308SOL    HW227804   1.624   2.021   5.824
 5309SOL     OW27805   2.260   2.020  15.909
 5309SOL    HW127806   2.262   1.927  15.930
 5309SOL    HW227807   2.326   2.060  15.966
 5310SOL     OW27808   0.740   1.860   9.516
 5310SOL    HW127809   0.660   1.810   9.502
 5310SOL    HW227810   0.710   1.951   9.527
 5311SOL     OW27811   2.668   0.107   6.389
 5311SOL    HW127812   2.593   0.054   6.416
 5311SOL    HW227813   2.633   0.169   6.326
 5312SOL     OW27814   2.666   1.263   3.864
 5312SOL    HW127815   2.671   1.277   3.770
 5312SOL    HW227816   2.667   1.168   3.874
 5313SOL     OW27817   1.434   1.216  18.092
 5313SOL    HW127818   1.450   1.288  18.153
 5313SOL    HW227819   1.490   1.235  18.017
 5314SOL     OW27820   4.411   1.289  16.899
 5314SOL    HW127821   4.331   1.300  16.847
 5314SOL    HW227822   4.403   1.200  16.935
 5315SOL     OW27823   3.880   2.212  17.729
 5315SOL    HW127824   3.953   2.274  17.729
 5315SOL    HW227825   3.913   2.136  17.777
 5316SOL     OW27826   1.516   0.699  18.941
 5316SOL    HW127827   1.601   0.691  18.986
 5316SOL    HW227828   1.483   0.610  18.938
 5317SOL     OW27829   1.239   4.687   3.069
 5317SOL    HW127830   1.233   4.602   3.114
 5317SOL    HW227831   1.166   4.738   3.104
 5318SOL     OW27832   3.063   0.408  12.722
 5318SOL    HW127833   3.012   0.353  12.662
 5318SOL    HW227834   3.044   0.373  12.809
 5319SOL     OW27835   4.066   4.194   2.526
 5319SOL    HW127836   4.048   4.288   2.523
 5319SOL    HW227837   3.979   4.154   2.537
 5320SOL     OW27838   4.388   0.284  18.868
 5320SOL    HW127839   4.393   0.354  18.934
 5320SOL    HW227840   4.467   0.296  18.816
 5321SOL     OW27841   1.564   1.621   6.606
 5321SOL    HW127842   1.555   1.593   6.697
 5321SOL    HW227843   1.553   1.540   6.555
 5322SOL     OW27844   4.426   4.051   8.523
 5322SOL    HW127845   4.496   4.042   8.588
 5322SOL    HW227846   4.446   3.984   8.457
 5323SOL     OW27847   1.415   3.930   4.866
 5323SOL    HW127848   1.489   3.922   4.926
 5323SOL    HW227849   1.338   3.932   4.922
 5324SOL     OW27850   3.156   1.904   5.913
 5324SOL    HW127851   3.183   1.883   5.824
 5324SOL    HW227852   3.131   1.996   5.910
 5325SOL     OW27853   1.936   4.064  15.434
 5325SOL    HW127854   1.991   4.142  15.429
 5325SOL    HW227855   1.870   4.085  15.500
 5326SOL     OW27856   4.273   3.039   3.937
 5326SOL    HW127857   4.230   3.045   3.851
 5326SOL    HW227858   4.353   3.089   3.927
 5327SOL     OW27859   0.461   4.056  21.148
 5327SOL    HW127860   0.496   4.141  21.172
 5327SOL    HW227861   0.535   3.996  21.158
 5328SOL     OW27862   4.487   1.181   2.453
 5328SOL    HW127863   4.396   1.207   2.439
 5328SOL    HW227864   4.522   1.169   2.364
 5329SOL     OW27865   1.094   4.026   3.411
 5329SOL    HW127866   1.165   3.964   3.430
 5329SOL    HW227867   1.018   3.970   3.393
 5330SOL     OW27868   0.314   1.993   1.192
 5330SOL    HW127869   0.349   1.955   1.273
 5330SOL    HW227870   0.221   1.970   1.193
 5331SOL     OW27871   0.991   0.821  17.154
 5331SOL    HW127872   0.950   0.901  17.122
 5331SOL    HW227873   0.950   0.751  17.103
 5332SOL     OW27874   4.221   3.169  19.769
 5332SOL    HW127875   4.240   3.210  19.854
 5332SOL    HW227876   4.293   3.196  19.712
 5333SOL     OW27877   2.651   1.179  18.474
 5333SOL    HW127878   2.724   1.240  18.467
 5333SOL    HW227879   2.692   1.093  18.480
 5334SOL     OW27880   2.605   2.143   1.293
 5334SOL    HW127881   2.570   2.057   1.317
 5334SOL    HW227882   2.689   2.148   1.339
 5335SOL     OW27883   3.747   2.321  19.129
 5335SOL    HW127884   3.656   2.306  19.102
 5335SOL    HW227885   3.739   2.362  19.215
 5336SOL     OW27886   4.196   3.667  19.203
 5336SOL    HW127887   4.149   3.609  19.263
 5336SOL    HW227888   4.157   3.649  19.117
 5337SOL     OW27889   3.435   2.897  16.774
 5337SOL    HW127890   3.491   2.975  16.783
 5337SOL    HW227891   3.444   2.872  16.682
 5338SOL     OW27892   2.388   1.649   0.924
 5338SOL    HW127893   2.387   1.567   0.972
 5338SOL    HW227894   2.427   1.712   0.985
 5339SOL     OW27895   3.475   2.911  20.139
 5339SOL    HW127896   3.477   2.857  20.218
 5339SOL    HW227897   3.531   2.986  20.160
 5340SOL     OW27898   0.343   3.336   8.023
 5340SOL    HW127899   0.411   3.391   7.984
 5340SOL    HW227900   0.384   3.251   8.033
 5341SOL     OW27901   2.557   4.281  20.466
 5341SOL    HW127902   2.652   4.278  20.459
 5341SOL    HW227903   2.528   4.192  20.450
 5342SOL     OW27904   0.870   2.449   5.037
 5342SOL    HW127905   0.837   2.487   4.956
 5342SOL    HW227906   0.886   2.357   5.016
 5343SOL     OW27907   1.349   3.528   3.067
 5343SOL    HW127908   1.439   3.515   3.097
 5343SOL    HW227909   1.327   3.618   3.094
 5344SOL     OW27910   2.854   1.586   3.490
 5344SOL    HW127911   2.791   1.537   3.437
 5344SOL    HW227912   2.844   1.551   3.578
 5345SOL     OW27913   4.784   3.561   1.747
 5345SOL    HW127914   4.776   3.641   1.798
 5345SOL    HW227915   4.695   3.542   1.718
 5346SOL     OW27916   1.573   3.460  20.811
 5346SOL    HW127917   1.478   3.465  20.803
 5346SOL    HW227918   1.601   3.413  20.732
 5347SOL     OW27919   3.693   0.161   7.010
 5347SOL    HW127920   3.756   0.230   7.033
 5347SOL    HW227921   3.739   0.105   6.949
 5348SOL     OW27922   2.347   1.208   4.180
 5348SOL    HW127923   2.364   1.158   4.100
 5348SOL    HW227924   2.425   1.195   4.233
 5349SOL     OW27925   0.722   0.958  17.925
 5349SOL    HW127926   0.683   1.034  17.968
 5349SOL    HW227927   0.671   0.948  17.844
 5350SOL     OW27928   3.527   1.077   5.711
 5350SOL    HW127929   3.544   1.164   5.675
 5350SOL    HW227930   3.596   1.064   5.776
 5351SOL     OW27931   2.493   4.277  18.001
 5351SOL    HW127932   2.492   4.314  18.089
 5351SOL    HW227933   2.401   4.270  17.977
 5352SOL     OW27934   1.081   4.520  18.725
 5352SOL    HW127935   0.998   4.477  18.742
 5352SOL    HW227936   1.144   4.449  18.714
 5353SOL     OW27937   0.050   2.631  16.632
 5353SOL    HW127938   0.091   2.544  16.624
 5353SOL    HW227939   0.061   2.670  16.546
 5354SOL     OW27940   0.175   3.267   2.577
 5354SOL    HW127941   0.138   3.306   2.497
 5354SOL    HW227942   0.200   3.178   2.550
 5355SOL     OW27943   2.446   1.201  17.927
 5355SOL    HW127944   2.491   1.154  17.857
 5355SOL    HW227945   2.499   1.185  18.005
 5356SOL     OW27946   3.145   1.842   0.207
 5356SOL    HW127947   3.078   1.827   0.140
 5356SOL    HW227948   3.214   1.889   0.161
 5357SOL     OW27949   4.276   2.184   1.827
 5357SOL    HW127950   4.317   2.123   1.766
 5357SOL    HW227951   4.336   2.259   1.829
 5358SOL     OW27952   3.019   3.753  18.792
 5358SOL    HW127953   3.057   3.673  18.756
 5358SOL    HW227954   3.065   3.824  18.748
 5359SOL     OW27955   1.050   2.521   5.228
 5359SOL    HW127956   1.072   2.429   5.247
 5359SOL    HW227957   0.990   2.516   5.154
 5360SOL     OW27958   2.143   4.097   5.024
 5360SOL    HW127959   2.085   4.157   5.071
 5360SOL    HW227960   2.175   4.037   5.091
 5361SOL     OW27961   1.579   4.368   0.034
 5361SOL    HW127962   1.624   4.328  21.223
 5361SOL    HW227963   1.585   4.462   0.019
 5362SOL     OW27964   1.817   4.283   4.709
 5362SOL    HW127965   1.805   4.376   4.728
 5362SOL    HW227966   1.728   4.247   4.707
 5363SOL     OW27967   3.928   1.847  20.927
 5363SOL    HW127968   3.855   1.788  20.947
 5363SOL    HW227969   3.987   1.837  21.002
 5364SOL     OW27970   3.079   1.968   4.832
 5364SOL    HW127971   3.124   2.016   4.902
 5364SOL    HW227972   3.096   1.876   4.852
 5365SOL     OW27973   4.540   1.653   0.542
 5365SOL    HW127974   4.486   1.714   0.493
 5365SOL    HW227975   4.604   1.708   0.587
 5366SOL     OW27976   2.708   1.965  20.355
 5366SOL    HW127977   2.679   1.929  20.271
 5366SOL    HW227978   2.752   1.892  20.399
 5367SOL     OW27979   4.092   3.024   0.950
 5367SOL    HW127980   4.156   2.968   0.906
 5367SOL    HW227981   4.072   2.977   1.031
 5368SOL     OW27982   4.490   4.108  19.803
 5368SOL    HW127983   4.418   4.054  19.837
 5368SOL    HW227984   4.489   4.186  19.859
 5369SOL     OW27985   3.414   1.901  17.413
 5369SOL    HW127986   3.489   1.863  17.458
 5369SOL    HW227987   3.425   1.995  17.423
 5370SOL     OW27988   2.260   3.076  18.779
 5370SOL    HW127989   2.188   3.076  18.716
 5370SOL    HW227990   2.281   2.983  18.791
 5371SOL     OW27991   1.022   4.772  14.480
 5371SOL    HW127992   1.004   0.029  14.399
 5371SOL    HW227993   0.939   4.770  14.526
 5372SOL     OW27994   3.932   0.724   5.162
 5372SOL    HW127995   3.871   0.768   5.221
 5372SOL    HW227996   3.880   0.656   5.119
 5373SOL     OW27997   3.815   3.126   3.709
 5373SOL    HW127998   3.904   3.102   3.736
 5373SOL    HW227999   3.813   3.110   3.615
 5374SOL     OW28000   4.466   3.516   3.347
 5374SOL    HW128001   4.417   3.563   3.279
 5374SOL    HW228002   4.550   3.561   3.352
 5375SOL     OW28003   0.263   2.209   8.397
 5375SOL    HW128004   0.264   2.198   8.492
 5375SOL    HW228005   0.273   2.121   8.362
 5376SOL     OW28006   4.192   1.234  15.893
 5376SOL    HW128007   4.266   1.271  15.940
 5376SOL    HW228008   4.189   1.142  15.920
 5377SOL     OW28009   3.056   3.431   1.989
 5377SOL    HW128010   3.058   3.444   1.894
 5377SOL    HW228011   2.974   3.472   2.016
 5378SOL     OW28012   1.699   2.708   1.753
 5378SOL    HW128013   1.675   2.750   1.836
 5378SOL    HW228014   1.630   2.733   1.692
 5379SOL     OW28015   2.446   0.940  14.943
 5379SOL    HW128016   2.465   0.873  15.009
 5379SOL    HW228017   2.411   1.013  14.993
 5380SOL     OW28018   2.769   2.270   5.814
 5380SOL    HW128019   2.828   2.344   5.803
 5380SOL    HW228020   2.708   2.298   5.883
 5381SOL     OW28021   3.713   0.116  16.013
 5381SOL    HW128022   3.666   0.046  15.969
 5381SOL    HW228023   3.729   0.082  16.101
 5382SOL     OW28024   0.636   3.500   0.638
 5382SOL    HW128025   0.604   3.506   0.727
 5382SOL    HW228026   0.653   3.406   0.625
 5383SOL     OW28027   0.022   4.636   5.967
 5383SOL    HW128028   4.725   4.613   5.997
 5383SOL    HW228029   0.021   4.618   5.873
 5384SOL     OW28030   1.785   3.596   2.665
 5384SOL    HW128031   1.765   3.512   2.706
 5384SOL    HW228032   1.828   3.647   2.734
 5385SOL     OW28033   3.829   3.653   3.249
 5385SOL    HW128034   3.804   3.612   3.331
 5385SOL    HW228035   3.900   3.713   3.273
 5386SOL     OW28036   0.732   0.378   3.811
 5386SOL    HW128037   0.760   0.382   3.720
 5386SOL    HW228038   0.705   0.467   3.832
 5387SOL     OW28039   4.462   4.677  18.527
 5387SOL    HW128040   4.411   4.660  18.606
 5387SOL    HW228041   4.544   4.715  18.558
 5388SOL     OW28042   0.900   0.610   1.567
 5388SOL    HW128043   0.818   0.655   1.587
 5388SOL    HW228044   0.932   0.579   1.652
 5389SOL     OW28045   1.878   4.729   4.615
 5389SOL    HW128046   1.876   4.741   4.709
 5389SOL    HW228047   1.811   4.788   4.581
 5390SOL     OW28048   3.019   2.780   5.500
 5390SOL    HW128049   3.110   2.771   5.474
 5390SOL    HW228050   2.969   2.740   5.429
 5391SOL     OW28051   0.282   2.271   2.272
 5391SOL    HW128052   0.331   2.261   2.354
 5391SOL    HW228053   0.349   2.279   2.204
 5392SOL     OW28054   4.604   2.009  12.968
 5392SOL    HW128055   4.629   2.075  13.032
 5392SOL    HW228056   4.686   1.980  12.929
 5393SOL     OW28057   3.759   4.029   6.669
 5393SOL    HW128058   3.759   4.109   6.721
 5393SOL    HW228059   3.691   4.044   6.603
 5394SOL     OW28060   1.467   3.087   2.608
 5394SOL    HW128061   1.512   3.149   2.550
 5394SOL    HW228062   1.420   3.143   2.670
 5395SOL     OW28063   1.299   2.741   0.607
 5395SOL    HW128064   1.393   2.748   0.622
 5395SOL    HW228065   1.283   2.795   0.529
 5396SOL     OW28066   4.183   2.322   3.594
 5396SOL    HW128067   4.183   2.277   3.678
 5396SOL    HW228068   4.275   2.331   3.571
 5397SOL     OW28069   3.001   1.107   5.867
 5397SOL    HW128070   3.060   1.143   5.933
 5397SOL    HW228071   2.948   1.181   5.839
 5398SOL     OW28072   2.172   2.785  19.851
 5398SOL    HW128073   2.210   2.873  19.856
 5398SOL    HW228074   2.194   2.744  19.935
 5399SOL     OW28075   3.034   1.368   4.200
 5399SOL    HW128076   3.002   1.330   4.119
 5399SOL    HW228077   3.068   1.293   4.250
 5400SOL     OW28078   0.338   3.536   4.496
 5400SOL    HW128079   0.380   3.490   4.569
 5400SOL    HW228080   0.411   3.575   4.448
 5401SOL     OW28081   4.177   0.885  20.573
 5401SOL    HW128082   4.248   0.944  20.550
 5401SOL    HW228083   4.174   0.885  20.668
 5402SOL     OW28084   3.415   3.543  17.106
 5402SOL    HW128085   3.338   3.581  17.147
 5402SOL    HW228086   3.473   3.617  17.090
 5403SOL     OW28087   3.773   0.913  16.656
 5403SOL    HW128088   3.828   0.944  16.584
 5403SOL    HW228089   3.812   0.830  16.682
 5404SOL     OW28090   2.616   2.370   5.323
 5404SOL    HW128091   2.654   2.306   5.383
 5404SOL    HW228092   2.591   2.318   5.246
 5405SOL     OW28093   2.149   2.252   3.819
 5405SOL    HW128094   2.190   2.332   3.787
 5405SOL    HW228095   2.171   2.186   3.754
 5406SOL     OW28096   4.176   3.970   2.409
 5406SOL    HW128097   4.147   4.042   2.465
 5406SOL    HW228098   4.229   4.013   2.341
 5407SOL     OW28099   2.248   0.310  15.926
 5407SOL    HW128100   2.194   0.364  15.983
 5407SOL    HW228101   2.192   0.290  15.851
 5408SOL     OW28102   0.272   1.924   5.078
 5408SOL    HW128103   0.329   1.989   5.037
 5408SOL    HW228104   0.207   1.977   5.126
 5409SOL     OW28105   1.322   0.874  11.907
 5409SOL    HW128106   1.332   0.954  11.958
 5409SOL    HW228107   1.398   0.820  11.930
 5410SOL     OW28108   0.215   0.822  16.675
 5410SOL    HW128109   0.201   0.729  16.655
 5410SOL    HW228110   0.174   0.834  16.760
 5411SOL     OW28111   1.074   4.074   6.288
 5411SOL    HW128112   1.030   4.008   6.234
 5411SOL    HW228113   1.134   4.024   6.343
 5412SOL     OW28114   3.666   3.413  13.250
 5412SOL    HW128115   3.702   3.378  13.331
 5412SOL    HW228116   3.659   3.507  13.264
 5413SOL     OW28117   2.392   3.469  16.802
 5413SOL    HW128118   2.378   3.509  16.887
 5413SOL    HW228119   2.305   3.462  16.763
 5414SOL     OW28120   0.244   2.122  16.794
 5414SOL    HW128121   0.231   2.117  16.699
 5414SOL    HW228122   0.231   2.033  16.825
 5415SOL     OW28123   3.994   3.823   6.353
 5415SOL    HW128124   3.906   3.791   6.335
 5415SOL    HW228125   4.052   3.763   6.305
 5416SOL     OW28126   1.993   3.031   0.053
 5416SOL    HW128127   2.030   2.944   0.061
 5416SOL    HW228128   2.039   3.071  21.243
 5417SOL     OW28129   4.101   2.660  18.079
 5417SOL    HW128130   4.135   2.699  17.999
 5417SOL    HW228131   4.031   2.719  18.107
 5418SOL     OW28132   0.569   2.791   0.742
 5418SOL    HW128133   0.662   2.776   0.725
 5418SOL    HW228134   0.557   2.771   0.834
 5419SOL     OW28135   3.610   4.604   3.525
 5419SOL    HW128136   3.678   4.628   3.461
 5419SOL    HW228137   3.658   4.562   3.596
 5420SOL     OW28138   4.211   2.137  18.573
 5420SOL    HW128139   4.146   2.068  18.561
 5420SOL    HW228140   4.208   2.156  18.667
 5421SOL     OW28141   1.284   3.463  17.622
 5421SOL    HW128142   1.307   3.508  17.541
 5421SOL    HW228143   1.288   3.370  17.601
 5422SOL     OW28144   0.067   3.945   2.593
 5422SOL    HW128145   0.113   3.902   2.521
 5422SOL    HW228146   0.133   4.002   2.632
 5423SOL     OW28147   0.954   3.609   1.078
 5423SOL    HW128148   0.913   3.636   1.161
 5423SOL    HW228149   0.899   3.538   1.046
 5424SOL     OW28150   0.975   3.641  13.881
 5424SOL    HW128151   0.916   3.570  13.855
 5424SOL    HW228152   1.009   3.675  13.799
 5425SOL     OW28153   2.489   2.424  20.620
 5425SOL    HW128154   2.514   2.439  20.711
 5425SOL    HW228155   2.475   2.512  20.584
 5426SOL     OW28156   0.002   1.283  20.381
 5426SOL    HW128157   0.021   1.376  20.393
 5426SOL    HW228158   0.039   1.241  20.458
 5427SOL     OW28159   1.655   2.535  18.694
 5427SOL    HW128160   1.625   2.464  18.750
 5427SOL    HW228161   1.582   2.552  18.635
 5428SOL     OW28162   2.007   1.784  21.224
 5428SOL    HW128163   2.095   1.751  21.240
 5428SOL    HW228164   2.004   1.799  21.129
 5429SOL     OW28165   4.231   3.723  20.621
 5429SOL    HW128166   4.263   3.636  20.643
 5429SOL    HW228167   4.297   3.759  20.562
 5430SOL     OW28168   3.161   1.694   5.538
 5430SOL    HW128169   3.098   1.679   5.467
 5430SOL    HW228170   3.231   1.745   5.497
 5431SOL     OW28171   4.060   1.630   3.443
 5431SOL    HW128172   4.154   1.618   3.436
 5431SOL    HW228173   4.046   1.723   3.424
 5432SOL     OW28174   1.547   1.428  18.756
 5432SOL    HW128175   1.554   1.489  18.683
 5432SOL    HW228176   1.453   1.414  18.766
 5433SOL     OW28177   1.150   2.908   4.484
 5433SOL    HW128178   1.197   2.864   4.413
 5433SOL    HW228179   1.086   2.964   4.439
 5434SOL     OW28180   2.755   3.440   5.268
 5434SOL    HW128181   2.664   3.467   5.255
 5434SOL    HW228182   2.790   3.506   5.328
 5435SOL     OW28183   3.600   1.293  20.493
 5435SOL    HW128184   3.622   1.222  20.433
 5435SOL    HW228185   3.681   1.343  20.502
 5436SOL     OW28186   0.486   4.721  15.868
 5436SOL    HW128187   0.542   4.785  15.913
 5436SOL    HW228188   0.406   4.769  15.848
 5437SOL     OW28189   0.743   2.097  20.206
 5437SOL    HW128190   0.685   2.049  20.148
 5437SOL    HW228191   0.813   2.034  20.227
 5438SOL     OW28192   0.414   0.112  19.888
 5438SOL    HW128193   0.466   0.173  19.940
 5438SOL    HW228194   0.333   0.160  19.868
 5439SOL     OW28195   3.308   3.708   7.773
 5439SOL    HW128196   3.220   3.678   7.749
 5439SOL    HW228197   3.328   3.776   7.709
 5440SOL     OW28198   4.355   1.396   1.842
 5440SOL    HW128199   4.322   1.323   1.894
 5440SOL    HW228200   4.315   1.474   1.880
 5441SOL     OW28201   3.157   2.325   6.924
 5441SOL    HW128202   3.190   2.248   6.971
 5441SOL    HW228203   3.069   2.299   6.895
 5442SOL     OW28204   2.506   4.483  20.664
 5442SOL    HW128205   2.471   4.548  20.603
 5442SOL    HW228206   2.562   4.427  20.609
 5443SOL     OW28207   0.809   4.745   3.895
 5443SOL    HW128208   0.830   0.048   3.895
 5443SOL    HW228209   0.894   4.702   3.885
 5444SOL     OW28210   2.320   0.479   4.933
 5444SOL    HW128211   2.306   0.533   5.011
 5444SOL    HW228212   2.252   0.506   4.872
 5445SOL     OW28213   1.050   4.687   2.561
 5445SOL    HW128214   1.091   4.773   2.567
 5445SOL    HW228215   1.018   4.668   2.649
 5446SOL     OW28216   2.365   3.955  13.236
 5446SOL    HW128217   2.283   3.908  13.220
 5446SOL    HW228218   2.373   3.958  13.331
 5447SOL     OW28219   3.596   3.745   3.649
 5447SOL    HW128220   3.529   3.683   3.678
 5447SOL    HW228221   3.626   3.786   3.730
 5448SOL     OW28222   4.336   2.599   3.641
 5448SOL    HW128223   4.312   2.686   3.608
 5448SOL    HW228224   4.402   2.568   3.579
 5449SOL     OW28225   0.862   1.993  16.405
 5449SOL    HW128226   0.809   1.924  16.365
 5449SOL    HW228227   0.815   2.074  16.383
 5450SOL     OW28228   4.067   0.045   2.847
 5450SOL    HW128229   4.125   4.766   2.875
 5450SOL    HW228230   4.120   0.098   2.787
 5451SOL     OW28231   1.367   2.255   0.338
 5451SOL    HW128232   1.408   2.168   0.336
 5451SOL    HW228233   1.393   2.295   0.256
 5452SOL     OW28234   3.975   3.627   6.718
 5452SOL    HW128235   4.039   3.557   6.728
 5452SOL    HW228236   3.893   3.583   6.697
 5453SOL     OW28237   4.180   4.405  18.972
 5453SOL    HW128238   4.175   4.319  18.931
 5453SOL    HW228239   4.121   4.459  18.920
 5454SOL     OW28240   4.007   1.703  15.410
 5454SOL    HW128241   3.915   1.728  15.403
 5454SOL    HW228242   4.047   1.769  15.466
 5455SOL     OW28243   4.030   4.767   0.826
 5455SOL    HW128244   4.006   0.053   0.776
 5455SOL    HW228245   3.956   4.707   0.816
 5456SOL     OW28246   2.521   2.060   8.702
 5456SOL    HW128247   2.454   1.996   8.679
 5456SOL    HW228248   2.602   2.025   8.666
 5457SOL     OW28249   3.315   0.647   5.172
 5457SOL    HW128250   3.379   0.716   5.156
 5457SOL    HW228251   3.245   0.690   5.222
 5458SOL     OW28252   4.624   1.406   2.833
 5458SOL    HW128253   4.653   1.347   2.902
 5458SOL    HW228254   4.660   1.369   2.753
 5459SOL     OW28255   0.395   2.572   4.695
 5459SOL    HW128256   0.485   2.589   4.666
 5459SOL    HW228257   0.386   2.477   4.689
 5460SOL     OW28258   1.795   0.675   2.843
 5460SOL    HW128259   1.756   0.744   2.789
 5460SOL    HW228260   1.887   0.700   2.852
 5461SOL     OW28261   3.964   2.217   3.427
 5461SOL    HW128262   3.904   2.243   3.497
 5461SOL    HW228263   4.050   2.243   3.459
 5462SOL     OW28264   1.224   1.053   5.069
 5462SOL    HW128265   1.249   1.034   5.159
 5462SOL    HW228266   1.307   1.068   5.024
 5463SOL     OW28267   1.067   3.166   1.536
 5463SOL    HW128268   1.159   3.150   1.515
 5463SOL    HW228269   1.031   3.209   1.459
 5464SOL     OW28270   3.276   3.462   3.298
 5464SOL    HW128271   3.198   3.473   3.243
 5464SOL    HW228272   3.343   3.515   3.255
 5465SOL     OW28273   3.049   1.407   5.305
 5465SOL    HW128274   3.093   1.379   5.385
 5465SOL    HW228275   2.989   1.475   5.333
 5466SOL     OW28276   1.109   3.672   2.351
 5466SOL    HW128277   1.118   3.642   2.261
 5466SOL    HW228278   1.180   3.628   2.398
 5467SOL     OW28279   3.330   2.431  18.013
 5467SOL    HW128280   3.371   2.516  18.027
 5467SOL    HW228281   3.243   2.452  17.978
 5468SOL     OW28282   4.065   0.129  18.460
 5468SOL    HW128283   4.063   0.051  18.515
 5468SOL    HW228284   4.003   0.189  18.502
 5469SOL     OW28285   0.028   2.047   6.300
 5469SOL    HW128286   0.101   2.070   6.242
 5469SOL    HW228287   0.057   2.073   6.387
 5470SOL     OW28288   4.066   4.048  19.058
 5470SOL    HW128289   4.053   4.093  19.142
 5470SOL    HW228290   4.016   4.100  18.996
 5471SOL     OW28291   0.531   1.772  14.475
 5471SOL    HW128292   0.567   1.688  14.504
 5471SOL    HW228293   0.465   1.748  14.410
 5472SOL     OW28294   1.782   4.548   1.097
 5472SOL    HW128295   1.778   4.526   1.190
 5472SOL    HW228296   1.845   4.485   1.061
 5473SOL     OW28297   2.766   1.848   5.234
 5473SOL    HW128298   2.706   1.888   5.170
 5473SOL    HW228299   2.722   1.859   5.318
 5474SOL     OW28300   4.424   3.238   0.641
 5474SOL    HW128301   4.416   3.222   0.547
 5474SOL    HW228302   4.339   3.213   0.677
 5475SOL     OW28303   4.133   3.674  17.966
 5475SOL    HW128304   4.209   3.622  17.942
 5475SOL    HW228305   4.061   3.638  17.915
 5476SOL     OW28306   2.054   2.295  19.233
 5476SOL    HW128307   2.044   2.386  19.259
 5476SOL    HW228308   2.015   2.245  19.305
 5477SOL     OW28309   1.958   3.075  15.182
 5477SOL    HW128310   2.048   3.043  15.185
 5477SOL    HW228311   1.961   3.151  15.124
 5478SOL     OW28312   1.365   0.040  18.699
 5478SOL    HW128313   1.426   4.763  18.670
 5478SOL    HW228314   1.278   4.791  18.692
 5479SOL     OW28315   3.015   4.651   3.368
 5479SOL    HW128316   3.049   4.726   3.319
 5479SOL    HW228317   2.937   4.623   3.319
 5480SOL     OW28318   3.948   1.580  10.259
 5480SOL    HW128319   3.890   1.608  10.329
 5480SOL    HW228320   3.904   1.505  10.220
 5481SOL     OW28321   4.293   4.462  20.738
 5481SOL    HW128322   4.300   4.557  20.733
 5481SOL    HW228323   4.210   4.446  20.785
 5482SOL     OW28324   1.248   2.690   4.301
 5482SOL    HW128325   1.201   2.611   4.328
 5482SOL    HW228326   1.214   2.709   4.214
 5483SOL     OW28327   2.213   1.592  14.312
 5483SOL    HW128328   2.288   1.643  14.281
 5483SOL    HW228329   2.137   1.646  14.290
 5484SOL     OW28330   2.255   0.970  21.151
 5484SOL    HW128331   2.325   1.001  21.093
 5484SOL    HW228332   2.188   0.938  21.091
 5485SOL     OW28333   3.726   1.141   1.942
 5485SOL    HW128334   3.664   1.069   1.932
 5485SOL    HW228335   3.804   1.100   1.980
 5486SOL     OW28336   3.943   3.430   7.091
 5486SOL    HW128337   3.874   3.427   7.025
 5486SOL    HW228338   3.946   3.341   7.126
 5487SOL     OW28339   1.652   3.685   0.880
 5487SOL    HW128340   1.623   3.750   0.944
 5487SOL    HW228341   1.623   3.601   0.916
 5488SOL     OW28342   2.654   0.730  16.112
 5488SOL    HW128343   2.608   0.742  16.029
 5488SOL    HW228344   2.662   0.635  16.121
 5489SOL     OW28345   3.191   2.596  20.222
 5489SOL    HW128346   3.170   2.624  20.133
 5489SOL    HW228347   3.256   2.527  20.210
 5490SOL     OW28348   1.686   4.504   4.858
 5490SOL    HW128349   1.621   4.552   4.909
 5490SOL    HW228350   1.770   4.539   4.887
 5491SOL     OW28351   3.840   1.955   6.032
 5491SOL    HW128352   3.898   1.901   6.085
 5491SOL    HW228353   3.836   1.911   5.947
 5492SOL     OW28354   3.485   1.077  20.916
 5492SOL    HW128355   3.537   0.997  20.911
 5492SOL    HW228356   3.544   1.143  20.952
 5493SOL     OW28357   0.025   3.309  15.455
 5493SOL    HW128358   0.033   3.401  15.428
 5493SOL    HW228359   0.106   3.268  15.426
 5494SOL     OW28360   0.771   2.579   0.986
 5494SOL    HW128361   0.693   2.627   1.013
 5494SOL    HW228362   0.821   2.641   0.933
 5495SOL     OW28363   4.288   2.729   6.090
 5495SOL    HW128364   4.194   2.728   6.071
 5495SOL    HW228365   4.327   2.778   6.018
 5496SOL     OW28366   0.562   1.809   5.605
 5496SOL    HW128367   0.587   1.746   5.672
 5496SOL    HW228368   0.500   1.761   5.549
 5497SOL     OW28369   2.005   1.680   1.714
 5497SOL    HW128370   2.018   1.620   1.641
 5497SOL    HW228371   1.922   1.723   1.695
 5498SOL     OW28372   0.080   2.881  17.598
 5498SOL    HW128373   0.056   2.791  17.617
 5498SOL    HW228374   0.114   2.879  17.509
 5499SOL     OW28375   3.162   3.426  18.422
 5499SOL    HW128376   3.074   3.456  18.446
 5499SOL    HW228377   3.147   3.352  18.363
 5500SOL     OW28378   3.573   2.831  18.417
 5500SOL    HW128379   3.542   2.898  18.478
 5500SOL    HW228380   3.502   2.767  18.413
 5501SOL     OW28381   3.741   1.898  19.691
 5501SOL    HW128382   3.681   1.830  19.722
 5501SOL    HW228383   3.727   1.900  19.596
 5502SOL     OW28384   4.011   4.208  13.475
 5502SOL    HW128385   3.987   4.239  13.562
 5502SOL    HW228386   4.092   4.157  13.489
 5503SOL     OW28387   4.395   2.508  16.656
 5503SOL    HW128388   4.449   2.585  16.675
 5503SOL    HW228389   4.458   2.442  16.626
 5504SOL     OW28390   3.359   2.555  16.301
 5504SOL    HW128391   3.445   2.533  16.334
 5504SOL    HW228392   3.348   2.648  16.320
 5505SOL     OW28393   0.248   4.112   1.536
 5505SOL    HW128394   0.264   4.207   1.533
 5505SOL    HW228395   0.281   4.080   1.452
 5506SOL     OW28396   1.204   1.000  18.957
 5506SOL    HW128397   1.151   1.008  18.878
 5506SOL    HW228398   1.235   1.088  18.975
 5507SOL     OW28399   0.245   3.392   5.406
 5507SOL    HW128400   0.193   3.473   5.401
 5507SOL    HW228401   0.226   3.357   5.493
 5508SOL     OW28402   3.364   0.383  20.981
 5508SOL    HW128403   3.460   0.389  20.977
 5508SOL    HW228404   3.346   0.290  20.995
 5509SOL     OW28405   0.398   3.570   6.264
 5509SOL    HW128406   0.437   3.580   6.351
 5509SOL    HW228407   0.407   3.656   6.223
 5510SOL     OW28408   1.523   1.268  17.834
 5510SOL    HW128409   1.448   1.278  17.775
 5510SOL    HW228410   1.597   1.254  17.776
 5511SOL     OW28411   4.764   2.393  19.959
 5511SOL    HW128412   0.037   2.463  19.974
 5511SOL    HW228413   4.762   2.345  20.041
 5512SOL     OW28414   3.248   3.821  15.672
 5512SOL    HW128415   3.219   3.835  15.762
 5512SOL    HW228416   3.343   3.827  15.676
 5513SOL     OW28417   4.680   2.936   9.915
 5513SOL    HW128418   4.741   3.007   9.895
 5513SOL    HW228419   4.623   2.931   9.839
 5514SOL     OW28420   1.623   1.219   3.016
 5514SOL    HW128421   1.715   1.245   3.027
 5514SOL    HW228422   1.573   1.295   3.045
 5515SOL     OW28423   2.384   1.082   2.139
 5515SOL    HW128424   2.414   1.103   2.227
 5515SOL    HW228425   2.323   1.009   2.151
 5516SOL     OW28426   1.993   1.495   5.121
 5516SOL    HW128427   1.925   1.549   5.080
 5516SOL    HW228428   2.043   1.555   5.175
 5517SOL     OW28429   1.723   2.266  16.789
 5517SOL    HW128430   1.793   2.239  16.730
 5517SOL    HW228431   1.756   2.245  16.876
 5518SOL     OW28432   4.740   2.109  16.220
 5518SOL    HW128433   4.756   2.202  16.205
 5518SOL    HW228434   4.686   2.106  16.299
 5519SOL     OW28435   0.435   0.383  15.061
 5519SOL    HW128436   0.344   0.358  15.079
 5519SOL    HW228437   0.435   0.409  14.969
 5520SOL     OW28438   4.657   4.042  17.026
 5520SOL    HW128439   4.639   3.958  16.985
 5520SOL    HW228440   4.661   4.023  17.120
 5521SOL     OW28441   2.643   0.442   5.592
 5521SOL    HW128442   2.585   0.425   5.666
 5521SOL    HW228443   2.659   0.356   5.553
 5522SOL     OW28444   1.749   2.930   6.031
 5522SOL    HW128445   1.695   3.008   6.014
 5522SOL    HW228446   1.765   2.893   5.944
 5523SOL     OW28447   4.602   4.383   5.586
 5523SOL    HW128448   4.507   4.379   5.571
 5523SOL    HW228449   4.637   4.309   5.537
 5524SOL     OW28450   0.617   3.997  14.715
 5524SOL    HW128451   0.588   3.979  14.625
 5524SOL    HW228452   0.663   4.081  14.709
 5525SOL     OW28453   3.283   0.025   7.712
 5525SOL    HW128454   3.268   0.119   7.720
 5525SOL    HW228455   3.332   0.015   7.631
 5526SOL     OW28456   0.803   2.325  18.360
 5526SOL    HW128457   0.734   2.342  18.296
 5526SOL    HW228458   0.862   2.400  18.352
 5527SOL     OW28459   1.893   3.109   2.633
 5527SOL    HW128460   1.837   3.048   2.585
 5527SOL    HW228461   1.934   3.163   2.566
 5528SOL     OW28462   3.432   1.680   4.442
 5528SOL    HW128463   3.468   1.764   4.413
 5528SOL    HW228464   3.375   1.651   4.371
 5529SOL     OW28465   4.260   1.978   6.080
 5529SOL    HW128466   4.294   1.945   6.163
 5529SOL    HW228467   4.246   2.071   6.096
 5530SOL     OW28468   1.066   1.721   3.065
 5530SOL    HW128469   1.098   1.799   3.111
 5530SOL    HW228470   1.087   1.738   2.973
 5531SOL     OW28471   0.645   3.650   3.217
 5531SOL    HW128472   0.576   3.710   3.242
 5531SOL    HW228473   0.693   3.633   3.299
 5532SOL     OW28474   4.708   3.584  15.646
 5532SOL    HW128475   4.725   3.636  15.724
 5532SOL    HW228476   4.786   3.597  15.591
 5533SOL     OW28477   3.898   1.575   3.912
 5533SOL    HW128478   3.966   1.631   3.949
 5533SOL    HW228479   3.933   1.549   3.827
 5534SOL     OW28480   1.334   0.477  13.090
 5534SOL    HW128481   1.272   0.446  13.023
 5534SOL    HW228482   1.409   0.418  13.082
 5535SOL     OW28483   1.234   3.628   4.523
 5535SOL    HW128484   1.315   3.595   4.562
 5535SOL    HW228485   1.184   3.549   4.499
 5536SOL     OW28486   2.051   4.126  12.365
 5536SOL    HW128487   2.133   4.101  12.408
 5536SOL    HW228488   2.061   4.098  12.274
 5537SOL     OW28489   2.460   3.573  19.918
 5537SOL    HW128490   2.535   3.564  19.977
 5537SOL    HW228491   2.490   3.634  19.851
 5538SOL     OW28492   2.739   3.793  20.466
 5538SOL    HW128493   2.780   3.770  20.550
 5538SOL    HW228494   2.684   3.717  20.446
 5539SOL     OW28495   0.245   0.734  19.979
 5539SOL    HW128496   0.332   0.766  20.003
 5539SOL    HW228497   0.185   0.803  20.006
 5540SOL     OW28498   1.114   3.295  14.470
 5540SOL    HW128499   1.115   3.366  14.406
 5540SOL    HW228500   1.078   3.335  14.549
 5541SOL     OW28501   4.664   0.393   4.751
 5541SOL    HW128502   4.640   0.301   4.749
 5541SOL    HW228503   4.691   0.412   4.661
 5542SOL     OW28504   0.472   1.921   1.421
 5542SOL    HW128505   0.551   1.914   1.367
 5542SOL    HW228506   0.492   1.990   1.484
 5543SOL     OW28507   3.859   4.321  17.261
 5543SOL    HW128508   3.898   4.257  17.321
 5543SOL    HW228509   3.926   4.336  17.195
 5544SOL     OW28510   4.493   4.483   1.465
 5544SOL    HW128511   4.418   4.487   1.406
 5544SOL    HW228512   4.506   4.390   1.481
 5545SOL     OW28513   3.717   2.199  16.091
 5545SOL    HW128514   3.772   2.231  16.162
 5545SOL    HW228515   3.774   2.138  16.042
 5546SOL     OW28516   1.161   3.826  18.795
 5546SOL    HW128517   1.149   3.827  18.890
 5546SOL    HW228518   1.143   3.916  18.767
 5547SOL     OW28519   3.347   1.274   8.258
 5547SOL    HW128520   3.289   1.349   8.240
 5547SOL    HW228521   3.424   1.313   8.299
 5548SOL     OW28522   3.709   4.062   4.426
 5548SOL    HW128523   3.729   4.000   4.497
 5548SOL    HW228524   3.764   4.138   4.446
 5549SOL     OW28525   3.557   1.396  20.786
 5549SOL    HW128526   3.555   1.491  20.773
 5549SOL    HW228527   3.542   1.360  20.698
 5550SOL     OW28528   1.920   0.697   0.722
 5550SOL    HW128529   1.912   0.608   0.757
 5550SOL    HW228530   1.884   0.753   0.791
 5551SOL     OW28531   0.772   0.513   3.177
 5551SOL    HW128532   0.682   0.497   3.203
 5551SOL    HW228533   0.798   0.590   3.228
 5552SOL     OW28534   1.554   1.564   6.865
 5552SOL    HW128535   1.569   1.489   6.923
 5552SOL    HW228536   1.461   1.583   6.875
 5553SOL     OW28537   4.773   4.322  14.442
 5553SOL    HW128538   4.763   4.316  14.347
 5553SOL    HW228539   4.748   4.412  14.463
 5554SOL     OW28540   3.430   2.675  19.990
 5554SOL    HW128541   3.497   2.723  20.039
 5554SOL    HW228542   3.443   2.701  19.899
 5555SOL     OW28543   1.265   0.481   6.166
 5555SOL    HW128544   1.360   0.483   6.172
 5555SOL    HW228545   1.241   0.391   6.187
 5556SOL     OW28546   2.704   1.455  19.505
 5556SOL    HW128547   2.694   1.360  19.498
 5556SOL    HW228548   2.779   1.475  19.449
 5557SOL     OW28549   0.039   1.916   0.201
 5557SOL    HW128550   0.018   1.829   0.168
 5557SOL    HW228551   0.133   1.926   0.185
 5558SOL     OW28552   3.580   4.128  16.366
 5558SOL    HW128553   3.544   4.216  16.358
 5558SOL    HW228554   3.613   4.108  16.278
 5559SOL     OW28555   3.027   2.493  19.984
 5559SOL    HW128556   3.065   2.578  19.959
 5559SOL    HW228557   2.963   2.474  19.916
 5560SOL     OW28558   2.121   0.901   4.414
 5560SOL    HW128559   2.197   0.948   4.380
 5560SOL    HW228560   2.151   0.863   4.496
 5561SOL     OW28561   2.064   4.416   6.029
 5561SOL    HW128562   2.019   4.492   5.991
 5561SOL    HW228563   2.122   4.385   5.959
 5562SOL     OW28564   2.993   3.078   5.944
 5562SOL    HW128565   2.996   3.010   5.877
 5562SOL    HW228566   2.903   3.111   5.941
 5563SOL     OW28567   0.070   2.028   4.179
 5563SOL    HW128568   4.787   2.052   4.124
 5563SOL    HW228569   0.074   2.097   4.246
 5564SOL     OW28570   1.464   0.204  16.849
 5564SOL    HW128571   1.368   0.200  16.841
 5564SOL    HW228572   1.487   0.131  16.906
 5565SOL     OW28573   1.398   1.742   5.073
 5565SOL    HW128574   1.474   1.768   5.125
 5565SOL    HW228575   1.427   1.662   5.029
 5566SOL     OW28576   1.116   2.028  18.856
 5566SOL    HW128577   1.130   2.002  18.947
 5566SOL    HW228578   1.030   2.070  18.855
 5567SOL     OW28579   2.047   3.751   1.374
 5567SOL    HW128580   2.096   3.827   1.343
 5567SOL    HW228581   2.016   3.709   1.294
 5568SOL     OW28582   0.352   3.856   4.216
 5568SOL    HW128583   0.324   3.933   4.265
 5568SOL    HW228584   0.292   3.852   4.142
 5569SOL     OW28585   3.865   2.791   5.427
 5569SOL    HW128586   3.860   2.731   5.353
 5569SOL    HW228587   3.866   2.878   5.387
 5570SOL     OW28588   2.533   1.785   5.629
 5570SOL    HW128589   2.509   1.722   5.562
 5570SOL    HW228590   2.592   1.737   5.688
 5571SOL     OW28591   1.769   4.682   2.209
 5571SOL    HW128592   1.720   4.605   2.180
 5571SOL    HW228593   1.774   4.673   2.305
 5572SOL     OW28594   1.869   2.120  20.324
 5572SOL    HW128595   1.798   2.157  20.377
 5572SOL    HW228596   1.913   2.057  20.381
 5573SOL     OW28597   4.736   1.113   2.813
 5573SOL    HW128598   4.741   1.026   2.854
 5573SOL    HW228599   0.034   1.147   2.820
 5574SOL     OW28600   1.919   2.010  18.998
 5574SOL    HW128601   1.930   2.100  18.967
 5574SOL    HW228602   1.911   2.017  19.093
 5575SOL     OW28603   1.070   3.072  20.475
 5575SOL    HW128604   1.057   3.021  20.395
 5575SOL    HW228605   1.165   3.079  20.484
 5576SOL     OW28606   3.668   4.023   0.927
 5576SOL    HW128607   3.623   4.079   0.990
 5576SOL    HW228608   3.635   3.935   0.944
 5577SOL     OW28609   2.449   4.335   5.130
 5577SOL    HW128610   2.470   4.420   5.169
 5577SOL    HW228611   2.467   4.345   5.037
 5578SOL     OW28612   2.707   0.258  18.820
 5578SOL    HW128613   2.717   0.170  18.785
 5578SOL    HW228614   2.615   0.263  18.846
 5579SOL     OW28615   2.577   0.411  17.350
 5579SOL    HW128616   2.561   0.447  17.437
 5579SOL    HW228617   2.491   0.407  17.309
 5580SOL     OW28618   0.617   1.216   1.387
 5580SOL    HW128619   0.578   1.302   1.373
 5580SOL    HW228620   0.651   1.219   1.476
 5581SOL     OW28621   2.829   2.814  18.954
 5581SOL    HW128622   2.779   2.739  18.921
 5581SOL    HW228623   2.917   2.779  18.969
 5582SOL     OW28624   2.143   1.052  12.711
 5582SOL    HW128625   2.071   1.049  12.648
 5582SOL    HW228626   2.100   1.060  12.797
 5583SOL     OW28627   1.840   4.690  14.273
 5583SOL    HW128628   1.823   4.726  14.185
 5583SOL    HW228629   1.829   4.765  14.331
 5584SOL     OW28630   3.206   4.335  19.098
 5584SOL    HW128631   3.238   4.396  19.164
 5584SOL    HW228632   3.111   4.347  19.099
 5585SOL     OW28633   4.586   1.064   6.701
 5585SOL    HW128634   4.627   0.994   6.750
 5585SOL    HW228635   4.527   1.019   6.640
 5586SOL     OW28636   2.493   0.620   3.435
 5586SOL    HW128637   2.569   0.677   3.439
 5586SOL    HW228638   2.418   0.677   3.451
 5587SOL     OW28639   1.461   2.610   3.424
 5587SOL    HW128640   1.450   2.578   3.334
 5587SOL    HW228641   1.389   2.672   3.436
 5588SOL     OW28642   2.191   2.638  16.984
 5588SOL    HW128643   2.271   2.643  17.036
 5588SOL    HW228644   2.221   2.634  16.893
 5589SOL     OW28645   2.474   3.907   1.825
 5589SOL    HW128646   2.431   3.964   1.889
 5589SOL    HW228647   2.403   3.853   1.790
 5590SOL     OW28648   4.562   2.324  16.571
 5590SOL    HW128649   4.629   2.272  16.616
 5590SOL    HW228650   4.507   2.259  16.528
 5591SOL     OW28651   4.556   4.651  17.524
 5591SOL    HW128652   4.538   4.706  17.447
 5591SOL    HW228653   4.624   4.590  17.495
 5592SOL     OW28654   1.896   3.629  20.511
 5592SOL    HW128655   1.858   3.715  20.524
 5592SOL    HW228656   1.929   3.630  20.421
 5593SOL     OW28657   1.808   3.699  18.774
 5593SOL    HW128658   1.742   3.718  18.707
 5593SOL    HW228659   1.876   3.766  18.761
 5594SOL     OW28660   4.255   2.388   6.340
 5594SOL    HW128661   4.209   2.310   6.372
 5594SOL    HW228662   4.209   2.461   6.380
 5595SOL     OW28663   0.989   1.861   2.611
 5595SOL    HW128664   0.984   1.935   2.551
 5595SOL    HW228665   0.904   1.860   2.655
 5596SOL     OW28666   3.447   3.487   4.563
 5596SOL    HW128667   3.365   3.535   4.557
 5596SOL    HW228668   3.497   3.534   4.630
 5597SOL     OW28669   0.387   3.931  13.871
 5597SOL    HW128670   0.468   3.903  13.828
 5597SOL    HW228671   0.333   3.852  13.872
 5598SOL     OW28672   2.386   4.659   0.757
 5598SOL    HW128673   2.347   4.574   0.738
 5598SOL    HW228674   2.392   4.703   0.673
 5599SOL     OW28675   2.001   2.528   3.772
 5599SOL    HW128676   1.991   2.479   3.691
 5599SOL    HW228677   2.072   2.484   3.818
 5600SOL     OW28678   0.483   3.215   1.009
 5600SOL    HW128679   0.424   3.188   1.079
 5600SOL    HW228680   0.443   3.295   0.974
 5601SOL     OW28681   4.038   1.495   3.677
 5601SOL    HW128682   4.042   1.529   3.587
 5601SOL    HW228683   4.059   1.402   3.668
 5602SOL     OW28684   2.737   3.849   5.010
 5602SOL    HW128685   2.673   3.919   4.997
 5602SOL    HW228686   2.798   3.859   4.937
 5603SOL     OW28687   3.936   2.899   4.379
 5603SOL    HW128688   3.953   2.811   4.414
 5603SOL    HW228689   3.925   2.954   4.457
 5604SOL     OW28690   4.233   4.199   2.755
 5604SOL    HW128691   4.173   4.190   2.681
 5604SOL    HW228692   4.320   4.204   2.714
 5605SOL     OW28693   4.489   3.289  19.920
 5605SOL    HW128694   4.576   3.304  19.957
 5605SOL    HW228695   4.505   3.242  19.838
 5606SOL     OW28696   3.761   0.542  16.858
 5606SOL    HW128697   3.737   0.631  16.882
 5606SOL    HW228698   3.709   0.523  16.780
 5607SOL     OW28699   1.764   4.415   3.817
 5607SOL    HW128700   1.814   4.496   3.802
 5607SOL    HW228701   1.793   4.356   3.748
 5608SOL     OW28702   4.765   0.529   4.966
 5608SOL    HW128703   4.737   0.466   4.900
 5608SOL    HW228704   0.030   0.590   4.919
 5609SOL     OW28705   4.311   4.359  14.990
 5609SOL    HW128706   4.318   4.328  14.899
 5609SOL    HW228707   4.223   4.333  15.018
 5610SOL     OW28708   3.197   1.466   5.925
 5610SOL    HW128709   3.263   1.524   5.889
 5610SOL    HW228710   3.144   1.441   5.850
 5611SOL     OW28711   2.638   0.605   5.082
 5611SOL    HW128712   2.617   0.558   5.001
 5611SOL    HW228713   2.732   0.595   5.092
 5612SOL     OW28714   2.828   3.229  21.185
 5612SOL    HW128715   2.881   3.280  21.246
 5612SOL    HW228716   2.806   3.150  21.234
 5613SOL     OW28717   0.223   2.398   5.436
 5613SOL    HW128718   0.144   2.443   5.405
 5613SOL    HW228719   0.273   2.467   5.481
 5614SOL     OW28720   2.013   0.778  17.292
 5614SOL    HW128721   1.964   0.826  17.226
 5614SOL    HW228722   1.963   0.789  17.373
 5615SOL     OW28723   1.004   3.990  13.973
 5615SOL    HW128724   0.996   4.080  14.006
 5615SOL    HW228725   1.036   3.940  14.047
 5616SOL     OW28726   4.434   0.299  19.276
 5616SOL    HW128727   4.358   0.351  19.305
 5616SOL    HW228728   4.443   0.231  19.343
 5617SOL     OW28729   2.883   3.758  20.680
 5617SOL    HW128730   2.890   3.707  20.760
 5617SOL    HW228731   2.887   3.849  20.709
 5618SOL     OW28732   2.516   2.741  15.056
 5618SOL    HW128733   2.501   2.689  15.135
 5618SOL    HW228734   2.495   2.831  15.081
 5619SOL     OW28735   1.468   3.752  17.997
 5619SOL    HW128736   1.396   3.810  17.970
 5619SOL    HW228737   1.441   3.665  17.966
 5620SOL     OW28738   0.376   1.842   3.500
 5620SOL    HW128739   0.339   1.833   3.412
 5620SOL    HW228740   0.416   1.756   3.518
 5621SOL     OW28741   4.170   0.814   6.330
 5621SOL    HW128742   4.118   0.766   6.394
 5621SOL    HW228743   4.180   0.752   6.257
 5622SOL     OW28744   1.370   0.879  14.759
 5622SOL    HW128745   1.393   0.884  14.852
 5622SOL    HW228746   1.453   0.892  14.713
 5623SOL     OW28747   0.168   3.943  20.163
 5623SOL    HW128748   0.243   3.984  20.121
 5623SOL    HW228749   0.193   3.935  20.255
 5624SOL     OW28750   2.281   2.341  17.142
 5624SOL    HW128751   2.224   2.417  17.154
 5624SOL    HW228752   2.319   2.326  17.228
 5625SOL     OW28753   4.163   4.465   4.711
 5625SOL    HW128754   4.118   4.530   4.765
 5625SOL    HW228755   4.094   4.427   4.656
 5626SOL     OW28756   0.790   3.743  15.367
 5626SOL    HW128757   0.717   3.775  15.314
 5626SOL    HW228758   0.856   3.717  15.302
 5627SOL     OW28759   4.326   0.187  15.842
 5627SOL    HW128760   4.398   0.249  15.828
 5627SOL    HW228761   4.350   0.140  15.922
 5628SOL     OW28762   2.206   0.425  16.772
 5628SOL    HW128763   2.138   0.459  16.830
 5628SOL    HW228764   2.223   0.497  16.711
 5629SOL     OW28765   0.480   0.361   4.739
 5629SOL    HW128766   0.566   0.320   4.740
 5629SOL    HW228767   0.438   0.330   4.819
 5630SOL     OW28768   0.098   3.587  20.515
 5630SOL    HW128769   0.084   3.501  20.554
 5630SOL    HW228770   0.120   3.568  20.424
 5631SOL     OW28771   1.081   1.335   5.433
 5631SOL    HW128772   1.098   1.417   5.479
 5631SOL    HW228773   0.997   1.348   5.391
 5632SOL     OW28774   0.024   3.442   3.212
 5632SOL    HW128775   0.011   3.470   3.122
 5632SOL    HW228776   0.037   3.347   3.205
 5633SOL     OW28777   2.814   3.978  17.140
 5633SOL    HW128778   2.904   4.009  17.143
 5633SOL    HW228779   2.767   4.045  17.092
 5634SOL     OW28780   4.559   1.407  19.786
 5634SOL    HW128781   4.585   1.330  19.736
 5634SOL    HW228782   4.641   1.450  19.809
 5635SOL     OW28783   3.963   2.513   3.532
 5635SOL    HW128784   4.036   2.452   3.539
 5635SOL    HW228785   3.981   2.564   3.453
 5636SOL     OW28786   1.574   4.166  17.229
 5636SOL    HW128787   1.529   4.133  17.306
 5636SOL    HW228788   1.534   4.252  17.214
 5637SOL     OW28789   0.468   4.649   1.507
 5637SOL    HW128790   0.549   4.662   1.556
 5637SOL    HW228791   0.403   4.701   1.554
 5638SOL     OW28792   2.655   2.255   4.115
 5638SOL    HW128793   2.678   2.292   4.200
 5638SOL    HW228794   2.574   2.208   4.130
 5639SOL     OW28795   3.552   0.840  18.264
 5639SOL    HW128796   3.584   0.759  18.303
 5639SOL    HW228797   3.555   0.904  18.336
 5640SOL     OW28798   2.495   1.038  15.695
 5640SOL    HW128799   2.450   0.962  15.657
 5640SOL    HW228800   2.430   1.108  15.692
 5641SOL     OW28801   3.918   1.879   4.336
 5641SOL    HW128802   3.910   1.823   4.413
 5641SOL    HW228803   3.989   1.840   4.285
 5642SOL     OW28804   1.924   4.747   1.545
 5642SOL    HW128805   1.895   4.759   1.454
 5642SOL    HW228806   2.017   4.769   1.543
 5643SOL     OW28807   1.494   3.060  16.139
 5643SOL    HW128808   1.561   3.129  16.140
 5643SOL    HW228809   1.471   3.050  16.047
 5644SOL     OW28810   4.178   2.088  20.825
 5644SOL    HW128811   4.257   2.069  20.775
 5644SOL    HW228812   4.209   2.104  20.914
 5645SOL     OW28813   3.348   1.124   5.184
 5645SOL    HW128814   3.260   1.088   5.170
 5645SOL    HW228815   3.397   1.052   5.223
 5646SOL     OW28816   4.130   4.486  15.740
 5646SOL    HW128817   4.068   4.557  15.755
 5646SOL    HW228818   4.100   4.446  15.658
 5647SOL     OW28819   2.264   3.950  13.840
 5647SOL    HW128820   2.250   4.043  13.856
 5647SOL    HW228821   2.356   3.936  13.862
 5648SOL     OW28822   2.858   1.303   2.453
 5648SOL    HW128823   2.855   1.239   2.381
 5648SOL    HW228824   2.945   1.291   2.492
 5649SOL     OW28825   2.042   3.323   2.503
 5649SOL    HW128826   2.027   3.413   2.535
 5649SOL    HW228827   2.016   3.326   2.411
 5650SOL     OW28828   1.592   4.253   0.910
 5650SOL    HW128829   1.558   4.224   0.825
 5650SOL    HW228830   1.545   4.334   0.929
 5651SOL     OW28831   0.263   0.647   5.684
 5651SOL    HW128832   0.293   0.617   5.598
 5651SOL    HW228833   0.333   0.704   5.715
 5652SOL     OW28834   3.809   0.399   0.592
 5652SOL    HW128835   3.825   0.479   0.543
 5652SOL    HW228836   3.730   0.418   0.643
 5653SOL     OW28837   4.086   4.784  19.769
 5653SOL    HW128838   4.151   0.063  19.767
 5653SOL    HW228839   4.109   4.728  19.695
 5654SOL     OW28840   3.751   1.827   8.696
 5654SOL    HW128841   3.738   1.749   8.750
 5654SOL    HW228842   3.846   1.836   8.689
 5655SOL     OW28843   1.154   1.551   0.803
 5655SOL    HW128844   1.088   1.482   0.797
 5655SOL    HW228845   1.234   1.505   0.830
 5656SOL     OW28846   4.306   4.176   6.545
 5656SOL    HW128847   4.214   4.197   6.565
 5656SOL    HW228848   4.327   4.104   6.605
 5657SOL     OW28849   0.067   2.411  12.211
 5657SOL    HW128850   0.037   2.379  12.296
 5657SOL    HW228851   0.160   2.386  12.207
 5658SOL     OW28852   2.765   3.689  14.798
 5658SOL    HW128853   2.680   3.650  14.778
 5658SOL    HW228854   2.763   3.706  14.892
 5659SOL     OW28855   3.846   1.421  20.591
 5659SOL    HW128856   3.851   1.393  20.683
 5659SOL    HW228857   3.879   1.511  20.592
 5660SOL     OW28858   4.207   2.688   5.661
 5660SOL    HW128859   4.238   2.704   5.572
 5660SOL    HW228860   4.272   2.730   5.717
 5661SOL     OW28861   2.099   2.020  19.895
 5661SOL    HW128862   2.180   2.017  19.945
 5661SOL    HW228863   2.043   2.080  19.943
 5662SOL     OW28864   4.520   4.503   4.089
 5662SOL    HW128865   4.473   4.530   4.011
 5662SOL    HW228866   4.452   4.495   4.156
 5663SOL     OW28867   4.026   3.971   5.772
 5663SOL    HW128868   4.036   3.889   5.723
 5663SOL    HW228869   3.998   4.035   5.707
 5664SOL     OW28870   4.141   3.884  18.713
 5664SOL    HW128871   4.160   3.810  18.655
 5664SOL    HW228872   4.136   3.959  18.654
 5665SOL     OW28873   2.643   4.332   0.193
 5665SOL    HW128874   2.692   4.270   0.247
 5665SOL    HW228875   2.557   4.291   0.182
 5666SOL     OW28876   0.053   4.538  18.328
 5666SOL    HW128877   4.757   4.502  18.349
 5666SOL    HW228878   0.045   4.632  18.344
 5667SOL     OW28879   3.132   4.780  17.003
 5667SOL    HW128880   3.067   0.027  17.062
 5667SOL    HW228881   3.104   0.013  16.915
 5668SOL     OW28882   1.102   1.387   0.455
 5668SOL    HW128883   1.016   1.346   0.463
 5668SOL    HW228884   1.157   1.342   0.519
 5669SOL     OW28885   0.965   0.370  21.154
 5669SOL    HW128886   0.993   0.445  21.103
 5669SOL    HW228887   0.886   0.400  21.199
 5670SOL     OW28888   0.672   3.428  19.461
 5670SOL    HW128889   0.600   3.456  19.518
 5670SOL    HW228890   0.669   3.333  19.463
 5671SOL     OW28891   2.352   3.973  19.159
 5671SOL    HW128892   2.382   3.891  19.197
 5671SOL    HW228893   2.280   4.001  19.216
 5672SOL     OW28894   0.789   2.756  19.934
 5672SOL    HW128895   0.868   2.794  19.972
 5672SOL    HW228896   0.754   2.699  20.004
 5673SOL     OW28897   0.466   3.827  17.110
 5673SOL    HW128898   0.404   3.873  17.167
 5673SOL    HW228899   0.481   3.743  17.154
 5674SOL     OW28900   3.241   2.517  16.615
 5674SOL    HW128901   3.236   2.504  16.710
 5674SOL    HW228902   3.323   2.477  16.589
 5675SOL     OW28903   3.456   1.554  17.195
 5675SOL    HW128904   3.453   1.480  17.255
 5675SOL    HW228905   3.549   1.566  17.176
 5676SOL     OW28906   3.934   0.397   1.525
 5676SOL    HW128907   4.004   0.411   1.462
 5676SOL    HW228908   3.891   0.482   1.533
 5677SOL     OW28909   2.200   3.667  19.417
 5677SOL    HW128910   2.264   3.721  19.372
 5677SOL    HW228911   2.122   3.723  19.424
 5678SOL     OW28912   3.734   0.755  19.324
 5678SOL    HW128913   3.813   0.804  19.301
 5678SOL    HW228914   3.701   0.797  19.404
 5679SOL     OW28915   0.701   2.305  15.160
 5679SOL    HW128916   0.733   2.288  15.249
 5679SOL    HW228917   0.620   2.254  15.154
 5680SOL     OW28918   0.362   2.755  18.250
 5680SOL    HW128919   0.416   2.791  18.180
 5680SOL    HW228920   0.424   2.729  18.318
 5681SOL     OW28921   0.387   4.204  19.560
 5681SOL    HW128922   0.385   4.244  19.647
 5681SOL    HW228923   0.436   4.267  19.506
 5682SOL     OW28924   1.605   0.024   6.229
 5682SOL    HW128925   1.674   0.089   6.240
 5682SOL    HW228926   1.583   4.787   6.318
 5683SOL     OW28927   1.262   1.360  20.481
 5683SOL    HW128928   1.230   1.430  20.538
 5683SOL    HW228929   1.347   1.390  20.451
 5684SOL     OW28930   1.962   3.489  16.081
 5684SOL    HW128931   1.889   3.524  16.031
 5684SOL    HW228932   1.969   3.547  16.157
 5685SOL     OW28933   4.410   0.769   4.919
 5685SOL    HW128934   4.427   0.732   4.832
 5685SOL    HW228935   4.319   0.744   4.938
 5686SOL     OW28936   3.205   1.665   3.601
 5686SOL    HW128937   3.296   1.690   3.586
 5686SOL    HW228938   3.169   1.735   3.656
 5687SOL     OW28939   1.938   0.063  16.343
 5687SOL    HW128940   1.883   0.113  16.404
 5687SOL    HW228941   2.027   0.073  16.377
 5688SOL     OW28942   0.369   2.724  20.195
 5688SOL    HW128943   0.426   2.779  20.250
 5688SOL    HW228944   0.336   2.784  20.128
 5689SOL     OW28945   1.331   3.694  20.510
 5689SOL    HW128946   1.402   3.713  20.571
 5689SOL    HW228947   1.251   3.721  20.556
 5690SOL     OW28948   0.334   0.443  13.129
 5690SOL    HW128949   0.293   0.408  13.049
 5690SOL    HW228950   0.390   0.514  13.098
 5691SOL     OW28951   4.022   4.691   5.789
 5691SOL    HW128952   4.049   4.776   5.754
 5691SOL    HW228953   4.012   4.706   5.883
 5692SOL     OW28954   4.718   4.482   6.275
 5692SOL    HW128955   4.630   4.447   6.259
 5692SOL    HW228956   4.706   4.577   6.276
 5693SOL     OW28957   3.937   0.147  16.865
 5693SOL    HW128958   3.902   0.077  16.921
 5693SOL    HW228959   4.028   0.154  16.892
 5694SOL     OW28960   3.719   0.111   1.031
 5694SOL    HW128961   3.760   0.085   0.948
 5694SOL    HW228962   3.704   0.029   1.077
 5695SOL     OW28963   2.316   0.827   3.491
 5695SOL    HW128964   2.248   0.790   3.546
 5695SOL    HW228965   2.270   0.882   3.428
 5696SOL     OW28966   0.792   3.058  18.710
 5696SOL    HW128967   0.723   3.001  18.743
 5696SOL    HW228968   0.814   3.115  18.784
 5697SOL     OW28969   1.132   4.627  16.761
 5697SOL    HW128970   1.172   4.542  16.780
 5697SOL    HW228971   1.043   4.619  16.797
 5698SOL     OW28972   0.972   2.733  16.208
 5698SOL    HW128973   0.986   2.663  16.272
 5698SOL    HW228974   0.889   2.710  16.165
 5699SOL     OW28975   1.567   0.603  17.087
 5699SOL    HW128976   1.502   0.535  17.106
 5699SOL    HW228977   1.624   0.604  17.164
 5700SOL     OW28978   3.923   0.040   1.342
 5700SOL    HW128979   3.976   0.047   1.262
 5700SOL    HW228980   3.977   4.782   1.403
 5701SOL     OW28981   1.405   1.806  18.924
 5701SOL    HW128982   1.442   1.749  18.992
 5701SOL    HW228983   1.313   1.815  18.949
 5702SOL     OW28984   3.684   1.640   7.302
 5702SOL    HW128985   3.726   1.708   7.355
 5702SOL    HW228986   3.756   1.587   7.269
 5703SOL     OW28987   3.436   0.471   2.139
 5703SOL    HW128988   3.497   0.447   2.069
 5703SOL    HW228989   3.360   0.416   2.124
 5704SOL     OW28990   1.069   0.555   3.397
 5704SOL    HW128991   1.090   0.593   3.311
 5704SOL    HW228992   1.142   0.581   3.453
 5705SOL     OW28993   2.620   3.683  17.362
 5705SOL    HW128994   2.585   3.772  17.368
 5705SOL    HW228995   2.609   3.647  17.450
 5706SOL     OW28996   4.494   2.187  16.882
 5706SOL    HW128997   4.452   2.125  16.941
 5706SOL    HW228998   4.425   2.213  16.821
 5707SOL     OW28999   2.913   4.258   5.753
 5707SOL    HW129000   2.995   4.220   5.783
 5707SOL    HW229001   2.894   4.328   5.815
 5708SOL     OW29002   2.908   0.878  14.099
 5708SOL    HW129003   2.970   0.807  14.115
 5708SOL    HW229004   2.895   0.919  14.185
 5709SOL     OW29005   1.446   2.709  16.627
 5709SOL    HW129006   1.413   2.706  16.537
 5709SOL    HW229007   1.518   2.646  16.629
 5710SOL     OW29008   3.662   4.559  19.116
 5710SOL    HW129009   3.727   4.629  19.110
 5710SOL    HW229010   3.677   4.519  19.202
 5711SOL     OW29011   1.141   1.712  20.311
 5711SOL    HW129012   1.146   1.693  20.217
 5711SOL    HW229013   1.074   1.653  20.345
 5712SOL     OW29014   3.509   3.763  16.685
 5712SOL    HW129015   3.462   3.689  16.646
 5712SOL    HW229016   3.457   3.840  16.663
 5713SOL     OW29017   2.225   4.223  18.894
 5713SOL    HW129018   2.312   4.225  18.932
 5713SOL    HW229019   2.224   4.143  18.841
 5714SOL     OW29020   1.417   4.112   1.665
 5714SOL    HW129021   1.500   4.112   1.712
 5714SOL    HW229022   1.441   4.120   1.573
 5715SOL     OW29023   2.219   1.090  18.343
 5715SOL    HW129024   2.293   1.044  18.384
 5715SOL    HW229025   2.197   1.035  18.268
 5716SOL     OW29026   4.669   1.455   4.369
 5716SOL    HW129027   4.581   1.485   4.390
 5716SOL    HW229028   4.716   1.534   4.341
 5717SOL     OW29029   3.917   4.465  16.019
 5717SOL    HW129030   3.933   4.542  15.964
 5717SOL    HW229031   3.982   4.471  16.089
 5718SOL     OW29032   4.689   2.211  19.601
 5718SOL    HW129033   4.743   2.289  19.605
 5718SOL    HW229034   4.684   2.189  19.508
 5719SOL     OW29035   0.288   4.467   0.535
 5719SOL    HW129036   0.266   4.526   0.608
 5719SOL    HW229037   0.380   4.485   0.517
 5720SOL     OW29038   1.608   2.630  15.958
 5720SOL    HW129039   1.696   2.655  15.931
 5720SOL    HW229040   1.622   2.574  16.035
 5721SOL     OW29041   4.005   4.656   4.844
 5721SOL    HW129042   3.920   4.641   4.886
 5721SOL    HW229043   4.008   4.750   4.829
 5722SOL     OW29044   4.028   1.742  17.168
 5722SOL    HW129045   4.020   1.750  17.263
 5722SOL    HW229046   4.047   1.831  17.138
 5723SOL     OW29047   1.744   2.033  18.194
 5723SOL    HW129048   1.769   2.098  18.260
 5723SOL    HW229049   1.794   1.955  18.217
 5724SOL     OW29050   1.760   2.557  19.086
 5724SOL    HW129051   1.680   2.603  19.062
 5724SOL    HW229052   1.768   2.487  19.021
 5725SOL     OW29053   4.267   1.550  21.174
 5725SOL    HW129054   4.231   1.488  21.237
 5725SOL    HW229055   4.301   1.496  21.103
 5726SOL     OW29056   2.609   3.918  12.338
 5726SOL    HW129057   2.596   3.896  12.431
 5726SOL    HW229058   2.589   4.012  12.333
 5727SOL     OW29059   2.898   3.511   2.589
 5727SOL    HW129060   2.936   3.585   2.635
 5727SOL    HW229061   2.803   3.520   2.602
 5728SOL     OW29062   4.618   0.962   4.623
 5728SOL    HW129063   4.600   0.871   4.648
 5728SOL    HW229064   4.671   0.955   4.543
 5729SOL     OW29065   4.086   2.240  20.023
 5729SOL    HW129066   4.157   2.218  20.084
 5729SOL    HW229067   4.099   2.182  19.949
 5730SOL     OW29068   2.892   3.219  18.568
 5730SOL    HW129069   2.847   3.274  18.632
 5730SOL    HW229070   2.898   3.274  18.490
 5731SOL     OW29071   1.819   2.836  15.861
 5731SOL    HW129072   1.806   2.870  15.773
 5731SOL    HW229073   1.774   2.899  15.918
 5732SOL     OW29074   3.861   2.265  18.039
 5732SOL    HW129075   3.780   2.316  18.034
 5732SOL    HW229076   3.868   2.223  17.953
 5733SOL     OW29077   4.699   3.426  16.695
 5733SOL    HW129078   4.783   3.450  16.656
 5733SOL    HW229079   4.637   3.490  16.660
 5734SOL     OW29080   3.324   2.078   5.662
 5734SOL    HW129081   3.251   2.117   5.710
 5734SOL    HW229082   3.397   2.137   5.680
 5735SOL     OW29083   0.259   0.971   4.515
 5735SOL    HW129084   0.219   0.884   4.506
 5735SOL    HW229085   0.344   0.955   4.555
 5736SOL     OW29086   2.455   4.186   2.681
 5736SOL    HW129087   2.436   4.279   2.693
 5736SOL    HW229088   2.399   4.159   2.608
 5737SOL     OW29089   0.066   3.912  18.305
 5737SOL    HW129090   0.072   4.008  18.305
 5737SOL    HW229091   0.134   3.884  18.366
 5738SOL     OW29092   2.596   1.441  19.136
 5738SOL    HW129093   2.602   1.512  19.200
 5738SOL    HW229094   2.633   1.365  19.181
 5739SOL     OW29095   2.841   2.233   6.560
 5739SOL    HW129096   2.828   2.318   6.518
 5739SOL    HW229097   2.819   2.169   6.492
 5740SOL     OW29098   3.679   3.687  14.822
 5740SOL    HW129099   3.722   3.773  14.825
 5740SOL    HW229100   3.741   3.628  14.863
 5741SOL     OW29101   1.925   1.603  18.654
 5741SOL    HW129102   1.883   1.584  18.738
 5741SOL    HW229103   1.944   1.697  18.657
 5742SOL     OW29104   4.769   1.984  20.089
 5742SOL    HW129105   4.756   2.037  20.011
 5742SOL    HW229106   4.713   2.024  20.156
 5743SOL     OW29107   3.871   3.891   5.522
 5743SOL    HW129108   3.814   3.828   5.567
 5743SOL    HW229109   3.825   3.975   5.532
 5744SOL     OW29110   1.697   2.126  16.270
 5744SOL    HW129111   1.777   2.074  16.269
 5744SOL    HW229112   1.690   2.160  16.181
 5745SOL     OW29113   1.097   3.299   1.057
 5745SOL    HW129114   1.151   3.371   1.091
 5745SOL    HW229115   1.158   3.226   1.049
 5746SOL     OW29116   0.035   0.550   6.491
 5746SOL    HW129117   0.031   0.564   6.586
 5746SOL    HW229118   0.102   0.483   6.480
 5747SOL     OW29119   2.578   3.991   6.797
 5747SOL    HW129120   2.533   3.910   6.772
 5747SOL    HW229121   2.652   3.997   6.736
 5748SOL     OW29122   4.722   4.463   1.952
 5748SOL    HW129123   4.762   4.490   1.869
 5748SOL    HW229124   0.005   4.450   2.011
 5749SOL     OW29125   2.787   0.594   1.897
 5749SOL    HW129126   2.728   0.546   1.955
 5749SOL    HW229127   2.773   0.554   1.811
 5750SOL     OW29128   0.841   3.181   2.399
 5750SOL    HW129129   0.833   3.274   2.421
 5750SOL    HW229130   0.935   3.164   2.400
 5751SOL     OW29131   3.034   0.715   5.878
 5751SOL    HW129132   3.087   0.773   5.933
 5751SOL    HW229133   3.019   0.637   5.932
 5752SOL     OW29134   2.880   0.559   0.605
 5752SOL    HW129135   2.926   0.627   0.653
 5752SOL    HW229136   2.822   0.606   0.546
 5753SOL     OW29137   0.362   0.404   0.703
 5753SOL    HW129138   0.358   0.498   0.725
 5753SOL    HW229139   0.272   0.374   0.709
 5754SOL     OW29140   0.780   2.671  17.695
 5754SOL    HW129141   0.855   2.728  17.711
 5754SOL    HW229142   0.743   2.654  17.781
 5755SOL     OW29143   3.582   3.478  17.746
 5755SOL    HW129144   3.644   3.548  17.769
 5755SOL    HW229145   3.552   3.445  17.830
 5756SOL     OW29146   2.057   1.392  15.872
 5756SOL    HW129147   2.027   1.459  15.934
 5756SOL    HW229148   2.135   1.354  15.914
 5757SOL     OW29149   3.189   1.895  17.610
 5757SOL    HW129150   3.111   1.950  17.605
 5757SOL    HW229151   3.240   1.919  17.533
 5758SOL     OW29152   4.320   0.473  20.104
 5758SOL    HW129153   4.237   0.458  20.149
 5758SOL    HW229154   4.355   0.552  20.145
 5759SOL     OW29155   3.939   1.393   1.678
 5759SOL    HW129156   4.000   1.321   1.693
 5759SOL    HW229157   3.897   1.372   1.595
 5760SOL     OW29158   1.785   4.524  20.762
 5760SOL    HW129159   1.768   4.436  20.794
 5760SOL    HW229160   1.748   4.525  20.674
 5761SOL     OW29161   1.489   3.671   6.833
 5761SOL    HW129162   1.545   3.654   6.908
 5761SOL    HW229163   1.538   3.732   6.779
 5762SOL     OW29164   1.890   0.031   1.296
 5762SOL    HW129165   1.845   0.005   1.216
 5762SOL    HW229166   1.886   0.127   1.296
 5763SOL     OW29167   0.965   1.428   1.459
 5763SOL    HW129168   0.976   1.506   1.513
 5763SOL    HW229169   0.993   1.356   1.514
 5764SOL     OW29170   0.623   1.642  15.930
 5764SOL    HW129171   0.597   1.563  15.883
 5764SOL    HW229172   0.560   1.708  15.902
 5765SOL     OW29173   0.973   0.032   1.288
 5765SOL    HW129174   1.015   0.065   1.367
 5765SOL    HW229175   0.879   0.047   1.303
 5766SOL     OW29176   1.686   3.330   4.773
 5766SOL    HW129177   1.621   3.318   4.705
 5766SOL    HW229178   1.675   3.421   4.801
 5767SOL     OW29179   1.123   1.706  15.173
 5767SOL    HW129180   1.050   1.767  15.180
 5767SOL    HW229181   1.089   1.623  15.207
 5768SOL     OW29182   2.645   2.230   4.740
 5768SOL    HW129183   2.569   2.206   4.687
 5768SOL    HW229184   2.719   2.186   4.698
 5769SOL     OW29185   1.679   4.370   2.768
 5769SOL    HW129186   1.713   4.306   2.706
 5769SOL    HW229187   1.705   4.455   2.732
 5770SOL     OW29188   0.318   0.594   2.810
 5770SOL    HW129189   0.272   0.618   2.730
 5770SOL    HW229190   0.260   0.532   2.854
 5771SOL     OW29191   4.286   2.507  14.510
 5771SOL    HW129192   4.229   2.579  14.536
 5771SOL    HW229193   4.375   2.540  14.524
 5772SOL     OW29194   3.932   1.912  18.773
 5772SOL    HW129195   3.963   1.879  18.857
 5772SOL    HW229196   3.838   1.894  18.774
 5773SOL     OW29197   1.007   2.016   1.784
 5773SOL    HW129198   0.935   1.965   1.747
 5773SOL    HW229199   0.966   2.067   1.854
 5774SOL     OW29200   3.610   3.054   5.471
 5774SOL    HW129201   3.555   2.979   5.492
 5774SOL    HW229202   3.598   3.115   5.545
 5775SOL     OW29203   0.569   2.618  15.329
 5775SOL    HW129204   0.662   2.635  15.314
 5775SOL    HW229205   0.568   2.546  15.392
 5776SOL     OW29206   1.197   4.657  17.089
 5776SOL    HW129207   1.286   4.692  17.101
 5776SOL    HW229208   1.210   4.571  17.048
 5777SOL     OW29209   3.848   1.136  20.816
 5777SOL    HW129210   3.785   1.088  20.762
 5777SOL    HW229211   3.798   1.164  20.893
 5778SOL     OW29212   1.149   0.200  20.614
 5778SOL    HW129213   1.139   0.252  20.693
 5778SOL    HW229214   1.132   0.261  20.542
 5779SOL     OW29215   4.242   1.615   1.024
 5779SOL    HW129216   4.265   1.590   0.935
 5779SOL    HW229217   4.165   1.671   1.015
 5780SOL     OW29218   1.909   4.424   2.012
 5780SOL    HW129219   1.880   4.378   2.091
 5780SOL    HW229220   1.835   4.419   1.952
 5781SOL     OW29221   0.338   0.791   1.934
 5781SOL    HW129222   0.259   0.755   1.894
 5781SOL    HW229223   0.321   0.885   1.942
 5782SOL     OW29224   1.993   0.471   3.708
 5782SOL    HW129225   1.964   0.475   3.799
 5782SOL    HW229226   2.012   0.378   3.694
 5783SOL     OW29227   1.318   3.505   2.451
 5783SOL    HW129228   1.400   3.518   2.498
 5783SOL    HW229229   1.252   3.494   2.519
 5784SOL     OW29230   3.050   0.454   3.343
 5784SOL    HW129231   3.079   0.404   3.419
 5784SOL    HW229232   3.120   0.441   3.278
 5785SOL     OW29233   4.623   0.000  14.182
 5785SOL    HW129234   4.579   0.033  14.103
 5785SOL    HW229235   4.715   0.022  14.169
 5786SOL     OW29236   3.989   0.682   1.726
 5786SOL    HW129237   3.913   0.651   1.677
 5786SOL    HW229238   4.062   0.674   1.664
 5787SOL     OW29239   1.375   0.917   3.890
 5787SOL    HW129240   1.439   0.933   3.820
 5787SOL    HW229241   1.381   0.823   3.907
 5788SOL     OW29242   4.048   3.509   4.140
 5788SOL    HW129243   4.054   3.602   4.120
 5788SOL    HW229244   4.080   3.465   4.061
 5789SOL     OW29245   2.453   1.045   5.493
 5789SOL    HW129246   2.410   1.013   5.414
 5789SOL    HW229247   2.541   1.007   5.490
 5790SOL     OW29248   3.220   2.945   6.484
 5790SOL    HW129249   3.250   2.855   6.474
 5790SOL    HW229250   3.298   2.994   6.509
 5791SOL     OW29251   1.985   2.680  17.191
 5791SOL    HW129252   2.039   2.741  17.142
 5791SOL    HW229253   1.917   2.653  17.130
 5792SOL     OW29254   0.575   0.996   5.224
 5792SOL    HW129255   0.566   0.959   5.311
 5792SOL    HW229256   0.624   0.931   5.175
 5793SOL     OW29257   1.738   1.710   1.241
 5793SOL    HW129258   1.688   1.629   1.249
 5793SOL    HW229259   1.771   1.710   1.151
 5794SOL     OW29260   1.763   2.213   0.748
 5794SOL    HW129261   1.743   2.306   0.754
 5794SOL    HW229262   1.703   2.171   0.809
 5795SOL     OW29263   0.565   0.862  20.339
 5795SOL    HW129264   0.659   0.868  20.326
 5795SOL    HW229265   0.546   0.928  20.406
 5796SOL     OW29266   3.818   3.856  18.165
 5796SOL    HW129267   3.794   3.778  18.115
 5796SOL    HW229268   3.906   3.877  18.135
 5797SOL     OW29269   4.653   0.658  17.682
 5797SOL    HW129270   4.600   0.691  17.754
 5797SOL    HW229271   4.591   0.612  17.625
 5798SOL     OW29272   3.525   4.560  16.182
 5798SOL    HW129273   3.602   4.601  16.221
 5798SOL    HW229274   3.561   4.508  16.110
 5799SOL     OW29275   2.607   0.512   2.732
 5799SOL    HW129276   2.557   0.440   2.771
 5799SOL    HW229277   2.629   0.568   2.807
 5800SOL     OW29278   2.153   0.804   4.662
 5800SOL    HW129279   2.108   0.732   4.707
 5800SOL    HW229280   2.221   0.761   4.611
 5801SOL     OW29281   3.583   3.666  12.324
 5801SOL    HW129282   3.644   3.694  12.392
 5801SOL    HW229283   3.506   3.722  12.335
 5802SOL     OW29284   3.632   1.812  16.467
 5802SOL    HW129285   3.673   1.898  16.458
 5802SOL    HW229286   3.585   1.817  16.550
 5803SOL     OW29287   1.530   3.465  15.212
 5803SOL    HW129288   1.460   3.513  15.169
 5803SOL    HW229289   1.528   3.378  15.171
 5804SOL     OW29290   3.982   2.970   6.846
 5804SOL    HW129291   3.949   2.924   6.769
 5804SOL    HW229292   3.939   2.926   6.920
 5805SOL     OW29293   3.161   4.115  19.886
 5805SOL    HW129294   3.208   4.167  19.951
 5805SOL    HW229295   3.070   4.117  19.915
 5806SOL     OW29296   3.453   0.634   4.368
 5806SOL    HW129297   3.451   0.545   4.333
 5806SOL    HW229298   3.364   0.667   4.356
 5807SOL     OW29299   2.170   0.894   5.941
 5807SOL    HW129300   2.184   0.957   5.870
 5807SOL    HW229301   2.231   0.921   6.009
 5808SOL     OW29302   0.832   3.441   4.365
 5808SOL    HW129303   0.784   3.385   4.424
 5808SOL    HW229304   0.781   3.522   4.361
 5809SOL     OW29305   4.694   3.832  18.769
 5809SOL    HW129306   4.695   3.927  18.781
 5809SOL    HW229307   4.603   3.810  18.750
 5810SOL     OW29308   3.011   4.601  21.107
 5810SOL    HW129309   3.076   4.564  21.166
 5810SOL    HW229310   2.940   4.537  21.105
 5811SOL     OW29311   2.168   0.595   3.145
 5811SOL    HW129312   2.073   0.601   3.155
 5811SOL    HW229313   2.195   0.529   3.209
 5812SOL     OW29314   4.068   4.246   6.621
 5812SOL    HW129315   4.021   4.188   6.561
 5812SOL    HW229316   4.011   4.322   6.630
 5813SOL     OW29317   1.386   0.684  18.238
 5813SOL    HW129318   1.341   0.769  18.243
 5813SOL    HW229319   1.478   0.707  18.222
 5814SOL     OW29320   2.968   1.792  19.444
 5814SOL    HW129321   2.876   1.818  19.447
 5814SOL    HW229322   2.966   1.697  19.456
 5815SOL     OW29323   2.935   0.836   5.219
 5815SOL    HW129324   2.864   0.780   5.251
 5815SOL    HW229325   2.890   0.909   5.176
 5816SOL     OW29326   2.168   2.650  20.368
 5816SOL    HW129327   2.109   2.712  20.411
 5816SOL    HW229328   2.114   2.571  20.355
 5817SOL     OW29329   4.608   4.056   5.559
 5817SOL    HW129330   4.616   4.018   5.471
 5817SOL    HW229331   4.515   4.075   5.569
 5818SOL     OW29332   0.026   2.894   0.618
 5818SOL    HW129333   0.104   2.840   0.630
 5818SOL    HW229334   4.783   2.868   0.533
 5819SOL     OW29335   0.746   3.126  15.728
 5819SOL    HW129336   0.691   3.147  15.804
 5819SOL    HW229337   0.693   3.064  15.677
 5820SOL     OW29338   0.537   0.164   2.067
 5820SOL    HW129339   0.628   0.184   2.042
 5820SOL    HW229340   0.541   0.075   2.101
 5821SOL     OW29341   3.444   2.592  17.233
 5821SOL    HW129342   3.452   2.547  17.149
 5821SOL    HW229343   3.502   2.543  17.292
 5822SOL     OW29344   2.814   1.089   1.519
 5822SOL    HW129345   2.733   1.073   1.567
 5822SOL    HW229346   2.845   1.002   1.495
 5823SOL     OW29347   0.583   1.301  18.247
 5823SOL    HW129348   0.593   1.396  18.248
 5823SOL    HW229349   0.524   1.282  18.320
 5824SOL     OW29350   1.351   2.850   0.071
 5824SOL    HW129351   1.433   2.857   0.022
 5824SOL    HW229352   1.339   2.936   0.111
 5825SOL     OW29353   0.428   1.872  19.214
 5825SOL    HW129354   0.334   1.860  19.205
 5825SOL    HW229355   0.441   1.967  19.211
 5826SOL     OW29356   3.134   0.300   2.627
 5826SOL    HW129357   3.063   0.358   2.654
 5826SOL    HW229358   3.128   0.226   2.686
 5827SOL     OW29359   1.785   4.048  16.737
 5827SOL    HW129360   1.870   4.080  16.706
 5827SOL    HW229361   1.727   4.059  16.661
 5828SOL     OW29362   0.522   0.805  17.237
 5828SOL    HW129363   0.503   0.870  17.171
 5828SOL    HW229364   0.481   0.725  17.205
 5829SOL     OW29365   2.321   0.000  17.034
 5829SOL    HW129366   2.320   4.695  17.029
 5829SOL    HW229367   2.412   0.024  17.017
 5830SOL     OW29368   1.496   2.803   2.075
 5830SOL    HW129369   1.531   2.877   2.125
 5830SOL    HW229370   1.423   2.839   2.025
 5831SOL     OW29371   0.695   2.218   1.295
 5831SOL    HW129372   0.606   2.207   1.327
 5831SOL    HW229373   0.703   2.312   1.278
 5832SOL     OW29374   2.920   1.671   7.588
 5832SOL    HW129375   2.896   1.585   7.556
 5832SOL    HW229376   3.015   1.676   7.575
 5833SOL     OW29377   1.187   4.605   1.825
 5833SOL    HW129378   1.139   4.571   1.749
 5833SOL    HW229379   1.182   4.700   1.814
 5834SOL     OW29380   1.147   4.017   1.811
 5834SOL    HW129381   1.165   4.015   1.905
 5834SOL    HW229382   1.230   4.041   1.771
 5835SOL     OW29383   4.314   1.063   3.478
 5835SOL    HW129384   4.336   1.000   3.410
 5835SOL    HW229385   4.363   1.034   3.555
 5836SOL     OW29386   3.758   1.901   7.348
 5836SOL    HW129387   3.834   1.874   7.296
 5836SOL    HW229388   3.728   1.982   7.306
 5837SOL     OW29389   2.107   2.019  17.583
 5837SOL    HW129390   2.172   2.019  17.514
 5837SOL    HW229391   2.075   1.928  17.586
 5838SOL     OW29392   2.467   2.664  14.400
 5838SOL    HW129393   2.377   2.633  14.415
 5838SOL    HW229394   2.466   2.754  14.432
 5839SOL     OW29395   3.583   4.260  19.505
 5839SOL    HW129396   3.530   4.191  19.544
 5839SOL    HW229397   3.572   4.248  19.411
 5840SOL     OW29398   4.193   1.531  18.940
 5840SOL    HW129399   4.108   1.568  18.961
 5840SOL    HW229400   4.229   1.591  18.874
 5841SOL     OW29401   1.736   3.069  21.155
 5841SOL    HW129402   1.718   3.155  21.118
 5841SOL    HW229403   1.830   3.070  21.173
 5842SOL     OW29404   0.124   4.069  20.947
 5842SOL    HW129405   0.055   4.047  20.885
 5842SOL    HW229406   0.195   4.007  20.927
 5843SOL     OW29407   2.070   3.605  18.336
 5843SOL    HW129408   2.143   3.644  18.384
 5843SOL    HW229409   2.084   3.511  18.343
 5844SOL     OW29410   2.413   1.663   6.235
 5844SOL    HW129411   2.420   1.568   6.247
 5844SOL    HW229412   2.323   1.678   6.207
 5845SOL     OW29413   1.083   3.857  19.084
 5845SOL    HW129414   1.042   3.771  19.088
 5845SOL    HW229415   1.139   3.861  19.162
 5846SOL     OW29416   2.385   0.887  18.530
 5846SOL    HW129417   2.378   0.839  18.612
 5846SOL    HW229418   2.475   0.874  18.501
 5847SOL     OW29419   2.749   4.141   4.465
 5847SOL    HW129420   2.750   4.047   4.448
 5847SOL    HW229421   2.691   4.150   4.541
 5848SOL     OW29422   0.105   1.086   2.392
 5848SOL    HW129423   0.138   1.164   2.437
 5848SOL    HW229424   0.062   1.120   2.314
 5849SOL     OW29425   0.090   2.175  19.281
 5849SOL    HW129426   0.040   2.254  19.301
 5849SOL    HW229427   0.040   2.131  19.213
 5850SOL     OW29428   2.949   2.931   1.541
 5850SOL    HW129429   2.872   2.958   1.491
 5850SOL    HW229430   2.969   2.843   1.509
 5851SOL     OW29431   3.568   1.294   5.573
 5851SOL    HW129432   3.595   1.384   5.589
 5851SOL    HW229433   3.516   1.298   5.493
 5852SOL     OW29434   4.264   3.709  16.912
 5852SOL    HW129435   4.197   3.641  16.918
 5852SOL    HW229436   4.344   3.663  16.885
 5853SOL     OW29437   1.772   4.303   4.071
 5853SOL    HW129438   1.683   4.272   4.089
 5853SOL    HW229439   1.770   4.328   3.978
 5854SOL     OW29440   4.242   4.240  19.639
 5854SOL    HW129441   4.312   4.287  19.595
 5854SOL    HW229442   4.177   4.307  19.660
 5855SOL     OW29443   2.083   0.758  15.647
 5855SOL    HW129444   2.161   0.805  15.676
 5855SOL    HW229445   2.034   0.740  15.727
 5856SOL     OW29446   0.341   3.508  16.182
 5856SOL    HW129447   0.432   3.539  16.176
 5856SOL    HW229448   0.307   3.519  16.093
 5857SOL     OW29449   4.237   0.222   2.253
 5857SOL    HW129450   4.210   0.231   2.161
 5857SOL    HW229451   4.229   0.128   2.270
 5858SOL     OW29452   3.057   1.770   3.144
 5858SOL    HW129453   3.076   1.695   3.201
 5858SOL    HW229454   3.142   1.799   3.113
 5859SOL     OW29455   0.327   0.165  15.793
 5859SOL    HW129456   0.239   0.161  15.829
 5859SOL    HW229457   0.326   0.241  15.735
 5860SOL     OW29458   1.463   1.625   5.581
 5860SOL    HW129459   1.456   1.545   5.529
 5860SOL    HW229460   1.390   1.619   5.643
 5861SOL     OW29461   0.953   1.702   0.950
 5861SOL    HW129462   1.013   1.725   1.020
 5861SOL    HW229463   1.007   1.655   0.886
 5862SOL     OW29464   2.090   3.934   5.770
 5862SOL    HW129465   2.088   3.876   5.694
 5862SOL    HW229466   2.053   4.016   5.739
 5863SOL     OW29467   0.988   0.019   3.122
 5863SOL    HW129468   0.923   4.772   3.180
 5863SOL    HW229469   0.965   0.112   3.117
 5864SOL     OW29470   0.295   2.378   3.567
 5864SOL    HW129471   0.251   2.355   3.484
 5864SOL    HW229472   0.377   2.419   3.540
 5865SOL     OW29473   1.590   2.844  21.245
 5865SOL    HW129474   1.642   2.922  21.225
 5865SOL    HW229475   1.653   2.772  21.240
 5866SOL     OW29476   0.855   4.308   5.103
 5866SOL    HW129477   0.886   4.382   5.050
 5866SOL    HW229478   0.813   4.250   5.040
 5867SOL     OW29479   1.161   2.924  18.682
 5867SOL    HW129480   1.223   2.943  18.612
 5867SOL    HW229481   1.186   2.982  18.754
 5868SOL     OW29482   0.977   1.035   4.961
 5868SOL    HW129483   0.990   1.041   4.867
 5868SOL    HW229484   1.061   1.003   4.995
 5869SOL     OW29485   3.317   0.115  20.983
 5869SOL    HW129486   3.382   0.092  20.916
 5869SOL    HW229487   3.233   0.100  20.940
 5870SOL     OW29488   1.877   0.774  16.694
 5870SOL    HW129489   1.789   0.737  16.704
 5870SOL    HW229490   1.876   0.852  16.749
 5871SOL     OW29491   3.738   3.180  18.538
 5871SOL    HW129492   3.658   3.128  18.548
 5871SOL    HW229493   3.808   3.121  18.565
 5872SOL     OW29494   2.275   1.738   1.837
 5872SOL    HW129495   2.328   1.729   1.758
 5872SOL    HW229496   2.186   1.719   1.809
 5873SOL     OW29497   2.694   2.641  16.568
 5873SOL    HW129498   2.730   2.724  16.538
 5873SOL    HW229499   2.722   2.634  16.659
 5874SOL     OW29500   3.793   3.079   2.964
 5874SOL    HW129501   3.776   3.100   2.872
 5874SOL    HW229502   3.728   3.131   3.012
 5875SOL     OW29503   1.727   3.976  19.261
 5875SOL    HW129504   1.752   4.058  19.304
 5875SOL    HW229505   1.670   3.932  19.325
 5876SOL     OW29506   4.453   4.718  15.211
 5876SOL    HW129507   4.394   4.778  15.258
 5876SOL    HW229508   4.470   4.648  15.273
 5877SOL     OW29509   0.962   3.729  20.869
 5877SOL    HW129510   0.869   3.709  20.875
 5877SOL    HW229511   0.996   3.711  20.957
 5878SOL     OW29512   2.360   0.420  19.344
 5878SOL    HW129513   2.315   0.382  19.269
 5878SOL    HW229514   2.382   0.509  19.318
 5879SOL     OW29515   1.286   3.524  16.582
 5879SOL    HW129516   1.340   3.520  16.503
 5879SOL    HW229517   1.201   3.555  16.551
 5880SOL     OW29518   2.857   4.407   1.830
 5880SOL    HW129519   2.790   4.392   1.763
 5880SOL    HW229520   2.928   4.451   1.783
 5881SOL     OW29521   4.407   4.216  20.299
 5881SOL    HW129522   4.426   4.247  20.388
 5881SOL    HW229523   4.359   4.287  20.258
 5882SOL     OW29524   0.714   3.912  21.197
 5882SOL    HW129525   0.668   3.836  21.163
 5882SOL    HW229526   0.752   3.883   0.016
 5883SOL     OW29527   3.800   3.366   4.229
 5883SOL    HW129528   3.790   3.286   4.179
 5883SOL    HW229529   3.867   3.416   4.182
 5884SOL     OW29530   2.098   0.476  15.552
 5884SOL    HW129531   2.104   0.563  15.591
 5884SOL    HW229532   2.048   0.489  15.471
 5885SOL     OW29533   1.167   1.530  15.969
 5885SOL    HW129534   1.253   1.495  15.945
 5885SOL    HW229535   1.180   1.625  15.974
 5886SOL     OW29536   1.295   1.727   3.672
 5886SOL    HW129537   1.254   1.645   3.701
 5886SOL    HW229538   1.223   1.778   3.636
 5887SOL     OW29539   1.476   3.905   1.924
 5887SOL    HW129540   1.487   3.819   1.884
 5887SOL    HW229541   1.560   3.950   1.909
 5888SOL     OW29542   4.688   3.926  16.320
 5888SOL    HW129543   4.759   3.878  16.276
 5888SOL    HW229544   4.725   3.953  16.404
 5889SOL     OW29545   4.773   2.368  19.051
 5889SOL    HW129546   4.785   2.421  19.130
 5889SOL    HW229547   0.024   2.419  18.982
 5890SOL     OW29548   1.834   3.994  13.714
 5890SOL    HW129549   1.787   4.046  13.780
 5890SOL    HW229550   1.909   4.048  13.690
 5891SOL     OW29551   0.538   4.510  17.019
 5891SOL    HW129552   0.623   4.510  17.063
 5891SOL    HW229553   0.483   4.454  17.073
 5892SOL     OW29554   0.258   2.718   4.224
 5892SOL    HW129555   0.324   2.657   4.256
 5892SOL    HW229556   0.308   2.789   4.183
 5893SOL     OW29557   4.232   1.666  15.622
 5893SOL    HW129558   4.245   1.760  15.605
 5893SOL    HW229559   4.163   1.663  15.688
 5894SOL     OW29560   1.288   3.797   3.168
 5894SOL    HW129561   1.283   3.810   3.263
 5894SOL    HW229562   1.307   3.884   3.134
 5895SOL     OW29563   2.823   0.994   0.582
 5895SOL    HW129564   2.811   0.902   0.605
 5895SOL    HW229565   2.762   1.008   0.510
 5896SOL     OW29566   4.600   2.928   3.669
 5896SOL    HW129567   4.588   2.938   3.764
 5896SOL    HW229568   4.666   2.860   3.660
 5897SOL     OW29569   1.487   2.582  18.189
 5897SOL    HW129570   1.412   2.523  18.191
 5897SOL    HW229571   1.561   2.527  18.216
 5898SOL     OW29572   4.478   2.404   2.155
 5898SOL    HW129573   4.459   2.497   2.141
 5898SOL    HW229574   4.557   2.388   2.103
 5899SOL     OW29575   3.158   2.066  16.215
 5899SOL    HW129576   3.183   2.048  16.124
 5899SOL    HW229577   3.216   2.010  16.267
 5900SOL     OW29578   3.281   0.188  18.819
 5900SOL    HW129579   3.227   0.113  18.793
 5900SOL    HW229580   3.239   0.222  18.898
 5901SOL     OW29581   4.034   0.974   3.478
 5901SOL    HW129582   3.972   0.972   3.551
 5901SOL    HW229583   4.107   0.920   3.507
 5902SOL     OW29584   3.466   4.424  17.256
 5902SOL    HW129585   3.426   4.493  17.203
 5902SOL    HW229586   3.465   4.459  17.345
 5903SOL     OW29587   4.158   3.085  20.618
 5903SOL    HW129588   4.106   3.096  20.538
 5903SOL    HW229589   4.099   3.110  20.689
 5904SOL     OW29590   1.721   2.683  19.978
 5904SOL    HW129591   1.664   2.756  20.002
 5904SOL    HW229592   1.809   2.718  19.987
 5905SOL     OW29593   2.479   4.153  17.027
 5905SOL    HW129594   2.399   4.141  17.079
 5905SOL    HW229595   2.543   4.188  17.089
 5906SOL     OW29596   1.883   3.912   0.718
 5906SOL    HW129597   1.830   3.968   0.661
 5906SOL    HW229598   1.852   3.930   0.806
 5907SOL     OW29599   1.731   3.158   7.622
 5907SOL    HW129600   1.683   3.147   7.704
 5907SOL    HW229601   1.748   3.252   7.616
 5908SOL     OW29602   0.733   1.821  16.226
 5908SOL    HW129603   0.749   1.732  16.193
 5908SOL    HW229604   0.729   1.875  16.148
 5909SOL     OW29605   3.874   1.848   5.777
 5909SOL    HW129606   3.818   1.843   5.699
 5909SOL    HW229607   3.963   1.845   5.742
 5910SOL     OW29608   0.770   3.114   3.504
 5910SOL    HW129609   0.695   3.157   3.464
 5910SOL    HW229610   0.835   3.110   3.434
 5911SOL     OW29611   1.120   1.567   8.872
 5911SOL    HW129612   1.185   1.621   8.827
 5911SOL    HW229613   1.096   1.618   8.949
 5912SOL     OW29614   2.834   3.584  16.188
 5912SOL    HW129615   2.928   3.597  16.175
 5912SOL    HW229616   2.797   3.672  16.186
 5913SOL     OW29617   1.834   0.980  17.158
 5913SOL    HW129618   1.742   0.962  17.179
 5913SOL    HW229619   1.851   1.066  17.196
 5914SOL     OW29620   3.911   4.685   2.176
 5914SOL    HW129621   3.909   4.776   2.205
 5914SOL    HW229622   3.979   4.683   2.108
 5915SOL     OW29623   0.915   2.289   3.243
 5915SOL    HW129624   0.997   2.243   3.226
 5915SOL    HW229625   0.902   2.282   3.337
 5916SOL     OW29626   0.338   4.291  19.829
 5916SOL    HW129627   0.411   4.346  19.859
 5916SOL    HW229628   0.269   4.306  19.894
 5917SOL     OW29629   4.532   4.316   6.978
 5917SOL    HW129630   4.573   4.245   6.929
 5917SOL    HW229631   4.605   4.374   7.002
 5918SOL     OW29632   2.642   0.685  18.297
 5918SOL    HW129633   2.632   0.607  18.351
 5918SOL    HW229634   2.589   0.668  18.219
 5919SOL     OW29635   4.005   0.511  16.721
 5919SOL    HW129636   3.922   0.492  16.765
 5919SOL    HW229637   3.986   0.500  16.628
 5920SOL     OW29638   2.634   3.800  17.934
 5920SOL    HW129639   2.657   3.892  17.929
 5920SOL    HW229640   2.546   3.795  17.897
 5921SOL     OW29641   3.097   3.590   6.628
 5921SOL    HW129642   3.017   3.540   6.615
 5921SOL    HW229643   3.145   3.542   6.696
 5922SOL     OW29644   1.748   2.876  13.919
 5922SOL    HW129645   1.765   2.970  13.912
 5922SOL    HW229646   1.711   2.865  14.006
 5923SOL     OW29647   1.407   2.343   5.111
 5923SOL    HW129648   1.384   2.266   5.060
 5923SOL    HW229649   1.422   2.412   5.046
 5924SOL     OW29650   3.396   2.646   2.207
 5924SOL    HW129651   3.491   2.657   2.210
 5924SOL    HW229652   3.368   2.701   2.133
 5925SOL     OW29653   3.384   0.914   5.520
 5925SOL    HW129654   3.421   0.964   5.592
 5925SOL    HW229655   3.310   0.966   5.490
 5926SOL     OW29656   3.554   3.183   6.762
 5926SOL    HW129657   3.617   3.248   6.730
 5926SOL    HW229658   3.543   3.205   6.855
 5927SOL     OW29659   2.202   1.595  19.908
 5927SOL    HW129660   2.115   1.633  19.922
 5927SOL    HW229661   2.223   1.553  19.992
 5928SOL     OW29662   0.979   0.120  16.036
 5928SOL    HW129663   0.967   0.193  15.975
 5928SOL    HW229664   1.073   0.101  16.031
 5929SOL     OW29665   2.698   3.214  15.664
 5929SOL    HW129666   2.768   3.270  15.695
 5929SOL    HW229667   2.742   3.137  15.629
 5930SOL     OW29668   0.050   0.635  17.215
 5930SOL    HW129669   0.044   0.726  17.244
 5930SOL    HW229670   0.032   0.584  17.294
 5931SOL     OW29671   0.429   0.210  20.900
 5931SOL    HW129672   0.488   0.241  20.968
 5931SOL    HW229673   0.435   0.114  20.905
 5932SOL     OW29674   2.056   4.121   5.283
 5932SOL    HW129675   2.122   4.160   5.340
 5932SOL    HW229676   2.022   4.047   5.334
 5933SOL     OW29677   1.636   2.057   0.308
 5933SOL    HW129678   1.642   1.976   0.256
 5933SOL    HW229679   1.701   2.115   0.270
 5934SOL     OW29680   4.320   2.754   2.909
 5934SOL    HW129681   4.300   2.730   2.819
 5934SOL    HW229682   4.247   2.719   2.960
 5935SOL     OW29683   3.262   3.961  20.908
 5935SOL    HW129684   3.229   3.883  20.865
 5935SOL    HW229685   3.346   3.935  20.946
 5936SOL     OW29686   3.420   3.835   6.409
 5936SOL    HW129687   3.429   3.819   6.315
 5936SOL    HW229688   3.358   3.768   6.439
 5937SOL     OW29689   3.571   4.191  20.101
 5937SOL    HW129690   3.621   4.148  20.032
 5937SOL    HW229691   3.553   4.122  20.165
 5938SOL     OW29692   0.829   4.142   2.442
 5938SOL    HW129693   0.882   4.161   2.519
 5938SOL    HW229694   0.808   4.229   2.406
 5939SOL     OW29695   4.304   2.843   1.243
 5939SOL    HW129696   4.216   2.818   1.214
 5939SOL    HW229697   4.356   2.763   1.232
 5940SOL     OW29698   2.768   3.859   3.740
 5940SOL    HW129699   2.737   3.811   3.663
 5940SOL    HW229700   2.848   3.813   3.766
 5941SOL     OW29701   3.223   3.365  19.117
 5941SOL    HW129702   3.294   3.312  19.155
 5941SOL    HW229703   3.188   3.310  19.047
 5942SOL     OW29704   3.335   2.795   0.919
 5942SOL    HW129705   3.250   2.835   0.902
 5942SOL    HW229706   3.397   2.852   0.875
 5943SOL     OW29707   2.633   2.079   0.488
 5943SOL    HW129708   2.718   2.050   0.453
 5943SOL    HW229709   2.574   2.075   0.412
 5944SOL     OW29710   3.267   1.984   2.528
 5944SOL    HW129711   3.245   1.981   2.435
 5944SOL    HW229712   3.277   2.077   2.547
 5945SOL     OW29713   3.757   1.206  14.839
 5945SOL    HW129714   3.781   1.249  14.757
 5945SOL    HW229715   3.752   1.276  14.903
 5946SOL     OW29716   1.075   1.212   1.635
 5946SOL    HW129717   1.030   1.215   1.720
 5946SOL    HW229718   1.152   1.267   1.647
 5947SOL     OW29719   0.992   3.172  15.773
 5947SOL    HW129720   0.911   3.151  15.726
 5947SOL    HW229721   1.023   3.253  15.732
 5948SOL     OW29722   2.308   3.428   7.650
 5948SOL    HW129723   2.261   3.360   7.698
 5948SOL    HW229724   2.334   3.491   7.718
 5949SOL     OW29725   2.180   1.161  19.352
 5949SOL    HW129726   2.132   1.085  19.317
 5949SOL    HW229727   2.230   1.194  19.277
 5950SOL     OW29728   2.872   2.303   5.173
 5950SOL    HW129729   2.867   2.208   5.158
 5950SOL    HW229730   2.802   2.339   5.119
 5951SOL     OW29731   3.404   1.624   5.839
 5951SOL    HW129732   3.418   1.704   5.788
 5951SOL    HW229733   3.489   1.605   5.878
 5952SOL     OW29734   4.192   0.854   1.599
 5952SOL    HW129735   4.257   0.896   1.656
 5952SOL    HW229736   4.165   0.923   1.539
 5953SOL     OW29737   4.105   4.512   9.128
 5953SOL    HW129738   4.014   4.481   9.126
 5953SOL    HW229739   4.149   4.452   9.187
 5954SOL     OW29740   0.733   1.828  15.150
 5954SOL    HW129741   0.655   1.826  15.206
 5954SOL    HW229742   0.770   1.741  15.157
 5955SOL     OW29743   3.376   0.338  17.757
 5955SOL    HW129744   3.295   0.288  17.740
 5955SOL    HW229745   3.377   0.404  17.688
 5956SOL     OW29746   1.391   0.878   7.179
 5956SOL    HW129747   1.482   0.872   7.210
 5956SOL    HW229748   1.353   0.950   7.229
 5957SOL     OW29749   3.816   1.185   5.536
 5957SOL    HW129750   3.890   1.224   5.489
 5957SOL    HW229751   3.745   1.249   5.526
 5958SOL     OW29752   3.097   2.487  16.836
 5958SOL    HW129753   3.021   2.513  16.785
 5958SOL    HW229754   3.107   2.554  16.903
 5959SOL     OW29755   4.078   0.717   4.522
 5959SOL    HW129756   4.169   0.689   4.522
 5959SOL    HW229757   4.041   0.679   4.443
 5960SOL     OW29758   3.665   3.054   7.642
 5960SOL    HW129759   3.715   3.073   7.722
 5960SOL    HW229760   3.732   3.042   7.574
 5961SOL     OW29761   2.986   1.694   2.035
 5961SOL    HW129762   3.039   1.651   1.967
 5961SOL    HW229763   2.912   1.634   2.049
 5962SOL     OW29764   4.498   4.390  20.553
 5962SOL    HW129765   4.539   4.460  20.502
 5962SOL    HW229766   4.433   4.434  20.607
 5963SOL     OW29767   2.356   1.021   3.052
 5963SOL    HW129768   2.370   0.997   2.960
 5963SOL    HW229769   2.392   1.109   3.060
 5964SOL     OW29770   4.463   0.751   2.558
 5964SOL    HW129771   4.525   0.774   2.627
 5964SOL    HW229772   4.494   0.799   2.481
 5965SOL     OW29773   4.254   2.166   5.272
 5965SOL    HW129774   4.166   2.161   5.235
 5965SOL    HW229775   4.245   2.130   5.360
 5966SOL     OW29776   3.107   2.985   4.474
 5966SOL    HW129777   3.027   3.018   4.515
 5966SOL    HW229778   3.143   2.923   4.537
 5967SOL     OW29779   4.117   2.437   5.752
 5967SOL    HW129780   4.172   2.401   5.822
 5967SOL    HW229781   4.149   2.526   5.739
 5968SOL     OW29782   4.294   1.165   0.139
 5968SOL    HW129783   4.291   1.081   0.184
 5968SOL    HW229784   4.382   1.168   0.100
 5969SOL     OW29785   4.664   0.243  17.522
 5969SOL    HW129786   4.674   0.264  17.615
 5969SOL    HW229787   4.628   0.323  17.483
 5970SOL     OW29788   3.581   4.740   4.967
 5970SOL    HW129789   3.554   4.656   4.929
 5970SOL    HW229790   3.506   4.768   5.019
 5971SOL     OW29791   0.772   2.602   7.777
 5971SOL    HW129792   0.759   2.583   7.870
 5971SOL    HW229793   0.761   2.517   7.733
 5972SOL     OW29794   3.189   3.672   2.550
 5972SOL    HW129795   3.122   3.738   2.569
 5972SOL    HW229796   3.271   3.712   2.580
 5973SOL     OW29797   0.037   1.141   8.140
 5973SOL    HW129798   0.082   1.142   8.055
 5973SOL    HW229799   4.752   1.198   8.127
 5974SOL     OW29800   4.656   2.913   6.433
 5974SOL    HW129801   4.588   2.975   6.459
 5974SOL    HW229802   4.711   2.904   6.511
 5975SOL     OW29803   2.426   3.913  20.946
 5975SOL    HW129804   2.463   3.843  20.893
 5975SOL    HW229805   2.463   3.994  20.909
 5976SOL     OW29806   1.940   3.701   6.100
 5976SOL    HW129807   1.954   3.741   6.014
 5976SOL    HW229808   1.903   3.771   6.153
 5977SOL     OW29809   2.226   4.552  15.690
 5977SOL    HW129810   2.133   4.576  15.689
 5977SOL    HW229811   2.227   4.457  15.695
 5978SOL     OW29812   4.493   3.119   8.227
 5978SOL    HW129813   4.561   3.150   8.287
 5978SOL    HW229814   4.524   3.147   8.140
 5979SOL     OW29815   3.867   2.916   5.924
 5979SOL    HW129816   3.779   2.955   5.918
 5979SOL    HW229817   3.897   2.912   5.833
 5980SOL     OW29818   1.742   2.603  21.229
 5980SOL    HW129819   1.833   2.597  21.200
 5980SOL    HW229820   1.718   2.512  21.248
 5981SOL     OW29821   4.585   0.871   1.548
 5981SOL    HW129822   4.613   0.859   1.639
 5981SOL    HW229823   4.593   0.965   1.533
 5982SOL     OW29824   2.880   4.202   1.407
 5982SOL    HW129825   2.933   4.282   1.415
 5982SOL    HW229826   2.928   4.138   1.460
 5983SOL     OW29827   2.594   3.682   0.374
 5983SOL    HW129828   2.652   3.722   0.438
 5983SOL    HW229829   2.506   3.705   0.404
 5984SOL     OW29830   3.321   0.553   0.582
 5984SOL    HW129831   3.323   0.604   0.663
 5984SOL    HW229832   3.235   0.570   0.544
 5985SOL     OW29833   4.463   0.207  16.510
 5985SOL    HW129834   4.558   0.196  16.503
 5985SOL    HW229835   4.433   0.126  16.552
 5986SOL     OW29836   3.292   2.222  15.927
 5986SOL    HW129837   3.329   2.198  16.012
 5986SOL    HW229838   3.247   2.144  15.897
 5987SOL     OW29839   3.609   0.625   4.585
 5987SOL    HW129840   3.546   0.643   4.515
 5987SOL    HW229841   3.558   0.633   4.666
 5988SOL     OW29842   1.031   3.063   5.703
 5988SOL    HW129843   1.114   3.110   5.716
 5988SOL    HW229844   1.004   3.085   5.614
 5989SOL     OW29845   3.604   3.059  17.779
 5989SOL    HW129846   3.692   3.044  17.745
 5989SOL    HW229847   3.546   3.027  17.710
 5990SOL     OW29848   2.286   2.071  20.073
 5990SOL    HW129849   2.275   2.023  20.155
 5990SOL    HW229850   2.262   2.161  20.095
 5991SOL     OW29851   1.449   4.135  17.499
 5991SOL    HW129852   1.495   4.205  17.546
 5991SOL    HW229853   1.367   4.125  17.547
 5992SOL     OW29854   0.944   4.472  20.236
 5992SOL    HW129855   0.966   4.439  20.149
 5992SOL    HW229856   1.029   4.484  20.279
 5993SOL     OW29857   4.205   1.779   4.865
 5993SOL    HW129858   4.281   1.821   4.905
 5993SOL    HW229859   4.199   1.818   4.778
 5994SOL     OW29860   3.375   2.424  17.001
 5994SOL    HW129861   3.405   2.335  16.984
 5994SOL    HW229862   3.428   2.479  16.943
 5995SOL     OW29863   2.502   3.287   1.076
 5995SOL    HW129864   2.431   3.349   1.092
 5995SOL    HW229865   2.563   3.301   1.147
 5996SOL     OW29866   0.224   2.943   8.660
 5996SOL    HW129867   0.317   2.957   8.683
 5996SOL    HW229868   0.211   2.994   8.580
 5997SOL     OW29869   0.492   1.467  19.090
 5997SOL    HW129870   0.474   1.398  19.026
 5997SOL    HW229871   0.412   1.520  19.092
 5998SOL     OW29872   3.379   4.000  12.463
 5998SOL    HW129873   3.382   3.931  12.529
 5998SOL    HW229874   3.371   4.081  12.513
 5999SOL     OW29875   0.326   3.173   3.995
 5999SOL    HW129876   0.406   3.120   3.997
 5999SOL    HW229877   0.357   3.263   3.996
 6000SOL     OW29878   2.664   0.094   3.799
 6000SOL    HW129879   2.693   0.036   3.729
 6000SOL    HW229880   2.604   0.041   3.851
 6001SOL     OW29881   2.158   4.053   2.962
 6001SOL    HW129882   2.167   4.041   2.867
 6001SOL    HW229883   2.064   4.050   2.978
 6002SOL     OW29884   2.196   4.631   2.359
 6002SOL    HW129885   2.174   4.684   2.282
 6002SOL    HW229886   2.200   4.541   2.325
 6003SOL     OW29887   3.937   0.192   6.076
 6003SOL    HW129888   3.876   0.155   6.011
 6003SOL    HW229889   3.882   0.210   6.152
 6004SOL     OW29890   4.040   3.200   4.086
 6004SOL    HW129891   4.120   3.152   4.109
 6004SOL    HW229892   4.070   3.272   4.031
 6005SOL     OW29893   4.272   0.831   1.014
 6005SOL    HW129894   4.244   0.922   1.024
 6005SOL    HW229895   4.327   0.831   0.935
 6006SOL     OW29896   1.643   2.670   3.628
 6006SOL    HW129897   1.577   2.651   3.561
 6006SOL    HW229898   1.597   2.665   3.711
 6007SOL     OW29899   1.852   2.930   2.038
 6007SOL    HW129900   1.804   2.966   1.964
 6007SOL    HW229901   1.807   2.964   2.115
 6008SOL     OW29902   4.005   1.991   1.616
 6008SOL    HW129903   3.996   1.994   1.712
 6008SOL    HW229904   3.916   2.006   1.583
 6009SOL     OW29905   2.196   3.086  17.173
 6009SOL    HW129906   2.203   3.077  17.268
 6009SOL    HW229907   2.281   3.059  17.140
 6010SOL     OW29908   2.943   3.473   1.373
 6010SOL    HW129909   3.033   3.486   1.342
 6010SOL    HW229910   2.945   3.390   1.419
 6011SOL     OW29911   0.817   0.823  19.214
 6011SOL    HW129912   0.805   0.890  19.282
 6011SOL    HW229913   0.877   0.760  19.254
 6012SOL     OW29914   3.258   4.438  21.227
 6012SOL    HW129915   3.344   4.397  21.220
 6012SOL    HW229916   3.242   4.445   0.058
 6013SOL     OW29917   3.916   4.717   9.210
 6013SOL    HW129918   3.980   4.658   9.170
 6013SOL    HW229919   3.969   4.788   9.247
 6014SOL     OW29920   1.415   2.215   7.724
 6014SOL    HW129921   1.325   2.246   7.728
 6014SOL    HW229922   1.464   2.288   7.688
 6015SOL     OW29923   2.558   0.506   4.852
 6015SOL    HW129924   2.614   0.431   4.833
 6015SOL    HW229925   2.470   0.470   4.857
 6016SOL     OW29926   1.065   1.640   9.808
 6016SOL    HW129927   1.023   1.567   9.762
 6016SOL    HW229928   0.997   1.707   9.814
 6017SOL     OW29929   0.325   1.600  10.097
 6017SOL    HW129930   0.243   1.648  10.088
 6017SOL    HW229931   0.391   1.659  10.061
 6018SOL     OW29932   1.300   1.789   8.515
 6018SOL    HW129933   1.253   1.759   8.437
 6018SOL    HW229934   1.290   1.885   8.513
 6019SOL     OW29935   0.601   1.957   8.146
 6019SOL    HW129936   0.521   1.977   8.098
 6019SOL    HW229937   0.573   1.900   8.217
 6020SOL     OW29938   1.690   1.984   8.551
 6020SOL    HW129939   1.659   1.899   8.518
 6020SOL    HW229940   1.750   1.961   8.622
 6021SOL     OW29941   0.876   0.881   9.150
 6021SOL    HW129942   0.859   0.908   9.240
 6021SOL    HW229943   0.971   0.870   9.146
 6022SOL     OW29944   1.102   2.522   9.781
 6022SOL    HW129945   1.140   2.466   9.713
 6022SOL    HW229946   1.097   2.467   9.858
 6023SOL     OW29947   0.917   0.629   8.089
 6023SOL    HW129948   0.959   0.548   8.120
 6023SOL    HW229949   0.959   0.698   8.140
 6024SOL     OW29950   0.955   1.140   1.907
 6024SOL    HW129951   0.911   1.056   1.921
 6024SOL    HW229952   1.043   1.127   1.942
 6025SOL     OW29953   1.475   0.087   7.371
 6025SOL    HW129954   1.382   0.109   7.377
 6025SOL    HW229955   1.521   0.168   7.393
 6026SOL     OW29956   1.678   2.109   7.882
 6026SOL    HW129957   1.651   2.141   7.968
 6026SOL    HW229958   1.621   2.155   7.820
 6027SOL     OW29959   0.518   1.698   9.452
 6027SOL    HW129960   0.550   1.702   9.362
 6027SOL    HW229961   0.469   1.617   9.457
 6028SOL     OW29962   1.825   3.058   9.905
 6028SOL    HW129963   1.874   3.007   9.840
 6028SOL    HW229964   1.734   3.030   9.894
 6029SOL     OW29965   4.763   1.242   8.446
 6029SOL    HW129966   4.763   1.274   8.355
 6029SOL    HW229967   4.672   1.251   8.475
 6030SOL     OW29968   4.110   4.450  17.577
 6030SOL    HW129969   4.098   4.367  17.530
 6030SOL    HW229970   4.033   4.459  17.632
 6031SOL     OW29971   1.009   1.984   8.248
 6031SOL    HW129972   0.952   1.947   8.316
 6031SOL    HW229973   1.066   1.912   8.222
 6032SOL     OW29974   0.472   3.012   8.722
 6032SOL    HW129975   0.529   2.965   8.661
 6032SOL    HW229976   0.508   3.100   8.726
 6033SOL     OW29977   0.261   1.963   8.305
 6033SOL    HW129978   0.199   1.906   8.260
 6033SOL    HW229979   0.343   1.914   8.305
 6034SOL     OW29980   3.160   2.389  18.645
 6034SOL    HW129981   3.142   2.295  18.653
 6034SOL    HW229982   3.252   2.394  18.620
 6035SOL     OW29983   2.268   4.720   8.967
 6035SOL    HW129984   2.187   4.671   8.955
 6035SOL    HW229985   2.324   4.663   9.019
 6036SOL     OW29986   0.518   1.101   8.010
 6036SOL    HW129987   0.583   1.055   7.957
 6036SOL    HW229988   0.570   1.152   8.072
 6037SOL     OW29989   0.702   2.469  11.231
 6037SOL    HW129990   0.711   2.379  11.262
 6037SOL    HW229991   0.784   2.488  11.187
 6038SOL     OW29992   0.070   1.731  10.106
 6038SOL    HW129993   4.777   1.740  10.150
 6038SOL    HW229994   0.129   1.789  10.155
 6039SOL     OW29995   4.784   2.771  10.094
 6039SOL    HW129996   4.742   2.827  10.029
 6039SOL    HW229997   0.023   2.695  10.045
 6040SOL     OW29998   1.271   1.371  11.130
 6040SOL    HW129999   1.354   1.325  11.115
 6040SOL    HW230000   1.209   1.329  11.071
 6041SOL     OW30001   0.720   2.512  10.260
 6041SOL    HW130002   0.710   2.435  10.315
 6041SOL    HW230003   0.804   2.549  10.287
 6042SOL     OW30004   4.754   1.213  10.525
 6042SOL    HW130005   4.750   1.168  10.441
 6042SOL    HW230006   0.049   1.255  10.525
 6043SOL     OW30007   0.835   1.357  11.123
 6043SOL    HW130008   0.854   1.438  11.076
 6043SOL    HW230009   0.902   1.296  11.092
 6044SOL     OW30010   1.041   1.713  12.233
 6044SOL    HW130011   1.120   1.660  12.232
 6044SOL    HW230012   0.989   1.680  12.159
 6045SOL     OW30013   4.366   0.510   9.561
 6045SOL    HW130014   4.328   0.587   9.517
 6045SOL    HW230015   4.299   0.483   9.624
 6046SOL     OW30016   0.876   1.827   9.769
 6046SOL    HW130017   0.877   1.828   9.674
 6046SOL    HW230018   0.803   1.770   9.792
 6047SOL     OW30019   1.591   2.103   9.535
 6047SOL    HW130020   1.514   2.051   9.555
 6047SOL    HW230021   1.647   2.093   9.613
 6048SOL     OW30022   1.659   2.070  11.862
 6048SOL    HW130023   1.712   2.135  11.908
 6048SOL    HW230024   1.581   2.117  11.835
 6049SOL     OW30025   3.551   1.135   3.361
 6049SOL    HW130026   3.565   1.041   3.352
 6049SOL    HW230027   3.510   1.162   3.279
 6050SOL     OW30028   3.869   1.082  10.667
 6050SOL    HW130029   3.934   1.150  10.684
 6050SOL    HW230030   3.914   1.019  10.611
 6051SOL     OW30031   4.159   1.292  13.810
 6051SOL    HW130032   4.134   1.201  13.820
 6051SOL    HW230033   4.179   1.322  13.899
 6052SOL     OW30034   0.702   3.135  10.525
 6052SOL    HW130035   0.742   3.074  10.463
 6052SOL    HW230036   0.757   3.129  10.603
 6053SOL     OW30037   1.654   1.908   9.357
 6053SOL    HW130038   1.564   1.879   9.347
 6053SOL    HW230039   1.648   1.985   9.414
 6054SOL     OW30040   1.469   1.425  10.551
 6054SOL    HW130041   1.543   1.484  10.566
 6054SOL    HW230042   1.402   1.482  10.511
 6055SOL     OW30043   0.236   1.889  10.235
 6055SOL    HW130044   0.307   1.906  10.173
 6055SOL    HW230045   0.279   1.882  10.320
 6056SOL     OW30046   0.927   3.933  13.258
 6056SOL    HW130047   0.871   4.011  13.258
 6056SOL    HW230048   0.916   3.896  13.346
 6057SOL     OW30049   1.338   3.146  11.520
 6057SOL    HW130050   1.423   3.186  11.503
 6057SOL    HW230051   1.358   3.059  11.553
 6058SOL     OW30052   4.122   1.374  10.482
 6058SOL    HW130053   4.077   1.458  10.479
 6058SOL    HW230054   4.188   1.379  10.413
 6059SOL     OW30055   2.847   0.970  11.669
 6059SOL    HW130056   2.762   0.943  11.634
 6059SOL    HW230057   2.830   0.990  11.761
 6060SOL     OW30058   2.150   1.461  12.161
 6060SOL    HW130059   2.153   1.556  12.169
 6060SOL    HW230060   2.183   1.443  12.073
 6061SOL     OW30061   1.306   2.299  11.271
 6061SOL    HW130062   1.236   2.359  11.245
 6061SOL    HW230063   1.271   2.252  11.346
 6062SOL     OW30064   0.799   2.762  10.817
 6062SOL    HW130065   0.704   2.772  10.808
 6062SOL    HW230066   0.831   2.749  10.728
 6063SOL     OW30067   0.465   3.049  12.185
 6063SOL    HW130068   0.510   3.122  12.142
 6063SOL    HW230069   0.517   2.972  12.162
 6064SOL     OW30070   4.768   1.023  12.280
 6064SOL    HW130071   4.732   0.939  12.251
 6064SOL    HW230072   4.718   1.045  12.358
 6065SOL     OW30073   2.879   1.794  12.289
 6065SOL    HW130074   2.839   1.714  12.321
 6065SOL    HW230075   2.813   1.862  12.305
 6066SOL     OW30076   1.406   3.186  12.607
 6066SOL    HW130077   1.351   3.144  12.673
 6066SOL    HW230078   1.471   3.119  12.584
 6067SOL     OW30079   3.960   0.637   3.015
 6067SOL    HW130080   3.912   0.673   2.940
 6067SOL    HW230081   3.999   0.556   2.982
 6068SOL     OW30082   0.926   4.571  12.403
 6068SOL    HW130083   0.929   4.587  12.308
 6068SOL    HW230084   0.945   4.477  12.412
 6069SOL     OW30085   1.660   3.530  12.670
 6069SOL    HW130086   1.661   3.478  12.751
 6069SOL    HW230087   1.702   3.612  12.693
 6070SOL     OW30088   1.844   1.663  11.723
 6070SOL    HW130089   1.769   1.714  11.752
 6070SOL    HW230090   1.885   1.716  11.655
 6071SOL     OW30091   3.989   0.548  11.641
 6071SOL    HW130092   3.933   0.576  11.713
 6071SOL    HW230093   4.041   0.626  11.619
 6072SOL     OW30094   4.030   2.864  12.312
 6072SOL    HW130095   4.105   2.923  12.308
 6072SOL    HW230096   3.955   2.920  12.292
 6073SOL     OW30097   0.272   2.379  10.760
 6073SOL    HW130098   0.206   2.357  10.693
 6073SOL    HW230099   0.221   2.412  10.834
 6074SOL     OW30100   4.624   1.427  12.030
 6074SOL    HW130101   4.611   1.357  11.966
 6074SOL    HW230102   4.669   1.385  12.103
 6075SOL     OW30103   0.625   2.121  11.634
 6075SOL    HW130104   0.638   2.207  11.593
 6075SOL    HW230105   0.556   2.080  11.583
 6076SOL     OW30106   1.665   1.582  10.642
 6076SOL    HW130107   1.710   1.592  10.558
 6076SOL    HW230108   1.736   1.585  10.707
 6077SOL     OW30109   1.531   0.740  12.020
 6077SOL    HW130110   1.582   0.777  12.091
 6077SOL    HW230111   1.565   0.651  12.009
 6078SOL     OW30112   1.080   2.467  11.157
 6078SOL    HW130113   1.021   2.398  11.187
 6078SOL    HW230114   1.025   2.524  11.103
 6079SOL     OW30115   4.208   1.414  12.474
 6079SOL    HW130116   4.137   1.450  12.525
 6079SOL    HW230117   4.194   1.319  12.475
 6080SOL     OW30118   0.785   3.418  13.815
 6080SOL    HW130119   0.721   3.478  13.776
 6080SOL    HW230120   0.772   3.336  13.766
 6081SOL     OW30121   4.771   2.094  12.670
 6081SOL    HW130122   4.699   2.076  12.730
 6081SOL    HW230123   4.739   2.167  12.617
 6082SOL     OW30124   1.902   1.588  10.788
 6082SOL    HW130125   1.986   1.608  10.747
 6082SOL    HW230126   1.925   1.553  10.875
 6083SOL     OW30127   0.747   4.615  21.035
 6083SOL    HW130128   0.661   4.626  21.076
 6083SOL    HW230129   0.809   4.644  21.101
 6084SOL     OW30130   0.919   4.746   1.857
 6084SOL    HW130131   0.912   4.739   1.952
 6084SOL    HW230132   0.978   0.029   1.842
 6085SOL     OW30133   2.264   1.117   1.221
 6085SOL    HW130134   2.314   1.043   1.255
 6085SOL    HW230135   2.231   1.087   1.136
 6086SOL     OW30136   3.635   0.896   4.353
 6086SOL    HW130137   3.606   0.806   4.341
 6086SOL    HW230138   3.591   0.945   4.283
 6087SOL     OW30139   1.517   2.095   1.199
 6087SOL    HW130140   1.606   2.107   1.232
 6087SOL    HW230141   1.478   2.030   1.257
 6088SOL     OW30142   0.911   3.937  17.375
 6088SOL    HW130143   0.877   3.946  17.464
 6088SOL    HW230144   0.833   3.939  17.320
 6089SOL     OW30145   4.677   3.126   7.423
 6089SOL    HW130146   4.653   3.034   7.425
 6089SOL    HW230147   4.643   3.159   7.340
 6090SOL     OW30148   4.529   4.693  14.551
 6090SOL    HW130149   4.584   4.635  14.499
 6090SOL    HW230150   4.479   4.743  14.487
 6091SOL     OW30151   2.529   1.102   1.528
 6091SOL    HW130152   2.468   1.049   1.579
 6091SOL    HW230153   2.478   1.179   1.502
 6092SOL     OW30154   0.685   4.493  15.274
 6092SOL    HW130155   0.645   4.425  15.221
 6092SOL    HW230156   0.734   4.546  15.211
 6093SOL     OW30157   3.716   3.610  16.834
 6093SOL    HW130158   3.656   3.634  16.763
 6093SOL    HW230159   3.738   3.518  16.816
 6094SOL     OW30160   1.567   3.080   6.379
 6094SOL    HW130161   1.547   3.174   6.382
 6094SOL    HW230162   1.482   3.038   6.364
 6095SOL     OW30163   4.616   1.555  13.186
 6095SOL    HW130164   4.536   1.565  13.135
 6095SOL    HW230165   4.673   1.626  13.156
 6096SOL     OW30166   3.445   1.692   0.349
 6096SOL    HW130167   3.430   1.761   0.284
 6096SOL    HW230168   3.376   1.627   0.332
 6097SOL     OW30169   0.567   1.907  13.835
 6097SOL    HW130170   0.590   1.980  13.892
 6097SOL    HW230171   0.626   1.915  13.760
 6098SOL     OW30172   0.532   4.513  11.956
 6098SOL    HW130173   0.600   4.564  12.000
 6098SOL    HW230174   0.510   4.445  12.019
 6099SOL     OW30175   0.575   1.964  20.029
 6099SOL    HW130176   0.624   1.928  19.955
 6099SOL    HW230177   0.503   1.903  20.043
 6100SOL     OW30178   3.889   1.976  15.967
 6100SOL    HW130179   3.936   1.914  16.023
 6100SOL    HW230180   3.809   1.930  15.941
 6101SOL     OW30181   2.469   4.630  18.596
 6101SOL    HW130182   2.413   4.567  18.552
 6101SOL    HW230183   2.558   4.600  18.576
 6102SOL     OW30184   1.462   2.004   4.546
 6102SOL    HW130185   1.492   1.955   4.469
 6102SOL    HW230186   1.441   1.936   4.610
 6103SOL     OW30187   3.268   3.732   5.177
 6103SOL    HW130188   3.182   3.758   5.143
 6103SOL    HW230189   3.254   3.720   5.271
 6104SOL     OW30190   3.271   2.416   8.176
 6104SOL    HW130191   3.299   2.342   8.230
 6104SOL    HW230192   3.178   2.400   8.160
 6105SOL     OW30193   1.811   0.333  20.716
 6105SOL    HW130194   1.845   0.423  20.711
 6105SOL    HW230195   1.731   0.335  20.662
 6106SOL     OW30196   0.131   1.875  11.997
 6106SOL    HW130197   0.219   1.870  11.959
 6106SOL    HW230198   0.115   1.787  12.032
 6107SOL     OW30199   1.759   3.804  13.973
 6107SOL    HW130200   1.683   3.801  13.915
 6107SOL    HW230201   1.780   3.897  13.980
 6108SOL     OW30202   1.044   2.202  12.672
 6108SOL    HW130203   0.992   2.123  12.665
 6108SOL    HW230204   1.012   2.246  12.751
 6109SOL     OW30205   4.133   2.399   4.103
 6109SOL    HW130206   4.117   2.493   4.100
 6109SOL    HW230207   4.180   2.380   4.021
 6110SOL     OW30208   1.641   2.095  13.438
 6110SOL    HW130209   1.652   2.138  13.353
 6110SOL    HW230210   1.556   2.051  13.432
 6111SOL     OW30211   3.777   1.039  19.704
 6111SOL    HW130212   3.826   1.057  19.784
 6111SOL    HW230213   3.716   1.112  19.697
 6112SOL     OW30214   0.761   2.232  15.412
 6112SOL    HW130215   0.716   2.152  15.438
 6112SOL    HW230216   0.850   2.222  15.446
 6113SOL     OW30217   0.511   0.319  17.260
 6113SOL    HW130218   0.607   0.319  17.264
 6113SOL    HW230219   0.484   0.328  17.351
 6114SOL     OW30220   1.246   1.642  14.125
 6114SOL    HW130221   1.243   1.626  14.219
 6114SOL    HW230222   1.178   1.708  14.110
 6115SOL     OW30223   1.587   4.523  14.227
 6115SOL    HW130224   1.632   4.604  14.252
 6115SOL    HW230225   1.595   4.519  14.132
 6116SOL     OW30226   2.198   1.075   4.751
 6116SOL    HW130227   2.249   1.117   4.682
 6116SOL    HW230228   2.230   0.985   4.753
 6117SOL     OW30229   4.562   1.755  15.248
 6117SOL    HW130230   4.645   1.789  15.214
 6117SOL    HW230231   4.495   1.812  15.211
 6118SOL     OW30232   4.471   0.438  18.084
 6118SOL    HW130233   4.382   0.420  18.054
 6118SOL    HW230234   4.510   0.351  18.097
 6119SOL     OW30235   0.068   1.998  13.330
 6119SOL    HW130236   0.157   2.034  13.331
 6119SOL    HW230237   0.058   1.955  13.415
 6120SOL     OW30238   3.836   3.513  20.731
 6120SOL    HW130239   3.799   3.588  20.684
 6120SOL    HW230240   3.924   3.542  20.756
 6121SOL     OW30241   4.154   3.373   8.918
 6121SOL    HW130242   4.118   3.439   8.859
 6121SOL    HW230243   4.092   3.300   8.912
 6122SOL     OW30244   2.501   4.444   1.414
 6122SOL    HW130245   2.537   4.513   1.471
 6122SOL    HW230246   2.544   4.364   1.444
 6123SOL     OW30247   1.115   4.542  15.934
 6123SOL    HW130248   1.147   4.627  15.962
 6123SOL    HW230249   1.029   4.560  15.896
 6124SOL     OW30250   1.403   3.693  19.521
 6124SOL    HW130251   1.424   3.600  19.523
 6124SOL    HW230252   1.312   3.697  19.494
 6125SOL     OW30253   1.733   0.711  19.505
 6125SOL    HW130254   1.672   0.661  19.452
 6125SOL    HW230255   1.752   0.655  19.580
 6126SOL     OW30256   4.618   0.321  20.876
 6126SOL    HW130257   4.693   0.269  20.847
 6126SOL    HW230258   4.566   0.334  20.797
 6127SOL     OW30259   0.540   3.661   4.331
 6127SOL    HW130260   0.608   3.639   4.267
 6127SOL    HW230261   0.483   3.723   4.285
 6128SOL     OW30262   0.571   3.743  21.064
 6128SOL    HW130263   0.502   3.689  21.104
 6128SOL    HW230264   0.592   3.699  20.982
 6129SOL     OW30265   2.055   2.595   5.361
 6129SOL    HW130266   2.135   2.563   5.404
 6129SOL    HW230267   2.022   2.519   5.313
 6130SOL     OW30268   2.506   3.496   5.139
 6130SOL    HW130269   2.451   3.425   5.105
 6130SOL    HW230270   2.488   3.570   5.082
 6131SOL     OW30271   0.799   2.945   6.061
 6131SOL    HW130272   0.818   3.035   6.089
 6131SOL    HW230273   0.704   2.937   6.070
 6132SOL     OW30274   3.234   1.102  11.504
 6132SOL    HW130275   3.258   1.086  11.412
 6132SOL    HW230276   3.301   1.056  11.554
 6133SOL     OW30277   0.919   0.730  19.620
 6133SOL    HW130278   0.851   0.786  19.582
 6133SOL    HW230279   0.878   0.644  19.627
 6134SOL     OW30280   1.906   4.659  15.334
 6134SOL    HW130281   1.977   4.627  15.278
 6134SOL    HW230282   1.917   4.754  15.335
 6135SOL     OW30283   1.786   1.654   4.332
 6135SOL    HW130284   1.759   1.581   4.275
 6135SOL    HW230285   1.880   1.639   4.345
 6136SOL     OW30286   0.388   4.124  15.605
 6136SOL    HW130287   0.341   4.206  15.591
 6136SOL    HW230288   0.477   4.151  15.629
 6137SOL     OW30289   1.203   1.811   0.406
 6137SOL    HW130290   1.114   1.829   0.435
 6137SOL    HW230291   1.242   1.897   0.391
 6138SOL     OW30292   1.154   1.796  15.746
 6138SOL    HW130293   1.243   1.796  15.782
 6138SOL    HW230294   1.166   1.791  15.651
 6139SOL     OW30295   3.553   3.171  20.116
 6139SOL    HW130296   3.593   3.255  20.140
 6139SOL    HW230297   3.515   3.186  20.029
 6140SOL     OW30298   2.243   3.248   8.957
 6140SOL    HW130299   2.220   3.289   9.041
 6140SOL    HW230300   2.324   3.201   8.976
 6141SOL     OW30301   2.925   1.508  19.109
 6141SOL    HW130302   2.960   1.489  19.022
 6141SOL    HW230303   2.858   1.575  19.094
 6142SOL     OW30304   3.122   0.269   4.540
 6142SOL    HW130305   3.064   0.195   4.555
 6142SOL    HW230306   3.082   0.341   4.589
 6143SOL     OW30307   4.441   3.920   1.310
 6143SOL    HW130308   4.526   3.954   1.282
 6143SOL    HW230309   4.455   3.890   1.400
 6144SOL     OW30310   4.587   0.158  16.025
 6144SOL    HW130311   4.643   0.208  16.084
 6144SOL    HW230312   4.644   0.131  15.953
 6145SOL     OW30313   1.372   0.643  19.850
 6145SOL    HW130314   1.423   0.660  19.771
 6145SOL    HW230315   1.412   0.564  19.887
 6146SOL     OW30316   1.613   1.821   0.842
 6146SOL    HW130317   1.518   1.809   0.848
 6146SOL    HW230318   1.649   1.736   0.865
 6147SOL     OW30319   4.557   3.041  16.545
 6147SOL    HW130320   4.527   2.963  16.498
 6147SOL    HW230321   4.649   3.049  16.522
 6148SOL     OW30322   2.516   1.287   7.486
 6148SOL    HW130323   2.568   1.207   7.477
 6148SOL    HW230324   2.431   1.257   7.517
 6149SOL     OW30325   4.082   0.787  16.583
 6149SOL    HW130326   4.030   0.707  16.584
 6149SOL    HW230327   4.054   0.833  16.503
 6150SOL     OW30328   3.621   0.501   0.270
 6150SOL    HW130329   3.546   0.448   0.297
 6150SOL    HW230330   3.658   0.533   0.353
 6151SOL     OW30331   2.230   3.533  20.062
 6151SOL    HW130332   2.294   3.559  19.995
 6151SOL    HW230333   2.193   3.451  20.030
 6152SOL     OW30334   3.008   1.941   2.133
 6152SOL    HW130335   2.998   1.854   2.094
 6152SOL    HW230336   3.010   2.000   2.058
 6153SOL     OW30337   3.578   0.094   1.641
 6153SOL    HW130338   3.605   0.141   1.562
 6153SOL    HW230339   3.525   0.156   1.690
 6154SOL     OW30340   0.535   4.660  19.114
 6154SOL    HW130341   0.486   4.698  19.041
 6154SOL    HW230342   0.505   4.708  19.190
 6155SOL     OW30343   2.738   0.235   2.738
 6155SOL    HW130344   2.778   0.148   2.729
 6155SOL    HW230345   2.647   0.222   2.712
 6156SOL     OW30346   1.891   2.717   2.307
 6156SOL    HW130347   1.860   2.671   2.386
 6156SOL    HW230348   1.899   2.648   2.241
 6157SOL     OW30349   0.957   0.021  19.141
 6157SOL    HW130350   0.913   4.782  19.221
 6157SOL    HW230351   0.975   0.114  19.157
 6158SOL     OW30352   2.543   3.282  16.139
 6158SOL    HW130353   2.515   3.345  16.073
 6158SOL    HW230354   2.506   3.199  16.110
 6159SOL     OW30355   1.435   3.857  18.746
 6159SOL    HW130356   1.341   3.844  18.755
 6159SOL    HW230357   1.443   3.923  18.677
 6160SOL     OW30358   2.471   1.635   5.905
 6160SOL    HW130359   2.449   1.587   5.825
 6160SOL    HW230360   2.388   1.646   5.950
 6161SOL     OW30361   4.323   0.744   1.965
 6161SOL    HW130362   4.284   0.782   2.044
 6161SOL    HW230363   4.343   0.819   1.909
 6162SOL     OW30364   0.212   3.078   4.496
 6162SOL    HW130365   0.182   2.991   4.470
 6162SOL    HW230366   0.139   3.137   4.473
 6163SOL     OW30367   1.255   3.364  18.906
 6163SOL    HW130368   1.299   3.446  18.930
 6163SOL    HW230369   1.248   3.368  18.810
 6164SOL     OW30370   3.097   4.600   0.214
 6164SOL    HW130371   3.164   4.557   0.267
 6164SOL    HW230372   3.015   4.563   0.244
 6165SOL     OW30373   3.847   1.465  21.100
 6165SOL    HW130374   3.921   1.425  21.054
 6165SOL    HW230375   3.889   1.517  21.169
 6166SOL     OW30376   0.099   3.086  16.722
 6166SOL    HW130377   0.175   3.086  16.780
 6166SOL    HW230378   0.039   3.151  16.760
 6167SOL     OW30379   1.698   1.128   3.916
 6167SOL    HW130380   1.782   1.171   3.934
 6167SOL    HW230381   1.716   1.069   3.843
 6168SOL     OW30382   1.197   1.258  21.191
 6168SOL    HW130383   1.159   1.344  21.175
 6168SOL    HW230384   1.233   1.264   0.017
 6169SOL     OW30385   0.250   1.639   3.127
 6169SOL    HW130386   0.327   1.621   3.181
 6169SOL    HW230387   0.254   1.733   3.110
 6170SOL     OW30388   4.052   2.689   0.878
 6170SOL    HW130389   4.020   2.751   0.812
 6170SOL    HW230390   3.998   2.611   0.865
 6171SOL     OW30391   1.026   4.600  17.310
 6171SOL    HW130392   1.072   4.638  17.235
 6171SOL    HW230393   1.086   4.533  17.344
 6172SOL     OW30394   2.757   1.810   7.741
 6172SOL    HW130395   2.816   1.744   7.704
 6172SOL    HW230396   2.809   1.854   7.808
 6173SOL     OW30397   1.419   2.571   4.643
 6173SOL    HW130398   1.450   2.658   4.617
 6173SOL    HW230399   1.401   2.526   4.561
 6174SOL     OW30400   2.467   1.949   2.896
 6174SOL    HW130401   2.450   1.893   2.972
 6174SOL    HW230402   2.548   1.995   2.918
 6175SOL     OW30403   0.654   0.911   2.640
 6175SOL    HW130404   0.737   0.926   2.595
 6175SOL    HW230405   0.676   0.857   2.715
 6176SOL     OW30406   3.892   1.688  16.159
 6176SOL    HW130407   3.951   1.628  16.112
 6176SOL    HW230408   3.902   1.662  16.251
 6177SOL     OW30409   3.266   1.863  18.280
 6177SOL    HW130410   3.286   1.950  18.314
 6177SOL    HW230411   3.176   1.870  18.247
 6178SOL     OW30412   4.227   3.038   5.561
 6178SOL    HW130413   4.202   2.946   5.554
 6178SOL    HW230414   4.312   3.043   5.516
 6179SOL     OW30415   0.080   2.186   2.702
 6179SOL    HW130416   4.788   2.140   2.690
 6179SOL    HW230417   0.100   2.222   2.616
 6180SOL     OW30418   3.910   2.160   3.183
 6180SOL    HW130419   3.919   2.175   3.277
 6180SOL    HW230420   3.877   2.070   3.176
 6181SOL     OW30421   3.974   2.490   7.261
 6181SOL    HW130422   3.908   2.421   7.273
 6181SOL    HW230423   4.025   2.489   7.342
 6182SOL     OW30424   0.916   0.483  19.445
 6182SOL    HW130425   0.976   0.425  19.491
 6182SOL    HW230426   0.972   0.534  19.387
 6183SOL     OW30427   4.747   1.673   0.160
 6183SOL    HW130428   4.781   1.592   0.123
 6183SOL    HW230429   4.657   1.678   0.128
 6184SOL     OW30430   3.965   2.976  18.250
 6184SOL    HW130431   3.942   2.886  18.270
 6184SOL    HW230432   4.061   2.977  18.249
 6185SOL     OW30433   4.644   1.036  17.787
 6185SOL    HW130434   4.673   1.078  17.869
 6185SOL    HW230435   4.682   1.090  17.718
 6186SOL     OW30436   2.858   4.708   2.113
 6186SOL    HW130437   2.909   4.747   2.184
 6186SOL    HW230438   2.850   4.615   2.137
 6187SOL     OW30439   3.735   2.151   1.287
 6187SOL    HW130440   3.815   2.184   1.329
 6187SOL    HW230441   3.674   2.139   1.360
 6188SOL     OW30442   0.795   3.824   0.159
 6188SOL    HW130443   0.788   3.821   0.255
 6188SOL    HW230444   0.791   3.732   0.132
 6189SOL     OW30445   4.145   4.276   4.031
 6189SOL    HW130446   4.091   4.340   3.986
 6189SOL    HW230447   4.180   4.322   4.107
 6190SOL     OW30448   3.974   2.276  16.658
 6190SOL    HW130449   3.956   2.233  16.574
 6190SOL    HW230450   3.956   2.369  16.641
 6191SOL     OW30451   3.926   4.591   2.753
 6191SOL    HW130452   3.898   4.618   2.841
 6191SOL    HW230453   4.016   4.561   2.764
 6192SOL     OW30454   2.443   4.395  13.797
 6192SOL    HW130455   2.459   4.369  13.706
 6192SOL    HW230456   2.430   4.313  13.844
 6193SOL     OW30457   0.704   4.153   5.950
 6193SOL    HW130458   0.711   4.123   6.040
 6193SOL    HW230459   0.785   4.122   5.908
 6194SOL     OW30460   0.183   3.152   0.211
 6194SOL    HW130461   0.201   3.237   0.252
 6194SOL    HW230462   0.268   3.108   0.209
 6195SOL     OW30463   2.229   0.723   4.255
 6195SOL    HW130464   2.280   0.676   4.321
 6195SOL    HW230465   2.157   0.762   4.304
 6196SOL     OW30466   4.037   1.129  15.084
 6196SOL    HW130467   4.048   1.163  15.172
 6196SOL    HW230468   4.038   1.206  15.028
 6197SOL     OW30469   3.556   0.958  15.386
 6197SOL    HW130470   3.624   0.994  15.329
 6197SOL    HW230471   3.595   0.959  15.473
 6198SOL     OW30472   0.989   3.256  14.961
 6198SOL    HW130473   0.924   3.187  14.962
 6198SOL    HW230474   1.063   3.221  15.011
 6199SOL     OW30475   0.521   2.617  17.108
 6199SOL    HW130476   0.553   2.528  17.094
 6199SOL    HW230477   0.597   2.664  17.142
 6200SOL     OW30478   2.530   3.645  20.721
 6200SOL    HW130479   2.621   3.661  20.747
 6200SOL    HW230480   2.486   3.616  20.801
 6201SOL     OW30481   3.056   1.488  18.582
 6201SOL    HW130482   2.972   1.448  18.561
 6201SOL    HW230483   3.118   1.415  18.582
 6202SOL     OW30484   0.735   3.781   6.618
 6202SOL    HW130485   0.650   3.819   6.639
 6202SOL    HW230486   0.793   3.813   6.687
 6203SOL     OW30487   3.388   0.382   0.391
 6203SOL    HW130488   3.409   0.314   0.455
 6203SOL    HW230489   3.366   0.459   0.445
 6204SOL     OW30490   2.967   1.180  11.514
 6204SOL    HW130491   2.925   1.116  11.572
 6204SOL    HW230492   3.060   1.162  11.521
 6205SOL     OW30493   1.875   4.351  15.554
 6205SOL    HW130494   1.931   4.342  15.476
 6205SOL    HW230495   1.889   4.441  15.583
 6206SOL     OW30496   3.598   1.960  18.459
 6206SOL    HW130497   3.591   1.995  18.370
 6206SOL    HW230498   3.541   1.883  18.460
 6207SOL     OW30499   0.032   3.617  14.216
 6207SOL    HW130500   0.022   3.608  14.121
 6207SOL    HW230501   4.733   3.611  14.250
 6208SOL     OW30502   1.347   3.030  14.153
 6208SOL    HW130503   1.287   2.994  14.218
 6208SOL    HW230504   1.290   3.064  14.084
 6209SOL     OW30505   1.406   0.805   5.153
 6209SOL    HW130506   1.380   0.867   5.221
 6209SOL    HW230507   1.501   0.813   5.149
 6210SOL     OW30508   1.277   3.298   7.038
 6210SOL    HW130509   1.327   3.344   7.105
 6210SOL    HW230510   1.198   3.351   7.027
 6211SOL     OW30511   2.623   0.638   2.296
 6211SOL    HW130512   2.640   0.726   2.262
 6211SOL    HW230513   2.584   0.652   2.382
 6212SOL     OW30514   2.511   2.642  20.183
 6212SOL    HW130515   2.462   2.680  20.109
 6212SOL    HW230516   2.508   2.548  20.168
 6213SOL     OW30517   2.527   2.624   5.323
 6213SOL    HW130518   2.452   2.620   5.382
 6213SOL    HW230519   2.560   2.534   5.319
 6214SOL     OW30520   2.941   2.028   1.081
 6214SOL    HW130521   2.973   1.986   1.001
 6214SOL    HW230522   2.886   2.100   1.050
 6215SOL     OW30523   3.876   1.349   0.231
 6215SOL    HW130524   3.790   1.388   0.220
 6215SOL    HW230525   3.882   1.329   0.324
 6216SOL     OW30526   2.053   3.538   3.090
 6216SOL    HW130527   2.145   3.512   3.083
 6216SOL    HW230528   2.056   3.630   3.117
 6217SOL     OW30529   4.396   1.706   3.614
 6217SOL    HW130530   4.317   1.732   3.662
 6217SOL    HW230531   4.363   1.656   3.539
 6218SOL     OW30532   4.683   4.460  20.869
 6218SOL    HW130533   4.637   4.538  20.901
 6218SOL    HW230534   4.744   4.437  20.940
 6219SOL     OW30535   0.915   1.608  17.998
 6219SOL    HW130536   0.986   1.621  18.061
 6219SOL    HW230537   0.899   1.696  17.962
 6220SOL     OW30538   4.206   4.219   3.410
 6220SOL    HW130539   4.120   4.185   3.438
 6220SOL    HW230540   4.215   4.302   3.457
 6221SOL     OW30541   2.824   3.316   0.751
 6221SOL    HW130542   2.855   3.399   0.787
 6221SOL    HW230543   2.730   3.315   0.769
 6222SOL     OW30544   1.209   3.887  14.158
 6222SOL    HW130545   1.181   3.832  14.232
 6222SOL    HW230546   1.287   3.932  14.190
 6223SOL     OW30547   2.611   2.623   0.190
 6223SOL    HW130548   2.656   2.570   0.124
 6223SOL    HW230549   2.679   2.681   0.226
 6224SOL     OW30550   0.728   0.540   9.627
 6224SOL    HW130551   0.676   0.488   9.689
 6224SOL    HW230552   0.679   0.622   9.618
 6225SOL     OW30553   0.428   3.651   2.317
 6225SOL    HW130554   0.423   3.651   2.413
 6225SOL    HW230555   0.505   3.705   2.297
 6226SOL     OW30556   3.630   3.959  15.597
 6226SOL    HW130557   3.586   3.903  15.662
 6226SOL    HW230558   3.676   3.897  15.540
 6227SOL     OW30559   3.247   4.559   3.192
 6227SOL    HW130560   3.194   4.569   3.271
 6227SOL    HW230561   3.201   4.492   3.140
 6228SOL     OW30562   3.750   1.513   3.621
 6228SOL    HW130563   3.809   1.532   3.549
 6228SOL    HW230564   3.792   1.553   3.697
 6229SOL     OW30565   0.429   1.328  17.488
 6229SOL    HW130566   0.364   1.380  17.440
 6229SOL    HW230567   0.409   1.237  17.465
 6230SOL     OW30568   4.455   3.889  15.667
 6230SOL    HW130569   4.506   3.855  15.593
 6230SOL    HW230570   4.375   3.923  15.627
 6231SOL     OW30571   0.077   0.133   2.944
 6231SOL    HW130572   0.062   0.217   2.989
 6231SOL    HW230573   4.786   0.114   2.899
 6232SOL     OW30574   0.949   0.248   2.383
 6232SOL    HW130575   0.919   0.276   2.297
 6232SOL    HW230576   0.870   0.245   2.436
 6233SOL     OW30577   3.964   3.235  18.377
 6233SOL    HW130578   3.971   3.160  18.318
 6233SOL    HW230579   3.889   3.214  18.433
 6234SOL     OW30580   0.196   0.583  16.529
 6234SOL    HW130581   0.152   0.507  16.567
 6234SOL    HW230582   0.279   0.549  16.496
 6235SOL     OW30583   2.569   1.921  19.864
 6235SOL    HW130584   2.562   1.826  19.877
 6235SOL    HW230585   2.521   1.937  19.783
 6236SOL     OW30586   4.669   3.403  20.197
 6236SOL    HW130587   4.598   3.339  20.208
 6236SOL    HW230588   4.644   3.477  20.251
 6237SOL     OW30589   3.583   0.401   1.896
 6237SOL    HW130590   3.671   0.363   1.904
 6237SOL    HW230591   3.526   0.325   1.890
 6238SOL     OW30592   2.766   2.764   1.170
 6238SOL    HW130593   2.673   2.750   1.189
 6238SOL    HW230594   2.774   2.748   1.076
 6239SOL     OW30595   1.120   0.179   3.973
 6239SOL    HW130596   1.119   0.197   3.879
 6239SOL    HW230597   1.027   0.166   3.995
 6240SOL     OW30598   1.453   4.571   4.572
 6240SOL    HW130599   1.538   4.546   4.607
 6240SOL    HW230600   1.473   4.621   4.493
 6241SOL     OW30601   1.814   1.483  16.845
 6241SOL    HW130602   1.834   1.413  16.782
 6241SOL    HW230603   1.884   1.479  16.909
 6242SOL     OW30604   1.619   4.266   1.224
 6242SOL    HW130605   1.560   4.291   1.296
 6242SOL    HW230606   1.647   4.350   1.186
 6243SOL     OW30607   0.495   4.764   3.969
 6243SOL    HW130608   0.576   0.024   3.961
 6243SOL    HW230609   0.514   4.699   4.036
 6244SOL     OW30610   0.400   1.761  20.059
 6244SOL    HW130611   0.348   1.825  20.010
 6244SOL    HW230612   0.338   1.690  20.076
 6245SOL     OW30613   4.180   4.260  21.221
 6245SOL    HW130614   4.223   4.338  21.185
 6245SOL    HW230615   4.110   4.241  21.159
 6246SOL     OW30616   1.062   2.063  19.482
 6246SOL    HW130617   1.065   2.150  19.442
 6246SOL    HW230618   1.109   2.007  19.420
 6247SOL     OW30619   1.675   0.269  17.274
 6247SOL    HW130620   1.725   0.326  17.331
 6247SOL    HW230621   1.584   0.294  17.288
 6248SOL     OW30622   0.064   3.812   6.022
 6248SOL    HW130623   0.081   3.861   5.942
 6248SOL    HW230624   0.121   3.853   6.087
 6249SOL     OW30625   1.024   3.744   3.148
 6249SOL    HW130626   0.982   3.813   3.200
 6249SOL    HW230627   1.110   3.781   3.124
 6250SOL     OW30628   4.423   1.360   6.520
 6250SOL    HW130629   4.481   1.370   6.595
 6250SOL    HW230630   4.468   1.298   6.463
 6251SOL     OW30631   3.161   2.840   0.484
 6251SOL    HW130632   3.243   2.889   0.498
 6251SOL    HW230633   3.094   2.908   0.474
 6252SOL     OW30634   2.528   2.949  20.523
 6252SOL    HW130635   2.561   2.860  20.523
 6252SOL    HW230636   2.496   2.963  20.612
 6253SOL     OW30637   3.184   0.174   3.756
 6253SOL    HW130638   3.139   0.235   3.814
 6253SOL    HW230639   3.133   0.093   3.762
 6254SOL     OW30640   3.287   4.765   5.416
 6254SOL    HW130641   3.283   4.707   5.492
 6254SOL    HW230642   3.378   4.756   5.385
 6255SOL     OW30643   3.929   1.735   5.352
 6255SOL    HW130644   3.896   1.667   5.293
 6255SOL    HW230645   3.924   1.697   5.439
 6256SOL     OW30646   1.560   4.523   4.004
 6256SOL    HW130647   1.634   4.510   3.944
 6256SOL    HW230648   1.505   4.446   3.990
 6257SOL     OW30649   1.648   0.171   9.051
 6257SOL    HW130650   1.625   0.088   9.094
 6257SOL    HW230651   1.649   0.151   8.958
 6258SOL     OW30652   2.778   1.232   4.510
 6258SOL    HW130653   2.722   1.265   4.580
 6258SOL    HW230654   2.771   1.297   4.440
 6259SOL     OW30655   4.524   0.261   3.312
 6259SOL    HW130656   4.434   0.285   3.290
 6259SOL    HW230657   4.573   0.342   3.305
 6260SOL     OW30658   2.861   0.735   0.366
 6260SOL    HW130659   2.869   0.740   0.270
 6260SOL    HW230660   2.770   0.759   0.383
 6261SOL     OW30661   2.250   2.012   5.603
 6261SOL    HW130662   2.342   1.998   5.623
 6261SOL    HW230663   2.206   1.935   5.639
 6262SOL     OW30664   2.721   0.775   3.368
 6262SOL    HW130665   2.797   0.719   3.354
 6262SOL    HW230666   2.702   0.813   3.282
 6263SOL     OW30667   1.741   3.648  15.121
 6263SOL    HW130668   1.682   3.586  15.164
 6263SOL    HW230669   1.757   3.716  15.186
 6264SOL     OW30670   3.961   3.180  19.560
 6264SOL    HW130671   4.055   3.182  19.542
 6264SOL    HW230672   3.953   3.222  19.646
 6265SOL     OW30673   4.174   4.238  13.738
 6265SOL    HW130674   4.237   4.209  13.803
 6265SOL    HW230675   4.106   4.282  13.788
 6266SOL     OW30676   0.727   1.735   4.339
 6266SOL    HW130677   0.680   1.677   4.399
 6266SOL    HW230678   0.797   1.682   4.303
 6267SOL     OW30679   0.459   0.185  10.086
 6267SOL    HW130680   0.389   0.149  10.140
 6267SOL    HW230681   0.459   0.130  10.007
 6268SOL     OW30682   2.198   1.801   3.837
 6268SOL    HW130683   2.286   1.826   3.810
 6268SOL    HW230684   2.152   1.780   3.756
 6269SOL     OW30685   4.153   0.887  20.847
 6269SOL    HW130686   4.113   0.803  20.867
 6269SOL    HW230687   4.159   0.932  20.932
 6270SOL     OW30688   0.748   1.275   1.618
 6270SOL    HW130689   0.806   1.338   1.660
 6270SOL    HW230690   0.802   1.197   1.606
 6271SOL     OW30691   0.585   2.720   4.572
 6271SOL    HW130692   0.507   2.776   4.568
 6271SOL    HW230693   0.630   2.747   4.652
 6272SOL     OW30694   2.269   3.874   8.904
 6272SOL    HW130695   2.279   3.834   8.817
 6272SOL    HW230696   2.351   3.852   8.950
 6273SOL     OW30697   1.635   3.078  12.876
 6273SOL    HW130698   1.700   3.030  12.927
 6273SOL    HW230699   1.624   3.026  12.796
 6274SOL     OW30700   2.269   1.705   0.236
 6274SOL    HW130701   2.206   1.647   0.279
 6274SOL    HW230702   2.282   1.665   0.150
 6275SOL     OW30703   3.251   4.325  16.558
 6275SOL    HW130704   3.239   4.280  16.474
 6275SOL    HW230705   3.303   4.402  16.537
 6276SOL     OW30706   4.589   2.528  19.791
 6276SOL    HW130707   4.655   2.548  19.724
 6276SOL    HW230708   4.636   2.475  19.856
 6277SOL     OW30709   2.597   2.520   4.098
 6277SOL    HW130710   2.624   2.436   4.061
 6277SOL    HW230711   2.657   2.534   4.171
 6278SOL     OW30712   2.016   3.802   3.496
 6278SOL    HW130713   2.038   3.894   3.482
 6278SOL    HW230714   1.968   3.777   3.417
 6279SOL     OW30715   0.028   3.525   4.005
 6279SOL    HW130716   0.109   3.545   3.958
 6279SOL    HW230717   0.057   3.482   4.086
 6280SOL     OW30718   1.799   1.014   2.292
 6280SOL    HW130719   1.735   0.944   2.285
 6280SOL    HW230720   1.753   1.084   2.338
 6281SOL     OW30721   2.301   3.272  20.613
 6281SOL    HW130722   2.391   3.248  20.591
 6281SOL    HW230723   2.291   3.361  20.581
 6282SOL     OW30724   3.695   4.605   0.523
 6282SOL    HW130725   3.653   4.621   0.438
 6282SOL    HW230726   3.773   4.553   0.502
 6283SOL     OW30727   3.380   1.384  16.729
 6283SOL    HW130728   3.361   1.457  16.670
 6283SOL    HW230729   3.357   1.417  16.816
 6284SOL     OW30730   2.566   3.600   0.710
 6284SOL    HW130731   2.576   3.507   0.727
 6284SOL    HW230732   2.581   3.642   0.794
 6285SOL     OW30733   0.263   0.561  19.269
 6285SOL    HW130734   0.283   0.651  19.294
 6285SOL    HW230735   0.338   0.533  19.217
 6286SOL     OW30736   0.900   0.948   5.893
 6286SOL    HW130737   0.927   0.903   5.974
 6286SOL    HW230738   0.963   1.019   5.883
 6287SOL     OW30739   2.418   1.392   6.293
 6287SOL    HW130740   2.486   1.380   6.226
 6287SOL    HW230741   2.384   1.304   6.309
 6288SOL     OW30742   0.608   3.008   1.509
 6288SOL    HW130743   0.689   2.988   1.555
 6288SOL    HW230744   0.541   2.958   1.555
 6289SOL     OW30745   2.416   0.580  18.160
 6289SOL    HW130746   2.374   0.544  18.082
 6289SOL    HW230747   2.356   0.647  18.191
 6290SOL     OW30748   2.529   1.527   8.303
 6290SOL    HW130749   2.601   1.499   8.360
 6290SOL    HW230750   2.494   1.445   8.268
 6291SOL     OW30751   2.071   4.021  16.987
 6291SOL    HW130752   2.012   3.958  17.028
 6291SOL    HW230753   2.146   3.968  16.959
 6292SOL     OW30754   4.670   1.799   1.669
 6292SOL    HW130755   4.746   1.777   1.615
 6292SOL    HW230756   4.606   1.729   1.650
 6293SOL     OW30757   4.010   2.506  20.004
 6293SOL    HW130758   4.047   2.418  20.013
 6293SOL    HW230759   3.937   2.495  19.943
 6294SOL     OW30760   3.540   0.673   4.090
 6294SOL    HW130761   3.628   0.709   4.098
 6294SOL    HW230762   3.527   0.625   4.172
 6295SOL     OW30763   1.404   0.676  13.766
 6295SOL    HW130764   1.463   0.637  13.830
 6295SOL    HW230765   1.409   0.770  13.783
 6296SOL     OW30766   3.786   1.466  13.578
 6296SOL    HW130767   3.706   1.473  13.526
 6296SOL    HW230768   3.826   1.553  13.572
 6297SOL     OW30769   0.926   4.404   6.685
 6297SOL    HW130770   0.971   4.323   6.662
 6297SOL    HW230771   0.844   4.375   6.724
 6298SOL     OW30772   2.949   0.578  18.411
 6298SOL    HW130773   2.954   0.574  18.315
 6298SOL    HW230774   2.882   0.515  18.434
 6299SOL     OW30775   4.440   0.570  17.514
 6299SOL    HW130776   4.430   0.510  17.440
 6299SOL    HW230777   4.442   0.657  17.474
 6300SOL     OW30778   2.380   1.295   5.971
 6300SOL    HW130779   2.463   1.300   6.020
 6300SOL    HW230780   2.403   1.247   5.892
 6301SOL     OW30781   0.972   1.546  18.450
 6301SOL    HW130782   1.034   1.489  18.404
 6301SOL    HW230783   1.013   1.562  18.535
 6302SOL     OW30784   2.250   1.332  11.950
 6302SOL    HW130785   2.254   1.237  11.963
 6302SOL    HW230786   2.288   1.346  11.863
 6303SOL     OW30787   3.981   4.162  19.371
 6303SOL    HW130788   3.915   4.114  19.321
 6303SOL    HW230789   4.044   4.095  19.399
 6304SOL     OW30790   0.597   2.711  18.426
 6304SOL    HW130791   0.683   2.713  18.468
 6304SOL    HW230792   0.537   2.687  18.496
 6305SOL     OW30793   3.456   1.631   3.317
 6305SOL    HW130794   3.462   1.582   3.398
 6305SOL    HW230795   3.499   1.576   3.252
 6306SOL     OW30796   1.710   1.553  18.471
 6306SOL    HW130797   1.659   1.633  18.460
 6306SOL    HW230798   1.773   1.573  18.541
 6307SOL     OW30799   2.899   4.511  16.392
 6307SOL    HW130800   2.978   4.506  16.338
 6307SOL    HW230801   2.921   4.573  16.462
 6308SOL     OW30802   0.238   4.080  14.798
 6308SOL    HW130803   0.279   3.994  14.805
 6308SOL    HW230804   0.192   4.079  14.714
 6309SOL     OW30805   0.275   0.004   5.765
 6309SOL    HW130806   0.196   0.056   5.754
 6309SOL    HW230807   0.335   0.035   5.697
 6310SOL     OW30808   1.688   4.154  11.829
 6310SOL    HW130809   1.696   4.248  11.810
 6310SOL    HW230810   1.719   4.145  11.919
 6311SOL     OW30811   1.098   4.221  20.400
 6311SOL    HW130812   1.140   4.181  20.324
 6311SOL    HW230813   1.143   4.306  20.410
 6312SOL     OW30814   2.396   0.698  19.767
 6312SOL    HW130815   2.489   0.720  19.762
 6312SOL    HW230816   2.351   0.776  19.736
 6313SOL     OW30817   3.597   2.402   3.874
 6313SOL    HW130818   3.674   2.413   3.931
 6313SOL    HW230819   3.589   2.486   3.828
 6314SOL     OW30820   0.521   0.550  18.833
 6314SOL    HW130821   0.460   0.602  18.781
 6314SOL    HW230822   0.589   0.523  18.771
 6315SOL     OW30823   0.359   3.224   6.139
 6315SOL    HW130824   0.344   3.146   6.085
 6315SOL    HW230825   0.278   3.232   6.190
 6316SOL     OW30826   0.619   1.026   0.754
 6316SOL    HW130827   0.603   1.000   0.845
 6316SOL    HW230828   0.541   1.075   0.729
 6317SOL     OW30829   0.812   1.645   3.156
 6317SOL    HW130830   0.784   1.559   3.125
 6317SOL    HW230831   0.907   1.645   3.145
 6318SOL     OW30832   1.060   0.128  18.326
 6318SOL    HW130833   1.058   0.147  18.420
 6318SOL    HW230834   0.981   0.171  18.292
 6319SOL     OW30835   2.121   4.737  18.867
 6319SOL    HW130836   2.173   4.658  18.886
 6319SOL    HW230837   2.076   4.717  18.785
 6320SOL     OW30838   0.495   2.835   5.652
 6320SOL    HW130839   0.513   2.749   5.613
 6320SOL    HW230840   0.446   2.815   5.732
 6321SOL     OW30841   0.335   4.648  19.967
 6321SOL    HW130842   0.374   4.735  19.968
 6321SOL    HW230843   0.375   4.604  20.043
 6322SOL     OW30844   0.266   1.991   6.880
 6322SOL    HW130845   0.361   1.989   6.882
 6322SOL    HW230846   0.241   1.926   6.814
 6323SOL     OW30847   3.643   1.412  15.462
 6323SOL    HW130848   3.731   1.384  15.438
 6323SOL    HW230849   3.637   1.394  15.556
 6324SOL     OW30850   2.639   4.082   3.397
 6324SOL    HW130851   2.611   4.117   3.481
 6324SOL    HW230852   2.718   4.032   3.417
 6325SOL     OW30853   0.631   0.848  14.628
 6325SOL    HW130854   0.724   0.865  14.618
 6325SOL    HW230855   0.620   0.823  14.719
 6326SOL     OW30856   0.872   4.300  11.525
 6326SOL    HW130857   0.951   4.245  11.525
 6326SOL    HW230858   0.882   4.355  11.447
 6327SOL     OW30859   0.854   4.226  13.062
 6327SOL    HW130860   0.792   4.169  13.016
 6327SOL    HW230861   0.934   4.222  13.009
 6328SOL     OW30862   1.362   2.414   2.205
 6328SOL    HW130863   1.387   2.464   2.283
 6328SOL    HW230864   1.440   2.415   2.149
 6329SOL     OW30865   2.264   1.506  13.914
 6329SOL    HW130866   2.209   1.500  13.992
 6329SOL    HW230867   2.217   1.567  13.857
 6330SOL     OW30868   0.946   4.000   5.946
 6330SOL    HW130869   0.976   3.981   6.035
 6330SOL    HW230870   1.026   4.021   5.898
 6331SOL     OW30871   0.843   0.842   1.087
 6331SOL    HW130872   0.799   0.917   1.047
 6331SOL    HW230873   0.862   0.783   1.013
 6332SOL     OW30874   0.946   1.000  17.459
 6332SOL    HW130875   0.977   1.081  17.419
 6332SOL    HW230876   0.861   0.984  17.419
 6333SOL     OW30877   3.466   2.121   7.494
 6333SOL    HW130878   3.497   2.190   7.435
 6333SOL    HW230879   3.543   2.100   7.548
 6334SOL     OW30880   1.592   3.244  11.444
 6334SOL    HW130881   1.617   3.154  11.425
 6334SOL    HW230882   1.669   3.296  11.420
 6335SOL     OW30883   0.148   0.683  18.096
 6335SOL    HW130884   0.095   0.625  18.041
 6335SOL    HW230885   0.189   0.625  18.160
 6336SOL     OW30886   3.563   2.532  14.032
 6336SOL    HW130887   3.469   2.521  14.023
 6336SOL    HW230888   3.597   2.444  14.046
 6337SOL     OW30889   3.319   4.258  17.596
 6337SOL    HW130890   3.362   4.344  17.597
 6337SOL    HW230891   3.374   4.203  17.652
 6338SOL     OW30892   3.022   2.268   0.077
 6338SOL    HW130893   3.112   2.235   0.076
 6338SOL    HW230894   3.015   2.314   0.160
 6339SOL     OW30895   2.207   2.698  18.040
 6339SOL    HW130896   2.175   2.788  18.038
 6339SOL    HW230897   2.302   2.706  18.035
 6340SOL     OW30898   2.848   0.050  20.166
 6340SOL    HW130899   2.789   0.022  20.095
 6340SOL    HW230900   2.929   0.001  20.150
 6341SOL     OW30901   3.168   0.527  19.783
 6341SOL    HW130902   3.218   0.502  19.705
 6341SOL    HW230903   3.201   0.614  19.806
 6342SOL     OW30904   1.297   3.407  20.782
 6342SOL    HW130905   1.301   3.324  20.828
 6342SOL    HW230906   1.209   3.409  20.742
 6343SOL     OW30907   4.115   4.213   1.840
 6343SOL    HW130908   4.103   4.296   1.793
 6343SOL    HW230909   4.186   4.169   1.793
 6344SOL     OW30910   0.189   2.134   5.271
 6344SOL    HW130911   0.115   2.098   5.321
 6344SOL    HW230912   0.188   2.227   5.291
 6345SOL     OW30913   1.970   0.085  19.820
 6345SOL    HW130914   2.037   0.141  19.780
 6345SOL    HW230915   2.020   0.021  19.870
 6346SOL     OW30916   1.323   0.186  11.714
 6346SOL    HW130917   1.361   0.238  11.644
 6346SOL    HW230918   1.376   0.106  11.717
 6347SOL     OW30919   1.503   3.427   5.643
 6347SOL    HW130920   1.519   3.333   5.635
 6347SOL    HW230921   1.567   3.457   5.708
 6348SOL     OW30922   1.962   4.258   4.376
 6348SOL    HW130923   2.024   4.275   4.447
 6348SOL    HW230924   1.921   4.175   4.398
 6349SOL     OW30925   3.832   0.635   0.475
 6349SOL    HW130926   3.758   0.692   0.453
 6349SOL    HW230927   3.876   0.681   0.547
 6350SOL     OW30928   3.224   1.407   3.687
 6350SOL    HW130929   3.213   1.497   3.657
 6350SOL    HW230930   3.241   1.357   3.608
 6351SOL     OW30931   2.256   0.299  18.778
 6351SOL    HW130932   2.307   0.231  18.735
 6351SOL    HW230933   2.175   0.256  18.804
 6352SOL     OW30934   4.482   4.281  19.399
 6352SOL    HW130935   4.569   4.240  19.396
 6352SOL    HW230936   4.468   4.314  19.311
 6353SOL     OW30937   1.810   4.278  17.337
 6353SOL    HW130938   1.724   4.246  17.309
 6353SOL    HW230939   1.820   4.362  17.292
 6354SOL     OW30940   4.052   2.596  18.780
 6354SOL    HW130941   3.984   2.662  18.769
 6354SOL    HW230942   4.008   2.522  18.821
 6355SOL     OW30943   4.313   3.186  16.609
 6355SOL    HW130944   4.331   3.266  16.560
 6355SOL    HW230945   4.397   3.140  16.611
 6356SOL     OW30946   4.160   3.417   6.743
 6356SOL    HW130947   4.160   3.338   6.797
 6356SOL    HW230948   4.250   3.449   6.749
 6357SOL     OW30949   4.446   3.188  18.104
 6357SOL    HW130950   4.436   3.110  18.050
 6357SOL    HW230951   4.369   3.240  18.086
 6358SOL     OW30952   0.661   3.502   5.818
 6358SOL    HW130953   0.723   3.574   5.810
 6358SOL    HW230954   0.698   3.432   5.763
 6359SOL     OW30955   0.243   4.234  18.887
 6359SOL    HW130956   0.202   4.149  18.905
 6359SOL    HW230957   0.272   4.227  18.796
 6360SOL     OW30958   0.205   2.551  19.856
 6360SOL    HW130959   0.176   2.638  19.826
 6360SOL    HW230960   0.292   2.567  19.894
 6361SOL     OW30961   3.260   0.943  17.812
 6361SOL    HW130962   3.165   0.952  17.822
 6361SOL    HW230963   3.293   0.939  17.902
 6362SOL     OW30964   1.019   0.869   5.590
 6362SOL    HW130965   0.924   0.875   5.575
 6362SOL    HW230966   1.033   0.778   5.615
 6363SOL     OW30967   2.529   1.613  18.865
 6363SOL    HW130968   2.536   1.578  18.953
 6363SOL    HW230969   2.462   1.560  18.823
 6364SOL     OW30970   3.338   1.638   1.703
 6364SOL    HW130971   3.254   1.615   1.662
 6364SOL    HW230972   3.314   1.701   1.771
 6365SOL     OW30973   2.030   2.258   0.832
 6365SOL    HW130974   2.094   2.242   0.764
 6365SOL    HW230975   1.946   2.235   0.793
 6366SOL     OW30976   2.571   0.451   2.008
 6366SOL    HW130977   2.541   0.368   2.045
 6366SOL    HW230978   2.537   0.517   2.068
 6367SOL     OW30979   0.550   0.928   3.149
 6367SOL    HW130980   0.552   0.869   3.073
 6367SOL    HW230981   0.485   0.890   3.208
 6368SOL     OW30982   3.909   4.619  21.161
 6368SOL    HW130983   3.982   4.638  21.220
 6368SOL    HW230984   3.840   4.585  21.218
 6369SOL     OW30985   3.846   1.418   2.526
 6369SOL    HW130986   3.791   1.487   2.564
 6369SOL    HW230987   3.936   1.449   2.538
 6370SOL     OW30988   3.493   1.987   8.703
 6370SOL    HW130989   3.538   1.923   8.647
 6370SOL    HW230990   3.551   1.996   8.779
 6371SOL     OW30991   0.668   3.273   4.972
 6371SOL    HW130992   0.633   3.286   5.061
 6371SOL    HW230993   0.637   3.348   4.923
 6372SOL     OW30994   1.463   0.404  14.051
 6372SOL    HW130995   1.434   0.403  14.142
 6372SOL    HW230996   1.453   0.495  14.023
 6373SOL     OW30997   2.862   3.556  16.511
 6373SOL    HW130998   2.875   3.517  16.425
 6373SOL    HW230999   2.924   3.510  16.568
 6374SOL     OW31000   3.771   4.094   1.434
 6374SOL    HW131001   3.786   4.008   1.474
 6374SOL    HW231002   3.688   4.123   1.471
 6375SOL     OW31003   2.357   4.701   6.293
 6375SOL    HW131004   2.296   4.628   6.304
 6375SOL    HW231005   2.399   4.684   6.209
 6376SOL     OW31006   2.869   3.244  17.796
 6376SOL    HW131007   2.786   3.196  17.801
 6376SOL    HW231008   2.899   3.232  17.706
 6377SOL     OW31009   2.289   0.439  19.828
 6377SOL    HW131010   2.223   0.437  19.898
 6377SOL    HW231011   2.314   0.531  19.822
 6378SOL     OW31012   1.490   2.844   4.743
 6378SOL    HW131013   1.577   2.885   4.735
 6378SOL    HW231014   1.497   2.788   4.821
 6379SOL     OW31015   0.933   0.550   1.830
 6379SOL    HW131016   0.970   0.631   1.864
 6379SOL    HW231017   0.864   0.527   1.892
 6380SOL     OW31018   1.842   0.397  17.436
 6380SOL    HW131019   1.793   0.458  17.490
 6380SOL    HW231020   1.934   0.412  17.459
 6381SOL     OW31021   2.983   0.372  15.961
 6381SOL    HW131022   3.053   0.396  16.022
 6381SOL    HW231023   2.924   0.318  16.015
 6382SOL     OW31024   1.986   0.713   1.134
 6382SOL    HW131025   2.015   0.679   1.219
 6382SOL    HW231026   1.891   0.705   1.136
 6383SOL     OW31027   0.869   3.049   1.893
 6383SOL    HW131028   0.774   3.052   1.879
 6383SOL    HW231029   0.879   3.043   1.988
 6384SOL     OW31030   2.634   1.349   4.104
 6384SOL    HW131031   2.646   1.318   4.014
 6384SOL    HW231032   2.636   1.269   4.157
 6385SOL     OW31033   2.291   4.695   0.474
 6385SOL    HW131034   2.336   4.642   0.408
 6385SOL    HW231035   2.230   4.749   0.424
 6386SOL     OW31036   4.404   3.160  14.816
 6386SOL    HW131037   4.431   3.241  14.858
 6386SOL    HW231038   4.360   3.187  14.736
 6387SOL     OW31039   4.610   2.893   3.996
 6387SOL    HW131040   4.560   2.846   4.063
 6387SOL    HW231041   4.697   2.853   3.999
 6388SOL     OW31042   1.798   0.407  18.790
 6388SOL    HW131043   1.754   0.358  18.721
 6388SOL    HW231044   1.820   0.342  18.856
 6389SOL     OW31045   2.783   3.139   4.387
 6389SOL    HW131046   2.785   3.044   4.399
 6389SOL    HW231047   2.811   3.152   4.296
 6390SOL     OW31048   3.282   0.659   5.630
 6390SOL    HW131049   3.316   0.735   5.582
 6390SOL    HW231050   3.190   0.682   5.648
 6391SOL     OW31051   0.680   0.562   2.149
 6391SOL    HW131052   0.745   0.609   2.201
 6391SOL    HW231053   0.609   0.544   2.210
 6392SOL     OW31054   3.716   1.374   0.494
 6392SOL    HW131055   3.758   1.416   0.569
 6392SOL    HW231056   3.637   1.425   0.478
 6393SOL     OW31057   0.195   2.016  20.269
 6393SOL    HW131058   0.168   2.043  20.181
 6393SOL    HW231059   0.257   1.944  20.254
 6394SOL     OW31060   4.544   4.113   8.218
 6394SOL    HW131061   4.546   4.209   8.215
 6394SOL    HW231062   4.634   4.087   8.198
 6395SOL     OW31063   1.484   0.254   2.392
 6395SOL    HW131064   1.389   0.246   2.398
 6395SOL    HW231065   1.514   0.169   2.362
 6396SOL     OW31066   0.111   3.931   0.613
 6396SOL    HW131067   0.020   3.957   0.623
 6396SOL    HW231068   0.134   3.956   0.523
 6397SOL     OW31069   1.605   1.443  20.814
 6397SOL    HW131070   1.580   1.481  20.898
 6397SOL    HW231071   1.576   1.352  20.819
 6398SOL     OW31072   3.151   2.252   6.331
 6398SOL    HW131073   3.088   2.281   6.264
 6398SOL    HW231074   3.208   2.191   6.285
 6399SOL     OW31075   2.072   0.816  21.020
 6399SOL    HW131076   2.108   0.735  21.056
 6399SOL    HW231077   2.080   0.806  20.925
 6400SOL     OW31078   2.992   2.609   6.347
 6400SOL    HW131079   3.014   2.532   6.295
 6400SOL    HW231080   2.947   2.668   6.286
 6401SOL     OW31081   2.857   0.098  15.825
 6401SOL    HW131082   2.952   0.107  15.831
 6401SOL    HW231083   2.833   0.145  15.746
 6402SOL     OW31084   0.540   2.177  17.372
 6402SOL    HW131085   0.599   2.102  17.372
 6402SOL    HW231086   0.467   2.150  17.428
 6403SOL     OW31087   2.965   4.255   5.044
 6403SOL    HW131088   2.942   4.208   4.965
 6403SOL    HW231089   3.038   4.206   5.082
 6404SOL     OW31090   3.464   4.216   4.698
 6404SOL    HW131091   3.445   4.218   4.604
 6404SOL    HW231092   3.442   4.304   4.728
 6405SOL     OW31093   2.519   0.606  21.208
 6405SOL    HW131094   2.578   0.612   0.020
 6405SOL    HW231095   2.439   0.651  21.237
 6406SOL     OW31096   3.936   0.327   5.357
 6406SOL    HW131097   3.860   0.271   5.345
 6406SOL    HW231098   4.010   0.266   5.361
 6407SOL     OW31099   2.733   4.681   4.338
 6407SOL    HW131100   2.747   4.601   4.286
 6407SOL    HW231101   2.678   4.736   4.283
 6408SOL     OW31102   0.056   1.610   1.511
 6408SOL    HW131103   0.034   1.559   1.434
 6408SOL    HW231104   0.145   1.583   1.534
 6409SOL     OW31105   1.064   3.385   4.109
 6409SOL    HW131106   1.042   3.417   4.197
 6409SOL    HW231107   1.128   3.448   4.076
 6410SOL     OW31108   2.182   0.042  18.445
 6410SOL    HW131109   2.159   0.124  18.402
 6410SOL    HW231110   2.194   4.771  18.374
 6411SOL     OW31111   0.140   4.207   6.751
 6411SOL    HW131112   0.109   4.215   6.661
 6411SOL    HW231113   0.118   4.290   6.792
 6412SOL     OW31114   2.982   0.199   5.463
 6412SOL    HW131115   3.070   0.207   5.501
 6412SOL    HW231116   2.966   0.285   5.424
 6413SOL     OW31117   4.594   2.718  18.066
 6413SOL    HW131118   4.543   2.763  17.999
 6413SOL    HW231119   4.531   2.660  18.110
 6414SOL     OW31120   4.492   0.408   5.794
 6414SOL    HW131121   4.456   0.497   5.804
 6414SOL    HW231122   4.493   0.394   5.699
 6415SOL     OW31123   2.920   2.864   5.762
 6415SOL    HW131124   2.843   2.914   5.737
 6415SOL    HW231125   2.961   2.840   5.678
 6416SOL     OW31126   1.311   2.598  17.116
 6416SOL    HW131127   1.394   2.596  17.068
 6416SOL    HW231128   1.245   2.620  17.050
 6417SOL     OW31129   4.018   1.592  12.592
 6417SOL    HW131130   3.940   1.539  12.611
 6417SOL    HW231131   3.999   1.632  12.507
 6418SOL     OW31132   2.891   3.770  16.695
 6418SOL    HW131133   2.869   3.689  16.650
 6418SOL    HW231134   2.808   3.802  16.731
 6419SOL     OW31135   2.682   0.963  16.263
 6419SOL    HW131136   2.652   0.908  16.190
 6419SOL    HW231137   2.639   1.047  16.249
 6420SOL     OW31138   0.391   2.139  18.093
 6420SOL    HW131139   0.434   2.113  18.174
 6420SOL    HW231140   0.303   2.101  18.100
 6421SOL     OW31141   4.550   2.727   6.893
 6421SOL    HW131142   4.501   2.807   6.875
 6421SOL    HW231143   4.485   2.657   6.891
 6422SOL     OW31144   1.904   1.270  17.261
 6422SOL    HW131145   1.965   1.318  17.205
 6422SOL    HW231146   1.825   1.323  17.261
 6423SOL     OW31147   2.046   1.872   0.697
 6423SOL    HW131148   2.053   1.813   0.772
 6423SOL    HW231149   1.951   1.881   0.682
 6424SOL     OW31150   1.375   3.384   3.843
 6424SOL    HW131151   1.452   3.399   3.787
 6424SOL    HW231152   1.411   3.348   3.924
 6425SOL     OW31153   0.664   3.904  17.853
 6425SOL    HW131154   0.638   3.812  17.855
 6425SOL    HW231155   0.584   3.952  17.874
 6426SOL     OW31156   3.335   1.442   0.858
 6426SOL    HW131157   3.287   1.362   0.882
 6426SOL    HW231158   3.347   1.435   0.763
 6427SOL     OW31159   1.124   1.756   1.171
 6427SOL    HW131160   1.135   1.841   1.127
 6427SOL    HW231161   1.105   1.778   1.262
 6428SOL     OW31162   0.555   3.202  19.562
 6428SOL    HW131163   0.463   3.201  19.536
 6428SOL    HW231164   0.593   3.127  19.516
 6429SOL     OW31165   1.285   3.153   3.183
 6429SOL    HW131166   1.231   3.111   3.116
 6429SOL    HW231167   1.288   3.089   3.254
 6430SOL     OW31168   4.753   2.227  16.757
 6430SOL    HW131169   0.024   2.167  16.798
 6430SOL    HW231170   4.685   2.239  16.824
 6431SOL     OW31171   1.261   4.334  15.805
 6431SOL    HW131172   1.206   4.410  15.827
 6431SOL    HW231173   1.269   4.285  15.887
 6432SOL     OW31174   2.344   2.967  15.703
 6432SOL    HW131175   2.340   3.062  15.712
 6432SOL    HW231176   2.253   2.939  15.702
 6433SOL     OW31177   4.608   3.375  19.354
 6433SOL    HW131178   4.652   3.363  19.270
 6433SOL    HW231179   4.542   3.443  19.338
 6434SOL     OW31180   0.106   4.531  19.288
 6434SOL    HW131181   0.162   4.505  19.361
 6434SOL    HW231182   0.156   4.510  19.210
 6435SOL     OW31183   0.076   3.122   4.794
 6435SOL    HW131184   0.040   3.072   4.721
 6435SOL    HW231185   0.093   3.057   4.862
 6436SOL     OW31186   0.113   2.610   3.021
 6436SOL    HW131187   0.119   2.517   2.999
 6436SOL    HW231188   0.020   2.630   3.017
 6437SOL     OW31189   1.605   1.155  16.265
 6437SOL    HW131190   1.610   1.234  16.318
 6437SOL    HW231191   1.542   1.099  16.311
 6438SOL     OW31192   3.318   4.180   8.023
 6438SOL    HW131193   3.226   4.193   8.000
 6438SOL    HW231194   3.330   4.085   8.021
 6439SOL     OW31195   3.298   0.813  16.800
 6439SOL    HW131196   3.261   0.774  16.721
 6439SOL    HW231197   3.260   0.901  16.802
 6440SOL     OW31198   0.801   4.194   6.210
 6440SOL    HW131199   0.801   4.267   6.272
 6440SOL    HW231200   0.877   4.142   6.236
 6441SOL     OW31201   3.591   0.038   2.570
 6441SOL    HW131202   3.627   4.740   2.578
 6441SOL    HW231203   3.502   0.025   2.537
 6442SOL     OW31204   4.060   1.914  18.544
 6442SOL    HW131205   4.030   1.893  18.632
 6442SOL    HW231206   4.081   1.829  18.505
 6443SOL     OW31207   3.310   2.877   2.502
 6443SOL    HW131208   3.312   2.784   2.524
 6443SOL    HW231209   3.223   2.891   2.465
 6444SOL     OW31210   1.902   2.096  17.735
 6444SOL    HW131211   1.967   2.090  17.665
 6444SOL    HW231212   1.941   2.157  17.798
 6445SOL     OW31213   3.659   3.402   3.344
 6445SOL    HW131214   3.634   3.317   3.308
 6445SOL    HW231215   3.688   3.383   3.433
 6446SOL     OW31216   0.519   1.597   3.524
 6446SOL    HW131217   0.512   1.537   3.449
 6446SOL    HW231218   0.593   1.564   3.575
 6447SOL     OW31219   2.094   3.129  21.080
 6447SOL    HW131220   2.100   3.190  21.006
 6447SOL    HW231221   2.171   3.073  21.071
 6448SOL     OW31222   4.474   1.324   8.434
 6448SOL    HW131223   4.439   1.259   8.374
 6448SOL    HW231224   4.398   1.372   8.465
 6449SOL     OW31225   0.643   0.175  11.962
 6449SOL    HW131226   0.558   0.217  11.976
 6449SOL    HW231227   0.652   0.112  12.034
 6450SOL     OW31228   0.867   3.846  13.548
 6450SOL    HW131229   0.857   3.752  13.533
 6450SOL    HW231230   0.953   3.855  13.589
 6451SOL     OW31231   3.697   0.051   4.578
 6451SOL    HW131232   3.662   0.095   4.656
 6451SOL    HW231233   3.629   4.780   4.552
 6452SOL     OW31234   3.419   2.774   4.967
 6452SOL    HW131235   3.484   2.771   5.037
 6452SOL    HW231236   3.455   2.837   4.904
 6453SOL     OW31237   1.400   3.500  17.933
 6453SOL    HW131238   1.306   3.489  17.944
 6453SOL    HW231239   1.424   3.443  17.861
 6454SOL     OW31240   3.928   4.050  16.702
 6454SOL    HW131241   3.904   3.965  16.738
 6454SOL    HW231242   4.020   4.061  16.724
 6455SOL     OW31243   3.142   1.837  13.377
 6455SOL    HW131244   3.050   1.843  13.405
 6455SOL    HW231245   3.148   1.752  13.334
 6456SOL     OW31246   3.322   3.918   8.019
 6456SOL    HW131247   3.314   3.832   7.977
 6456SOL    HW231248   3.242   3.928   8.071
 6457SOL     OW31249   1.622   3.300   8.549
 6457SOL    HW131250   1.590   3.329   8.463
 6457SOL    HW231251   1.560   3.338   8.611
 6458SOL     OW31252   1.310   4.262   2.180
 6458SOL    HW131253   1.299   4.334   2.242
 6458SOL    HW231254   1.293   4.301   2.094
 6459SOL     OW31255   4.336   4.694   2.950
 6459SOL    HW131256   4.408   4.634   2.932
 6459SOL    HW231257   4.301   4.666   3.034
 6460SOL     OW31258   2.549   3.401   1.484
 6460SOL    HW131259   2.622   3.340   1.476
 6460SOL    HW231260   2.514   3.385   1.571
 6461SOL     OW31261   2.403   2.829  18.419
 6461SOL    HW131262   2.338   2.892  18.388
 6461SOL    HW231263   2.367   2.744  18.393
 6462SOL     OW31264   2.478   3.006  15.099
 6462SOL    HW131265   2.533   3.058  15.040
 6462SOL    HW231266   2.517   3.019  15.185
 6463SOL     OW31267   0.415   3.080  17.296
 6463SOL    HW131268   0.471   3.007  17.322
 6463SOL    HW231269   0.385   3.118  17.378
 6464SOL     OW31270   4.608   3.852   5.796
 6464SOL    HW131271   4.594   3.903   5.716
 6464SOL    HW231272   4.696   3.876   5.825
 6465SOL     OW31273   2.819   1.748   6.938
 6465SOL    HW131274   2.880   1.818   6.961
 6465SOL    HW231275   2.795   1.708   7.021
 6466SOL     OW31276   0.395   4.498  13.316
 6466SOL    HW131277   0.428   4.587  13.327
 6466SOL    HW231278   0.377   4.491  13.222
 6467SOL     OW31279   3.551   1.152   0.643
 6467SOL    HW131280   3.480   1.145   0.579
 6467SOL    HW231281   3.559   1.246   0.659
 6468SOL     OW31282   3.602   3.751  17.013
 6468SOL    HW131283   3.551   3.820  16.969
 6468SOL    HW231284   3.654   3.712  16.943
 6469SOL     OW31285   2.126   0.223  14.550
 6469SOL    HW131286   2.218   0.251  14.552
 6469SOL    HW231287   2.083   0.287  14.494
 6470SOL     OW31288   3.512   2.321   7.300
 6470SOL    HW131289   3.496   2.378   7.225
 6470SOL    HW231290   3.605   2.336   7.321
 6471SOL     OW31291   4.743   1.895   2.876
 6471SOL    HW131292   4.720   1.807   2.908
 6471SOL    HW231293   0.048   1.897   2.877
 6472SOL     OW31294   3.024   2.982  19.797
 6472SOL    HW131295   2.966   2.976  19.873
 6472SOL    HW231296   3.080   3.057  19.815
 6473SOL     OW31297   4.613   0.781   6.266
 6473SOL    HW131298   4.540   0.720   6.275
 6473SOL    HW231299   4.690   0.725   6.262
 6474SOL     OW31300   0.654   0.583  17.640
 6474SOL    HW131301   0.654   0.676  17.617
 6474SOL    HW231302   0.662   0.581  17.735
 6475SOL     OW31303   1.044   4.109  19.023
 6475SOL    HW131304   1.086   4.160  19.093
 6475SOL    HW231305   1.054   4.018  19.051
 6476SOL     OW31306   4.063   3.114  16.549
 6476SOL    HW131307   4.077   3.023  16.522
 6476SOL    HW231308   4.144   3.137  16.596
 6477SOL     OW31309   3.130   3.907  16.992
 6477SOL    HW131310   3.112   4.000  17.007
 6477SOL    HW231311   3.207   3.889  17.046
 6478SOL     OW31312   3.702   1.937   2.373
 6478SOL    HW131313   3.659   2.007   2.324
 6478SOL    HW231314   3.639   1.913   2.440
 6479SOL     OW31315   1.067   4.778   0.512
 6479SOL    HW131316   1.106   0.018   0.594
 6479SOL    HW231317   1.013   4.704   0.539
 6480SOL     OW31318   1.718   0.911  17.744
 6480SOL    HW131319   1.682   0.827  17.771
 6480SOL    HW231320   1.732   0.959  17.826
 6481SOL     OW31321   2.872   2.466  19.115
 6481SOL    HW131322   2.905   2.423  19.037
 6481SOL    HW231323   2.900   2.410  19.187
 6482SOL     OW31324   4.393   1.694   3.144
 6482SOL    HW131325   4.423   1.774   3.100
 6482SOL    HW231326   4.395   1.627   3.075
 6483SOL     OW31327   4.773   2.317   6.196
 6483SOL    HW131328   4.773   2.238   6.249
 6483SOL    HW231329   0.036   2.294   6.119
 6484SOL     OW31330   2.267   4.711  16.736
 6484SOL    HW131331   2.309   0.005  16.722
 6484SOL    HW231332   2.288   4.661  16.657
 6485SOL     OW31333   3.918   2.992  18.610
 6485SOL    HW131334   3.879   2.916  18.654
 6485SOL    HW231335   3.990   2.955  18.559
 6486SOL     OW31336   0.201   2.392   1.208
 6486SOL    HW131337   0.169   2.421   1.123
 6486SOL    HW231338   0.251   2.466   1.242
 6487SOL     OW31339   2.742   4.618  15.832
 6487SOL    HW131340   2.831   4.583  15.833
 6487SOL    HW231341   2.749   4.701  15.785
 6488SOL     OW31342   2.297   2.745   1.776
 6488SOL    HW131343   2.343   2.680   1.829
 6488SOL    HW231344   2.224   2.773   1.831
 6489SOL     OW31345   1.704   0.965   5.853
 6489SOL    HW131346   1.636   1.029   5.833
 6489SOL    HW231347   1.682   0.932   5.940
 6490SOL     OW31348   4.535   3.708   6.845
 6490SOL    HW131349   4.548   3.802   6.835
 6490SOL    HW231350   4.502   3.680   6.759
 6491SOL     OW31351   4.581   0.264  19.786
 6491SOL    HW131352   4.656   0.244  19.730
 6491SOL    HW231353   4.574   0.359  19.784
 6492SOL     OW31354   2.907   4.270   5.460
 6492SOL    HW131355   2.908   4.226   5.544
 6492SOL    HW231356   2.817   4.262   5.429
 6493SOL     OW31357   0.907   0.903  16.396
 6493SOL    HW131358   0.909   0.837  16.326
 6493SOL    HW231359   0.842   0.966  16.366
 6494SOL     OW31360   3.609   3.759  15.064
 6494SOL    HW131361   3.585   3.850  15.047
 6494SOL    HW231362   3.627   3.723  14.977
 6495SOL     OW31363   1.339   1.418  18.472
 6495SOL    HW131364   1.326   1.411  18.567
 6495SOL    HW231365   1.252   1.405  18.435
 6496SOL     OW31366   0.673   0.979   0.057
 6496SOL    HW131367   0.758   0.997   0.016
 6496SOL    HW231368   0.693   0.970   0.150
 6497SOL     OW31369   2.131   1.533   1.396
 6497SOL    HW131370   2.173   1.540   1.482
 6497SOL    HW231371   2.195   1.569   1.335
 6498SOL     OW31372   2.582   1.206  19.555
 6498SOL    HW131373   2.595   1.188  19.648
 6498SOL    HW231374   2.487   1.203  19.543
 6499SOL     OW31375   2.597   3.035  15.340
 6499SOL    HW131376   2.551   2.957  15.371
 6499SOL    HW231377   2.559   3.106  15.392
 6500SOL     OW31378   4.545   3.054  14.008
 6500SOL    HW131379   4.616   2.993  13.987
 6500SOL    HW231380   4.549   3.062  14.104
 6501SOL     OW31381   2.970   4.753  19.851
 6501SOL    HW131382   2.878   4.767  19.871
 6501SOL    HW231383   2.989   0.026  19.782
 6502SOL     OW31384   3.842   2.427   6.339
 6502SOL    HW131385   3.881   2.344   6.310
 6502SOL    HW231386   3.905   2.494   6.313
 6503SOL     OW31387   0.504   0.253  13.236
 6503SOL    HW131388   0.572   0.260  13.170
 6503SOL    HW231389   0.439   0.318  13.210
 6504SOL     OW31390   1.365   4.227  19.718
 6504SOL    HW131391   1.374   4.134  19.698
 6504SOL    HW231392   1.282   4.253  19.677
 6505SOL     OW31393   3.441   4.134  15.489
 6505SOL    HW131394   3.508   4.090  15.541
 6505SOL    HW231395   3.367   4.143  15.549
 6506SOL     OW31396   4.206   3.289  19.472
 6506SOL    HW131397   4.251   3.271  19.390
 6506SOL    HW231398   4.249   3.367  19.507
 6507SOL     OW31399   0.001   4.273  15.980
 6507SOL    HW131400   4.770   4.202  15.919
 6507SOL    HW231401   4.748   4.250  16.061
 6508SOL     OW31402   0.943   4.675   1.042
 6508SOL    HW131403   0.968   4.757   1.086
 6508SOL    HW231404   0.849   4.667   1.056
 6509SOL     OW31405   0.263   0.670  14.387
 6509SOL    HW131406   0.189   0.616  14.417
 6509SOL    HW231407   0.326   0.607  14.352
 6510SOL     OW31408   3.126   2.192   3.104
 6510SOL    HW131409   3.052   2.193   3.163
 6510SOL    HW231410   3.190   2.135   3.146
 6511SOL     OW31411   3.004   0.410   0.013
 6511SOL    HW131412   3.069   0.368   0.070
 6511SOL    HW231413   2.936   0.440   0.073
 6512SOL     OW31414   4.456   1.254  20.709
 6512SOL    HW131415   4.469   1.182  20.648
 6512SOL    HW231416   4.414   1.323  20.657
 6513SOL     OW31417   0.484   4.402  14.769
 6513SOL    HW131418   0.474   4.443  14.855
 6513SOL    HW231419   0.574   4.370  14.768
 6514SOL     OW31420   4.662   1.671  19.471
 6514SOL    HW131421   4.600   1.722  19.523
 6514SOL    HW231422   4.731   1.648  19.534
 6515SOL     OW31423   0.327   3.682   7.045
 6515SOL    HW131424   0.367   3.760   7.084
 6515SOL    HW231425   0.249   3.665   7.099
 6516SOL     OW31426   1.914   4.756   0.857
 6516SOL    HW131427   1.904   4.786   0.767
 6516SOL    HW231428   1.974   4.682   0.851
 6517SOL     OW31429   3.491   3.279  19.776
 6517SOL    HW131430   3.481   3.366  19.738
 6517SOL    HW231431   3.540   3.230  19.710
 6518SOL     OW31432   3.733   0.370   1.166
 6518SOL    HW131433   3.821   0.370   1.204
 6518SOL    HW231434   3.730   0.291   1.112
 6519SOL     OW31435   2.816   0.194   1.742
 6519SOL    HW131436   2.885   0.247   1.782
 6519SOL    HW231437   2.743   0.255   1.730
 6520SOL     OW31438   4.295   2.821  20.936
 6520SOL    HW131439   4.328   2.910  20.947
 6520SOL    HW231440   4.278   2.813  20.842
 6521SOL     OW31441   0.399   2.902   1.885
 6521SOL    HW131442   0.334   2.945   1.941
 6521SOL    HW231443   0.398   2.811   1.912
 6522SOL     OW31444   3.623   0.960   2.572
 6522SOL    HW131445   3.636   0.897   2.501
 6522SOL    HW231446   3.676   1.035   2.548
 6523SOL     OW31447   1.613   3.698  14.887
 6523SOL    HW131448   1.679   3.680  14.953
 6523SOL    HW231449   1.631   3.636  14.817
 6524SOL     OW31450   1.846   2.536  18.054
 6524SOL    HW131451   1.802   2.502  18.131
 6524SOL    HW231452   1.845   2.464  17.991
 6525SOL     OW31453   4.588   3.139  18.331
 6525SOL    HW131454   4.536   3.136  18.251
 6525SOL    HW231455   4.678   3.149  18.301
 6526SOL     OW31456   3.462   1.338   2.807
 6526SOL    HW131457   3.384   1.366   2.856
 6526SOL    HW231458   3.428   1.278   2.741
 6527SOL     OW31459   0.648   1.210  17.997
 6527SOL    HW131460   0.718   1.271  17.971
 6527SOL    HW231461   0.616   1.245  18.080
 6528SOL     OW31462   4.042   1.826  17.432
 6528SOL    HW131463   3.970   1.880  17.465
 6528SOL    HW231464   4.035   1.743  17.479
 6529SOL     OW31465   1.430   3.253  12.966
 6529SOL    HW131466   1.361   3.245  12.900
 6529SOL    HW231467   1.492   3.184  12.944
 6530SOL     OW31468   0.880   0.784   2.744
 6530SOL    HW131469   0.853   0.740   2.825
 6530SOL    HW231470   0.902   0.713   2.684
 6531SOL     OW31471   0.916   2.788   0.198
 6531SOL    HW131472   0.938   2.869   0.244
 6531SOL    HW231473   0.958   2.719   0.249
 6532SOL     OW31474   1.313   1.689  19.159
 6532SOL    HW131475   1.321   1.768  19.213
 6532SOL    HW231476   1.374   1.627  19.198
 6533SOL     OW31477   1.701   4.461   0.588
 6533SOL    HW131478   1.614   4.430   0.561
 6533SOL    HW231479   1.683   4.519   0.662
 6534SOL     OW31480   0.266   1.068   4.228
 6534SOL    HW131481   0.223   1.153   4.232
 6534SOL    HW231482   0.252   1.030   4.314
 6535SOL     OW31483   3.653   2.062   2.731
 6535SOL    HW131484   3.664   2.056   2.826
 6535SOL    HW231485   3.661   2.156   2.713
 6536SOL     OW31486   2.281   1.182  18.661
 6536SOL    HW131487   2.190   1.150  18.660
 6536SOL    HW231488   2.328   1.119  18.607
 6537SOL     OW31489   1.275   0.763  19.085
 6537SOL    HW131490   1.364   0.763  19.049
 6537SOL    HW231491   1.229   0.829  19.035
 6538SOL     OW31492   0.890   4.762  20.636
 6538SOL    HW131493   0.979   4.780  20.605
 6538SOL    HW231494   0.895   4.676  20.677
 6539SOL     OW31495   2.220   4.511   4.557
 6539SOL    HW131496   2.162   4.461   4.616
 6539SOL    HW231497   2.171   4.591   4.538
 6540SOL     OW31498   1.301   2.144  19.093
 6540SOL    HW131499   1.347   2.220  19.127
 6540SOL    HW231500   1.339   2.128  19.007
 6541SOL     OW31501   2.274   0.704   2.917
 6541SOL    HW131502   2.269   0.680   3.010
 6541SOL    HW231503   2.354   0.756   2.910
 6542SOL     OW31504   1.710   2.669   4.456
 6542SOL    HW131505   1.734   2.677   4.549
 6542SOL    HW231506   1.793   2.677   4.409
 6543SOL     OW31507   4.718   3.127   2.686
 6543SOL    HW131508   4.630   3.150   2.656
 6543SOL    HW231509   4.776   3.189   2.642
 6544SOL     OW31510   2.363   0.391  15.478
 6544SOL    HW131511   2.316   0.408  15.396
 6544SOL    HW231512   2.298   0.405  15.547
 6545SOL     OW31513   0.764   1.159  13.238
 6545SOL    HW131514   0.813   1.175  13.157
 6545SOL    HW231515   0.691   1.221  13.235
 6546SOL     OW31516   3.477   3.599   5.053
 6546SOL    HW131517   3.561   3.630   5.087
 6546SOL    HW231518   3.412   3.652   5.100
 6547SOL     OW31519   1.849   1.456  19.349
 6547SOL    HW131520   1.877   1.387  19.289
 6547SOL    HW231521   1.765   1.485  19.314
 6548SOL     OW31522   4.204   2.585  16.017
 6548SOL    HW131523   4.259   2.545  16.084
 6548SOL    HW231524   4.124   2.610  16.063
 6549SOL     OW31525   4.625   3.334   6.208
 6549SOL    HW131526   4.681   3.271   6.163
 6549SOL    HW231527   4.557   3.281   6.250
 6550SOL     OW31528   4.394   4.099   4.047
 6550SOL    HW131529   4.333   4.172   4.034
 6550SOL    HW231530   4.481   4.138   4.041
 6551SOL     OW31531   4.101   1.495  19.590
 6551SOL    HW131532   4.056   1.565  19.542
 6551SOL    HW231533   4.192   1.499  19.561
 6552SOL     OW31534   0.158   1.449  15.754
 6552SOL    HW131535   0.111   1.392  15.693
 6552SOL    HW231536   0.203   1.389  15.813
 6553SOL     OW31537   4.501   2.581  14.123
 6553SOL    HW131538   4.549   2.649  14.074
 6553SOL    HW231539   4.567   2.543  14.181
 6554SOL     OW31540   3.391   2.721   3.411
 6554SOL    HW131541   3.431   2.764   3.335
 6554SOL    HW231542   3.309   2.686   3.378
 6555SOL     OW31543   1.517   3.974  18.394
 6555SOL    HW131544   1.424   3.993  18.407
 6555SOL    HW231545   1.526   3.964  18.299
 6556SOL     OW31546   0.801   4.016   1.902
 6556SOL    HW131547   0.886   3.977   1.879
 6556SOL    HW231548   0.742   3.986   1.834
 6557SOL     OW31549   3.068   0.383  16.660
 6557SOL    HW131550   3.016   0.391  16.579
 6557SOL    HW231551   3.003   0.384  16.730
 6558SOL     OW31552   0.175   0.346   5.376
 6558SOL    HW131553   0.093   0.395   5.384
 6558SOL    HW231554   0.232   0.404   5.324
 6559SOL     OW31555   4.578   4.129  20.572
 6559SOL    HW131556   4.549   4.220  20.565
 6559SOL    HW231557   4.497   4.080  20.588
 6560SOL     OW31558   4.627   4.158   4.424
 6560SOL    HW131559   4.686   4.087   4.397
 6560SOL    HW231560   4.668   4.195   4.502
 6561SOL     OW31561   2.604   0.142   4.457
 6561SOL    HW131562   2.653   0.202   4.512
 6561SOL    HW231563   2.610   0.057   4.501
 6562SOL     OW31564   0.765   1.588   4.719
 6562SOL    HW131565   0.676   1.596   4.753
 6562SOL    HW231566   0.792   1.678   4.700
 6563SOL     OW31567   0.379   2.936   5.414
 6563SOL    HW131568   0.402   2.915   5.505
 6563SOL    HW231569   0.380   2.852   5.368
 6564SOL     OW31570   0.310   1.528  14.473
 6564SOL    HW131571   0.241   1.493  14.416
 6564SOL    HW231572   0.374   1.458  14.479
 6565SOL     OW31573   2.188   1.297  17.867
 6565SOL    HW131574   2.280   1.286  17.889
 6565SOL    HW231575   2.186   1.377  17.814
 6566SOL     OW31576   3.076   1.751   6.585
 6566SOL    HW131577   3.073   1.842   6.615
 6566SOL    HW231578   3.158   1.744   6.537
 6567SOL     OW31579   3.734   2.126  20.419
 6567SOL    HW131580   3.648   2.090  20.398
 6567SOL    HW231581   3.719   2.221  20.426
 6568SOL     OW31582   4.341   0.908  21.183
 6568SOL    HW131583   4.417   0.894  21.126
 6568SOL    HW231584   4.379   0.921   0.007
 6569SOL     OW31585   1.124   0.115   8.629
 6569SOL    HW131586   1.127   0.082   8.719
 6569SOL    HW231587   1.196   0.178   8.625
 6570SOL     OW31588   0.399   0.337   5.002
 6570SOL    HW131589   0.467   0.380   5.054
 6570SOL    HW231590   0.317   0.360   5.046
 6571SOL     OW31591   2.737   1.683   0.963
 6571SOL    HW131592   2.817   1.633   0.982
 6571SOL    HW231593   2.690   1.630   0.898
 6572SOL     OW31594   2.220   2.234   2.061
 6572SOL    HW131595   2.191   2.147   2.036
 6572SOL    HW231596   2.146   2.291   2.042
 6573SOL     OW31597   0.083   0.495   2.898
 6573SOL    HW131598   0.036   0.565   2.853
 6573SOL    HW231599   0.015   0.451   2.949
 6574SOL     OW31600   1.882   3.809   2.271
 6574SOL    HW131601   1.789   3.789   2.261
 6574SOL    HW231602   1.911   3.753   2.343
 6575SOL     OW31603   4.227   1.228   0.772
 6575SOL    HW131604   4.323   1.222   0.773
 6575SOL    HW231605   4.209   1.315   0.737
 6576SOL     OW31606   0.050   0.542  16.946
 6576SOL    HW131607   0.133   0.575  16.911
 6576SOL    HW231608   0.055   0.560  17.040
 6577SOL     OW31609   2.609   3.797  18.588
 6577SOL    HW131610   2.668   3.801  18.663
 6577SOL    HW231611   2.576   3.707  18.587
 6578SOL     OW31612   2.189   4.467   2.108
 6578SOL    HW131613   2.104   4.446   2.070
 6578SOL    HW231614   2.196   4.562   2.100
 6579SOL     OW31615   4.416   1.571   4.436
 6579SOL    HW131616   4.325   1.574   4.404
 6579SOL    HW231617   4.415   1.502   4.503
 6580SOL     OW31618   1.209   3.988  17.622
 6580SOL    HW131619   1.164   3.968  17.539
 6580SOL    HW231620   1.153   4.053  17.664
 6581SOL     OW31621   0.123   4.646   1.366
 6581SOL    HW131622   0.136   4.695   1.447
 6581SOL    HW231623   0.030   4.655   1.346
 6582SOL     OW31624   4.036   2.576   3.813
 6582SOL    HW131625   3.987   2.581   3.731
 6582SOL    HW231626   4.120   2.538   3.787
 6583SOL     OW31627   0.119   4.325   4.202
 6583SOL    HW131628   0.124   4.416   4.173
 6583SOL    HW231629   0.089   4.330   4.293
 6584SOL     OW31630   4.562   3.540   3.874
 6584SOL    HW131631   4.647   3.525   3.916
 6584SOL    HW231632   4.554   3.469   3.810
 6585SOL     OW31633   1.616   0.339   1.342
 6585SOL    HW131634   1.696   0.353   1.291
 6585SOL    HW231635   1.613   0.244   1.356
 6586SOL     OW31636   4.680   1.323   2.599
 6586SOL    HW131637   4.594   1.293   2.568
 6586SOL    HW231638   4.728   1.243   2.618
 6587SOL     OW31639   0.779   4.107   2.839
 6587SOL    HW131640   0.873   4.124   2.843
 6587SOL    HW231641   0.767   4.025   2.886
 6588SOL     OW31642   3.519   4.221  18.778
 6588SOL    HW131643   3.500   4.209  18.685
 6588SOL    HW231644   3.434   4.239  18.818
 6589SOL     OW31645   3.949   4.099  14.241
 6589SOL    HW131646   3.919   4.190  14.240
 6589SOL    HW231647   3.874   4.049  14.273
 6590SOL     OW31648   4.271   1.732   1.847
 6590SOL    HW131649   4.309   1.748   1.934
 6590SOL    HW231650   4.337   1.766   1.786
 6591SOL     OW31651   2.252   4.427  15.279
 6591SOL    HW131652   2.187   4.486  15.241
 6591SOL    HW231653   2.308   4.484  15.332
 6592SOL     OW31654   0.647   4.126  15.735
 6592SOL    HW131655   0.687   4.068  15.671
 6592SOL    HW231656   0.696   4.111  15.816
 6593SOL     OW31657   3.838   2.114  14.159
 6593SOL    HW131658   3.810   2.038  14.107
 6593SOL    HW231659   3.847   2.184  14.095
 6594SOL     OW31660   4.035   0.167   3.265
 6594SOL    HW131661   3.988   0.107   3.207
 6594SOL    HW231662   4.009   0.141   3.353
 6595SOL     OW31663   2.370   3.953   0.204
 6595SOL    HW131664   2.417   3.928   0.125
 6595SOL    HW231665   2.384   3.881   0.265
 6596SOL     OW31666   4.395   3.138  20.478
 6596SOL    HW131667   4.306   3.132  20.514
 6596SOL    HW231668   4.417   3.047  20.455
 6597SOL     OW31669   2.558   1.182  18.193
 6597SOL    HW131670   2.572   1.174  18.287
 6597SOL    HW231671   2.516   1.267  18.182
 6598SOL     OW31672   2.628   0.998   4.514
 6598SOL    HW131673   2.697   0.942   4.550
 6598SOL    HW231674   2.667   1.085   4.513
 6599SOL     OW31675   1.892   3.570   3.971
 6599SOL    HW131676   1.954   3.638   3.999
 6599SOL    HW231677   1.872   3.593   3.880
 6600SOL     OW31678   3.329   4.600   1.112
 6600SOL    HW131679   3.297   4.510   1.121
 6600SOL    HW231680   3.395   4.609   1.181
 6601SOL     OW31681   0.378   0.181  16.264
 6601SOL    HW131682   0.473   0.170  16.256
 6601SOL    HW231683   0.343   0.094  16.247
 6602SOL     OW31684   3.191   2.482   4.228
 6602SOL    HW131685   3.236   2.442   4.301
 6602SOL    HW231686   3.218   2.574   4.230
 6603SOL     OW31687   2.567   2.410   2.437
 6603SOL    HW131688   2.614   2.355   2.375
 6603SOL    HW231689   2.510   2.350   2.485
 6604SOL     OW31690   4.672   3.305   3.702
 6604SOL    HW131691   4.715   3.284   3.785
 6604SOL    HW231692   4.725   3.260   3.636
 6605SOL     OW31693   2.011   1.616  16.059
 6605SOL    HW131694   2.078   1.639  15.995
 6605SOL    HW231695   1.980   1.701  16.093
 6606SOL     OW31696   2.027   4.090  17.700
 6606SOL    HW131697   2.064   4.132  17.623
 6606SOL    HW231698   2.003   4.002  17.671
 6607SOL     OW31699   3.701   4.106  18.968
 6607SOL    HW131700   3.777   4.126  18.915
 6607SOL    HW231701   3.626   4.138  18.918
 6608SOL     OW31702   4.430   3.709   4.453
 6608SOL    HW131703   4.399   3.731   4.366
 6608SOL    HW231704   4.370   3.642   4.484
 6609SOL     OW31705   1.999   0.127   4.789
 6609SOL    HW131706   1.981   0.183   4.713
 6609SOL    HW231707   2.032   0.187   4.856
 6610SOL     OW31708   0.730   2.119  17.716
 6610SOL    HW131709   0.713   2.183  17.785
 6610SOL    HW231710   0.676   2.043  17.739
 6611SOL     OW31711   0.286   4.226  16.904
 6611SOL    HW131712   0.367   4.175  16.906
 6611SOL    HW231713   0.256   4.219  16.813
 6612SOL     OW31714   0.650   0.076  14.164
 6612SOL    HW131715   0.723   0.040  14.113
 6612SOL    HW231716   0.586   0.004  14.166
 6613SOL     OW31717   2.704   2.629  19.480
 6613SOL    HW131718   2.730   2.682  19.554
 6613SOL    HW231719   2.611   2.647  19.468
 6614SOL     OW31720   1.576   1.467   1.851
 6614SOL    HW131721   1.580   1.540   1.912
 6614SOL    HW231722   1.666   1.438   1.842
 6615SOL     OW31723   3.254   4.476  18.234
 6615SOL    HW131724   3.272   4.510  18.146
 6615SOL    HW231725   3.183   4.531  18.267
 6616SOL     OW31726   4.077   0.728  18.028
 6616SOL    HW131727   4.043   0.642  18.006
 6616SOL    HW231728   4.135   0.751  17.956
 6617SOL     OW31729   4.664   2.559  20.884
 6617SOL    HW131730   4.642   2.565  20.977
 6617SOL    HW231731   4.679   2.650  20.858
 6618SOL     OW31732   2.874   3.814  15.070
 6618SOL    HW131733   2.789   3.855  15.087
 6618SOL    HW231734   2.887   3.754  15.144
 6619SOL     OW31735   3.824   4.216  19.660
 6619SOL    HW131736   3.887   4.183  19.595
 6619SOL    HW231737   3.761   4.265  19.608
 6620SOL     OW31738   1.873   4.102  19.936
 6620SOL    HW131739   1.799   4.143  19.892
 6620SOL    HW231740   1.936   4.174  19.949
 6621SOL     OW31741   0.041   3.273   1.295
 6621SOL    HW131742   0.123   3.321   1.285
 6621SOL    HW231743   4.764   3.341   1.286
 6622SOL     OW31744   4.716   4.753   4.123
 6622SOL    HW131745   4.663   4.677   4.148
 6622SOL    HW231746   4.745   4.790   4.206
 6623SOL     OW31747   0.679   1.221   8.341
 6623SOL    HW131748   0.635   1.290   8.291
 6623SOL    HW231749   0.759   1.203   8.292
 6624SOL     OW31750   3.829   2.233  13.549
 6624SOL    HW131751   3.754   2.174  13.557
 6624SOL    HW231752   3.837   2.249  13.455
 6625SOL     OW31753   4.290   1.489   2.193
 6625SOL    HW131754   4.280   1.397   2.170
 6625SOL    HW231755   4.233   1.501   2.269
 6626SOL     OW31756   3.108   0.863   2.453
 6626SOL    HW131757   3.182   0.804   2.468
 6626SOL    HW231758   3.145   0.935   2.401
 6627SOL     OW31759   3.230   2.481   0.923
 6627SOL    HW131760   3.312   2.431   0.921
 6627SOL    HW231761   3.222   2.517   0.835
 6628SOL     OW31762   3.902   3.432   4.464
 6628SOL    HW131763   3.969   3.370   4.436
 6628SOL    HW231764   3.836   3.429   4.395
 6629SOL     OW31765   2.872   0.601  12.667
 6629SOL    HW131766   2.887   0.635  12.579
 6629SOL    HW231767   2.936   0.531  12.678
 6630SOL     OW31768   3.748   3.872  17.196
 6630SOL    HW131769   3.698   3.807  17.147
 6630SOL    HW231770   3.693   3.890  17.273
 6631SOL     OW31771   0.480   2.292   4.669
 6631SOL    HW131772   0.439   2.228   4.611
 6631SOL    HW231773   0.468   2.257   4.757
 6632SOL     OW31774   2.252   2.200  13.737
 6632SOL    HW131775   2.318   2.167  13.798
 6632SOL    HW231776   2.215   2.121  13.696
 6633SOL     OW31777   4.324   3.701   1.200
 6633SOL    HW131778   4.353   3.790   1.216
 6633SOL    HW231779   4.368   3.675   1.118
 6634SOL     OW31780   2.742   0.668   5.319
 6634SOL    HW131781   2.713   0.628   5.401
 6634SOL    HW231782   2.675   0.644   5.255
 6635SOL     OW31783   3.724   0.933   0.668
 6635SOL    HW131784   3.708   1.027   0.657
 6635SOL    HW231785   3.677   0.892   0.594
 6636SOL     OW31786   0.987   4.153  13.576
 6636SOL    HW131787   0.967   4.182  13.486
 6636SOL    HW231788   1.043   4.222  13.611
 6637SOL     OW31789   2.559   4.017  17.435
 6637SOL    HW131790   2.557   4.077  17.509
 6637SOL    HW231791   2.551   4.074  17.358
 6638SOL     OW31792   2.537   0.722  14.783
 6638SOL    HW131793   2.622   0.758  14.755
 6638SOL    HW231794   2.503   0.788  14.844
 6639SOL     OW31795   1.540   0.229  18.358
 6639SOL    HW131796   1.575   0.208  18.272
 6639SOL    HW231797   1.544   0.325  18.363
 6640SOL     OW31798   0.983   0.318   3.188
 6640SOL    HW131799   0.902   0.363   3.211
 6640SOL    HW231800   1.037   0.324   3.266
 6641SOL     OW31801   0.410   4.137   2.195
 6641SOL    HW131802   0.373   4.137   2.284
 6641SOL    HW231803   0.353   4.078   2.146
 6642SOL     OW31804   2.341   1.143   0.116
 6642SOL    HW131805   2.344   1.080   0.044
 6642SOL    HW231806   2.249   1.169   0.122
 6643SOL     OW31807   3.866   0.883   3.225
 6643SOL    HW131808   3.915   0.935   3.289
 6643SOL    HW231809   3.901   0.795   3.234
 6644SOL     OW31810   4.348   3.199  19.241
 6644SOL    HW131811   4.423   3.246  19.205
 6644SOL    HW231812   4.299   3.168  19.164
 6645SOL     OW31813   2.959   2.879   2.933
 6645SOL    HW131814   2.991   2.817   2.867
 6645SOL    HW231815   2.885   2.922   2.891
 6646SOL     OW31816   0.198   2.365   3.295
 6646SOL    HW131817   0.259   2.294   3.278
 6646SOL    HW231818   0.244   2.444   3.267
 6647SOL     OW31819   2.782   4.124   0.523
 6647SOL    HW131820   2.801   4.041   0.479
 6647SOL    HW231821   2.867   4.154   0.556
 6648SOL     OW31822   1.240   2.925   0.408
 6648SOL    HW131823   1.183   2.996   0.437
 6648SOL    HW231824   1.283   2.959   0.330
 6649SOL     OW31825   3.125   1.936   3.682
 6649SOL    HW131826   3.118   1.975   3.770
 6649SOL    HW231827   3.034   1.924   3.655
 6650SOL     OW31828   2.081   0.988  16.285
 6650SOL    HW131829   1.999   1.012  16.327
 6650SOL    HW231830   2.057   0.963  16.196
 6651SOL     OW31831   0.959   2.665  19.482
 6651SOL    HW131832   0.916   2.731  19.536
 6651SOL    HW231833   1.001   2.605  19.545
 6652SOL     OW31834   3.329   1.455   1.472
 6652SOL    HW131835   3.391   1.417   1.410
 6652SOL    HW231836   3.371   1.444   1.558
 6653SOL     OW31837   0.795   3.399  19.929
 6653SOL    HW131838   0.833   3.484  19.951
 6653SOL    HW231839   0.763   3.365  20.013
 6654SOL     OW31840   0.221   2.934  19.553
 6654SOL    HW131841   0.248   2.860  19.499
 6654SOL    HW231842   0.246   3.011  19.503
 6655SOL     OW31843   2.926   2.692   1.373
 6655SOL    HW131844   2.874   2.724   1.299
 6655SOL    HW231845   2.996   2.641   1.332
 6656SOL     OW31846   0.984   3.767   0.859
 6656SOL    HW131847   1.043   3.835   0.893
 6656SOL    HW231848   0.950   3.724   0.937
 6657SOL     OW31849   1.510   1.073   8.267
 6657SOL    HW131850   1.512   1.007   8.336
 6657SOL    HW231851   1.417   1.080   8.243
 6658SOL     OW31852   4.209   1.746   5.342
 6658SOL    HW131853   4.128   1.716   5.301
 6658SOL    HW231854   4.267   1.766   5.269
 6659SOL     OW31855   2.973   1.319  16.503
 6659SOL    HW131856   2.914   1.372  16.556
 6659SOL    HW231857   3.001   1.248  16.561
 6660SOL     OW31858   2.259   0.993  20.200
 6660SOL    HW131859   2.255   0.983  20.295
 6660SOL    HW231860   2.343   0.954  20.175
 6661SOL     OW31861   0.646   3.456  17.067
 6661SOL    HW131862   0.704   3.526  17.037
 6661SOL    HW231863   0.683   3.427  17.150
 6662SOL     OW31864   2.459   0.571   3.978
 6662SOL    HW131865   2.418   0.503   4.032
 6662SOL    HW231866   2.451   0.651   4.030
 6663SOL     OW31867   3.870   3.726   5.861
 6663SOL    HW131868   3.778   3.701   5.868
 6663SOL    HW231869   3.871   3.820   5.879
 6664SOL     OW31870   2.539   4.552   1.700
 6664SOL    HW131871   2.454   4.550   1.742
 6664SOL    HW231872   2.590   4.615   1.751
 6665SOL     OW31873   3.058   3.601  21.183
 6665SOL    HW131874   3.149   3.631  21.174
 6665SOL    HW231875   3.006   3.671  21.144
 6666SOL     OW31876   3.077   3.924   4.613
 6666SOL    HW131877   3.158   3.877   4.631
 6666SOL    HW231878   3.009   3.857   4.613
 6667SOL     OW31879   0.976   3.224   3.881
 6667SOL    HW131880   0.976   3.272   3.798
 6667SOL    HW231881   0.987   3.292   3.948
 6668SOL     OW31882   2.518   4.073  18.980
 6668SOL    HW131883   2.452   4.011  19.012
 6668SOL    HW231884   2.496   4.085  18.887
 6669SOL     OW31885   1.800   4.049   6.862
 6669SOL    HW131886   1.877   4.000   6.832
 6669SOL    HW231887   1.803   4.131   6.812
 6670SOL     OW31888   1.295   2.587  15.451
 6670SOL    HW131889   1.384   2.576  15.418
 6670SOL    HW231890   1.260   2.498  15.455
 6671SOL     OW31891   0.108   0.567  18.555
 6671SOL    HW131892   0.122   0.606  18.641
 6671SOL    HW231893   0.016   0.586  18.534
 6672SOL     OW31894   3.375   1.591  12.878
 6672SOL    HW131895   3.467   1.618  12.878
 6672SOL    HW231896   3.332   1.653  12.937
 6673SOL     OW31897   2.513   4.373  18.278
 6673SOL    HW131898   2.548   4.446  18.329
 6673SOL    HW231899   2.521   4.297  18.336
 6674SOL     OW31900   0.960   0.634   3.995
 6674SOL    HW131901   0.923   0.720   3.977
 6674SOL    HW231902   0.967   0.592   3.909
 6675SOL     OW31903   3.171   1.112   6.395
 6675SOL    HW131904   3.118   1.032   6.397
 6675SOL    HW231905   3.114   1.179   6.432
 6676SOL     OW31906   1.219   2.761   2.605
 6676SOL    HW131907   1.220   2.683   2.660
 6676SOL    HW231908   1.179   2.733   2.523
 6677SOL     OW31909   2.712   4.573   0.848
 6677SOL    HW131910   2.763   4.607   0.921
 6677SOL    HW231911   2.679   4.489   0.879
 6678SOL     OW31912   4.681   3.775   4.525
 6678SOL    HW131913   4.589   3.772   4.496
 6678SOL    HW231914   4.709   3.684   4.524
 6679SOL     OW31915   0.570   0.290  18.689
 6679SOL    HW131916   0.591   0.365  18.634
 6679SOL    HW231917   0.484   0.262  18.658
 6680SOL     OW31918   2.780   2.564   2.819
 6680SOL    HW131919   2.817   2.479   2.794
 6680SOL    HW231920   2.745   2.601   2.738
 6681SOL     OW31921   0.861   0.114  16.511
 6681SOL    HW131922   0.825   0.064  16.583
 6681SOL    HW231923   0.792   0.115  16.445
 6682SOL     OW31924   2.127   0.708  19.886
 6682SOL    HW131925   2.221   0.698  19.867
 6682SOL    HW231926   2.084   0.689  19.802
 6683SOL     OW31927   4.207   4.575   3.181
 6683SOL    HW131928   4.265   4.577   3.257
 6683SOL    HW231929   4.125   4.539   3.215
 6684SOL     OW31930   4.758   1.192   5.493
 6684SOL    HW131931   4.707   1.239   5.559
 6684SOL    HW231932   0.003   1.117   5.539
 6685SOL     OW31933   0.190   0.710   3.495
 6685SOL    HW131934   0.113   0.733   3.546
 6685SOL    HW231935   0.251   0.674   3.559
 6686SOL     OW31936   4.646   3.021  17.690
 6686SOL    HW131937   4.650   3.101  17.637
 6686SOL    HW231938   4.720   2.968  17.658
 6687SOL     OW31939   1.954   2.174  20.071
 6687SOL    HW131940   1.925   2.149  20.159
 6687SOL    HW231941   1.951   2.270  20.071
 6688SOL     OW31942   4.037   0.931  19.654
 6688SOL    HW131943   4.040   0.846  19.698
 6688SOL    HW231944   3.955   0.930  19.605
 6689SOL     OW31945   3.197   0.441  16.149
 6689SOL    HW131946   3.284   0.479  16.142
 6689SOL    HW231947   3.158   0.484  16.225
 6690SOL     OW31948   2.388   3.845   0.708
 6690SOL    HW131949   2.365   3.755   0.684
 6690SOL    HW231950   2.470   3.837   0.756
 6691SOL     OW31951   2.396   0.846  15.305
 6691SOL    HW131952   2.485   0.817  15.282
 6691SOL    HW231953   2.377   0.800  15.387
 6692SOL     OW31954   2.629   2.300  18.370
 6692SOL    HW131955   2.590   2.217  18.397
 6692SOL    HW231956   2.723   2.288  18.384
 6693SOL     OW31957   4.575   4.263   3.035
 6693SOL    HW131958   4.489   4.227   3.057
 6693SOL    HW231959   4.570   4.355   3.061
 6694SOL     OW31960   0.976   0.050  15.414
 6694SOL    HW131961   0.937   0.091  15.492
 6694SOL    HW231962   0.914   0.069  15.344
 6695SOL     OW31963   2.202   4.751   5.931
 6695SOL    HW131964   2.230   4.702   6.007
 6695SOL    HW231965   2.120   4.709   5.904
 6696SOL     OW31966   0.604   1.143   4.992
 6696SOL    HW131967   0.620   1.082   5.065
 6696SOL    HW231968   0.513   1.127   4.968
 6697SOL     OW31969   0.225   1.846   1.667
 6697SOL    HW131970   0.261   1.762   1.696
 6697SOL    HW231971   0.299   1.907   1.671
 6698SOL     OW31972   0.317   2.846  16.633
 6698SOL    HW131973   0.383   2.784  16.665
 6698SOL    HW231974   0.284   2.806  16.552
 6699SOL     OW31975   4.498   2.472   3.456
 6699SOL    HW131976   4.578   2.482   3.405
 6699SOL    HW231977   4.501   2.382   3.488
 6700SOL     OW31978   4.703   0.312   0.305
 6700SOL    HW131979   4.689   0.401   0.273
 6700SOL    HW231980   4.742   0.264   0.232
 6701SOL     OW31981   1.618   0.594   3.838
 6701SOL    HW131982   1.698   0.577   3.888
 6701SOL    HW231983   1.645   0.586   3.747
 6702SOL     OW31984   2.530   1.797   8.154
 6702SOL    HW131985   2.559   1.714   8.192
 6702SOL    HW231986   2.481   1.839   8.224
 6703SOL     OW31987   2.976   1.437  18.271
 6703SOL    HW131988   3.040   1.403  18.208
 6703SOL    HW231989   3.027   1.493  18.329
 6704SOL     OW31990   4.467   2.875  17.843
 6704SOL    HW131991   4.397   2.939  17.848
 6704SOL    HW231992   4.529   2.913  17.780
 6705SOL     OW31993   0.471   4.302  16.593
 6705SOL    HW131994   0.443   4.320  16.683
 6705SOL    HW231995   0.543   4.241  16.602
 6706SOL     OW31996   4.730   0.825  18.315
 6706SOL    HW131997   4.683   0.742  18.305
 6706SOL    HW231998   4.748   0.853  18.226
 6707SOL     OW31999   4.308   3.024   2.852
 6707SOL    HW132000   4.215   3.028   2.831
 6707SOL    HW232001   4.327   2.931   2.863
 6708SOL     OW32002   0.932   1.346  17.926
 6708SOL    HW132003   0.938   1.437  17.953
 6708SOL    HW232004   1.003   1.302  17.973
 6709SOL     OW32005   0.902   4.543   2.996
 6709SOL    HW132006   0.826   4.511   2.947
 6709SOL    HW232007   0.885   4.516   3.087
 6710SOL     OW32008   2.005   2.364   7.253
 6710SOL    HW132009   1.946   2.290   7.236
 6710SOL    HW232010   1.953   2.425   7.306
 6711SOL     OW32011   1.040   0.753  16.746
 6711SOL    HW132012   1.089   0.832  16.722
 6711SOL    HW232013   1.088   0.718  16.821
 6712SOL     OW32014   1.900   3.259   1.728
 6712SOL    HW132015   1.930   3.318   1.659
 6712SOL    HW232016   1.979   3.213   1.757
 6713SOL     OW32017   0.842   1.488   0.019
 6713SOL    HW132018   0.882   1.506   0.104
 6713SOL    HW232019   0.914   1.494  21.220
 6714SOL     OW32020   1.871   1.836   2.571
 6714SOL    HW132021   1.889   1.822   2.665
 6714SOL    HW232022   1.938   1.899   2.544
 6715SOL     OW32023   0.052   4.261   6.077
 6715SOL    HW132024   0.034   4.345   6.120
 6715SOL    HW232025   4.767   4.245   6.021
 6716SOL     OW32026   2.913   3.635   5.399
 6716SOL    HW132027   2.948   3.723   5.417
 6716SOL    HW232028   2.872   3.609   5.482
 6717SOL     OW32029   4.655   2.438  18.768
 6717SOL    HW132030   4.571   2.475  18.796
 6717SOL    HW232031   4.634   2.388  18.689
 6718SOL     OW32032   0.553   4.253  13.759
 6718SOL    HW132033   0.566   4.319  13.692
 6718SOL    HW232034   0.616   4.184  13.738
 6719SOL     OW32035   0.293   4.055   7.380
 6719SOL    HW132036   0.348   4.130   7.402
 6719SOL    HW232037   0.322   4.027   7.294
 6720SOL     OW32038   0.267   1.647   1.977
 6720SOL    HW132039   0.180   1.625   2.012
 6720SOL    HW232040   0.262   1.625   1.884
 6721SOL     OW32041   2.901   0.814  20.420
 6721SOL    HW132042   2.981   0.833  20.470
 6721SOL    HW232043   2.842   0.885  20.443
 6722SOL     OW32044   0.242   1.936   7.622
 6722SOL    HW132045   0.297   1.914   7.548
 6722SOL    HW232046   0.292   1.908   7.699
 6723SOL     OW32047   4.592   3.961   0.136
 6723SOL    HW132048   4.521   4.023   0.150
 6723SOL    HW232049   4.643   3.998   0.064
 6724SOL     OW32050   0.523   1.476   1.781
 6724SOL    HW132051   0.562   1.399   1.739
 6724SOL    HW232052   0.525   1.456   1.874
 6725SOL     OW32053   3.865   1.868  17.674
 6725SOL    HW132054   3.790   1.872  17.734
 6725SOL    HW232055   3.918   1.795  17.706
 6726SOL     OW32056   4.089   0.059  20.189
 6726SOL    HW132057   4.104   0.063  20.283
 6726SOL    HW232058   4.002   0.097  20.177
 6727SOL     OW32059   0.037   1.058  19.505
 6727SOL    HW132060   0.006   1.032  19.592
 6727SOL    HW232061   0.057   1.151  19.514
 6728SOL     OW32062   3.106   1.530   1.858
 6728SOL    HW132063   3.193   1.527   1.896
 6728SOL    HW232064   3.071   1.441   1.869
 6729SOL     OW32065   2.490   1.827  13.720
 6729SOL    HW132066   2.468   1.907  13.767
 6729SOL    HW232067   2.576   1.801  13.754
 6730SOL     OW32068   1.331   1.760   3.330
 6730SOL    HW132069   1.268   1.731   3.396
 6730SOL    HW232070   1.389   1.820   3.376
 6731SOL     OW32071   4.012   1.007  20.286
 6731SOL    HW132072   4.019   0.939  20.353
 6731SOL    HW232073   4.083   1.068  20.307
 6732SOL     OW32074   2.883   1.088  18.958
 6732SOL    HW132075   2.827   1.156  18.921
 6732SOL    HW232076   2.828   1.046  19.025
 6733SOL     OW32077   3.058   0.286   3.948
 6733SOL    HW132078   2.964   0.301   3.954
 6733SOL    HW232079   3.096   0.343   4.015
 6734SOL     OW32080   2.927   4.601  17.345
 6734SOL    HW132081   2.860   4.598  17.414
 6734SOL    HW232082   2.902   4.532  17.284
 6735SOL     OW32083   3.180   4.106   1.019
 6735SOL    HW132084   3.226   4.036   0.974
 6735SOL    HW232085   3.088   4.094   0.994
 6736SOL     OW32086   3.860   3.050   3.449
 6736SOL    HW132087   3.914   3.003   3.512
 6736SOL    HW232088   3.919   3.067   3.375
 6737SOL     OW32089   4.674   0.167  19.131
 6737SOL    HW132090   4.629   0.235  19.181
 6737SOL    HW232091   4.687   0.095  19.193
 6738SOL     OW32092   1.752   0.154   2.276
 6738SOL    HW132093   1.742   0.135   2.369
 6738SOL    HW232094   1.792   0.075   2.239
 6739SOL     OW32095   0.491   2.108   2.076
 6739SOL    HW132096   0.447   2.024   2.065
 6739SOL    HW232097   0.553   2.095   2.148
 6740SOL     OW32098   0.884   3.503   3.759
 6740SOL    HW132099   0.971   3.534   3.785
 6740SOL    HW232100   0.825   3.575   3.781
 6741SOL     OW32101   1.625   0.291  19.255
 6741SOL    HW132102   1.697   0.246  19.210
 6741SOL    HW232103   1.659   0.310  19.342
 6742SOL     OW32104   2.114   4.296  15.447
 6742SOL    HW132105   2.172   4.342  15.386
 6742SOL    HW232106   2.163   4.294  15.529
 6743SOL     OW32107   3.889   1.416   4.884
 6743SOL    HW132108   3.831   1.453   4.951
 6743SOL    HW232109   3.830   1.369   4.825
 6744SOL     OW32110   0.841   3.382   0.988
 6744SOL    HW132111   0.931   3.362   0.965
 6744SOL    HW232112   0.794   3.299   0.978
 6745SOL     OW32113   2.438   2.110  16.108
 6745SOL    HW132114   2.527   2.139  16.090
 6745SOL    HW232115   2.396   2.184  16.152
 6746SOL     OW32116   0.384   3.255   1.623
 6746SOL    HW132117   0.360   3.247   1.715
 6746SOL    HW232118   0.346   3.178   1.581
 6747SOL     OW32119   3.156   3.389   4.701
 6747SOL    HW132120   3.177   3.306   4.660
 6747SOL    HW232121   3.169   3.454   4.632
 6748SOL     OW32122   3.209   1.239   0.991
 6748SOL    HW132123   3.193   1.191   1.073
 6748SOL    HW232124   3.226   1.170   0.927
 6749SOL     OW32125   0.190   1.075  16.102
 6749SOL    HW132126   0.260   1.056  16.165
 6749SOL    HW232127   0.127   1.126  16.152
 6750SOL     OW32128   2.103   1.414  20.674
 6750SOL    HW132129   2.141   1.392  20.589
 6750SOL    HW232130   2.095   1.509  20.673
 6751SOL     OW32131   2.084   2.951  18.003
 6751SOL    HW132132   2.049   2.890  17.938
 6751SOL    HW232133   2.035   3.032  17.988
 6752SOL     OW32134   1.617   4.612  16.353
 6752SOL    HW132135   1.570   4.626  16.435
 6752SOL    HW232136   1.708   4.635  16.373
 6753SOL     OW32137   1.083   0.674  19.319
 6753SOL    HW132138   1.101   0.721  19.401
 6753SOL    HW232139   1.160   0.690  19.265
 6754SOL     OW32140   0.135   2.777  19.753
 6754SOL    HW132141   0.165   2.837  19.685
 6754SOL    HW232142   0.040   2.778  19.746
 6755SOL     OW32143   2.763   2.939   8.022
 6755SOL    HW132144   2.847   2.975   7.993
 6755SOL    HW232145   2.699   2.974   7.960
 6756SOL     OW32146   1.548   2.925  20.891
 6756SOL    HW132147   1.621   2.933  20.952
 6756SOL    HW232148   1.483   2.871  20.937
 6757SOL     OW32149   3.390   1.880  16.240
 6757SOL    HW132150   3.423   1.936  16.310
 6757SOL    HW232151   3.469   1.848  16.196
 6758SOL     OW32152   4.066   2.538  20.690
 6758SOL    HW132153   4.157   2.516  20.666
 6758SOL    HW232154   4.070   2.630  20.715
 6759SOL     OW32155   3.123   3.894  21.160
 6759SOL    HW132156   3.028   3.888  21.168
 6759SOL    HW232157   3.138   3.921  21.069
 6760SOL     OW32158   3.683   3.075   0.275
 6760SOL    HW132159   3.704   3.080   0.368
 6760SOL    HW232160   3.639   2.991   0.265
 6761SOL     OW32161   2.673   1.904  14.314
 6761SOL    HW132162   2.732   1.831  14.332
 6761SOL    HW232163   2.693   1.969  14.381
 6762SOL     OW32164   2.478   2.287  16.532
 6762SOL    HW132165   2.409   2.252  16.588
 6762SOL    HW232166   2.456   2.380  16.522
 6763SOL     OW32167   3.488   1.164   3.092
 6763SOL    HW132168   3.545   1.136   3.020
 6763SOL    HW232169   3.473   1.257   3.075
 6764SOL     OW32170   0.935   4.488  17.812
 6764SOL    HW132171   0.929   4.528  17.725
 6764SOL    HW232172   1.007   4.534  17.855
 6765SOL     OW32173   1.982   1.904  16.706
 6765SOL    HW132174   1.920   1.834  16.729
 6765SOL    HW232175   2.025   1.926  16.789
 6766SOL     OW32176   3.520   2.757  14.577
 6766SOL    HW132177   3.548   2.844  14.606
 6766SOL    HW232178   3.510   2.765  14.482
 6767SOL     OW32179   4.033   4.007  20.879
 6767SOL    HW132180   4.069   3.950  20.947
 6767SOL    HW232181   4.103   4.015  20.815
 6768SOL     OW32182   1.004   3.041   0.546
 6768SOL    HW132183   0.924   3.006   0.506
 6768SOL    HW232184   0.981   3.054   0.638
 6769SOL     OW32185   2.468   1.277   0.330
 6769SOL    HW132186   2.420   1.229   0.263
 6769SOL    HW232187   2.488   1.361   0.290
 6770SOL     OW32188   0.892   0.124  11.098
 6770SOL    HW132189   0.967   0.182  11.083
 6770SOL    HW232190   0.858   0.151  11.183
 6771SOL     OW32191   2.816   0.238  14.553
 6771SOL    HW132192   2.804   0.298  14.627
 6771SOL    HW232193   2.901   0.261  14.517
 6772SOL     OW32194   0.746   0.242   5.594
 6772SOL    HW132195   0.684   0.169   5.594
 6772SOL    HW232196   0.724   0.291   5.515
 6773SOL     OW32197   3.543   2.476  16.033
 6773SOL    HW132198   3.505   2.502  15.949
 6773SOL    HW232199   3.478   2.416  16.071
 6774SOL     OW32200   2.360   1.405   1.071
 6774SOL    HW132201   2.383   1.316   1.098
 6774SOL    HW232202   2.265   1.410   1.086
 6775SOL     OW32203   1.068   2.225  15.267
 6775SOL    HW132204   1.039   2.134  15.275
 6775SOL    HW232205   1.018   2.261  15.194
 6776SOL     OW32206   0.602   2.970  18.320
 6776SOL    HW132207   0.561   3.030  18.382
 6776SOL    HW232208   0.598   2.884  18.362
 6777SOL     OW32209   3.666   1.108   8.350
 6777SOL    HW132210   3.642   1.193   8.387
 6777SOL    HW232211   3.583   1.070   8.321
 6778SOL     OW32212   3.912   3.469   5.083
 6778SOL    HW132213   3.848   3.488   5.151
 6778SOL    HW232214   3.863   3.474   5.001
 6779SOL     OW32215   1.922   3.675   2.909
 6779SOL    HW132216   1.976   3.637   2.978
 6779SOL    HW232217   1.915   3.768   2.931
 6780SOL     OW32218   1.094   1.848   3.567
 6780SOL    HW132219   1.091   1.933   3.524
 6780SOL    HW232220   1.038   1.792   3.512
 6781SOL     OW32221   0.990   2.544  18.433
 6781SOL    HW132222   1.038   2.578  18.509
 6781SOL    HW232223   0.961   2.623  18.386
 6782SOL     OW32224   2.181   1.374   3.737
 6782SOL    HW132225   2.102   1.418   3.704
 6782SOL    HW232226   2.210   1.429   3.810
 6783SOL     OW32227   1.376   3.188  17.586
 6783SOL    HW132228   1.432   3.176  17.509
 6783SOL    HW232229   1.369   3.101  17.625
 6784SOL     OW32230   1.035   2.864  20.019
 6784SOL    HW132231   1.093   2.909  20.080
 6784SOL    HW232232   1.094   2.821  19.957
 6785SOL     OW32233   2.889   2.510   0.332
 6785SOL    HW132234   2.941   2.546   0.260
 6785SOL    HW232235   2.951   2.457   0.382
 6786SOL     OW32236   4.094   1.997  17.067
 6786SOL    HW132237   4.119   2.089  17.074
 6786SOL    HW232238   4.019   1.997  17.006
 6787SOL     OW32239   0.475   1.889  17.473
 6787SOL    HW132240   0.387   1.925  17.469
 6787SOL    HW232241   0.511   1.920  17.556
 6788SOL     OW32242   3.217   4.750   7.964
 6788SOL    HW132243   3.237   4.788   7.879
 6788SOL    HW232244   3.175   0.030   8.013
 6789SOL     OW32245   0.486   3.545  18.755
 6789SOL    HW132246   0.440   3.517  18.676
 6789SOL    HW232247   0.565   3.491  18.757
 6790SOL     OW32248   1.137   2.365  17.388
 6790SOL    HW132249   1.123   2.459  17.401
 6790SOL    HW232250   1.197   2.340  17.458
 6791SOL     OW32251   2.399   4.216   1.025
 6791SOL    HW132252   2.484   4.247   0.993
 6791SOL    HW232253   2.338   4.241   0.956
 6792SOL     OW32254   1.123   1.127   5.628
 6792SOL    HW132255   1.096   1.175   5.550
 6792SOL    HW232256   1.118   1.035   5.603
 6793SOL     OW32257   1.895   1.247   5.814
 6793SOL    HW132258   1.830   1.182   5.787
 6793SOL    HW232259   1.882   1.256   5.908
 6794SOL     OW32260   2.017   3.156  15.834
 6794SOL    HW132261   2.040   3.080  15.888
 6794SOL    HW232262   2.077   3.225  15.864
 6795SOL     OW32263   4.144   3.958  13.706
 6795SOL    HW132264   4.173   4.028  13.648
 6795SOL    HW232265   4.150   3.996  13.794
 6796SOL     OW32266   0.227   1.320   4.879
 6796SOL    HW132267   0.260   1.231   4.895
 6796SOL    HW232268   0.146   1.325   4.930
 6797SOL     OW32269   4.035   1.265  18.879
 6797SOL    HW132270   4.116   1.315  18.889
 6797SOL    HW232271   3.980   1.319  18.822
 6798SOL     OW32272   2.926   2.970   2.090
 6798SOL    HW132273   2.934   2.942   1.999
 6798SOL    HW232274   2.866   2.906   2.129
 6799SOL     OW32275   4.322   3.533  20.329
 6799SOL    HW132276   4.339   3.583  20.249
 6799SOL    HW232277   4.262   3.464  20.300
 6800SOL     OW32278   2.822   2.005  18.414
 6800SOL    HW132279   2.911   1.976  18.433
 6800SOL    HW232280   2.805   2.072  18.480
 6801SOL     OW32281   0.239   0.502  21.046
 6801SOL    HW132282   0.224   0.414  21.081
 6801SOL    HW232283   0.301   0.542  21.107
 6802SOL     OW32284   1.366   1.658   2.265
 6802SOL    HW132285   1.426   1.661   2.190
 6802SOL    HW232286   1.280   1.676   2.227
 6803SOL     OW32287   0.952   0.474  16.196
 6803SOL    HW132288   1.044   0.462  16.217
 6803SOL    HW232289   0.945   0.447  16.104
 6804SOL     OW32290   1.032   3.907  13.005
 6804SOL    HW132291   1.057   3.998  12.988
 6804SOL    HW232292   1.019   3.903  13.100
 6805SOL     OW32293   1.199   2.969  20.783
 6805SOL    HW132294   1.205   3.063  20.767
 6805SOL    HW232295   1.214   2.960  20.877
 6806SOL     OW32296   0.437   3.137   0.352
 6806SOL    HW132297   0.462   3.110   0.440
 6806SOL    HW232298   0.387   3.218   0.365
 6807SOL     OW32299   3.581   3.528  21.198
 6807SOL    HW132300   3.579   3.478  21.116
 6807SOL    HW232301   3.653   3.489  21.248
 6808SOL     OW32302   2.111   1.844  18.381
 6808SOL    HW132303   2.197   1.884  18.396
 6808SOL    HW232304   2.125   1.750  18.398
 6809SOL     OW32305   1.721   0.860   0.209
 6809SOL    HW132306   1.748   0.859   0.301
 6809SOL    HW232307   1.729   0.769   0.181
 6810SOL     OW32308   2.580   4.123   4.683
 6810SOL    HW132309   2.558   4.030   4.691
 6810SOL    HW232310   2.502   4.169   4.710
 6811SOL     OW32311   0.710   1.222   4.750
 6811SOL    HW132312   0.695   1.197   4.841
 6811SOL    HW232313   0.759   1.304   4.755
 6812SOL     OW32314   2.327   3.562   1.482
 6812SOL    HW132315   2.409   3.514   1.475
 6812SOL    HW232316   2.334   3.632   1.418
 6813SOL     OW32317   0.492   0.485   2.338
 6813SOL    HW132318   0.520   0.394   2.350
 6813SOL    HW232319   0.418   0.480   2.277
 6814SOL     OW32320   0.582   4.572   3.275
 6814SOL    HW132321   0.660   4.628   3.278
 6814SOL    HW232322   0.604   4.499   3.334
 6815SOL     OW32323   3.942   2.076  18.249
 6815SOL    HW132324   3.930   2.155  18.196
 6815SOL    HW232325   3.957   2.006  18.186
 6816SOL     OW32326   0.739   1.682  17.723
 6816SOL    HW132327   0.780   1.748  17.779
 6816SOL    HW232328   0.746   1.600  17.771
 6817SOL     OW32329   1.385   2.337  19.294
 6817SOL    HW132330   1.378   2.355  19.388
 6817SOL    HW232331   1.476   2.312  19.281
 6818SOL     OW32332   2.527   0.864   4.194
 6818SOL    HW132333   2.615   0.834   4.217
 6818SOL    HW232334   2.473   0.840   4.269
 6819SOL     OW32335   1.762   0.709   7.812
 6819SOL    HW132336   1.807   0.730   7.731
 6819SOL    HW232337   1.675   0.679   7.784
 6820SOL     OW32338   0.076   2.271  17.048
 6820SOL    HW132339   0.064   2.326  17.126
 6820SOL    HW232340   0.128   2.325  16.989
 6821SOL     OW32341   0.130   4.127  21.218
 6821SOL    HW132342   0.212   4.079  21.231
 6821SOL    HW232343   0.113   4.121  21.124
 6822SOL     OW32344   1.071   0.711  12.632
 6822SOL    HW132345   1.144   0.751  12.679
 6822SOL    HW232346   1.058   0.627  12.674
 6823SOL     OW32347   4.712   0.456  13.533
 6823SOL    HW132348   4.749   0.539  13.504
 6823SOL    HW232349   4.694   0.469  13.626
 6824SOL     OW32350   4.552   4.052   5.275
 6824SOL    HW132351   4.527   4.039   5.184
 6824SOL    HW232352   4.535   4.145   5.292
 6825SOL     OW32353   0.462   1.409  19.868
 6825SOL    HW132354   0.493   1.358  19.943
 6825SOL    HW232355   0.407   1.349  19.819
 6826SOL     OW32356   3.198   0.519  21.112
 6826SOL    HW132357   3.262   0.465  21.067
 6826SOL    HW232358   3.138   0.457  21.153
 6827SOL     OW32359   2.595   3.997   1.402
 6827SOL    HW132360   2.643   3.966   1.479
 6827SOL    HW232361   2.577   4.089   1.420
 6828SOL     OW32362   2.218   3.133   6.716
 6828SOL    HW132363   2.280   3.061   6.731
 6828SOL    HW232364   2.136   3.102   6.756
 6829SOL     OW32365   2.690   2.362   4.979
 6829SOL    HW132366   2.667   2.322   4.895
 6829SOL    HW232367   2.704   2.455   4.958
 6830SOL     OW32368   0.557   3.097   2.471
 6830SOL    HW132369   0.645   3.121   2.442
 6830SOL    HW232370   0.509   3.079   2.391
 6831SOL     OW32371   1.099   0.404  19.931
 6831SOL    HW132372   1.106   0.473  19.865
 6831SOL    HW232373   1.190   0.377  19.947
 6832SOL     OW32374   3.983   0.802   0.097
 6832SOL    HW132375   3.923   0.787   0.024
 6832SOL    HW232376   3.968   0.893   0.123
 6833SOL     OW32377   4.095   2.272   0.567
 6833SOL    HW132378   4.085   2.364   0.543
 6833SOL    HW232379   4.190   2.258   0.570
 6834SOL     OW32380   3.379   0.975  19.664
 6834SOL    HW132381   3.293   0.969  19.623
 6834SOL    HW232382   3.382   0.902  19.725
 6835SOL     OW32383   4.141   1.378   0.084
 6835SOL    HW132384   4.194   1.299   0.099
 6835SOL    HW232385   4.052   1.353   0.111
 6836SOL     OW32386   2.547   2.955  19.542
 6836SOL    HW132387   2.486   2.884  19.560
 6836SOL    HW232388   2.503   3.034  19.573
 6837SOL     OW32389   3.426   1.479   4.648
 6837SOL    HW132390   3.361   1.486   4.718
 6837SOL    HW232391   3.415   1.558   4.596
 6838SOL     OW32392   2.467   2.648   0.512
 6838SOL    HW132393   2.537   2.584   0.500
 6838SOL    HW232394   2.415   2.613   0.585
 6839SOL     OW32395   0.474   2.426   1.054
 6839SOL    HW132396   0.486   2.427   1.149
 6839SOL    HW232397   0.492   2.336   1.028
 6840SOL     OW32398   0.029   2.139   2.220
 6840SOL    HW132399   0.010   2.210   2.160
 6840SOL    HW232400   0.125   2.132   2.219
 6841SOL     OW32401   1.652   4.722   0.473
 6841SOL    HW132402   1.689   4.747   0.558
 6841SOL    HW232403   1.666   4.627   0.468
 6842SOL     OW32404   0.200   0.810   6.272
 6842SOL    HW132405   0.118   0.848   6.302
 6842SOL    HW232406   0.181   0.716   6.264
 6843SOL     OW32407   1.628   3.087   1.900
 6843SOL    HW132408   1.558   3.101   1.837
 6843SOL    HW232409   1.647   3.174   1.935
 6844SOL     OW32410   0.974   2.627   3.045
 6844SOL    HW132411   0.971   2.721   3.062
 6844SOL    HW232412   1.062   2.612   3.010
 6845SOL     OW32413   0.163   3.550  17.148
 6845SOL    HW132414   0.224   3.550  17.074
 6845SOL    HW232415   0.177   3.465  17.190
 6846SOL     OW32416   3.615   1.456   0.205
 6846SOL    HW132417   3.599   1.536   0.154
 6846SOL    HW232418   3.558   1.391   0.166
 6847SOL     OW32419   0.122   3.848  19.178
 6847SOL    HW132420   0.078   3.929  19.204
 6847SOL    HW232421   0.197   3.842  19.237
 6848SOL     OW32422   2.050   0.540   2.400
 6848SOL    HW132423   1.954   0.536   2.404
 6848SOL    HW232424   2.070   0.565   2.310
 6849SOL     OW32425   2.706   2.777   4.597
 6849SOL    HW132426   2.731   2.829   4.521
 6849SOL    HW232427   2.613   2.761   4.587
 6850SOL     OW32428   0.467   1.864   4.011
 6850SOL    HW132429   0.465   1.793   3.947
 6850SOL    HW232430   0.548   1.851   4.060
 6851SOL     OW32431   1.129   2.369  19.548
 6851SOL    HW132432   1.221   2.353  19.569
 6851SOL    HW232433   1.108   2.449  19.597
 6852SOL     OW32434   3.265   3.275   5.381
 6852SOL    HW132435   3.355   3.243   5.369
 6852SOL    HW232436   3.219   3.201   5.421
 6853SOL     OW32437   0.121   2.352   5.692
 6853SOL    HW132438   0.152   2.365   5.602
 6853SOL    HW232439   0.064   2.276   5.687
 6854SOL     OW32440   3.228   0.101  15.867
 6854SOL    HW132441   3.179   0.077  15.788
 6854SOL    HW232442   3.310   0.139  15.833
 6855SOL     OW32443   0.593   2.113   2.743
 6855SOL    HW132444   0.539   2.100   2.666
 6855SOL    HW232445   0.548   2.180   2.794
 6856SOL     OW32446   4.177   2.620   4.557
 6856SOL    HW132447   4.156   2.568   4.635
 6856SOL    HW232448   4.134   2.573   4.485
 6857SOL     OW32449   0.060   0.652  15.424
 6857SOL    HW132450   0.093   0.631  15.512
 6857SOL    HW232451   0.091   0.742  15.409
 6858SOL     OW32452   1.375   0.931  15.993
 6858SOL    HW132453   1.433   0.929  16.068
 6858SOL    HW232454   1.350   0.839  15.980
 6859SOL     OW32455   1.777   1.026  18.537
 6859SOL    HW132456   1.712   0.975  18.490
 6859SOL    HW232457   1.767   1.115  18.504
 6860SOL     OW32458   1.765   4.768  14.037
 6860SOL    HW132459   1.677   0.011  14.053
 6860SOL    HW232460   1.800   0.032  13.967
 6861SOL     OW32461   2.474   0.630  20.151
 6861SOL    HW132462   2.561   0.617  20.113
 6861SOL    HW232463   2.440   0.541  20.163
 6862SOL     OW32464   1.696   2.182   4.793
 6862SOL    HW132465   1.661   2.128   4.863
 6862SOL    HW232466   1.729   2.119   4.728
 6863SOL     OW32467   3.756   3.405   3.680
 6863SOL    HW132468   3.710   3.401   3.764
 6863SOL    HW232469   3.806   3.324   3.677
 6864SOL     OW32470   4.688   3.821   5.212
 6864SOL    HW132471   4.635   3.898   5.230
 6864SOL    HW232472   4.655   3.755   5.273
 6865SOL     OW32473   3.837   3.322   8.668
 6865SOL    HW132474   3.888   3.394   8.631
 6865SOL    HW232475   3.748   3.355   8.671
 6866SOL     OW32476   1.903   2.693  17.559
 6866SOL    HW132477   1.820   2.654  17.531
 6866SOL    HW232478   1.892   2.787  17.546
 6867SOL     OW32479   2.461   2.449   2.898
 6867SOL    HW132480   2.544   2.411   2.927
 6867SOL    HW232481   2.408   2.455   2.978
 6868SOL     OW32482   0.966   3.270   4.768
 6868SOL    HW132483   1.054   3.306   4.774
 6868SOL    HW232484   0.969   3.189   4.820
 6869SOL     OW32485   3.360   3.588  12.892
 6869SOL    HW132486   3.267   3.591  12.869
 6869SOL    HW232487   3.403   3.553  12.814
 6870SOL     OW32488   4.760   2.974  18.934
 6870SOL    HW132489   4.709   2.962  19.015
 6870SOL    HW232490   4.694   2.982  18.865
 6871SOL     OW32491   2.598   0.358  18.081
 6871SOL    HW132492   2.567   0.447  18.095
 6871SOL    HW232493   2.563   0.334  17.995
 6872SOL     OW32494   3.844   2.492  17.500
 6872SOL    HW132495   3.870   2.560  17.439
 6872SOL    HW232496   3.918   2.483  17.560
 6873SOL     OW32497   4.117   0.529   0.013
 6873SOL    HW132498   4.154   0.599  21.221
 6873SOL    HW232499   4.092   0.574   0.094
 6874SOL     OW32500   1.412   4.559   3.672
 6874SOL    HW132501   1.399   4.475   3.628
 6874SOL    HW232502   1.409   4.538   3.765
 6875SOL     OW32503   4.265   1.145   4.096
 6875SOL    HW132504   4.252   1.223   4.042
 6875SOL    HW232505   4.283   1.179   4.183
 6876SOL     OW32506   1.797   3.990   2.034
 6876SOL    HW132507   1.838   4.052   2.094
 6876SOL    HW232508   1.793   3.908   2.084
 6877SOL     OW32509   4.206   3.146   6.825
 6877SOL    HW132510   4.123   3.099   6.824
 6877SOL    HW232511   4.272   3.081   6.800
 6878SOL     OW32512   4.709   4.420   5.131
 6878SOL    HW132513   4.667   4.336   5.152
 6878SOL    HW232514   4.644   4.466   5.077
 6879SOL     OW32515   1.662   3.717  16.741
 6879SOL    HW132516   1.683   3.624  16.741
 6879SOL    HW232517   1.746   3.761  16.728
 6880SOL     OW32518   2.045   3.282   0.180
 6880SOL    HW132519   1.964   3.299   0.228
 6880SOL    HW232520   2.033   3.196   0.141
 6881SOL     OW32521   0.743   3.742   6.093
 6881SOL    HW132522   0.653   3.771   6.102
 6881SOL    HW232523   0.753   3.672   6.157
 6882SOL     OW32524   2.489   2.845   0.329
 6882SOL    HW132525   2.582   2.863   0.344
 6882SOL    HW232526   2.469   2.773   0.389
 6883SOL     OW32527   3.791   0.111  17.632
 6883SOL    HW132528   3.851   0.043  17.601
 6883SOL    HW232529   3.726   0.120  17.563
 6884SOL     OW32530   4.567   3.472  18.042
 6884SOL    HW132531   4.572   3.532  18.116
 6884SOL    HW232532   4.539   3.389  18.081
 6885SOL     OW32533   0.366   3.055  15.583
 6885SOL    HW132534   0.287   3.001  15.586
 6885SOL    HW232535   0.438   2.994  15.596
 6886SOL     OW32536   0.800   0.102  18.524
 6886SOL    HW132537   0.771   0.029  18.469
 6886SOL    HW232538   0.841   0.060  18.600
 6887SOL     OW32539   1.949   3.849   6.434
 6887SOL    HW132540   2.027   3.814   6.477
 6887SOL    HW232541   1.876   3.809   6.481
 6888SOL     OW32542   2.451   2.948   6.692
 6888SOL    HW132543   2.453   2.880   6.759
 6888SOL    HW232544   2.521   3.008   6.716
 6889SOL     OW32545   3.708   1.140   5.025
 6889SOL    HW132546   3.644   1.212   5.032
 6889SOL    HW232547   3.700   1.112   4.934
 6890SOL     OW32548   2.801   4.083   6.125
 6890SOL    HW132549   2.775   4.063   6.215
 6890SOL    HW232550   2.890   4.049   6.117
 6891SOL     OW32551   2.152   3.981   6.599
 6891SOL    HW132552   2.230   3.945   6.557
 6891SOL    HW232553   2.123   4.051   6.541
 6892SOL     OW32554   4.162   2.566  19.049
 6892SOL    HW132555   4.127   2.558  18.960
 6892SOL    HW232556   4.110   2.505  19.101
 6893SOL     OW32557   4.686   4.116  15.764
 6893SOL    HW132558   4.707   4.036  15.716
 6893SOL    HW232559   4.590   4.120  15.763
 6894SOL     OW32560   2.177   3.101  14.767
 6894SOL    HW132561   2.141   3.068  14.849
 6894SOL    HW232562   2.270   3.079  14.771
 6895SOL     OW32563   3.512   1.875  15.456
 6895SOL    HW132564   3.535   1.902  15.545
 6895SOL    HW232565   3.468   1.951  15.419
 6896SOL     OW32566   4.231   2.903  18.262
 6896SOL    HW132567   4.286   2.834  18.299
 6896SOL    HW232568   4.230   2.971  18.330
 6897SOL     OW32569   4.247   1.215   2.700
 6897SOL    HW132570   4.328   1.171   2.724
 6897SOL    HW232571   4.264   1.252   2.613
 6898SOL     OW32572   0.570   4.404  13.499
 6898SOL    HW132573   0.492   4.418  13.446
 6898SOL    HW232574   0.641   4.396  13.435
 6899SOL     OW32575   4.476   2.468  19.358
 6899SOL    HW132576   4.475   2.513  19.274
 6899SOL    HW232577   4.451   2.535  19.422
 6900SOL     OW32578   0.262   4.584   2.867
 6900SOL    HW132579   0.191   4.520   2.860
 6900SOL    HW232580   0.265   4.627   2.782
 6901SOL     OW32581   4.657   1.380  17.010
 6901SOL    HW132582   4.651   1.457  17.066
 6901SOL    HW232583   4.574   1.378  16.962
 6902SOL     OW32584   3.549   2.014  19.970
 6902SOL    HW132585   3.624   1.979  20.019
 6902SOL    HW232586   3.490   1.939  19.961
 6903SOL     OW32587   2.522   2.862   0.030
 6903SOL    HW132588   2.588   2.807  21.250
 6903SOL    HW232589   2.518   2.829   0.120
 6904SOL     OW32590   4.366   4.452  14.300
 6904SOL    HW132591   4.295   4.513  14.318
 6904SOL    HW232592   4.324   4.377  14.258
 6905SOL     OW32593   1.841   1.745   3.369
 6905SOL    HW132594   1.849   1.651   3.357
 6905SOL    HW232595   1.810   1.756   3.458
 6906SOL     OW32596   1.792   2.907   2.476
 6906SOL    HW132597   1.850   2.836   2.447
 6906SOL    HW232598   1.729   2.917   2.404
 6907SOL     OW32599   1.009   2.551   4.567
 6907SOL    HW132600   0.940   2.590   4.514
 6907SOL    HW232601   1.056   2.493   4.507
 6908SOL     OW32602   0.029   1.205   5.054
 6908SOL    HW132603   4.740   1.188   5.005
 6908SOL    HW232604   0.002   1.206   5.145
 6909SOL     OW32605   2.262   3.010   8.502
 6909SOL    HW132606   2.285   3.076   8.568
 6909SOL    HW232607   2.304   2.930   8.534
 6910SOL     OW32608   4.036   3.130   6.258
 6910SOL    HW132609   4.040   3.223   6.235
 6910SOL    HW232610   4.065   3.127   6.349
 6911SOL     OW32611   3.330   4.577  17.070
 6911SOL    HW132612   3.244   4.608  17.043
 6911SOL    HW232613   3.388   4.651  17.054
 6912SOL     OW32614   2.758   2.797   0.361
 6912SOL    HW132615   2.818   2.853   0.409
 6912SOL    HW232616   2.770   2.710   0.400
 6913SOL     OW32617   0.640   2.955  19.405
 6913SOL    HW132618   0.692   2.875  19.405
 6913SOL    HW232619   0.551   2.925  19.386
 6914SOL     OW32620   3.615   1.699  12.848
 6914SOL    HW132621   3.579   1.783  12.873
 6914SOL    HW232622   3.674   1.719  12.775
 6915SOL     OW32623   1.067   4.184   2.875
 6915SOL    HW132624   1.134   4.148   2.934
 6915SOL    HW232625   1.029   4.257   2.924
 6916SOL     OW32626   0.973   0.195  11.521
 6916SOL    HW132627   1.039   0.199  11.591
 6916SOL    HW232628   1.023   0.210  11.440
 6917SOL     OW32629   0.812   0.864   4.306
 6917SOL    HW132630   0.730   0.820   4.331
 6917SOL    HW232631   0.840   0.819   4.226
 6918SOL     OW32632   0.181   4.593  14.744
 6918SOL    HW132633   0.087   4.605  14.735
 6918SOL    HW232634   0.198   4.605  14.838
 6919SOL     OW32635   3.118   1.033   5.499
 6919SOL    HW132636   3.047   1.019   5.562
 6919SOL    HW232637   3.074   1.068   5.421
 6920SOL     OW32638   1.313   0.818   2.057
 6920SOL    HW132639   1.383   0.882   2.065
 6920SOL    HW232640   1.357   0.733   2.061
 6921SOL     OW32641   3.186   0.064  18.487
 6921SOL    HW132642   3.159   0.147  18.448
 6921SOL    HW232643   3.133   0.057  18.567
 6922SOL     OW32644   2.902   3.722  17.990
 6922SOL    HW132645   2.821   3.767  17.969
 6922SOL    HW232646   2.948   3.782  18.049
 6923SOL     OW32647   4.174   4.498  19.223
 6923SOL    HW132648   4.095   4.462  19.264
 6923SOL    HW232649   4.174   4.461  19.135
 6924SOL     OW32650   2.087   4.601  15.152
 6924SOL    HW132651   2.149   4.655  15.101
 6924SOL    HW232652   2.065   4.529  15.093
 6925SOL     OW32653   0.827   4.296   4.499
 6925SOL    HW132654   0.782   4.332   4.575
 6925SOL    HW232655   0.838   4.203   4.519
 6926SOL     OW32656   1.163   3.196  15.394
 6926SOL    HW132657   1.184   3.193  15.488
 6926SOL    HW232658   1.163   3.289  15.373
 6927SOL     OW32659   3.791   0.388  20.641
 6927SOL    HW132660   3.814   0.381  20.548
 6927SOL    HW232661   3.700   0.420  20.640
 6928SOL     OW32662   4.187   0.446  19.351
 6928SOL    HW132663   4.154   0.392  19.423
 6928SOL    HW232664   4.120   0.440  19.283
 6929SOL     OW32665   0.156   0.579  20.796
 6929SOL    HW132666   0.134   0.671  20.791
 6929SOL    HW232667   0.169   0.561  20.889
 6930SOL     OW32668   3.021   4.137   3.175
 6930SOL    HW132669   3.058   4.065   3.124
 6930SOL    HW232670   2.957   4.095   3.232
 6931SOL     OW32671   1.325   0.896   4.772
 6931SOL    HW132672   1.312   0.989   4.753
 6931SOL    HW232673   1.237   0.859   4.772
 6932SOL     OW32674   3.175   3.787   1.795
 6932SOL    HW132675   3.086   3.820   1.804
 6932SOL    HW232676   3.165   3.692   1.793
 6933SOL     OW32677   3.597   2.186   4.816
 6933SOL    HW132678   3.539   2.232   4.877
 6933SOL    HW232679   3.551   2.189   4.732
 6934SOL     OW32680   0.495   0.525  18.529
 6934SOL    HW132681   0.522   0.588  18.462
 6934SOL    HW232682   0.501   0.440  18.487
 6935SOL     OW32683   0.697   4.653  18.830
 6935SOL    HW132684   0.707   4.739  18.869
 6935SOL    HW232685   0.737   4.593  18.892
 6936SOL     OW32686   3.414   3.040   2.240
 6936SOL    HW132687   3.496   2.992   2.248
 6936SOL    HW232688   3.392   3.066   2.329
 6937SOL     OW32689   2.170   2.981   6.322
 6937SOL    HW132690   2.152   2.914   6.389
 6937SOL    HW232691   2.200   3.057   6.372
 6938SOL     OW32692   2.460   3.494  21.023
 6938SOL    HW132693   2.456   3.402  21.049
 6938SOL    HW232694   2.390   3.504  20.959
 6939SOL     OW32695   3.461   1.411   2.413
 6939SOL    HW132696   3.481   1.495   2.371
 6939SOL    HW232697   3.477   1.346   2.345
 6940SOL     OW32698   1.524   0.170  17.614
 6940SOL    HW132699   1.432   0.162  17.640
 6940SOL    HW232700   1.521   0.214  17.529
 6941SOL     OW32701   4.283   1.886  20.634
 6941SOL    HW132702   4.203   1.876  20.685
 6941SOL    HW232703   4.253   1.917  20.549
 6942SOL     OW32704   1.914   3.114   3.177
 6942SOL    HW132705   1.917   3.048   3.107
 6942SOL    HW232706   1.864   3.073   3.247
 6943SOL     OW32707   2.463   0.626   2.535
 6943SOL    HW132708   2.521   0.562   2.577
 6943SOL    HW232709   2.375   0.599   2.562
 6944SOL     OW32710   0.436   3.419  14.059
 6944SOL    HW132711   0.493   3.446  14.131
 6944SOL    HW232712   0.448   3.324  14.054
 6945SOL     OW32713   3.172   3.901  15.408
 6945SOL    HW132714   3.202   3.824  15.359
 6945SOL    HW232715   3.201   3.884  15.498
 6946SOL     OW32716   0.251   2.767   2.817
 6946SOL    HW132717   0.231   2.744   2.907
 6946SOL    HW232718   0.168   2.758   2.770
 6947SOL     OW32719   0.876   1.862  20.263
 6947SOL    HW132720   0.929   1.783  20.251
 6947SOL    HW232721   0.894   1.889  20.353
 6948SOL     OW32722   3.616   3.624   4.740
 6948SOL    HW132723   3.605   3.681   4.816
 6948SOL    HW232724   3.705   3.590   4.749
 6949SOL     OW32725   2.957   3.475   4.333
 6949SOL    HW132726   2.874   3.437   4.361
 6949SOL    HW232727   3.001   3.406   4.284
 6950SOL     OW32728   3.662   3.205  17.142
 6950SOL    HW132729   3.639   3.215  17.050
 6950SOL    HW232730   3.605   3.266  17.188
 6951SOL     OW32731   2.847   4.079   3.843
 6951SOL    HW132732   2.793   4.021   3.790
 6951SOL    HW232733   2.937   4.058   3.819
 6952SOL     OW32734   0.850   3.194   6.173
 6952SOL    HW132735   0.767   3.237   6.151
 6952SOL    HW232736   0.912   3.266   6.183
 6953SOL     OW32737   2.691   0.472  16.156
 6953SOL    HW132738   2.721   0.386  16.125
 6953SOL    HW232739   2.657   0.455  16.244
 6954SOL     OW32740   1.240   2.147   1.711
 6954SOL    HW132741   1.160   2.103   1.737
 6954SOL    HW232742   1.257   2.210   1.781
 6955SOL     OW32743   0.292   2.811   3.917
 6955SOL    HW132744   0.348   2.737   3.895
 6955SOL    HW232745   0.338   2.887   3.883
 6956SOL     OW32746   3.590   0.126  19.130
 6956SOL    HW132747   3.569   0.137  19.037
 6956SOL    HW232748   3.672   0.076  19.131
 6957SOL     OW32749   2.275   0.295   2.331
 6957SOL    HW132750   2.195   0.286   2.280
 6957SOL    HW232751   2.247   0.286   2.422
 6958SOL     OW32752   2.812   2.420  17.822
 6958SOL    HW132753   2.767   2.382  17.746
 6958SOL    HW232754   2.884   2.471  17.784
 6959SOL     OW32755   1.356   0.618   3.817
 6959SOL    HW132756   1.317   0.604   3.904
 6959SOL    HW232757   1.449   0.599   3.830
 6960SOL     OW32758   4.101   0.037   1.649
 6960SOL    HW132759   4.118   4.771   1.574
 6960SOL    HW232760   4.005   0.043   1.653
 6961SOL     OW32761   1.395   2.004   0.454
 6961SOL    HW132762   1.401   1.988   0.549
 6961SOL    HW232763   1.481   2.037   0.430
 6962SOL     OW32764   0.609   3.717   4.642
 6962SOL    HW132765   0.684   3.660   4.660
 6962SOL    HW232766   0.598   3.711   4.547
 6963SOL     OW32767   2.458   0.047   1.228
 6963SOL    HW132768   2.426   4.791   1.151
 6963SOL    HW232769   2.391   0.034   1.295
 6964SOL     OW32770   0.380   1.366   1.305
 6964SOL    HW132771   0.297   1.374   1.258
 6964SOL    HW232772   0.413   1.456   1.311
 6965SOL     OW32773   1.456   3.104  17.941
 6965SOL    HW132774   1.407   3.108  18.023
 6965SOL    HW232775   1.535   3.054  17.962
 6966SOL     OW32776   1.586   4.293  15.527
 6966SOL    HW132777   1.580   4.305  15.622
 6966SOL    HW232778   1.680   4.299  15.508
 6967SOL     OW32779   1.103   1.621   2.185
 6967SOL    HW132780   1.106   1.533   2.223
 6967SOL    HW232781   1.039   1.668   2.239
 6968SOL     OW32782   2.807   2.706  18.296
 6968SOL    HW132783   2.725   2.691  18.249
 6968SOL    HW232784   2.788   2.780  18.354
 6969SOL     OW32785   3.228   1.631  17.596
 6969SOL    HW132786   3.135   1.616  17.580
 6969SOL    HW232787   3.231   1.711  17.649
 6970SOL     OW32788   1.432   3.928  21.040
 6970SOL    HW132789   1.447   3.898  21.130
 6970SOL    HW232790   1.489   3.872  20.986
 6971SOL     OW32791   1.684   0.781   4.521
 6971SOL    HW132792   1.665   0.705   4.575
 6971SOL    HW232793   1.728   0.746   4.443
 6972SOL     OW32794   2.084   3.878  21.170
 6972SOL    HW132795   2.129   3.957  21.142
 6972SOL    HW232796   2.145   3.807  21.149
 6973SOL     OW32797   0.202   0.826   0.336
 6973SOL    HW132798   0.289   0.803   0.369
 6973SOL    HW232799   0.216   0.908   0.289
 6974SOL     OW32800   1.981   1.724   1.984
 6974SOL    HW132801   2.001   1.703   1.892
 6974SOL    HW232802   1.955   1.640   2.022
 6975SOL     OW32803   3.294   3.879  16.306
 6975SOL    HW132804   3.302   3.945  16.375
 6975SOL    HW232805   3.219   3.826  16.332
 6976SOL     OW32806   3.701   0.904   3.008
 6976SOL    HW132807   3.755   0.916   3.086
 6976SOL    HW232808   3.703   0.988   2.963
 6977SOL     OW32809   1.694   1.156  19.490
 6977SOL    HW132810   1.783   1.159  19.524
 6977SOL    HW232811   1.695   1.089  19.422
 6978SOL     OW32812   3.298   1.921   6.645
 6978SOL    HW132813   3.252   2.003   6.626
 6978SOL    HW232814   3.351   1.904   6.567
 6979SOL     OW32815   1.896   2.704  20.443
 6979SOL    HW132816   1.822   2.760  20.418
 6979SOL    HW232817   1.857   2.619  20.459
 6980SOL     OW32818   3.134   2.431  13.384
 6980SOL    HW132819   3.186   2.465  13.457
 6980SOL    HW232820   3.049   2.474  13.392
 6981SOL     OW32821   1.438   1.627   3.126
 6981SOL    HW132822   1.406   1.685   3.194
 6981SOL    HW232823   1.370   1.560   3.116
 6982SOL     OW32824   1.431   1.449   0.855
 6982SOL    HW132825   1.448   1.413   0.942
 6982SOL    HW232826   1.514   1.490   0.829
 6983SOL     OW32827   1.607   3.839  19.456
 6983SOL    HW132828   1.553   3.760  19.460
 6983SOL    HW232829   1.671   3.828  19.526
 6984SOL     OW32830   1.498   3.191  15.328
 6984SOL    HW132831   1.408   3.220  15.340
 6984SOL    HW232832   1.502   3.106  15.372
 6985SOL     OW32833   1.328   3.997   2.698
 6985SOL    HW132834   1.234   3.988   2.712
 6985SOL    HW232835   1.363   4.014   2.786
 6986SOL     OW32836   0.137   4.419  21.040
 6986SOL    HW132837   0.179   4.369  20.970
 6986SOL    HW232838   0.184   4.394  21.119
 6987SOL     OW32839   1.916   3.667   5.122
 6987SOL    HW132840   1.978   3.680   5.050
 6987SOL    HW232841   1.958   3.601   5.178
 6988SOL     OW32842   1.945   1.194   4.875
 6988SOL    HW132843   2.000   1.159   4.805
 6988SOL    HW232844   1.857   1.195   4.838
 6989SOL     OW32845   0.476   2.020   7.479
 6989SOL    HW132846   0.466   1.981   7.392
 6989SOL    HW232847   0.483   2.114   7.463
 6990SOL     OW32848   3.979   1.863  18.091
 6990SOL    HW132849   3.970   1.800  18.020
 6990SOL    HW232850   4.058   1.835  18.137
 6991SOL     OW32851   2.759   0.757   0.026
 6991SOL    HW132852   2.817   0.694  21.246
 6991SOL    HW232853   2.752   0.829  21.227
 6992SOL     OW32854   1.909   1.768   3.094
 6992SOL    HW132855   1.900   1.781   3.188
 6992SOL    HW232856   1.955   1.684   3.086
 6993SOL     OW32857   4.773   0.389   8.111
 6993SOL    HW132858   0.068   0.348   8.112
 6993SOL    HW232859   4.780   0.459   8.046
 6994SOL     OW32860   4.163   3.758   2.576
 6994SOL    HW132861   4.175   3.833   2.516
 6994SOL    HW232862   4.203   3.684   2.530
 6995SOL     OW32863   4.395   1.622   6.452
 6995SOL    HW132864   4.489   1.640   6.448
 6995SOL    HW232865   4.389   1.529   6.475
 6996SOL     OW32866   4.231   3.198  15.462
 6996SOL    HW132867   4.320   3.184  15.431
 6996SOL    HW232868   4.213   3.290  15.445
 6997SOL     OW32869   2.111   3.477  20.626
 6997SOL    HW132870   2.047   3.539  20.593
 6997SOL    HW232871   2.079   3.391  20.597
 6998SOL     OW32872   2.004   0.540   4.178
 6998SOL    HW132873   2.016   0.469   4.241
 6998SOL    HW232874   2.091   0.580   4.170
 6999SOL     OW32875   2.552   1.227  18.723
 6999SOL    HW132876   2.588   1.205  18.637
 6999SOL    HW232877   2.458   1.237  18.708
 7000SOL     OW32878   0.153   1.208   3.062
 7000SOL    HW132879   0.181   1.228   3.151
 7000SOL    HW232880   0.186   1.120   3.046
 7001SOL     OW32881   3.461   0.422   2.885
 7001SOL    HW132882   3.471   0.472   2.966
 7001SOL    HW232883   3.541   0.438   2.836
 7002SOL     OW32884   3.240   3.202  17.691
 7002SOL    HW132885   3.239   3.293  17.720
 7002SOL    HW232886   3.332   3.184  17.672
 7003SOL     OW32887   2.336   1.490   8.667
 7003SOL    HW132888   2.401   1.529   8.725
 7003SOL    HW232889   2.338   1.545   8.588
 7004SOL     OW32890   2.037   3.688  17.926
 7004SOL    HW132891   2.047   3.773  17.969
 7004SOL    HW232892   1.949   3.659  17.951
 7005SOL     OW32893   3.180   3.514   5.474
 7005SOL    HW132894   3.097   3.547   5.439
 7005SOL    HW232895   3.191   3.429   5.431
 7006SOL     OW32896   3.931   1.348  17.227
 7006SOL    HW132897   3.891   1.266  17.198
 7006SOL    HW232898   3.955   1.332  17.318
 7007SOL     OW32899   3.858   2.086  19.171
 7007SOL    HW132900   3.845   2.101  19.264
 7007SOL    HW232901   3.817   2.161  19.128
 7008SOL     OW32902   2.337   2.494   0.713
 7008SOL    HW132903   2.335   2.398   0.710
 7008SOL    HW232904   2.334   2.516   0.806
 7009SOL     OW32905   3.461   4.252  15.848
 7009SOL    HW132906   3.531   4.235  15.786
 7009SOL    HW232907   3.505   4.286  15.926
 7010SOL     OW32908   0.056   0.517   3.651
 7010SOL    HW132909   0.139   0.535   3.695
 7010SOL    HW232910   0.053   0.422   3.644
 7011SOL     OW32911   3.373   1.407   1.986
 7011SOL    HW132912   3.317   1.356   2.044
 7011SOL    HW232913   3.455   1.357   1.983
 7012SOL     OW32914   1.316   0.913  19.739
 7012SOL    HW132915   1.380   0.978  19.711
 7012SOL    HW232916   1.368   0.845  19.783
 7013SOL     OW32917   1.710   1.209  20.432
 7013SOL    HW132918   1.765   1.245  20.501
 7013SOL    HW232919   1.644   1.157  20.478
 7014SOL     OW32920   1.839   2.481  19.352
 7014SOL    HW132921   1.766   2.420  19.344
 7014SOL    HW232922   1.836   2.532  19.271
 7015SOL     OW32923   0.784   1.127  18.240
 7015SOL    HW132924   0.843   1.193  18.204
 7015SOL    HW232925   0.707   1.176  18.268
 7016SOL     OW32926   1.871   1.074   2.564
 7016SOL    HW132927   1.881   1.096   2.472
 7016SOL    HW232928   1.886   1.157   2.611
 7017SOL     OW32929   3.897   2.280   1.033
 7017SOL    HW132930   3.829   2.214   1.047
 7017SOL    HW232931   3.979   2.232   1.047
 7018SOL     OW32932   2.585   4.288   0.638
 7018SOL    HW132933   2.627   4.221   0.584
 7018SOL    HW232934   2.534   4.238   0.702
 7019SOL     OW32935   4.254   2.029  16.309
 7019SOL    HW132936   4.213   2.077  16.237
 7019SOL    HW232937   4.219   1.940  16.301
 7020SOL     OW32938   1.464   1.899  17.471
 7020SOL    HW132939   1.378   1.929  17.500
 7020SOL    HW232940   1.510   1.875  17.552
 7021SOL     OW32941   0.550   1.066  17.096
 7021SOL    HW132942   0.496   1.058  17.018
 7021SOL    HW232943   0.575   1.158  17.098
 7022SOL     OW32944   0.621   1.313  20.280
 7022SOL    HW132945   0.614   1.294  20.373
 7022SOL    HW232946   0.714   1.308  20.261
 7023SOL     OW32947   0.338   4.082   5.789
 7023SOL    HW132948   0.375   4.139   5.856
 7023SOL    HW232949   0.400   4.009   5.782
 7024SOL     OW32950   2.512   0.951   5.869
 7024SOL    HW132951   2.544   0.936   5.958
 7024SOL    HW232952   2.521   0.866   5.825
 7025SOL     OW32953   3.527   3.506  15.574
 7025SOL    HW132954   3.544   3.544  15.488
 7025SOL    HW232955   3.614   3.487  15.610
 7026SOL     OW32956   4.395   4.427   2.210
 7026SOL    HW132957   4.303   4.419   2.185
 7026SOL    HW232958   4.398   4.507   2.263
 7027SOL     OW32959   0.545   3.443  20.607
 7027SOL    HW132960   0.585   3.356  20.608
 7027SOL    HW232961   0.498   3.447  20.524
 7028SOL     OW32962   4.265   1.612  14.953
 7028SOL    HW132963   4.251   1.559  15.031
 7028SOL    HW232964   4.285   1.700  14.986
 7029SOL     OW32965   1.710   0.298  19.517
 7029SOL    HW132966   1.752   0.212  19.519
 7029SOL    HW232967   1.782   0.360  19.511
 7030SOL     OW32968   1.854   3.229   3.769
 7030SOL    HW132969   1.917   3.227   3.697
 7030SOL    HW232970   1.792   3.297   3.745
 7031SOL     OW32971   3.615   0.541   0.765
 7031SOL    HW132972   3.545   0.497   0.813
 7031SOL    HW232973   3.573   0.619   0.728
 7032SOL     OW32974   4.121   3.635  19.991
 7032SOL    HW132975   4.189   3.569  20.003
 7032SOL    HW232976   4.154   3.712  20.038
 7033SOL     OW32977   2.602   3.129  18.656
 7033SOL    HW132978   2.528   3.174  18.696
 7033SOL    HW232979   2.663   3.114  18.729
 7034SOL     OW32980   4.653   2.133   0.820
 7034SOL    HW132981   4.593   2.094   0.756
 7034SOL    HW232982   4.708   2.061   0.849
 7035SOL     OW32983   1.896   1.637   1.466
 7035SOL    HW132984   1.982   1.606   1.442
 7035SOL    HW232985   1.870   1.696   1.395
 7036SOL     OW32986   4.278   0.062   4.761
 7036SOL    HW132987   4.244   0.136   4.812
 7036SOL    HW232988   4.219   0.056   4.686
 7037SOL     OW32989   1.684   4.035   7.774
 7037SOL    HW132990   1.666   4.062   7.683
 7037SOL    HW232991   1.748   3.964   7.766
 7038SOL     OW32992   4.683   2.932  15.291
 7038SOL    HW132993   4.705   2.852  15.338
 7038SOL    HW232994   4.765   2.982  15.289
 7039SOL     OW32995   4.275   2.009   6.869
 7039SOL    HW132996   4.189   2.031   6.833
 7039SOL    HW232997   4.303   1.934   6.817
 7040SOL     OW32998   4.539   1.351   2.074
 7040SOL    HW132999   4.518   1.414   2.143
 7040SOL    HW233000   4.527   1.400   1.993
 7041SOL     OW33001   0.383   1.682  17.710
 7041SOL    HW133002   0.416   1.772  17.718
 7041SOL    HW233003   0.458   1.627  17.734
 7042SOL     OW33004   1.735   3.511   0.045
 7042SOL    HW133005   1.783   3.559  21.241
 7042SOL    HW233006   1.714   3.577   0.112
 7043SOL     OW33007   2.969   0.990  17.790
 7043SOL    HW133008   2.953   1.081  17.815
 7043SOL    HW233009   2.942   0.985  17.698
 7044SOL     OW33010   3.133   4.105   4.359
 7044SOL    HW133011   3.061   4.166   4.373
 7044SOL    HW233012   3.098   4.021   4.390
 7045SOL     OW33013   1.183   3.816   4.699
 7045SOL    HW133014   1.200   3.772   4.616
 7045SOL    HW233015   1.205   3.751   4.766
 7046SOL     OW33016   1.974   2.591  21.117
 7046SOL    HW133017   2.015   2.601  21.031
 7046SOL    HW233018   2.038   2.542  21.169
 7047SOL     OW33019   0.646   2.093  14.022
 7047SOL    HW133020   0.624   2.114  14.112
 7047SOL    HW233021   0.738   2.065  14.025
 7048SOL     OW33022   3.244   2.108  18.025
 7048SOL    HW133023   3.301   2.172  18.069
 7048SOL    HW233024   3.162   2.154  18.012
 7049SOL     OW33025   1.502   3.764   6.194
 7049SOL    HW133026   1.583   3.736   6.151
 7049SOL    HW233027   1.516   3.742   6.286
 7050SOL     OW33028   4.135   2.350  20.402
 7050SOL    HW133029   4.040   2.348  20.408
 7050SOL    HW233030   4.153   2.415  20.334
 7051SOL     OW33031   3.951   2.167  18.746
 7051SOL    HW133032   3.918   2.078  18.759
 7051SOL    HW233033   3.905   2.198  18.668
 7052SOL     OW33034   4.523   4.632  21.076
 7052SOL    HW133035   4.521   4.726  21.090
 7052SOL    HW233036   4.435   4.602  21.099
 7053SOL     OW33037   1.592   2.144  19.702
 7053SOL    HW133038   1.505   2.107  19.695
 7053SOL    HW233039   1.646   2.074  19.739
 7054SOL     OW33040   0.024   4.096   0.320
 7054SOL    HW133041   0.055   4.020   0.271
 7054SOL    HW233042   0.014   4.164   0.254
 7055SOL     OW33043   3.112   4.189   5.931
 7055SOL    HW133044   3.160   4.264   5.967
 7055SOL    HW233045   3.100   4.131   6.006
 7056SOL     OW33046   2.451   4.703   3.801
 7056SOL    HW133047   2.455   4.615   3.838
 7056SOL    HW233048   2.444   4.689   3.707
 7057SOL     OW33049   0.521   4.127   4.174
 7057SOL    HW133050   0.464   4.051   4.162
 7057SOL    HW233051   0.564   4.139   4.090
 7058SOL     OW33052   0.426   4.098  20.065
 7058SOL    HW133053   0.497   4.097  20.129
 7058SOL    HW233054   0.425   4.188  20.032
 7059SOL     OW33055   3.852   2.683  17.266
 7059SOL    HW133056   3.783   2.741  17.300
 7059SOL    HW233057   3.906   2.740  17.212
 7060SOL     OW33058   0.341   1.541   2.442
 7060SOL    HW133059   0.360   1.623   2.486
 7060SOL    HW233060   0.411   1.532   2.377
 7061SOL     OW33061   1.389   0.304   1.885
 7061SOL    HW133062   1.301   0.334   1.863
 7061SOL    HW233063   1.383   0.279   1.978
 7062SOL     OW33064   1.365   1.104  15.276
 7062SOL    HW133065   1.391   1.151  15.355
 7062SOL    HW233066   1.340   1.172  15.214
 7063SOL     OW33067   0.359   2.796  17.784
 7063SOL    HW133068   0.293   2.852  17.744
 7063SOL    HW233069   0.405   2.755  17.710
 7064SOL     OW33070   2.146   3.348  19.863
 7064SOL    HW133071   2.110   3.271  19.907
 7064SOL    HW233072   2.079   3.373  19.800
 7065SOL     OW33073   2.709   3.038   1.120
 7065SOL    HW133074   2.746   2.958   1.085
 7065SOL    HW233075   2.772   3.106   1.097
 7066SOL     OW33076   1.908   2.287   6.338
 7066SOL    HW133077   1.982   2.235   6.369
 7066SOL    HW233078   1.930   2.309   6.247
 7067SOL     OW33079   0.446   3.604  19.166
 7067SOL    HW133080   0.373   3.546  19.189
 7067SOL    HW233081   0.417   3.648  19.086
 7068SOL     OW33082   3.896   2.272  17.317
 7068SOL    HW133083   3.871   2.354  17.360
 7068SOL    HW233084   3.850   2.204  17.366
 7069SOL     OW33085   1.534   2.332  18.837
 7069SOL    HW133086   1.496   2.259  18.788
 7069SOL    HW233087   1.460   2.388  18.858
 7070SOL     OW33088   0.107   1.547  20.431
 7070SOL    HW133089   0.201   1.545  20.409
 7070SOL    HW233090   0.065   1.578  20.351
 7071SOL     OW33091   1.856   2.123  15.057
 7071SOL    HW133092   1.937   2.169  15.036
 7071SOL    HW233093   1.847   2.131  15.152
 7072SOL     OW33094   2.477   4.407  18.910
 7072SOL    HW133095   2.536   4.377  18.841
 7072SOL    HW233096   2.523   4.481  18.951
 7073SOL     OW33097   3.959   0.591   1.980
 7073SOL    HW133098   3.971   0.627   1.892
 7073SOL    HW233099   3.936   0.500   1.966
 7074SOL     OW33100   3.431   2.711  20.311
 7074SOL    HW133101   3.353   2.704  20.257
 7074SOL    HW233102   3.399   2.702  20.401
 7075SOL     OW33103   0.527   2.651   3.536
 7075SOL    HW133104   0.488   2.627   3.452
 7075SOL    HW233105   0.565   2.738   3.521
 7076SOL     OW33106   1.522   1.807   2.882
 7076SOL    HW133107   1.469   1.760   2.818
 7076SOL    HW233108   1.513   1.756   2.962
 7077SOL     OW33109   3.495   0.812   3.848
 7077SOL    HW133110   3.494   0.749   3.920
 7077SOL    HW233111   3.512   0.759   3.770
 7078SOL     OW33112   4.567   3.522  20.502
 7078SOL    HW133113   4.628   3.558  20.438
 7078SOL    HW233114   4.480   3.543  20.467
 7079SOL     OW33115   4.714   2.153   4.983
 7079SOL    HW133116   4.658   2.175   5.058
 7079SOL    HW233117   4.669   2.190   4.908
 7080SOL     OW33118   0.063   0.734   2.270
 7080SOL    HW133119   0.008   0.657   2.283
 7080SOL    HW233120   0.060   0.781   2.354
 7081SOL     OW33121   4.299   4.056  14.767
 7081SOL    HW133122   4.354   4.045  14.845
 7081SOL    HW233123   4.255   4.140  14.780
 7082SOL     OW33124   4.454   0.900  14.781
 7082SOL    HW133125   4.415   0.984  14.805
 7082SOL    HW233126   4.387   0.857  14.728
 7083SOL     OW33127   1.078   4.370  18.056
 7083SOL    HW133128   0.984   4.369  18.037
 7083SOL    HW233129   1.106   4.459  18.036
 7084SOL     OW33130   3.760   2.694   0.369
 7084SOL    HW133131   3.680   2.642   0.373
 7084SOL    HW233132   3.824   2.645   0.419
 7085SOL     OW33133   0.086   2.821  20.406
 7085SOL    HW133134   0.110   2.913  20.394
 7085SOL    HW233135   0.044   2.818  20.492
 7086SOL     OW33136   4.162   3.618  16.051
 7086SOL    HW133137   4.169   3.566  16.131
 7086SOL    HW233138   4.232   3.682  16.058
 7087SOL     OW33139   0.610   3.551   2.861
 7087SOL    HW133140   0.577   3.579   2.946
 7087SOL    HW233141   0.635   3.632   2.816
 7088SOL     OW33142   2.530   4.098   2.967
 7088SOL    HW133143   2.622   4.121   2.979
 7088SOL    HW233144   2.512   4.119   2.875
 7089SOL     OW33145   3.672   2.792  19.317
 7089SOL    HW133146   3.587   2.832  19.301
 7089SOL    HW233147   3.723   2.862  19.358
 7090SOL     OW33148   1.418   1.081   6.122
 7090SOL    HW133149   1.379   1.138   6.188
 7090SOL    HW233150   1.468   1.139   6.066
 7091SOL     OW33151   1.821   1.262  15.850
 7091SOL    HW133152   1.791   1.310  15.928
 7091SOL    HW233153   1.904   1.303  15.827
 7092SOL     OW33154   1.492   0.589   2.066
 7092SOL    HW133155   1.568   0.638   2.035
 7092SOL    HW233156   1.525   0.539   2.142
 7093SOL     OW33157   1.118   4.239   3.229
 7093SOL    HW133158   1.138   4.188   3.307
 7093SOL    HW233159   1.152   4.187   3.157
 7094SOL     OW33160   0.075   4.510  16.582
 7094SOL    HW133161   0.156   4.549  16.550
 7094SOL    HW233162   0.071   4.534  16.674
 7095SOL     OW33163   2.285   2.815  18.864
 7095SOL    HW133164   2.348   2.778  18.803
 7095SOL    HW233165   2.335   2.831  18.944
 7096SOL     OW33166   2.415   3.745  16.677
 7096SOL    HW133167   2.396   3.672  16.618
 7096SOL    HW233168   2.492   3.715  16.727
 7097SOL     OW33169   0.230   4.454  19.061
 7097SOL    HW133170   0.211   4.530  19.007
 7097SOL    HW233171   0.238   4.382  18.999
 7098SOL     OW33172   1.132   4.766  20.012
 7098SOL    HW133173   1.122   0.044  19.946
 7098SOL    HW233174   1.059   4.781  20.073
 7099SOL     OW33175   1.010   2.277  21.149
 7099SOL    HW133176   1.087   2.229  21.122
 7099SOL    HW233177   1.042   2.340  21.214
 7100SOL     OW33178   1.032   1.221  20.484
 7100SOL    HW133179   1.038   1.171  20.566
 7100SOL    HW233180   1.122   1.245  20.464
 7101SOL     OW33181   3.525   1.810  13.176
 7101SOL    HW133182   3.597   1.865  13.146
 7101SOL    HW233183   3.459   1.816  13.106
 7102SOL     OW33184   0.227   0.392   5.751
 7102SOL    HW133185   0.225   0.487   5.736
 7102SOL    HW233186   0.135   0.367   5.756
 7103SOL     OW33187   0.146   1.962  21.186
 7103SOL    HW133188   0.176   2.017  21.258
 7103SOL    HW233189   0.191   1.996  21.109
 7104SOL     OW33190   0.672   1.258  20.569
 7104SOL    HW133191   0.630   1.337  20.604
 7104SOL    HW233192   0.728   1.227  20.640
 7105SOL     OW33193   1.424   2.437   5.639
 7105SOL    HW133194   1.406   2.425   5.545
 7105SOL    HW233195   1.349   2.486   5.671
 7106SOL     OW33196   1.031   2.794  13.041
 7106SOL    HW133197   0.960   2.753  12.992
 7106SOL    HW233198   1.104   2.732  13.036
 7107SOL     OW33199   3.969   2.671   6.245
 7107SOL    HW133200   3.959   2.645   6.154
 7107SOL    HW233201   3.922   2.754   6.252
 7108SOL     OW33202   1.354   3.857   0.585
 7108SOL    HW133203   1.431   3.818   0.626
 7108SOL    HW233204   1.368   3.846   0.491
 7109SOL     OW33205   0.913   1.015   3.433
 7109SOL    HW133206   0.857   1.041   3.507
 7109SOL    HW233207   1.002   1.033   3.462
 7110SOL     OW33208   4.174   3.763  12.764
 7110SOL    HW133209   4.125   3.845  12.765
 7110SOL    HW233210   4.126   3.707  12.702
 7111SOL     OW33211   3.232   1.693  17.306
 7111SOL    HW133212   3.306   1.649  17.264
 7111SOL    HW233213   3.271   1.743  17.378
 7112SOL     OW33214   4.245   3.806  15.436
 7112SOL    HW133215   4.337   3.807  15.407
 7112SOL    HW233216   4.205   3.878  15.387
 7113SOL     OW33217   2.787   2.943  19.949
 7113SOL    HW133218   2.715   2.892  19.911
 7113SOL    HW233219   2.797   2.908  20.037
 7114SOL     OW33220   3.760   3.816  21.110
 7114SOL    HW133221   3.786   3.835  21.021
 7114SOL    HW233222   3.807   3.735  21.132
 7115SOL     OW33223   2.771   0.752   8.804
 7115SOL    HW133224   2.759   0.834   8.851
 7115SOL    HW233225   2.835   0.703   8.856
 7116SOL     OW33226   2.023   3.434   1.574
 7116SOL    HW133227   2.097   3.490   1.599
 7116SOL    HW233228   1.950   3.495   1.563
 7117SOL     OW33229   4.116   1.161  20.705
 7117SOL    HW133230   4.030   1.173  20.745
 7117SOL    HW233231   4.167   1.116  20.772
 7118SOL     OW33232   1.479   4.734  16.979
 7118SOL    HW133233   1.449   4.644  16.969
 7118SOL    HW233234   1.574   4.728  16.978
 7119SOL     OW33235   3.586   2.255   6.393
 7119SOL    HW133236   3.652   2.188   6.375
 7119SOL    HW233237   3.631   2.338   6.375
 7120SOL     OW33238   4.722   1.675  19.078
 7120SOL    HW133239   4.698   1.745  19.138
 7120SOL    HW233240   4.749   1.602  19.134
 7121SOL     OW33241   1.949   3.751  19.426
 7121SOL    HW133242   1.902   3.828  19.393
 7121SOL    HW233243   1.935   3.754  19.521
 7122SOL     OW33244   1.147   4.770   1.500
 7122SOL    HW133245   1.169   0.010   1.588
 7122SOL    HW233246   1.121   4.679   1.513
 7123SOL     OW33247   1.245   1.423   1.765
 7123SOL    HW133248   1.266   1.357   1.831
 7123SOL    HW233249   1.233   1.504   1.814
 7124SOL     OW33250   2.292   1.803  20.987
 7124SOL    HW133251   2.288   1.749  21.066
 7124SOL    HW233252   2.204   1.797  20.950
 7125SOL     OW33253   0.128   0.682   1.221
 7125SOL    HW133254   0.197   0.744   1.199
 7125SOL    HW233255   0.046   0.731   1.208
 7126SOL     OW33256   3.550   3.872   3.182
 7126SOL    HW133257   3.566   3.863   3.088
 7126SOL    HW233258   3.547   3.783   3.215
 7127SOL     OW33259   1.162   1.189   4.214
 7127SOL    HW133260   1.169   1.122   4.146
 7127SOL    HW233261   1.249   1.192   4.254
 7128SOL     OW33262   2.888   2.480  15.964
 7128SOL    HW133263   2.872   2.393  16.001
 7128SOL    HW233264   2.983   2.492  15.970
 7129SOL     OW33265   2.894   3.876   2.588
 7129SOL    HW133266   2.894   3.893   2.682
 7129SOL    HW233267   2.976   3.915   2.556
 7130SOL     OW33268   1.899   4.300   5.596
 7130SOL    HW133269   1.866   4.216   5.565
 7130SOL    HW233270   1.853   4.365   5.544
 7131SOL     OW33271   1.014   2.919   2.468
 7131SOL    HW133272   0.935   2.935   2.519
 7131SOL    HW233273   1.082   2.903   2.533
 7132SOL     OW33274   1.854   1.224   0.005
 7132SOL    HW133275   1.790   1.161  21.236
 7132SOL    HW233276   1.845   1.300  21.211
 7133SOL     OW33277   3.419   2.192   5.283
 7133SOL    HW133278   3.487   2.171   5.347
 7133SOL    HW233279   3.396   2.107   5.244
 7134SOL     OW33280   0.232   3.665   0.202
 7134SOL    HW133281   0.288   3.666   0.280
 7134SOL    HW233282   0.229   3.757   0.174
 7135SOL     OW33283   0.399   2.846   2.543
 7135SOL    HW133284   0.344   2.844   2.621
 7135SOL    HW233285   0.392   2.936   2.511
 7136SOL     OW33286   2.858   1.566  16.960
 7136SOL    HW133287   2.916   1.624  16.910
 7136SOL    HW233288   2.778   1.618  16.972
 7137SOL     OW33289   3.511   3.961   4.740
 7137SOL    HW133290   3.606   3.959   4.729
 7137SOL    HW233291   3.487   4.053   4.732
 7138SOL     OW33292   3.556   2.506   0.273
 7138SOL    HW133293   3.553   2.506   0.178
 7138SOL    HW233294   3.522   2.420   0.298
 7139SOL     OW33295   1.579   3.138   5.972
 7139SOL    HW133296   1.576   3.195   5.896
 7139SOL    HW233297   1.573   3.197   6.047
 7140SOL     OW33298   4.041   3.629  15.385
 7140SOL    HW133299   4.096   3.708  15.389
 7140SOL    HW233300   4.102   3.559  15.360
 7141SOL     OW33301   3.029   1.212   3.632
 7141SOL    HW133302   3.095   1.198   3.565
 7141SOL    HW233303   3.066   1.281   3.688
 7142SOL     OW33304   3.119   1.735  20.547
 7142SOL    HW133305   3.162   1.654  20.520
 7142SOL    HW233306   3.183   1.778  20.605
 7143SOL     OW33307   1.854   4.020   3.252
 7143SOL    HW133308   1.920   4.047   3.315
 7143SOL    HW233309   1.784   3.981   3.306
 7144SOL     OW33310   0.567   1.560   2.278
 7144SOL    HW133311   0.578   1.495   2.348
 7144SOL    HW233312   0.626   1.631   2.302
 7145SOL     OW33313   2.945   2.635   4.813
 7145SOL    HW133314   2.955   2.640   4.908
 7145SOL    HW233315   3.032   2.609   4.782
 7146SOL     OW33316   0.518   4.741  13.864
 7146SOL    HW133317   0.472   4.754  13.781
 7146SOL    HW233318   0.586   0.017  13.864
 7147SOL     OW33319   0.729   2.632  20.385
 7147SOL    HW133320   0.665   2.703  20.379
 7147SOL    HW233321   0.814   2.675  20.374
 7148SOL     OW33322   2.100   3.747   5.578
 7148SOL    HW133323   2.037   3.739   5.507
 7148SOL    HW233324   2.185   3.750   5.534
 7149SOL     OW33325   1.583   3.312   2.469
 7149SOL    HW133326   1.620   3.374   2.532
 7149SOL    HW233327   1.623   3.335   2.385
 7150SOL     OW33328   2.528   0.242  14.333
 7150SOL    HW133329   2.554   0.186  14.407
 7150SOL    HW233330   2.472   0.186  14.280
 7151SOL     OW33331   2.926   0.046  19.478
 7151SOL    HW133332   2.932   4.743  19.459
 7151SOL    HW233333   2.994   0.086  19.423
 7152SOL     OW33334   1.075   0.004  13.797
 7152SOL    HW133335   1.045   0.049  13.718
 7152SOL    HW233336   1.162   0.039  13.813
 7153SOL     OW33337   1.666   3.402   2.175
 7153SOL    HW133338   1.754   3.389   2.211
 7153SOL    HW233339   1.680   3.418   2.082
 7154SOL     OW33340   2.010   1.577  20.332
 7154SOL    HW133341   2.079   1.637  20.302
 7154SOL    HW233342   2.051   1.490  20.327
 7155SOL     OW33343   4.227   3.353  18.626
 7155SOL    HW133344   4.313   3.380  18.595
 7155SOL    HW233345   4.168   3.422  18.597
 7156SOL     OW33346   3.724   3.014   6.418
 7156SOL    HW133347   3.749   2.967   6.498
 7156SOL    HW233348   3.768   2.966   6.347
 7157SOL     OW33349   2.528   1.186   5.734
 7157SOL    HW133350   2.547   1.118   5.799
 7157SOL    HW233351   2.485   1.140   5.663
 7158SOL     OW33352   2.272   2.553  15.661
 7158SOL    HW133353   2.195   2.591  15.701
 7158SOL    HW233354   2.341   2.560  15.727
 7159SOL     OW33355   3.781   3.235  19.863
 7159SOL    HW133356   3.713   3.295  19.894
 7159SOL    HW233357   3.734   3.155  19.842
 7160SOL     OW33358   3.797   3.534  19.278
 7160SOL    HW133359   3.763   3.513  19.365
 7160SOL    HW233360   3.719   3.557  19.227
 7161SOL     OW33361   0.578   2.028  15.499
 7161SOL    HW133362   0.542   1.975  15.429
 7161SOL    HW233363   0.613   1.965  15.562
 7162SOL     OW33364   1.005   4.230   2.624
 7162SOL    HW133365   1.050   4.313   2.604
 7162SOL    HW233366   1.026   4.213   2.716
 7163SOL     OW33367   2.779   4.620  19.022
 7163SOL    HW133368   2.835   4.561  18.971
 7163SOL    HW233369   2.760   4.571  19.103
 7164SOL     OW33370   1.109   0.647   4.463
 7164SOL    HW133371   1.148   0.707   4.399
 7164SOL    HW233372   1.045   0.597   4.413
 7165SOL     OW33373   1.805   1.072   7.456
 7165SOL    HW133374   1.813   1.166   7.439
 7165SOL    HW233375   1.721   1.048   7.417
 7166SOL     OW33376   0.440   4.791   1.021
 7166SOL    HW133377   0.468   4.700   1.031
 7166SOL    HW233378   0.353   4.785   0.981
 7167SOL     OW33379   3.444   2.032   3.832
 7167SOL    HW133380   3.478   2.069   3.750
 7167SOL    HW233381   3.380   2.097   3.863
 7168SOL     OW33382   1.015   1.114  17.818
 7168SOL    HW133383   0.993   1.201  17.851
 7168SOL    HW233384   0.938   1.087  17.767
 7169SOL     OW33385   4.681   2.244  18.537
 7169SOL    HW133386   4.698   2.207  18.450
 7169SOL    HW233387   4.622   2.182  18.578
 7170SOL     OW33388   3.980   3.663  16.318
 7170SOL    HW133389   3.908   3.600  16.315
 7170SOL    HW233390   4.059   3.609  16.315
 7171SOL     OW33391   2.987   0.152  16.257
 7171SOL    HW133392   2.956   0.101  16.182
 7171SOL    HW233393   3.077   0.176  16.233
 7172SOL     OW33394   4.086   4.634   1.965
 7172SOL    HW133395   4.120   4.566   2.024
 7172SOL    HW233396   4.137   4.625   1.885
 7173SOL     OW33397   2.444   3.989   2.292
 7173SOL    HW133398   2.490   4.021   2.215
 7173SOL    HW233399   2.503   3.924   2.330
 7174SOL     OW33400   1.944   4.563   3.313
 7174SOL    HW133401   1.954   4.656   3.293
 7174SOL    HW233402   1.851   4.553   3.334
 7175SOL     OW33403   1.079   1.374   2.300
 7175SOL    HW133404   1.010   1.349   2.239
 7175SOL    HW233405   1.033   1.395   2.382
 7176SOL     OW33406   0.172   3.795   2.362
 7176SOL    HW133407   0.232   3.721   2.361
 7176SOL    HW233408   0.181   3.834   2.275
 7177SOL     OW33409   4.153   1.894   6.575
 7177SOL    HW133410   4.081   1.832   6.585
 7177SOL    HW233411   4.221   1.862   6.635
 7178SOL     OW33412   4.359   0.619  18.844
 7178SOL    HW133413   4.416   0.553  18.886
 7178SOL    HW233414   4.271   0.592  18.867
 7179SOL     OW33415   4.245   4.503  21.096
 7179SOL    HW133416   4.190   4.560  21.151
 7179SOL    HW233417   4.213   4.519  21.007
 7180SOL     OW33418   4.395   4.555   3.853
 7180SOL    HW133419   4.311   4.535   3.812
 7180SOL    HW233420   4.459   4.511   3.797
 7181SOL     OW33421   2.983   3.710   0.233
 7181SOL    HW133422   2.900   3.692   0.189
 7181SOL    HW233423   3.032   3.628   0.226
 7182SOL     OW33424   0.925   3.721  12.526
 7182SOL    HW133425   0.920   3.638  12.573
 7182SOL    HW233426   1.012   3.721  12.486
 7183SOL     OW33427   3.464   4.366  16.356
 7183SOL    HW133428   3.454   4.437  16.292
 7183SOL    HW233429   3.506   4.408  16.432
 7184SOL     OW33430   2.579   3.519  18.489
 7184SOL    HW133431   2.619   3.484  18.568
 7184SOL    HW233432   2.519   3.451  18.460
 7185SOL     OW33433   1.642   1.378  17.270
 7185SOL    HW133434   1.624   1.442  17.202
 7185SOL    HW233435   1.622   1.423  17.352
 7186SOL     OW33436   1.972   2.917  16.877
 7186SOL    HW133437   1.954   2.966  16.957
 7186SOL    HW233438   1.891   2.869  16.861
 7187SOL     OW33439   2.388   2.055  15.425
 7187SOL    HW133440   2.395   2.112  15.501
 7187SOL    HW233441   2.319   1.994  15.446
 7188SOL     OW33442   3.881   1.127   8.190
 7188SOL    HW133443   3.791   1.110   8.218
 7188SOL    HW233444   3.934   1.069   8.245
 7189SOL     OW33445   1.124   1.729  17.172
 7189SOL    HW133446   1.197   1.727  17.233
 7189SOL    HW233447   1.144   1.802  17.113
 7190SOL     OW33448   0.889   1.057   5.333
 7190SOL    HW133449   0.798   1.074   5.309
 7190SOL    HW233450   0.934   1.042   5.250
 7191SOL     OW33451   1.997   4.594  17.556
 7191SOL    HW133452   1.936   4.528  17.588
 7191SOL    HW233453   2.057   4.546  17.498
 7192SOL     OW33454   2.679   4.686   2.962
 7192SOL    HW133455   2.607   4.629   2.934
 7192SOL    HW233456   2.636   4.758   3.008
 7193SOL     OW33457   2.725   4.053  20.538
 7193SOL    HW133458   2.722   3.977  20.480
 7193SOL    HW233459   2.755   4.125  20.482
 7194SOL     OW33460   4.338   2.875   6.318
 7194SOL    HW133461   4.359   2.805   6.380
 7194SOL    HW233462   4.342   2.833   6.232
 7195SOL     OW33463   1.865   2.539   2.100
 7195SOL    HW133464   1.785   2.562   2.052
 7195SOL    HW233465   1.875   2.445   2.085
 7196SOL     OW33466   1.724   2.513   8.848
 7196SOL    HW133467   1.779   2.436   8.833
 7196SOL    HW233468   1.763   2.556   8.924
 7197SOL     OW33469   0.326   2.600   3.330
 7197SOL    HW133470   0.357   2.688   3.310
 7197SOL    HW233471   0.239   2.613   3.368
 7198SOL     OW33472   3.305   0.202   6.867
 7198SOL    HW133473   3.216   0.194   6.833
 7198SOL    HW233474   3.309   0.291   6.904
 7199SOL     OW33475   3.903   0.963   5.350
 7199SOL    HW133476   3.879   1.049   5.318
 7199SOL    HW233477   3.822   0.929   5.389
 7200SOL     OW33478   4.252   0.327  18.426
 7200SOL    HW133479   4.189   0.397  18.407
 7200SOL    HW233480   4.198   0.251  18.446
 7201SOL     OW33481   4.072   0.593  18.859
 7201SOL    HW133482   4.040   0.582  18.770
 7201SOL    HW233483   4.018   0.534  18.911
 7202SOL     OW33484   1.635   2.735   1.166
 7202SOL    HW133485   1.677   2.649   1.156
 7202SOL    HW233486   1.661   2.765   1.253
 7203SOL     OW33487   2.176   4.026   0.717
 7203SOL    HW133488   2.098   3.975   0.739
 7203SOL    HW233489   2.242   3.961   0.695
 7204SOL     OW33490   1.328   2.516  18.803
 7204SOL    HW133491   1.306   2.554  18.719
 7204SOL    HW233492   1.293   2.578  18.868
 7205SOL     OW33493   4.380   3.412  16.438
 7205SOL    HW133494   4.405   3.494  16.481
 7205SOL    HW233495   4.461   3.381  16.396
 7206SOL     OW33496   2.913   0.550   1.398
 7206SOL    HW133497   2.917   0.477   1.337
 7206SOL    HW233498   3.003   0.564   1.426
 7207SOL     OW33499   2.877   0.530  19.805
 7207SOL    HW133500   2.962   0.495  19.833
 7207SOL    HW233501   2.899   0.610  19.757
 7208SOL     OW33502   0.791   1.131   4.294
 7208SOL    HW133503   0.796   1.038   4.274
 7208SOL    HW233504   0.698   1.147   4.311
 7209SOL     OW33505   2.514   3.666  11.422
 7209SOL    HW133506   2.519   3.572  11.407
 7209SOL    HW233507   2.586   3.685  11.482
 7210SOL     OW33508   0.342   3.528  13.803
 7210SOL    HW133509   0.364   3.516  13.896
 7210SOL    HW233510   0.279   3.600  13.803
 7211SOL     OW33511   1.499   1.120  19.691
 7211SOL    HW133512   1.546   1.132  19.608
 7211SOL    HW233513   1.417   1.169  19.680
 7212SOL     OW33514   0.392   3.022   0.590
 7212SOL    HW133515   0.442   2.947   0.557
 7212SOL    HW233516   0.316   2.984   0.632
 7213SOL     OW33517   3.053   0.113  16.747
 7213SOL    HW133518   3.058   0.061  16.666
 7213SOL    HW233519   3.101   0.193  16.728
 7214SOL     OW33520   4.566   1.268  18.712
 7214SOL    HW133521   4.519   1.185  18.700
 7214SOL    HW233522   4.518   1.313  18.781
 7215SOL     OW33523   3.201   3.783   0.561
 7215SOL    HW133524   3.193   3.862   0.614
 7215SOL    HW233525   3.173   3.810   0.474
 7216SOL     OW33526   1.991   1.472  14.027
 7216SOL    HW133527   1.953   1.385  14.014
 7216SOL    HW233528   1.915   1.530  14.032
 7217SOL     OW33529   2.994   1.864   4.121
 7217SOL    HW133530   2.902   1.853   4.145
 7217SOL    HW233531   3.039   1.873   4.205
 7218SOL     OW33532   1.545   1.427  18.263
 7218SOL    HW133533   1.512   1.394  18.346
 7218SOL    HW233534   1.573   1.517  18.282
 7219SOL     OW33535   0.630   4.673   2.127
 7219SOL    HW133536   0.711   4.723   2.131
 7219SOL    HW233537   0.644   4.610   2.056
 7220SOL     OW33538   4.182   2.021   2.071
 7220SOL    HW133539   4.198   2.102   2.022
 7220SOL    HW233540   4.099   1.988   2.036
 7221SOL     OW33541   0.447   3.659   0.393
 7221SOL    HW133542   0.409   3.658   0.480
 7221SOL    HW233543   0.475   3.569   0.377
 7222SOL     OW33544   0.706   4.281  18.070
 7222SOL    HW133545   0.718   4.270  18.165
 7222SOL    HW233546   0.612   4.275  18.057
 7223SOL     OW33547   0.014   2.569   0.578
 7223SOL    HW133548   0.037   2.617   0.658
 7223SOL    HW233549   4.774   2.636   0.518
 7224SOL     OW33550   4.189   4.547   2.768
 7224SOL    HW133551   4.258   4.610   2.749
 7224SOL    HW233552   4.208   4.472   2.712
 7225SOL     OW33553   2.147   0.814  12.349
 7225SOL    HW133554   2.208   0.838  12.279
 7225SOL    HW233555   2.125   0.897  12.391
 7226SOL     OW33556   1.458   1.421   4.603
 7226SOL    HW133557   1.522   1.390   4.540
 7226SOL    HW233558   1.394   1.470   4.551
 7227SOL     OW33559   1.449   3.840  16.622
 7227SOL    HW133560   1.375   3.786  16.594
 7227SOL    HW233561   1.520   3.778  16.637
 7228SOL     OW33562   0.371   4.737  13.621
 7228SOL    HW133563   0.283   4.753  13.656
 7228SOL    HW233564   0.364   4.760  13.528
 7229SOL     OW33565   1.066   3.093  11.457
 7229SOL    HW133566   1.154   3.118  11.488
 7229SOL    HW233567   1.052   3.005  11.493
 7230SOL     OW33568   0.038   0.469   2.580
 7230SOL    HW133569   0.069   0.437   2.495
 7230SOL    HW233570   0.051   0.564   2.576
 7231SOL     OW33571   1.082   0.379  20.421
 7231SOL    HW133572   1.151   0.421  20.369
 7231SOL    HW233573   1.000   0.417  20.388
 7232SOL     OW33574   4.037   4.363   1.161
 7232SOL    HW133575   3.959   4.388   1.112
 7232SOL    HW233576   4.034   4.267   1.165
 7233SOL     OW33577   2.951   2.323  17.363
 7233SOL    HW133578   2.871   2.283  17.397
 7233SOL    HW233579   2.922   2.371  17.285
 7234SOL     OW33580   4.575   4.451   0.068
 7234SOL    HW133581   4.591   4.488  21.245
 7234SOL    HW233582   4.662   4.427   0.101
 7235SOL     OW33583   0.372   4.325  17.167
 7235SOL    HW133584   0.331   4.305  17.083
 7235SOL    HW233585   0.299   4.345  17.226
 7236SOL     OW33586   1.668   3.647   0.256
 7236SOL    HW133587   1.593   3.684   0.302
 7236SOL    HW233588   1.744   3.677   0.306
 7237SOL     OW33589   0.330   0.127  17.189
 7237SOL    HW133590   0.400   0.192  17.185
 7237SOL    HW233591   0.249   0.178  17.182
 7238SOL     OW33592   2.138   3.347  16.783
 7238SOL    HW133593   2.067   3.305  16.831
 7238SOL    HW233594   2.103   3.432  16.757
 7239SOL     OW33595   3.736   1.788  15.266
 7239SOL    HW133596   3.744   1.883  15.272
 7239SOL    HW233597   3.659   1.767  15.318
 7240SOL     OW33598   1.380   0.194   4.740
 7240SOL    HW133599   1.373   0.105   4.775
 7240SOL    HW233600   1.419   0.245   4.811
 7241SOL     OW33601   0.048   3.675  16.148
 7241SOL    HW133602   0.107   3.704  16.078
 7241SOL    HW233603   0.095   3.695  16.229
 7242SOL     OW33604   4.530   0.438  21.125
 7242SOL    HW133605   4.573   0.411  21.043
 7242SOL    HW233606   4.600   0.431  21.190
 7243SOL     OW33607   0.144   2.900   5.632
 7243SOL    HW133608   0.203   2.967   5.667
 7243SOL    HW233609   0.098   2.944   5.561
 7244SOL     OW33610   0.286   4.464  17.817
 7244SOL    HW133611   0.275   4.371  17.798
 7244SOL    HW233612   0.204   4.490  17.859
 7245SOL     OW33613   4.410   2.477   2.447
 7245SOL    HW133614   4.473   2.475   2.375
 7245SOL    HW233615   4.389   2.385   2.464
 7246SOL     OW33616   2.991   2.320   1.342
 7246SOL    HW133617   3.051   2.273   1.284
 7246SOL    HW233618   3.047   2.358   1.409
 7247SOL     OW33619   2.735   0.948  19.135
 7247SOL    HW133620   2.775   0.928  19.220
 7247SOL    HW233621   2.765   0.877  19.078
 7248SOL     OW33622   3.508   3.777  15.782
 7248SOL    HW133623   3.569   3.796  15.853
 7248SOL    HW233624   3.471   3.691  15.804
 7249SOL     OW33625   2.247   0.400  15.227
 7249SOL    HW133626   2.339   0.392  15.202
 7249SOL    HW233627   2.211   0.312  15.211
 7250SOL     OW33628   2.925   3.696  17.363
 7250SOL    HW133629   2.865   3.766  17.391
 7250SOL    HW233630   2.924   3.702  17.267
 7251SOL     OW33631   1.798   4.527   5.717
 7251SOL    HW133632   1.850   4.449   5.698
 7251SOL    HW233633   1.713   4.492   5.745
 7252SOL     OW33634   2.877   1.613   8.159
 7252SOL    HW133635   2.923   1.616   8.075
 7252SOL    HW233636   2.885   1.522   8.188
 7253SOL     OW33637   4.344   3.570  18.890
 7253SOL    HW133638   4.382   3.499  18.940
 7253SOL    HW233639   4.249   3.554  18.893
 7254SOL     OW33640   2.205   2.931   5.641
 7254SOL    HW133641   2.177   2.840   5.650
 7254SOL    HW233642   2.174   2.957   5.554
 7255SOL     OW33643   3.780   3.281   4.673
 7255SOL    HW133644   3.689   3.260   4.651
 7255SOL    HW233645   3.804   3.351   4.612
 7256SOL     OW33646   0.392   2.598  16.464
 7256SOL    HW133647   0.395   2.520  16.410
 7256SOL    HW233648   0.468   2.592  16.521
 7257SOL     OW33649   3.313   1.837   1.403
 7257SOL    HW133650   3.235   1.844   1.347
 7257SOL    HW233651   3.386   1.839   1.342
 7258SOL     OW33652   4.343   1.346   1.051
 7258SOL    HW133653   4.426   1.362   1.005
 7258SOL    HW233654   4.292   1.426   1.036
 7259SOL     OW33655   0.753   0.420  17.162
 7259SOL    HW133656   0.747   0.514  17.144
 7259SOL    HW233657   0.794   0.414  17.248
 7260SOL     OW33658   3.012   3.941   5.396
 7260SOL    HW133659   3.090   3.992   5.417
 7260SOL    HW233660   2.999   3.953   5.302
 7261SOL     OW33661   4.788   1.953  20.455
 7261SOL    HW133662   0.063   1.959  20.387
 7261SOL    HW233663   0.047   1.932  20.535
 7262SOL     OW33664   1.148   2.685  18.952
 7262SOL    HW133665   1.195   2.672  19.035
 7262SOL    HW233666   1.057   2.697  18.978
 7263SOL     OW33667   3.854   2.255   6.934
 7263SOL    HW133668   3.765   2.289   6.943
 7263SOL    HW233669   3.891   2.303   6.859
 7264SOL     OW33670   0.793   3.958   1.049
 7264SOL    HW133671   0.720   3.943   0.988
 7264SOL    HW233672   0.784   3.888   1.115
 7265SOL     OW33673   4.444   4.584   0.282
 7265SOL    HW133674   4.459   4.536   0.201
 7265SOL    HW233675   4.509   4.654   0.282
 7266SOL     OW33676   1.772   0.660   9.271
 7266SOL    HW133677   1.857   0.678   9.232
 7266SOL    HW233678   1.749   0.572   9.240
 7267SOL     OW33679   0.054   2.637  15.945
 7267SOL    HW133680   4.771   2.586  15.912
 7267SOL    HW233681   0.019   2.726  15.956
 7268SOL     OW33682   3.436   4.692   1.985
 7268SOL    HW133683   3.466   4.656   1.902
 7268SOL    HW233684   3.427   4.786   1.969
 7269SOL     OW33685   4.319   1.942  20.163
 7269SOL    HW133686   4.243   1.884  20.159
 7269SOL    HW233687   4.384   1.893  20.213
 7270SOL     OW33688   2.270   2.382  14.480
 7270SOL    HW133689   2.223   2.462  14.457
 7270SOL    HW233690   2.336   2.411  14.544
 7271SOL     OW33691   1.107   2.936   1.009
 7271SOL    HW133692   1.077   2.886   1.084
 7271SOL    HW233693   1.175   2.994   1.044
 7272SOL     OW33694   3.686   0.238  19.361
 7272SOL    HW133695   3.712   0.328  19.340
 7272SOL    HW233696   3.650   0.204  19.279
 7273SOL     OW33697   0.240   0.637   1.473
 7273SOL    HW133698   0.310   0.701   1.467
 7273SOL    HW233699   0.193   0.645   1.390
 7274SOL     OW33700   2.698   4.775  18.797
 7274SOL    HW133701   2.674   4.722  18.721
 7274SOL    HW233702   2.706   4.712  18.869
 7275SOL     OW33703   3.387   2.423  15.786
 7275SOL    HW133704   3.368   2.362  15.714
 7275SOL    HW233705   3.346   2.383  15.862
 7276SOL     OW33706   2.316   3.193  19.293
 7276SOL    HW133707   2.281   3.198  19.382
 7276SOL    HW233708   2.316   3.099  19.272
 7277SOL     OW33709   0.188   4.468  17.381
 7277SOL    HW133710   0.186   4.531  17.308
 7277SOL    HW233711   0.103   4.477  17.423
 7278SOL     OW33712   2.867   3.894  19.821
 7278SOL    HW133713   2.951   3.874  19.861
 7278SOL    HW233714   2.834   3.969  19.869
 7279SOL     OW33715   2.971   1.603  14.150
 7279SOL    HW133716   2.981   1.687  14.104
 7279SOL    HW233717   2.916   1.623  14.226
 7280SOL     OW33718   3.615   4.404   5.495
 7280SOL    HW133719   3.597   4.432   5.585
 7280SOL    HW233720   3.542   4.346   5.473
 7281SOL     OW33721   1.460   0.138  16.424
 7281SOL    HW133722   1.409   0.209  16.464
 7281SOL    HW233723   1.472   0.075  16.495
 7282SOL     OW33724   2.088   4.600   3.530
 7282SOL    HW133725   2.013   4.590   3.472
 7282SOL    HW233726   2.107   4.511   3.561
 7283SOL     OW33727   4.055   1.848   0.988
 7283SOL    HW133728   3.976   1.842   1.041
 7283SOL    HW233729   4.099   1.926   1.020
 7284SOL     OW33730   3.508   0.219   5.859
 7284SOL    HW133731   3.584   0.276   5.869
 7284SOL    HW233732   3.447   0.269   5.804
 7285SOL     OW33733   2.484   2.124   0.232
 7285SOL    HW133734   2.498   2.216   0.254
 7285SOL    HW233735   2.400   2.102   0.274
 7286SOL     OW33736   1.112   1.126  17.223
 7286SOL    HW133737   1.075   1.190  17.163
 7286SOL    HW233738   1.131   1.050  17.169
 7287SOL     OW33739   2.406   0.910   0.963
 7287SOL    HW133740   2.430   1.001   0.983
 7287SOL    HW233741   2.323   0.897   1.009
 7288SOL     OW33742   1.391   4.779   0.775
 7288SOL    HW133743   1.485   4.777   0.757
 7288SOL    HW233744   1.382   0.045   0.851
 7289SOL     OW33745   0.319   4.633  19.677
 7289SOL    HW133746   0.378   4.707  19.662
 7289SOL    HW233747   0.313   4.627  19.773
 7290SOL     OW33748   4.739   3.536  12.836
 7290SOL    HW133749   4.645   3.532  12.854
 7290SOL    HW233750   4.780   3.524  12.921
 7291SOL     OW33751   2.844   0.449   2.592
 7291SOL    HW133752   2.765   0.486   2.632
 7291SOL    HW233753   2.834   0.354   2.603
 7292SOL     OW33754   4.096   2.396  18.102
 7292SOL    HW133755   4.015   2.355  18.071
 7292SOL    HW233756   4.080   2.490  18.095
 7293SOL     OW33757   4.508   0.010  17.278
 7293SOL    HW133758   4.448   4.753  17.221
 7293SOL    HW233759   4.451   0.061  17.336
 7294SOL     OW33760   2.744   1.616   5.694
 7294SOL    HW133761   2.769   1.569   5.615
 7294SOL    HW233762   2.681   1.558   5.738
 7295SOL     OW33763   0.875   2.143  15.728
 7295SOL    HW133764   0.814   2.113  15.795
 7295SOL    HW233765   0.934   2.204  15.774
 7296SOL     OW33766   1.395   4.756  15.800
 7296SOL    HW133767   1.352   4.767  15.715
 7296SOL    HW233768   1.449   4.678  15.789
 7297SOL     OW33769   2.908   1.428  15.387
 7297SOL    HW133770   2.996   1.432  15.349
 7297SOL    HW233771   2.864   1.359  15.338
 7298SOL     OW33772   4.400   3.490   5.255
 7298SOL    HW133773   4.371   3.443   5.176
 7298SOL    HW233774   4.319   3.517   5.298
 7299SOL     OW33775   3.894   4.736   5.540
 7299SOL    HW133776   3.929   4.681   5.609
 7299SOL    HW233777   3.969   4.758   5.486
 7300SOL     OW33778   0.614   4.610  14.382
 7300SOL    HW133779   0.535   4.555  14.390
 7300SOL    HW233780   0.664   4.569  14.312
 7301SOL     OW33781   4.139   1.577   2.425
 7301SOL    HW133782   4.188   1.589   2.506
 7301SOL    HW233783   4.131   1.666   2.389
 7302SOL     OW33784   2.661   0.004   1.939
 7302SOL    HW133785   2.721   0.048   1.879
 7302SOL    HW233786   2.715   4.776   2.017
 7303SOL     OW33787   3.967   0.372  17.036
 7303SOL    HW133788   3.983   0.305  16.969
 7303SOL    HW233789   3.990   0.454  16.993
 7304SOL     OW33790   4.592   2.727  15.736
 7304SOL    HW133791   4.631   2.774  15.810
 7304SOL    HW233792   4.501   2.713  15.763
 7305SOL     OW33793   0.839   4.708   4.754
 7305SOL    HW133794   0.840   0.002   4.798
 7305SOL    HW233795   0.908   4.715   4.687
 7306SOL     OW33796   4.007   3.241  18.780
 7306SOL    HW133797   4.077   3.257  18.718
 7306SOL    HW233798   3.986   3.148  18.771
 7307SOL     OW33799   0.037   2.593  15.328
 7307SOL    HW133800   4.760   2.581  15.261
 7307SOL    HW233801   0.115   2.553  15.289
 7308SOL     OW33802   4.259   2.128   4.850
 7308SOL    HW133803   4.246   2.152   4.759
 7308SOL    HW233804   4.322   2.056   4.848
 7309SOL     OW33805   3.601   3.986  17.377
 7309SOL    HW133806   3.563   4.007  17.292
 7309SOL    HW233807   3.619   4.071  17.417
 7310SOL     OW33808   3.663   0.837  19.562
 7310SOL    HW133809   3.647   0.762  19.618
 7310SOL    HW233810   3.711   0.899  19.617
 7311SOL     OW33811   1.144   0.280  18.727
 7311SOL    HW133812   1.063   0.237  18.752
 7311SOL    HW233813   1.173   0.325  18.807
 7312SOL     OW33814   0.299   3.763   3.782
 7312SOL    HW133815   0.302   3.674   3.818
 7312SOL    HW233816   0.247   3.812   3.846
 7313SOL     OW33817   1.033   0.606  17.628
 7313SOL    HW133818   1.056   0.675  17.691
 7313SOL    HW233819   0.960   0.643  17.578
 7314SOL     OW33820   0.557   3.315   3.467
 7314SOL    HW133821   0.573   3.308   3.561
 7314SOL    HW233822   0.555   3.409   3.450
 7315SOL     OW33823   0.714   0.414   0.079
 7315SOL    HW133824   0.784   0.358   0.112
 7315SOL    HW233825   0.673   0.451   0.157
 7316SOL     OW33826   0.888   4.147  20.780
 7316SOL    HW133827   0.827   4.115  20.846
 7316SOL    HW233828   0.861   4.238  20.765
 7317SOL     OW33829   0.473   1.511  15.392
 7317SOL    HW133830   0.483   1.551  15.306
 7317SOL    HW233831   0.560   1.519  15.432
 7318SOL     OW33832   3.195   1.017  20.342
 7318SOL    HW133833   3.195   1.109  20.317
 7318SOL    HW233834   3.170   0.971  20.262
 7319SOL     OW33835   3.583   2.715  14.316
 7319SOL    HW133836   3.603   2.808  14.303
 7319SOL    HW233837   3.550   2.686  14.231
 7320SOL     OW33838   2.498   3.325   6.514
 7320SOL    HW133839   2.489   3.360   6.426
 7320SOL    HW233840   2.579   3.274   6.512
 7321SOL     OW33841   0.139   3.119   7.974
 7321SOL    HW133842   0.185   3.150   7.897
 7321SOL    HW233843   0.208   3.095   8.036
 7322SOL     OW33844   1.434   0.394  15.892
 7322SOL    HW133845   1.343   0.365  15.882
 7322SOL    HW233846   1.476   0.371  15.810
 7323SOL     OW33847   4.238   1.421  20.707
 7323SOL    HW133848   4.193   1.338  20.691
 7323SOL    HW233849   4.186   1.486  20.660
 7324SOL     OW33850   4.299   3.091   5.154
 7324SOL    HW133851   4.240   3.165   5.166
 7324SOL    HW233852   4.361   3.097   5.227
 7325SOL     OW33853   3.908   4.214   2.979
 7325SOL    HW133854   3.994   4.255   2.975
 7325SOL    HW233855   3.865   4.255   3.054
 7326SOL     OW33856   1.596   4.306  20.652
 7326SOL    HW133857   1.527   4.241  20.658
 7326SOL    HW233858   1.661   4.278  20.716
 7327SOL     OW33859   2.480   2.488  19.732
 7327SOL    HW133860   2.517   2.410  19.773
 7327SOL    HW233861   2.391   2.462  19.708
 7328SOL     OW33862   3.661   0.991  20.639
 7328SOL    HW133863   3.633   1.048  20.568
 7328SOL    HW233864   3.591   0.927  20.648
 7329SOL     OW33865   4.567   3.560  14.383
 7329SOL    HW133866   4.485   3.537  14.341
 7329SOL    HW233867   4.546   3.566  14.476
 7330SOL     OW33868   2.410   3.811  19.638
 7330SOL    HW133869   2.351   3.818  19.713
 7330SOL    HW233870   2.369   3.747  19.580
 7331SOL     OW33871   1.084   3.235  16.186
 7331SOL    HW133872   1.096   3.162  16.247
 7331SOL    HW233873   1.033   3.198  16.114
 7332SOL     OW33874   0.462   4.536   4.191
 7332SOL    HW133875   0.475   4.519   4.285
 7332SOL    HW233876   0.550   4.548   4.156
 7333SOL     OW33877   4.287   3.455  15.328
 7333SOL    HW133878   4.301   3.381  15.269
 7333SOL    HW233879   4.374   3.490  15.344
 7334SOL     OW33880   4.511   4.004  18.217
 7334SOL    HW133881   4.603   3.978  18.225
 7334SOL    HW233882   4.465   3.922  18.199
 7335SOL     OW33883   0.794   3.872   3.014
 7335SOL    HW133884   0.869   3.815   2.994
 7335SOL    HW233885   0.746   3.825   3.082
 7336SOL     OW33886   0.460   2.292   2.449
 7336SOL    HW133887   0.483   2.356   2.516
 7336SOL    HW233888   0.505   2.212   2.475
 7337SOL     OW33889   1.785   1.853   3.602
 7337SOL    HW133890   1.797   1.944   3.631
 7337SOL    HW233891   1.719   1.818   3.661
 7338SOL     OW33892   1.417   2.626  17.392
 7338SOL    HW133893   1.508   2.613  17.421
 7338SOL    HW233894   1.418   2.603  17.299
 7339SOL     OW33895   3.148   3.840  14.991
 7339SOL    HW133896   3.054   3.840  14.977
 7339SOL    HW233897   3.170   3.932  15.007
 7340SOL     OW33898   3.350   2.137  20.124
 7340SOL    HW133899   3.420   2.107  20.067
 7340SOL    HW233900   3.287   2.179  20.065
 7341SOL     OW33901   4.161   0.777   3.153
 7341SOL    HW133902   4.162   0.860   3.106
 7341SOL    HW233903   4.106   0.720   3.099
 7342SOL     OW33904   1.117   0.342  17.493
 7342SOL    HW133905   1.132   0.408  17.561
 7342SOL    HW233906   1.173   0.268  17.519
 7343SOL     OW33907   2.698   4.487   3.731
 7343SOL    HW133908   2.662   4.444   3.654
 7343SOL    HW233909   2.694   4.580   3.711
 7344SOL     OW33910   1.596   2.315  14.149
 7344SOL    HW133911   1.662   2.384  14.159
 7344SOL    HW233912   1.522   2.345  14.202
 7345SOL     OW33913   1.651   3.258  15.053
 7345SOL    HW133914   1.571   3.264  15.000
 7345SOL    HW233915   1.642   3.174  15.099
 7346SOL     OW33916   3.477   3.176   5.682
 7346SOL    HW133917   3.384   3.160   5.672
 7346SOL    HW233918   3.482   3.255   5.737
 7347SOL     OW33919   0.088   1.564   7.406
 7347SOL    HW133920   0.000   1.551   7.443
 7347SOL    HW233921   0.147   1.556   7.480
 7348SOL     OW33922   0.462   2.063   0.647
 7348SOL    HW133923   0.426   1.978   0.621
 7348SOL    HW233924   0.399   2.096   0.712
 7349SOL     OW33925   2.446   3.095   4.531
 7349SOL    HW133926   2.367   3.115   4.580
 7349SOL    HW233927   2.517   3.113   4.592
 7350SOL     OW33928   0.348   4.031  12.614
 7350SOL    HW133929   0.366   4.018  12.707
 7350SOL    HW233930   0.355   3.943  12.576
 7351SOL     OW33931   0.467   3.056  13.719
 7351SOL    HW133932   0.404   3.053  13.647
 7351SOL    HW233933   0.422   3.104  13.788
 7352SOL     OW33934   3.252   3.978  18.419
 7352SOL    HW133935   3.278   3.920  18.491
 7352SOL    HW233936   3.287   4.064  18.444
 7353SOL     OW33937   1.585   2.009  15.698
 7353SOL    HW133938   1.527   1.935  15.714
 7353SOL    HW233939   1.666   1.986  15.744
 7354SOL     OW33940   4.493   1.705   0.038
 7354SOL    HW133941   4.553   1.714  21.227
 7354SOL    HW233942   4.423   1.649   0.005
 7355SOL     OW33943   1.765   4.576   6.783
 7355SOL    HW133944   1.704   4.627   6.730
 7355SOL    HW233945   1.711   4.535   6.850
 7356SOL     OW33946   3.992   0.473  19.165
 7356SOL    HW133947   3.969   0.443  19.078
 7356SOL    HW233948   3.908   0.481  19.211
 7357SOL     OW33949   0.484   1.200  20.074
 7357SOL    HW133950   0.439   1.122  20.106
 7357SOL    HW233951   0.512   1.246  20.154
 7358SOL     OW33952   2.361   0.735  17.507
 7358SOL    HW133953   2.319   0.779  17.581
 7358SOL    HW233954   2.417   0.668  17.547
 7359SOL     OW33955   0.465   1.642  18.796
 7359SOL    HW133956   0.521   1.584  18.847
 7359SOL    HW233957   0.471   1.727  18.840
 7360SOL     OW33958   2.305   4.155   2.442
 7360SOL    HW133959   2.222   4.114   2.467
 7360SOL    HW233960   2.336   4.102   2.368
 7361SOL     OW33961   0.101   0.519   3.280
 7361SOL    HW133962   0.160   0.505   3.353
 7361SOL    HW233963   0.013   0.520   3.319
 7362SOL     OW33964   2.563   4.071   4.979
 7362SOL    HW133965   2.523   4.089   4.894
 7362SOL    HW233966   2.594   4.156   5.010
 7363SOL     OW33967   4.366   2.402   0.217
 7363SOL    HW133968   4.333   2.403   0.306
 7363SOL    HW233969   4.395   2.311   0.203
 7364SOL     OW33970   0.059   1.313   7.621
 7364SOL    HW133971   0.088   1.343   7.707
 7364SOL    HW233972   0.021   1.391   7.580
 7365SOL     OW33973   4.572   2.605  17.511
 7365SOL    HW133974   4.482   2.629  17.535
 7365SOL    HW233975   4.568   2.590  17.416
 7366SOL     OW33976   4.359   1.428  20.948
 7366SOL    HW133977   4.327   1.444  20.859
 7366SOL    HW233978   4.442   1.383  20.936
 7367SOL     OW33979   0.954   2.845  17.004
 7367SOL    HW133980   0.986   2.770  17.054
 7367SOL    HW233981   0.906   2.898  17.068
 7368SOL     OW33982   0.490   2.634   8.348
 7368SOL    HW133983   0.394   2.638   8.350
 7368SOL    HW233984   0.511   2.549   8.387
 7369SOL     OW33985   2.094   1.217   1.781
 7369SOL    HW133986   2.099   1.251   1.692
 7369SOL    HW233987   2.179   1.239   1.820
 7370SOL     OW33988   3.099   3.839  18.173
 7370SOL    HW133989   3.142   3.872  18.094
 7370SOL    HW233990   3.170   3.802  18.225
 7371SOL     OW33991   4.263   2.591   2.688
 7371SOL    HW133992   4.283   2.517   2.745
 7371SOL    HW233993   4.255   2.553   2.601
 7372SOL     OW33994   1.851   2.432  16.178
 7372SOL    HW133995   1.874   2.506  16.122
 7372SOL    HW233996   1.934   2.405  16.218
 7373SOL     OW33997   2.107   2.427  18.016
 7373SOL    HW133998   2.042   2.443  18.084
 7373SOL    HW233999   2.160   2.507  18.014
 7374SOL     OW34000   2.189   4.529   6.988
 7374SOL    HW134001   2.232   4.604   7.030
 7374SOL    HW234002   2.128   4.569   6.926
 7375SOL     OW34003   1.929   2.073   4.249
 7375SOL    HW134004   2.000   2.061   4.186
 7375SOL    HW234005   1.865   2.128   4.202
 7376SOL     OW34006   3.228   0.477   4.901
 7376SOL    HW134007   3.240   0.398   4.847
 7376SOL    HW234008   3.265   0.454   4.986
 7377SOL     OW34009   2.115   4.252  19.968
 7377SOL    HW134010   2.167   4.220  19.895
 7377SOL    HW234011   2.170   4.239  20.045
 7378SOL     OW34012   2.602   2.333   6.029
 7378SOL    HW134013   2.554   2.407   6.066
 7378SOL    HW234014   2.561   2.256   6.068
 7379SOL     OW34015   1.040   0.754   0.628
 7379SOL    HW134016   1.070   0.837   0.664
 7379SOL    HW234017   1.025   0.699   0.705
 7380SOL     OW34018   2.031   2.817   4.983
 7380SOL    HW134019   2.037   2.893   4.924
 7380SOL    HW234020   2.020   2.742   4.925
 7381SOL     OW34021   2.797   0.646  15.505
 7381SOL    HW134022   2.860   0.662  15.575
 7381SOL    HW234023   2.722   0.605  15.549
 7382SOL     OW34024   2.399   3.832  18.389
 7382SOL    HW134025   2.368   3.751  18.429
 7382SOL    HW234026   2.478   3.855  18.439
 7383SOL     OW34027   2.658   1.454   1.238
 7383SOL    HW134028   2.598   1.439   1.165
 7383SOL    HW234029   2.743   1.468   1.197
 7384SOL     OW34030   2.814   3.883  14.440
 7384SOL    HW134031   2.842   3.797  14.473
 7384SOL    HW234032   2.849   3.945  14.504
 7385SOL     OW34033   4.540   1.530   3.851
 7385SOL    HW134034   4.490   1.544   3.771
 7385SOL    HW234035   4.475   1.503   3.916
 7386SOL     OW34036   3.909   4.211   5.620
 7386SOL    HW134037   3.819   4.191   5.593
 7386SOL    HW234038   3.938   4.280   5.560
 7387SOL     OW34039   0.975   3.374  15.556
 7387SOL    HW134040   1.058   3.385  15.509
 7387SOL    HW234041   0.926   3.310  15.505
 7388SOL     OW34042   0.754   0.686  17.098
 7388SOL    HW134043   0.749   0.721  17.009
 7388SOL    HW234044   0.698   0.745  17.149
 7389SOL     OW34045   1.071   0.818  17.791
 7389SOL    HW134046   1.093   0.911  17.793
 7389SOL    HW234047   1.000   0.809  17.854
 7390SOL     OW34048   3.035   1.015  19.875
 7390SOL    HW134049   2.982   1.069  19.934
 7390SOL    HW234050   3.107   1.071  19.848
 7391SOL     OW34051   4.003   3.862   1.666
 7391SOL    HW134052   3.919   3.817   1.656
 7391SOL    HW234053   3.994   3.912   1.747
 7392SOL     OW34054   2.135   1.038   3.202
 7392SOL    HW134055   2.221   1.013   3.167
 7392SOL    HW234056   2.101   1.100   3.137
 7393SOL     OW34057   3.242   4.288  16.974
 7393SOL    HW134058   3.254   4.376  17.009
 7393SOL    HW234059   3.308   4.280  16.905
 7394SOL     OW34060   0.027   4.623   5.300
 7394SOL    HW134061   0.101   4.587   5.348
 7394SOL    HW234062   0.011   4.560   5.229
 7395SOL     OW34063   0.960   3.856   3.735
 7395SOL    HW134064   0.996   3.786   3.680
 7395SOL    HW234065   0.869   3.831   3.750
 7396SOL     OW34066   0.194   4.719   4.782
 7396SOL    HW134067   0.276   4.713   4.733
 7396SOL    HW234068   0.194   0.017   4.818
 7397SOL     OW34069   1.397   2.149  11.755
 7397SOL    HW134070   1.350   2.075  11.715
 7397SOL    HW234071   1.390   2.220  11.691
 7398SOL     OW34072   1.102   2.951  17.411
 7398SOL    HW134073   1.141   2.870  17.443
 7398SOL    HW234074   1.174   2.996  17.367
 7399SOL     OW34075   3.631   1.986   4.558
 7399SOL    HW134076   3.659   1.897   4.580
 7399SOL    HW234077   3.587   1.977   4.473
 7400SOL     OW34078   2.819   0.482   0.214
 7400SOL    HW134079   2.820   0.543   0.288
 7400SOL    HW234080   2.785   0.401   0.250
 7401SOL     OW34081   3.815   1.153   6.164
 7401SOL    HW134082   3.813   1.239   6.205
 7401SOL    HW234083   3.908   1.131   6.160
 7402SOL     OW34084   4.460   0.961   9.035
 7402SOL    HW134085   4.417   0.945   8.951
 7402SOL    HW234086   4.518   1.036   9.018
 7403SOL     OW34087   2.486   1.552  17.644
 7403SOL    HW134088   2.490   1.536  17.738
 7403SOL    HW234089   2.438   1.477  17.609
 7404SOL     OW34090   4.080   4.019  17.114
 7404SOL    HW134091   3.993   4.056  17.099
 7404SOL    HW234092   4.063   3.926  17.131
 7405SOL     OW34093   3.643   0.065   2.956
 7405SOL    HW134094   3.576   0.064   2.888
 7405SOL    HW234095   3.679   0.153   2.953
 7406SOL     OW34096   3.842   1.430  19.070
 7406SOL    HW134097   3.802   1.345  19.090
 7406SOL    HW234098   3.848   1.432  18.974
 7407SOL     OW34099   3.793   4.051  19.217
 7407SOL    HW134100   3.766   3.966  19.253
 7407SOL    HW234101   3.761   4.048  19.126
 7408SOL     OW34102   2.301   3.261   7.872
 7408SOL    HW134103   2.213   3.295   7.861
 7408SOL    HW234104   2.301   3.178   7.825
 7409SOL     OW34105   3.813   3.096   2.672
 7409SOL    HW134106   3.734   3.137   2.637
 7409SOL    HW234107   3.877   3.103   2.600
 7410SOL     OW34108   1.358   2.900  17.561
 7410SOL    HW134109   1.379   2.817  17.518
 7410SOL    HW234110   1.330   2.875  17.649
 7411SOL     OW34111   2.963   1.352   0.540
 7411SOL    HW134112   2.919   1.386   0.462
 7411SOL    HW234113   3.019   1.281   0.506
 7412SOL     OW34114   2.845   2.700  14.812
 7412SOL    HW134115   2.825   2.793  14.824
 7412SOL    HW234116   2.837   2.662  14.899
 7413SOL     OW34117   2.311   4.673   1.389
 7413SOL    HW134118   2.245   4.634   1.332
 7413SOL    HW234119   2.376   4.603   1.402
 7414SOL     OW34120   0.710   4.529   4.066
 7414SOL    HW134121   0.758   4.588   4.008
 7414SOL    HW234122   0.776   4.469   4.100
 7415SOL     OW34123   0.109   1.698  14.243
 7415SOL    HW134124   0.101   1.733  14.154
 7415SOL    HW234125   0.143   1.609  14.231
 7416SOL     OW34126   4.042   3.658  20.778
 7416SOL    HW134127   4.104   3.708  20.725
 7416SOL    HW234128   4.074   3.670  20.868
 7417SOL     OW34129   0.232   1.658   1.146
 7417SOL    HW134130   0.216   1.568   1.119
 7417SOL    HW234131   0.317   1.656   1.189
 7418SOL     OW34132   1.687   1.725   0.464
 7418SOL    HW134133   1.709   1.799   0.520
 7418SOL    HW234134   1.758   1.723   0.400
 7419SOL     OW34135   2.754   3.472  15.943
 7419SOL    HW134136   2.780   3.493  16.033
 7419SOL    HW234137   2.667   3.510  15.933
 7420SOL     OW34138   4.432   0.193   5.305
 7420SOL    HW134139   4.485   0.117   5.280
 7420SOL    HW234140   4.471   0.224   5.387
 7421SOL     OW34141   0.311   1.655  19.566
 7421SOL    HW134142   0.331   1.610  19.484
 7421SOL    HW234143   0.389   1.641  19.620
 7422SOL     OW34144   0.092   0.052  12.399
 7422SOL    HW134145   0.090   4.769  12.459
 7422SOL    HW234146   0.119   0.127  12.453
 7423SOL     OW34147   4.038   4.390  15.009
 7423SOL    HW134148   4.031   4.430  15.095
 7423SOL    HW234149   4.003   4.456  14.949
 7424SOL     OW34150   1.032   4.188  19.759
 7424SOL    HW134151   1.079   4.158  19.681
 7424SOL    HW234152   1.073   4.138  19.830
 7425SOL     OW34153   1.875   0.697   5.612
 7425SOL    HW134154   1.852   0.709   5.704
 7425SOL    HW234155   1.824   0.764   5.566
 7426SOL     OW34156   4.180   2.169  16.089
 7426SOL    HW134157   4.155   2.243  16.144
 7426SOL    HW234158   4.249   2.203  16.032
 7427SOL     OW34159   2.455   3.456   1.812
 7427SOL    HW134160   2.412   3.417   1.888
 7427SOL    HW234161   2.505   3.529   1.848
 7428SOL     OW34162   2.030   4.197  17.182
 7428SOL    HW134163   2.040   4.151  17.099
 7428SOL    HW234164   1.936   4.212  17.190
 7429SOL     OW34165   3.516   3.969  19.544
 7429SOL    HW134166   3.430   3.966  19.502
 7429SOL    HW234167   3.577   3.940  19.476
 7430SOL     OW34168   2.085   4.262   0.520
 7430SOL    HW134169   2.110   4.274   0.428
 7430SOL    HW234170   2.113   4.173   0.541
 7431SOL     OW34171   4.435   4.187   0.122
 7431SOL    HW134172   4.380   4.221   0.052
 7431SOL    HW234173   4.499   4.256   0.138
 7432SOL     OW34174   0.703   1.075   3.994
 7432SOL    HW134175   0.696   0.980   3.990
 7432SOL    HW234176   0.616   1.104   4.021
 7433SOL     OW34177   0.132   0.175  20.035
 7433SOL    HW134178   0.119   0.248  19.975
 7433SOL    HW234179   0.226   0.176  20.054
 7434SOL     OW34180   0.190   0.731  17.710
 7434SOL    HW134181   0.244   0.671  17.762
 7434SOL    HW234182   0.100   0.713  17.738
 7435SOL     OW34183   2.654   3.446   9.041
 7435SOL    HW134184   2.662   3.492   8.957
 7435SOL    HW234185   2.737   3.462   9.085
 7436SOL     OW34186   0.326   4.278  20.272
 7436SOL    HW134187   0.413   4.239  20.280
 7436SOL    HW234188   0.292   4.278  20.361
 7437SOL     OW34189   0.994   2.254   4.213
 7437SOL    HW134190   1.001   2.196   4.138
 7437SOL    HW234191   0.933   2.210   4.273
 7438SOL     OW34192   4.449   1.909   0.903
 7438SOL    HW134193   4.464   1.918   0.809
 7438SOL    HW234194   4.390   1.981   0.925
 7439SOL     OW34195   3.271   3.877  18.676
 7439SOL    HW134196   3.281   3.905  18.767
 7439SOL    HW234197   3.334   3.805  18.666
 7440SOL     OW34198   2.010   0.706  16.475
 7440SOL    HW134199   1.957   0.735  16.549
 7440SOL    HW234200   2.094   0.751  16.487
 7441SOL     OW34201   0.623   4.582   0.977
 7441SOL    HW134202   0.623   4.487   0.968
 7441SOL    HW234203   0.646   4.614   0.889
 7442SOL     OW34204   1.104   2.115  19.747
 7442SOL    HW134205   1.091   2.209  19.760
 7442SOL    HW234206   1.064   2.097  19.662
 7443SOL     OW34207   3.540   4.119  21.087
 7443SOL    HW134208   3.517   4.027  21.077
 7443SOL    HW234209   3.626   4.118  21.130
 7444SOL     OW34210   1.795   0.436   1.109
 7444SOL    HW134211   1.760   0.518   1.146
 7444SOL    HW234212   1.861   0.408   1.171
 7445SOL     OW34213   3.571   3.991   1.211
 7445SOL    HW134214   3.558   4.082   1.186
 7445SOL    HW234215   3.567   3.942   1.129
 7446SOL     OW34216   1.522   3.774   5.681
 7446SOL    HW134217   1.466   3.836   5.728
 7446SOL    HW234218   1.505   3.689   5.722
 7447SOL     OW34219   2.841   3.994  17.463
 7447SOL    HW134220   2.745   3.987  17.466
 7447SOL    HW234221   2.857   4.074  17.413
 7448SOL     OW34222   1.974   1.174  20.344
 7448SOL    HW134223   1.954   1.145  20.255
 7448SOL    HW234224   1.889   1.183  20.387
 7449SOL     OW34225   1.875   1.473   3.328
 7449SOL    HW134226   1.846   1.402   3.386
 7449SOL    HW234227   1.887   1.431   3.243
 7450SOL     OW34228   3.524   0.112   5.569
 7450SOL    HW134229   3.497   0.036   5.619
 7450SOL    HW234230   3.535   0.182   5.634
 7451SOL     OW34231   2.433   4.095   6.389
 7451SOL    HW134232   2.387   4.170   6.351
 7451SOL    HW234233   2.413   4.023   6.329
 7452SOL     OW34234   2.512   4.573   0.323
 7452SOL    HW134235   2.565   4.592   0.400
 7452SOL    HW234236   2.548   4.491   0.289
 7453SOL     OW34237   2.048   2.519   6.623
 7453SOL    HW134238   2.109   2.561   6.683
 7453SOL    HW234239   2.101   2.454   6.576
 7454SOL     OW34240   1.790   3.876  20.590
 7454SOL    HW134241   1.841   3.928  20.652
 7454SOL    HW234242   1.717   3.933  20.565
 7455SOL     OW34243   0.763   4.640  19.664
 7455SOL    HW134244   0.778   4.626  19.570
 7455SOL    HW234245   0.698   4.710  19.668
 7456SOL     OW34246   2.597   3.507  16.544
 7456SOL    HW134247   2.681   3.550  16.559
 7456SOL    HW234248   2.614   3.446  16.472
 7457SOL     OW34249   4.636   2.808  19.710
 7457SOL    HW134250   4.580   2.744  19.754
 7457SOL    HW234251   4.611   2.892  19.749
 7458SOL     OW34252   4.095   1.458  20.273
 7458SOL    HW134253   4.111   1.423  20.185
 7458SOL    HW234254   4.030   1.399  20.311
 7459SOL     OW34255   2.372   3.963  18.169
 7459SOL    HW134256   2.354   3.914  18.249
 7459SOL    HW234257   2.325   4.045  18.179
 7460SOL     OW34258   3.462   2.246   0.327
 7460SOL    HW134259   3.410   2.260   0.406
 7460SOL    HW234260   3.512   2.166   0.345
 7461SOL     OW34261   3.182   2.620  18.771
 7461SOL    HW134262   3.172   2.692  18.710
 7461SOL    HW234263   3.151   2.543  18.724
 7462SOL     OW34264   2.916   0.035  18.240
 7462SOL    HW134265   2.830   0.051  18.280
 7462SOL    HW234266   2.938   0.117  18.196
 7463SOL     OW34267   1.853   3.911  18.411
 7463SOL    HW134268   1.874   3.976  18.478
 7463SOL    HW234269   1.821   3.836  18.461
 7464SOL     OW34270   2.956   1.286   1.979
 7464SOL    HW134271   2.977   1.193   1.988
 7464SOL    HW234272   2.926   1.296   1.889
 7465SOL     OW34273   3.412   2.171   1.912
 7465SOL    HW134274   3.483   2.236   1.919
 7465SOL    HW234275   3.452   2.089   1.940
 7466SOL     OW34276   4.172   4.300  14.759
 7466SOL    HW134277   4.116   4.289  14.836
 7466SOL    HW234278   4.119   4.351  14.698
 7467SOL     OW34279   1.109   2.234  15.853
 7467SOL    HW134280   1.105   2.140  15.871
 7467SOL    HW234281   1.133   2.274  15.936
 7468SOL     OW34282   4.660   3.039  16.258
 7468SOL    HW134283   4.720   3.050  16.332
 7468SOL    HW234284   4.576   3.017  16.299
 7469SOL     OW34285   2.127   3.266  15.493
 7469SOL    HW134286   2.038   3.273  15.526
 7469SOL    HW234287   2.139   3.174  15.472
 7470SOL     OW34288   2.936   1.651   5.375
 7470SOL    HW134289   2.963   1.725   5.321
 7470SOL    HW234290   2.848   1.675   5.406
 7471SOL     OW34291   2.641   4.582  16.291
 7471SOL    HW134292   2.735   4.564  16.296
 7471SOL    HW234293   2.635   4.667  16.248
 7472SOL     OW34294   0.311   2.131  17.523
 7472SOL    HW134295   0.290   2.220  17.554
 7472SOL    HW234296   0.295   2.075  17.599
 7473SOL     OW34297   3.730   2.100  17.122
 7473SOL    HW134298   3.732   2.011  17.087
 7473SOL    HW234299   3.797   2.101  17.190
 7474SOL     OW34300   2.923   0.508  15.735
 7474SOL    HW134301   2.956   0.479  15.820
 7474SOL    HW234302   2.995   0.489  15.674
 7475SOL     OW34303   1.712   1.205   4.717
 7475SOL    HW134304   1.710   1.229   4.625
 7475SOL    HW234305   1.663   1.123   4.722
 7476SOL     OW34306   2.566   1.903   1.911
 7476SOL    HW134307   2.543   1.894   2.003
 7476SOL    HW234308   2.615   1.823   1.891
 7477SOL     OW34309   0.732   2.177   5.191
 7477SOL    HW134310   0.750   2.241   5.122
 7477SOL    HW234311   0.636   2.170   5.193
 7478SOL     OW34312   2.795   2.128   8.353
 7478SOL    HW134313   2.871   2.178   8.382
 7478SOL    HW234314   2.820   2.094   8.267
 7479SOL     OW34315   1.310   4.635   9.110
 7479SOL    HW134316   1.268   4.607   9.191
 7479SOL    HW234317   1.338   4.725   9.127
 7480SOL     OW34318   1.717   3.502   1.471
 7480SOL    HW134319   1.638   3.554   1.455
 7480SOL    HW234320   1.691   3.412   1.451
 7481SOL     OW34321   1.935   1.944  19.681
 7481SOL    HW134322   1.985   1.887  19.623
 7481SOL    HW234323   1.999   1.977  19.743
 7482SOL     OW34324   2.835   2.911  15.348
 7482SOL    HW134325   2.900   2.951  15.290
 7482SOL    HW234326   2.761   2.972  15.346
 7483SOL     OW34327   2.441   2.792   5.916
 7483SOL    HW134328   2.377   2.835   5.973
 7483SOL    HW234329   2.391   2.725   5.870
 7484SOL     OW34330   4.668   1.523   3.524
 7484SOL    HW134331   4.678   1.587   3.595
 7484SOL    HW234332   4.638   1.575   3.450
 7485SOL     OW34333   0.453   0.884   0.458
 7485SOL    HW134334   0.531   0.852   0.505
 7485SOL    HW234335   0.429   0.965   0.503
 7486SOL     OW34336   3.217   0.222   3.470
 7486SOL    HW134337   3.238   0.187   3.557
 7486SOL    HW234338   3.300   0.256   3.437
 7487SOL     OW34339   3.306   2.926  19.041
 7487SOL    HW134340   3.305   3.014  19.005
 7487SOL    HW234341   3.377   2.882  18.994
 7488SOL     OW34342   2.763   3.580  20.881
 7488SOL    HW134343   2.758   3.639  20.956
 7488SOL    HW234344   2.755   3.492  20.917
 7489SOL     OW34345   0.415   4.343   4.864
 7489SOL    HW134346   0.423   4.433   4.894
 7489SOL    HW234347   0.403   4.292   4.944
 7490SOL     OW34348   2.473   3.400  17.454
 7490SOL    HW134349   2.514   3.430  17.535
 7490SOL    HW234350   2.542   3.407  17.388
 7491SOL     OW34351   3.270   0.180  19.922
 7491SOL    HW134352   3.243   0.211  20.009
 7491SOL    HW234353   3.194   0.197  19.867
 7492SOL     OW34354   3.385   2.019   0.833
 7492SOL    HW134355   3.359   1.954   0.768
 7492SOL    HW234356   3.456   2.067   0.792
 7493SOL     OW34357   0.229   0.529  18.305
 7493SOL    HW134358   0.172   0.515  18.380
 7493SOL    HW234359   0.314   0.553  18.342
 7494SOL     OW34360   4.203   2.802   6.760
 7494SOL    HW134361   4.162   2.720   6.787
 7494SOL    HW234362   4.135   2.868   6.770
 7495SOL     OW34363   4.658   2.189   5.743
 7495SOL    HW134364   4.594   2.231   5.686
 7495SOL    HW234365   4.610   2.168   5.823
 7496SOL     OW34366   0.603   1.325  18.804
 7496SOL    HW134367   0.630   1.281  18.724
 7496SOL    HW234368   0.652   1.281  18.873
 7497SOL     OW34369   4.510   0.253   4.389
 7497SOL    HW134370   4.576   0.290   4.332
 7497SOL    HW234371   4.557   0.187   4.440
 7498SOL     OW34372   1.399   2.101   2.860
 7498SOL    HW134373   1.391   2.021   2.808
 7498SOL    HW234374   1.315   2.107   2.906
 7499SOL     OW34375   3.158   3.576  17.149
 7499SOL    HW134376   3.091   3.616  17.094
 7499SOL    HW234377   3.113   3.505  17.195
 7500SOL     OW34378   1.767   0.174   1.594
 7500SOL    HW134379   1.695   0.125   1.553
 7500SOL    HW234380   1.828   0.106   1.623
 7501SOL     OW34381   2.711   4.422  16.585
 7501SOL    HW134382   2.764   4.427  16.506
 7501SOL    HW234383   2.628   4.385  16.556
 7502SOL     OW34384   2.026   4.510   4.978
 7502SOL    HW134385   2.039   4.438   5.040
 7502SOL    HW234386   2.032   4.589   5.032
 7503SOL     OW34387   1.419   2.384   1.238
 7503SOL    HW134388   1.392   2.296   1.212
 7503SOL    HW234389   1.483   2.410   1.172
 7504SOL     OW34390   0.052   1.486   3.221
 7504SOL    HW134391   0.086   1.408   3.265
 7504SOL    HW234392   0.130   1.534   3.192
 7505SOL     OW34393   4.473   0.960   7.460
 7505SOL    HW134394   4.454   0.947   7.367
 7505SOL    HW234395   4.387   0.965   7.502
 7506SOL     OW34396   3.057   2.149  18.717
 7506SOL    HW134397   3.049   2.138  18.812
 7506SOL    HW234398   3.039   2.062  18.682
 7507SOL     OW34399   3.752   2.785   3.553
 7507SOL    HW134400   3.831   2.809   3.602
 7507SOL    HW234401   3.779   2.789   3.461
 7508SOL     OW34402   0.821   3.888  14.978
 7508SOL    HW134403   0.841   3.902  14.885
 7508SOL    HW234404   0.818   3.975  15.016
 7509SOL     OW34405   3.359   2.435  18.885
 7509SOL    HW134406   3.313   2.513  18.854
 7509SOL    HW234407   3.449   2.464  18.898
 7510SOL     OW34408   2.578   2.535   6.354
 7510SOL    HW134409   2.556   2.588   6.277
 7510SOL    HW234410   2.636   2.591   6.405
 7511SOL     OW34411   4.151   2.518   1.442
 7511SOL    HW134412   4.225   2.559   1.397
 7511SOL    HW234413   4.116   2.456   1.378
 7512SOL     OW34414   1.408   1.756   0.215
 7512SOL    HW134415   1.362   1.795   0.289
 7512SOL    HW234416   1.487   1.719   0.253
 7513SOL     OW34417   3.229   1.952  13.674
 7513SOL    HW134418   3.199   1.862  13.658
 7513SOL    HW234419   3.324   1.943  13.682
 7514SOL     OW34420   4.626   4.438   7.754
 7514SOL    HW134421   4.676   4.358   7.765
 7514SOL    HW234422   4.536   4.408   7.740
 7515SOL     OW34423   3.016   2.487   6.725
 7515SOL    HW134424   2.927   2.469   6.752
 7515SOL    HW234425   3.028   2.580   6.745
 7516SOL     OW34426   4.237   0.176   0.364
 7516SOL    HW134427   4.315   0.195   0.416
 7516SOL    HW234428   4.190   0.110   0.415
 7517SOL     OW34429   2.327   1.768  18.734
 7517SOL    HW134430   2.324   1.674  18.717
 7517SOL    HW234431   2.412   1.783  18.775
 7518SOL     OW34432   2.710   1.301   0.950
 7518SOL    HW134433   2.662   1.372   0.908
 7518SOL    HW234434   2.778   1.278   0.887
 7519SOL     OW34435   2.714   0.876   3.138
 7519SOL    HW134436   2.807   0.873   3.160
 7519SOL    HW234437   2.687   0.966   3.159
 7520SOL     OW34438   2.800   2.881  16.510
 7520SOL    HW134439   2.825   2.937  16.436
 7520SOL    HW234440   2.807   2.938  16.587
 7521SOL     OW34441   0.496   2.707  16.773
 7521SOL    HW134442   0.527   2.617  16.782
 7521SOL    HW234443   0.577   2.759  16.771
 7522SOL     OW34444   1.512   0.420  16.483
 7522SOL    HW134445   1.549   0.372  16.558
 7522SOL    HW234446   1.444   0.475  16.522
 7523SOL     OW34447   0.733   3.120   0.983
 7523SOL    HW134448   0.742   3.080   1.069
 7523SOL    HW234449   0.645   3.157   0.982
 7524SOL     OW34450   4.161   1.361   8.569
 7524SOL    HW134451   4.182   1.330   8.481
 7524SOL    HW234452   4.214   1.308   8.628
 7525SOL     OW34453   3.971   4.453   3.886
 7525SOL    HW134454   3.930   4.533   3.919
 7525SOL    HW234455   3.964   4.460   3.791
 7526SOL     OW34456   1.669   1.587   2.320
 7526SOL    HW134457   1.610   1.621   2.387
 7526SOL    HW234458   1.676   1.493   2.340
 7527SOL     OW34459   4.193   1.886   2.314
 7527SOL    HW134460   4.198   1.953   2.245
 7527SOL    HW234461   4.102   1.858   2.313
 7528SOL     OW34462   1.630   3.700   5.416
 7528SOL    HW134463   1.714   3.709   5.461
 7528SOL    HW234464   1.566   3.689   5.487
 7529SOL     OW34465   0.651   2.314   1.683
 7529SOL    HW134466   0.655   2.319   1.778
 7529SOL    HW234467   0.739   2.338   1.653
 7530SOL     OW34468   2.050   2.685  15.785
 7530SOL    HW134469   2.039   2.736  15.705
 7530SOL    HW234470   1.983   2.719  15.845
 7531SOL     OW34471   2.987   1.019   1.996
 7531SOL    HW134472   3.070   0.976   2.016
 7531SOL    HW234473   2.960   0.980   1.913
 7532SOL     OW34474   0.786   0.885   4.761
 7532SOL    HW134475   0.864   0.830   4.768
 7532SOL    HW234476   0.818   0.974   4.776
 7533SOL     OW34477   3.047   0.234  19.775
 7533SOL    HW134478   3.048   0.299  19.705
 7533SOL    HW234479   2.967   0.253  19.824
 7534SOL     OW34480   1.100   0.584   5.667
 7534SOL    HW134481   1.137   0.620   5.748
 7534SOL    HW234482   1.053   0.506   5.695
 7535SOL     OW34483   0.934   4.114  21.202
 7535SOL    HW134484   0.900   4.024  21.200
 7535SOL    HW234485   0.974   4.126  21.116
 7536SOL     OW34486   2.585   0.232   5.153
 7536SOL    HW134487   2.555   0.276   5.233
 7536SOL    HW234488   2.600   0.141   5.180
 7537SOL     OW34489   1.482   4.779   4.375
 7537SOL    HW134490   1.486   4.689   4.344
 7537SOL    HW234491   1.389   0.012   4.366
 7538SOL     OW34492   1.235   4.319   7.938
 7538SOL    HW134493   1.244   4.240   7.991
 7538SOL    HW234494   1.168   4.297   7.873
 7539SOL     OW34495   4.709   0.174   4.974
 7539SOL    HW134496   4.657   0.142   4.900
 7539SOL    HW234497   4.654   0.241   5.014
 7540SOL     OW34498   2.679   3.233   5.102
 7540SOL    HW134499   2.762   3.186   5.095
 7540SOL    HW234500   2.703   3.323   5.124
 7541SOL     OW34501   0.521   3.884   5.738
 7541SOL    HW134502   0.616   3.867   5.738
 7541SOL    HW234503   0.482   3.798   5.727
 7542SOL     OW34504   1.769   2.499  20.806
 7542SOL    HW134505   1.701   2.452  20.758
 7542SOL    HW234506   1.724   2.537  20.881
 7543SOL     OW34507   3.674   1.096   0.377
 7543SOL    HW134508   3.606   1.160   0.397
 7543SOL    HW234509   3.757   1.143   0.392
 7544SOL     OW34510   1.985   2.236   1.107
 7544SOL    HW134511   2.075   2.256   1.133
 7544SOL    HW234512   1.987   2.240   1.011
 7545SOL     OW34513   3.731   0.086  17.134
 7545SOL    HW134514   3.710   0.175  17.106
 7545SOL    HW234515   3.827   0.083  17.134
 7546SOL     OW34516   2.248   3.648   3.555
 7546SOL    HW134517   2.159   3.683   3.555
 7546SOL    HW234518   2.245   3.574   3.614
 7547SOL     OW34519   1.705   0.645   5.285
 7547SOL    HW134520   1.729   0.715   5.346
 7547SOL    HW234521   1.698   0.688   5.200
 7548SOL     OW34522   2.554   3.162  19.725
 7548SOL    HW134523   2.512   3.243  19.695
 7548SOL    HW234524   2.645   3.187  19.743
 7549SOL     OW34525   0.453   3.541   6.857
 7549SOL    HW134526   0.515   3.503   6.919
 7549SOL    HW234527   0.400   3.601   6.910
 7550SOL     OW34528   1.470   4.469  16.705
 7550SOL    HW134529   1.391   4.415  16.704
 7550SOL    HW234530   1.539   4.411  16.671
 7551SOL     OW34531   2.897   2.183  20.359
 7551SOL    HW134532   2.892   2.273  20.329
 7551SOL    HW234533   2.807   2.150  20.351
 7552SOL     OW34534   0.999   1.952   4.195
 7552SOL    HW134535   0.995   1.859   4.174
 7552SOL    HW234536   0.983   1.956   4.290
 7553SOL     OW34537   2.347   1.313  17.581
 7553SOL    HW134538   2.255   1.289  17.591
 7553SOL    HW234539   2.396   1.240  17.618
 7554SOL     OW34540   4.318   2.104   0.099
 7554SOL    HW134541   4.364   2.072   0.022
 7554SOL    HW234542   4.335   2.039   0.167
 7555SOL     OW34543   2.284   4.293  16.234
 7555SOL    HW134544   2.296   4.370  16.178
 7555SOL    HW234545   2.236   4.231  16.180
 7556SOL     OW34546   0.892   0.448   4.472
 7556SOL    HW134547   0.850   0.516   4.524
 7556SOL    HW234548   0.835   0.437   4.396
 7557SOL     OW34549   2.849   1.293   1.724
 7557SOL    HW134550   2.901   1.237   1.667
 7557SOL    HW234551   2.780   1.235   1.758
 7558SOL     OW34552   1.293   3.611  16.867
 7558SOL    HW134553   1.208   3.651  16.885
 7558SOL    HW234554   1.278   3.553  16.793
 7559SOL     OW34555   1.328   0.875  20.076
 7559SOL    HW134556   1.388   0.939  20.038
 7559SOL    HW234557   1.317   0.809  20.008
 7560SOL     OW34558   0.167   2.374   5.963
 7560SOL    HW134559   0.089   2.387   5.909
 7560SOL    HW234560   0.230   2.438   5.930
 7561SOL     OW34561   0.550   1.667   0.180
 7561SOL    HW134562   0.524   1.706   0.097
 7561SOL    HW234563   0.634   1.709   0.201
 7562SOL     OW34564   0.682   1.074  12.179
 7562SOL    HW134565   0.596   1.095  12.144
 7562SOL    HW234566   0.735   1.056  12.102
 7563SOL     OW34567   2.781   3.010   8.859
 7563SOL    HW134568   2.766   2.921   8.892
 7563SOL    HW234569   2.835   3.052   8.926
 7564SOL     OW34570   2.612   3.708  21.087
 7564SOL    HW134571   2.565   3.743  21.162
 7564SOL    HW234572   2.578   3.619  21.076
 7565SOL     OW34573   0.674   3.196  19.819
 7565SOL    HW134574   0.722   3.276  19.842
 7565SOL    HW234575   0.636   3.215  19.733
 7566SOL     OW34576   0.954   4.429   1.299
 7566SOL    HW134577   0.941   4.336   1.281
 7566SOL    HW234578   0.868   4.469   1.283
 7567SOL     OW34579   3.991   4.410  16.597
 7567SOL    HW134580   3.942   4.342  16.553
 7567SOL    HW234581   4.051   4.363  16.655
 7568SOL     OW34582   2.685   4.478   7.333
 7568SOL    HW134583   2.717   4.448   7.248
 7568SOL    HW234584   2.602   4.521   7.314
 7569SOL     OW34585   0.420   4.733   2.305
 7569SOL    HW134586   0.476   4.693   2.238
 7569SOL    HW234587   0.407   4.664   2.370
 7570SOL     OW34588   0.542   2.797  19.689
 7570SOL    HW134589   0.506   2.861  19.628
 7570SOL    HW234590   0.511   2.713  19.657
 7571SOL     OW34591   2.451   3.531   2.121
 7571SOL    HW134592   2.365   3.566   2.096
 7571SOL    HW234593   2.443   3.436   2.108
 7572SOL     OW34594   0.194   4.158   5.572
 7572SOL    HW134595   0.254   4.124   5.638
 7572SOL    HW234596   0.182   4.250   5.596
 7573SOL     OW34597   3.434   1.753   4.793
 7573SOL    HW134598   3.362   1.787   4.740
 7573SOL    HW234599   3.488   1.829   4.812
 7574SOL     OW34600   4.433   0.706  16.646
 7574SOL    HW134601   4.387   0.790  16.654
 7574SOL    HW234602   4.386   0.661  16.575
 7575SOL     OW34603   1.851   1.312   2.683
 7575SOL    HW134604   1.847   1.371   2.608
 7575SOL    HW234605   1.759   1.295   2.705
 7576SOL     OW34606   2.646   3.889  16.484
 7576SOL    HW134607   2.632   3.921  16.573
 7576SOL    HW234608   2.632   3.794  16.490
 7577SOL     OW34609   1.426   2.928  15.515
 7577SOL    HW134610   1.345   2.884  15.542
 7577SOL    HW234611   1.495   2.884  15.565
 7578SOL     OW34612   2.520   0.384  21.041
 7578SOL    HW134613   2.520   0.454  21.107
 7578SOL    HW234614   2.482   0.309  21.087
 7579SOL     OW34615   3.312   3.382   6.412
 7579SOL    HW134616   3.322   3.381   6.507
 7579SOL    HW234617   3.392   3.342   6.379
 7580SOL     OW34618   1.928   3.431   5.692
 7580SOL    HW134619   1.946   3.365   5.758
 7580SOL    HW234620   2.009   3.438   5.641
 7581SOL     OW34621   1.491   1.112   5.020
 7581SOL    HW134622   1.573   1.063   5.017
 7581SOL    HW234623   1.465   1.121   4.928
 7582SOL     OW34624   0.860   0.205   3.969
 7582SOL    HW134625   0.832   0.234   4.056
 7582SOL    HW234626   0.821   0.269   3.909
 7583SOL     OW34627   0.826   1.439  17.492
 7583SOL    HW134628   0.751   1.481  17.533
 7583SOL    HW234629   0.874   1.510  17.450
 7584SOL     OW34630   3.893   1.011  18.624
 7584SOL    HW134631   3.981   1.004  18.663
 7584SOL    HW234632   3.905   1.066  18.547
 7585SOL     OW34633   2.047   1.171   2.854
 7585SOL    HW134634   1.992   1.229   2.802
 7585SOL    HW234635   2.137   1.194   2.829
 7586SOL     OW34636   1.194   3.168  17.888
 7586SOL    HW134637   1.148   3.173  17.804
 7586SOL    HW234638   1.286   3.154  17.864
 7587SOL     OW34639   1.803   1.463  17.679
 7587SOL    HW134640   1.823   1.386  17.732
 7587SOL    HW234641   1.802   1.536  17.742
 7588SOL     OW34642   1.549   3.773   3.600
 7588SOL    HW134643   1.553   3.677   3.609
 7588SOL    HW234644   1.601   3.791   3.521
 7589SOL     OW34645   4.757   1.661  18.085
 7589SOL    HW134646   4.735   1.591  18.022
 7589SOL    HW234647   0.058   1.646  18.106
 7590SOL     OW34648   2.441   2.981  17.394
 7590SOL    HW134649   2.402   2.913  17.447
 7590SOL    HW234650   2.391   3.060  17.414
 7591SOL     OW34651   2.650   3.234   5.627
 7591SOL    HW134652   2.615   3.303   5.571
 7591SOL    HW234653   2.572   3.194   5.667
 7592SOL     OW34654   4.175   0.718   4.026
 7592SOL    HW134655   4.125   0.792   4.061
 7592SOL    HW234656   4.112   0.645   4.025
 7593SOL     OW34657   1.997   4.266  19.040
 7593SOL    HW134658   1.958   4.179  19.037
 7593SOL    HW234659   2.076   4.258  18.987
 7594SOL     OW34660   1.758   4.150  18.331
 7594SOL    HW134661   1.668   4.134  18.301
 7594SOL    HW234662   1.793   4.063  18.350
 7595SOL     OW34663   3.344   0.317   1.318
 7595SOL    HW134664   3.368   0.224   1.324
 7595SOL    HW234665   3.251   0.319   1.338
 7596SOL     OW34666   4.343   2.592  18.151
 7596SOL    HW134667   4.248   2.597  18.138
 7596SOL    HW234668   4.353   2.574  18.245
 7597SOL     OW34669   3.180   3.982  17.934
 7597SOL    HW134670   3.120   3.956  17.864
 7597SOL    HW234671   3.175   4.077  17.937
 7598SOL     OW34672   0.818   0.743  15.681
 7598SOL    HW134673   0.725   0.766  15.677
 7598SOL    HW234674   0.861   0.808  15.627
 7599SOL     OW34675   2.192   4.498  20.960
 7599SOL    HW134676   2.159   4.424  20.909
 7599SOL    HW234677   2.121   4.561  20.959
 7600SOL     OW34678   1.364   4.479  16.959
 7600SOL    HW134679   1.415   4.484  16.878
 7600SOL    HW234680   1.301   4.410  16.943
 7601SOL     OW34681   0.368   4.203  16.349
 7601SOL    HW134682   0.306   4.255  16.299
 7601SOL    HW234683   0.376   4.248  16.433
 7602SOL     OW34684   2.408   1.729   3.289
 7602SOL    HW134685   2.421   1.738   3.195
 7602SOL    HW234686   2.491   1.757   3.328
 7603SOL     OW34687   1.063   0.391  20.800
 7603SOL    HW134688   0.988   0.450  20.794
 7603SOL    HW234689   1.133   0.445  20.836
 7604SOL     OW34690   2.454   1.346   1.389
 7604SOL    HW134691   2.442   1.292   1.310
 7604SOL    HW234692   2.525   1.405   1.366
 7605SOL     OW34693   4.005   3.691   7.458
 7605SOL    HW134694   4.053   3.738   7.390
 7605SOL    HW234695   4.072   3.647   7.509
 7606SOL     OW34696   1.192   2.775  19.819
 7606SOL    HW134697   1.148   2.843  19.767
 7606SOL    HW234698   1.285   2.793  19.807
 7607SOL     OW34699   1.104   3.694   0.574
 7607SOL    HW134700   1.055   3.728   0.649
 7607SOL    HW234701   1.190   3.735   0.582
 7608SOL     OW34702   0.565   2.292   4.267
 7608SOL    HW134703   0.582   2.384   4.288
 7608SOL    HW234704   0.485   2.293   4.215
 7609SOL     OW34705   2.615   1.779   3.662
 7609SOL    HW134706   2.570   1.714   3.609
 7609SOL    HW234707   2.545   1.826   3.707
 7610SOL     OW34708   4.376   4.755   2.129
 7610SOL    HW134709   4.355   0.051   2.095
 7610SOL    HW234710   4.390   4.702   2.051
 7611SOL     OW34711   3.638   2.055   6.783
 7611SOL    HW134712   3.628   2.036   6.877
 7611SOL    HW234713   3.560   2.105   6.761
 7612SOL     OW34714   4.777   2.972   6.669
 7612SOL    HW134715   4.785   2.892   6.721
 7612SOL    HW234716   0.028   3.040   6.722
 7613SOL     OW34717   1.318   1.259  20.929
 7613SOL    HW134718   1.317   1.257  21.025
 7613SOL    HW234719   1.409   1.240  20.906
 7614SOL     OW34720   0.551   0.769   2.921
 7614SOL    HW134721   0.619   0.702   2.924
 7614SOL    HW234722   0.470   0.721   2.902
 7615SOL     OW34723   2.794   3.034  19.591
 7615SOL    HW134724   2.707   3.009  19.560
 7615SOL    HW234725   2.812   3.117  19.547
 7616SOL     OW34726   4.190   1.658   3.847
 7616SOL    HW134727   4.123   1.616   3.793
 7616SOL    HW234728   4.188   1.750   3.821
 7617SOL     OW34729   4.096   2.467   4.789
 7617SOL    HW134730   4.123   2.399   4.727
 7617SOL    HW234731   4.106   2.426   4.875
 7618SOL     OW34732   4.751   4.675   0.600
 7618SOL    HW134733   4.780   4.605   0.541
 7618SOL    HW234734   4.660   4.691   0.573
 7619SOL     OW34735   0.490   0.482   4.443
 7619SOL    HW134736   0.527   0.441   4.522
 7619SOL    HW234737   0.453   0.409   4.394
 7620SOL     OW34738   4.019   1.853  16.697
 7620SOL    HW134739   4.077   1.910  16.646
 7620SOL    HW234740   3.974   1.913  16.757
 7621SOL     OW34741   3.331   2.486  13.587
 7621SOL    HW134742   3.316   2.456  13.676
 7621SOL    HW234743   3.421   2.459  13.568
 7622SOL     OW34744   3.662   3.122   6.129
 7622SOL    HW134745   3.622   3.115   6.042
 7622SOL    HW234746   3.699   3.035   6.145
 7623SOL     OW34747   3.408   3.001  19.625
 7623SOL    HW134748   3.364   3.001  19.540
 7623SOL    HW234749   3.482   3.060  19.613
 7624SOL     OW34750   3.346   3.220  16.671
 7624SOL    HW134751   3.353   3.310  16.702
 7624SOL    HW234752   3.255   3.211  16.643
 7625SOL     OW34753   3.852   3.082  17.699
 7625SOL    HW134754   3.890   3.169  17.690
 7625SOL    HW234755   3.876   3.037  17.618
 7626SOL     OW34756   2.934   3.467  17.529
 7626SOL    HW134757   2.937   3.548  17.478
 7626SOL    HW234758   2.907   3.495  17.617
 7627SOL     OW34759   3.800   0.737  18.640
 7627SOL    HW134760   3.770   0.739  18.731
 7627SOL    HW234761   3.818   0.829  18.618
 7628SOL     OW34762   0.733   0.006  16.986
 7628SOL    HW134763   0.826   0.023  16.993
 7628SOL    HW234764   0.715   4.731  17.053
 7629SOL     OW34765   2.809   2.142   3.614
 7629SOL    HW134766   2.714   2.151   3.625
 7629SOL    HW234767   2.823   2.048   3.606
 7630SOL     OW34768   4.614   1.182  16.032
 7630SOL    HW134769   4.709   1.179  16.019
 7630SOL    HW234770   4.577   1.162  15.946
 7631SOL     OW34771   4.281   1.984  18.337
 7631SOL    HW134772   4.227   2.030  18.402
 7631SOL    HW234773   4.295   2.049  18.268
 7632SOL     OW34774   0.175   1.464  16.690
 7632SOL    HW134775   0.267   1.457  16.716
 7632SOL    HW234776   0.162   1.558  16.674
 7633SOL     OW34777   1.017   0.955   3.058
 7633SOL    HW134778   1.085   0.965   3.124
 7633SOL    HW234779   1.064   0.962   2.974
 7634SOL     OW34780   3.750   0.292   3.577
 7634SOL    HW134781   3.723   0.384   3.579
 7634SOL    HW234782   3.689   0.248   3.637
 7635SOL     OW34783   0.695   4.296  18.344
 7635SOL    HW134784   0.651   4.323  18.425
 7635SOL    HW234785   0.782   4.268  18.372
 7636SOL     OW34786   3.376   1.956   6.313
 7636SOL    HW134787   3.373   2.033   6.256
 7636SOL    HW234788   3.290   1.914   6.302
 7637SOL     OW34789   3.900   3.577  17.781
 7637SOL    HW134790   3.903   3.629  17.701
 7637SOL    HW234791   3.822   3.607  17.826
 7638SOL     OW34792   2.793   3.469   2.076
 7638SOL    HW134793   2.837   3.506   2.152
 7638SOL    HW234794   2.757   3.386   2.108
 7639SOL     OW34795   0.963   3.763  15.157
 7639SOL    HW134796   0.900   3.800  15.095
 7639SOL    HW234797   0.975   3.673  15.127
 7640SOL     OW34798   2.732   2.077   4.453
 7640SOL    HW134799   2.819   2.070   4.493
 7640SOL    HW234800   2.732   2.011   4.384
 7641SOL     OW34801   3.204   2.949  20.304
 7641SOL    HW134802   3.287   2.955  20.258
 7641SOL    HW234803   3.144   3.003  20.252
 7642SOL     OW34804   2.125   4.466   3.932
 7642SOL    HW134805   2.216   4.438   3.921
 7642SOL    HW234806   2.091   4.409   4.000
 7643SOL     OW34807   1.702   1.298  13.842
 7643SOL    HW134808   1.768   1.262  13.783
 7643SOL    HW234809   1.698   1.391  13.819
 7644SOL     OW34810   4.033   1.800   8.872
 7644SOL    HW134811   4.053   1.714   8.907
 7644SOL    HW234812   4.040   1.790   8.777
 7645SOL     OW34813   3.227   3.998  17.506
 7645SOL    HW134814   3.275   4.080  17.496
 7645SOL    HW234815   3.156   4.018  17.567
 7646SOL     OW34816   3.746   4.746  18.371
 7646SOL    HW134817   3.781   4.723  18.457
 7646SOL    HW234818   3.663   4.698  18.365
 7647SOL     OW34819   1.239   3.028   9.101
 7647SOL    HW134820   1.163   2.969   9.101
 7647SOL    HW234821   1.206   3.110   9.066
 7648SOL     OW34822   4.650   4.251   4.030
 7648SOL    HW134823   4.617   4.341   4.036
 7648SOL    HW234824   4.742   4.258   4.056
 7649SOL     OW34825   1.081   2.811   9.838
 7649SOL    HW134826   1.077   2.849   9.750
 7649SOL    HW234827   1.100   2.719   9.823
 7650SOL     OW34828   4.133   0.923  16.795
 7650SOL    HW134829   4.129   0.889  16.706
 7650SOL    HW234830   4.074   0.998  16.795
 7651SOL     OW34831   0.829   2.635  17.425
 7651SOL    HW134832   0.821   2.674  17.512
 7651SOL    HW234833   0.778   2.554  17.430
 7652SOL     OW34834   1.875   3.276   8.613
 7652SOL    HW134835   1.878   3.236   8.699
 7652SOL    HW234836   1.783   3.292   8.596
 7653SOL     OW34837   0.006   0.044   6.315
 7653SOL    HW134838   4.706   0.020   6.329
 7653SOL    HW234839   0.002   0.135   6.284
 7654SOL     OW34840   2.319   3.567   8.412
 7654SOL    HW134841   2.249   3.517   8.455
 7654SOL    HW234842   2.398   3.516   8.428
 7655SOL     OW34843   0.430   4.277  19.107
 7655SOL    HW134844   0.400   4.366  19.125
 7655SOL    HW234845   0.378   4.250  19.031
 7656SOL     OW34846   3.494   2.976  17.520
 7656SOL    HW134847   3.415   2.925  17.532
 7656SOL    HW234848   3.474   3.035  17.447
 7657SOL     OW34849   4.599   1.046  18.382
 7657SOL    HW134850   4.661   0.974  18.368
 7657SOL    HW234851   4.535   1.010  18.443
 7658SOL     OW34852   2.188   0.717   8.598
 7658SOL    HW134853   2.281   0.711   8.577
 7658SOL    HW234854   2.146   0.652   8.542
 7659SOL     OW34855   0.182   1.772   6.682
 7659SOL    HW134856   0.128   1.700   6.648
 7659SOL    HW234857   0.234   1.800   6.608
 7660SOL     OW34858   4.662   3.096   7.982
 7660SOL    HW134859   4.757   3.102   7.997
 7660SOL    HW234860   4.651   3.121   7.890
 7661SOL     OW34861   3.562   0.487   3.574
 7661SOL    HW134862   3.509   0.408   3.560
 7661SOL    HW234863   3.613   0.496   3.493
 7662SOL     OW34864   0.355   3.536   8.389
 7662SOL    HW134865   0.418   3.540   8.461
 7662SOL    HW234866   0.405   3.565   8.312
 7663SOL     OW34867   3.873   0.849   7.972
 7663SOL    HW134868   3.841   0.763   7.944
 7663SOL    HW234869   3.835   0.861   8.060
 7664SOL     OW34870   4.771   1.852   7.565
 7664SOL    HW134871   0.062   1.891   7.595
 7664SOL    HW234872   4.748   1.901   7.486
 7665SOL     OW34873   0.595   2.633   8.682
 7665SOL    HW134874   0.609   2.708   8.624
 7665SOL    HW234875   0.634   2.559   8.636
 7666SOL     OW34876   0.780   2.869   7.877
 7666SOL    HW134877   0.768   2.781   7.842
 7666SOL    HW234878   0.860   2.864   7.929
 7667SOL     OW34879   2.425   1.167   8.843
 7667SOL    HW134880   2.403   1.245   8.892
 7667SOL    HW234881   2.519   1.174   8.826
 7668SOL     OW34882   0.260   3.602   9.518
 7668SOL    HW134883   0.315   3.525   9.511
 7668SOL    HW234884   0.189   3.587   9.455
 7669SOL     OW34885   0.709   1.801   4.977
 7669SOL    HW134886   0.672   1.824   5.062
 7669SOL    HW234887   0.657   1.725   4.949
 7670SOL     OW34888   3.755   1.149  17.172
 7670SOL    HW134889   3.688   1.188  17.117
 7670SOL    HW234890   3.707   1.094  17.234
 7671SOL     OW34891   0.186   3.717   8.215
 7671SOL    HW134892   0.254   3.720   8.282
 7671SOL    HW234893   0.231   3.685   8.137
 7672SOL     OW34894   1.984   0.142   8.472
 7672SOL    HW134895   1.986   0.227   8.517
 7672SOL    HW234896   1.932   0.158   8.393
 7673SOL     OW34897   4.006   3.718   9.555
 7673SOL    HW134898   3.996   3.637   9.605
 7673SOL    HW234899   4.066   3.772   9.607
 7674SOL     OW34900   3.616   1.382  19.280
 7674SOL    HW134901   3.595   1.460  19.332
 7674SOL    HW234902   3.711   1.380  19.277
 7675SOL     OW34903   1.813   0.694   9.543
 7675SOL    HW134904   1.815   0.598   9.548
 7675SOL    HW234905   1.807   0.713   9.449
 7676SOL     OW34906   1.078   4.679   8.803
 7676SOL    HW134907   1.035   4.602   8.764
 7676SOL    HW234908   1.029   4.694   8.884
 7677SOL     OW34909   1.791   0.478   7.580
 7677SOL    HW134910   1.857   0.462   7.512
 7677SOL    HW234911   1.839   0.474   7.662
 7678SOL     OW34912   0.339   3.617  13.497
 7678SOL    HW134913   0.396   3.681  13.454
 7678SOL    HW234914   0.393   3.583  13.569
 7679SOL     OW34915   4.531   2.608   8.947
 7679SOL    HW134916   4.449   2.579   8.906
 7679SOL    HW234917   4.560   2.682   8.894
 7680SOL     OW34918   3.472   3.480   0.240
 7680SOL    HW134919   3.538   3.513   0.301
 7680SOL    HW234920   3.523   3.439   0.170
 7681SOL     OW34921   0.767   4.276  16.717
 7681SOL    HW134922   0.766   4.181  16.709
 7681SOL    HW234923   0.842   4.304  16.665
 7682SOL     OW34924   0.757   3.610   8.483
 7682SOL    HW134925   0.681   3.571   8.527
 7682SOL    HW234926   0.789   3.675   8.545
 7683SOL     OW34927   4.704   3.550  10.441
 7683SOL    HW134928   4.679   3.463  10.474
 7683SOL    HW234929   4.628   3.605  10.460
 7684SOL     OW34930   2.298   1.280   9.547
 7684SOL    HW134931   2.341   1.324   9.620
 7684SOL    HW234932   2.305   1.187   9.568
 7685SOL     OW34933   0.580   3.765  10.234
 7685SOL    HW134934   0.495   3.779  10.276
 7685SOL    HW234935   0.629   3.712  10.297
 7686SOL     OW34936   1.828   4.646  11.116
 7686SOL    HW134937   1.799   4.603  11.035
 7686SOL    HW234938   1.914   4.608  11.134
 7687SOL     OW34939   1.977   4.222  10.167
 7687SOL    HW134940   1.906   4.285  10.172
 7687SOL    HW234941   2.057   4.275  10.164
 7688SOL     OW34942   2.111   3.998  10.319
 7688SOL    HW134943   2.075   4.067  10.263
 7688SOL    HW234944   2.170   3.950  10.261
 7689SOL     OW34945   1.187   2.899  11.616
 7689SOL    HW134946   1.180   2.834  11.686
 7689SOL    HW234947   1.271   2.942  11.631
 7690SOL     OW34948   0.012   0.002   8.453
 7690SOL    HW134949   4.724   4.745   8.478
 7690SOL    HW234950   0.001   0.017   8.359
 7691SOL     OW34951   2.770   0.750  10.162
 7691SOL    HW134952   2.675   0.750  10.173
 7691SOL    HW234953   2.785   0.810  10.089
 7692SOL     OW34954   0.750   1.055  11.200
 7692SOL    HW134955   0.794   1.100  11.272
 7692SOL    HW234956   0.718   1.125  11.144
 7693SOL     OW34957   0.502   0.249   9.511
 7693SOL    HW134958   0.521   0.271   9.603
 7693SOL    HW234959   0.518   0.155   9.506
 7694SOL     OW34960   1.096   3.537   9.484
 7694SOL    HW134961   1.186   3.548   9.516
 7694SOL    HW234962   1.102   3.467   9.419
 7695SOL     OW34963   0.932   2.255  11.218
 7695SOL    HW134964   0.963   2.179  11.170
 7695SOL    HW234965   0.863   2.221  11.275
 7696SOL     OW34966   0.794   3.089  11.503
 7696SOL    HW134967   0.759   3.135  11.579
 7696SOL    HW234968   0.880   3.130  11.488
 7697SOL     OW34969   0.824   3.080  10.796
 7697SOL    HW134970   0.906   3.083  10.845
 7697SOL    HW234971   0.810   2.987  10.780
 7698SOL     OW34972   1.749   3.397  10.582
 7698SOL    HW134973   1.813   3.330  10.608
 7698SOL    HW234974   1.664   3.355  10.597
 7699SOL     OW34975   3.533   0.685   8.019
 7699SOL    HW134976   3.537   0.757   7.955
 7699SOL    HW234977   3.615   0.691   8.068
 7700SOL     OW34978   4.189   0.449   9.167
 7700SOL    HW134979   4.191   0.462   9.072
 7700SOL    HW234980   4.255   0.381   9.182
 7701SOL     OW34981   2.452   3.273  10.096
 7701SOL    HW134982   2.495   3.336  10.038
 7701SOL    HW234983   2.419   3.327  10.169
 7702SOL     OW34984   0.880   2.618  11.049
 7702SOL    HW134985   0.868   2.655  10.961
 7702SOL    HW234986   0.820   2.669  11.104
 7703SOL     OW34987   2.465   0.671   9.899
 7703SOL    HW134988   2.385   0.716   9.872
 7703SOL    HW234989   2.445   0.578   9.888
 7704SOL     OW34990   2.315   1.008  10.099
 7704SOL    HW134991   2.224   1.037  10.104
 7704SOL    HW234992   2.366   1.087  10.113
 7705SOL     OW34993   1.064   3.098   9.989
 7705SOL    HW134994   1.104   3.020   9.948
 7705SOL    HW234995   1.032   3.149   9.915
 7706SOL     OW34996   3.341   0.484   9.099
 7706SOL    HW134997   3.411   0.437   9.144
 7706SOL    HW234998   3.337   0.445   9.012
 7707SOL     OW34999   0.442   1.870   9.686
 7707SOL    HW135000   0.466   1.897   9.598
 7707SOL    HW235001   0.465   1.778   9.691
 7708SOL     OW35002   4.361   1.045  17.705
 7708SOL    HW135003   4.397   0.978  17.763
 7708SOL    HW235004   4.438   1.088  17.667
 7709SOL     OW35005   1.996   1.877   5.415
 7709SOL    HW135006   2.057   1.854   5.484
 7709SOL    HW235007   1.930   1.932   5.457
 7710SOL     OW35008   1.381   2.014  13.411
 7710SOL    HW135009   1.363   1.944  13.348
 7710SOL    HW235010   1.323   1.995  13.485
 7711SOL     OW35011   1.151   4.239  11.451
 7711SOL    HW135012   1.239   4.276  11.458
 7711SOL    HW235013   1.101   4.305  11.404
 7712SOL     OW35014   2.366   1.934  15.190
 7712SOL    HW135015   2.270   1.934  15.183
 7712SOL    HW235016   2.385   1.991  15.265
 7713SOL     OW35017   3.179   0.254  10.492
 7713SOL    HW135018   3.189   0.259  10.397
 7713SOL    HW235019   3.135   0.170  10.506
 7714SOL     OW35020   2.145   3.059  11.072
 7714SOL    HW135021   2.235   3.043  11.100
 7714SOL    HW235022   2.105   2.972  11.069
 7715SOL     OW35023   3.403   3.560  13.149
 7715SOL    HW135024   3.334   3.620  13.177
 7715SOL    HW235025   3.401   3.563  13.053
 7716SOL     OW35026   1.789   0.232   3.620
 7716SOL    HW135027   1.751   0.146   3.601
 7716SOL    HW235028   1.797   0.234   3.716
 7717SOL     OW35029   3.150   4.456   5.108
 7717SOL    HW135030   3.102   4.383   5.070
 7717SOL    HW235031   3.134   4.449   5.202
 7718SOL     OW35032   0.690   4.220  11.923
 7718SOL    HW135033   0.644   4.278  11.984
 7718SOL    HW235034   0.715   4.144  11.976
 7719SOL     OW35035   1.591   2.667  11.893
 7719SOL    HW135036   1.540   2.590  11.866
 7719SOL    HW235037   1.532   2.715  11.951
 7720SOL     OW35038   2.009   4.456  11.077
 7720SOL    HW135039   2.090   4.407  11.062
 7720SOL    HW235040   1.943   4.388  11.093
 7721SOL     OW35041   2.480   2.205  11.120
 7721SOL    HW135042   2.560   2.179  11.166
 7721SOL    HW235043   2.413   2.210  11.188
 7722SOL     OW35044   4.775   4.485   9.493
 7722SOL    HW135045   4.780   4.575   9.526
 7722SOL    HW235046   4.689   4.480   9.451
 7723SOL     OW35047   1.117   3.640  11.464
 7723SOL    HW135048   1.200   3.594  11.456
 7723SOL    HW235049   1.095   3.667  11.375
 7724SOL     OW35050   1.785   1.943  10.919
 7724SOL    HW135051   1.865   1.920  10.966
 7724SOL    HW235052   1.766   2.033  10.946
 7725SOL     OW35053   0.146   0.846  16.991
 7725SOL    HW135054   0.173   0.758  17.017
 7725SOL    HW235055   0.051   0.840  16.983
 7726SOL     OW35056   1.651   1.805  11.887
 7726SOL    HW135057   1.557   1.791  11.894
 7726SOL    HW235058   1.660   1.892  11.849
 7727SOL     OW35059   2.495   3.342  11.393
 7727SOL    HW135060   2.573   3.305  11.435
 7727SOL    HW235061   2.429   3.343  11.462
 7728SOL     OW35062   1.632   3.421   3.119
 7728SOL    HW135063   1.572   3.365   3.070
 7728SOL    HW235064   1.716   3.412   3.074
 7729SOL     OW35065   1.879   3.429  12.216
 7729SOL    HW135066   1.939   3.391  12.152
 7729SOL    HW235067   1.930   3.433  12.297
 7730SOL     OW35068   1.633   1.660  12.292
 7730SOL    HW135069   1.704   1.596  12.287
 7730SOL    HW235070   1.677   1.742  12.314
 7731SOL     OW35071   2.320   3.426  11.212
 7731SOL    HW135072   2.336   3.389  11.125
 7731SOL    HW235073   2.382   3.380  11.269
 7732SOL     OW35074   2.739   3.748  11.621
 7732SOL    HW135075   2.723   3.741  11.715
 7732SOL    HW235076   2.769   3.838  11.609
 7733SOL     OW35077   4.534   1.292  19.511
 7733SOL    HW135078   4.554   1.236  19.586
 7733SOL    HW235079   4.455   1.254  19.473
 7734SOL     OW35080   2.806   0.093   6.650
 7734SOL    HW135081   2.770   0.127   6.568
 7734SOL    HW235082   2.734   0.041   6.686
 7735SOL     OW35083   2.081   0.798   2.541
 7735SOL    HW135084   2.006   0.841   2.582
 7735SOL    HW235085   2.042   0.728   2.489
 7736SOL     OW35086   1.186   2.002  17.527
 7736SOL    HW135087   1.107   1.978  17.577
 7736SOL    HW235088   1.194   2.097  17.540
 7737SOL     OW35089   0.160   4.363  20.039
 7737SOL    HW135090   0.123   4.451  20.036
 7737SOL    HW235091   0.199   4.356  20.127
 7738SOL     OW35092   1.366   3.973   2.165
 7738SOL    HW135093   1.350   4.065   2.184
 7738SOL    HW235094   1.390   3.971   2.072
 7739SOL     OW35095   2.339   2.788   6.496
 7739SOL    HW135096   2.413   2.758   6.442
 7739SOL    HW235097   2.379   2.844   6.563
 7740SOL     OW35098   2.556   0.455   0.403
 7740SOL    HW135099   2.500   0.529   0.428
 7740SOL    HW235100   2.512   0.379   0.440
 7741SOL     OW35101   4.250   1.378   6.831
 7741SOL    HW135102   4.332   1.388   6.880
 7741SOL    HW235103   4.272   1.407   6.742
 7742SOL     OW35104   1.101   4.128  14.431
 7742SOL    HW135105   1.173   4.121  14.494
 7742SOL    HW235106   1.141   4.170  14.354
 7743SOL     OW35107   1.497   2.509  15.702
 7743SOL    HW135108   1.467   2.431  15.653
 7743SOL    HW235109   1.459   2.498  15.789
 7744SOL     OW35110   2.738   2.469   0.005
 7744SOL    HW135111   2.727   2.424  21.184
 7744SOL    HW235112   2.820   2.434   0.040
 7745SOL     OW35113   1.987   1.217  19.541
 7745SOL    HW135114   1.979   1.305  19.505
 7745SOL    HW235115   2.043   1.171  19.479
 7746SOL     OW35116   2.751   3.054  14.568
 7746SOL    HW135117   2.709   3.057  14.482
 7746SOL    HW235118   2.776   2.963  14.579
 7747SOL     OW35119   2.536   0.074   1.613
 7747SOL    HW135120   2.458   0.034   1.651
 7747SOL    HW235121   2.554   0.150   1.669
 7748SOL     OW35122   2.819   4.373   6.077
 7748SOL    HW135123   2.826   4.399   6.168
 7748SOL    HW235124   2.842   4.280   6.077
 7749SOL     OW35125   4.246   4.474  11.503
 7749SOL    HW135126   4.213   4.471  11.413
 7749SOL    HW235127   4.186   4.533  11.549
 7750SOL     OW35128   0.722   1.959   1.347
 7750SOL    HW135129   0.741   2.053   1.342
 7750SOL    HW235130   0.728   1.928   1.256
 7751SOL     OW35131   1.161   0.935   4.075
 7751SOL    HW135132   1.237   0.941   4.016
 7751SOL    HW235133   1.197   0.901   4.157
 7752SOL     OW35134   2.432   0.766  15.595
 7752SOL    HW135135   2.429   0.748  15.689
 7752SOL    HW235136   2.467   0.686  15.556
 7753SOL     OW35137   4.312   0.061  21.049
 7753SOL    HW135138   4.330   0.137  21.104
 7753SOL    HW235139   4.321   0.093  20.960
 7754SOL     OW35140   3.838   1.060   5.787
 7754SOL    HW135141   3.815   1.099   5.702
 7754SOL    HW235142   3.871   0.973   5.764
 7755SOL     OW35143   4.662   1.100   3.485
 7755SOL    HW135144   4.604   1.069   3.554
 7755SOL    HW235145   4.703   1.021   3.450
 7756SOL     OW35146   0.325   3.781   4.659
 7756SOL    HW135147   0.254   3.718   4.673
 7756SOL    HW235148   0.405   3.732   4.677
 7757SOL     OW35149   0.490   2.705   1.004
 7757SOL    HW135150   0.477   2.751   1.086
 7757SOL    HW235151   0.472   2.613   1.024
 7758SOL     OW35152   4.053   2.394   1.658
 7758SOL    HW135153   4.125   2.338   1.686
 7758SOL    HW235154   4.085   2.437   1.579
 7759SOL     OW35155   3.923   0.144   7.397
 7759SOL    HW135156   3.886   0.226   7.363
 7759SOL    HW235157   3.924   0.156   7.492
 7760SOL     OW35158   2.205   0.879  16.832
 7760SOL    HW135159   2.226   0.877  16.738
 7760SOL    HW235160   2.141   0.810  16.843
 7761SOL     OW35161   0.486   3.190  17.064
 7761SOL    HW135162   0.538   3.262  17.100
 7761SOL    HW235163   0.456   3.142  17.141
 7762SOL     OW35164   1.788   3.019  19.959
 7762SOL    HW135165   1.787   2.993  19.867
 7762SOL    HW235166   1.717   2.969  19.999
 7763SOL     OW35167   2.754   3.588   5.620
 7763SOL    HW135168   2.686   3.523   5.600
 7763SOL    HW235169   2.708   3.656   5.669
 7764SOL     OW35170   3.442   4.136  17.196
 7764SOL    HW135171   3.431   4.226  17.227
 7764SOL    HW235172   3.399   4.135  17.110
 7765SOL     OW35173   3.995   1.476   5.830
 7765SOL    HW135174   4.039   1.514   5.907
 7765SOL    HW235175   4.050   1.401   5.807
 7766SOL     OW35176   3.312   3.772   3.997
 7766SOL    HW135177   3.282   3.735   3.914
 7766SOL    HW235178   3.285   3.864   3.992
 7767SOL     OW35179   4.057   4.056   4.527
 7767SOL    HW135180   4.145   4.093   4.540
 7767SOL    HW235181   4.017   4.114   4.462
 7768SOL     OW35182   3.359   3.371  11.503
 7768SOL    HW135183   3.331   3.283  11.527
 7768SOL    HW235184   3.372   3.367  11.408
 7769SOL     OW35185   0.390   3.465   5.910
 7769SOL    HW135186   0.416   3.446   6.000
 7769SOL    HW235187   0.473   3.482   5.865
 7770SOL     OW35188   3.799   1.164  19.129
 7770SOL    HW135189   3.888   1.135  19.111
 7770SOL    HW235190   3.790   1.154  19.224
 7771SOL     OW35191   2.858   2.848   5.068
 7771SOL    HW135192   2.767   2.839   5.095
 7771SOL    HW235193   2.885   2.933   5.103
 7772SOL     OW35194   1.513   4.631   5.042
 7772SOL    HW135195   1.468   4.711   5.015
 7772SOL    HW235196   1.536   4.646   5.134
 7773SOL     OW35197   1.310   3.657  19.808
 7773SOL    HW135198   1.305   3.734  19.864
 7773SOL    HW235199   1.394   3.665  19.763
 7774SOL     OW35200   3.751   2.344  21.206
 7774SOL    HW135201   3.772   2.251  21.197
 7774SOL    HW235202   3.813   2.388  21.148
 7775SOL     OW35203   0.599   3.562  15.212
 7775SOL    HW135204   0.560   3.524  15.133
 7775SOL    HW235205   0.641   3.642  15.181
 7776SOL     OW35206   3.164   0.779  21.068
 7776SOL    HW135207   3.072   0.754  21.076
 7776SOL    HW235208   3.212   0.706  21.108
 7777SOL     OW35209   3.230   2.387   2.797
 7777SOL    HW135210   3.216   2.325   2.868
 7777SOL    HW235211   3.145   2.430   2.785
 7778SOL     OW35212   1.468   3.410  18.209
 7778SOL    HW135213   1.448   3.458  18.129
 7778SOL    HW235214   1.443   3.320  18.190
 7779SOL     OW35215   1.622   1.640  19.083
 7779SOL    HW135216   1.645   1.730  19.061
 7779SOL    HW235217   1.611   1.640  19.178
 7780SOL     OW35218   2.203   4.689  19.856
 7780SOL    HW135219   2.138   4.627  19.823
 7780SOL    HW235220   2.287   4.646  19.838
 7781SOL     OW35221   1.741   1.286   0.675
 7781SOL    HW135222   1.711   1.248   0.758
 7781SOL    HW235223   1.750   1.211   0.616
 7782SOL     OW35224   3.239   0.556  18.869
 7782SOL    HW135225   3.185   0.477  18.878
 7782SOL    HW235226   3.209   0.614  18.939
 7783SOL     OW35227   0.605   1.513   4.430
 7783SOL    HW135228   0.620   1.476   4.343
 7783SOL    HW235229   0.653   1.454   4.489
 7784SOL     OW35230   0.960   3.383  21.170
 7784SOL    HW135231   0.978   3.292  21.194
 7784SOL    HW235232   1.017   3.400  21.095
 7785SOL     OW35233   2.742   2.611   6.793
 7785SOL    HW135234   2.650   2.637   6.801
 7785SOL    HW235235   2.750   2.533   6.847
 7786SOL     OW35236   4.161   1.076  21.046
 7786SOL    HW135237   4.206   1.011  21.100
 7786SOL    HW235238   4.084   1.101  21.098
 7787SOL     OW35239   2.236   4.497  18.837
 7787SOL    HW135240   2.306   4.522  18.776
 7787SOL    HW235241   2.253   4.405  18.857
 7788SOL     OW35242   3.512   2.582   1.149
 7788SOL    HW135243   3.568   2.545   1.218
 7788SOL    HW235244   3.470   2.506   1.109
 7789SOL     OW35245   4.349   4.562   1.888
 7789SOL    HW135246   4.379   4.614   1.813
 7789SOL    HW235247   4.374   4.472   1.867
 7790SOL     OW35248   2.488   2.466   1.628
 7790SOL    HW135249   2.437   2.487   1.706
 7790SOL    HW235250   2.521   2.377   1.644
 7791SOL     OW35251   2.654   0.714   5.690
 7791SOL    HW135252   2.639   0.626   5.656
 7791SOL    HW235253   2.653   0.704   5.785
 7792SOL     OW35254   3.621   1.011   3.711
 7792SOL    HW135255   3.571   1.089   3.687
 7792SOL    HW235256   3.555   0.946   3.734
 7793SOL     OW35257   4.536   0.825  21.042
 7793SOL    HW135258   4.521   0.787  20.955
 7793SOL    HW235259   4.620   0.787  21.069
 7794SOL     OW35260   4.720   4.054   6.252
 7794SOL    HW135261   4.686   3.965   6.245
 7794SOL    HW235262   4.784   4.061   6.181
 7795SOL     OW35263   2.143   1.078  12.060
 7795SOL    HW135264   2.217   1.044  12.111
 7795SOL    HW235265   2.070   1.081  12.122
 7796SOL     OW35266   2.542   2.246  15.817
 7796SOL    HW135267   2.480   2.281  15.881
 7796SOL    HW235268   2.498   2.255  15.733
 7797SOL     OW35269   4.612   3.435   2.629
 7797SOL    HW135270   4.610   3.527   2.656
 7797SOL    HW235271   4.539   3.394   2.675
 7798SOL     OW35272   2.746   0.345  20.862
 7798SOL    HW135273   2.669   0.365  20.915
 7798SOL    HW235274   2.711   0.310  20.781
 7799SOL     OW35275   4.383   1.972   4.228
 7799SOL    HW135276   4.429   1.991   4.310
 7799SOL    HW235277   4.446   1.922   4.176
 7800SOL     OW35278   4.387   3.012  19.424
 7800SOL    HW135279   4.378   3.081  19.359
 7800SOL    HW235280   4.457   2.956  19.389
 7801SOL     OW35281   2.311   3.758   2.395
 7801SOL    HW135282   2.287   3.807   2.316
 7801SOL    HW235283   2.387   3.706   2.368
 7802SOL     OW35284   2.951   4.645   1.374
 7802SOL    HW135285   2.874   4.662   1.428
 7802SOL    HW235286   3.001   4.726   1.377
 7803SOL     OW35287   0.859   3.899   5.253
 7803SOL    HW135288   0.791   3.882   5.187
 7803SOL    HW235289   0.811   3.908   5.335
 7804SOL     OW35290   0.890   4.619  18.134
 7804SOL    HW135291   0.949   4.574  18.195
 7804SOL    HW235292   0.818   4.558  18.120
 7805SOL     OW35293   2.751   0.398   0.766
 7805SOL    HW135294   2.820   0.360   0.821
 7805SOL    HW235295   2.797   0.461   0.711
 7806SOL     OW35296   3.448   3.360  20.499
 7806SOL    HW135297   3.453   3.421  20.572
 7806SOL    HW235298   3.367   3.383  20.453
 7807SOL     OW35299   3.973   0.235  17.859
 7807SOL    HW135300   3.924   0.225  17.777
 7807SOL    HW235301   4.056   0.191  17.843
 7808SOL     OW35302   3.341   3.641  21.157
 7808SOL    HW135303   3.361   3.723  21.201
 7808SOL    HW235304   3.408   3.580  21.186
 7809SOL     OW35305   3.523   1.590  20.588
 7809SOL    HW135306   3.495   1.591  20.497
 7809SOL    HW235307   3.603   1.643  20.590
 7810SOL     OW35308   3.050   1.971   5.478
 7810SOL    HW135309   3.022   2.054   5.516
 7810SOL    HW235310   3.021   1.904   5.541
 7811SOL     OW35311   1.977   0.341   1.273
 7811SOL    HW135312   2.051   0.286   1.247
 7811SOL    HW235313   2.017   0.424   1.298
 7812SOL     OW35314   1.326   1.592  10.422
 7812SOL    HW135315   1.237   1.564  10.444
 7812SOL    HW235316   1.339   1.560  10.332
 7813SOL     OW35317   0.396   0.556   5.427
 7813SOL    HW135318   0.469   0.611   5.400
 7813SOL    HW235319   0.435   0.472   5.449
 7814SOL     OW35320   0.197   3.817   3.318
 7814SOL    HW135321   0.141   3.838   3.244
 7814SOL    HW235322   0.160   3.867   3.391
 7815SOL     OW35323   1.329   2.894  18.410
 7815SOL    HW135324   1.358   2.882  18.320
 7815SOL    HW235325   1.310   2.988  18.416
 7816SOL     OW35326   0.171   3.492   2.733
 7816SOL    HW135327   0.085   3.524   2.761
 7816SOL    HW235328   0.151   3.414   2.681
 7817SOL     OW35329   0.559   4.197   3.203
 7817SOL    HW135330   0.534   4.117   3.249
 7817SOL    HW235331   0.477   4.234   3.171
 7818SOL     OW35332   3.380   1.148   8.852
 7818SOL    HW135333   3.380   1.070   8.908
 7818SOL    HW235334   3.288   1.158   8.825
 7819SOL     OW35335   0.111   0.455  18.901
 7819SOL    HW135336   0.128   0.478  18.992
 7819SOL    HW235337   0.089   0.539  18.859
 7820SOL     OW35338   2.711   3.872  15.316
 7820SOL    HW135339   2.684   3.921  15.239
 7820SOL    HW235340   2.775   3.929  15.359
 7821SOL     OW35341   0.348   1.498   0.239
 7821SOL    HW135342   0.293   1.549   0.298
 7821SOL    HW235343   0.412   1.561   0.205
 7822SOL     OW35344   2.679   1.828  16.098
 7822SOL    HW135345   2.767   1.793  16.084
 7822SOL    HW235346   2.665   1.888  16.024
 7823SOL     OW35347   1.820   0.802  16.192
 7823SOL    HW135348   1.852   0.711  16.194
 7823SOL    HW235349   1.760   0.805  16.118
 7824SOL     OW35350   0.141   3.009   8.911
 7824SOL    HW135351   0.181   2.957   8.980
 7824SOL    HW235352   0.194   2.991   8.833
 7825SOL     OW35353   4.232   0.675  21.096
 7825SOL    HW135354   4.262   0.763  21.119
 7825SOL    HW235355   4.313   0.625  21.083
 7826SOL     OW35356   0.525   0.534   1.173
 7826SOL    HW135357   0.479   0.519   1.255
 7826SOL    HW235358   0.616   0.547   1.198
 7827SOL     OW35359   1.484   3.389  15.552
 7827SOL    HW135360   1.517   3.329  15.485
 7827SOL    HW235361   1.544   3.377  15.626
 7828SOL     OW35362   4.655   2.973  17.013
 7828SOL    HW135363   4.683   3.063  16.995
 7828SOL    HW235364   4.711   2.919  16.957
 7829SOL     OW35365   2.365   3.354  19.679
 7829SOL    HW135366   2.320   3.298  19.616
 7829SOL    HW235367   2.314   3.346  19.759
 7830SOL     OW35368   4.549   2.964   1.321
 7830SOL    HW135369   4.463   2.945   1.284
 7830SOL    HW235370   4.530   3.006   1.405
 7831SOL     OW35371   3.722   0.924   7.029
 7831SOL    HW135372   3.712   0.920   7.124
 7831SOL    HW235373   3.789   0.991   7.015
 7832SOL     OW35374   1.687   2.880   0.746
 7832SOL    HW135375   1.655   2.812   0.686
 7832SOL    HW235376   1.770   2.846   0.779
 7833SOL     OW35377   3.973   1.283  13.570
 7833SOL    HW135378   3.925   1.363  13.546
 7833SOL    HW235379   4.024   1.308  13.647
 7834SOL     OW35380   1.190   0.983  16.740
 7834SOL    HW135381   1.115   1.035  16.710
 7834SOL    HW235382   1.265   1.042  16.732
 7835SOL     OW35383   2.038   2.425  14.227
 7835SOL    HW135384   2.131   2.410  14.212
 7835SOL    HW235385   1.995   2.345  14.197
 7836SOL     OW35386   3.414   2.561  14.731
 7836SOL    HW135387   3.452   2.481  14.694
 7836SOL    HW235388   3.438   2.630  14.670
 7837SOL     OW35389   3.236   4.376   4.596
 7837SOL    HW135390   3.142   4.378   4.583
 7837SOL    HW235391   3.271   4.341   4.515
 7838SOL     OW35392   3.708   1.404  16.856
 7838SOL    HW135393   3.705   1.310  16.875
 7838SOL    HW235394   3.696   1.410  16.761
 7839SOL     OW35395   0.332   0.932   2.470
 7839SOL    HW135396   0.273   1.002   2.443
 7839SOL    HW235397   0.373   0.902   2.388
 7840SOL     OW35398   4.586   0.266   1.159
 7840SOL    HW135399   4.507   0.276   1.212
 7840SOL    HW235400   4.658   0.285   1.219
 7841SOL     OW35401   4.673   2.967  19.195
 7841SOL    HW135402   4.644   2.925  19.277
 7841SOL    HW235403   4.679   3.060  19.217
 7842SOL     OW35404   3.246   0.166  16.149
 7842SOL    HW135405   3.266   0.137  16.060
 7842SOL    HW235406   3.234   0.260  16.141
 7843SOL     OW35407   3.185   2.413  20.889
 7843SOL    HW135408   3.178   2.371  20.803
 7843SOL    HW235409   3.118   2.370  20.942
 7844SOL     OW35410   2.150   1.792   2.720
 7844SOL    HW135411   2.071   1.833   2.755
 7844SOL    HW235412   2.221   1.853   2.742
 7845SOL     OW35413   1.827   0.052  17.166
 7845SOL    HW135414   1.739   0.089  17.169
 7845SOL    HW235415   1.857   0.053  17.257
 7846SOL     OW35416   2.388   0.245  13.723
 7846SOL    HW135417   2.408   0.329  13.765
 7846SOL    HW235418   2.454   0.185  13.756
 7847SOL     OW35419   2.041   2.787   3.684
 7847SOL    HW135420   2.030   2.702   3.725
 7847SOL    HW235421   2.031   2.850   3.755
 7848SOL     OW35422   0.084   1.611   2.305
 7848SOL    HW135423   0.018   1.609   2.375
 7848SOL    HW235424   0.161   1.571   2.345
 7849SOL     OW35425   2.688   4.182  13.690
 7849SOL    HW135426   2.777   4.205  13.717
 7849SOL    HW235427   2.696   4.094  13.654
 7850SOL     OW35428   2.659   2.961  18.453
 7850SOL    HW135429   2.628   3.029  18.513
 7850SOL    HW235430   2.585   2.899  18.447
 7851SOL     OW35431   3.718   2.197   3.567
 7851SOL    HW135432   3.648   2.168   3.509
 7851SOL    HW235433   3.704   2.292   3.577
 7852SOL     OW35434   1.811   1.448   7.658
 7852SOL    HW135435   1.783   1.524   7.710
 7852SOL    HW235436   1.889   1.415   7.703
 7853SOL     OW35437   2.937   2.334  15.634
 7853SOL    HW135438   2.911   2.372  15.718
 7853SOL    HW235439   2.915   2.241  15.641
 7854SOL     OW35440   4.166   3.754   0.058
 7854SOL    HW135441   4.192   3.770   0.148
 7854SOL    HW235442   4.232   3.799   0.005
 7855SOL     OW35443   0.946   1.988  15.523
 7855SOL    HW135444   0.909   2.025  15.603
 7855SOL    HW235445   1.034   1.959  15.548
 7856SOL     OW35446   1.470   1.777   4.041
 7856SOL    HW135447   1.482   1.691   4.001
 7856SOL    HW235448   1.405   1.763   4.110
 7857SOL     OW35449   3.810   3.040   8.706
 7857SOL    HW135450   3.815   2.948   8.680
 7857SOL    HW235451   3.793   3.037   8.800
 7858SOL     OW35452   4.205   1.903   3.746
 7858SOL    HW135453   4.297   1.924   3.764
 7858SOL    HW235454   4.159   1.987   3.757
 7859SOL     OW35455   1.792   0.942   1.663
 7859SOL    HW135456   1.777   1.019   1.608
 7859SOL    HW235457   1.855   0.972   1.729
 7860SOL     OW35458   0.468   0.643   4.859
 7860SOL    HW135459   0.486   0.555   4.891
 7860SOL    HW235460   0.419   0.629   4.778
 7861SOL     OW35461   2.758   0.083  19.149
 7861SOL    HW135462   2.852   0.089  19.166
 7861SOL    HW235463   2.750   0.016  19.082
 7862SOL     OW35464   2.640   3.434  12.842
 7862SOL    HW135465   2.735   3.422  12.843
 7862SOL    HW235466   2.614   3.432  12.934
 7863SOL     OW35467   2.578   3.608  17.620
 7863SOL    HW135468   2.538   3.658  17.691
 7863SOL    HW235469   2.668   3.593  17.650
 7864SOL     OW35470   3.539   4.477   5.750
 7864SOL    HW135471   3.520   4.518   5.834
 7864SOL    HW235472   3.535   4.383   5.768
 7865SOL     OW35473   2.273   2.289  18.582
 7865SOL    HW135474   2.340   2.235  18.539
 7865SOL    HW235475   2.200   2.228  18.595
 7866SOL     OW35476   1.056   0.666  21.127
 7866SOL    HW135477   0.974   0.705  21.159
 7866SOL    HW235478   1.064   0.698  21.038
 7867SOL     OW35479   4.156   2.215  21.096
 7867SOL    HW135480   4.118   2.289  21.144
 7867SOL    HW235481   4.250   2.234  21.095
 7868SOL     OW35482   2.555   2.218  14.438
 7868SOL    HW135483   2.642   2.187  14.463
 7868SOL    HW235484   2.571   2.286  14.373
 7869SOL     OW35485   0.641   1.723  19.061
 7869SOL    HW135486   0.609   1.634  19.079
 7869SOL    HW235487   0.569   1.780  19.088
 7870SOL     OW35488   3.796   4.747   1.660
 7870SOL    HW135489   3.717   0.009   1.646
 7870SOL    HW235490   3.762   4.659   1.677
 7871SOL     OW35491   1.850   2.152  19.499
 7871SOL    HW135492   1.831   2.093  19.573
 7871SOL    HW235493   1.945   2.150  19.491
 7872SOL     OW35494   3.686   3.851  18.983
 7872SOL    HW135495   3.684   3.946  18.973
 7872SOL    HW235496   3.775   3.826  18.957
 7873SOL     OW35497   0.098   2.968   2.972
 7873SOL    HW135498   0.145   3.030   2.916
 7873SOL    HW235499   0.022   2.942   2.921
 7874SOL     OW35500   3.466   1.525  17.564
 7874SOL    HW135501   3.377   1.557  17.571
 7874SOL    HW235502   3.502   1.534  17.652
 7875SOL     OW35503   3.766   4.647   0.137
 7875SOL    HW135504   3.699   4.690   0.084
 7875SOL    HW235505   3.824   4.718   0.165
 7876SOL     OW35506   2.581   1.741   0.408
 7876SOL    HW135507   2.559   1.772   0.320
 7876SOL    HW235508   2.663   1.786   0.430
 7877SOL     OW35509   0.165   3.017   4.184
 7877SOL    HW135510   0.135   2.950   4.122
 7877SOL    HW235511   0.211   3.081   4.129
 7878SOL     OW35512   3.258   3.578  18.800
 7878SOL    HW135513   3.211   3.541  18.874
 7878SOL    HW235514   3.249   3.513  18.731
 7879SOL     OW35515   3.268   3.215   0.669
 7879SOL    HW135516   3.329   3.157   0.625
 7879SOL    HW235517   3.278   3.300   0.626
 7880SOL     OW35518   0.744   2.135   0.070
 7880SOL    HW135519   0.688   2.178   0.134
 7880SOL    HW235520   0.775   2.206   0.013
 7881SOL     OW35521   4.155   3.021   8.441
 7881SOL    HW135522   4.074   3.054   8.479
 7881SOL    HW235523   4.163   3.067   8.357
 7882SOL     OW35524   3.716   3.825   4.927
 7882SOL    HW135525   3.742   3.811   5.018
 7882SOL    HW235526   3.797   3.849   4.883
 7883SOL     OW35527   3.611   3.121  19.113
 7883SOL    HW135528   3.691   3.157  19.152
 7883SOL    HW235529   3.544   3.131  19.181
 7884SOL     OW35530   4.647   4.751  19.954
 7884SOL    HW135531   4.589   4.718  19.885
 7884SOL    HW235532   4.677   0.045  19.922
 7885SOL     OW35533   0.172   3.575  20.228
 7885SOL    HW135534   0.218   3.570  20.144
 7885SOL    HW235535   0.081   3.592  20.205
 7886SOL     OW35536   4.124   3.801  15.745
 7886SOL    HW135537   4.189   3.735  15.723
 7886SOL    HW235538   4.171   3.864  15.799
 7887SOL     OW35539   1.796   4.036  15.676
 7887SOL    HW135540   1.713   3.996  15.652
 7887SOL    HW235541   1.778   4.082  15.758
 7888SOL     OW35542   4.542   0.792  17.878
 7888SOL    HW135543   4.589   0.869  17.846
 7888SOL    HW235544   4.470   0.828  17.930
 7889SOL     OW35545   3.328   3.707  11.314
 7889SOL    HW135546   3.398   3.719  11.379
 7889SOL    HW235547   3.253   3.679  11.366
 7890SOL     OW35548   3.031   2.961  18.795
 7890SOL    HW135549   2.986   2.968  18.711
 7890SOL    HW235550   2.962   2.948  18.859
 7891SOL     OW35551   4.017   3.490   0.155
 7891SOL    HW135552   4.089   3.507   0.216
 7891SOL    HW235553   4.060   3.463   0.074
 7892SOL     OW35554   0.423   3.971  15.347
 7892SOL    HW135555   0.395   3.991  15.436
 7892SOL    HW235556   0.356   4.009  15.291
 7893SOL     OW35557   1.890   3.221  16.591
 7893SOL    HW135558   1.918   3.295  16.538
 7893SOL    HW235559   1.958   3.155  16.580
 7894SOL     OW35560   2.546   1.769  16.333
 7894SOL    HW135561   2.588   1.803  16.254
 7894SOL    HW235562   2.580   1.823  16.404
 7895SOL     OW35563   3.332   3.235   3.141
 7895SOL    HW135564   3.279   3.297   3.191
 7895SOL    HW235565   3.307   3.149   3.176
 7896SOL     OW35566   1.843   3.922   3.000
 7896SOL    HW135567   1.829   3.961   3.086
 7896SOL    HW235568   1.754   3.910   2.965
 7897SOL     OW35569   4.664   3.799  17.276
 7897SOL    HW135570   4.680   3.707  17.254
 7897SOL    HW235571   4.734   3.822  17.338
 7898SOL     OW35572   3.545   1.633   2.285
 7898SOL    HW135573   3.629   1.619   2.240
 7898SOL    HW235574   3.522   1.723   2.266
 7899SOL     OW35575   0.076   2.659  19.152
 7899SOL    HW135576   0.062   2.636  19.060
 7899SOL    HW235577   0.163   2.700  19.154
 7900SOL     OW35578   3.986   2.433  14.622
 7900SOL    HW135579   4.036   2.515  14.616
 7900SOL    HW235580   3.900   2.460  14.653
 7901SOL     OW35581   1.522   3.442   0.594
 7901SOL    HW135582   1.554   3.531   0.606
 7901SOL    HW235583   1.464   3.427   0.669
 7902SOL     OW35584   3.407   0.408   5.670
 7902SOL    HW135585   3.338   0.475   5.678
 7902SOL    HW235586   3.477   0.451   5.621
 7903SOL     OW35587   1.534   0.788  16.175
 7903SOL    HW135588   1.555   0.828  16.260
 7903SOL    HW235589   1.508   0.699  16.197
 7904SOL     OW35590   2.367   0.890  19.091
 7904SOL    HW135591   2.446   0.893  19.146
 7904SOL    HW235592   2.392   0.937  19.011
 7905SOL     OW35593   0.193   1.646   5.701
 7905SOL    HW135594   0.241   1.668   5.622
 7905SOL    HW235595   0.217   1.555   5.719
 7906SOL     OW35596   3.586   1.711   0.050
 7906SOL    HW135597   3.527   1.660  21.258
 7906SOL    HW235598   3.580   1.800   0.017
 7907SOL     OW35599   2.697   3.664  12.676
 7907SOL    HW135600   2.767   3.695  12.734
 7907SOL    HW235601   2.678   3.575  12.708
 7908SOL     OW35602   0.220   3.241  14.478
 7908SOL    HW135603   0.230   3.289  14.396
 7908SOL    HW235604   0.128   3.250  14.500
 7909SOL     OW35605   1.440   2.955  16.701
 7909SOL    HW135606   1.348   2.967  16.679
 7909SOL    HW235607   1.460   2.865  16.673
 7910SOL     OW35608   4.642   3.058  13.692
 7910SOL    HW135609   4.669   3.149  13.705
 7910SOL    HW235610   4.655   3.017  13.777
 7911SOL     OW35611   2.955   0.311   0.947
 7911SOL    HW135612   3.047   0.336   0.937
 7911SOL    HW235613   2.931   0.342   1.034
 7912SOL     OW35614   3.663   2.737   0.822
 7912SOL    HW135615   3.633   2.656   0.781
 7912SOL    HW235616   3.741   2.762   0.772
 7913SOL     OW35617   0.569   2.782   4.239
 7913SOL    HW135618   0.550   2.874   4.261
 7913SOL    HW235619   0.664   2.778   4.236
 7914SOL     OW35620   1.697   1.766  16.340
 7914SOL    HW135621   1.622   1.817  16.369
 7914SOL    HW235622   1.663   1.678  16.325
 7915SOL     OW35623   4.638   2.538  18.382
 7915SOL    HW135624   4.614   2.570  18.469
 7915SOL    HW235625   4.671   2.616  18.337
 7916SOL     OW35626   3.475   1.326  17.344
 7916SOL    HW135627   3.464   1.379  17.423
 7916SOL    HW235628   3.546   1.266  17.364
 7917SOL     OW35629   4.137   4.390   2.111
 7917SOL    HW135630   4.063   4.358   2.163
 7917SOL    HW235631   4.151   4.324   2.044
 7918SOL     OW35632   0.851   2.770  18.588
 7918SOL    HW135633   0.837   2.861  18.613
 7918SOL    HW235634   0.920   2.739  18.647
 7919SOL     OW35635   0.867   3.564  18.600
 7919SOL    HW135636   0.827   3.503  18.662
 7919SOL    HW235637   0.846   3.528  18.514
 7920SOL     OW35638   2.969   4.667  17.945
 7920SOL    HW135639   2.906   4.601  17.975
 7920SOL    HW235640   2.988   4.719  18.022
 7921SOL     OW35641   0.428   2.356  16.932
 7921SOL    HW135642   0.361   2.425  16.934
 7921SOL    HW235643   0.384   2.281  16.893
 7922SOL     OW35644   4.175   2.136   6.402
 7922SOL    HW135645   4.219   2.056   6.375
 7922SOL    HW235646   4.146   2.119   6.492
 7923SOL     OW35647   0.088   4.144   2.232
 7923SOL    HW135648   0.168   4.172   2.276
 7923SOL    HW235649   0.051   4.224   2.196
 7924SOL     OW35650   4.519   0.271  20.076
 7924SOL    HW135651   4.543   0.236  19.990
 7924SOL    HW235652   4.439   0.321  20.060
 7925SOL     OW35653   2.683   3.919  13.570
 7925SOL    HW135654   2.721   3.928  13.482
 7925SOL    HW235655   2.743   3.862  13.617
 7926SOL     OW35656   2.849   2.847   4.376
 7926SOL    HW135657   2.925   2.793   4.400
 7926SOL    HW235658   2.845   2.841   4.281
 7927SOL     OW35659   3.669   1.255  17.793
 7927SOL    HW135660   3.653   1.249  17.699
 7927SOL    HW235661   3.652   1.167  17.826
 7928SOL     OW35662   3.094   4.148  20.233
 7928SOL    HW135663   3.068   4.239  20.251
 7928SOL    HW235664   3.098   4.107  20.319
 7929SOL     OW35665   3.621   1.030  16.399
 7929SOL    HW135666   3.707   1.066  16.420
 7929SOL    HW235667   3.570   1.104  16.368
 7930SOL     OW35668   0.054   1.532  19.624
 7930SOL    HW135669   0.040   1.516  19.717
 7930SOL    HW235670   0.142   1.571  19.619
 7931SOL     OW35671   3.224   3.489   0.520
 7931SOL    HW135672   3.252   3.580   0.524
 7931SOL    HW235673   3.147   3.485   0.577
 7932SOL     OW35674   0.638   4.101   5.566
 7932SOL    HW135675   0.553   4.081   5.604
 7932SOL    HW235676   0.626   4.085   5.472
 7933SOL     OW35677   3.680   0.227  16.683
 7933SOL    HW135678   3.657   0.134  16.687
 7933SOL    HW235679   3.769   0.231  16.718
 7934SOL     OW35680   4.782   0.320  19.582
 7934SOL    HW135681   4.752   0.231  19.565
 7934SOL    HW235682   0.027   0.349  19.498
 7935SOL     OW35683   3.562   3.220   2.622
 7935SOL    HW135684   3.494   3.238   2.687
 7935SOL    HW235685   3.555   3.292   2.560
 7936SOL     OW35686   4.761   3.671  13.619
 7936SOL    HW135687   4.718   3.730  13.557
 7936SOL    HW235688   4.710   3.590  13.614
 7937SOL     OW35689   3.245   2.251  19.554
 7937SOL    HW135690   3.196   2.177  19.593
 7937SOL    HW235691   3.260   2.225  19.464
 7938SOL     OW35692   1.003   2.693  18.163
 7938SOL    HW135693   0.932   2.757  18.173
 7938SOL    HW235694   1.079   2.747  18.141
 7939SOL     OW35695   1.052   0.039  19.486
 7939SOL    HW135696   1.106   0.003  19.556
 7939SOL    HW235697   1.059   0.134  19.497
 7940SOL     OW35698   2.815   2.067   0.048
 7940SOL    HW135699   2.755   2.085   0.120
 7940SOL    HW235700   2.880   2.137   0.053
 7941SOL     OW35701   3.007   2.586   2.045
 7941SOL    HW135702   3.005   2.557   1.953
 7941SOL    HW235703   3.040   2.676   2.040
 7942SOL     OW35704   2.768   4.090  18.912
 7942SOL    HW135705   2.677   4.098  18.942
 7942SOL    HW235706   2.777   3.997  18.890
 7943SOL     OW35707   0.139   4.114  14.533
 7943SOL    HW135708   0.074   4.166  14.485
 7943SOL    HW235709   0.224   4.147  14.503
 7944SOL     OW35710   4.679   2.845  16.006
 7944SOL    HW135711   4.640   2.932  15.998
 7944SOL    HW235712   4.628   2.802  16.076
 7945SOL     OW35713   2.832   1.381  15.847
 7945SOL    HW135714   2.766   1.427  15.898
 7945SOL    HW235715   2.800   1.291  15.841
 7946SOL     OW35716   3.714   3.431   0.931
 7946SOL    HW135717   3.727   3.353   0.984
 7946SOL    HW235718   3.624   3.424   0.899
 7947SOL     OW35719   1.891   1.950   5.190
 7947SOL    HW135720   1.938   1.913   5.264
 7947SOL    HW235721   1.956   2.002   5.143
 7948SOL     OW35722   0.449   0.198   2.346
 7948SOL    HW135723   0.448   0.102   2.347
 7948SOL    HW235724   0.448   0.221   2.253
 7949SOL     OW35725   2.031   2.164  17.344
 7949SOL    HW135726   1.988   2.095  17.394
 7949SOL    HW235727   2.124   2.138  17.343
 7950SOL     OW35728   2.100   4.754   2.609
 7950SOL    HW135729   2.132   4.705   2.533
 7950SOL    HW235730   2.177   0.009   2.643
 7951SOL     OW35731   0.761   2.960   4.965
 7951SOL    HW135732   0.746   2.907   5.043
 7951SOL    HW235733   0.819   3.031   4.995
 7952SOL     OW35734   3.981   3.382   3.230
 7952SOL    HW135735   4.072   3.390   3.259
 7952SOL    HW235736   3.964   3.288   3.231
 7953SOL     OW35737   3.191   4.622  18.817
 7953SOL    HW135738   3.249   4.605  18.891
 7953SOL    HW235739   3.227   4.570  18.745
 7954SOL     OW35740   4.299   4.618  20.369
 7954SOL    HW135741   4.358   4.680  20.328
 7954SOL    HW235742   4.296   4.544  20.308
 7955SOL     OW35743   3.689   3.428   2.977
 7955SOL    HW135744   3.612   3.468   2.936
 7955SOL    HW235745   3.657   3.343   3.010
 7956SOL     OW35746   1.609   0.320   7.469
 7956SOL    HW135747   1.537   0.334   7.530
 7956SOL    HW235748   1.679   0.376   7.502
 7957SOL     OW35749   0.628   1.030  16.316
 7957SOL    HW135750   0.566   1.033  16.242
 7957SOL    HW235751   0.651   1.121  16.331
 7958SOL     OW35752   1.051   0.713  18.382
 7958SOL    HW135753   1.081   0.626  18.409
 7958SOL    HW235754   0.986   0.737  18.449
 7959SOL     OW35755   1.846   1.799   6.356
 7959SOL    HW135756   1.756   1.781   6.329
 7959SOL    HW235757   1.852   1.765   6.445
 7960SOL     OW35758   0.872   3.076   6.452
 7960SOL    HW135759   0.849   3.161   6.489
 7960SOL    HW235760   0.908   3.096   6.366
 7961SOL     OW35761   1.875   0.850  15.482
 7961SOL    HW135762   1.833   0.773  15.444
 7961SOL    HW235763   1.947   0.815  15.534
 7962SOL     OW35764   4.154   3.342   4.389
 7962SOL    HW135765   4.196   3.334   4.303
 7962SOL    HW235766   4.210   3.292   4.448
 7963SOL     OW35767   2.622   0.227  20.473
 7963SOL    HW135768   2.667   0.309  20.455
 7963SOL    HW235769   2.688   0.159  20.458
 7964SOL     OW35770   3.669   0.898   9.354
 7964SOL    HW135771   3.598   0.908   9.418
 7964SOL    HW235772   3.680   0.804   9.344
 7965SOL     OW35773   1.280   0.113   1.305
 7965SOL    HW135774   1.227   0.179   1.260
 7965SOL    HW235775   1.225   0.084   1.378
 7966SOL     OW35776   3.168   3.507   0.255
 7966SOL    HW135777   3.260   3.525   0.233
 7966SOL    HW235778   3.171   3.476   0.346
 7967SOL     OW35779   2.622   2.867   5.737
 7967SOL    HW135780   2.601   2.955   5.769
 7967SOL    HW235781   2.577   2.808   5.797
 7968SOL     OW35782   0.589   0.267  19.157
 7968SOL    HW135783   0.653   0.262  19.228
 7968SOL    HW235784   0.629   0.219  19.085
 7969SOL     OW35785   2.683   3.342  16.802
 7969SOL    HW135786   2.636   3.404  16.746
 7969SOL    HW235787   2.661   3.370  16.891
 7970SOL     OW35788   3.237   1.782  13.018
 7970SOL    HW135789   3.194   1.745  13.095
 7970SOL    HW235790   3.228   1.877  13.029
 7971SOL     OW35791   4.653   3.299  21.043
 7971SOL    HW135792   4.718   3.269  20.979
 7971SOL    HW235793   4.685   3.265  21.127
 7972SOL     OW35794   3.785   2.386  16.879
 7972SOL    HW135795   3.730   2.462  16.899
 7972SOL    HW235796   3.874   2.421  16.873
 7973SOL     OW35797   1.280   4.161  21.112
 7973SOL    HW135798   1.342   4.088  21.113
 7973SOL    HW235799   1.201   4.125  21.072
 7974SOL     OW35800   1.361   4.398   5.524
 7974SOL    HW135801   1.336   4.309   5.498
 7974SOL    HW235802   1.298   4.455   5.481
 7975SOL     OW35803   3.646   0.405   3.966
 7975SOL    HW135804   3.660   0.499   3.952
 7975SOL    HW235805   3.551   0.395   3.960
 7976SOL     OW35806   0.591   0.132  11.683
 7976SOL    HW135807   0.632   0.064  11.630
 7976SOL    HW235808   0.591   0.095  11.772
 7977SOL     OW35809   4.679   1.662  18.561
 7977SOL    HW135810   4.684   1.707  18.645
 7977SOL    HW235811   4.605   1.703  18.516
 7978SOL     OW35812   0.244   3.554  19.965
 7978SOL    HW135813   0.184   3.623  19.939
 7978SOL    HW235814   0.232   3.485  19.899
 7979SOL     OW35815   3.378   1.589  16.548
 7979SOL    HW135816   3.440   1.637  16.492
 7979SOL    HW235817   3.293   1.627  16.527
 7980SOL     OW35818   3.480   0.274   3.405
 7980SOL    HW135819   3.497   0.293   3.313
 7980SOL    HW235820   3.539   0.202   3.426
 7981SOL     OW35821   0.146   3.044  15.251
 7981SOL    HW135822   0.218   2.983  15.233
 7981SOL    HW235823   0.182   3.104  15.316
 7982SOL     OW35824   1.679   0.858   5.480
 7982SOL    HW135825   1.685   0.947   5.514
 7982SOL    HW235826   1.596   0.825   5.514
 7983SOL     OW35827   3.592   2.114   3.283
 7983SOL    HW135828   3.630   2.184   3.230
 7983SOL    HW235829   3.659   2.046   3.285
 7984SOL     OW35830   2.138   1.896   1.168
 7984SOL    HW135831   2.053   1.861   1.138
 7984SOL    HW235832   2.179   1.929   1.088
 7985SOL     OW35833   1.476   0.751   5.609
 7985SOL    HW135834   1.523   0.675   5.576
 7985SOL    HW235835   1.465   0.735   5.702
 7986SOL     OW35836   2.735   2.135   3.172
 7986SOL    HW135837   2.772   2.115   3.258
 7986SOL    HW235838   2.779   2.074   3.112
 7987SOL     OW35839   2.382   1.860  17.219
 7987SOL    HW135840   2.423   1.810  17.290
 7987SOL    HW235841   2.420   1.825  17.139
 7988SOL     OW35842   1.506   0.993   8.718
 7988SOL    HW135843   1.571   1.021   8.653
 7988SOL    HW235844   1.422   1.006   8.675
 7989SOL     OW35845   1.903   3.247  16.219
 7989SOL    HW135846   1.926   3.316  16.157
 7989SOL    HW235847   1.809   3.257  16.232
 7990SOL     OW35848   3.677   1.830   1.704
 7990SOL    HW135849   3.772   1.823   1.711
 7990SOL    HW235850   3.655   1.788   1.621
 7991SOL     OW35851   0.809   4.475  15.516
 7991SOL    HW135852   0.764   4.473  15.432
 7991SOL    HW235853   0.746   4.437  15.578
 7992SOL     OW35854   4.667   1.690  17.715
 7992SOL    HW135855   4.746   1.694  17.770
 7992SOL    HW235856   4.688   1.744  17.639
 7993SOL     OW35857   4.581   0.554  16.033
 7993SOL    HW135858   4.510   0.613  16.057
 7993SOL    HW235859   4.601   0.507  16.114
 7994SOL     OW35860   3.410   4.476  14.801
 7994SOL    HW135861   3.475   4.531  14.758
 7994SOL    HW235862   3.460   4.403  14.837
 7995SOL     OW35863   4.485   2.108  16.445
 7995SOL    HW135864   4.520   2.032  16.492
 7995SOL    HW235865   4.424   2.071  16.381
 7996SOL     OW35866   0.592   4.599  12.877
 7996SOL    HW135867   0.599   4.625  12.785
 7996SOL    HW235868   0.668   4.544  12.892
 7997SOL     OW35869   3.425   2.270  16.656
 7997SOL    HW135870   3.512   2.236  16.677
 7997SOL    HW235871   3.364   2.210  16.700
 7998SOL     OW35872   2.949   0.794  19.761
 7998SOL    HW135873   2.953   0.874  19.813
 7998SOL    HW235874   3.021   0.802  19.698
 7999SOL     OW35875   4.241   3.518   0.768
 7999SOL    HW135876   4.293   3.511   0.688
 7999SOL    HW235877   4.214   3.428   0.787
 8000SOL     OW35878   4.508   3.301   1.094
 8000SOL    HW135879   4.572   3.357   1.139
 8000SOL    HW235880   4.534   3.305   1.002
 8001SOL     OW35881   2.337   4.075  17.626
 8001SOL    HW135882   2.304   4.054  17.713
 8001SOL    HW235883   2.278   4.029  17.566
 8002SOL     OW35884   2.652   0.743   2.897
 8002SOL    HW135885   2.675   0.807   2.965
 8002SOL    HW235886   2.613   0.796   2.827
 8003SOL     OW35887   2.900   2.726   3.474
 8003SOL    HW135888   2.971   2.787   3.452
 8003SOL    HW235889   2.848   2.720   3.394
 8004SOL     OW35890   2.000   3.339  17.256
 8004SOL    HW135891   1.987   3.244  17.264
 8004SOL    HW235892   2.094   3.351  17.269
 8005SOL     OW35893   3.618   2.699   6.612
 8005SOL    HW135894   3.529   2.714   6.582
 8005SOL    HW235895   3.609   2.651   6.694
 8006SOL     OW35896   0.956   3.292   1.295
 8006SOL    HW135897   0.987   3.286   1.205
 8006SOL    HW235898   0.863   3.313   1.287
 8007SOL     OW35899   3.382   1.118  17.642
 8007SOL    HW135900   3.364   1.069  17.722
 8007SOL    HW235901   3.380   1.053  17.572
 8008SOL     OW35902   2.168   3.659   6.899
 8008SOL    HW135903   2.155   3.578   6.849
 8008SOL    HW235904   2.209   3.631   6.981
 8009SOL     OW35905   0.734   3.509   6.759
 8009SOL    HW135906   0.726   3.535   6.850
 8009SOL    HW235907   0.675   3.568   6.711
 8010SOL     OW35908   0.864   4.155   0.852
 8010SOL    HW135909   0.852   4.118   0.939
 8010SOL    HW235910   0.812   4.098   0.794
 8011SOL     OW35911   2.293   0.189  16.667
 8011SOL    HW135912   2.375   0.217  16.708
 8011SOL    HW235913   2.230   0.257  16.692
 8012SOL     OW35914   3.997   0.829   5.765
 8012SOL    HW135915   4.007   0.737   5.739
 8012SOL    HW235916   3.978   0.825   5.859
 8013SOL     OW35917   3.177   2.331  19.080
 8013SOL    HW135918   3.213   2.379  19.005
 8013SOL    HW235919   3.219   2.371  19.156
 8014SOL     OW35920   0.878   0.590  18.180
 8014SOL    HW135921   0.920   0.636  18.252
 8014SOL    HW235922   0.882   0.652  18.107
 8015SOL     OW35923   2.451   2.629  20.438
 8015SOL    HW135924   2.471   2.620  20.345
 8015SOL    HW235925   2.364   2.669  20.439
 8016SOL     OW35926   4.781   4.406  14.141
 8016SOL    HW135927   0.080   4.424  14.167
 8016SOL    HW235928   4.729   4.469  14.190
 8017SOL     OW35929   3.961   2.425   5.097
 8017SOL    HW135930   4.050   2.390   5.108
 8017SOL    HW235931   3.920   2.366   5.034
 8018SOL     OW35932   3.451   3.515   4.049
 8018SOL    HW135933   3.452   3.468   4.132
 8018SOL    HW235934   3.400   3.594   4.067
 8019SOL     OW35935   0.058   2.332  20.220
 8019SOL    HW135936   0.019   2.283  20.292
 8019SOL    HW235937   0.073   2.420  20.256
 8020SOL     OW35938   0.542   2.385   3.896
 8020SOL    HW135939   0.533   2.290   3.891
 8020SOL    HW235940   0.596   2.400   3.974
 8021SOL     OW35941   2.125   0.560  17.160
 8021SOL    HW135942   2.100   0.633  17.216
 8021SOL    HW235943   2.041   0.524  17.130
 8022SOL     OW35944   3.468   3.842  14.652
 8022SOL    HW135945   3.540   3.811  14.708
 8022SOL    HW235946   3.511   3.889  14.581
 8023SOL     OW35947   0.835   0.963  19.454
 8023SOL    HW135948   0.908   1.006  19.410
 8023SOL    HW235949   0.782   1.035  19.488
 8024SOL     OW35950   3.366   2.012   1.594
 8024SOL    HW135951   3.354   1.939   1.533
 8024SOL    HW235952   3.296   2.001   1.659
 8025SOL     OW35953   0.133   0.698  18.810
 8025SOL    HW135954   0.067   0.766  18.796
 8025SOL    HW235955   0.195   0.738  18.870
 8026SOL     OW35956   2.475   4.034  20.403
 8026SOL    HW135957   2.484   3.948  20.443
 8026SOL    HW235958   2.386   4.062  20.424
 8027SOL     OW35959   2.720   4.672  12.801
 8027SOL    HW135960   2.631   4.705  12.816
 8027SOL    HW235961   2.773   4.712  12.870
 8028SOL     OW35962   0.528   0.097  14.761
 8028SOL    HW135963   0.500   0.054  14.680
 8028SOL    HW235964   0.447   0.117  14.808
 8029SOL     OW35965   4.341   0.826   0.749
 8029SOL    HW135966   4.352   0.880   0.671
 8029SOL    HW235967   4.290   0.751   0.719
 8030SOL     OW35968   4.249   1.210  15.595
 8030SOL    HW135969   4.281   1.120  15.595
 8030SOL    HW235970   4.228   1.228  15.686
 8031SOL     OW35971   0.259   1.263  15.110
 8031SOL    HW135972   0.257   1.271  15.015
 8031SOL    HW235973   0.175   1.298  15.139
 8032SOL     OW35974   1.444   3.839  17.574
 8032SOL    HW135975   1.375   3.894  17.610
 8032SOL    HW235976   1.476   3.887  17.498
 8033SOL     OW35977   3.129   0.868  19.578
 8033SOL    HW135978   3.160   0.879  19.488
 8033SOL    HW235979   3.058   0.932  19.587
 8034SOL     OW35980   3.384   3.972   0.754
 8034SOL    HW135981   3.454   4.033   0.731
 8034SOL    HW235982   3.304   4.024   0.751
 8035SOL     OW35983   1.594   2.810  12.678
 8035SOL    HW135984   1.625   2.778  12.593
 8035SOL    HW235985   1.614   2.739  12.738
 8036SOL     OW35986   0.694   2.889   3.681
 8036SOL    HW135987   0.717   2.955   3.615
 8036SOL    HW235988   0.598   2.885   3.679
 8037SOL     OW35989   2.655   1.846   3.323
 8037SOL    HW135990   2.733   1.809   3.364
 8037SOL    HW235991   2.684   1.874   3.236
 8038SOL     OW35992   1.470   4.329  20.950
 8038SOL    HW135993   1.396   4.275  20.977
 8038SOL    HW235994   1.547   4.274  20.968
 8039SOL     OW35995   2.518   1.638   1.486
 8039SOL    HW135996   2.569   1.718   1.475
 8039SOL    HW235997   2.467   1.631   1.405
 8040SOL     OW35998   1.219   0.646  14.714
 8040SOL    HW135999   1.274   0.722  14.731
 8040SOL    HW236000   1.129   0.676  14.728
 8041SOL     OW36001   0.569   4.773  17.201
 8041SOL    HW136002   0.485   0.024  17.183
 8041SOL    HW236003   0.631   0.027  17.144
 8042SOL     OW36004   3.130   3.662  16.819
 8042SOL    HW136005   3.060   3.697  16.764
 8042SOL    HW236006   3.157   3.736  16.873
 8043SOL     OW36007   3.266   0.374   5.209
 8043SOL    HW136008   3.185   0.354   5.256
 8043SOL    HW236009   3.290   0.462   5.239
 8044SOL     OW36010   0.890   0.965   2.486
 8044SOL    HW136011   0.929   0.995   2.568
 8044SOL    HW236012   0.943   1.005   2.417
 8045SOL     OW36013   4.335   2.415   0.499
 8045SOL    HW136014   4.426   2.386   0.493
 8045SOL    HW236015   4.337   2.484   0.565
 8046SOL     OW36016   1.423   1.155   1.047
 8046SOL    HW136017   1.346   1.211   1.033
 8046SOL    HW236018   1.386   1.068   1.066
 8047SOL     OW36019   2.406   1.727  15.549
 8047SOL    HW136020   2.410   1.661  15.480
 8047SOL    HW236021   2.329   1.780  15.528
 8048SOL     OW36022   3.721   3.446   1.403
 8048SOL    HW136023   3.792   3.408   1.351
 8048SOL    HW236024   3.707   3.532   1.364
 8049SOL     OW36025   4.185   2.817  19.154
 8049SOL    HW136026   4.174   2.854  19.066
 8049SOL    HW236027   4.197   2.724  19.139
 8050SOL     OW36028   3.275   2.757  20.548
 8050SOL    HW136029   3.226   2.739  20.628
 8050SOL    HW236030   3.208   2.791  20.487
 8051SOL     OW36031   4.474   4.586  14.957
 8051SOL    HW136032   4.489   4.631  15.040
 8051SOL    HW236033   4.426   4.507  14.981
 8052SOL     OW36034   2.836   0.319  20.052
 8052SOL    HW136035   2.801   0.406  20.070
 8052SOL    HW236036   2.765   0.259  20.074
 8053SOL     OW36037   2.721   2.997   1.425
 8053SOL    HW136038   2.673   3.073   1.459
 8053SOL    HW236039   2.713   3.003   1.330
 8054SOL     OW36040   3.989   1.598  17.564
 8054SOL    HW136041   4.018   1.535  17.498
 8054SOL    HW236042   3.896   1.577  17.578
 8055SOL     OW36043   3.318   1.630   6.460
 8055SOL    HW136044   3.315   1.558   6.523
 8055SOL    HW236045   3.304   1.588   6.375
 8056SOL     OW36046   1.723   0.847   2.633
 8056SOL    HW136047   1.633   0.861   2.604
 8056SOL    HW236048   1.765   0.932   2.622
 8057SOL     OW36049   1.471   2.954   6.811
 8057SOL    HW136050   1.384   2.931   6.781
 8057SOL    HW236051   1.530   2.913   6.748
 8058SOL     OW36052   3.468   0.681   5.902
 8058SOL    HW136053   3.399   0.624   5.869
 8058SOL    HW236054   3.436   0.710   5.987
 8059SOL     OW36055   1.762   1.236   3.411
 8059SOL    HW136056   1.778   1.178   3.337
 8059SOL    HW236057   1.685   1.288   3.385
 8060SOL     OW36058   3.190   0.888   6.032
 8060SOL    HW136059   3.253   0.898   5.960
 8060SOL    HW236060   3.171   0.978   6.060
 8061SOL     OW36061   2.831   4.594  20.589
 8061SOL    HW136062   2.811   4.651  20.664
 8061SOL    HW236063   2.840   4.507  20.627
 8062SOL     OW36064   1.256   4.504  17.415
 8062SOL    HW136065   1.295   4.531  17.498
 8062SOL    HW236066   1.201   4.428  17.438
 8063SOL     OW36067   0.231   4.549   5.465
 8063SOL    HW136068   0.238   4.643   5.481
 8063SOL    HW236069   0.225   4.511   5.553
 8064SOL     OW36070   4.281   1.526  15.201
 8064SOL    HW136071   4.240   1.499  15.284
 8064SOL    HW236072   4.325   1.609  15.222
 8065SOL     OW36073   4.373   3.082  20.980
 8065SOL    HW136074   4.423   3.125  20.911
 8065SOL    HW236075   4.299   3.140  20.997
 8066SOL     OW36076   3.837   4.114  16.444
 8066SOL    HW136077   3.853   4.094  16.536
 8066SOL    HW236078   3.742   4.109  16.434
 8067SOL     OW36079   0.491   2.746  14.862
 8067SOL    HW136080   0.426   2.682  14.833
 8067SOL    HW236081   0.556   2.693  14.909
 8068SOL     OW36082   0.134   4.524   4.578
 8068SOL    HW136083   0.111   4.453   4.639
 8068SOL    HW236084   0.218   4.556   4.610
 8069SOL     OW36085   1.090   1.939   6.090
 8069SOL    HW136086   1.104   1.985   6.173
 8069SOL    HW236087   1.085   1.847   6.114
 8070SOL     OW36088   4.167   4.635   3.694
 8070SOL    HW136089   4.211   4.719   3.682
 8070SOL    HW236090   4.080   4.647   3.656
 8071SOL     OW36091   3.012   3.591  20.511
 8071SOL    HW136092   3.038   3.530  20.580
 8071SOL    HW236093   2.966   3.661  20.557
 8072SOL     OW36094   2.637   1.442   3.407
 8072SOL    HW136095   2.548   1.467   3.431
 8072SOL    HW236096   2.663   1.378   3.473
 8073SOL     OW36097   2.215   4.364   3.025
 8073SOL    HW136098   2.186   4.278   2.994
 8073SOL    HW236099   2.147   4.425   2.996
 8074SOL     OW36100   2.008   2.096  16.274
 8074SOL    HW136101   1.994   2.164  16.209
 8074SOL    HW236102   2.101   2.104  16.297
 8075SOL     OW36103   4.417   4.136  15.886
 8075SOL    HW136104   4.391   4.123  15.795
 8075SOL    HW236105   4.373   4.217  15.912
 8076SOL     OW36106   4.207   4.691  19.532
 8076SOL    HW136107   4.170   4.605  19.512
 8076SOL    HW236108   4.300   4.675  19.546
 8077SOL     OW36109   4.367   3.679   0.482
 8077SOL    HW136110   4.315   3.745   0.528
 8077SOL    HW236111   4.455   3.688   0.518
 8078SOL     OW36112   1.487   2.566   4.358
 8078SOL    HW136113   1.429   2.637   4.332
 8078SOL    HW236114   1.562   2.609   4.399
 8079SOL     OW36115   1.151   3.028   2.977
 8079SOL    HW136116   1.143   3.077   2.895
 8079SOL    HW236117   1.181   2.941   2.950
 8080SOL     OW36118   4.059   4.427  19.705
 8080SOL    HW136119   4.022   4.458  19.623
 8080SOL    HW236120   3.986   4.385  19.750
 8081SOL     OW36121   1.713   4.426   1.823
 8081SOL    HW136122   1.633   4.478   1.833
 8081SOL    HW236123   1.754   4.461   1.744
 8082SOL     OW36124   0.108   2.960  15.650
 8082SOL    HW136125   0.059   3.040  15.667
 8082SOL    HW236126   0.041   2.898  15.620
 8083SOL     OW36127   0.044   0.303  18.660
 8083SOL    HW136128   0.073   0.340  18.744
 8083SOL    HW236129   0.049   0.376  18.599
 8084SOL     OW36130   3.336   0.832   0.433
 8084SOL    HW136131   3.264   0.769   0.439
 8084SOL    HW236132   3.371   0.821   0.344
 8085SOL     OW36133   3.630   0.046   3.948
 8085SOL    HW136134   3.592   0.127   3.914
 8085SOL    HW236135   3.691   0.018   3.880
 8086SOL     OW36136   3.809   2.293  19.969
 8086SOL    HW136137   3.760   2.369  20.002
 8086SOL    HW236138   3.880   2.281  20.032
 8087SOL     OW36139   2.931   1.800   0.608
 8087SOL    HW136140   2.922   1.711   0.644
 8087SOL    HW236141   2.865   1.851   0.655
 8088SOL     OW36142   3.869   2.451  20.346
 8088SOL    HW136143   3.890   2.542  20.369
 8088SOL    HW236144   3.808   2.459  20.272
 8089SOL     OW36145   1.536   2.079  18.457
 8089SOL    HW136146   1.473   2.152  18.459
 8089SOL    HW236147   1.574   2.078  18.545
 8090SOL     OW36148   1.919   4.195   3.001
 8090SOL    HW136149   1.827   4.171   2.991
 8090SOL    HW236150   1.935   4.187   3.095
 8091SOL     OW36151   1.786   2.813   5.109
 8091SOL    HW136152   1.814   2.839   5.197
 8091SOL    HW236153   1.861   2.836   5.053
 8092SOL     OW36154   2.519   1.103  17.417
 8092SOL    HW136155   2.500   1.014  17.386
 8092SOL    HW236156   2.584   1.137  17.355
 8093SOL     OW36157   2.264   0.855  17.746
 8093SOL    HW136158   2.330   0.882  17.809
 8093SOL    HW236159   2.199   0.925  17.748
 8094SOL     OW36160   2.217   2.935  19.209
 8094SOL    HW136161   2.303   2.922  19.170
 8094SOL    HW236162   2.172   2.852  19.197
 8095SOL     OW36163   4.539   0.220   6.369
 8095SOL    HW136164   4.452   0.181   6.376
 8095SOL    HW236165   4.548   0.243   6.276
 8096SOL     OW36166   1.121   1.347  18.322
 8096SOL    HW136167   1.111   1.312  18.233
 8096SOL    HW236168   1.114   1.270  18.379
 8097SOL     OW36169   0.999   2.222  17.882
 8097SOL    HW136170   0.980   2.236  17.789
 8097SOL    HW236171   0.967   2.301  17.925
 8098SOL     OW36172   0.620   4.650   2.600
 8098SOL    HW136173   0.530   4.682   2.603
 8098SOL    HW236174   0.624   4.582   2.667
 8099SOL     OW36175   1.852   3.455   3.492
 8099SOL    HW136176   1.795   3.393   3.447
 8099SOL    HW236177   1.938   3.442   3.454
 8100SOL     OW36178   4.647   4.456   4.351
 8100SOL    HW136179   4.591   4.392   4.395
 8100SOL    HW236180   4.633   4.440   4.258
 8101SOL     OW36181   0.029   3.504  17.506
 8101SOL    HW136182   4.790   3.430  17.454
 8101SOL    HW236183   4.791   3.484  17.595
 8102SOL     OW36184   3.664   2.514  20.850
 8102SOL    HW136185   3.756   2.487  20.855
 8102SOL    HW236186   3.620   2.457  20.913
 8103SOL     OW36187   4.555   2.904  18.733
 8103SOL    HW136188   4.502   2.841  18.782
 8103SOL    HW236189   4.624   2.851  18.692
 8104SOL     OW36190   2.174   1.575   5.780
 8104SOL    HW136191   2.101   1.538   5.731
 8104SOL    HW236192   2.166   1.670   5.766
 8105SOL     OW36193   0.766   1.871   1.085
 8105SOL    HW136194   0.712   1.909   1.015
 8105SOL    HW236195   0.823   1.809   1.039
 8106SOL     OW36196   1.950   4.594  15.606
 8106SOL    HW136197   1.897   4.666  15.641
 8106SOL    HW236198   1.982   4.627  15.521
 8107SOL     OW36199   0.334   2.275   4.124
 8107SOL    HW136200   0.363   2.190   4.090
 8107SOL    HW236201   0.280   2.311   4.055
 8108SOL     OW36202   2.198   2.624   0.419
 8108SOL    HW136203   2.184   2.542   0.467
 8108SOL    HW236204   2.217   2.689   0.486
 8109SOL     OW36205   1.324   3.205   2.292
 8109SOL    HW136206   1.360   3.243   2.212
 8109SOL    HW236207   1.386   3.229   2.361
 8110SOL     OW36208   3.702   1.901   5.547
 8110SOL    HW136209   3.703   1.887   5.453
 8110SOL    HW236210   3.693   1.996   5.557
 8111SOL     OW36211   2.764   4.731   3.574
 8111SOL    HW136212   2.729   4.679   3.501
 8111SOL    HW236213   2.759   0.031   3.544
 8112SOL     OW36214   0.864   2.236   1.932
 8112SOL    HW136215   0.886   2.224   2.024
 8112SOL    HW236216   0.798   2.306   1.932
 8113SOL     OW36217   0.065   3.687   0.991
 8113SOL    HW136218   0.047   3.696   1.085
 8113SOL    HW236219   0.099   3.772   0.965
 8114SOL     OW36220   2.831   0.868   2.391
 8114SOL    HW136221   2.907   0.841   2.441
 8114SOL    HW236222   2.798   0.945   2.437
 8115SOL     OW36223   2.992   3.744   4.260
 8115SOL    HW136224   2.964   3.656   4.284
 8115SOL    HW236225   3.063   3.730   4.198
 8116SOL     OW36226   4.159   1.947   4.615
 8116SOL    HW136227   4.108   1.943   4.534
 8116SOL    HW236228   4.242   1.903   4.593
 8117SOL     OW36229   1.689   2.671  14.586
 8117SOL    HW136230   1.654   2.604  14.644
 8117SOL    HW236231   1.721   2.623  14.510
 8118SOL     OW36232   2.503   0.963  16.970
 8118SOL    HW136233   2.478   0.896  17.034
 8118SOL    HW236234   2.473   0.929  16.886
 8119SOL     OW36235   4.638   1.953  16.726
 8119SOL    HW136236   4.670   1.925  16.811
 8119SOL    HW236237   4.638   2.049  16.732
 8120SOL     OW36238   3.041   0.787  18.576
 8120SOL    HW136239   3.020   0.863  18.521
 8120SOL    HW236240   3.006   0.712  18.528
 8121SOL     OW36241   0.059   3.259  15.075
 8121SOL    HW136242   0.072   3.197  15.146
 8121SOL    HW236243   0.053   3.205  14.996
 8122SOL     OW36244   2.037   1.746   3.633
 8122SOL    HW136245   2.066   1.713   3.548
 8122SOL    HW236246   1.959   1.797   3.614
 8123SOL     OW36247   2.938   0.882   1.349
 8123SOL    HW136248   2.954   0.957   1.292
 8123SOL    HW236249   2.969   0.806   1.299
 8124SOL     OW36250   1.945   3.123   6.091
 8124SOL    HW136251   1.863   3.086   6.124
 8124SOL    HW236252   1.981   3.054   6.035
 8125SOL     OW36253   2.110   4.777   8.708
 8125SOL    HW136254   2.090   4.687   8.683
 8125SOL    HW236255   2.060   0.041   8.647
 8126SOL     OW36256   0.575   1.262   5.594
 8126SOL    HW136257   0.603   1.269   5.503
 8126SOL    HW236258   0.633   1.197   5.633
 8127SOL     OW36259   3.987   3.046  19.862
 8127SOL    HW136260   3.938   3.120  19.897
 8127SOL    HW236261   4.070   3.084  19.831
 8128SOL     OW36262   3.282   0.248   4.773
 8128SOL    HW136263   3.252   0.238   4.683
 8128SOL    HW236264   3.239   0.177   4.821
 8129SOL     OW36265   2.166   1.540   6.286
 8129SOL    HW136266   2.078   1.518   6.317
 8129SOL    HW236267   2.177   1.489   6.206
 8130SOL     OW36268   4.787   4.402   1.100
 8130SOL    HW136269   0.052   4.343   1.049
 8130SOL    HW236270   4.708   4.351   1.118
 8131SOL     OW36271   2.248   4.489  16.033
 8131SOL    HW136272   2.233   4.497  15.939
 8131SOL    HW236273   2.199   4.561  16.071
 8132SOL     OW36274   0.649   1.363  15.161
 8132SOL    HW136275   0.676   1.303  15.091
 8132SOL    HW236276   0.555   1.377  15.146
 8133SOL     OW36277   1.392   2.304   4.287
 8133SOL    HW136278   1.405   2.253   4.207
 8133SOL    HW236279   1.438   2.386   4.271
 8134SOL     OW36280   3.531   1.511  16.060
 8134SOL    HW136281   3.567   1.591  16.098
 8134SOL    HW236282   3.472   1.541  15.991
 8135SOL     OW36283   1.951   1.097   0.868
 8135SOL    HW136284   1.862   1.079   0.836
 8135SOL    HW236285   2.008   1.048   0.809
 8136SOL     OW36286   0.779   1.120  15.075
 8136SOL    HW136287   0.793   1.070  15.155
 8136SOL    HW236288   0.819   1.068  15.006
 8137SOL     OW36289   3.637   4.238  20.509
 8137SOL    HW136290   3.671   4.290  20.437
 8137SOL    HW236291   3.702   4.170  20.523
 8138SOL     OW36292   2.260   3.647  21.237
 8138SOL    HW136293   2.234   3.555  21.226
 8138SOL    HW236294   2.209   3.677   0.050
 8139SOL     OW36295   2.573   0.595  16.965
 8139SOL    HW136296   2.643   0.653  16.995
 8139SOL    HW236297   2.493   0.636  16.997
 8140SOL     OW36298   1.867   4.411  16.222
 8140SOL    HW136299   1.826   4.472  16.283
 8140SOL    HW236300   1.872   4.459  16.139
 8141SOL     OW36301   3.579   4.656  15.883
 8141SOL    HW136302   3.611   4.568  15.901
 8141SOL    HW236303   3.592   4.668  15.788
 8142SOL     OW36304   0.564   0.339  16.567
 8142SOL    HW136305   0.594   0.319  16.656
 8142SOL    HW236306   0.640   0.378  16.525
 8143SOL     OW36307   0.946   4.786   6.178
 8143SOL    HW136308   0.967   0.041   6.260
 8143SOL    HW236309   0.850   4.784   6.175
 8144SOL     OW36310   4.429   0.061   1.712
 8144SOL    HW136311   4.449   0.138   1.765
 8144SOL    HW236312   4.339   0.075   1.682
 8145SOL     OW36313   0.762   3.671  18.964
 8145SOL    HW136314   0.702   3.735  19.001
 8145SOL    HW236315   0.826   3.655  19.033
 8146SOL     OW36316   1.919   0.915   7.634
 8146SOL    HW136317   1.891   0.961   7.713
 8146SOL    HW236318   1.900   0.976   7.563
 8147SOL     OW36319   4.110   2.580   6.469
 8147SOL    HW136320   4.141   2.647   6.530
 8147SOL    HW236321   4.082   2.629   6.392
 8148SOL     OW36322   2.519   1.440   5.699
 8148SOL    HW136323   2.514   1.351   5.733
 8148SOL    HW236324   2.508   1.431   5.604
 8149SOL     OW36325   1.476   0.363   5.396
 8149SOL    HW136326   1.526   0.441   5.420
 8149SOL    HW236327   1.405   0.360   5.460
 8150SOL     OW36328   0.885   4.174   1.215
 8150SOL    HW136329   0.842   4.110   1.158
 8150SOL    HW236330   0.894   4.129   1.299
 8151SOL     OW36331   1.476   1.570   4.867
 8151SOL    HW136332   1.564   1.535   4.857
 8151SOL    HW236333   1.421   1.513   4.812
 8152SOL     OW36334   3.631   3.407  16.487
 8152SOL    HW136335   3.642   3.358  16.569
 8152SOL    HW236336   3.679   3.489  16.502
 8153SOL     OW36337   2.964   1.311   3.097
 8153SOL    HW136338   3.049   1.351   3.114
 8153SOL    HW236339   2.980   1.250   3.025
 8154SOL     OW36340   2.256   1.504  19.244
 8154SOL    HW136341   2.234   1.524  19.335
 8154SOL    HW236342   2.322   1.435  19.250
 8155SOL     OW36343   3.230   1.798   4.599
 8155SOL    HW136344   3.206   1.868   4.538
 8155SOL    HW236345   3.300   1.750   4.555
 8156SOL     OW36346   4.227   1.066   5.955
 8156SOL    HW136347   4.178   1.056   6.037
 8156SOL    HW236348   4.271   0.982   5.943
 8157SOL     OW36349   4.022   0.341   1.056
 8157SOL    HW136350   4.086   0.410   1.071
 8157SOL    HW236351   3.964   0.376   0.988
 8158SOL     OW36352   2.775   1.437   4.316
 8158SOL    HW136353   2.697   1.420   4.262
 8158SOL    HW236354   2.845   1.391   4.270
 8159SOL     OW36355   0.487   3.380   3.869
 8159SOL    HW136356   0.561   3.386   3.928
 8159SOL    HW236357   0.511   3.312   3.806
 8160SOL     OW36358   4.477   1.658  16.929
 8160SOL    HW136359   4.433   1.573  16.924
 8160SOL    HW236360   4.440   1.708  16.857
 8161SOL     OW36361   0.699   0.265   2.476
 8161SOL    HW136362   0.646   0.322   2.532
 8161SOL    HW236363   0.639   0.197   2.447
 8162SOL     OW36364   2.720   2.642  15.402
 8162SOL    HW136365   2.664   2.693  15.461
 8162SOL    HW236366   2.788   2.704  15.375
 8163SOL     OW36367   0.358   0.649   4.623
 8163SOL    HW136368   0.396   0.583   4.565
 8163SOL    HW236369   0.267   0.657   4.594
 8164SOL     OW36370   2.284   3.228   8.678
 8164SOL    HW136371   2.375   3.256   8.677
 8164SOL    HW236372   2.257   3.239   8.769
 8165SOL     OW36373   0.950   1.643   2.439
 8165SOL    HW136374   0.983   1.718   2.488
 8165SOL    HW236375   0.964   1.568   2.497
 8166SOL     OW36376   3.070   2.681  20.703
 8166SOL    HW136377   3.043   2.645  20.619
 8166SOL    HW236378   3.084   2.605  20.759
 8167SOL     OW36379   0.357   4.094   3.430
 8167SOL    HW136380   0.324   4.181   3.411
 8167SOL    HW236381   0.280   4.044   3.456
 8168SOL     OW36382   2.562   4.403   5.965
 8168SOL    HW136383   2.566   4.412   5.869
 8168SOL    HW236384   2.653   4.397   5.992
 8169SOL     OW36385   1.373   2.878  12.567
 8169SOL    HW136386   1.328   2.923  12.638
 8169SOL    HW236387   1.452   2.842  12.608
 8170SOL     OW36388   2.212   4.389  17.781
 8170SOL    HW136389   2.136   4.334  17.800
 8170SOL    HW236390   2.282   4.327  17.758
 8171SOL     OW36391   4.038   1.155   3.302
 8171SOL    HW136392   3.953   1.190   3.328
 8171SOL    HW236393   4.054   1.083   3.363
 8172SOL     OW36394   4.687   2.738   5.001
 8172SOL    HW136395   4.606   2.784   5.023
 8172SOL    HW236396   4.659   2.668   4.942
 8173SOL     OW36397   2.239   3.786  16.337
 8173SOL    HW136398   2.235   3.845  16.413
 8173SOL    HW236399   2.298   3.716  16.366
 8174SOL     OW36400   0.603   4.409  17.551
 8174SOL    HW136401   0.641   4.402  17.639
 8174SOL    HW236402   0.529   4.468  17.561
 8175SOL     OW36403   0.344   2.282  16.398
 8175SOL    HW136404   0.336   2.201  16.347
 8175SOL    HW236405   0.390   2.256  16.478
 8176SOL     OW36406   2.532   4.304   3.236
 8176SOL    HW136407   2.499   4.246   3.167
 8176SOL    HW236408   2.573   4.245   3.299
 8177SOL     OW36409   1.098   0.197  14.069
 8177SOL    HW136410   1.138   0.196  13.982
 8177SOL    HW236411   1.122   0.282  14.105
 8178SOL     OW36412   2.988   3.904  17.684
 8178SOL    HW136413   2.972   3.928  17.592
 8178SOL    HW236414   2.919   3.949  17.733
 8179SOL     OW36415   1.913   0.041   0.585
 8179SOL    HW136416   1.943   0.132   0.593
 8179SOL    HW236417   1.954   0.009   0.504
 8180SOL     OW36418   3.655   1.533   2.847
 8180SOL    HW136419   3.631   1.598   2.781
 8180SOL    HW236420   3.599   1.458   2.828
 8181SOL     OW36421   1.434   2.315   6.016
 8181SOL    HW136422   1.456   2.245   5.955
 8181SOL    HW236423   1.504   2.380   6.005
 8182SOL     OW36424   4.770   2.738  15.537
 8182SOL    HW136425   0.006   2.676  15.469
 8182SOL    HW236426   4.687   2.703  15.570
 8183SOL     OW36427   3.198   0.497   2.908
 8183SOL    HW136428   3.281   0.451   2.899
 8183SOL    HW236429   3.194   0.556   2.833
 8184SOL     OW36430   2.896   4.029   1.026
 8184SOL    HW136431   2.850   3.965   0.972
 8184SOL    HW236432   2.880   4.000   1.116
 8185SOL     OW36433   2.314   0.726  17.045
 8185SOL    HW136434   2.235   0.675  17.060
 8185SOL    HW236435   2.297   0.773  16.963
 8186SOL     OW36436   2.839   2.068   5.019
 8186SOL    HW136437   2.855   2.011   4.944
 8186SOL    HW236438   2.768   2.126   4.991
 8187SOL     OW36439   1.826   1.364   1.870
 8187SOL    HW136440   1.904   1.389   1.919
 8187SOL    HW236441   1.860   1.329   1.787
 8188SOL     OW36442   3.743   2.617   4.203
 8188SOL    HW136443   3.784   2.619   4.290
 8188SOL    HW236444   3.779   2.539   4.161
 8189SOL     OW36445   3.468   3.093  20.400
 8189SOL    HW136446   3.458   3.175  20.448
 8189SOL    HW236447   3.531   3.112  20.331
 8190SOL     OW36448   3.623   3.559   5.879
 8190SOL    HW136449   3.532   3.549   5.907
 8190SOL    HW236450   3.672   3.499   5.936
 8191SOL     OW36451   1.745   1.000  17.993
 8191SOL    HW136452   1.745   1.040  18.080
 8191SOL    HW236453   1.795   0.919  18.005
 8192SOL     OW36454   0.185   4.202  16.654
 8192SOL    HW136455   0.267   4.159  16.627
 8192SOL    HW236456   0.169   4.266  16.585
 8193SOL     OW36457   3.805   0.653   4.113
 8193SOL    HW136458   3.878   0.604   4.076
 8193SOL    HW236459   3.823   0.656   4.207
 8194SOL     OW36460   2.222   2.567   6.383
 8194SOL    HW136461   2.255   2.646   6.424
 8194SOL    HW236462   2.148   2.596   6.330
 8195SOL     OW36463   0.917   1.778  15.885
 8195SOL    HW136464   0.895   1.685  15.894
 8195SOL    HW236465   1.001   1.779  15.840
 8196SOL     OW36466   2.462   4.573   7.221
 8196SOL    HW136467   2.386   4.542   7.271
 8196SOL    HW236468   2.424   4.614   7.143
 8197SOL     OW36469   1.776   0.920  19.311
 8197SOL    HW136470   1.767   0.837  19.357
 8197SOL    HW236471   1.752   0.901  19.221
 8198SOL     OW36472   4.089   3.564  18.961
 8198SOL    HW136473   4.039   3.487  18.933
 8198SOL    HW236474   4.028   3.637  18.950
 8199SOL     OW36475   4.306   2.543  20.977
 8199SOL    HW136476   4.296   2.637  20.959
 8199SOL    HW236477   4.333   2.505  20.893
 8200SOL     OW36478   0.718   4.412  20.070
 8200SOL    HW136479   0.784   4.342  20.070
 8200SOL    HW236480   0.750   4.475  20.135
 8201SOL     OW36481   4.774   4.143  14.213
 8201SOL    HW136482   0.049   4.083  14.179
 8201SOL    HW236483   4.775   4.216  14.152
 8202SOL     OW36484   4.011   1.424   9.360
 8202SOL    HW136485   3.959   1.437   9.439
 8202SOL    HW236486   4.051   1.338   9.371
 8203SOL     OW36487   3.080   4.649  18.324
 8203SOL    HW136488   3.133   4.703  18.382
 8203SOL    HW236489   3.033   4.712  18.270
 8204SOL     OW36490   1.300   0.215  13.861
 8204SOL    HW136491   1.273   0.304  13.837
 8204SOL    HW236492   1.363   0.227  13.933
 8205SOL     OW36493   3.128   4.527   0.644
 8205SOL    HW136494   3.197   4.510   0.708
 8205SOL    HW236495   3.140   4.619   0.621
 8206SOL     OW36496   0.296   1.297   3.286
 8206SOL    HW136497   0.386   1.280   3.315
 8206SOL    HW236498   0.250   1.323   3.366
 8207SOL     OW36499   2.100   3.922   4.834
 8207SOL    HW136500   2.126   3.995   4.891
 8207SOL    HW236501   2.073   3.964   4.752
 8208SOL     OW36502   0.147   3.738  13.820
 8208SOL    HW136503   0.101   3.704  13.743
 8208SOL    HW236504   0.084   3.727  13.892
 8209SOL     OW36505   2.050   2.565  20.852
 8209SOL    HW136506   1.960   2.556  20.823
 8209SOL    HW236507   2.102   2.539  20.776
 8210SOL     OW36508   1.637   2.478   5.930
 8210SOL    HW136509   1.677   2.533   5.998
 8210SOL    HW236510   1.690   2.495   5.852
 8211SOL     OW36511   4.767   3.763   1.294
 8211SOL    HW136512   4.752   3.858   1.292
 8211SOL    HW236513   0.045   3.751   1.359
 8212SOL     OW36514   2.289   3.598  13.097
 8212SOL    HW136515   2.331   3.513  13.111
 8212SOL    HW236516   2.290   3.640  13.183
 8213SOL     OW36517   1.686   2.415   6.417
 8213SOL    HW136518   1.748   2.377   6.355
 8213SOL    HW236519   1.610   2.439   6.363
 8214SOL     OW36520   1.134   1.660  18.949
 8214SOL    HW136521   1.193   1.654  19.025
 8214SOL    HW236522   1.063   1.716  18.978
 8215SOL     OW36523   0.178   0.331  15.085
 8215SOL    HW136524   0.119   0.327  15.161
 8215SOL    HW236525   0.145   0.405  15.034
 8216SOL     OW36526   1.943   3.502  12.887
 8216SOL    HW136527   1.864   3.447  12.894
 8216SOL    HW236528   1.910   3.587  12.856
 8217SOL     OW36529   4.310   2.711  20.454
 8217SOL    HW136530   4.265   2.668  20.381
 8217SOL    HW236531   4.399   2.677  20.449
 8218SOL     OW36532   1.125   2.869  14.278
 8218SOL    HW136533   1.081   2.787  14.256
 8218SOL    HW236534   1.079   2.935  14.227
 8219SOL     OW36535   0.188   2.372  17.681
 8219SOL    HW136536   0.107   2.374  17.732
 8219SOL    HW236537   0.245   2.437  17.722
 8220SOL     OW36538   3.688   0.615  19.055
 8220SOL    HW136539   3.687   0.702  19.093
 8220SOL    HW236540   3.651   0.627  18.967
 8221SOL     OW36541   3.639   3.762  20.621
 8221SOL    HW136542   3.645   3.802  20.534
 8221SOL    HW236543   3.710   3.802  20.671
 8222SOL     OW36544   3.026   1.278  17.863
 8222SOL    HW136545   2.952   1.339  17.867
 8222SOL    HW236546   3.093   1.319  17.918
 8223SOL     OW36547   3.404   0.234   3.990
 8223SOL    HW136548   3.413   0.147   4.030
 8223SOL    HW236549   3.310   0.243   3.973
 8224SOL     OW36550   2.199   4.229  16.815
 8224SOL    HW136551   2.292   4.213  16.834
 8224SOL    HW236552   2.155   4.148  16.839
 8225SOL     OW36553   4.582   3.765   1.515
 8225SOL    HW136554   4.517   3.723   1.571
 8225SOL    HW236555   4.620   3.693   1.464
 8226SOL     OW36556   2.841   2.099  15.551
 8226SOL    HW136557   2.858   2.129  15.462
 8226SOL    HW236558   2.784   2.024  15.541
 8227SOL     OW36559   1.394   0.065  20.100
 8227SOL    HW136560   1.426   0.025  20.019
 8227SOL    HW236561   1.299   0.051  20.097
 8228SOL     OW36562   1.436   2.850   2.456
 8228SOL    HW136563   1.394   2.795   2.523
 8228SOL    HW236564   1.446   2.935   2.498
 8229SOL     OW36565   0.123   1.426   0.104
 8229SOL    HW136566   0.145   1.410   0.012
 8229SOL    HW236567   0.207   1.427   0.149
 8230SOL     OW36568   2.904   4.215   8.062
 8230SOL    HW136569   2.852   4.151   8.013
 8230SOL    HW236570   2.967   4.248   7.998
 8231SOL     OW36571   2.713   2.297   6.315
 8231SOL    HW136572   2.678   2.385   6.314
 8231SOL    HW236573   2.636   2.240   6.323
 8232SOL     OW36574   3.054   0.058  20.938
 8232SOL    HW136575   3.009   0.133  20.976
 8232SOL    HW236576   3.033   4.776  20.996
 8233SOL     OW36577   2.667   2.111  19.557
 8233SOL    HW136578   2.664   2.179  19.489
 8233SOL    HW236579   2.627   2.152  19.634
 8234SOL     OW36580   4.779   2.379  11.958
 8234SOL    HW136581   0.026   2.420  12.036
 8234SOL    HW236582   4.758   2.290  11.986
 8235SOL     OW36583   4.078   3.995  13.965
 8235SOL    HW136584   3.988   3.985  13.934
 8235SOL    HW236585   4.082   3.942  14.045
 8236SOL     OW36586   0.514   3.031   0.112
 8236SOL    HW136587   0.490   2.938   0.103
 8236SOL    HW236588   0.493   3.052   0.203
 8237SOL     OW36589   3.246   0.986  18.567
 8237SOL    HW136590   3.180   0.974  18.499
 8237SOL    HW236591   3.204   0.953  18.646
 8238SOL     OW36592   3.310   3.600   5.707
 8238SOL    HW136593   3.258   3.559   5.639
 8238SOL    HW236594   3.282   3.558   5.789
 8239SOL     OW36595   4.078   3.574   1.137
 8239SOL    HW136596   4.160   3.579   1.185
 8239SOL    HW236597   4.094   3.624   1.057
 8240SOL     OW36598   3.158   1.439   1.278
 8240SOL    HW136599   3.084   1.390   1.313
 8240SOL    HW236600   3.213   1.458   1.354
 8241SOL     OW36601   4.250   4.132   0.966
 8241SOL    HW136602   4.154   4.135   0.962
 8241SOL    HW236603   4.270   4.130   1.059
 8242SOL     OW36604   1.096   3.989   1.121
 8242SOL    HW136605   1.037   4.053   1.160
 8242SOL    HW236606   1.126   4.031   1.040
 8243SOL     OW36607   3.863   2.635   4.502
 8243SOL    HW136608   3.904   2.667   4.582
 8243SOL    HW236609   3.833   2.547   4.524
 8244SOL     OW36610   1.831   3.721   4.320
 8244SOL    HW136611   1.783   3.691   4.243
 8244SOL    HW236612   1.903   3.659   4.330
 8245SOL     OW36613   4.123   2.934   0.553
 8245SOL    HW136614   4.145   2.856   0.501
 8245SOL    HW236615   4.161   3.007   0.504
 8246SOL     OW36616   3.906   3.132   8.471
 8246SOL    HW136617   3.859   3.107   8.550
 8246SOL    HW236618   3.915   3.227   8.477
 8247SOL     OW36619   1.284   2.810  16.193
 8247SOL    HW136620   1.229   2.737  16.221
 8247SOL    HW236621   1.226   2.886  16.194
 8248SOL     OW36622   1.650   4.614  15.446
 8248SOL    HW136623   1.735   4.623  15.403
 8248SOL    HW236624   1.606   4.544  15.398
 8249SOL     OW36625   1.574   3.014   2.278
 8249SOL    HW136626   1.527   2.964   2.346
 8249SOL    HW236627   1.543   3.104   2.291
 8250SOL     OW36628   1.039   3.855  18.439
 8250SOL    HW136629   0.976   3.825  18.505
 8250SOL    HW236630   1.020   3.804  18.361
 8251SOL     OW36631   3.020   1.370  18.882
 8251SOL    HW136632   2.945   1.312  18.895
 8251SOL    HW236633   3.089   1.314  18.849
 8252SOL     OW36634   0.297   1.458  19.326
 8252SOL    HW136635   0.389   1.436  19.335
 8252SOL    HW236636   0.280   1.456  19.232
 8253SOL     OW36637   0.510   3.079   2.188
 8253SOL    HW136638   0.419   3.094   2.161
 8253SOL    HW236639   0.557   3.155   2.155
 8254SOL     OW36640   3.551   1.758   6.441
 8254SOL    HW136641   3.540   1.845   6.402
 8254SOL    HW236642   3.466   1.716   6.429
 8255SOL     OW36643   1.905   0.046   4.300
 8255SOL    HW136644   1.875   4.791   4.222
 8255SOL    HW236645   1.832   0.038   4.362
 8256SOL     OW36646   2.746   1.694  14.434
 8256SOL    HW136647   2.676   1.635  14.405
 8256SOL    HW236648   2.816   1.636  14.462
 8257SOL     OW36649   3.648   0.148   4.332
 8257SOL    HW136650   3.666   0.122   4.422
 8257SOL    HW236651   3.679   0.074   4.279
 8258SOL     OW36652   1.362   0.881   1.767
 8258SOL    HW136653   1.441   0.929   1.792
 8258SOL    HW236654   1.388   0.789   1.769
 8259SOL     OW36655   2.024   3.301   6.285
 8259SOL    HW136656   2.113   3.280   6.313
 8259SOL    HW236657   2.003   3.234   6.220
 8260SOL     OW36658   1.083   0.002  17.515
 8260SOL    HW136659   1.088   4.778  17.420
 8260SOL    HW236660   1.023   4.725  17.547
 8261SOL     OW36661   3.566   1.880   4.320
 8261SOL    HW136662   3.507   1.930   4.263
 8261SOL    HW236663   3.646   1.871   4.269
 8262SOL     OW36664   1.932   0.894   3.923
 8262SOL    HW136665   2.025   0.872   3.929
 8262SOL    HW236666   1.891   0.847   3.995
 8263SOL     OW36667   2.132   2.754  16.287
 8263SOL    HW136668   2.226   2.762  16.301
 8263SOL    HW236669   2.101   2.844  16.279
 8264SOL     OW36670   0.157   4.150   3.986
 8264SOL    HW136671   0.245   4.183   3.967
 8264SOL    HW236672   0.134   4.191   4.070
 8265SOL     OW36673   0.954   2.277  17.619
 8265SOL    HW136674   0.995   2.284  17.533
 8265SOL    HW236675   0.881   2.216  17.606
 8266SOL     OW36676   4.082   1.329   5.486
 8266SOL    HW136677   4.143   1.283   5.429
 8266SOL    HW236678   4.084   1.280   5.568
 8267SOL     OW36679   4.499   1.428  10.595
 8267SOL    HW136680   4.449   1.347  10.603
 8267SOL    HW236681   4.563   1.410  10.526
 8268SOL     OW36682   2.730   3.193   6.499
 8268SOL    HW136683   2.755   3.160   6.413
 8268SOL    HW236684   2.735   3.117   6.557
 8269SOL     OW36685   2.361   3.855  20.085
 8269SOL    HW136686   2.344   3.779  20.142
 8269SOL    HW236687   2.407   3.917  20.141
 8270SOL     OW36688   4.508   2.286   1.322
 8270SOL    HW136689   4.540   2.271   1.233
 8270SOL    HW236690   4.582   2.324   1.369
 8271SOL     OW36691   0.978   3.662  17.372
 8271SOL    HW136692   0.950   3.753  17.361
 8271SOL    HW236693   0.954   3.619  17.290
 8272SOL     OW36694   3.854   1.854   9.086
 8272SOL    HW136695   3.921   1.827   9.148
 8272SOL    HW236696   3.894   1.842   9.000
 8273SOL     OW36697   0.896   4.458   3.260
 8273SOL    HW136698   0.943   4.375   3.247
 8273SOL    HW236699   0.818   4.434   3.309
 8274SOL     OW36700   1.657   4.026   3.446
 8274SOL    HW136701   1.628   4.010   3.536
 8274SOL    HW236702   1.600   4.096   3.414
 8275SOL     OW36703   4.226   0.824   6.697
 8275SOL    HW136704   4.212   0.821   6.602
 8275SOL    HW236705   4.206   0.914   6.721
 8276SOL     OW36706   4.377   0.991  16.918
 8276SOL    HW136707   4.427   0.994  16.837
 8276SOL    HW236708   4.291   0.958  16.892
 8277SOL     OW36709   0.403   3.510  15.395
 8277SOL    HW136710   0.473   3.445  15.408
 8277SOL    HW236711   0.429   3.558  15.317
 8278SOL     OW36712   2.325   1.920   0.394
 8278SOL    HW136713   2.389   1.883   0.455
 8278SOL    HW236714   2.304   1.848   0.334
 8279SOL     OW36715   2.699   4.116   5.649
 8279SOL    HW136716   2.651   4.187   5.607
 8279SOL    HW236717   2.769   4.160   5.697
 8280SOL     OW36718   0.565   0.021   0.435
 8280SOL    HW136719   0.479   4.790   0.472
 8280SOL    HW236720   0.580   0.112   0.460
 8281SOL     OW36721   3.965   3.262   5.277
 8281SOL    HW136722   3.887   3.315   5.291
 8281SOL    HW236723   4.017   3.312   5.214
 8282SOL     OW36724   3.168   2.864   1.164
 8282SOL    HW136725   3.093   2.891   1.110
 8282SOL    HW236726   3.234   2.836   1.101
 8283SOL     OW36727   2.772   1.439   5.473
 8283SOL    HW136728   2.809   1.354   5.453
 8283SOL    HW236729   2.681   1.433   5.444
 8284SOL     OW36730   3.989   1.113   0.742
 8284SOL    HW136731   3.939   1.165   0.805
 8284SOL    HW236732   4.071   1.160   0.731
 8285SOL     OW36733   2.480   0.392   0.783
 8285SOL    HW136734   2.576   0.389   0.783
 8285SOL    HW236735   2.454   0.337   0.709
 8286SOL     OW36736   0.505   1.925  17.756
 8286SOL    HW136737   0.419   1.957  17.785
 8286SOL    HW236738   0.546   1.891  17.836
 8287SOL     OW36739   3.693   2.722  17.738
 8287SOL    HW136740   3.624   2.739  17.674
 8287SOL    HW236741   3.774   2.749  17.695
 8288SOL     OW36742   4.031   0.686  19.792
 8288SOL    HW136743   3.985   0.655  19.870
 8288SOL    HW236744   4.118   0.646  19.797
 8289SOL     OW36745   0.747   0.692   5.796
 8289SOL    HW136746   0.755   0.600   5.769
 8289SOL    HW236747   0.777   0.692   5.887
 8290SOL     OW36748   3.242   3.142  20.985
 8290SOL    HW136749   3.159   3.126  20.939
 8290SOL    HW236750   3.308   3.106  20.926
 8291SOL     OW36751   4.114   0.106   4.136
 8291SOL    HW136752   4.195   0.078   4.178
 8291SOL    HW236753   4.100   0.196   4.167
 8292SOL     OW36754   0.168   4.615  15.533
 8292SOL    HW136755   0.226   4.690  15.523
 8292SOL    HW236756   0.146   4.615  15.626
 8293SOL     OW36757   1.477   2.956  17.143
 8293SOL    HW136758   1.475   2.868  17.104
 8293SOL    HW236759   1.418   3.007  17.088
 8294SOL     OW36760   2.910   1.928   6.329
 8294SOL    HW136761   2.905   1.974   6.413
 8294SOL    HW236762   2.824   1.941   6.289
 8295SOL     OW36763   4.460   0.038  17.710
 8295SOL    HW136764   4.488   4.777  17.635
 8295SOL    HW236765   4.502   4.787  17.785
 8296SOL     OW36766   4.225   3.100  18.489
 8296SOL    HW136767   4.293   3.145  18.539
 8296SOL    HW236768   4.148   3.155  18.498
 8297SOL     OW36769   2.383   2.342  13.549
 8297SOL    HW136770   2.325   2.285  13.600
 8297SOL    HW236771   2.352   2.430  13.569
 8298SOL     OW36772   3.786   0.726   2.141
 8298SOL    HW136773   3.867   0.706   2.093
 8298SOL    HW236774   3.718   0.725   2.074
 8299SOL     OW36775   4.546   0.928   1.856
 8299SOL    HW136776   4.550   0.833   1.854
 8299SOL    HW236777   4.631   0.955   1.891
 8300SOL     OW36778   2.750   0.210   3.522
 8300SOL    HW136779   2.686   0.230   3.591
 8300SOL    HW236780   2.735   0.276   3.455
 8301SOL     OW36781   0.356   3.062  18.938
 8301SOL    HW136782   0.327   3.153  18.931
 8301SOL    HW236783   0.317   3.030  19.020
 8302SOL     OW36784   1.046   3.833  16.235
 8302SOL    HW136785   1.017   3.908  16.287
 8302SOL    HW236786   0.995   3.759  16.270
 8303SOL     OW36787   2.913   1.938  21.095
 8303SOL    HW136788   2.877   2.016  21.053
 8303SOL    HW236789   2.891   1.949  21.188
 8304SOL     OW36790   2.976   2.227   5.551
 8304SOL    HW136791   3.031   2.263   5.482
 8304SOL    HW236792   2.989   2.286   5.626
 8305SOL     OW36793   0.246   2.804   3.161
 8305SOL    HW136794   0.172   2.854   3.126
 8305SOL    HW236795   0.228   2.713   3.136
 8306SOL     OW36796   4.150   2.130   4.124
 8306SOL    HW136797   4.235   2.129   4.169
 8306SOL    HW236798   4.129   2.223   4.116
 8307SOL     OW36799   3.744   0.629  20.872
 8307SOL    HW136800   3.835   0.653  20.888
 8307SOL    HW236801   3.745   0.534  20.859
 8308SOL     OW36802   2.145   4.643   3.040
 8308SOL    HW136803   2.110   4.704   3.106
 8308SOL    HW236804   2.068   4.603   3.001
 8309SOL     OW36805   3.945   3.089   1.822
 8309SOL    HW136806   4.040   3.104   1.824
 8309SOL    HW236807   3.919   3.114   1.733
 8310SOL     OW36808   2.235   0.846   5.559
 8310SOL    HW136809   2.187   0.909   5.506
 8310SOL    HW236810   2.266   0.897   5.634
 8311SOL     OW36811   1.350   2.129  18.703
 8311SOL    HW136812   1.325   2.121  18.611
 8311SOL    HW236813   1.268   2.119  18.751
 8312SOL     OW36814   1.854   0.485   3.949
 8312SOL    HW136815   1.821   0.396   3.962
 8312SOL    HW236816   1.911   0.501   4.024
 8313SOL     OW36817   3.425   2.050   4.151
 8313SOL    HW136818   3.435   2.030   4.058
 8313SOL    HW236819   3.342   2.097   4.157
 8314SOL     OW36820   1.541   0.278   0.208
 8314SOL    HW136821   1.483   0.329   0.151
 8314SOL    HW236822   1.549   0.330   0.288
 8315SOL     OW36823   1.804   3.199  18.558
 8315SOL    HW136824   1.874   3.263  18.568
 8315SOL    HW236825   1.723   3.249  18.567
 8316SOL     OW36826   2.674   2.099  20.917
 8316SOL    HW136827   2.732   2.073  20.845
 8316SOL    HW236828   2.591   2.055  20.898
 8317SOL     OW36829   3.667   4.277   2.463
 8317SOL    HW136830   3.588   4.236   2.497
 8317SOL    HW236831   3.732   4.206   2.462
 8318SOL     OW36832   2.466   3.167   4.923
 8318SOL    HW136833   2.502   3.084   4.891
 8318SOL    HW236834   2.534   3.201   4.982
 8319SOL     OW36835   4.725   3.287  17.151
 8319SOL    HW136836   0.023   3.323  17.148
 8319SOL    HW236837   4.736   3.198  17.184
 8320SOL     OW36838   3.089   3.206  18.944
 8320SOL    HW136839   3.004   3.250  18.947
 8320SOL    HW236840   3.079   3.130  19.001
 8321SOL     OW36841   2.422   2.635   4.539
 8321SOL    HW136842   2.387   2.713   4.497
 8321SOL    HW236843   2.383   2.562   4.491
 8322SOL     OW36844   0.284   3.082  20.998
 8322SOL    HW136845   0.231   3.163  21.003
 8322SOL    HW236846   0.374   3.112  21.006
 8323SOL     OW36847   3.917   3.517   9.746
 8323SOL    HW136848   3.823   3.499   9.750
 8323SOL    HW236849   3.940   3.546   9.835
 8324SOL     OW36850   4.316   1.608   2.628
 8324SOL    HW136851   4.334   1.606   2.722
 8324SOL    HW236852   4.401   1.626   2.587
 8325SOL     OW36853   4.711   1.300  19.208
 8325SOL    HW136854   4.624   1.323  19.241
 8325SOL    HW236855   4.767   1.373  19.235
 8326SOL     OW36856   0.131   4.623  18.856
 8326SOL    HW136857   0.063   4.690  18.867
 8326SOL    HW236858   0.086   4.551  18.812
 8327SOL     OW36859   3.227   3.610  19.195
 8327SOL    HW136860   3.240   3.527  19.149
 8327SOL    HW236861   3.164   3.658  19.141
 8328SOL     OW36862   1.267   0.248   4.487
 8328SOL    HW136863   1.239   0.175   4.431
 8328SOL    HW236864   1.320   0.206   4.555
 8329SOL     OW36865   2.146   2.076  15.671
 8329SOL    HW136866   2.198   2.047  15.746
 8329SOL    HW236867   2.151   2.172  15.675
 8330SOL     OW36868   4.118   4.572   6.697
 8330SOL    HW136869   4.123   4.541   6.607
 8330SOL    HW236870   4.181   4.519   6.745
 8331SOL     OW36871   3.081   3.181   2.937
 8331SOL    HW136872   3.108   3.139   3.019
 8331SOL    HW236873   3.047   3.109   2.883
 8332SOL     OW36874   0.827   0.281   2.720
 8332SOL    HW136875   0.857   0.196   2.754
 8332SOL    HW236876   0.789   0.261   2.635
 8333SOL     OW36877   0.004   2.083   3.435
 8333SOL    HW136878   4.703   2.056   3.446
 8333SOL    HW236879   0.028   2.120   3.520
 8334SOL     OW36880   3.417   1.955   5.122
 8334SOL    HW136881   3.448   1.953   5.031
 8334SOL    HW236882   3.497   1.965   5.174
 8335SOL     OW36883   3.181   2.160   4.172
 8335SOL    HW136884   3.128   2.149   4.093
 8335SOL    HW236885   3.164   2.250   4.199
 8336SOL     OW36886   2.416   2.304  15.574
 8336SOL    HW136887   2.346   2.368  15.565
 8336SOL    HW236888   2.485   2.335  15.515
 8337SOL     OW36889   3.441   0.471   0.940
 8337SOL    HW136890   3.479   0.480   1.027
 8337SOL    HW236891   3.358   0.427   0.954
 8338SOL     OW36892   1.320   1.090  18.454
 8338SOL    HW136893   1.273   1.126  18.530
 8338SOL    HW236894   1.251   1.046  18.403
 8339SOL     OW36895   3.717   1.596   6.111
 8339SOL    HW136896   3.721   1.581   6.016
 8339SOL    HW236897   3.659   1.671   6.121
 8340SOL     OW36898   2.103   3.589  16.586
 8340SOL    HW136899   2.181   3.603  16.532
 8340SOL    HW236900   2.044   3.540  16.529
 8341SOL     OW36901   4.726   0.277  20.489
 8341SOL    HW136902   4.736   0.241  20.400
 8341SOL    HW236903   4.783   0.222  20.543
 8342SOL     OW36904   3.819   2.157   3.880
 8342SOL    HW136905   3.745   2.097   3.888
 8342SOL    HW236906   3.783   2.243   3.900
 8343SOL     OW36907   3.016   1.002   9.475
 8343SOL    HW136908   3.086   0.937   9.478
 8343SOL    HW236909   2.951   0.971   9.537
 8344SOL     OW36910   3.068   2.649   4.521
 8344SOL    HW136911   3.060   2.565   4.566
 8344SOL    HW236912   3.086   2.712   4.591
 8345SOL     OW36913   4.071   2.926   1.478
 8345SOL    HW136914   4.066   3.019   1.456
 8345SOL    HW236915   4.064   2.882   1.394
 8346SOL     OW36916   1.800   1.336   7.425
 8346SOL    HW136917   1.806   1.373   7.513
 8346SOL    HW236918   1.707   1.343   7.402
 8347SOL     OW36919   1.969   3.506   4.729
 8347SOL    HW136920   1.986   3.524   4.637
 8347SOL    HW236921   1.911   3.429   4.729
 8348SOL     OW36922   4.494   3.162  18.839
 8348SOL    HW136923   4.519   3.081  18.796
 8348SOL    HW236924   4.454   3.215  18.770
 8349SOL     OW36925   1.372   0.074   5.032
 8349SOL    HW136926   1.307   0.021   4.986
 8349SOL    HW236927   1.322   0.147   5.067
 8350SOL     OW36928   1.211   0.208   2.366
 8350SOL    HW136929   1.124   0.248   2.368
 8350SOL    HW236930   1.204   0.133   2.424
 8351SOL     OW36931   4.244   0.945   2.219
 8351SOL    HW136932   4.203   0.987   2.294
 8351SOL    HW236933   4.201   0.859   2.213
 8352SOL     OW36934   2.965   3.821  13.588
 8352SOL    HW136935   3.038   3.861  13.635
 8352SOL    HW236936   2.913   3.779  13.657
 8353SOL     OW36937   3.889   1.174  19.940
 8353SOL    HW136938   3.968   1.206  19.984
 8353SOL    HW236939   3.839   1.254  19.920
 8354SOL     OW36940   1.615   3.961   2.588
 8354SOL    HW136941   1.568   3.892   2.541
 8354SOL    HW236942   1.550   3.999   2.646
 8355SOL     OW36943   1.402   0.304  17.403
 8355SOL    HW136944   1.395   0.400  17.406
 8355SOL    HW236945   1.332   0.278  17.342
 8356SOL     OW36946   4.192   2.020  16.597
 8356SOL    HW136947   4.233   2.010  16.512
 8356SOL    HW236948   4.229   2.100  16.633
 8357SOL     OW36949   0.139   0.520  16.172
 8357SOL    HW136950   0.232   0.496  16.178
 8357SOL    HW236951   0.132   0.602  16.221
 8358SOL     OW36952   3.133   3.265   3.782
 8358SOL    HW136953   3.199   3.243   3.846
 8358SOL    HW236954   3.178   3.320   3.718
 8359SOL     OW36955   4.361   1.382  16.052
 8359SOL    HW136956   4.417   1.444  16.004
 8359SOL    HW236957   4.421   1.337  16.112
 8360SOL     OW36958   1.181   1.245   2.548
 8360SOL    HW136959   1.227   1.259   2.631
 8360SOL    HW236960   1.097   1.289   2.560
 8361SOL     OW36961   1.375   3.065   0.204
 8361SOL    HW136962   1.449   3.078   0.264
 8361SOL    HW236963   1.378   3.140   0.145
 8362SOL     OW36964   1.340   2.695   1.436
 8362SOL    HW136965   1.348   2.659   1.348
 8362SOL    HW236966   1.279   2.637   1.481
 8363SOL     OW36967   2.975   0.459  19.292
 8363SOL    HW136968   2.962   0.418  19.378
 8363SOL    HW236969   3.065   0.435  19.268
 8364SOL     OW36970   2.443   4.301   3.605
 8364SOL    HW136971   2.438   4.286   3.700
 8364SOL    HW236972   2.356   4.334   3.582
 8365SOL     OW36973   1.834   0.308  18.235
 8365SOL    HW136974   1.766   0.242  18.224
 8365SOL    HW236975   1.812   0.376  18.172
 8366SOL     OW36976   4.677   1.389   1.555
 8366SOL    HW136977   4.622   1.449   1.605
 8366SOL    HW236978   4.765   1.427   1.560
 8367SOL     OW36979   0.300   3.312  19.670
 8367SOL    HW136980   0.324   3.405  19.662
 8367SOL    HW236981   0.276   3.286  19.582
 8368SOL     OW36982   4.458   1.095  16.250
 8368SOL    HW136983   4.533   1.114  16.195
 8368SOL    HW236984   4.488   1.025  16.308
 8369SOL     OW36985   4.010   4.303   0.176
 8369SOL    HW136986   4.070   4.360   0.224
 8369SOL    HW236987   4.059   4.278   0.097
 8370SOL     OW36988   3.188   2.594   6.988
 8370SOL    HW136989   3.135   2.641   6.924
 8370SOL    HW236990   3.196   2.506   6.951
 8371SOL     OW36991   3.493   2.239  19.024
 8371SOL    HW136992   3.440   2.303  18.975
 8371SOL    HW236993   3.485   2.158  18.974
 8372SOL     OW36994   2.464   3.363  19.157
 8372SOL    HW136995   2.531   3.403  19.213
 8372SOL    HW236996   2.416   3.304  19.214
 8373SOL     OW36997   2.471   1.626   5.413
 8373SOL    HW136998   2.462   1.531   5.408
 8373SOL    HW236999   2.427   1.659   5.335
 8374SOL     OW37000   1.283   2.182   4.003
 8374SOL    HW137001   1.208   2.154   3.952
 8374SOL    HW237002   1.257   2.170   4.095
 8375SOL     OW37003   0.007   0.414   1.310
 8375SOL    HW137004   0.028   0.502   1.279
 8375SOL    HW237005   4.773   0.426   1.401
 8376SOL     OW37006   1.806   0.764   0.481
 8376SOL    HW137007   1.844   0.753   0.568
 8376SOL    HW237008   1.754   0.685   0.468
 8377SOL     OW37009   2.068   3.495   5.259
 8377SOL    HW137010   1.985   3.450   5.273
 8377SOL    HW237011   2.132   3.425   5.248
 8378SOL     OW37012   1.984   3.992  20.865
 8378SOL    HW137013   2.077   3.993  20.842
 8378SOL    HW237014   1.964   3.901  20.883
 8379SOL     OW37015   0.058   2.107   3.178
 8379SOL    HW137016   0.149   2.133   3.167
 8379SOL    HW237017   0.042   2.115   3.272
 8380SOL     OW37018   2.861   4.447  12.755
 8380SOL    HW137019   2.919   4.494  12.814
 8380SOL    HW237020   2.775   4.488  12.768
 8381SOL     OW37021   2.147   2.188   0.215
 8381SOL    HW137022   2.118   2.132   0.287
 8381SOL    HW237023   2.156   2.275   0.255
 8382SOL     OW37024   0.768   0.353   1.978
 8382SOL    HW137025   0.751   0.420   2.044
 8382SOL    HW237026   0.844   0.306   2.011
 8383SOL     OW37027   4.037   0.844  18.868
 8383SOL    HW137028   4.099   0.883  18.929
 8383SOL    HW237029   4.062   0.752  18.863
 8384SOL     OW37030   1.617   3.817   4.461
 8384SOL    HW137031   1.684   3.792   4.398
 8384SOL    HW237032   1.539   3.769   4.434
 8385SOL     OW37033   0.404   2.586   1.296
 8385SOL    HW137034   0.475   2.526   1.316
 8385SOL    HW237035   0.444   2.673   1.295
 8386SOL     OW37036   3.986   3.167   5.538
 8386SOL    HW137037   3.987   3.219   5.457
 8386SOL    HW237038   4.073   3.129   5.543
 8387SOL     OW37039   3.778   0.749  17.141
 8387SOL    HW137040   3.834   0.672  17.151
 8387SOL    HW237041   3.838   0.823  17.136
 8388SOL     OW37042   2.773   1.902  17.042
 8388SOL    HW137043   2.865   1.895  17.067
 8388SOL    HW237044   2.765   1.990  17.006
 8389SOL     OW37045   3.641   1.875  17.829
 8389SOL    HW137046   3.629   1.781  17.812
 8389SOL    HW237047   3.591   1.891  17.909
 8390SOL     OW37048   1.738   3.013  17.069
 8390SOL    HW137049   1.687   3.065  17.006
 8390SOL    HW237050   1.672   2.960  17.113
 8391SOL     OW37051   4.547   2.980   5.938
 8391SOL    HW137052   4.614   2.980   6.007
 8391SOL    HW237053   4.596   2.962   5.858
 8392SOL     OW37054   3.762   4.429  15.662
 8392SOL    HW137055   3.696   4.366  15.692
 8392SOL    HW237056   3.842   4.378  15.654
 8393SOL     OW37057   2.985   3.979   1.542
 8393SOL    HW137058   3.051   3.990   1.611
 8393SOL    HW237059   2.963   3.886   1.544
 8394SOL     OW37060   1.641   3.723   0.611
 8394SOL    HW137061   1.660   3.742   0.703
 8394SOL    HW237062   1.660   3.805   0.565
 8395SOL     OW37063   1.807   3.431   5.407
 8395SOL    HW137064   1.829   3.416   5.500
 8395SOL    HW237065   1.753   3.510   5.408
 8396SOL     OW37066   4.478   0.053   3.496
 8396SOL    HW137067   4.498   0.133   3.447
 8396SOL    HW237068   4.383   0.046   3.493
 8397SOL     OW37069   0.628   3.801   2.709
 8397SOL    HW137070   0.552   3.765   2.662
 8397SOL    HW237071   0.679   3.844   2.641
 8398SOL     OW37072   0.321   4.403   0.011
 8398SOL    HW137073   0.330   4.466   0.082
 8398SOL    HW237074   0.339   4.318   0.051
 8399SOL     OW37075   4.149   2.852  19.427
 8399SOL    HW137076   4.139   2.857  19.332
 8399SOL    HW237077   4.214   2.918  19.448
 8400SOL     OW37078   3.196   3.005   6.862
 8400SOL    HW137079   3.177   3.020   6.954
 8400SOL    HW237080   3.291   2.994   6.857
 8401SOL     OW37081   1.001   2.273   0.523
 8401SOL    HW137082   0.969   2.235   0.605
 8401SOL    HW237083   1.073   2.330   0.549
 8402SOL     OW37084   3.237   1.223   3.473
 8402SOL    HW137085   3.263   1.272   3.395
 8402SOL    HW237086   3.252   1.131   3.450
 8403SOL     OW37087   0.217   1.876   3.734
 8403SOL    HW137088   0.123   1.897   3.732
 8403SOL    HW237089   0.245   1.887   3.644
 8404SOL     OW37090   3.546   0.263   6.747
 8404SOL    HW137091   3.470   0.218   6.783
 8404SOL    HW237092   3.568   0.328   6.814
 8405SOL     OW37093   2.075   3.883  20.404
 8405SOL    HW137094   2.110   3.803  20.365
 8405SOL    HW237095   1.992   3.897  20.358
 8406SOL     OW37096   0.386   0.780   2.245
 8406SOL    HW137097   0.389   0.788   2.150
 8406SOL    HW237098   0.382   0.685   2.261
 8407SOL     OW37099   4.771   2.202   3.724
 8407SOL    HW137100   0.072   2.220   3.741
 8407SOL    HW237101   4.730   2.207   3.811
 8408SOL     OW37102   4.669   1.647   0.927
 8408SOL    HW137103   4.674   1.708   1.001
 8408SOL    HW237104   4.585   1.666   0.885
 8409SOL     OW37105   0.766   3.554   5.476
 8409SOL    HW137106   0.797   3.488   5.537
 8409SOL    HW237107   0.682   3.522   5.445
 8410SOL     OW37108   0.397   1.310  16.013
 8410SOL    HW137109   0.366   1.229  16.055
 8410SOL    HW237110   0.385   1.294  15.920
 8411SOL     OW37111   2.286   4.411   4.318
 8411SOL    HW137112   2.300   4.450   4.404
 8411SOL    HW237113   2.280   4.317   4.335
 8412SOL     OW37114   3.768   2.821   6.903
 8412SOL    HW137115   3.758   2.835   6.809
 8412SOL    HW237116   3.809   2.735   6.911
 8413SOL     OW37117   3.711   1.429   4.071
 8413SOL    HW137118   3.684   1.485   4.144
 8413SOL    HW237119   3.761   1.487   4.013
 8414SOL     OW37120   3.052   4.458   4.284
 8414SOL    HW137121   3.123   4.514   4.316
 8414SOL    HW237122   3.012   4.422   4.363
 8415SOL     OW37123   3.253   3.223   4.516
 8415SOL    HW137124   3.200   3.144   4.504
 8415SOL    HW237125   3.281   3.247   4.428
 8416SOL     OW37126   3.862   0.164   2.301
 8416SOL    HW137127   3.768   0.173   2.282
 8416SOL    HW237128   3.893   0.254   2.313
 8417SOL     OW37129   3.282   3.043   4.844
 8417SOL    HW137130   3.222   3.035   4.919
 8417SOL    HW237131   3.315   3.132   4.850
 8418SOL     OW37132   3.507   1.659   5.370
 8418SOL    HW137133   3.460   1.741   5.387
 8418SOL    HW237134   3.541   1.634   5.456
 8419SOL     OW37135   2.222   4.270  15.704
 8419SOL    HW137136   2.306   4.261  15.748
 8419SOL    HW237137   2.166   4.205  15.747
 8420SOL     OW37138   2.582   4.778   6.779
 8420SOL    HW137139   2.537   4.729   6.709
 8420SOL    HW237140   2.601   4.712   6.846
 8421SOL     OW37141   4.413   0.062  16.891
 8421SOL    HW137142   4.403   4.764  16.924
 8421SOL    HW237143   4.508   0.075  16.886
 8422SOL     OW37144   0.591   1.473  17.647
 8422SOL    HW137145   0.608   1.552  17.597
 8422SOL    HW237146   0.541   1.417  17.588
 8423SOL     OW37147   3.754   0.783  17.849
 8423SOL    HW137148   3.756   0.689  17.867
 8423SOL    HW237149   3.840   0.803  17.812
 8424SOL     OW37150   4.354   0.595   3.726
 8424SOL    HW137151   4.344   0.633   3.813
 8424SOL    HW237152   4.434   0.543   3.731
 8425SOL     OW37153   4.730   4.183   1.466
 8425SOL    HW137154   4.773   4.117   1.520
 8425SOL    HW237155   0.006   4.250   1.452
 8426SOL     OW37156   3.751   2.062  20.682
 8426SOL    HW137157   3.815   2.130  20.702
 8426SOL    HW237158   3.720   2.083  20.594
 8427SOL     OW37159   2.832   4.296  20.432
 8427SOL    HW137160   2.858   4.322  20.344
 8427SOL    HW237161   2.914   4.296  20.482
 8428SOL     OW37162   3.732   2.826   3.076
 8428SOL    HW137163   3.711   2.793   2.988
 8428SOL    HW237164   3.774   2.910   3.060
 8429SOL     OW37165   0.282   2.400   4.367
 8429SOL    HW137166   0.313   2.331   4.308
 8429SOL    HW237167   0.352   2.465   4.368
 8430SOL     OW37168   2.029   2.563  19.766
 8430SOL    HW137169   1.961   2.579  19.700
 8430SOL    HW237170   2.076   2.646  19.772
 8431SOL     OW37171   1.860   3.170  18.246
 8431SOL    HW137172   1.788   3.111  18.267
 8431SOL    HW237173   1.823   3.258  18.253
 8432SOL     OW37174   0.320   1.970   4.708
 8432SOL    HW137175   0.248   2.010   4.659
 8432SOL    HW237176   0.338   1.889   4.660
 8433SOL     OW37177   0.389   3.384   5.127
 8433SOL    HW137178   0.342   3.338   5.058
 8433SOL    HW237179   0.384   3.476   5.102
 8434SOL     OW37180   1.440   0.475  18.605
 8434SOL    HW137181   1.498   0.402  18.626
 8434SOL    HW237182   1.386   0.487  18.684
 8435SOL     OW37183   1.250   3.720   6.083
 8435SOL    HW137184   1.217   3.646   6.134
 8435SOL    HW237185   1.337   3.736   6.119
 8436SOL     OW37186   0.686   2.564   5.368
 8436SOL    HW137187   0.782   2.560   5.372
 8436SOL    HW237188   0.658   2.475   5.392
 8437SOL     OW37189   0.037   1.152  17.000
 8437SOL    HW137190   4.764   1.081  17.009
 8437SOL    HW237191   4.774   1.230  16.982
 8438SOL     OW37192   3.648   0.315  16.965
 8438SOL    HW137193   3.676   0.404  16.944
 8438SOL    HW237194   3.639   0.272  16.880
 8439SOL     OW37195   3.611   4.590  20.901
 8439SOL    HW137196   3.581   4.551  20.820
 8439SOL    HW237197   3.592   4.524  20.968
 8440SOL     OW37198   2.766   3.411  18.773
 8440SOL    HW137199   2.789   3.378  18.860
 8440SOL    HW237200   2.683   3.457  18.786
 8441SOL     OW37201   1.421   4.589  20.513
 8441SOL    HW137202   1.489   4.524  20.496
 8441SOL    HW237203   1.403   4.580  20.607
 8442SOL     OW37204   0.695   1.868   3.325
 8442SOL    HW137205   0.692   1.960   3.297
 8442SOL    HW237206   0.649   1.868   3.409
 8443SOL     OW37207   1.168   3.006  20.222
 8443SOL    HW137208   1.231   2.987  20.291
 8443SOL    HW237209   1.211   3.073  20.169
 8444SOL     OW37210   0.071   3.708  16.899
 8444SOL    HW137211   0.051   3.682  16.989
 8444SOL    HW237212   0.052   3.802  16.896
 8445SOL     OW37213   1.579   4.583  15.722
 8445SOL    HW137214   1.586   4.492  15.749
 8445SOL    HW237215   1.610   4.584  15.632
 8446SOL     OW37216   3.286   0.695   0.792
 8446SOL    HW137217   3.203   0.742   0.798
 8446SOL    HW237218   3.304   0.665   0.881
 8447SOL     OW37219   3.623   2.983  14.316
 8447SOL    HW137220   3.643   3.054  14.377
 8447SOL    HW237221   3.657   3.012  14.232
 8448SOL     OW37222   0.045   4.731   1.727
 8448SOL    HW137223   4.748   4.694   1.721
 8448SOL    HW237224   0.053   4.759   1.819
 8449SOL     OW37225   2.537   0.384  15.824
 8449SOL    HW137226   2.607   0.322  15.846
 8449SOL    HW237227   2.459   0.349  15.866
 8450SOL     OW37228   4.334   2.027  19.065
 8450SOL    HW137229   4.405   2.077  19.105
 8450SOL    HW237230   4.270   2.016  19.135
 8451SOL     OW37231   3.758   4.385   0.130
 8451SOL    HW137232   3.750   4.480   0.139
 8451SOL    HW237233   3.846   4.365   0.159
 8452SOL     OW37234   1.396   4.281   2.558
 8452SOL    HW137235   1.371   4.215   2.623
 8452SOL    HW237236   1.333   4.352   2.570
 8453SOL     OW37237   0.248   4.746   3.084
 8453SOL    HW137238   0.186   0.019   3.048
 8453SOL    HW237239   0.260   4.682   3.013
 8454SOL     OW37240   3.610   4.512  19.651
 8454SOL    HW137241   3.627   4.475  19.737
 8454SOL    HW237242   3.631   4.605  19.659
 8455SOL     OW37243   2.869   1.661  20.209
 8455SOL    HW137244   2.776   1.662  20.233
 8455SOL    HW237245   2.886   1.749  20.177
 8456SOL     OW37246   4.694   3.890  20.489
 8456SOL    HW137247   4.678   3.983  20.505
 8456SOL    HW237248   4.787   3.877  20.508
 8457SOL     OW37249   0.958   2.747  20.310
 8457SOL    HW137250   0.956   2.824  20.252
 8457SOL    HW237251   1.051   2.730  20.324
 8458SOL     OW37252   4.535   1.445  15.265
 8458SOL    HW137253   4.531   1.534  15.299
 8458SOL    HW237254   4.450   1.432  15.221
 8459SOL     OW37255   0.731   3.430  18.831
 8459SOL    HW137256   0.734   3.512  18.880
 8459SOL    HW237257   0.808   3.381  18.861
 8460SOL     OW37258   1.444   2.143   5.504
 8460SOL    HW137259   1.439   2.232   5.538
 8460SOL    HW237260   1.482   2.154   5.416
 8461SOL     OW37261   4.495   3.530  18.337
 8461SOL    HW137262   4.497   3.450  18.390
 8461SOL    HW237263   4.557   3.589  18.380
 8462SOL     OW37264   4.752   3.116   3.477
 8462SOL    HW137265   4.686   3.048   3.463
 8462SOL    HW237266   4.783   3.139   3.389
 8463SOL     OW37267   0.003   4.318  13.873
 8463SOL    HW137268   0.009   4.374  13.951
 8463SOL    HW237269   0.092   4.314  13.839
 8464SOL     OW37270   0.099   1.494   4.687
 8464SOL    HW137271   0.126   1.428   4.751
 8464SOL    HW237272   0.168   1.491   4.620
 8465SOL     OW37273   1.348   0.047  18.274
 8465SOL    HW137274   1.392   0.116  18.322
 8465SOL    HW237275   1.258   0.050  18.305
 8466SOL     OW37276   3.055   2.090   1.916
 8466SOL    HW137277   3.126   2.151   1.933
 8466SOL    HW237278   2.976   2.143   1.924
 8467SOL     OW37279   4.268   3.603  15.611
 8467SOL    HW137280   4.244   3.680  15.560
 8467SOL    HW237281   4.238   3.529  15.558
 8468SOL     OW37282   3.584   1.020  15.911
 8468SOL    HW137283   3.520   0.963  15.952
 8468SOL    HW237284   3.535   1.065  15.842
 8469SOL     OW37285   2.593   4.171   2.057
 8469SOL    HW137286   2.606   4.265   2.058
 8469SOL    HW237287   2.668   4.135   2.104
 8470SOL     OW37288   1.810   1.280  18.470
 8470SOL    HW137289   1.776   1.369  18.478
 8470SOL    HW237290   1.891   1.290  18.420
 8471SOL     OW37291   4.466   3.685   2.679
 8471SOL    HW137292   4.411   3.760   2.698
 8471SOL    HW237293   4.469   3.635   2.761
 8472SOL     OW37294   2.301   3.595  18.519
 8472SOL    HW137295   2.336   3.508  18.498
 8472SOL    HW237296   2.266   3.585  18.608
 8473SOL     OW37297   3.764   2.570  20.606
 8473SOL    HW137298   3.728   2.559  20.694
 8473SOL    HW237299   3.854   2.538  20.612
 8474SOL     OW37300   0.569   4.262  16.897
 8474SOL    HW137301   0.647   4.261  16.842
 8474SOL    HW237302   0.557   4.355  16.919
 8475SOL     OW37303   4.612   4.581  16.981
 8475SOL    HW137304   4.618   4.488  17.003
 8475SOL    HW237305   4.700   4.606  16.953
 8476SOL     OW37306   3.153   4.039   1.728
 8476SOL    HW137307   3.202   3.963   1.760
 8476SOL    HW237308   3.117   4.080   1.806
 8477SOL     OW37309   1.935   2.372   5.221
 8477SOL    HW137310   1.850   2.386   5.182
 8477SOL    HW237311   1.986   2.327   5.153
 8478SOL     OW37312   3.821   3.882  20.180
 8478SOL    HW137313   3.882   3.821  20.222
 8478SOL    HW237314   3.875   3.956  20.153
 8479SOL     OW37315   0.398   3.462  17.935
 8479SOL    HW137316   0.470   3.522  17.918
 8479SOL    HW237317   0.398   3.449  18.030
 8480SOL     OW37318   1.710   4.679  20.039
 8480SOL    HW137319   1.668   4.664  20.123
 8480SOL    HW237320   1.790   4.729  20.060
 8481SOL     OW37321   3.473   4.184   5.788
 8481SOL    HW137322   3.440   4.141   5.709
 8481SOL    HW237323   3.547   4.131   5.816
 8482SOL     OW37324   3.208   3.455   2.303
 8482SOL    HW137325   3.245   3.531   2.259
 8482SOL    HW237326   3.118   3.480   2.324
 8483SOL     OW37327   1.970   3.876   4.504
 8483SOL    HW137328   1.938   3.806   4.560
 8483SOL    HW237329   1.938   3.855   4.417
 8484SOL     OW37330   3.640   3.792  16.388
 8484SOL    HW137331   3.567   3.833  16.433
 8484SOL    HW237332   3.683   3.740  16.456
 8485SOL     OW37333   2.263   0.398   8.326
 8485SOL    HW137334   2.222   0.315   8.304
 8485SOL    HW237335   2.206   0.436   8.393
 8486SOL     OW37336   1.538   2.903   4.349
 8486SOL    HW137337   1.599   2.847   4.397
 8486SOL    HW237338   1.488   2.843   4.294
 8487SOL     OW37339   0.977   3.344  18.970
 8487SOL    HW137340   0.979   3.416  19.033
 8487SOL    HW237341   1.069   3.326  18.951
 8488SOL     OW37342   2.662   0.504  14.587
 8488SOL    HW137343   2.580   0.539  14.554
 8488SOL    HW237344   2.730   0.549  14.536
 8489SOL     OW37345   1.926   1.395   4.609
 8489SOL    HW137346   1.837   1.418   4.636
 8489SOL    HW237347   1.980   1.423   4.683
 8490SOL     OW37348   2.179   4.305   6.640
 8490SOL    HW137349   2.257   4.249   6.647
 8490SOL    HW237350   2.106   4.244   6.635
 8491SOL     OW37351   1.417   2.414   0.126
 8491SOL    HW137352   1.450   2.391   0.040
 8491SOL    HW237353   1.403   2.509   0.123
 8492SOL     OW37354   2.468   0.115   5.854
 8492SOL    HW137355   2.548   0.097   5.903
 8492SOL    HW237356   2.400   0.067   5.902
 8493SOL     OW37357   4.303   3.127   0.408
 8493SOL    HW137358   4.268   3.212   0.382
 8493SOL    HW237359   4.262   3.064   0.349
 8494SOL     OW37360   4.395   3.981  20.912
 8494SOL    HW137361   4.446   4.061  20.900
 8494SOL    HW237362   4.328   3.984  20.844
 8495SOL     OW37363   2.684   0.485  18.485
 8495SOL    HW137364   2.671   0.528  18.569
 8495SOL    HW237365   2.613   0.421  18.480
 8496SOL     OW37366   0.853   2.112   3.024
 8496SOL    HW137367   0.832   2.180   3.087
 8496SOL    HW237368   0.917   2.056   3.069
 8497SOL     OW37369   2.825   3.072  16.305
 8497SOL    HW137370   2.808   3.156  16.349
 8497SOL    HW237371   2.850   3.096  16.216
 8498SOL     OW37372   4.599   1.788   1.132
 8498SOL    HW137373   4.546   1.774   1.211
 8498SOL    HW237374   4.548   1.851   1.081
 8499SOL     OW37375   3.123   4.658  17.506
 8499SOL    HW137376   3.191   4.708  17.462
 8499SOL    HW237377   3.064   4.630  17.436
 8500SOL     OW37378   0.325   4.219   6.166
 8500SOL    HW137379   0.372   4.241   6.085
 8500SOL    HW237380   0.232   4.224   6.142
 8501SOL     OW37381   4.348   2.619  15.145
 8501SOL    HW137382   4.312   2.642  15.060
 8501SOL    HW237383   4.304   2.537  15.169
 8502SOL     OW37384   4.300   3.889   3.040
 8502SOL    HW137385   4.280   3.976   3.076
 8502SOL    HW237386   4.301   3.902   2.945
 8503SOL     OW37387   2.383   1.352  17.257
 8503SOL    HW137388   2.336   1.269  17.261
 8503SOL    HW237389   2.399   1.375  17.348
 8504SOL     OW37390   1.425   1.163   4.068
 8504SOL    HW137391   1.468   1.193   4.149
 8504SOL    HW237392   1.494   1.114   4.022
 8505SOL     OW37393   3.604   1.164  17.508
 8505SOL    HW137394   3.529   1.141  17.563
 8505SOL    HW237395   3.670   1.098  17.529
 8506SOL     OW37396   0.372   3.954  16.637
 8506SOL    HW137397   0.457   3.911  16.627
 8506SOL    HW237398   0.324   3.897  16.697
 8507SOL     OW37399   0.724   1.643   1.333
 8507SOL    HW137400   0.768   1.722   1.302
 8507SOL    HW237401   0.794   1.588   1.366
 8508SOL     OW37402   3.749   3.781   2.301
 8508SOL    HW137403   3.744   3.686   2.310
 8508SOL    HW237404   3.841   3.798   2.277
 8509SOL     OW37405   0.150   0.634   1.729
 8509SOL    HW137406   0.158   0.621   1.634
 8509SOL    HW237407   0.066   0.679   1.740
 8510SOL     OW37408   1.577   2.931  20.605
 8510SOL    HW137409   1.670   2.949  20.594
 8510SOL    HW237410   1.568   2.904  20.696
 8511SOL     OW37411   3.552   0.941   1.905
 8511SOL    HW137412   3.538   0.939   1.811
 8511SOL    HW237413   3.537   0.850   1.933
 8512SOL     OW37414   0.700   0.966  13.411
 8512SOL    HW137415   0.736   1.016  13.338
 8512SOL    HW237416   0.608   0.992  13.416
 8513SOL     OW37417   0.361   3.762   1.889
 8513SOL    HW137418   0.290   3.810   1.931
 8513SOL    HW237419   0.436   3.776   1.946
 8514SOL     OW37420   2.560   3.823   5.984
 8514SOL    HW137421   2.508   3.829   5.904
 8514SOL    HW237422   2.632   3.883   5.971
 8515SOL     OW37423   2.963   4.214  16.332
 8515SOL    HW137424   2.953   4.268  16.410
 8515SOL    HW237425   2.898   4.248  16.271
 8516SOL     OW37426   4.132   1.192   1.758
 8516SOL    HW137427   4.218   1.158   1.733
 8516SOL    HW237428   4.075   1.115   1.759
 8517SOL     OW37429   0.292   3.521  18.547
 8517SOL    HW137430   0.255   3.591  18.601
 8517SOL    HW237431   0.224   3.502  18.483
 8518SOL     OW37432   3.141   1.440   8.151
 8518SOL    HW137433   3.107   1.528   8.137
 8518SOL    HW237434   3.103   1.388   8.080
 8519SOL     OW37435   0.064   0.422   0.805
 8519SOL    HW137436   4.762   0.399   0.801
 8519SOL    HW237437   0.089   0.403   0.896
 8520SOL     OW37438   0.180   0.764   4.310
 8520SOL    HW137439   0.118   0.776   4.239
 8520SOL    HW237440   0.130   0.785   4.390
 8521SOL     OW37441   2.753   2.847  20.204
 8521SOL    HW137442   2.815   2.829  20.275
 8521SOL    HW237443   2.687   2.778  20.213
 8522SOL     OW37444   3.784   0.481   8.066
 8522SOL    HW137445   3.769   0.494   7.972
 8522SOL    HW237446   3.783   0.569   8.103
 8523SOL     OW37447   2.014   2.031   1.385
 8523SOL    HW137448   2.064   1.964   1.339
 8523SOL    HW237449   2.079   2.080   1.434
 8524SOL     OW37450   0.354   4.741  18.651
 8524SOL    HW137451   0.354   4.724  18.557
 8524SOL    HW237452   0.328   4.657  18.690
 8525SOL     OW37453   3.131   2.363  20.628
 8525SOL    HW137454   3.176   2.337  20.547
 8525SOL    HW237455   3.077   2.437  20.602
 8526SOL     OW37456   2.916   2.955  18.543
 8526SOL    HW137457   2.929   3.049  18.531
 8526SOL    HW237458   2.823   2.941  18.521
 8527SOL     OW37459   2.094   1.930   4.889
 8527SOL    HW137460   2.135   1.930   4.975
 8527SOL    HW237461   2.078   1.837   4.870
 8528SOL     OW37462   4.547   2.621  16.962
 8528SOL    HW137463   4.642   2.634  16.956
 8528SOL    HW237464   4.510   2.701  16.925
 8529SOL     OW37465   2.053   0.635  16.889
 8529SOL    HW137466   1.976   0.639  16.833
 8529SOL    HW237467   2.019   0.605  16.974
 8530SOL     OW37468   0.220   3.382   4.228
 8530SOL    HW137469   0.244   3.291   4.246
 8530SOL    HW237470   0.270   3.433   4.292
 8531SOL     OW37471   4.563   3.797  20.967
 8531SOL    HW137472   4.564   3.746  20.886
 8531SOL    HW237473   4.484   3.851  20.961
 8532SOL     OW37474   4.640   1.716   1.987
 8532SOL    HW137475   4.633   1.775   1.912
 8532SOL    HW237476   4.561   1.731   2.038
 8533SOL     OW37477   0.433   2.247   1.315
 8533SOL    HW137478   0.406   2.227   1.405
 8533SOL    HW237479   0.362   2.214   1.260
 8534SOL     OW37480   2.933   4.761  17.695
 8534SOL    HW137481   3.002   4.722  17.642
 8534SOL    HW237482   2.943   4.720  17.781
 8535SOL     OW37483   0.867   3.825   4.502
 8535SOL    HW137484   0.898   3.768   4.573
 8535SOL    HW237485   0.846   3.908   4.546
 8536SOL     OW37486   2.187   4.037  18.650
 8536SOL    HW137487   2.273   4.013  18.615
 8536SOL    HW237488   2.175   4.128  18.623
 8537SOL     OW37489   0.172   0.350  12.945
 8537SOL    HW137490   0.101   0.301  12.902
 8537SOL    HW237491   0.196   0.417  12.882
 8538SOL     OW37492   4.636   2.127   0.184
 8538SOL    HW137493   4.584   2.082   0.118
 8538SOL    HW237494   4.726   2.102   0.165
 8539SOL     OW37495   3.897   1.486  18.810
 8539SOL    HW137496   3.978   1.510  18.764
 8539SOL    HW237497   3.839   1.456  18.740
 8540SOL     OW37498   1.817   3.865  19.636
 8540SOL    HW137499   1.810   3.839  19.728
 8540SOL    HW237500   1.823   3.961  19.639
 8541SOL     OW37501   4.620   2.520   4.848
 8541SOL    HW137502   4.590   2.566   4.769
 8541SOL    HW237503   4.620   2.428   4.822
 8542SOL     OW37504   1.666   0.777   2.298
 8542SOL    HW137505   1.616   0.696   2.287
 8542SOL    HW237506   1.734   0.756   2.362
 8543SOL     OW37507   1.167   4.483  20.461
 8543SOL    HW137508   1.255   4.521  20.467
 8543SOL    HW237509   1.109   4.551  20.497
 8544SOL     OW37510   1.231   4.079   0.669
 8544SOL    HW137511   1.267   3.994   0.642
 8544SOL    HW237512   1.224   4.129   0.588
 8545SOL     OW37513   0.962   2.339  15.041
 8545SOL    HW137514   0.980   2.429  15.016
 8545SOL    HW237515   0.881   2.344  15.092
 8546SOL     OW37516   2.509   0.683  15.868
 8546SOL    HW137517   2.433   0.673  15.926
 8546SOL    HW237518   2.557   0.600  15.877
 8547SOL     OW37519   2.935   3.882  14.730
 8547SOL    HW137520   2.897   3.959  14.772
 8547SOL    HW237521   2.866   3.815  14.738
 8548SOL     OW37522   3.633   0.789  16.844
 8548SOL    HW137523   3.607   0.860  16.785
 8548SOL    HW237524   3.594   0.812  16.929
 8549SOL     OW37525   2.165   2.200  21.207
 8549SOL    HW137526   2.193   2.290  21.193
 8549SOL    HW237527   2.153   2.193   0.039
 8550SOL     OW37528   0.360   1.860   2.296
 8550SOL    HW137529   0.331   1.798   2.363
 8550SOL    HW237530   0.280   1.880   2.247
 8551SOL     OW37531   1.934   3.074   1.348
 8551SOL    HW137532   1.982   3.002   1.388
 8551SOL    HW237533   1.861   3.091   1.407
 8552SOL     OW37534   3.239   1.206   7.841
 8552SOL    HW137535   3.303   1.257   7.791
 8552SOL    HW237536   3.292   1.141   7.888
 8553SOL     OW37537   1.913   0.896   4.796
 8553SOL    HW137538   1.970   0.861   4.728
 8553SOL    HW237539   1.826   0.899   4.755
 8554SOL     OW37540   2.844   1.188  14.520
 8554SOL    HW137541   2.895   1.245  14.463
 8554SOL    HW237542   2.853   1.227  14.607
 8555SOL     OW37543   4.151   0.695   2.169
 8555SOL    HW137544   4.114   0.655   2.090
 8555SOL    HW237545   4.103   0.656   2.241
 8556SOL     OW37546   1.486   3.502  13.019
 8556SOL    HW137547   1.537   3.489  13.099
 8556SOL    HW237548   1.459   3.413  12.994
 8557SOL     OW37549   1.938   0.531   5.038
 8557SOL    HW137550   1.858   0.531   4.986
 8557SOL    HW237551   1.935   0.449   5.086
 8558SOL     OW37552   0.542   2.408   3.275
 8558SOL    HW137553   0.625   2.430   3.235
 8558SOL    HW237554   0.485   2.482   3.254
 8559SOL     OW37555   0.446   1.778  20.856
 8559SOL    HW137556   0.397   1.746  20.781
 8559SOL    HW237557   0.429   1.715  20.926
 8560SOL     OW37558   3.038   1.869   5.221
 8560SOL    HW137559   2.953   1.894   5.186
 8560SOL    HW237560   3.062   1.942   5.279
 8561SOL     OW37561   1.916   1.293   3.866
 8561SOL    HW137562   1.919   1.385   3.841
 8561SOL    HW237563   1.920   1.245   3.783
 8562SOL     OW37564   4.439   4.516  15.660
 8562SOL    HW137565   4.509   4.509  15.724
 8562SOL    HW237566   4.367   4.466  15.697
 8563SOL     OW37567   2.928   2.034  16.673
 8563SOL    HW137568   2.992   2.078  16.728
 8563SOL    HW237569   2.867   2.103  16.647
 8564SOL     OW37570   2.195   1.331  20.440
 8564SOL    HW137571   2.135   1.258  20.425
 8564SOL    HW237572   2.246   1.337  20.359
 8565SOL     OW37573   0.783   3.036   2.147
 8565SOL    HW137574   0.691   3.029   2.174
 8565SOL    HW237575   0.828   3.072   2.224
 8566SOL     OW37576   1.665   3.002  15.123
 8566SOL    HW137577   1.760   3.001  15.113
 8566SOL    HW237578   1.645   2.918  15.164
 8567SOL     OW37579   3.516   4.364   3.159
 8567SOL    HW137580   3.498   4.447   3.202
 8567SOL    HW237581   3.433   4.316   3.163
 8568SOL     OW37582   4.292   3.917  18.999
 8568SOL    HW137583   4.231   3.968  19.052
 8568SOL    HW237584   4.248   3.833  18.985
 8569SOL     OW37585   1.489   1.516   3.982
 8569SOL    HW137586   1.512   1.455   3.912
 8569SOL    HW237587   1.393   1.518   3.982
 8570SOL     OW37588   1.178   3.919  11.038
 8570SOL    HW137589   1.183   3.823  11.040
 8570SOL    HW237590   1.167   3.944  11.130
 8571SOL     OW37591   4.513   3.350  15.720
 8571SOL    HW137592   4.474   3.436  15.710
 8571SOL    HW237593   4.513   3.313  15.631
 8572SOL     OW37594   3.042   0.337  18.896
 8572SOL    HW137595   3.002   0.299  18.974
 8572SOL    HW237596   2.979   0.321  18.826
 8573SOL     OW37597   0.184   1.337   1.638
 8573SOL    HW137598   0.112   1.288   1.677
 8573SOL    HW237599   0.235   1.271   1.591
 8574SOL     OW37600   2.682   1.139  15.886
 8574SOL    HW137601   2.618   1.186  15.939
 8574SOL    HW237602   2.633   1.068  15.845
 8575SOL     OW37603   4.233   3.502  17.558
 8575SOL    HW137604   4.242   3.514  17.653
 8575SOL    HW237605   4.252   3.410  17.543
 8576SOL     OW37606   0.370   4.597  13.041
 8576SOL    HW137607   0.449   4.564  12.999
 8576SOL    HW237608   0.341   4.669  12.984
 8577SOL     OW37609   3.562   2.070   7.048
 8577SOL    HW137610   3.480   2.118   7.059
 8577SOL    HW237611   3.549   1.990   7.099
 8578SOL     OW37612   0.949   2.079   0.713
 8578SOL    HW137613   0.980   2.071   0.803
 8578SOL    HW237614   0.854   2.067   0.718
 8579SOL     OW37615   4.096   0.835   1.296
 8579SOL    HW137616   4.048   0.918   1.302
 8579SOL    HW237617   4.185   0.858   1.322
 8580SOL     OW37618   2.946   4.513   5.887
 8580SOL    HW137619   2.909   4.463   5.960
 8580SOL    HW237620   3.032   4.541   5.919
 8581SOL     OW37621   4.564   0.147  13.732
 8581SOL    HW137622   4.640   0.090  13.725
 8581SOL    HW237623   4.591   0.229  13.692
 8582SOL     OW37624   4.092   2.352  16.291
 8582SOL    HW137625   4.140   2.420  16.337
 8582SOL    HW237626   4.026   2.398  16.240
 8583SOL     OW37627   0.650   0.878  17.649
 8583SOL    HW137628   0.559   0.886  17.622
 8583SOL    HW237629   0.691   0.959  17.618
 8584SOL     OW37630   1.453   0.727   1.265
 8584SOL    HW137631   1.413   0.748   1.350
 8584SOL    HW237632   1.432   0.635   1.251
 8585SOL     OW37633   1.312   2.613   5.163
 8585SOL    HW137634   1.224   2.585   5.187
 8585SOL    HW237635   1.347   2.654   5.242
 8586SOL     OW37636   4.344   3.769   5.157
 8586SOL    HW137637   4.327   3.728   5.073
 8586SOL    HW237638   4.344   3.697   5.220
 8587SOL     OW37639   3.456   0.759   0.201
 8587SOL    HW137640   3.518   0.689   0.221
 8587SOL    HW237641   3.445   0.755   0.106
 8588SOL     OW37642   3.187   2.664   3.263
 8588SOL    HW137643   3.123   2.727   3.229
 8588SOL    HW237644   3.135   2.587   3.285
 8589SOL     OW37645   2.678   2.152   2.575
 8589SOL    HW137646   2.774   2.152   2.574
 8589SOL    HW237647   2.654   2.242   2.595
 8590SOL     OW37648   2.943   1.893   2.814
 8590SOL    HW137649   2.888   1.828   2.769
 8590SOL    HW237650   3.033   1.868   2.793
 8591SOL     OW37651   0.860   4.063  17.975
 8591SOL    HW137652   0.799   3.999  17.937
 8591SOL    HW237653   0.810   4.144  17.981
 8592SOL     OW37654   4.524   2.207  19.365
 8592SOL    HW137655   4.497   2.296  19.342
 8592SOL    HW237656   4.457   2.176  19.425
 8593SOL     OW37657   0.900   0.847  15.057
 8593SOL    HW137658   0.848   0.870  15.134
 8593SOL    HW237659   0.990   0.862  15.084
 8594SOL     OW37660   2.738   0.786  17.103
 8594SOL    HW137661   2.738   0.860  17.164
 8594SOL    HW237662   2.800   0.811  17.035
 8595SOL     OW37663   0.269   1.292   2.534
 8595SOL    HW137664   0.253   1.317   2.625
 8595SOL    HW237665   0.289   1.375   2.490
 8596SOL     OW37666   1.874   4.624   2.729
 8596SOL    HW137667   1.955   4.640   2.681
 8596SOL    HW237668   1.876   4.687   2.801
 8597SOL     OW37669   2.714   0.040  15.396
 8597SOL    HW137670   2.644   0.072  15.454
 8597SOL    HW237671   2.784   0.104  15.406
 8598SOL     OW37672   2.875   1.853   3.586
 8598SOL    HW137673   2.786   1.854   3.619
 8598SOL    HW237674   2.894   1.760   3.572
 8599SOL     OW37675   2.404   0.648  14.126
 8599SOL    HW137676   2.382   0.587  14.197
 8599SOL    HW237677   2.472   0.704  14.163
 8600SOL     OW37678   4.183   3.095  17.322
 8600SOL    HW137679   4.208   3.114  17.413
 8600SOL    HW237680   4.249   3.034  17.291
 8601SOL     OW37681   4.771   3.264   1.606
 8601SOL    HW137682   4.768   3.360   1.611
 8601SOL    HW237683   4.787   3.245   1.514
 8602SOL     OW37684   2.858   3.773  18.474
 8602SOL    HW137685   2.836   3.747  18.385
 8602SOL    HW237686   2.779   3.816  18.507
 8603SOL     OW37687   1.377   1.001  20.436
 8603SOL    HW137688   1.341   0.929  20.385
 8603SOL    HW237689   1.327   1.078  20.407
 8604SOL     OW37690   0.427   2.518  19.377
 8604SOL    HW137691   0.419   2.518  19.473
 8604SOL    HW237692   0.412   2.428  19.351
 8605SOL     OW37693   2.317   1.726   1.286
 8605SOL    HW137694   2.250   1.793   1.281
 8605SOL    HW237695   2.384   1.753   1.223
 8606SOL     OW37696   2.357   1.501   1.947
 8606SOL    HW137697   2.441   1.534   1.916
 8606SOL    HW237698   2.300   1.578   1.946
 8607SOL     OW37699   1.566   1.662   2.065
 8607SOL    HW137700   1.623   1.635   2.136
 8607SOL    HW237701   1.593   1.752   2.045
 8608SOL     OW37702   3.823   2.180   6.627
 8608SOL    HW137703   3.787   2.127   6.556
 8608SOL    HW237704   3.756   2.178   6.695
 8609SOL     OW37705   2.677   2.681  12.924
 8609SOL    HW137706   2.586   2.675  12.955
 8609SOL    HW237707   2.718   2.602  12.958
 8610SOL     OW37708   2.536   2.726   7.074
 8610SOL    HW137709   2.566   2.787   7.142
 8610SOL    HW237710   2.572   2.641   7.101
 8611SOL     OW37711   3.147   3.289   0.918
 8611SOL    HW137712   3.234   3.313   0.950
 8611SOL    HW237713   3.162   3.255   0.829
 8612SOL     OW37714   2.115   4.627  16.223
 8612SOL    HW137715   2.177   4.675  16.279
 8612SOL    HW237716   2.034   4.678  16.229
 8613SOL     OW37717   1.579   0.478  21.057
 8613SOL    HW137718   1.559   0.539  21.128
 8613SOL    HW237719   1.675   0.479  21.051
 8614SOL     OW37720   3.912   4.481   0.864
 8614SOL    HW137721   4.006   4.469   0.853
 8614SOL    HW237722   3.874   4.436   0.788
 8615SOL     OW37723   2.903   1.181  20.076
 8615SOL    HW137724   2.865   1.264  20.047
 8615SOL    HW237725   2.925   1.194  20.168
 8616SOL     OW37726   3.216   4.619  17.766
 8616SOL    HW137727   3.127   4.624  17.799
 8616SOL    HW237728   3.208   4.637  17.672
 8617SOL     OW37729   0.951   1.490   4.972
 8617SOL    HW137730   0.955   1.561   4.907
 8617SOL    HW237731   1.005   1.521   5.044
 8618SOL     OW37732   2.013   2.994   1.063
 8618SOL    HW137733   1.961   2.944   1.125
 8618SOL    HW237734   2.017   3.082   1.099
 8619SOL     OW37735   1.178   3.285  16.866
 8619SOL    HW137736   1.098   3.301  16.817
 8619SOL    HW237737   1.181   3.190  16.877
 8620SOL     OW37738   0.799   0.441  18.933
 8620SOL    HW137739   0.717   0.392  18.929
 8620SOL    HW237740   0.799   0.481  19.020
 8621SOL     OW37741   3.231   2.563   5.857
 8621SOL    HW137742   3.275   2.478   5.850
 8621SOL    HW237743   3.282   2.611   5.923
 8622SOL     OW37744   2.404   3.417   8.082
 8622SOL    HW137745   2.372   3.387   8.167
 8622SOL    HW237746   2.353   3.368   8.018
 8623SOL     OW37747   4.408   3.851  16.298
 8623SOL    HW137748   4.501   3.872  16.289
 8623SOL    HW237749   4.364   3.935  16.284
 8624SOL     OW37750   4.178   1.919  19.254
 8624SOL    HW137751   4.219   1.836  19.276
 8624SOL    HW237752   4.140   1.950  19.337
 8625SOL     OW37753   0.690   2.282  16.992
 8625SOL    HW137754   0.745   2.356  17.017
 8625SOL    HW237755   0.607   2.322  16.967
 8626SOL     OW37756   1.804   3.890   5.740
 8626SOL    HW137757   1.845   3.925   5.818
 8626SOL    HW237758   1.712   3.877   5.765
 8627SOL     OW37759   2.470   3.736   9.056
 8627SOL    HW137760   2.552   3.753   9.101
 8627SOL    HW237761   2.428   3.668   9.109
 8628SOL     OW37762   2.678   2.043  15.903
 8628SOL    HW137763   2.604   2.095  15.870
 8628SOL    HW237764   2.724   2.102  15.962
 8629SOL     OW37765   1.505   2.936  19.346
 8629SOL    HW137766   1.513   3.008  19.283
 8629SOL    HW237767   1.578   2.878  19.327
 8630SOL     OW37768   2.775   2.604   3.709
 8630SOL    HW137769   2.820   2.520   3.721
 8630SOL    HW237770   2.827   2.650   3.644
 8631SOL     OW37771   4.253   2.529  16.425
 8631SOL    HW137772   4.197   2.606  16.422
 8631SOL    HW237773   4.300   2.536  16.509
 8632SOL     OW37774   3.962   2.671  14.865
 8632SOL    HW137775   3.957   2.754  14.817
 8632SOL    HW237776   3.879   2.628  14.847
 8633SOL     OW37777   3.733   2.650   2.458
 8633SOL    HW137778   3.812   2.684   2.416
 8633SOL    HW237779   3.676   2.726   2.465
 8634SOL     OW37780   1.300   0.015  14.573
 8634SOL    HW137781   1.315   0.046  14.663
 8634SOL    HW237782   1.207   0.032  14.558
 8635SOL     OW37783   3.548   2.214   1.495
 8635SOL    HW137784   3.499   2.281   1.448
 8635SOL    HW237785   3.481   2.151   1.522
 8636SOL     OW37786   2.232   3.560  17.014
 8636SOL    HW137787   2.137   3.562  17.003
 8636SOL    HW237788   2.245   3.520  17.100
 8637SOL     OW37789   4.717   0.801  14.150
 8637SOL    HW137790   4.736   0.792  14.244
 8637SOL    HW237791   4.750   0.721  14.111
 8638SOL     OW37792   0.500   1.690  16.775
 8638SOL    HW137793   0.477   1.726  16.861
 8638SOL    HW237794   0.577   1.740  16.748
 8639SOL     OW37795   0.536   3.806   0.962
 8639SOL    HW137796   0.469   3.828   0.898
 8639SOL    HW237797   0.501   3.839   1.045
 8640SOL     OW37798   2.135   3.877   7.128
 8640SOL    HW137799   2.164   3.929   7.052
 8640SOL    HW237800   2.047   3.849   7.105
 8641SOL     OW37801   3.522   1.262   0.036
 8641SOL    HW137802   3.503   1.227  21.212
 8641SOL    HW237803   3.611   1.233   0.054
 8642SOL     OW37804   3.337   0.587   6.140
 8642SOL    HW137805   3.294   0.645   6.203
 8642SOL    HW237806   3.273   0.573   6.072
 8643SOL     OW37807   2.340   1.658   4.459
 8643SOL    HW137808   2.319   1.632   4.370
 8643SOL    HW237809   2.290   1.598   4.514
 8644SOL     OW37810   1.364   0.533  20.719
 8644SOL    HW137811   1.313   0.503  20.794
 8644SOL    HW237812   1.438   0.581  20.757
 8645SOL     OW37813   0.238   1.060   0.136
 8645SOL    HW137814   0.297   0.985   0.140
 8645SOL    HW237815   0.246   1.093   0.046
 8646SOL     OW37816   1.026   4.636  16.216
 8646SOL    HW137817   1.102   4.593  16.256
 8646SOL    HW237818   1.062   4.715  16.176
 8647SOL     OW37819   3.214   3.773   3.484
 8647SOL    HW137820   3.257   3.723   3.415
 8647SOL    HW237821   3.233   3.864   3.462
 8648SOL     OW37822   0.537   4.636   5.240
 8648SOL    HW137823   0.629   4.624   5.262
 8648SOL    HW237824   0.490   4.578   5.300
 8649SOL     OW37825   0.665   0.965  17.378
 8649SOL    HW137826   0.601   0.900  17.349
 8649SOL    HW237827   0.647   1.042  17.325
 8650SOL     OW37828   1.409   4.445  16.085
 8650SOL    HW137829   1.340   4.478  16.028
 8650SOL    HW237830   1.467   4.519  16.098
 8651SOL     OW37831   2.448   2.383   2.098
 8651SOL    HW137832   2.394   2.309   2.069
 8651SOL    HW237833   2.507   2.346   2.163
 8652SOL     OW37834   2.478   0.818  17.915
 8652SOL    HW137835   2.534   0.799  17.840
 8652SOL    HW237836   2.539   0.822  17.989
 8653SOL     OW37837   1.174   0.521   2.189
 8653SOL    HW137838   1.219   0.562   2.115
 8653SOL    HW237839   1.205   0.570   2.265
 8654SOL     OW37840   1.407   1.247  16.711
 8654SOL    HW137841   1.445   1.328  16.747
 8654SOL    HW237842   1.318   1.272  16.685
 8655SOL     OW37843   1.745   0.832  13.783
 8655SOL    HW137844   1.812   0.770  13.813
 8655SOL    HW237845   1.726   0.886  13.859
 8656SOL     OW37846   3.629   1.740   0.615
 8656SOL    HW137847   3.669   1.827   0.613
 8656SOL    HW237848   3.669   1.694   0.542
 8657SOL     OW37849   2.522   4.140  20.741
 8657SOL    HW137850   2.517   4.235  20.746
 8657SOL    HW237851   2.573   4.123  20.661
 8658SOL     OW37852   3.116   0.751   1.160
 8658SOL    HW137853   3.082   0.675   1.114
 8658SOL    HW237854   3.209   0.754   1.137
 8659SOL     OW37855   3.692   2.199   5.598
 8659SOL    HW137856   3.665   2.181   5.688
 8659SOL    HW237857   3.779   2.238   5.606
 8660SOL     OW37858   0.652   4.494   0.248
 8660SOL    HW137859   0.684   4.584   0.247
 8660SOL    HW237860   0.701   4.451   0.178
 8661SOL     OW37861   0.514   1.606  16.402
 8661SOL    HW137862   0.445   1.574  16.345
 8661SOL    HW237863   0.595   1.594  16.352
 8662SOL     OW37864   4.743   3.573   6.267
 8662SOL    HW137865   0.031   3.549   6.218
 8662SOL    HW237866   4.682   3.502   6.250
 8663SOL     OW37867   1.450   3.327   4.105
 8663SOL    HW137868   1.524   3.384   4.123
 8663SOL    HW237869   1.452   3.261   4.175
 8664SOL     OW37870   1.204   1.199  11.637
 8664SOL    HW137871   1.184   1.202  11.544
 8664SOL    HW237872   1.292   1.236  11.645
 8665SOL     OW37873   3.464   2.060  20.960
 8665SOL    HW137874   3.390   2.000  20.959
 8665SOL    HW237875   3.527   2.022  20.899
 8666SOL     OW37876   0.549   2.173   1.018
 8666SOL    HW137877   0.514   2.085   1.012
 8666SOL    HW237878   0.601   2.173   1.099
 8667SOL     OW37879   1.947   1.849  16.155
 8667SOL    HW137880   1.972   1.931  16.198
 8667SOL    HW237881   1.864   1.824  16.197
 8668SOL     OW37882   4.537   2.839   5.410
 8668SOL    HW137883   4.456   2.789   5.415
 8668SOL    HW237884   4.603   2.783   5.451
 8669SOL     OW37885   0.799   3.892   5.675
 8669SOL    HW137886   0.776   3.980   5.645
 8669SOL    HW237887   0.857   3.857   5.607
 8670SOL     OW37888   2.301   3.034   1.370
 8670SOL    HW137889   2.346   2.999   1.292
 8670SOL    HW237890   2.281   3.125   1.348
 8671SOL     OW37891   3.254   3.081  15.512
 8671SOL    HW137892   3.245   3.064  15.418
 8671SOL    HW237893   3.207   3.009  15.554
 8672SOL     OW37894   0.602   2.602   1.632
 8672SOL    HW137895   0.590   2.511   1.658
 8672SOL    HW237896   0.686   2.604   1.586
 8673SOL     OW37897   0.409   2.545   5.553
 8673SOL    HW137898   0.406   2.543   5.649
 8673SOL    HW237899   0.486   2.495   5.530
 8674SOL     OW37900   2.863   0.836  20.818
 8674SOL    HW137901   2.893   0.745  20.825
 8674SOL    HW237902   2.944   0.888  20.817
 8675SOL     OW37903   0.863   3.852   3.361
 8675SOL    HW137904   0.857   3.773   3.415
 8675SOL    HW237905   0.782   3.900   3.379
 8676SOL     OW37906   2.007   4.333   1.403
 8676SOL    HW137907   1.939   4.274   1.372
 8676SOL    HW237908   2.087   4.303   1.360
 8677SOL     OW37909   4.192   2.026  20.408
 8677SOL    HW137910   4.100   2.045  20.393
 8677SOL    HW237911   4.237   2.060  20.331
 8678SOL     OW37912   3.332   2.366  15.160
 8678SOL    HW137913   3.247   2.411  15.154
 8678SOL    HW237914   3.386   2.406  15.092
 8679SOL     OW37915   4.265   0.334   3.265
 8679SOL    HW137916   4.214   0.254   3.259
 8679SOL    HW237917   4.202   0.401   3.292
 8680SOL     OW37918   4.353   3.292   4.134
 8680SOL    HW137919   4.366   3.387   4.128
 8680SOL    HW237920   4.433   3.255   4.095
 8681SOL     OW37921   1.525   2.456  17.765
 8681SOL    HW137922   1.612   2.443  17.803
 8681SOL    HW237923   1.478   2.375  17.784
 8682SOL     OW37924   2.211   4.229  15.098
 8682SOL    HW137925   2.226   4.297  15.164
 8682SOL    HW237926   2.288   4.234  15.042
 8683SOL     OW37927   4.052   3.752   4.019
 8683SOL    HW137928   4.073   3.818   3.953
 8683SOL    HW237929   3.959   3.733   4.005
 8684SOL     OW37930   3.824   3.687   0.209
 8684SOL    HW137931   3.873   3.768   0.198
 8684SOL    HW237932   3.886   3.618   0.186
 8685SOL     OW37933   4.339   0.926   3.889
 8685SOL    HW137934   4.269   0.861   3.888
 8685SOL    HW237935   4.310   0.992   3.952
 8686SOL     OW37936   1.983   1.536  16.314
 8686SOL    HW137937   1.986   1.558  16.221
 8686SOL    HW237938   2.072   1.508  16.335
 8687SOL     OW37939   0.932   1.423  15.875
 8687SOL    HW137940   0.931   1.394  15.966
 8687SOL    HW237941   1.007   1.483  15.870
 8688SOL     OW37942   3.411   1.903  17.097
 8688SOL    HW137943   3.464   1.825  17.082
 8688SOL    HW237944   3.414   1.917  17.191
 8689SOL     OW37945   0.438   3.469  20.341
 8689SOL    HW137946   0.459   3.504  20.254
 8689SOL    HW237947   0.491   3.390  20.348
 8690SOL     OW37948   4.672   3.212  17.490
 8690SOL    HW137949   4.609   3.268  17.446
 8690SOL    HW237950   4.713   3.161  17.420
 8691SOL     OW37951   4.147   4.735   5.387
 8691SOL    HW137952   4.229   4.699   5.423
 8691SOL    HW237953   4.114   4.666   5.330
 8692SOL     OW37954   1.324   0.688   6.979
 8692SOL    HW137955   1.413   0.658   6.960
 8692SOL    HW237956   1.336   0.758   7.044
 8693SOL     OW37957   1.230   2.671   3.668
 8693SOL    HW137958   1.217   2.758   3.630
 8693SOL    HW237959   1.143   2.631   3.667
 8694SOL     OW37960   3.176   1.991   4.422
 8694SOL    HW137961   3.177   2.050   4.346
 8694SOL    HW237962   3.109   2.027   4.479
 8695SOL     OW37963   2.874   2.548  13.389
 8695SOL    HW137964   2.834   2.485  13.330
 8695SOL    HW237965   2.893   2.625  13.334
 8696SOL     OW37966   0.268   1.395   7.826
 8696SOL    HW137967   0.223   1.434   7.901
 8696SOL    HW237968   0.292   1.307   7.856
 8697SOL     OW37969   1.412   4.182   5.182
 8697SOL    HW137970   1.376   4.211   5.266
 8697SOL    HW237971   1.499   4.147   5.204
 8698SOL     OW37972   0.854   0.866  20.294
 8698SOL    HW137973   0.948   0.850  20.295
 8698SOL    HW237974   0.841   0.930  20.223
 8699SOL     OW37975   3.796   1.465  12.634
 8699SOL    HW137976   3.772   1.431  12.720
 8699SOL    HW237977   3.736   1.422  12.573
 8700SOL     OW37978   0.023   0.384   6.812
 8700SOL    HW137979   4.743   0.371   6.750
 8700SOL    HW237980   0.062   0.298   6.822
 8701SOL     OW37981   2.725   1.913   0.799
 8701SOL    HW137982   2.640   1.893   0.760
 8701SOL    HW237983   2.745   1.836   0.853
 8702SOL     OW37984   2.414   1.011  18.859
 8702SOL    HW137985   2.497   1.060  18.853
 8702SOL    HW237986   2.367   1.035  18.780
 8703SOL     OW37987   0.864   4.040   7.445
 8703SOL    HW137988   0.820   3.981   7.384
 8703SOL    HW237989   0.930   4.084   7.393
 8704SOL     OW37990   3.764   1.709  19.146
 8704SOL    HW137991   3.836   1.744  19.093
 8704SOL    HW237992   3.774   1.614  19.139
 8705SOL     OW37993   0.853   3.250  16.030
 8705SOL    HW137994   0.763   3.219  16.026
 8705SOL    HW237995   0.885   3.242  15.940
 8706SOL     OW37996   4.178   2.403   0.856
 8706SOL    HW137997   4.110   2.439   0.800
 8706SOL    HW237998   4.214   2.478   0.903
 8707SOL     OW37999   3.274   2.164   4.708
 8707SOL    HW138000   3.208   2.100   4.734
 8707SOL    HW238001   3.229   2.248   4.709
 8708SOL     OW38002   1.750   1.456  19.802
 8708SOL    HW138003   1.754   1.364  19.778
 8708SOL    HW238004   1.764   1.457  19.897
 8709SOL     OW38005   1.833   2.999  20.595
 8709SOL    HW138006   1.822   3.042  20.680
 8709SOL    HW238007   1.908   2.941  20.607
 8710SOL     OW38008   0.425   3.922  19.822
 8710SOL    HW138009   0.347   3.904  19.875
 8710SOL    HW238010   0.462   4.001  19.860
 8711SOL     OW38011   3.927   4.547   6.301
 8711SOL    HW138012   3.861   4.478   6.299
 8711SOL    HW238013   3.945   4.566   6.209
 8712SOL     OW38014   2.314   1.505   6.544
 8712SOL    HW138015   2.335   1.483   6.453
 8712SOL    HW238016   2.266   1.587   6.539
 8713SOL     OW38017   1.015   4.612   4.167
 8713SOL    HW138018   1.004   4.518   4.183
 8713SOL    HW238019   1.079   4.617   4.097
 8714SOL     OW38020   4.285   1.156   5.542
 8714SOL    HW138021   4.283   1.087   5.476
 8714SOL    HW238022   4.265   1.113   5.624
 8715SOL     OW38023   4.169   3.345   5.147
 8715SOL    HW138024   4.229   3.333   5.074
 8715SOL    HW238025   4.105   3.409   5.116
 8716SOL     OW38026   1.789   3.351   0.271
 8716SOL    HW138027   1.773   3.391   0.357
 8716SOL    HW238028   1.782   3.424   0.209
 8717SOL     OW38029   3.097   3.133  20.118
 8717SOL    HW138030   3.165   3.132  20.051
 8717SOL    HW238031   3.067   3.224  20.121
 8718SOL     OW38032   0.702   3.184  17.399
 8718SOL    HW138033   0.644   3.108  17.399
 8718SOL    HW238034   0.785   3.151  17.363
 8719SOL     OW38035   1.723   0.283  12.696
 8719SOL    HW138036   1.650   0.238  12.653
 8719SOL    HW238037   1.759   0.340  12.628
 8720SOL     OW38038   2.290   1.536   1.618
 8720SOL    HW138039   2.380   1.542   1.588
 8720SOL    HW238040   2.295   1.480   1.696
 8721SOL     OW38041   0.840   2.395  18.676
 8721SOL    HW138042   0.921   2.437  18.649
 8721SOL    HW238043   0.796   2.371  18.594
 8722SOL     OW38044   0.578   3.943   2.063
 8722SOL    HW138045   0.556   4.020   2.115
 8722SOL    HW238046   0.640   3.975   1.997
 8723SOL     OW38047   2.434   0.083   3.327
 8723SOL    HW138048   2.473   0.029   3.396
 8723SOL    HW238049   2.424   0.169   3.368
 8724SOL     OW38050   3.944   2.854  16.185
 8724SOL    HW138051   3.865   2.879  16.135
 8724SOL    HW238052   4.015   2.898  16.139
 8725SOL     OW38053   3.803   3.808  15.860
 8725SOL    HW138054   3.885   3.858  15.855
 8725SOL    HW238055   3.830   3.721  15.889
 8726SOL     OW38056   1.814   2.569   3.408
 8726SOL    HW138057   1.738   2.556   3.352
 8726SOL    HW238058   1.778   2.582   3.496
 8727SOL     OW38059   3.009   4.304  18.023
 8727SOL    HW138060   3.097   4.341  18.012
 8727SOL    HW238061   3.015   4.251  18.102
 8728SOL     OW38062   3.628   0.776  19.994
 8728SOL    HW138063   3.629   0.698  20.049
 8728SOL    HW238064   3.651   0.848  20.053
 8729SOL     OW38065   1.610   3.143   0.351
 8729SOL    HW138066   1.671   3.216   0.337
 8729SOL    HW238067   1.631   3.112   0.440
 8730SOL     OW38068   2.284   0.673  19.233
 8730SOL    HW138069   2.303   0.738  19.166
 8730SOL    HW238070   2.293   0.720  19.316
 8731SOL     OW38071   0.240   1.904  18.166
 8731SOL    HW138072   0.243   1.882  18.260
 8731SOL    HW238073   0.227   1.819  18.123
 8732SOL     OW38074   0.587   3.924   4.832
 8732SOL    HW138075   0.604   3.856   4.767
 8732SOL    HW238076   0.497   3.952   4.814
 8733SOL     OW38077   4.008   3.442  20.228
 8733SOL    HW138078   4.087   3.482  20.191
 8733SOL    HW238079   3.986   3.372  20.167
 8734SOL     OW38080   1.694   3.894   4.801
 8734SOL    HW138081   1.629   3.950   4.759
 8734SOL    HW238082   1.661   3.805   4.788
 8735SOL     OW38083   1.089   0.681   1.382
 8735SOL    HW138084   1.003   0.661   1.419
 8735SOL    HW238085   1.098   0.776   1.392
 8736SOL     OW38086   3.971   2.746  15.603
 8736SOL    HW138087   3.979   2.838  15.580
 8736SOL    HW238088   3.877   2.729  15.604
 8737SOL     OW38089   0.845   1.236  16.107
 8737SOL    HW138090   0.933   1.220  16.142
 8737SOL    HW238091   0.788   1.234  16.183
 8738SOL     OW38092   4.562   4.772   4.425
 8738SOL    HW138093   4.529   4.691   4.464
 8738SOL    HW238094   4.657   4.764   4.430
 8739SOL     OW38095   2.950   1.251   1.353
 8739SOL    HW138096   2.888   1.245   1.281
 8739SOL    HW238097   2.905   1.209   1.427
 8740SOL     OW38098   0.371   1.118   1.514
 8740SOL    HW138099   0.419   1.135   1.433
 8740SOL    HW238100   0.438   1.092   1.577
 8741SOL     OW38101   4.056   1.431  19.270
 8741SOL    HW138102   3.986   1.431  19.205
 8741SOL    HW238103   4.123   1.374  19.232
 8742SOL     OW38104   2.401   3.317  18.445
 8742SOL    HW138105   2.413   3.297  18.352
 8742SOL    HW238106   2.359   3.239  18.481
 8743SOL     OW38107   1.964   3.481  18.840
 8743SOL    HW138108   1.915   3.432  18.907
 8743SOL    HW238109   1.910   3.557  18.822
 8744SOL     OW38110   0.084   3.624  19.682
 8744SOL    HW138111   0.023   3.642  19.753
 8744SOL    HW238112   0.050   3.674  19.608
 8745SOL     OW38113   4.505   2.258   3.951
 8745SOL    HW138114   4.427   2.313   3.937
 8745SOL    HW238115   4.570   2.318   3.987
 8746SOL     OW38116   4.545   3.181  15.946
 8746SOL    HW138117   4.512   3.094  15.922
 8746SOL    HW238118   4.511   3.239  15.877
 8747SOL     OW38119   3.335   4.123   2.192
 8747SOL    HW138120   3.392   4.074   2.133
 8747SOL    HW238121   3.352   4.215   2.172
 8748SOL     OW38122   3.566   4.486   6.051
 8748SOL    HW138123   3.601   4.569   6.085
 8748SOL    HW238124   3.637   4.423   6.066
 8749SOL     OW38125   0.525   4.683   2.941
 8749SOL    HW138126   0.449   4.633   2.972
 8749SOL    HW238127   0.495   4.726   2.861
 8750SOL     OW38128   2.448   2.837  19.087
 8750SOL    HW138129   2.478   2.926  19.101
 8750SOL    HW238130   2.522   2.782  19.111
 8751SOL     OW38131   1.106   0.204   0.759
 8751SOL    HW138132   1.096   0.109   0.766
 8751SOL    HW238133   1.157   0.229   0.836
 8752SOL     OW38134   4.234   1.327  14.070
 8752SOL    HW138135   4.317   1.374  14.067
 8752SOL    HW238136   4.258   1.235  14.079
 8753SOL     OW38137   3.087   3.237  15.044
 8753SOL    HW138138   3.077   3.246  14.949
 8753SOL    HW238139   3.151   3.303  15.069
 8754SOL     OW38140   1.636   0.406   7.164
 8754SOL    HW138141   1.552   0.401   7.118
 8754SOL    HW238142   1.615   0.376   7.253
 8755SOL     OW38143   2.663   3.344   2.872
 8755SOL    HW138144   2.682   3.330   2.965
 8755SOL    HW238145   2.673   3.439   2.860
 8756SOL     OW38146   1.786   2.152   1.841
 8756SOL    HW138147   1.848   2.117   1.778
 8756SOL    HW238148   1.732   2.213   1.789
 8757SOL     OW38149   1.910   0.750   1.472
 8757SOL    HW138150   1.974   0.813   1.440
 8757SOL    HW238151   1.889   0.780   1.560
 8758SOL     OW38152   2.607   1.130   8.111
 8758SOL    HW138153   2.685   1.146   8.163
 8758SOL    HW238154   2.535   1.165   8.164
 8759SOL     OW38155   0.888   0.279  15.581
 8759SOL    HW138156   0.811   0.252  15.632
 8759SOL    HW238157   0.906   0.368  15.610
 8760SOL     OW38158   4.130   2.687   9.924
 8760SOL    HW138159   4.115   2.771   9.880
 8760SOL    HW238160   4.152   2.627   9.853
 8761SOL     OW38161   4.788   4.612  21.198
 8761SOL    HW138162   0.037   4.531  21.165
 8761SOL    HW238163   4.715   4.629  21.138
 8762SOL     OW38164   4.171   4.678  16.794
 8762SOL    HW138165   4.079   4.664  16.819
 8762SOL    HW238166   4.217   4.601  16.828
 8763SOL     OW38167   2.979   2.520  13.071
 8763SOL    HW138168   3.024   2.521  12.987
 8763SOL    HW238169   2.980   2.611  13.100
 8764SOL     OW38170   1.518   3.502   3.531
 8764SOL    HW138171   1.575   3.426   3.549
 8764SOL    HW238172   1.442   3.465   3.487
 8765SOL     OW38173   3.412   1.075  20.106
 8765SOL    HW138174   3.466   1.141  20.062
 8765SOL    HW238175   3.332   1.121  20.129
 8766SOL     OW38176   2.426   4.682   3.538
 8766SOL    HW138177   2.465   4.629   3.469
 8766SOL    HW238178   2.336   4.697   3.508
 8767SOL     OW38179   3.673   0.004  20.311
 8767SOL    HW138180   3.676   0.030  20.403
 8767SOL    HW238181   3.629   4.710  20.311
 8768SOL     OW38182   1.555   0.956  14.569
 8768SOL    HW138183   1.617   1.013  14.523
 8768SOL    HW238184   1.541   0.883  14.509
 8769SOL     OW38185   3.871   0.514   0.872
 8769SOL    HW138186   3.785   0.471   0.870
 8769SOL    HW238187   3.885   0.545   0.782
 8770SOL     OW38188   4.413   0.350   6.122
 8770SOL    HW138189   4.337   0.363   6.065
 8770SOL    HW238190   4.434   0.438   6.153
 8771SOL     OW38191   0.269   4.291   5.300
 8771SOL    HW138192   0.213   4.358   5.339
 8771SOL    HW238193   0.245   4.211   5.347
 8772SOL     OW38194   0.497   1.156   4.589
 8772SOL    HW138195   0.578   1.188   4.629
 8772SOL    HW238196   0.498   1.062   4.604
 8773SOL     OW38197   2.021   0.975   2.161
 8773SOL    HW138198   1.959   0.991   2.232
 8773SOL    HW238199   2.090   0.921   2.201
 8774SOL     OW38200   1.282   3.954   5.692
 8774SOL    HW138201   1.249   3.871   5.725
 8774SOL    HW238202   1.268   3.951   5.598
 8775SOL     OW38203   0.894   3.620  15.613
 8775SOL    HW138204   0.904   3.527  15.591
 8775SOL    HW238205   0.865   3.661  15.531
 8776SOL     OW38206   1.728   4.163  18.617
 8776SOL    HW138207   1.633   4.164  18.623
 8776SOL    HW238208   1.747   4.152  18.524
 8777SOL     OW38209   3.894   3.619   4.744
 8777SOL    HW138210   3.957   3.685   4.771
 8777SOL    HW238211   3.944   3.558   4.690
 8778SOL     OW38212   0.446   3.166   1.299
 8778SOL    HW138213   0.399   3.134   1.376
 8778SOL    HW238214   0.537   3.143   1.315
 8779SOL     OW38215   4.566   0.673  19.124
 8779SOL    HW138216   4.528   0.760  19.112
 8779SOL    HW238217   4.661   0.687  19.119
 8780SOL     OW38218   3.350   2.315   5.844
 8780SOL    HW138219   3.410   2.319   5.770
 8780SOL    HW238220   3.406   2.323   5.921
 8781SOL     OW38221   0.763   4.425   2.742
 8781SOL    HW138222   0.817   4.381   2.676
 8781SOL    HW238223   0.709   4.355   2.778
 8782SOL     OW38224   3.337   1.811  20.693
 8782SOL    HW138225   3.385   1.748  20.639
 8782SOL    HW238226   3.399   1.835  20.762
 8783SOL     OW38227   3.282   0.793  17.164
 8783SOL    HW138228   3.254   0.762  17.250
 8783SOL    HW238229   3.232   0.873  17.150
 8784SOL     OW38230   0.856   2.117   2.722
 8784SOL    HW138231   0.876   2.121   2.815
 8784SOL    HW238232   0.767   2.082   2.718
 8785SOL     OW38233   0.059   1.530   6.628
 8785SOL    HW138234   0.079   1.455   6.684
 8785SOL    HW238235   0.077   1.500   6.539
 8786SOL     OW38236   1.155   0.562  19.724
 8786SOL    HW138237   1.099   0.639  19.711
 8786SOL    HW238238   1.235   0.598  19.762
 8787SOL     OW38239   4.047   0.698  15.385
 8787SOL    HW138240   3.957   0.731  15.385
 8787SOL    HW238241   4.038   0.603  15.380
 8788SOL     OW38242   4.740   3.018   6.154
 8788SOL    HW138243   0.021   3.067   6.192
 8788SOL    HW238244   4.716   2.954   6.221
 8789SOL     OW38245   0.932   1.731  20.035
 8789SOL    HW138246   0.863   1.669  20.009
 8789SOL    HW238247   0.885   1.812  20.055
 8790SOL     OW38248   4.361   0.917   1.256
 8790SOL    HW138249   4.356   0.878   1.169
 8790SOL    HW238250   4.444   0.966   1.255
 8791SOL     OW38251   0.591   0.631  19.772
 8791SOL    HW138252   0.630   0.609  19.857
 8791SOL    HW238253   0.618   0.722  19.757
 8792SOL     OW38254   4.257   4.630   4.425
 8792SOL    HW138255   4.282   4.702   4.368
 8792SOL    HW238256   4.183   4.664   4.476
 8793SOL     OW38257   0.495   3.414   2.495
 8793SOL    HW138258   0.438   3.340   2.517
 8793SOL    HW238259   0.475   3.433   2.403
 8794SOL     OW38260   4.770   4.297   6.539
 8794SOL    HW138261   4.733   4.309   6.452
 8794SOL    HW238262   4.776   4.386   6.575
 8795SOL     OW38263   4.699   2.102  17.773
 8795SOL    HW138264   4.716   2.107  17.867
 8795SOL    HW238265   4.759   2.164  17.734
 8796SOL     OW38266   1.411   3.826  15.929
 8796SOL    HW138267   1.474   3.899  15.926
 8796SOL    HW238268   1.383   3.815  15.838
 8797SOL     OW38269   0.333   0.267  16.859
 8797SOL    HW138270   0.316   0.303  16.947
 8797SOL    HW238271   0.403   0.322  16.824
 8798SOL     OW38272   2.403   3.821   5.058
 8798SOL    HW138273   2.498   3.836   5.054
 8798SOL    HW238274   2.369   3.868   4.981
 8799SOL     OW38275   2.463   1.981   5.836
 8799SOL    HW138276   2.555   2.006   5.847
 8799SOL    HW238277   2.467   1.893   5.799
 8800SOL     OW38278   3.855   1.276  16.454
 8800SOL    HW138279   3.851   1.365  16.419
 8800SOL    HW238280   3.775   1.268  16.506
 8801SOL     OW38281   1.135   1.607  18.161
 8801SOL    HW138282   1.202   1.617  18.229
 8801SOL    HW238283   1.184   1.611  18.079
 8802SOL     OW38284   1.213   4.594   0.185
 8802SOL    HW138285   1.230   4.523   0.122
 8802SOL    HW238286   1.284   4.656   0.170
 8803SOL     OW38287   3.587   2.450  17.405
 8803SOL    HW138288   3.668   2.466  17.453
 8803SOL    HW238289   3.518   2.464  17.469
 8804SOL     OW38290   2.251   1.490   2.269
 8804SOL    HW138291   2.223   1.448   2.188
 8804SOL    HW238292   2.208   1.576   2.268
 8805SOL     OW38293   1.670   0.770  15.943
 8805SOL    HW138294   1.607   0.758  16.014
 8805SOL    HW238295   1.682   0.865  15.936
 8806SOL     OW38296   1.690   4.457   3.517
 8806SOL    HW138297   1.730   4.397   3.580
 8806SOL    HW238298   1.596   4.448   3.532
 8807SOL     OW38299   1.424   2.904   9.520
 8807SOL    HW138300   1.463   2.901   9.607
 8807SOL    HW238301   1.338   2.863   9.530
 8808SOL     OW38302   0.364   4.329   1.056
 8808SOL    HW138303   0.438   4.348   0.999
 8808SOL    HW238304   0.367   4.396   1.123
 8809SOL     OW38305   0.414   4.703  19.354
 8809SOL    HW138306   0.405   4.650  19.433
 8809SOL    HW238307   0.373   4.787  19.377
 8810SOL     OW38308   0.458   4.534  15.016
 8810SOL    HW138309   0.414   4.575  15.090
 8810SOL    HW238310   0.538   4.585  15.005
 8811SOL     OW38311   4.752   4.149   2.860
 8811SOL    HW138312   4.700   4.133   2.939
 8811SOL    HW238313   0.050   4.120   2.884
 8812SOL     OW38314   2.350   4.487  16.888
 8812SOL    HW138315   2.287   4.416  16.882
 8812SOL    HW238316   2.313   4.556  16.833
 8813SOL     OW38317   4.404   3.359   7.458
 8813SOL    HW138318   4.402   3.334   7.366
 8813SOL    HW238319   4.357   3.290   7.504
 8814SOL     OW38320   1.911   1.670  17.817
 8814SOL    HW138321   2.001   1.642  17.801
 8814SOL    HW238322   1.918   1.762  17.841
 8815SOL     OW38323   3.383   3.981   3.375
 8815SOL    HW138324   3.334   4.060   3.354
 8815SOL    HW238325   3.418   3.951   3.291
 8816SOL     OW38326   3.652   3.152  19.603
 8816SOL    HW138327   3.671   3.156  19.509
 8816SOL    HW238328   3.708   3.082  19.636
 8817SOL     OW38329   0.494   1.011  19.663
 8817SOL    HW138330   0.541   0.973  19.737
 8817SOL    HW238331   0.503   0.947  19.592
 8818SOL     OW38332   2.563   2.283  17.272
 8818SOL    HW138333   2.566   2.307  17.180
 8818SOL    HW238334   2.565   2.187  17.272
 8819SOL     OW38335   2.262   2.699   1.496
 8819SOL    HW138336   2.245   2.731   1.585
 8819SOL    HW238337   2.350   2.660   1.502
 8820SOL     OW38338   4.415   4.322  19.141
 8820SOL    HW138339   4.475   4.252  19.115
 8820SOL    HW238340   4.356   4.333  19.066
 8821SOL     OW38341   3.358   3.913   2.016
 8821SOL    HW138342   3.350   3.831   2.065
 8821SOL    HW238343   3.307   3.899   1.936
 8822SOL     OW38344   3.649   1.591  18.504
 8822SOL    HW138345   3.718   1.649  18.535
 8822SOL    HW238346   3.568   1.642  18.514
 8823SOL     OW38347   3.802   3.461   6.349
 8823SOL    HW138348   3.897   3.472   6.350
 8823SOL    HW238349   3.770   3.538   6.396
 8824SOL     OW38350   3.600   3.441   1.830
 8824SOL    HW138351   3.583   3.428   1.737
 8824SOL    HW238352   3.633   3.356   1.860
 8825SOL     OW38353   4.711   1.010   0.827
 8825SOL    HW138354   0.012   1.016   0.853
 8825SOL    HW238355   4.710   0.945   0.757
 8826SOL     OW38356   1.389   2.708  19.467
 8826SOL    HW138357   1.394   2.799  19.440
 8826SOL    HW238358   1.330   2.708  19.543
 8827SOL     OW38359   1.430   4.336   3.520
 8827SOL    HW138360   1.336   4.326   3.537
 8827SOL    HW238361   1.445   4.288   3.439
 8828SOL     OW38362   3.644   2.376   2.340
 8828SOL    HW138363   3.660   2.435   2.266
 8828SOL    HW238364   3.731   2.356   2.374
 8829SOL     OW38365   0.665   2.439  15.840
 8829SOL    HW138366   0.662   2.426  15.745
 8829SOL    HW238367   0.591   2.496  15.859
 8830SOL     OW38368   1.990   0.617   0.179
 8830SOL    HW138369   1.902   0.591   0.153
 8830SOL    HW238370   2.014   0.688   0.119
 8831SOL     OW38371   2.600   1.639  19.882
 8831SOL    HW138372   2.555   1.591  19.813
 8831SOL    HW238373   2.693   1.616  19.872
 8832SOL     OW38374   1.762   2.152  20.587
 8832SOL    HW138375   1.727   2.198  20.663
 8832SOL    HW238376   1.740   2.060  20.601
 8833SOL     OW38377   1.029   1.110   4.712
 8833SOL    HW138378   1.021   1.037   4.652
 8833SOL    HW238379   1.016   1.188   4.658
 8834SOL     OW38380   2.903   0.229  21.083
 8834SOL    HW138381   2.837   0.281  21.038
 8834SOL    HW238382   2.951   0.292  21.138
 8835SOL     OW38383   4.082   3.424   6.258
 8835SOL    HW138384   4.160   3.386   6.218
 8835SOL    HW238385   4.065   3.503   6.206
 8836SOL     OW38386   4.574   4.301   6.072
 8836SOL    HW138387   4.537   4.261   6.152
 8836SOL    HW238388   4.506   4.289   6.006
 8837SOL     OW38389   0.267   2.403   0.580
 8837SOL    HW138390   0.326   2.452   0.638
 8837SOL    HW238391   0.190   2.460   0.570
 8838SOL     OW38392   1.542   0.064   1.407
 8838SOL    HW138393   1.598   0.025   1.339
 8838SOL    HW238394   1.458   0.078   1.364
 8839SOL     OW38395   0.764   0.202   7.229
 8839SOL    HW138396   0.742   0.286   7.189
 8839SOL    HW238397   0.849   0.179   7.192
 8840SOL     OW38398   1.585   2.639  13.948
 8840SOL    HW138399   1.633   2.720  13.926
 8840SOL    HW238400   1.641   2.596  14.013
 8841SOL     OW38401   4.001   1.852   3.994
 8841SOL    HW138402   3.912   1.833   4.023
 8841SOL    HW238403   4.008   1.948   3.999
 8842SOL     OW38404   2.006   0.122   1.879
 8842SOL    HW138405   2.004   0.029   1.857
 8842SOL    HW238406   1.915   0.150   1.874
 8843SOL     OW38407   0.539   1.657   3.258
 8843SOL    HW138408   0.604   1.720   3.291
 8843SOL    HW238409   0.585   1.613   3.186
 8844SOL     OW38410   1.509   4.444  15.278
 8844SOL    HW138411   1.429   4.422  15.230
 8844SOL    HW238412   1.515   4.378  15.347
 8845SOL     OW38413   4.143   0.129   3.866
 8845SOL    HW138414   4.131   0.107   3.958
 8845SOL    HW238415   4.060   0.168   3.840
 8846SOL     OW38416   0.075   4.654  15.792
 8846SOL    HW138417   0.017   4.609  15.854
 8846SOL    HW238418   0.036   4.742  15.783
 8847SOL     OW38419   3.159   1.781   2.694
 8847SOL    HW138420   3.208   1.845   2.642
 8847SOL    HW238421   3.161   1.701   2.642
 8848SOL     OW38422   2.515   2.808  15.982
 8848SOL    HW138423   2.571   2.790  15.906
 8848SOL    HW238424   2.571   2.791  16.058
 8849SOL     OW38425   1.653   3.411  17.277
 8849SOL    HW138426   1.608   3.384  17.196
 8849SOL    HW238427   1.742   3.433  17.249
 8850SOL     OW38428   1.083   3.867  13.727
 8850SOL    HW138429   1.145   3.932  13.693
 8850SOL    HW238430   1.053   3.905  13.810
 8851SOL     OW38431   4.036   3.099   0.086
 8851SOL    HW138432   4.092   3.026   0.111
 8851SOL    HW238433   4.027   3.151   0.167
 8852SOL     OW38434   4.571   0.660  17.090
 8852SOL    HW138435   4.502   0.602  17.058
 8852SOL    HW238436   4.634   0.601  17.133
 8853SOL     OW38437   4.081   4.699  15.419
 8853SOL    HW138438   4.036   4.633  15.367
 8853SOL    HW238439   4.056   4.679  15.510
 8854SOL     OW38440   4.280   2.280  16.756
 8854SOL    HW138441   4.184   2.278  16.756
 8854SOL    HW238442   4.302   2.368  16.725
 8855SOL     OW38443   0.382   3.268   1.926
 8855SOL    HW138444   0.352   3.359   1.922
 8855SOL    HW238445   0.464   3.272   1.975
 8856SOL     OW38446   0.621   1.963   3.652
 8856SOL    HW138447   0.641   1.873   3.676
 8856SOL    HW238448   0.531   1.960   3.621
 8857SOL     OW38449   4.701   0.004  19.636
 8857SOL    HW138450   4.670   4.704  19.636
 8857SOL    HW238451   0.003   4.789  19.618
 8858SOL     OW38452   2.647   1.136   1.827
 8858SOL    HW138453   2.651   1.136   1.922
 8858SOL    HW238454   2.560   1.101   1.806
 8859SOL     OW38455   4.764   3.439  18.647
 8859SOL    HW138456   0.019   3.410  18.569
 8859SOL    HW238457   0.005   3.528  18.663
 8860SOL     OW38458   3.907   4.451   3.603
 8860SOL    HW138459   3.881   4.363   3.577
 8860SOL    HW238460   3.923   4.497   3.520
 8861SOL     OW38461   4.505   0.457  16.714
 8861SOL    HW138462   4.451   0.394  16.667
 8861SOL    HW238463   4.460   0.541  16.702
 8862SOL     OW38464   3.975   3.992  16.050
 8862SOL    HW138465   3.936   3.934  16.115
 8862SOL    HW238466   4.065   3.960  16.040
 8863SOL     OW38467   1.504   4.313  14.347
 8863SOL    HW138468   1.540   4.387  14.299
 8863SOL    HW238469   1.435   4.278  14.290
 8864SOL     OW38470   4.557   1.171   6.345
 8864SOL    HW138471   4.539   1.166   6.251
 8864SOL    HW238472   4.649   1.145   6.353
 8865SOL     OW38473   2.634   0.155  18.253
 8865SOL    HW138474   2.620   0.196  18.338
 8865SOL    HW238475   2.618   0.225  18.190
 8866SOL     OW38476   2.146   4.524  17.352
 8866SOL    HW138477   2.241   4.526  17.343
 8866SOL    HW238478   2.113   4.565  17.271
 8867SOL     OW38479   2.264   1.553  16.316
 8867SOL    HW138480   2.263   1.641  16.277
 8867SOL    HW238481   2.339   1.554  16.375
 8868SOL     OW38482   0.574   2.291   0.771
 8868SOL    HW138483   0.597   2.263   0.859
 8868SOL    HW238484   0.527   2.217   0.734
 8869SOL     OW38485   1.736   0.704  20.445
 8869SOL    HW138486   1.729   0.618  20.404
 8869SOL    HW238487   1.788   0.756  20.384
 8870SOL     OW38488   4.496   0.755  18.671
 8870SOL    HW138489   4.466   0.721  18.755
 8870SOL    HW238490   4.566   0.696  18.644
 8871SOL     OW38491   2.722   4.484  19.841
 8871SOL    HW138492   2.808   4.511  19.809
 8871SOL    HW238493   2.710   4.533  19.923
 8872SOL     OW38494   3.109   3.604  16.159
 8872SOL    HW138495   3.121   3.687  16.206
 8872SOL    HW238496   3.195   3.585  16.123
 8873SOL     OW38497   0.404   3.637   5.040
 8873SOL    HW138498   0.498   3.637   5.059
 8873SOL    HW238499   0.389   3.717   4.989
 8874SOL     OW38500   0.618   0.331  16.888
 8874SOL    HW138501   0.684   0.397  16.866
 8874SOL    HW238502   0.620   0.325  16.983
 8875SOL     OW38503   3.707   1.970   3.006
 8875SOL    HW138504   3.625   1.933   3.040
 8875SOL    HW238505   3.757   1.895   2.975
 8876SOL     OW38506   3.338   3.213   4.253
 8876SOL    HW138507   3.388   3.140   4.216
 8876SOL    HW238508   3.404   3.279   4.273
 8877SOL     OW38509   1.656   2.595  17.558
 8877SOL    HW138510   1.677   2.504  17.580
 8877SOL    HW238511   1.594   2.623  17.626
 8878SOL     OW38512   4.463   1.678  20.599
 8878SOL    HW138513   4.406   1.630  20.539
 8878SOL    HW238514   4.406   1.744  20.638
 8879SOL     OW38515   3.063   3.117  16.637
 8879SOL    HW138516   3.098   3.032  16.611
 8879SOL    HW238517   2.971   3.099  16.658
 8880SOL     OW38518   0.770   4.267   1.985
 8880SOL    HW138519   0.816   4.233   2.062
 8880SOL    HW238520   0.783   4.200   1.918
 8881SOL     OW38521   3.225   3.461  20.358
 8881SOL    HW138522   3.166   3.512  20.413
 8881SOL    HW238523   3.271   3.526  20.305
 8882SOL     OW38524   1.647   0.554  17.556
 8882SOL    HW138525   1.700   0.549  17.636
 8882SOL    HW238526   1.579   0.618  17.577
 8883SOL     OW38527   2.126   0.107   5.667
 8883SOL    HW138528   2.145   0.065   5.751
 8883SOL    HW238529   2.105   0.035   5.608
 8884SOL     OW38530   1.508   0.529   2.345
 8884SOL    HW138531   1.483   0.437   2.357
 8884SOL    HW238532   1.462   0.575   2.415
 8885SOL     OW38533   3.731   3.509   5.627
 8885SOL    HW138534   3.682   3.565   5.688
 8885SOL    HW238535   3.738   3.425   5.673
 8886SOL     OW38536   2.717   2.767  14.553
 8886SOL    HW138537   2.710   2.694  14.492
 8886SOL    HW238538   2.717   2.726  14.639
 8887SOL     OW38539   0.698   1.620  20.292
 8887SOL    HW138540   0.762   1.577  20.349
 8887SOL    HW238541   0.702   1.712  20.318
 8888SOL     OW38542   4.747   1.671   3.824
 8888SOL    HW138543   4.666   1.619   3.818
 8888SOL    HW238544   4.734   1.742   3.762
 8889SOL     OW38545   2.070   0.787   4.993
 8889SOL    HW138546   2.008   0.835   4.937
 8889SOL    HW238547   2.026   0.704   5.012
 8890SOL     OW38548   2.599   4.235  19.191
 8890SOL    HW138549   2.543   4.194  19.125
 8890SOL    HW238550   2.656   4.165  19.222
 8891SOL     OW38551   1.625   2.568   2.015
 8891SOL    HW138552   1.587   2.498   1.961
 8891SOL    HW238553   1.571   2.644   1.996
 8892SOL     OW38554   3.730   4.463  18.068
 8892SOL    HW138555   3.755   4.538  18.014
 8892SOL    HW238556   3.712   4.500  18.154
 8893SOL     OW38557   0.175   3.853  20.432
 8893SOL    HW138558   0.231   3.777  20.413
 8893SOL    HW238559   0.233   3.915  20.477
 8894SOL     OW38560   1.671   1.265   4.431
 8894SOL    HW138561   1.685   1.341   4.375
 8894SOL    HW238562   1.689   1.190   4.375
 8895SOL     OW38563   0.414   1.558  15.101
 8895SOL    HW138564   0.318   1.560  15.095
 8895SOL    HW238565   0.443   1.588  15.015
 8896SOL     OW38566   0.193   0.315   2.398
 8896SOL    HW138567   0.279   0.275   2.401
 8896SOL    HW238568   0.201   0.386   2.333
 8897SOL     OW38569   4.711   3.088  19.986
 8897SOL    HW138570   4.780   3.065  20.048
 8897SOL    HW238571   4.756   3.138  19.917
 8898SOL     OW38572   1.691   4.502  19.333
 8898SOL    HW138573   1.745   4.581  19.341
 8898SOL    HW238574   1.603   4.535  19.315
 8899SOL     OW38575   3.981   4.343  20.332
 8899SOL    HW138576   3.891   4.364  20.356
 8899SOL    HW238577   4.019   4.426  20.306
 8900SOL     OW38578   4.572   2.203   7.261
 8900SOL    HW138579   4.580   2.254   7.342
 8900SOL    HW238580   4.596   2.265   7.192
 8901SOL     OW38581   1.907   3.283  14.981
 8901SOL    HW138582   1.812   3.287  14.993
 8901SOL    HW238583   1.919   3.239  14.897
 8902SOL     OW38584   2.944   3.356   6.567
 8902SOL    HW138585   2.873   3.298   6.540
 8902SOL    HW238586   3.008   3.299   6.608
 8903SOL     OW38587   2.543   3.267   0.794
 8903SOL    HW138588   2.449   3.258   0.779
 8903SOL    HW238589   2.551   3.281   0.888
 8904SOL     OW38590   1.052   3.531  19.764
 8904SOL    HW138591   1.146   3.548  19.757
 8904SOL    HW238592   1.011   3.611  19.732
 8905SOL     OW38593   0.620   3.859  15.199
 8905SOL    HW138594   0.601   3.917  15.124
 8905SOL    HW238595   0.563   3.892  15.269
 8906SOL     OW38596   1.312   3.204   6.799
 8906SOL    HW138597   1.379   3.136   6.806
 8906SOL    HW238598   1.281   3.217   6.888
 8907SOL     OW38599   3.791   2.978  12.197
 8907SOL    HW138600   3.855   3.014  12.136
 8907SOL    HW238601   3.764   3.053  12.250
 8908SOL     OW38602   1.449   2.078   5.035
 8908SOL    HW138603   1.540   2.097   5.058
 8908SOL    HW238604   1.412   2.037   5.114
 8909SOL     OW38605   3.810   1.435   6.866
 8909SOL    HW138606   3.813   1.524   6.900
 8909SOL    HW238607   3.716   1.415   6.859
 8910SOL     OW38608   2.341   3.135   3.679
 8910SOL    HW138609   2.288   3.100   3.608
 8910SOL    HW238610   2.281   3.141   3.753
 8911SOL     OW38611   1.454   3.340   1.273
 8911SOL    HW138612   1.448   3.418   1.219
 8911SOL    HW238613   1.546   3.315   1.270
 8912SOL     OW38614   2.592   0.038  17.211
 8912SOL    HW138615   2.662   0.084  17.257
 8912SOL    HW238616   2.567   0.097  17.140
 8913SOL     OW38617   4.015   1.700   1.832
 8913SOL    HW138618   4.110   1.708   1.844
 8913SOL    HW238619   4.002   1.709   1.738
 8914SOL     OW38620   3.350   4.750  19.766
 8914SOL    HW138621   3.433   4.730  19.809
 8914SOL    HW238622   3.300   0.007  19.833
 8915SOL     OW38623   4.380   2.175  19.601
 8915SOL    HW138624   4.474   2.163  19.618
 8915SOL    HW238625   4.359   2.259  19.641
 8916SOL     OW38626   3.754   0.408   5.852
 8916SOL    HW138627   3.773   0.404   5.946
 8916SOL    HW238628   3.755   0.501   5.831
 8917SOL     OW38629   0.139   1.119   3.818
 8917SOL    HW138630   0.203   1.159   3.758
 8917SOL    HW238631   0.066   1.181   3.821
 8918SOL     OW38632   1.633   3.514   7.800
 8918SOL    HW138633   1.694   3.481   7.734
 8918SOL    HW238634   1.547   3.504   7.760
 8919SOL     OW38635   4.594   3.343  16.285
 8919SOL    HW138636   4.623   3.397  16.211
 8919SOL    HW238637   4.605   3.253  16.254
 8920SOL     OW38638   3.011   2.966   1.791
 8920SOL    HW138639   2.996   2.963   1.696
 8920SOL    HW238640   3.066   3.043   1.804
 8921SOL     OW38641   4.049   3.537  16.905
 8921SOL    HW138642   3.979   3.601  16.895
 8921SOL    HW238643   4.005   3.456  16.930
 8922SOL     OW38644   2.437   1.011   3.987
 8922SOL    HW138645   2.463   0.960   4.064
 8922SOL    HW238646   2.518   1.017   3.935
 8923SOL     OW38647   4.360   4.348   5.880
 8923SOL    HW138648   4.336   4.256   5.890
 8923SOL    HW238649   4.289   4.385   5.826
 8924SOL     OW38650   3.591   0.258  17.492
 8924SOL    HW138651   3.556   0.332  17.543
 8924SOL    HW238652   3.564   0.276  17.402
 8925SOL     OW38653   1.865   0.672  18.827
 8925SOL    HW138654   1.860   0.583  18.792
 8925SOL    HW238655   1.933   0.714  18.775
 8926SOL     OW38656   4.054   2.498   7.934
 8926SOL    HW138657   3.968   2.458   7.926
 8926SOL    HW238658   4.115   2.424   7.931
 8927SOL     OW38659   2.809   0.036   0.560
 8927SOL    HW138660   2.761   4.744   0.564
 8927SOL    HW238661   2.812   0.066   0.651
 8928SOL     OW38662   1.691   2.586   5.183
 8928SOL    HW138663   1.699   2.531   5.106
 8928SOL    HW238664   1.724   2.672   5.155
 8929SOL     OW38665   4.006   1.668   9.253
 8929SOL    HW138666   3.990   1.583   9.294
 8929SOL    HW238667   4.042   1.646   9.166
 8930SOL     OW38668   0.718   0.378  11.713
 8930SOL    HW138669   0.690   0.286  11.718
 8930SOL    HW238670   0.805   0.375  11.674
 8931SOL     OW38671   1.496   4.469  13.077
 8931SOL    HW138672   1.436   4.399  13.049
 8931SOL    HW238673   1.567   4.466  13.014
 8932SOL     OW38674   4.614   4.547  14.325
 8932SOL    HW138675   4.527   4.507  14.322
 8932SOL    HW238676   4.609   4.621  14.265
 8933SOL     OW38677   1.714   2.970  19.683
 8933SOL    HW138678   1.646   3.027  19.648
 8933SOL    HW238679   1.737   2.912  19.611
 8934SOL     OW38680   2.229   2.459   4.417
 8934SOL    HW138681   2.164   2.494   4.478
 8934SOL    HW238682   2.241   2.369   4.445
 8935SOL     OW38683   1.075   2.473   0.107
 8935SOL    HW138684   1.151   2.416   0.123
 8935SOL    HW238685   1.003   2.430   0.152
 8936SOL     OW38686   4.066   3.912  18.060
 8936SOL    HW138687   4.080   3.829  18.015
 8936SOL    HW238688   4.117   3.906  18.141
 8937SOL     OW38689   2.544   3.135   6.200
 8937SOL    HW138690   2.622   3.182   6.230
 8937SOL    HW238691   2.562   3.043   6.220
 8938SOL     OW38692   0.050   0.369   3.946
 8938SOL    HW138693   0.026   0.276   3.950
 8938SOL    HW238694   0.138   0.370   3.908
 8939SOL     OW38695   2.334   4.471   1.851
 8939SOL    HW138696   2.293   4.556   1.863
 8939SOL    HW238697   2.285   4.412   1.908
 8940SOL     OW38698   3.776   2.352   5.905
 8940SOL    HW138699   3.859   2.314   5.932
 8940SOL    HW238700   3.799   2.429   5.853
 8941SOL     OW38701   0.172   3.990   1.794
 8941SOL    HW138702   0.114   3.928   1.750
 8941SOL    HW238703   0.190   4.057   1.728
 8942SOL     OW38704   1.024   2.151  16.214
 8942SOL    HW138705   0.930   2.164  16.213
 8942SOL    HW238706   1.044   2.121  16.303
 8943SOL     OW38707   4.582   0.789  19.889
 8943SOL    HW138708   4.488   0.804  19.888
 8943SOL    HW238709   4.597   0.737  19.968
 8944SOL     OW38710   2.831   3.274  18.991
 8944SOL    HW138711   2.772   3.198  18.984
 8944SOL    HW238712   2.817   3.307  19.079
 8945SOL     OW38713   1.981   1.922  20.533
 8945SOL    HW138714   1.923   1.904  20.607
 8945SOL    HW238715   2.063   1.951  20.573
 8946SOL     OW38716   3.678   3.823  19.349
 8946SOL    HW138717   3.745   3.754  19.351
 8946SOL    HW238718   3.619   3.796  19.279
 8947SOL     OW38719   3.510   4.229   4.066
 8947SOL    HW138720   3.534   4.252   3.976
 8947SOL    HW238721   3.570   4.158   4.089
 8948SOL     OW38722   3.945   2.162   8.712
 8948SOL    HW138723   3.942   2.112   8.793
 8948SOL    HW238724   3.905   2.246   8.734
 8949SOL     OW38725   2.423   2.928   8.946
 8949SOL    HW138726   2.397   2.860   8.884
 8949SOL    HW238727   2.513   2.904   8.971
 8950SOL     OW38728   2.526   3.912  13.813
 8950SOL    HW138729   2.601   3.887  13.758
 8950SOL    HW238730   2.549   3.999  13.846
 8951SOL     OW38731   4.237   1.167   6.446
 8951SOL    HW138732   4.230   1.136   6.536
 8951SOL    HW238733   4.287   1.248   6.453
 8952SOL     OW38734   0.796   4.735   0.269
 8952SOL    HW138735   0.878   4.741   0.318
 8952SOL    HW238736   0.728   4.744   0.335
 8953SOL     OW38737   2.958   4.452  18.495
 8953SOL    HW138738   2.947   4.525  18.434
 8953SOL    HW238739   3.044   4.415  18.473
 8954SOL     OW38740   1.121   1.074   2.296
 8954SOL    HW138741   1.138   1.150   2.351
 8954SOL    HW238742   1.163   1.094   2.213
 8955SOL     OW38743   0.976   4.267  17.237
 8955SOL    HW138744   1.013   4.269  17.325
 8955SOL    HW238745   0.881   4.263  17.252
 8956SOL     OW38746   0.718   4.744  15.665
 8956SOL    HW138747   0.784   4.712  15.603
 8956SOL    HW238748   0.634   4.715  15.628
 8957SOL     OW38749   3.734   2.717   1.081
 8957SOL    HW138750   3.650   2.685   1.116
 8957SOL    HW238751   3.712   2.754   0.996
 8958SOL     OW38752   1.889   4.037  18.951
 8958SOL    HW138753   1.942   3.959  18.967
 8958SOL    HW238754   1.808   4.022  19.000
 8959SOL     OW38755   4.192   2.479  18.439
 8959SOL    HW138756   4.185   2.421  18.362
 8959SOL    HW238757   4.171   2.422  18.513
 8960SOL     OW38758   4.266   2.342   2.819
 8960SOL    HW138759   4.182   2.302   2.839
 8960SOL    HW238760   4.330   2.273   2.835
 8961SOL     OW38761   4.262   1.803   5.855
 8961SOL    HW138762   4.244   1.728   5.912
 8961SOL    HW238763   4.265   1.878   5.914
 8962SOL     OW38764   0.865   0.700  17.449
 8962SOL    HW138765   0.892   0.728  17.362
 8962SOL    HW238766   0.799   0.765  17.476
 8963SOL     OW38767   0.025   2.031   1.807
 8963SOL    HW138768   0.015   2.109   1.753
 8963SOL    HW238769   0.010   1.958   1.747
 8964SOL     OW38770   3.012   0.503   5.393
 8964SOL    HW138771   2.987   0.543   5.476
 8964SOL    HW238772   3.068   0.567   5.350
 8965SOL     OW38773   2.880   0.055   0.839
 8965SOL    HW138774   2.908   0.142   0.868
 8965SOL    HW238775   2.958   0.000   0.848
 8966SOL     OW38776   1.611   4.499  13.958
 8966SOL    HW138777   1.580   4.546  13.880
 8966SOL    HW238778   1.641   4.414  13.924
 8967SOL     OW38779   3.519   2.836   0.274
 8967SOL    HW138780   3.518   2.809   0.182
 8967SOL    HW238781   3.597   2.793   0.310
 8968SOL     OW38782   3.790   2.210   5.272
 8968SOL    HW138783   3.856   2.141   5.272
 8968SOL    HW238784   3.797   2.249   5.185
 8969SOL     OW38785   0.921   3.739  18.222
 8969SOL    HW138786   0.950   3.807  18.162
 8969SOL    HW238787   0.861   3.685  18.169
 8970SOL     OW38788   0.406   3.513   1.542
 8970SOL    HW138789   0.394   3.440   1.602
 8970SOL    HW238790   0.334   3.506   1.480
 8971SOL     OW38791   0.566   2.474   2.639
 8971SOL    HW138792   0.542   2.555   2.682
 8971SOL    HW238793   0.659   2.462   2.659
 8972SOL     OW38794   3.907   4.500   3.333
 8972SOL    HW138795   3.849   4.574   3.317
 8972SOL    HW238796   3.866   4.427   3.288
 8973SOL     OW38797   2.632   3.453  17.235
 8973SOL    HW138798   2.629   3.545  17.263
 8973SOL    HW238799   2.665   3.456  17.146
 8974SOL     OW38800   1.096   2.645  18.683
 8974SOL    HW138801   1.107   2.622  18.775
 8974SOL    HW238802   1.104   2.740  18.681
 8975SOL     OW38803   1.802   1.136   1.443
 8975SOL    HW138804   1.711   1.146   1.413
 8975SOL    HW238805   1.854   1.149   1.364
 8976SOL     OW38806   0.249   0.711  13.935
 8976SOL    HW138807   0.189   0.695  13.862
 8976SOL    HW238808   0.271   0.804  13.928
 8977SOL     OW38809   3.891   3.385  15.476
 8977SOL    HW138810   3.924   3.463  15.431
 8977SOL    HW238811   3.865   3.416  15.562
 8978SOL     OW38812   1.243   0.702  16.932
 8978SOL    HW138813   1.320   0.725  16.880
 8978SOL    HW238814   1.274   0.700  17.022
 8979SOL     OW38815   2.143   4.226   5.671
 8979SOL    HW138816   2.155   4.271   5.755
 8979SOL    HW238817   2.057   4.253   5.641
 8980SOL     OW38818   4.377   1.991   3.061
 8980SOL    HW138819   4.456   2.044   3.053
 8980SOL    HW238820   4.358   1.990   3.155
 8981SOL     OW38821   1.777   2.382   1.456
 8981SOL    HW138822   1.683   2.388   1.469
 8981SOL    HW238823   1.789   2.302   1.403
 8982SOL     OW38824   0.914   3.652   2.539
 8982SOL    HW138825   0.977   3.664   2.467
 8982SOL    HW238826   0.873   3.738   2.550
 8983SOL     OW38827   2.480   4.393  16.401
 8983SOL    HW138828   2.532   4.461  16.359
 8983SOL    HW238829   2.423   4.360  16.332
 8984SOL     OW38830   1.280   4.157  20.202
 8984SOL    HW138831   1.300   4.219  20.132
 8984SOL    HW238832   1.354   4.096  20.203
 8985SOL     OW38833   2.157   0.337   2.556
 8985SOL    HW138834   2.073   0.297   2.533
 8985SOL    HW238835   2.156   0.423   2.515
 8986SOL     OW38836   4.401   4.726  20.625
 8986SOL    HW138837   4.495   4.730  20.605
 8986SOL    HW238838   4.363   4.683  20.548
 8987SOL     OW38839   3.877   1.710   2.656
 8987SOL    HW138840   3.796   1.665   2.630
 8987SOL    HW238841   3.909   1.749   2.575
 8988SOL     OW38842   2.786   0.805  16.674
 8988SOL    HW138843   2.879   0.785  16.673
 8988SOL    HW238844   2.743   0.725  16.643
 8989SOL     OW38845   3.435   0.335  18.601
 8989SOL    HW138846   3.412   0.426  18.618
 8989SOL    HW238847   3.371   0.284  18.651
 8990SOL     OW38848   3.786   4.693  17.867
 8990SOL    HW138849   3.795   4.722  17.958
 8990SOL    HW238850   3.760   4.772  17.819
 8991SOL     OW38851   3.699   3.068  15.754
 8991SOL    HW138852   3.705   3.124  15.676
 8991SOL    HW238853   3.609   3.080  15.785
 8992SOL     OW38854   4.447   1.966   2.448
 8992SOL    HW138855   4.362   1.928   2.427
 8992SOL    HW238856   4.466   2.023   2.373
 8993SOL     OW38857   3.652   4.365  14.917
 8993SOL    HW138858   3.716   4.312  14.964
 8993SOL    HW238859   3.699   4.444  14.893
 8994SOL     OW38860   0.802   0.715   7.549
 8994SOL    HW138861   0.710   0.712   7.575
 8994SOL    HW238862   0.810   0.645   7.485
 8995SOL     OW38863   1.096   1.306   7.996
 8995SOL    HW138864   1.136   1.387   8.027
 8995SOL    HW238865   1.119   1.241   8.063
 8996SOL     OW38866   4.780   3.366   4.732
 8996SOL    HW138867   4.740   3.409   4.808
 8996SOL    HW238868   0.023   3.283   4.767
 8997SOL     OW38869   0.276   0.035  11.282
 8997SOL    HW138870   0.282   4.780  11.366
 8997SOL    HW238871   0.366   0.037  11.249
 8998SOL     OW38872   3.273   0.177   9.833
 8998SOL    HW138873   3.284   0.165   9.927
 8998SOL    HW238874   3.218   0.254   9.824
 8999SOL     OW38875   1.389   1.996   0.729
 8999SOL    HW138876   1.466   2.007   0.785
 8999SOL    HW238877   1.342   1.923   0.769
 9000SOL     OW38878   3.215   0.845  10.286
 9000SOL    HW138879   3.234   0.850  10.379
 9000SOL    HW238880   3.280   0.902  10.245
 9001SOL     OW38881   2.555   3.425   5.483
 9001SOL    HW138882   2.518   3.383   5.404
 9001SOL    HW238883   2.478   3.456   5.531
 9002SOL     OW38884   4.396   3.410  10.433
 9002SOL    HW138885   4.420   3.378  10.346
 9002SOL    HW238886   4.413   3.504  10.429
 9003SOL     OW38887   2.631   0.534   8.358
 9003SOL    HW138888   2.617   0.457   8.303
 9003SOL    HW238889   2.720   0.522   8.392
 9004SOL     OW38890   2.226   1.236   8.617
 9004SOL    HW138891   2.297   1.178   8.642
 9004SOL    HW238892   2.257   1.324   8.641
 9005SOL     OW38893   2.524   1.929   7.669
 9005SOL    HW138894   2.616   1.905   7.684
 9005SOL    HW238895   2.478   1.896   7.746
 9006SOL     OW38896   4.312   1.191   8.742
 9006SOL    HW138897   4.271   1.144   8.815
 9006SOL    HW238898   4.388   1.234   8.781
 9007SOL     OW38899   1.701   0.573   9.840
 9007SOL    HW138900   1.767   0.641   9.834
 9007SOL    HW238901   1.706   0.527   9.756
 9008SOL     OW38902   4.781   0.257   8.613
 9008SOL    HW138903   4.759   0.175   8.569
 9008SOL    HW238904   4.704   0.277   8.665
 9009SOL     OW38905   0.564   0.315   9.774
 9009SOL    HW138906   0.518   0.251   9.828
 9009SOL    HW238907   0.653   0.318   9.809
 9010SOL     OW38908   3.958   0.267  10.125
 9010SOL    HW138909   3.909   0.338  10.166
 9010SOL    HW238910   3.960   0.197  10.190
 9011SOL     OW38911   3.847   4.396   8.677
 9011SOL    HW138912   3.867   4.421   8.587
 9011SOL    HW238913   3.872   4.304   8.683
 9012SOL     OW38914   1.686   0.719  10.541
 9012SOL    HW138915   1.767   0.709  10.492
 9012SOL    HW238916   1.699   0.798  10.593
 9013SOL     OW38917   4.392   0.232   9.507
 9013SOL    HW138918   4.438   0.234   9.591
 9013SOL    HW238919   4.370   0.324   9.490
 9014SOL     OW38920   4.168   0.144  10.479
 9014SOL    HW138921   4.233   0.210  10.455
 9014SOL    HW238922   4.191   0.118  10.568
 9015SOL     OW38923   0.496   0.585  10.343
 9015SOL    HW138924   0.417   0.638  10.330
 9015SOL    HW238925   0.565   0.648  10.359
 9016SOL     OW38926   0.481   0.047   9.852
 9016SOL    HW138927   0.556   4.781   9.866
 9016SOL    HW238928   0.415   4.781   9.813
 9017SOL     OW38929   2.465   0.245  10.080
 9017SOL    HW138930   2.386   0.202  10.112
 9017SOL    HW238931   2.436   0.296  10.004
 9018SOL     OW38932   1.217   1.164   8.225
 9018SOL    HW138933   1.285   1.229   8.211
 9018SOL    HW238934   1.169   1.195   8.302
 9019SOL     OW38935   0.262   4.740  11.541
 9019SOL    HW138936   0.173   4.709  11.554
 9019SOL    HW238937   0.305   4.726  11.626
 9020SOL     OW38938   0.853   1.119   9.993
 9020SOL    HW138939   0.894   1.204  10.010
 9020SOL    HW238940   0.906   1.057  10.043
 9021SOL     OW38941   0.956   4.582   9.301
 9021SOL    HW138942   0.930   4.494   9.272
 9021SOL    HW238943   1.051   4.578   9.309
 9022SOL     OW38944   4.504   3.727  10.447
 9022SOL    HW138945   4.526   3.813  10.484
 9022SOL    HW238946   4.408   3.728  10.440
 9023SOL     OW38947   0.641   1.056  10.281
 9023SOL    HW138948   0.707   1.119  10.253
 9023SOL    HW238949   0.557   1.094  10.255
 9024SOL     OW38950   3.052   0.657  10.201
 9024SOL    HW138951   3.124   0.714  10.228
 9024SOL    HW238952   2.974   0.712  10.207
 9025SOL     OW38953   0.146   4.467  11.360
 9025SOL    HW138954   0.116   4.381  11.392
 9025SOL    HW238955   0.149   4.522  11.439
 9026SOL     OW38956   1.558   1.049  10.290
 9026SOL    HW138957   1.569   0.957  10.268
 9026SOL    HW238958   1.640   1.091  10.264
 9027SOL     OW38959   1.801   1.321   9.801
 9027SOL    HW138960   1.810   1.342   9.708
 9027SOL    HW238961   1.882   1.352   9.841
 9028SOL     OW38962   3.196   1.906  14.190
 9028SOL    HW138963   3.213   1.845  14.262
 9028SOL    HW238964   3.185   1.991  14.233
 9029SOL     OW38965   3.381   4.121   9.496
 9029SOL    HW138966   3.357   4.077   9.414
 9029SOL    HW238967   3.476   4.113   9.499
 9030SOL     OW38968   0.405   4.302  10.656
 9030SOL    HW138969   0.362   4.318  10.740
 9030SOL    HW238970   0.334   4.308  10.591
 9031SOL     OW38971   4.364   4.328  10.141
 9031SOL    HW138972   4.302   4.328  10.068
 9031SOL    HW238973   4.449   4.316  10.100
 9032SOL     OW38974   4.299   4.630  10.422
 9032SOL    HW138975   4.253   4.626  10.338
 9032SOL    HW238976   4.248   4.691  10.475
 9033SOL     OW38977   1.922   1.943  12.665
 9033SOL    HW138978   1.880   1.882  12.604
 9033SOL    HW238979   1.857   2.012  12.679
 9034SOL     OW38980   3.804   1.973  12.826
 9034SOL    HW138981   3.789   1.905  12.760
 9034SOL    HW238982   3.882   1.945  12.873
 9035SOL     OW38983   1.722   3.183  20.411
 9035SOL    HW138984   1.634   3.210  20.436
 9035SOL    HW238985   1.723   3.088  20.424
 9036SOL     OW38986   1.322   1.469  10.849
 9036SOL    HW138987   1.391   1.441  10.909
 9036SOL    HW238988   1.363   1.462  10.762
 9037SOL     OW38989   3.424   1.465   0.580
 9037SOL    HW138990   3.432   1.558   0.557
 9037SOL    HW238991   3.357   1.432   0.520
 9038SOL     OW38992   0.822   0.354   9.849
 9038SOL    HW138993   0.805   0.291   9.919
 9038SOL    HW238994   0.865   0.303   9.781
 9039SOL     OW38995   0.479   1.771   0.608
 9039SOL    HW138996   0.402   1.715   0.623
 9039SOL    HW238997   0.537   1.719   0.553
 9040SOL     OW38998   4.632   3.668  11.321
 9040SOL    HW138999   4.538   3.650  11.322
 9040SOL    HW239000   4.645   3.731  11.392
 9041SOL     OW39001   1.485   2.502  13.350
 9041SOL    HW139002   1.415   2.542  13.403
 9041SOL    HW239003   1.450   2.416  13.327
 9042SOL     OW39004   0.545   0.066  11.231
 9042SOL    HW139005   0.599   0.103  11.301
 9042SOL    HW239006   0.598   0.076  11.152
 9043SOL     OW39007   2.885   0.337  12.953
 9043SOL    HW139008   2.888   0.376  13.040
 9043SOL    HW239009   2.798   0.357  12.920
 9044SOL     OW39010   4.462   0.154  10.492
 9044SOL    HW139011   4.474   0.238  10.534
 9044SOL    HW239012   4.447   0.093  10.564
 9045SOL     OW39013   3.919   1.710  12.859
 9045SOL    HW139014   3.984   1.779  12.875
 9045SOL    HW239015   3.928   1.690  12.766
 9046SOL     OW39016   1.503   3.385   5.027
 9046SOL    HW139017   1.420   3.351   4.994
 9046SOL    HW239018   1.558   3.307   5.039
 9047SOL     OW39019   4.124   2.842  11.077
 9047SOL    HW139020   4.177   2.844  10.997
 9047SOL    HW239021   4.067   2.766  11.067
 9048SOL     OW39022   4.167   1.677  18.681
 9048SOL    HW139023   4.254   1.717  18.687
 9048SOL    HW239024   4.169   1.628  18.598
 9049SOL     OW39025   1.460   1.279  13.978
 9049SOL    HW139026   1.541   1.292  13.929
 9049SOL    HW239027   1.481   1.214  14.044
 9050SOL     OW39028   4.227   4.402   9.806
 9050SOL    HW139029   4.304   4.449   9.836
 9050SOL    HW239030   4.227   4.415   9.711
 9051SOL     OW39031   3.237   2.305  15.582
 9051SOL    HW139032   3.255   2.211  15.594
 9051SOL    HW239033   3.143   2.309  15.565
 9052SOL     OW39034   0.253   2.182  12.138
 9052SOL    HW139035   0.303   2.154  12.215
 9052SOL    HW239036   0.174   2.128  12.139
 9053SOL     OW39037   0.877   1.519  13.225
 9053SOL    HW139038   0.864   1.451  13.160
 9053SOL    HW239039   0.964   1.554  13.205
 9054SOL     OW39040   0.978   0.003  12.200
 9054SOL    HW139041   1.047   4.728  12.188
 9054SOL    HW239042   0.976   0.050  12.116
 9055SOL     OW39043   0.719   0.807  10.346
 9055SOL    HW139044   0.684   0.897  10.339
 9055SOL    HW239045   0.735   0.781  10.256
 9056SOL     OW39046   1.068   1.120  11.036
 9056SOL    HW139047   1.061   1.074  10.952
 9056SOL    HW239048   1.140   1.076  11.081
 9057SOL     OW39049   1.331   4.764   9.967
 9057SOL    HW139050   1.251   0.002   9.924
 9057SOL    HW239051   1.313   4.775  10.060
 9058SOL     OW39052   1.131   0.193  10.564
 9058SOL    HW139053   1.092   0.275  10.532
 9058SOL    HW239054   1.104   0.189  10.656
 9059SOL     OW39055   1.725   0.334  13.104
 9059SOL    HW139056   1.791   0.318  13.037
 9059SOL    HW239057   1.718   0.430  13.108
 9060SOL     OW39058   1.366   1.101  11.030
 9060SOL    HW139059   1.351   1.114  10.936
 9060SOL    HW239060   1.461   1.105  11.040
 9061SOL     OW39061   1.741   3.412   1.882
 9061SOL    HW139062   1.698   3.470   1.818
 9061SOL    HW239063   1.790   3.350   1.829
 9062SOL     OW39064   3.478   1.899  18.053
 9062SOL    HW139065   3.510   1.889  18.143
 9062SOL    HW239066   3.389   1.932  18.062
 9063SOL     OW39067   2.471   1.987   3.489
 9063SOL    HW139068   2.394   1.932   3.502
 9063SOL    HW239069   2.533   1.929   3.444
 9064SOL     OW39070   3.971   2.170  12.352
 9064SOL    HW139071   3.994   2.200  12.264
 9064SOL    HW239072   3.945   2.249  12.398
 9065SOL     OW39073   0.046   0.379  15.337
 9065SOL    HW139074   4.745   0.369  15.362
 9065SOL    HW239075   0.066   0.471  15.357
 9066SOL     OW39076   4.151   4.617  17.360
 9066SOL    HW139077   4.232   4.611  17.308
 9066SOL    HW239078   4.158   4.546  17.423
 9067SOL     OW39079   1.673   1.230   0.285
 9067SOL    HW139080   1.751   1.272   0.320
 9067SOL    HW239081   1.648   1.165   0.351
 9068SOL     OW39082   2.976   0.494   4.655
 9068SOL    HW139083   2.918   0.532   4.721
 9068SOL    HW239084   2.998   0.567   4.598
 9069SOL     OW39085   0.344   0.299  10.468
 9069SOL    HW139086   0.316   0.322  10.556
 9069SOL    HW239087   0.366   0.383  10.427
 9070SOL     OW39088   0.571   3.034  16.751
 9070SOL    HW139089   0.556   3.028  16.657
 9070SOL    HW239090   0.485   3.020  16.790
 9071SOL     OW39091   3.448   0.560  13.042
 9071SOL    HW139092   3.484   0.594  12.960
 9071SOL    HW239093   3.455   0.634  13.103
 9072SOL     OW39094   0.272   0.071  15.400
 9072SOL    HW139095   0.185   0.112  15.406
 9072SOL    HW239096   0.332   0.138  15.431
 9073SOL     OW39097   3.104   4.772   1.768
 9073SOL    HW139098   3.086   0.052   1.707
 9073SOL    HW239099   3.115   0.024   1.853
 9074SOL     OW39100   0.958   1.277  11.885
 9074SOL    HW139101   1.035   1.243  11.840
 9074SOL    HW239102   0.967   1.246  11.975
 9075SOL     OW39103   2.958   1.040   4.457
 9075SOL    HW139104   2.897   1.105   4.491
 9075SOL    HW239105   2.927   0.957   4.493
 9076SOL     OW39106   1.394   3.726   4.314
 9076SOL    HW139107   1.325   3.697   4.374
 9076SOL    HW239108   1.377   3.679   4.233
 9077SOL     OW39109   1.292   1.608  16.405
 9077SOL    HW139110   1.323   1.682  16.457
 9077SOL    HW239111   1.204   1.589  16.438
 9078SOL     OW39112   2.085   2.587   2.506
 9078SOL    HW139113   2.079   2.673   2.463
 9078SOL    HW239114   2.124   2.606   2.592
 9079SOL     OW39115   2.844   1.183   5.520
 9079SOL    HW139116   2.860   1.189   5.614
 9079SOL    HW239117   2.753   1.153   5.514
 9080SOL     OW39118   4.040   2.883   3.850
 9080SOL    HW139119   4.117   2.914   3.899
 9080SOL    HW239120   3.979   2.856   3.918
 9081SOL     OW39121   0.613   4.421   3.001
 9081SOL    HW139122   0.589   4.513   3.016
 9081SOL    HW239123   0.611   4.381   3.087
 9082SOL     OW39124   2.881   4.591   1.078
 9082SOL    HW139125   2.873   4.497   1.096
 9082SOL    HW239126   2.906   4.629   1.162
 9083SOL     OW39127   0.774   3.985  15.939
 9083SOL    HW139128   0.846   3.937  15.980
 9083SOL    HW239129   0.722   3.916  15.897
 9084SOL     OW39130   0.585   2.018   3.042
 9084SOL    HW139131   0.522   2.042   2.975
 9084SOL    HW239132   0.653   2.085   3.036
 9085SOL     OW39133   2.720   2.002   6.139
 9085SOL    HW139134   2.625   2.015   6.132
 9085SOL    HW239135   2.747   1.980   6.050
 9086SOL     OW39136   2.806   4.188   2.924
 9086SOL    HW139137   2.760   4.269   2.899
 9086SOL    HW239138   2.883   4.218   2.971
 9087SOL     OW39139   1.200   0.213   6.150
 9087SOL    HW139140   1.151   0.198   6.069
 9087SOL    HW239141   1.237   0.128   6.172
 9088SOL     OW39142   2.734   1.543   2.434
 9088SOL    HW139143   2.782   1.461   2.438
 9088SOL    HW239144   2.669   1.529   2.365
 9089SOL     OW39145   1.322   2.253   0.629
 9089SOL    HW139146   1.307   2.162   0.655
 9089SOL    HW239147   1.313   2.252   0.533
 9090SOL     OW39148   4.587   2.131  20.248
 9090SOL    HW139149   4.576   2.195  20.319
 9090SOL    HW239150   4.541   2.053  20.279
 9091SOL     OW39151   4.123   3.085   5.959
 9091SOL    HW139152   4.083   3.161   6.002
 9091SOL    HW239153   4.049   3.027   5.938
 9092SOL     OW39154   4.647   1.649   3.020
 9092SOL    HW139155   4.707   1.580   3.048
 9092SOL    HW239156   4.588   1.606   2.958
 9093SOL     OW39157   4.531   1.413   7.869
 9093SOL    HW139158   4.574   1.328   7.876
 9093SOL    HW239159   4.504   1.419   7.777
 9094SOL     OW39160   2.255   2.234  16.886
 9094SOL    HW139161   2.215   2.307  16.838
 9094SOL    HW239162   2.269   2.269  16.974
 9095SOL     OW39163   0.224   1.929  19.916
 9095SOL    HW139164   0.134   1.947  19.891
 9095SOL    HW239165   0.261   2.016  19.935
 9096SOL     OW39166   3.313   3.879  19.349
 9096SOL    HW139167   3.307   3.948  19.283
 9096SOL    HW239168   3.301   3.798  19.300
 9097SOL     OW39169   2.923   3.697   1.547
 9097SOL    HW139170   2.839   3.683   1.592
 9097SOL    HW239171   2.929   3.625   1.485
 9098SOL     OW39172   1.655   2.371   3.230
 9098SOL    HW139173   1.611   2.406   3.153
 9098SOL    HW239174   1.685   2.285   3.203
 9099SOL     OW39175   2.402   3.139   5.709
 9099SOL    HW139176   2.353   3.213   5.675
 9099SOL    HW239177   2.341   3.065   5.703
 9100SOL     OW39178   0.280   2.375  16.143
 9100SOL    HW139179   0.184   2.376  16.139
 9100SOL    HW239180   0.300   2.349  16.233
 9101SOL     OW39181   1.447   2.495   2.757
 9101SOL    HW139182   1.506   2.536   2.695
 9101SOL    HW239183   1.451   2.402   2.736
 9102SOL     OW39184   2.048   1.307  18.318
 9102SOL    HW139185   2.108   1.237  18.343
 9102SOL    HW239186   2.009   1.277  18.236
 9103SOL     OW39187   1.198   1.002  21.101
 9103SOL    HW139188   1.181   1.097  21.102
 9103SOL    HW239189   1.181   0.974  21.190
 9104SOL     OW39190   1.485   1.850   1.298
 9104SOL    HW139191   1.430   1.773   1.280
 9104SOL    HW239192   1.574   1.815   1.300
 9105SOL     OW39193   2.441   2.070  13.878
 9105SOL    HW139194   2.365   2.022  13.912
 9105SOL    HW239195   2.507   2.059  13.947
 9106SOL     OW39196   2.148   0.436   0.335
 9106SOL    HW139197   2.191   0.463   0.416
 9106SOL    HW239198   2.092   0.510   0.312
 9107SOL     OW39199   3.418   1.486  18.776
 9107SOL    HW139200   3.337   1.534  18.759
 9107SOL    HW239201   3.475   1.548  18.821
 9108SOL     OW39202   1.088   4.165  12.930
 9108SOL    HW139203   1.098   4.222  12.853
 9108SOL    HW239204   1.171   4.173  12.976
 9109SOL     OW39205   0.132   2.490  18.497
 9109SOL    HW139206   0.058   2.536  18.535
 9109SOL    HW239207   0.116   2.398  18.519
 9110SOL     OW39208   3.383   1.239   6.469
 9110SOL    HW139209   3.315   1.177   6.444
 9110SOL    HW239210   3.433   1.254   6.389
 9111SOL     OW39211   2.259   2.308   1.125
 9111SOL    HW139212   2.290   2.380   1.069
 9111SOL    HW239213   2.306   2.320   1.207
 9112SOL     OW39214   0.054   1.338   3.459
 9112SOL    HW139215   0.007   1.259   3.486
 9112SOL    HW239216   4.785   1.409   3.481
 9113SOL     OW39217   3.699   1.831   8.399
 9113SOL    HW139218   3.772   1.870   8.446
 9113SOL    HW239219   3.640   1.905   8.381
 9114SOL     OW39220   1.098   4.081  20.616
 9114SOL    HW139221   1.091   4.141  20.542
 9114SOL    HW239222   1.029   4.109  20.677
 9115SOL     OW39223   1.335   1.372   1.527
 9115SOL    HW139224   1.366   1.451   1.484
 9115SOL    HW239225   1.330   1.396   1.620
 9116SOL     OW39226   0.046   0.194  11.244
 9116SOL    HW139227   0.132   0.237  11.238
 9116SOL    HW239228   0.064   0.110  11.287
 9117SOL     OW39229   4.233   0.516  15.591
 9117SOL    HW139230   4.303   0.504  15.655
 9117SOL    HW239231   4.162   0.558  15.640
 9118SOL     OW39232   0.077   1.885   1.175
 9118SOL    HW139233   4.778   1.856   1.163
 9118SOL    HW239234   0.130   1.806   1.165
 9119SOL     OW39235   2.784   2.778  17.040
 9119SOL    HW139236   2.713   2.814  17.093
 9119SOL    HW239237   2.862   2.793  17.094
 9120SOL     OW39238   2.869   2.496  17.151
 9120SOL    HW139239   2.866   2.579  17.199
 9120SOL    HW239240   2.778   2.478  17.128
 9121SOL     OW39241   4.697   1.494   1.250
 9121SOL    HW139242   4.671   1.564   1.189
 9121SOL    HW239243   4.622   1.484   1.308
 9122SOL     OW39244   0.525   3.124  18.569
 9122SOL    HW139245   0.465   3.057  18.602
 9122SOL    HW239246   0.606   3.111  18.618
 9123SOL     OW39247   1.008   3.190   5.271
 9123SOL    HW139248   0.946   3.159   5.337
 9123SOL    HW239249   0.975   3.276   5.247
 9124SOL     OW39250   1.357   4.608   8.832
 9124SOL    HW139251   1.263   4.623   8.831
 9124SOL    HW239252   1.381   4.606   8.925
 9125SOL     OW39253   4.016   1.495   6.680
 9125SOL    HW139254   3.954   1.470   6.750
 9125SOL    HW239255   4.016   1.421   6.620
 9126SOL     OW39256   4.575   3.627   0.644
 9126SOL    HW139257   4.551   3.707   0.691
 9126SOL    HW239258   4.644   3.588   0.697
 9127SOL     OW39259   4.725   2.408   3.309
 9127SOL    HW139260   0.026   2.384   3.298
 9127SOL    HW239261   4.687   2.397   3.222
 9128SOL     OW39262   0.487   2.107   5.327
 9128SOL    HW139263   0.522   2.020   5.309
 9128SOL    HW239264   0.394   2.092   5.348
 9129SOL     OW39265   2.142   4.582  18.279
 9129SOL    HW139266   2.065   4.547  18.234
 9129SOL    HW239267   2.204   4.600  18.209
 9130SOL     OW39268   3.237   4.180  13.883
 9130SOL    HW139269   3.221   4.272  13.864
 9130SOL    HW239270   3.193   4.164  13.966
 9131SOL     OW39271   1.521   0.094   5.394
 9131SOL    HW139272   1.503   0.085   5.487
 9131SOL    HW239273   1.500   0.185   5.373
 9132SOL     OW39274   1.922   1.600  18.119
 9132SOL    HW139275   1.926   1.506  18.139
 9132SOL    HW239276   1.922   1.604  18.024
 9133SOL     OW39277   1.388   0.204  19.197
 9133SOL    HW139278   1.394   0.183  19.103
 9133SOL    HW239279   1.477   0.223  19.224
 9134SOL     OW39280   0.479   4.399   8.067
 9134SOL    HW139281   0.452   4.485   8.100
 9134SOL    HW239282   0.493   4.347   8.146
 9135SOL     OW39283   2.626   2.928   7.777
 9135SOL    HW139284   2.549   2.875   7.801
 9135SOL    HW239285   2.670   2.876   7.710
 9136SOL     OW39286   3.173   0.187   2.329
 9136SOL    HW139287   3.176   0.220   2.239
 9136SOL    HW239288   3.254   0.218   2.369
 9137SOL     OW39289   2.754   2.713  15.857
 9137SOL    HW139290   2.763   2.632  15.907
 9137SOL    HW239291   2.834   2.763  15.877
 9138SOL     OW39292   3.784   3.717   4.022
 9138SOL    HW139293   3.694   3.746   4.004
 9138SOL    HW239294   3.788   3.710   4.117
 9139SOL     OW39295   3.731   2.454  16.266
 9139SOL    HW139296   3.684   2.466  16.184
 9139SOL    HW239297   3.665   2.426  16.329
 9140SOL     OW39298   4.154   1.577   4.329
 9140SOL    HW139299   4.181   1.509   4.268
 9140SOL    HW239300   4.154   1.657   4.277
 9141SOL     OW39301   2.262   1.292  20.171
 9141SOL    HW139302   2.178   1.322  20.136
 9141SOL    HW239303   2.254   1.196  20.172
 9142SOL     OW39304   2.240   3.205   6.439
 9142SOL    HW139305   2.332   3.229   6.448
 9142SOL    HW239306   2.214   3.175   6.526
 9143SOL     OW39307   2.778   1.031  21.182
 9143SOL    HW139308   2.851   1.076  21.140
 9143SOL    HW239309   2.717   1.101  21.205
 9144SOL     OW39310   4.420   4.706  16.514
 9144SOL    HW139311   4.475   4.694  16.437
 9144SOL    HW239312   4.467   4.660  16.584
 9145SOL     OW39313   1.274   1.036   8.549
 9145SOL    HW139314   1.224   0.988   8.483
 9145SOL    HW239315   1.233   1.122   8.553
 9146SOL     OW39316   1.807   1.873   2.851
 9146SOL    HW139317   1.843   1.845   2.935
 9146SOL    HW239318   1.712   1.866   2.863
 9147SOL     OW39319   3.752   2.859  16.734
 9147SOL    HW139320   3.660   2.885  16.738
 9147SOL    HW239321   3.762   2.818  16.648
 9148SOL     OW39322   4.313   0.783  19.908
 9148SOL    HW139323   4.293   0.701  19.863
 9148SOL    HW239324   4.227   0.821  19.929
 9149SOL     OW39325   0.763   2.000  15.962
 9149SOL    HW139326   0.800   1.916  15.934
 9149SOL    HW239327   0.676   2.002  15.923
 9150SOL     OW39328   3.442   1.846  19.419
 9150SOL    HW139329   3.527   1.878  19.446
 9150SOL    HW239330   3.380   1.887  19.479
 9151SOL     OW39331   3.616   2.669   5.122
 9151SOL    HW139332   3.701   2.678   5.078
 9151SOL    HW239333   3.619   2.583   5.163
 9152SOL     OW39334   2.609   0.767   0.859
 9152SOL    HW139335   2.695   0.798   0.888
 9152SOL    HW239336   2.547   0.813   0.915
 9153SOL     OW39337   1.540   0.094   2.786
 9153SOL    HW139338   1.492   0.013   2.803
 9153SOL    HW239339   1.629   0.066   2.766
 9154SOL     OW39340   0.430   2.214  21.057
 9154SOL    HW139341   0.491   2.247  20.991
 9154SOL    HW239342   0.396   2.292  21.100
 9155SOL     OW39343   2.980   4.376   3.079
 9155SOL    HW139344   2.986   4.285   3.109
 9155SOL    HW239345   3.043   4.382   3.007
 9156SOL     OW39346   0.525   1.218  13.068
 9156SOL    HW139347   0.587   1.150  13.042
 9156SOL    HW239348   0.442   1.192  13.029
 9157SOL     OW39349   0.550   4.345  19.392
 9157SOL    HW139350   0.534   4.402  19.316
 9157SOL    HW239351   0.643   4.357  19.411
 9158SOL     OW39352   4.350   2.262  20.535
 9158SOL    HW139353   4.327   2.171  20.551
 9158SOL    HW239354   4.277   2.297  20.484
 9159SOL     OW39355   0.130   0.117   0.668
 9159SOL    HW139356   0.053   0.060   0.661
 9159SOL    HW239357   0.110   0.192   0.611
 9160SOL     OW39358   3.386   1.202   2.575
 9160SOL    HW139359   3.450   1.131   2.571
 9160SOL    HW239360   3.432   1.277   2.537
 9161SOL     OW39361   1.702   1.042  16.035
 9161SOL    HW139362   1.665   1.113  15.982
 9161SOL    HW239363   1.696   1.075  16.125
 9162SOL     OW39364   3.585   4.708  16.481
 9162SOL    HW139365   3.670   4.752  16.483
 9162SOL    HW239366   3.531   4.765  16.426
 9163SOL     OW39367   2.998   2.022   6.621
 9163SOL    HW139368   2.915   1.977   6.635
 9163SOL    HW239369   2.981   2.113   6.646
 9164SOL     OW39370   0.395   2.615  18.590
 9164SOL    HW139371   0.342   2.537  18.571
 9164SOL    HW239372   0.412   2.610  18.684
 9165SOL     OW39373   1.983   0.958  18.926
 9165SOL    HW139374   2.064   0.907  18.919
 9165SOL    HW239375   1.917   0.895  18.957
 9166SOL     OW39376   3.689   3.090   7.092
 9166SOL    HW139377   3.623   3.054   7.152
 9166SOL    HW239378   3.771   3.051   7.120
 9167SOL     OW39379   1.980   1.154   1.174
 9167SOL    HW139380   2.044   1.225   1.164
 9167SOL    HW239381   1.938   1.146   1.089
 9168SOL     OW39382   0.406   3.636  16.421
 9168SOL    HW139383   0.335   3.618  16.483
 9168SOL    HW239384   0.371   3.608  16.336
 9169SOL     OW39385   3.789   0.963  20.145
 9169SOL    HW139386   3.795   1.025  20.073
 9169SOL    HW239387   3.866   0.983  20.200
 9170SOL     OW39388   2.205   3.544  20.867
 9170SOL    HW139389   2.201   3.636  20.839
 9170SOL    HW239390   2.174   3.495  20.791
 9171SOL     OW39391   0.412   1.755   2.614
 9171SOL    HW139392   0.488   1.813   2.606
 9171SOL    HW239393   0.425   1.707   2.696
 9172SOL     OW39394   4.143   4.664  14.307
 9172SOL    HW139395   4.173   4.748  14.273
 9172SOL    HW239396   4.087   4.628  14.238
 9173SOL     OW39397   3.150   0.511   1.701
 9173SOL    HW139398   3.130   0.551   1.786
 9173SOL    HW239399   3.181   0.584   1.648
 9174SOL     OW39400   0.010   0.419  16.692
 9174SOL    HW139401   4.707   0.408  16.702
 9174SOL    HW239402   0.042   0.436  16.781
 9175SOL     OW39403   0.833   0.490  16.828
 9175SOL    HW139404   0.916   0.473  16.783
 9175SOL    HW239405   0.830   0.586  16.836
 9176SOL     OW39406   2.631   2.423  15.020
 9176SOL    HW139407   2.685   2.502  15.022
 9176SOL    HW239408   2.567   2.436  15.089
 9177SOL     OW39409   2.770   4.556   5.528
 9177SOL    HW139410   2.825   4.620   5.574
 9177SOL    HW239411   2.827   4.480   5.515
 9178SOL     OW39412   0.588   1.459  19.385
 9178SOL    HW139413   0.605   1.553  19.384
 9178SOL    HW239414   0.585   1.434  19.293
 9179SOL     OW39415   3.090   3.969   8.138
 9179SOL    HW139416   3.018   3.908   8.152
 9179SOL    HW239417   3.062   4.050   8.182
 9180SOL     OW39418   3.843   1.002  15.992
 9180SOL    HW139419   3.753   1.018  15.963
 9180SOL    HW239420   3.838   0.917  16.036
 9181SOL     OW39421   3.027   1.719   1.671
 9181SOL    HW139422   3.093   1.775   1.711
 9181SOL    HW239423   3.019   1.645   1.731
 9182SOL     OW39424   3.609   3.717   4.264
 9182SOL    HW139425   3.550   3.714   4.339
 9182SOL    HW239426   3.694   3.690   4.299
 9183SOL     OW39427   4.099   2.422   4.381
 9183SOL    HW139428   4.156   2.383   4.314
 9183SOL    HW239429   4.010   2.402   4.352
 9184SOL     OW39430   4.603   0.983   8.287
 9184SOL    HW139431   4.674   0.938   8.240
 9184SOL    HW239432   4.644   1.012   8.369
 9185SOL     OW39433   0.574   1.251   5.333
 9185SOL    HW139434   0.580   1.176   5.274
 9185SOL    HW239435   0.486   1.286   5.319
 9186SOL     OW39436   2.022   4.722   6.199
 9186SOL    HW139437   2.014   0.006   6.140
 9186SOL    HW239438   1.953   4.662   6.170
 9187SOL     OW39439   2.053   1.997  18.116
 9187SOL    HW139440   2.139   1.996  18.075
 9187SOL    HW239441   2.051   1.919  18.171
 9188SOL     OW39442   0.640   1.876   0.815
 9188SOL    HW139443   0.634   1.898   0.722
 9188SOL    HW239444   0.551   1.886   0.847
 9189SOL     OW39445   0.379   4.353  20.788
 9189SOL    HW139446   0.394   4.407  20.865
 9189SOL    HW239447   0.461   4.360  20.738
 9190SOL     OW39448   4.429   4.250  17.520
 9190SOL    HW139449   4.408   4.157  17.508
 9190SOL    HW239450   4.509   4.249  17.573
 9191SOL     OW39451   0.986   1.570   5.924
 9191SOL    HW139452   1.022   1.511   5.990
 9191SOL    HW239453   0.910   1.525   5.889
 9192SOL     OW39454   4.215   4.302  13.311
 9192SOL    HW139455   4.290   4.249  13.338
 9192SOL    HW239456   4.140   4.262  13.356
 9193SOL     OW39457   3.819   4.784  19.053
 9193SOL    HW139458   3.832   0.026  18.964
 9193SOL    HW239459   3.905   4.750  19.078
 9194SOL     OW39460   1.795   3.893   1.387
 9194SOL    HW139461   1.870   3.837   1.367
 9194SOL    HW239462   1.723   3.857   1.336
 9195SOL     OW39463   4.632   0.518   3.396
 9195SOL    HW139464   4.540   0.544   3.402
 9195SOL    HW239465   4.660   0.507   3.487
 9196SOL     OW39466   4.327   3.452   6.131
 9196SOL    HW139467   4.388   3.423   6.199
 9196SOL    HW239468   4.380   3.452   6.051
 9197SOL     OW39469   3.909   4.790   3.069
 9197SOL    HW139470   3.820   0.009   3.036
 9197SOL    HW239471   3.964   0.029   2.997
 9198SOL     OW39472   3.314   1.402   6.681
 9198SOL    HW139473   3.325   1.333   6.616
 9198SOL    HW239474   3.287   1.356   6.761
 9199SOL     OW39475   1.824   1.313   4.105
 9199SOL    HW139476   1.902   1.261   4.121
 9199SOL    HW239477   1.835   1.345   4.015
 9200SOL     OW39478   0.814   4.643   6.489
 9200SOL    HW139479   0.836   4.550   6.500
 9200SOL    HW239480   0.890   4.690   6.523
 9201SOL     OW39481   3.853   2.551   2.149
 9201SOL    HW139482   3.872   2.486   2.082
 9201SOL    HW239483   3.926   2.546   2.210
 9202SOL     OW39484   1.348   3.313  16.379
 9202SOL    HW139485   1.372   3.344  16.292
 9202SOL    HW239486   1.361   3.218  16.376
 9203SOL     OW39487   2.319   1.719   5.216
 9203SOL    HW139488   2.397   1.714   5.160
 9203SOL    HW239489   2.284   1.806   5.202
 9204SOL     OW39490   4.566   1.621  18.853
 9204SOL    HW139491   4.518   1.539  18.870
 9204SOL    HW239492   4.613   1.638  18.935
 9205SOL     OW39493   4.235   1.731   1.494
 9205SOL    HW139494   4.150   1.723   1.536
 9205SOL    HW239495   4.236   1.821   1.460
 9206SOL     OW39496   0.789   0.043   2.927
 9206SOL    HW139497   0.851   4.790   2.985
 9206SOL    HW239498   0.716   4.773   2.917
 9207SOL     OW39499   3.990   1.160   2.777
 9207SOL    HW139500   4.065   1.213   2.749
 9207SOL    HW239501   4.027   1.099   2.841
 9208SOL     OW39502   4.608   1.007   5.652
 9208SOL    HW139503   4.699   0.999   5.679
 9208SOL    HW239504   4.613   1.031   5.559
 9209SOL     OW39505   1.567   4.382  14.613
 9209SOL    HW139506   1.519   4.463  14.631
 9209SOL    HW239507   1.538   4.356  14.526
 9210SOL     OW39508   0.862   3.011   1.621
 9210SOL    HW139509   0.927   3.076   1.593
 9210SOL    HW239510   0.863   3.016   1.717
 9211SOL     OW39511   1.089   0.073   0.254
 9211SOL    HW139512   1.092   0.053   0.347
 9211SOL    HW239513   1.155   0.016   0.214
 9212SOL     OW39514   3.797   4.093  14.636
 9212SOL    HW139515   3.738   4.124  14.568
 9212SOL    HW239516   3.885   4.109  14.601
 9213SOL     OW39517   0.196   4.623   4.178
 9213SOL    HW139518   0.186   4.597   4.087
 9213SOL    HW239519   0.277   4.580   4.207
 9214SOL     OW39520   2.577   1.754   4.610
 9214SOL    HW139521   2.657   1.743   4.557
 9214SOL    HW239522   2.507   1.727   4.551
 9215SOL     OW39523   1.757   2.165  15.963
 9215SOL    HW139524   1.758   2.078  15.923
 9215SOL    HW239525   1.849   2.183  15.981
 9216SOL     OW39526   2.448   0.934   2.787
 9216SOL    HW139527   2.469   1.027   2.790
 9216SOL    HW239528   2.414   0.920   2.699
 9217SOL     OW39529   2.496   4.072  16.071
 9217SOL    HW139530   2.485   4.117  16.154
 9217SOL    HW239531   2.425   4.007  16.069
 9218SOL     OW39532   4.620   1.821   6.329
 9218SOL    HW139533   4.648   1.794   6.417
 9218SOL    HW239534   4.674   1.898   6.310
 9219SOL     OW39535   0.389   3.875   1.630
 9219SOL    HW139536   0.365   3.846   1.718
 9219SOL    HW239537   0.347   3.961   1.621
 9220SOL     OW39538   3.765   2.027  12.209
 9220SOL    HW139539   3.713   2.092  12.163
 9220SOL    HW239540   3.836   2.077  12.250
 9221SOL     OW39541   4.681   2.954   1.716
 9221SOL    HW139542   4.729   2.968   1.634
 9221SOL    HW239543   4.718   2.873   1.751
 9222SOL     OW39544   2.578   1.641  20.726
 9222SOL    HW139545   2.547   1.551  20.715
 9222SOL    HW239546   2.538   1.689  20.654
 9223SOL     OW39547   4.626   2.647   2.349
 9223SOL    HW139548   4.592   2.686   2.269
 9223SOL    HW239549   4.707   2.604   2.321
 9224SOL     OW39550   3.990   2.043  15.321
 9224SOL    HW139551   3.945   2.018  15.402
 9224SOL    HW239552   3.923   2.087  15.269
 9225SOL     OW39553   3.611   2.381   6.899
 9225SOL    HW139554   3.568   2.351   6.819
 9225SOL    HW239555   3.540   2.416   6.952
 9226SOL     OW39556   0.196   3.552   0.595
 9226SOL    HW139557   0.124   3.536   0.534
 9226SOL    HW239558   0.154   3.559   0.681
 9227SOL     OW39559   1.607   3.410  19.703
 9227SOL    HW139560   1.607   3.439  19.794
 9227SOL    HW239561   1.679   3.457  19.662
 9228SOL     OW39562   0.786   3.556   3.432
 9228SOL    HW139563   0.769   3.524   3.520
 9228SOL    HW239564   0.877   3.530   3.414
 9229SOL     OW39565   3.473   2.041  20.343
 9229SOL    HW139566   3.405   2.023  20.408
 9229SOL    HW239567   3.425   2.078  20.269
 9230SOL     OW39568   4.199   3.961   3.807
 9230SOL    HW139569   4.267   3.900   3.836
 9230SOL    HW239570   4.157   3.917   3.733
 9231SOL     OW39571   1.440   1.727  15.748
 9231SOL    HW139572   1.481   1.714  15.833
 9231SOL    HW239573   1.478   1.660  15.692
 9232SOL     OW39574   2.409   4.658  17.294
 9232SOL    HW139575   2.331   4.712  17.279
 9232SOL    HW239576   2.483   4.717  17.278
 9233SOL     OW39577   4.321   1.573  17.862
 9233SOL    HW139578   4.307   1.484  17.828
 9233SOL    HW239579   4.353   1.559  17.951
 9234SOL     OW39580   4.335   1.785   6.729
 9234SOL    HW139581   4.363   1.724   6.660
 9234SOL    HW239582   4.405   1.780   6.794
 9235SOL     OW39583   1.387   3.553   0.172
 9235SOL    HW139584   1.460   3.523   0.119
 9235SOL    HW239585   1.324   3.481   0.171
 9236SOL     OW39586   4.472   0.330  18.597
 9236SOL    HW139587   4.534   0.263  18.570
 9236SOL    HW239588   4.400   0.323  18.535
 9237SOL     OW39589   0.795   3.348   2.744
 9237SOL    HW139590   0.758   3.416   2.800
 9237SOL    HW239591   0.723   3.322   2.687
 9238SOL     OW39592   2.498   2.474  18.519
 9238SOL    HW139593   2.438   2.413  18.561
 9238SOL    HW239594   2.563   2.419  18.475
 9239SOL     OW39595   2.781   2.580  16.804
 9239SOL    HW139596   2.763   2.563  16.896
 9239SOL    HW239597   2.841   2.655  16.804
 9240SOL     OW39598   2.183   0.392   3.355
 9240SOL    HW139599   2.141   0.315   3.393
 9240SOL    HW239600   2.250   0.417   3.419
 9241SOL     OW39601   4.495   3.986  20.199
 9241SOL    HW139602   4.466   4.071  20.232
 9241SOL    HW239603   4.572   4.006  20.146
 9242SOL     OW39604   3.493   4.287   2.903
 9242SOL    HW139605   3.485   4.371   2.858
 9242SOL    HW239606   3.529   4.309   2.989
 9243SOL     OW39607   3.661   3.389   4.932
 9243SOL    HW139608   3.585   3.448   4.933
 9243SOL    HW239609   3.635   3.317   4.874
 9244SOL     OW39610   0.524   0.213   1.517
 9244SOL    HW139611   0.503   0.284   1.456
 9244SOL    HW239612   0.446   0.158   1.518
 9245SOL     OW39613   2.229   3.323  16.481
 9245SOL    HW139614   2.192   3.256  16.423
 9245SOL    HW239615   2.202   3.297  16.569
 9246SOL     OW39616   1.246   2.675  16.820
 9246SOL    HW139617   1.224   2.768  16.825
 9246SOL    HW239618   1.306   2.668  16.746
 9247SOL     OW39619   3.549   1.101   4.571
 9247SOL    HW139620   3.565   1.021   4.521
 9247SOL    HW239621   3.497   1.155   4.513
 9248SOL     OW39622   3.884   0.288   3.856
 9248SOL    HW139623   3.894   0.332   3.772
 9248SOL    HW239624   3.794   0.307   3.883
 9249SOL     OW39625   4.298   1.787  16.761
 9249SOL    HW139626   4.346   1.814  16.682
 9249SOL    HW239627   4.207   1.812  16.743
 9250SOL     OW39628   3.117   4.273   2.441
 9250SOL    HW139629   3.085   4.236   2.358
 9250SOL    HW239630   3.050   4.248   2.505
 9251SOL     OW39631   4.015   3.337   2.912
 9251SOL    HW139632   4.020   3.242   2.905
 9251SOL    HW239633   4.026   3.368   2.822
 9252SOL     OW39634   2.205   0.207   1.189
 9252SOL    HW139635   2.285   0.211   1.136
 9252SOL    HW239636   2.209   0.121   1.231
 9253SOL     OW39637   1.584   1.750   2.570
 9253SOL    HW139638   1.616   1.667   2.607
 9253SOL    HW239639   1.659   1.809   2.574
 9254SOL     OW39640   0.200   3.937   2.071
 9254SOL    HW139641   0.214   3.962   1.980
 9254SOL    HW239642   0.126   3.991   2.100
 9255SOL     OW39643   3.617   2.589   4.823
 9255SOL    HW139644   3.613   2.592   4.918
 9255SOL    HW239645   3.542   2.640   4.794
 9256SOL     OW39646   4.781   1.280  12.193
 9256SOL    HW139647   0.083   1.259  12.189
 9256SOL    HW239648   4.739   1.200  12.226
 9257SOL     OW39649   0.853   4.160   0.469
 9257SOL    HW139650   0.914   4.175   0.396
 9257SOL    HW239651   0.900   4.193   0.546
 9258SOL     OW39652   4.429   1.429  17.472
 9258SOL    HW139653   4.414   1.516  17.508
 9258SOL    HW239654   4.395   1.433  17.383
 9259SOL     OW39655   2.636   0.985  14.526
 9259SOL    HW139656   2.692   0.929  14.581
 9259SOL    HW239657   2.686   1.065  14.514
 9260SOL     OW39658   4.173   3.603   5.416
 9260SOL    HW139659   4.087   3.580   5.383
 9260SOL    HW239660   4.190   3.542   5.488
 9261SOL     OW39661   2.069   4.777   3.703
 9261SOL    HW139662   2.009   4.742   3.769
 9261SOL    HW239663   2.082   4.704   3.642
 9262SOL     OW39664   4.529   2.560  14.847
 9262SOL    HW139665   4.532   2.630  14.913
 9262SOL    HW239666   4.472   2.593  14.779
 9263SOL     OW39667   3.548   1.859   5.777
 9263SOL    HW139668   3.608   1.830   5.708
 9263SOL    HW239669   3.586   1.940   5.810
 9264SOL     OW39670   1.886   2.851  19.432
 9264SOL    HW139671   1.869   2.768  19.477
 9264SOL    HW239672   1.916   2.825  19.345
 9265SOL     OW39673   0.820   1.855   5.626
 9265SOL    HW139674   0.866   1.842   5.543
 9265SOL    HW239675   0.729   1.870   5.602
 9266SOL     OW39676   2.718   3.752   3.447
 9266SOL    HW139677   2.631   3.789   3.458
 9266SOL    HW239678   2.704   3.668   3.405
 9267SOL     OW39679   2.951   1.688  16.116
 9267SOL    HW139680   2.970   1.742  16.193
 9267SOL    HW239681   2.939   1.600  16.152
 9268SOL     OW39682   2.103   1.534  18.489
 9268SOL    HW139683   2.034   1.567  18.546
 9268SOL    HW239684   2.065   1.456  18.448
 9269SOL     OW39685   0.720   1.703   5.315
 9269SOL    HW139686   0.657   1.634   5.293
 9269SOL    HW239687   0.667   1.783   5.319
 9270SOL     OW39688   3.109   1.715  13.641
 9270SOL    HW139689   3.142   1.660  13.571
 9270SOL    HW239690   3.045   1.660  13.687
 9271SOL     OW39691   0.244   4.333   3.409
 9271SOL    HW139692   0.245   4.424   3.377
 9271SOL    HW239693   0.162   4.325   3.458
 9272SOL     OW39694   4.603   1.395  21.239
 9272SOL    HW139695   4.562   1.417   0.059
 9272SOL    HW239696   4.565   1.311  21.214
 9273SOL     OW39697   2.178   0.178  20.213
 9273SOL    HW139698   2.083   0.174  20.216
 9273SOL    HW239699   2.200   0.166  20.121
 9274SOL     OW39700   2.096   4.578   1.252
 9274SOL    HW139701   2.134   4.499   1.213
 9274SOL    HW239702   2.012   4.550   1.288
 9275SOL     OW39703   3.323   2.055   3.250
 9275SOL    HW139704   3.412   2.092   3.252
 9275SOL    HW239705   3.301   2.041   3.341
 9276SOL     OW39706   0.512   1.402   2.053
 9276SOL    HW139707   0.567   1.418   2.130
 9276SOL    HW239708   0.431   1.449   2.072
 9277SOL     OW39709   2.831   2.463   8.164
 9277SOL    HW139710   2.818   2.555   8.141
 9277SOL    HW239711   2.751   2.419   8.134
 9278SOL     OW39712   4.220   3.116   2.266
 9278SOL    HW139713   4.143   3.172   2.261
 9278SOL    HW239714   4.218   3.063   2.187
 9279SOL     OW39715   1.250   2.016   4.252
 9279SOL    HW139716   1.242   2.034   4.345
 9279SOL    HW239717   1.164   1.984   4.226
 9280SOL     OW39718   0.385   1.776  21.223
 9280SOL    HW139719   0.293   1.800  21.233
 9280SOL    HW239720   0.429   1.856  21.194
 9281SOL     OW39721   3.227   4.253   3.630
 9281SOL    HW139722   3.168   4.317   3.589
 9281SOL    HW239723   3.314   4.292   3.621
 9282SOL     OW39724   4.237   3.980  16.894
 9282SOL    HW139725   4.214   3.887  16.893
 9282SOL    HW239726   4.187   4.016  16.967
 9283SOL     OW39727   3.611   2.010   8.938
 9283SOL    HW139728   3.608   2.093   8.985
 9283SOL    HW239729   3.668   1.954   8.992
 9284SOL     OW39730   1.875   2.298  20.980
 9284SOL    HW139731   1.804   2.350  20.941
 9284SOL    HW239732   1.878   2.327  21.072
 9285SOL     OW39733   1.276   4.372   1.925
 9285SOL    HW139734   1.240   4.458   1.904
 9285SOL    HW239735   1.313   4.340   1.843
 9286SOL     OW39736   0.069   0.133   6.969
 9286SOL    HW139737   0.035   0.070   6.906
 9286SOL    HW239738   4.783   0.182   6.998
 9287SOL     OW39739   3.890   3.102  16.784
 9287SOL    HW139740   3.932   3.119  16.699
 9287SOL    HW239741   3.834   3.026  16.767
 9288SOL     OW39742   4.421   4.620   2.395
 9288SOL    HW139743   4.448   4.638   2.486
 9288SOL    HW239744   4.418   4.706   2.354
 9289SOL     OW39745   3.561   4.235   1.094
 9289SOL    HW139746   3.634   4.297   1.098
 9289SOL    HW239747   3.485   4.289   1.071
 9290SOL     OW39748   1.102   3.523  16.244
 9290SOL    HW139749   1.063   3.530  16.331
 9290SOL    HW239750   1.094   3.430  16.221
 9291SOL     OW39751   0.449   2.542  19.644
 9291SOL    HW139752   0.417   2.571  19.730
 9291SOL    HW239753   0.539   2.514  19.661
 9292SOL     OW39754   4.477   3.084   6.567
 9292SOL    HW139755   4.543   3.153   6.571
 9292SOL    HW239756   4.407   3.121   6.513
 9293SOL     OW39757   2.131   2.807   0.082
 9293SOL    HW139758   2.137   2.728   0.029
 9293SOL    HW239759   2.204   2.801   0.143
 9294SOL     OW39760   3.530   4.554  18.255
 9294SOL    HW139761   3.443   4.513  18.262
 9294SOL    HW239762   3.511   4.647  18.242
 9295SOL     OW39763   2.771   2.182  12.751
 9295SOL    HW139764   2.702   2.136  12.798
 9295SOL    HW239765   2.729   2.260  12.716
 9296SOL     OW39766   3.006   3.706   3.167
 9296SOL    HW139767   2.936   3.773   3.164
 9296SOL    HW239768   2.985   3.654   3.245
 9297SOL     OW39769   1.190   2.504   1.601
 9297SOL    HW139770   1.142   2.527   1.680
 9297SOL    HW239771   1.146   2.426   1.568
 9298SOL     OW39772   0.530   0.039  16.799
 9298SOL    HW139773   0.454   0.097  16.809
 9298SOL    HW239774   0.580   0.051  16.879
 9299SOL     OW39775   0.326   3.301  15.104
 9299SOL    HW139776   0.346   3.207  15.097
 9299SOL    HW239777   0.240   3.309  15.063
 9300SOL     OW39778   1.550   4.170   0.647
 9300SOL    HW139779   1.538   4.229   0.573
 9300SOL    HW239780   1.490   4.097   0.629
 9301SOL     OW39781   1.853   2.960  17.545
 9301SOL    HW139782   1.831   3.017  17.472
 9301SOL    HW239783   1.894   3.018  17.610
 9302SOL     OW39784   0.731   3.875  17.174
 9302SOL    HW139785   0.638   3.857  17.164
 9302SOL    HW239786   0.774   3.790  17.163
 9303SOL     OW39787   0.165   3.488   6.133
 9303SOL    HW139788   0.249   3.516   6.167
 9303SOL    HW239789   0.171   3.393   6.128
 9304SOL     OW39790   2.008   2.125   3.213
 9304SOL    HW139791   1.993   2.183   3.288
 9304SOL    HW239792   2.087   2.161   3.170
 9305SOL     OW39793   2.988   1.410  14.761
 9305SOL    HW139794   3.031   1.345  14.705
 9305SOL    HW239795   2.909   1.366  14.792
 9306SOL     OW39796   2.986   0.108   4.218
 9306SOL    HW139797   2.953   0.071   4.300
 9306SOL    HW239798   3.025   0.034   4.172
 9307SOL     OW39799   0.016   3.608   2.980
 9307SOL    HW139800   0.076   3.675   3.014
 9307SOL    HW239801   0.008   3.629   2.887
 9308SOL     OW39802   0.620   4.261  21.197
 9308SOL    HW139803   0.688   4.276   0.000
 9308SOL    HW239804   0.603   4.348  21.161
 9309SOL     OW39805   0.740   1.062   3.637
 9309SOL    HW139806   0.679   0.990   3.654
 9309SOL    HW239807   0.700   1.138   3.678
 9310SOL     OW39808   4.102   1.382  16.838
 9310SOL    HW139809   4.123   1.440  16.910
 9310SOL    HW239810   4.080   1.440  16.765
 9311SOL     OW39811   4.157   3.243  21.086
 9311SOL    HW139812   4.127   3.193  21.161
 9311SOL    HW239813   4.176   3.330  21.121
 9312SOL     OW39814   3.123   4.248  13.214
 9312SOL    HW139815   3.075   4.250  13.296
 9312SOL    HW239816   3.091   4.323  13.165
 9313SOL     OW39817   1.900   1.739   0.278
 9313SOL    HW139818   1.950   1.771   0.203
 9313SOL    HW239819   1.964   1.736   0.349
 9314SOL     OW39820   1.204   4.485   1.383
 9314SOL    HW139821   1.113   4.494   1.354
 9314SOL    HW239822   1.251   4.554   1.336
 9315SOL     OW39823   3.343   2.263   3.926
 9315SOL    HW139824   3.428   2.306   3.925
 9315SOL    HW239825   3.283   2.328   3.890
 9316SOL     OW39826   3.242   4.153  16.364
 9316SOL    HW139827   3.152   4.155  16.332
 9316SOL    HW239828   3.294   4.185  16.290
 9317SOL     OW39829   3.897   0.562  15.991
 9317SOL    HW139830   3.949   0.483  15.973
 9317SOL    HW239831   3.835   0.535  16.059
 9318SOL     OW39832   2.298   3.200  17.433
 9318SOL    HW139833   2.363   3.271  17.435
 9318SOL    HW239834   2.237   3.222  17.503
 9319SOL     OW39835   0.225   1.674  16.035
 9319SOL    HW139836   0.137   1.645  16.010
 9319SOL    HW239837   0.210   1.747  16.095
 9320SOL     OW39838   3.261   3.014   3.262
 9320SOL    HW139839   3.311   2.935   3.240
 9320SOL    HW239840   3.225   2.996   3.348
 9321SOL     OW39841   1.420   2.035   3.196
 9321SOL    HW139842   1.439   1.981   3.273
 9321SOL    HW239843   1.408   1.971   3.125
 9322SOL     OW39844   4.364   3.547  17.848
 9322SOL    HW139845   4.434   3.494  17.885
 9322SOL    HW239846   4.397   3.637  17.853
 9323SOL     OW39847   0.335   4.365   3.806
 9323SOL    HW139848   0.368   4.424   3.738
 9323SOL    HW239849   0.404   4.363   3.872
 9324SOL     OW39850   4.114   4.677   0.049
 9324SOL    HW139851   4.091   4.637   0.133
 9324SOL    HW239852   4.118   4.771   0.067
 9325SOL     OW39853   3.409   0.759  19.811
 9325SOL    HW139854   3.418   0.673  19.769
 9325SOL    HW239855   3.499   0.787  19.827
 9326SOL     OW39856   4.711   3.655  19.451
 9326SOL    HW139857   4.706   3.629  19.359
 9326SOL    HW239858   4.623   3.686  19.472
 9327SOL     OW39859   0.181   1.124  21.099
 9327SOL    HW139860   0.120   1.095  21.031
 9327SOL    HW239861   0.172   1.219  21.100
 9328SOL     OW39862   1.789   0.061   7.444
 9328SOL    HW139863   1.702   0.044   7.407
 9328SOL    HW239864   1.842   0.088   7.369
 9329SOL     OW39865   2.918   4.388  20.159
 9329SOL    HW139866   2.977   4.401  20.084
 9329SOL    HW239867   2.844   4.446  20.141
 9330SOL     OW39868   4.699   4.042   1.223
 9330SOL    HW139869   4.674   4.109   1.287
 9330SOL    HW239870   4.680   4.082   1.138
 9331SOL     OW39871   3.260   0.006  17.311
 9331SOL    HW139872   3.232   0.089  17.272
 9331SOL    HW239873   3.295   4.746  17.238
 9332SOL     OW39874   0.328   2.798  12.826
 9332SOL    HW139875   0.373   2.796  12.742
 9332SOL    HW239876   0.393   2.834  12.887
 9333SOL     OW39877   2.495   0.507  17.603
 9333SOL    HW139878   2.473   0.443  17.671
 9333SOL    HW239879   2.589   0.519  17.611
 9334SOL     OW39880   4.464   3.499  21.150
 9334SOL    HW139881   4.517   3.446  21.090
 9334SOL    HW239882   4.492   3.589  21.133
 9335SOL     OW39883   4.724   0.857   1.247
 9335SOL    HW139884   4.697   0.925   1.185
 9335SOL    HW239885   4.726   0.901   1.331
 9336SOL     OW39886   2.232   4.492   0.625
 9336SOL    HW139887   2.217   4.570   0.570
 9336SOL    HW239888   2.202   4.419   0.571
 9337SOL     OW39889   1.473   1.911   6.882
 9337SOL    HW139890   1.506   1.973   6.817
 9337SOL    HW239891   1.434   1.841   6.830
 9338SOL     OW39892   1.519   0.964  17.422
 9338SOL    HW139893   1.516   0.935  17.331
 9338SOL    HW239894   1.492   0.888  17.473
 9339SOL     OW39895   4.041   2.132   0.108
 9339SOL    HW139896   4.134   2.136   0.083
 9339SOL    HW239897   3.994   2.128   0.025
 9340SOL     OW39898   4.736   4.390  16.371
 9340SOL    HW139899   0.010   4.435  16.318
 9340SOL    HW239900   4.758   4.413  16.461
 9341SOL     OW39901   2.565   1.505   0.226
 9341SOL    HW139902   2.571   1.589   0.272
 9341SOL    HW239903   2.599   1.523   0.138
 9342SOL     OW39904   1.086   1.452  12.947
 9342SOL    HW139905   1.157   1.445  13.011
 9342SOL    HW239906   1.125   1.502  12.875
 9343SOL     OW39907   0.866   2.122  13.691
 9343SOL    HW139908   0.858   2.027  13.685
 9343SOL    HW239909   0.871   2.140  13.785
 9344SOL     OW39910   2.833   2.257   1.913
 9344SOL    HW139911   2.812   2.297   1.997
 9344SOL    HW239912   2.748   2.247   1.870
 9345SOL     OW39913   3.352   4.329  20.364
 9345SOL    HW139914   3.343   4.363  20.453
 9345SOL    HW239915   3.422   4.264  20.370
 9346SOL     OW39916   4.282   2.085  15.373
 9346SOL    HW139917   4.363   2.120  15.336
 9346SOL    HW239918   4.223   2.077  15.298
 9347SOL     OW39919   3.468   3.058   6.544
 9347SOL    HW139920   3.503   3.077   6.631
 9347SOL    HW239921   3.542   3.024   6.494
 9348SOL     OW39922   0.493   0.387   2.654
 9348SOL    HW139923   0.415   0.355   2.698
 9348SOL    HW239924   0.467   0.471   2.617
 9349SOL     OW39925   4.477   3.597   1.938
 9349SOL    HW139926   4.540   3.543   1.986
 9349SOL    HW239927   4.393   3.554   1.951
 9350SOL     OW39928   2.261   0.557  13.644
 9350SOL    HW139929   2.306   0.522  13.721
 9350SOL    HW239930   2.319   0.626  13.612
 9351SOL     OW39931   2.128   3.462  13.473
 9351SOL    HW139932   2.079   3.387  13.507
 9351SOL    HW239933   2.107   3.534  13.532
 9352SOL     OW39934   2.135   2.091   0.578
 9352SOL    HW139935   2.218   2.087   0.530
 9352SOL    HW239936   2.124   2.004   0.615
 9353SOL     OW39937   1.539   3.429   0.952
 9353SOL    HW139938   1.499   3.491   1.013
 9353SOL    HW239939   1.468   3.407   0.891
 9354SOL     OW39940   4.238   2.762   8.470
 9354SOL    HW139941   4.184   2.840   8.455
 9354SOL    HW239942   4.297   2.759   8.394
 9355SOL     OW39943   0.286   2.500  15.260
 9355SOL    HW139944   0.381   2.508  15.262
 9355SOL    HW239945   0.270   2.407  15.274
 9356SOL     OW39946   3.342   3.961  18.931
 9356SOL    HW139947   3.303   4.043  18.901
 9356SOL    HW239948   3.359   3.976  19.024
 9357SOL     OW39949   2.429   4.548  19.869
 9357SOL    HW139950   2.517   4.548  19.833
 9357SOL    HW239951   2.441   4.529  19.962
 9358SOL     OW39952   4.040   3.025   2.854
 9358SOL    HW139953   3.997   2.976   2.784
 9358SOL    HW239954   3.973   3.033   2.922
 9359SOL     OW39955   1.605   0.092  15.458
 9359SOL    HW139956   1.583   0.120  15.369
 9359SOL    HW239957   1.588   4.788  15.458
 9360SOL     OW39958   2.790   1.416  15.100
 9360SOL    HW139959   2.775   1.510  15.096
 9360SOL    HW239960   2.741   1.380  15.026
 9361SOL     OW39961   3.761   0.614   1.617
 9361SOL    HW139962   3.708   0.683   1.576
 9361SOL    HW239963   3.698   0.549   1.646
 9362SOL     OW39964   1.898   0.733  18.313
 9362SOL    HW139965   1.869   0.765  18.399
 9362SOL    HW239966   1.988   0.704  18.328
 9363SOL     OW39967   3.901   4.352   1.441
 9363SOL    HW139968   3.867   4.266   1.418
 9363SOL    HW239969   3.937   4.386   1.360
 9364SOL     OW39970   2.217   0.580   0.569
 9364SOL    HW139971   2.248   0.613   0.654
 9364SOL    HW239972   2.127   0.552   0.587
 9365SOL     OW39973   0.274   3.974   4.867
 9365SOL    HW139974   0.266   3.950   4.774
 9365SOL    HW239975   0.209   3.920   4.911
 9366SOL     OW39976   4.369   1.035   1.695
 9366SOL    HW139977   4.421   0.985   1.757
 9366SOL    HW239978   4.432   1.088   1.646
 9367SOL     OW39979   4.506   0.035  15.593
 9367SOL    HW139980   4.470   0.076  15.515
 9367SOL    HW239981   4.471   4.737  15.592
 9368SOL     OW39982   2.839   0.605  17.328
 9368SOL    HW139983   2.799   0.659  17.261
 9368SOL    HW239984   2.780   0.612  17.403
 9369SOL     OW39985   2.815   4.785  14.432
 9369SOL    HW139986   2.754   4.736  14.487
 9369SOL    HW239987   2.816   0.082  14.468
 9370SOL     OW39988   1.637   1.514  17.970
 9370SOL    HW139989   1.635   1.485  18.061
 9370SOL    HW239990   1.608   1.438  17.919
 9371SOL     OW39991   3.627   0.697   5.044
 9371SOL    HW139992   3.590   0.660   4.964
 9371SOL    HW239993   3.597   0.788   5.043
 9372SOL     OW39994   0.266   2.079   2.877
 9372SOL    HW139995   0.203   2.116   2.816
 9372SOL    HW239996   0.317   2.154   2.907
 9373SOL     OW39997   2.254   3.501  17.320
 9373SOL    HW139998   2.214   3.574  17.368
 9373SOL    HW239999   2.327   3.473  17.375
 9374SOL     OW40000   2.584   2.428  17.974
 9374SOL    HW140001   2.667   2.440  17.929
 9374SOL    HW240002   2.519   2.425  17.903
 9375SOL     OW40003   0.582   1.117   1.966
 9375SOL    HW140004   0.639   1.119   2.042
 9375SOL    HW240005   0.515   1.183   1.984
 9376SOL     OW40006   2.677   2.616   4.881
 9376SOL    HW140007   2.655   2.703   4.916
 9376SOL    HW240008   2.765   2.626   4.846
 9377SOL     OW40009   4.636   1.369   0.945
 9377SOL    HW140010   4.659   1.457   0.974
 9377SOL    HW240011   4.712   1.340   0.894
 9378SOL     OW40012   1.521   2.072  20.245
 9378SOL    HW140013   1.496   1.998  20.300
 9378SOL    HW240014   1.452   2.079  20.179
 9379SOL     OW40015   3.912   2.768   4.761
 9379SOL    HW140016   3.972   2.712   4.810
 9379SOL    HW240017   3.843   2.791   4.824
 9380SOL     OW40018   1.523   4.714  16.606
 9380SOL    HW140019   1.515   4.632  16.655
 9380SOL    HW240020   1.561   4.776  16.669
 9381SOL     OW40021   2.497   3.337  17.885
 9381SOL    HW140022   2.458   3.422  17.864
 9381SOL    HW240023   2.591   3.355  17.888
 9382SOL     OW40024   0.959   3.036   8.378
 9382SOL    HW140025   0.930   2.948   8.401
 9382SOL    HW240026   1.028   3.023   8.313
 9383SOL     OW40027   3.403   1.993  18.941
 9383SOL    HW140028   3.428   1.921  18.999
 9383SOL    HW240029   3.312   2.011  18.962
 9384SOL     OW40030   0.867   1.833  19.313
 9384SOL    HW140031   0.791   1.777  19.330
 9384SOL    HW240032   0.841   1.919  19.345
 9385SOL     OW40033   1.452   0.386  19.622
 9385SOL    HW140034   1.445   0.319  19.690
 9385SOL    HW240035   1.535   0.368  19.579
 9386SOL     OW40036   3.607   0.771   2.355
 9386SOL    HW140037   3.572   0.684   2.376
 9386SOL    HW240038   3.671   0.755   2.286
 9387SOL     OW40039   2.349   3.285   2.018
 9387SOL    HW140040   2.260   3.267   2.048
 9387SOL    HW240041   2.386   3.199   1.998
 9388SOL     OW40042   1.108   4.624   2.833
 9388SOL    HW140043   1.032   4.603   2.888
 9388SOL    HW240044   1.179   4.637   2.895
 9389SOL     OW40045   0.928   3.440  11.530
 9389SOL    HW140046   0.992   3.504  11.498
 9389SOL    HW240047   0.867   3.429  11.457
 9390SOL     OW40048   0.796   0.736  16.615
 9390SOL    HW140049   0.879   0.714  16.658
 9390SOL    HW240050   0.823   0.778  16.533
 9391SOL     OW40051   0.198   0.067  10.222
 9391SOL    HW140052   0.156   4.787  10.270
 9391SOL    HW240053   0.186   0.144  10.277
 9392SOL     OW40054   3.751   3.258  20.529
 9392SOL    HW140055   3.732   3.225  20.617
 9392SOL    HW240056   3.685   3.326  20.515
 9393SOL     OW40057   2.344   3.568  16.446
 9393SOL    HW140058   2.436   3.557  16.474
 9393SOL    HW240059   2.306   3.481  16.455
 9394SOL     OW40060   3.220   2.250  19.913
 9394SOL    HW140061   3.312   2.268  19.896
 9394SOL    HW240062   3.179   2.337  19.914
 9395SOL     OW40063   1.074   2.036  16.564
 9395SOL    HW140064   1.109   1.949  16.582
 9395SOL    HW240065   0.992   2.020  16.516
 9396SOL     OW40066   2.329   4.374   5.536
 9396SOL    HW140067   2.402   4.373   5.598
 9396SOL    HW240068   2.263   4.317   5.576
 9397SOL     OW40069   0.876   0.780   0.148
 9397SOL    HW140070   0.812   0.810   0.212
 9397SOL    HW240071   0.825   0.730   0.084
 9398SOL     OW40072   3.598   0.555  17.357
 9398SOL    HW140073   3.558   0.597  17.280
 9398SOL    HW240074   3.682   0.523  17.326
 9399SOL     OW40075   3.597   3.636  11.903
 9399SOL    HW140076   3.564   3.594  11.824
 9399SOL    HW240077   3.614   3.726  11.878
 9400SOL     OW40078   1.530   0.975   2.969
 9400SOL    HW140079   1.611   0.924   2.979
 9400SOL    HW240080   1.557   1.065   2.985
 9401SOL     OW40081   3.779   4.312   3.193
 9401SOL    HW140082   3.790   4.226   3.233
 9401SOL    HW240083   3.685   4.320   3.178
 9402SOL     OW40084   0.121   0.603   0.600
 9402SOL    HW140085   0.087   0.552   0.673
 9402SOL    HW240086   0.132   0.691   0.636
 9403SOL     OW40087   2.340   2.787   7.839
 9403SOL    HW140088   2.290   2.756   7.915
 9403SOL    HW240089   2.280   2.845   7.793
 9404SOL     OW40090   3.391   1.112   2.029
 9404SOL    HW140091   3.450   1.043   1.998
 9404SOL    HW240092   3.326   1.121   1.959
 9405SOL     OW40093   0.731   1.538  16.192
 9405SOL    HW140094   0.817   1.497  16.190
 9405SOL    HW240095   0.701   1.537  16.101
 9406SOL     OW40096   1.293   3.446   0.762
 9406SOL    HW140097   1.249   3.364   0.739
 9406SOL    HW240098   1.221   3.506   0.782
 9407SOL     OW40099   0.597   3.895   3.401
 9407SOL    HW140100   0.564   3.827   3.460
 9407SOL    HW240101   0.543   3.886   3.322
 9408SOL     OW40102   3.948   2.670   3.298
 9408SOL    HW140103   3.865   2.650   3.254
 9408SOL    HW240104   3.988   2.739   3.244
 9409SOL     OW40105   1.249   2.775  15.706
 9409SOL    HW140106   1.296   2.717  15.646
 9409SOL    HW240107   1.181   2.720  15.744
 9410SOL     OW40108   2.170   0.827  20.731
 9410SOL    HW140109   2.202   0.739  20.754
 9410SOL    HW240110   2.192   0.837  20.639
 9411SOL     OW40111   3.310   4.040   5.305
 9411SOL    HW140112   3.279   4.017   5.217
 9411SOL    HW240113   3.401   4.011   5.307
 9412SOL     OW40114   1.972   3.189  17.993
 9412SOL    HW140115   2.049   3.246  17.994
 9412SOL    HW240116   1.934   3.199  18.080
 9413SOL     OW40117   4.732   2.108  15.779
 9413SOL    HW140118   4.753   2.180  15.719
 9413SOL    HW240119   0.015   2.048  15.772
 9414SOL     OW40120   3.735   1.488   5.280
 9414SOL    HW140121   3.710   1.504   5.189
 9414SOL    HW240122   3.688   1.555   5.330
 9415SOL     OW40123   1.668   0.401   9.181
 9415SOL    HW140124   1.706   0.363   9.261
 9415SOL    HW240125   1.661   0.327   9.121
 9416SOL     OW40126   1.312   0.914   1.102
 9416SOL    HW140127   1.362   0.846   1.148
 9416SOL    HW240128   1.243   0.939   1.164
 9417SOL     OW40129   2.333   2.457   6.171
 9417SOL    HW140130   2.291   2.510   6.104
 9417SOL    HW240131   2.306   2.496   6.254
 9418SOL     OW40132   2.618   1.460  16.432
 9418SOL    HW140133   2.699   1.473  16.481
 9418SOL    HW240134   2.598   1.546  16.395
 9419SOL     OW40135   3.145   3.274   6.064
 9419SOL    HW140136   3.096   3.196   6.042
 9419SOL    HW240137   3.099   3.311   6.140
 9420SOL     OW40138   3.131   1.259   1.590
 9420SOL    HW140139   3.163   1.346   1.569
 9420SOL    HW240140   3.080   1.233   1.513
 9421SOL     OW40141   1.638   3.503   5.880
 9421SOL    HW140142   1.726   3.466   5.873
 9421SOL    HW240143   1.614   3.491   5.972
 9422SOL     OW40144   0.948   3.602   0.361
 9422SOL    HW140145   0.862   3.641   0.371
 9422SOL    HW240146   0.992   3.620   0.444
 9423SOL     OW40147   0.347   0.372  13.596
 9423SOL    HW140148   0.280   0.305  13.583
 9423SOL    HW240149   0.429   0.326  13.576
 9424SOL     OW40150   3.667   4.218   3.803
 9424SOL    HW140151   3.706   4.276   3.738
 9424SOL    HW240152   3.730   4.146   3.813
 9425SOL     OW40153   4.072   3.316  15.164
 9425SOL    HW140154   4.066   3.409  15.143
 9425SOL    HW240155   4.166   3.298  15.164
 9426SOL     OW40156   4.553   0.739  20.511
 9426SOL    HW140157   4.592   0.824  20.489
 9426SOL    HW240158   4.627   0.678  20.508
 9427SOL     OW40159   1.801   2.753   0.322
 9427SOL    HW140160   1.816   2.769   0.229
 9427SOL    HW240161   1.870   2.802   0.366
 9428SOL     OW40162   4.538   0.712   4.675
 9428SOL    HW140163   4.596   0.642   4.645
 9428SOL    HW240164   4.467   0.714   4.611
 9429SOL     OW40165   3.843   3.842  20.800
 9429SOL    HW140166   3.899   3.919  20.814
 9429SOL    HW240167   3.904   3.773  20.773
 9430SOL     OW40168   1.844   0.907  19.693
 9430SOL    HW140169   1.802   0.840  19.638
 9430SOL    HW240170   1.802   0.898  19.778
 9431SOL     OW40171   2.478   0.386  16.837
 9431SOL    HW140172   2.516   0.459  16.887
 9431SOL    HW240173   2.387   0.413  16.822
 9432SOL     OW40174   3.639   2.531  18.861
 9432SOL    HW140175   3.707   2.515  18.926
 9432SOL    HW240176   3.662   2.473  18.788
 9433SOL     OW40177   0.576   3.142   5.553
 9433SOL    HW140178   0.488   3.168   5.528
 9433SOL    HW240179   0.570   3.049   5.570
 9434SOL     OW40180   1.878   2.266   2.054
 9434SOL    HW140181   1.859   2.214   1.976
 9434SOL    HW240182   1.857   2.209   2.127
 9435SOL     OW40183   3.363   1.011   0.855
 9435SOL    HW140184   3.416   1.035   0.779
 9435SOL    HW240185   3.282   0.976   0.818
 9436SOL     OW40186   3.497   0.759   3.555
 9436SOL    HW140187   3.509   0.664   3.555
 9436SOL    HW240188   3.537   0.788   3.473
 9437SOL     OW40189   3.532   2.201  19.611
 9437SOL    HW140190   3.440   2.203  19.587
 9437SOL    HW240191   3.532   2.216  19.706
 9438SOL     OW40192   0.127   1.677  18.393
 9438SOL    HW140193   0.178   1.610  18.440
 9438SOL    HW240194   0.041   1.676  18.435
 9439SOL     OW40195   0.430   2.230  19.956
 9439SOL    HW140196   0.424   2.271  20.042
 9439SOL    HW240197   0.486   2.154  19.970
 9440SOL     OW40198   4.227   0.106   3.613
 9440SOL    HW140199   4.148   0.119   3.561
 9440SOL    HW240200   4.204   0.136   3.701
 9441SOL     OW40201   0.249   0.902  14.226
 9441SOL    HW140202   0.241   0.844  14.301
 9441SOL    HW240203   0.265   0.843  14.152
 9442SOL     OW40204   1.188   3.267  20.130
 9442SOL    HW140205   1.130   3.280  20.054
 9442SOL    HW240206   1.242   3.346  20.132
 9443SOL     OW40207   4.054   0.380  11.835
 9443SOL    HW140208   4.024   0.414  11.751
 9443SOL    HW240209   4.150   0.376  11.827
 9444SOL     OW40210   1.402   4.052  17.883
 9444SOL    HW140211   1.356   4.078  17.963
 9444SOL    HW240212   1.452   4.130  17.858
 9445SOL     OW40213   4.555   3.865  19.018
 9445SOL    HW140214   4.564   3.836  18.928
 9445SOL    HW240215   4.461   3.882  19.029
 9446SOL     OW40216   0.342   2.369   1.959
 9446SOL    HW140217   0.387   2.295   1.999
 9446SOL    HW240218   0.315   2.338   1.873
 9447SOL     OW40219   2.198   3.819  13.600
 9447SOL    HW140220   2.200   3.876  13.677
 9447SOL    HW240221   2.106   3.797  13.588
 9448SOL     OW40222   3.917   2.643   5.981
 9448SOL    HW140223   3.910   2.738   5.976
 9448SOL    HW240224   3.863   2.611   5.909
 9449SOL     OW40225   3.781   4.278   4.705
 9449SOL    HW140226   3.691   4.309   4.698
 9449SOL    HW240227   3.796   4.272   4.800
 9450SOL     OW40228   3.694   4.483  19.379
 9450SOL    HW140229   3.649   4.427  19.441
 9450SOL    HW240230   3.674   4.572  19.407
 9451SOL     OW40231   0.655   0.231  20.200
 9451SOL    HW140232   0.743   0.236  20.162
 9451SOL    HW240233   0.671   0.211  20.293
 9452SOL     OW40234   2.611   4.551   3.397
 9452SOL    HW140235   2.675   4.551   3.326
 9452SOL    HW240236   2.559   4.472   3.382
 9453SOL     OW40237   1.238   1.714  18.576
 9453SOL    HW140238   1.193   1.670  18.648
 9453SOL    HW240239   1.203   1.804  18.578
 9454SOL     OW40240   0.570   4.278   0.870
 9454SOL    HW140241   0.658   4.240   0.868
 9454SOL    HW240242   0.517   4.217   0.819
 9455SOL     OW40243   1.902   0.268  16.976
 9455SOL    HW140244   1.883   0.198  17.039
 9455SOL    HW240245   1.941   0.223  16.901
 9456SOL     OW40246   4.034   3.237   1.518
 9456SOL    HW140247   3.949   3.239   1.562
 9456SOL    HW240248   4.015   3.265   1.429
 9457SOL     OW40249   3.499   3.314  15.258
 9457SOL    HW140250   3.518   3.406  15.276
 9457SOL    HW240251   3.410   3.315  15.223
 9458SOL     OW40252   0.331   3.590   2.921
 9458SOL    HW140253   0.353   3.520   2.983
 9458SOL    HW240254   0.263   3.552   2.865
 9459SOL     OW40255   0.327   3.425   0.090
 9459SOL    HW140256   0.295   3.500   0.140
 9459SOL    HW240257   0.415   3.408   0.125
 9460SOL     OW40258   3.579   1.472   1.726
 9460SOL    HW140259   3.519   1.531   1.772
 9460SOL    HW240260   3.650   1.457   1.788
 9461SOL     OW40261   1.484   0.156  18.930
 9461SOL    HW140262   1.411   0.150  18.868
 9461SOL    HW240263   1.519   0.067  18.935
 9462SOL     OW40264   0.219   2.099   6.079
 9462SOL    HW140265   0.306   2.064   6.099
 9462SOL    HW240266   0.236   2.169   6.016
 9463SOL     OW40267   0.574   1.977   0.271
 9463SOL    HW140268   0.660   1.941   0.291
 9463SOL    HW240269   0.584   2.072   0.283
 9464SOL     OW40270   1.185   0.791  20.908
 9464SOL    HW140271   1.181   0.844  20.828
 9464SOL    HW240272   1.168   0.854  20.979
 9465SOL     OW40273   1.314   0.091  21.182
 9465SOL    HW140274   1.371   0.082  21.258
 9465SOL    HW240275   1.373   0.089  21.107
 9466SOL     OW40276   2.550   2.103  12.904
 9466SOL    HW140277   2.490   2.158  12.955
 9466SOL    HW240278   2.494   2.033  12.870
 9467SOL     OW40279   4.113   3.907  19.341
 9467SOL    HW140280   4.129   3.833  19.283
 9467SOL    HW240281   4.200   3.934  19.372
 9468SOL     OW40282   3.764   2.472   3.172
 9468SOL    HW140283   3.675   2.481   3.206
 9468SOL    HW240284   3.754   2.414   3.096
 9469SOL     OW40285   3.391   0.478  20.135
 9469SOL    HW140286   3.371   0.475  20.042
 9469SOL    HW240287   3.331   0.543  20.171
 9470SOL     OW40288   3.854   2.138   4.462
 9470SOL    HW140289   3.880   2.060   4.413
 9470SOL    HW240290   3.777   2.110   4.513
 9471SOL     OW40291   0.711   3.315   3.692
 9471SOL    HW140292   0.770   3.260   3.640
 9471SOL    HW240293   0.768   3.383   3.728
 9472SOL     OW40294   2.280   4.481  14.293
 9472SOL    HW140295   2.208   4.540  14.314
 9472SOL    HW240296   2.310   4.509  14.206
 9473SOL     OW40297   0.648   4.773   0.771
 9473SOL    HW140298   0.689   0.038   0.704
 9473SOL    HW240299   0.586   0.040   0.815
 9474SOL     OW40300   0.017   0.119   2.324
 9474SOL    HW140301   0.095   0.165   2.356
 9474SOL    HW240302   4.771   0.079   2.403
 9475SOL     OW40303   3.113   4.226  20.876
 9475SOL    HW140304   3.135   4.134  20.888
 9475SOL    HW240305   3.194   4.273  20.895
 9476SOL     OW40306   3.676   2.482   1.370
 9476SOL    HW140307   3.745   2.424   1.337
 9476SOL    HW240308   3.701   2.500   1.460
 9477SOL     OW40309   2.514   0.367  15.176
 9477SOL    HW140310   2.551   0.384  15.090
 9477SOL    HW240311   2.572   0.302  15.215
 9478SOL     OW40312   3.592   4.770  19.918
 9478SOL    HW140313   3.633   0.013  19.838
 9478SOL    HW240314   3.593   0.053  19.979
 9479SOL     OW40315   3.504   2.747  20.834
 9479SOL    HW140316   3.578   2.693  20.860
 9479SOL    HW240317   3.529   2.784  20.750
 9480SOL     OW40318   3.585   4.761  16.765
 9480SOL    HW140319   3.594   4.671  16.733
 9480SOL    HW240320   3.526   4.754  16.839
 9481SOL     OW40321   4.780   0.066  17.290
 9481SOL    HW140322   4.688   0.039  17.285
 9481SOL    HW240323   4.784   0.123  17.367
 9482SOL     OW40324   0.710   3.283  17.671
 9482SOL    HW140325   0.716   3.378  17.665
 9482SOL    HW240326   0.713   3.252  17.581
 9483SOL     OW40327   1.074   0.188  20.234
 9483SOL    HW140328   1.106   0.220  20.318
 9483SOL    HW240329   1.036   0.103  20.253
 9484SOL     OW40330   1.530   3.291  15.918
 9484SOL    HW140331   1.551   3.381  15.892
 9484SOL    HW240332   1.435   3.293  15.933
 9485SOL     OW40333   4.386   1.372   4.606
 9485SOL    HW140334   4.466   1.369   4.658
 9485SOL    HW240335   4.320   1.332   4.661
 9486SOL     OW40336   3.494   3.842  21.021
 9486SOL    HW140337   3.456   3.755  21.035
 9486SOL    HW240338   3.585   3.833  21.048
 9487SOL     OW40339   0.583   2.925  17.439
 9487SOL    HW140340   0.674   2.900  17.452
 9487SOL    HW240341   0.539   2.896  17.518
 9488SOL     OW40342   4.594   0.360  17.005
 9488SOL    HW140343   4.569   0.396  16.920
 9488SOL    HW240344   4.622   0.271  16.986
 9489SOL     OW40345   2.499   0.980  20.439
 9489SOL    HW140346   2.517   0.956  20.348
 9489SOL    HW240347   2.492   0.897  20.485
 9490SOL     OW40348   2.151   2.927   4.604
 9490SOL    HW140349   2.117   2.960   4.687
 9490SOL    HW240350   2.172   2.835   4.621
 9491SOL     OW40351   1.686   4.374  18.074
 9491SOL    HW140352   1.669   4.334  17.988
 9491SOL    HW240353   1.771   4.417  18.064
 9492SOL     OW40354   3.372   3.627  16.480
 9492SOL    HW140355   3.366   3.689  16.408
 9492SOL    HW240356   3.283   3.594  16.490
 9493SOL     OW40357   3.308   3.840  13.184
 9493SOL    HW140358   3.258   3.847  13.266
 9493SOL    HW240359   3.394   3.875  13.206
 9494SOL     OW40360   3.140   4.153  12.656
 9494SOL    HW140361   3.216   4.169  12.711
 9494SOL    HW240362   3.089   4.088  12.705
 9495SOL     OW40363   3.734   4.740   0.765
 9495SOL    HW140364   3.724   4.668   0.703
 9495SOL    HW240365   3.708   0.027   0.715
 9496SOL     OW40366   0.151   3.687   1.502
 9496SOL    HW140367   0.233   3.730   1.526
 9496SOL    HW240368   0.123   3.643   1.583
 9497SOL     OW40369   3.258   0.314  16.896
 9497SOL    HW140370   3.305   0.393  16.923
 9497SOL    HW240371   3.210   0.341  16.818
 9498SOL     OW40372   2.231   4.214  14.036
 9498SOL    HW140373   2.314   4.237  14.080
 9498SOL    HW240374   2.164   4.233  14.101
 9499SOL     OW40375   2.593   3.683  13.312
 9499SOL    HW140376   2.501   3.658  13.313
 9499SOL    HW240377   2.598   3.753  13.246
 9500SOL     OW40378   2.057   4.099   3.877
 9500SOL    HW140379   1.972   4.061   3.898
 9500SOL    HW240380   2.089   4.134   3.961
 9501SOL     OW40381   1.133   0.243  19.259
 9501SOL    HW140382   1.219   0.207  19.240
 9501SOL    HW240383   1.138   0.334  19.230
 9502SOL     OW40384   2.031   1.449  17.030
 9502SOL    HW140385   2.067   1.365  17.005
 9502SOL    HW240386   2.092   1.514  16.994
 9503SOL     OW40387   3.136   1.232  14.620
 9503SOL    HW140388   3.165   1.147  14.652
 9503SOL    HW240389   3.203   1.257  14.556
 9504SOL     OW40390   1.160   4.638  16.479
 9504SOL    HW140391   1.202   4.558  16.447
 9504SOL    HW240392   1.191   4.647  16.570
 9505SOL     OW40393   3.026   1.672   4.764
 9505SOL    HW140394   2.980   1.607   4.712
 9505SOL    HW240395   3.093   1.708   4.706
 9506SOL     OW40396   1.191   2.347   3.567
 9506SOL    HW140397   1.281   2.358   3.538
 9506SOL    HW240398   1.177   2.415   3.632
 9507SOL     OW40399   1.964   0.959   1.886
 9507SOL    HW140400   2.009   1.036   1.852
 9507SOL    HW240401   1.992   0.953   1.977
 9508SOL     OW40402   4.352   0.900  15.305
 9508SOL    HW140403   4.274   0.936  15.347
 9508SOL    HW240404   4.319   0.826  15.252
 9509SOL     OW40405   0.987   2.843   3.601
 9509SOL    HW140406   0.900   2.863   3.636
 9509SOL    HW240407   0.982   2.749   3.580
 9510SOL     OW40408   1.064   2.261  18.422
 9510SOL    HW140409   1.069   2.351  18.454
 9510SOL    HW240410   0.972   2.248  18.401
 9511SOL     OW40411   0.822   2.525   1.479
 9511SOL    HW140412   0.848   2.442   1.518
 9511SOL    HW240413   0.880   2.590   1.520
 9512SOL     OW40414   1.420   4.486  19.709
 9512SOL    HW140415   1.419   4.391  19.698
 9512SOL    HW240416   1.374   4.520  19.632
 9513SOL     OW40417   1.925   2.752  17.898
 9513SOL    HW140418   1.909   2.671  17.947
 9513SOL    HW240419   1.887   2.735  17.812
 9514SOL     OW40420   2.274   2.972   7.520
 9514SOL    HW140421   2.306   3.025   7.448
 9514SOL    HW240422   2.328   2.893   7.518
 9515SOL     OW40423   3.651   2.082  18.210
 9515SOL    HW140424   3.746   2.078  18.219
 9515SOL    HW240425   3.637   2.122  18.124
 9516SOL     OW40426   1.391   4.304  19.306
 9516SOL    HW140427   1.428   4.392  19.298
 9516SOL    HW240428   1.423   4.257  19.229
 9517SOL     OW40429   3.987   4.248  21.043
 9517SOL    HW140430   3.980   4.189  20.968
 9517SOL    HW240431   4.001   4.334  21.004
 9518SOL     OW40432   0.591   2.123  14.297
 9518SOL    HW140433   0.512   2.167  14.328
 9518SOL    HW240434   0.634   2.091  14.376
 9519SOL     OW40435   0.076   3.983   5.798
 9519SOL    HW140436   0.165   4.014   5.785
 9519SOL    HW240437   0.022   4.046   5.750
 9520SOL     OW40438   2.749   2.414  12.975
 9520SOL    HW140439   2.831   2.451  13.007
 9520SOL    HW240440   2.762   2.319  12.981
 9521SOL     OW40441   3.702   1.054   0.073
 9521SOL    HW140442   3.703   0.963   0.045
 9521SOL    HW240443   3.688   1.050   0.168
 9522SOL     OW40444   3.087   4.026   3.739
 9522SOL    HW140445   3.053   3.999   3.654
 9522SOL    HW240446   3.162   4.081   3.718
 9523SOL     OW40447   4.154   1.296  18.047
 9523SOL    HW140448   4.173   1.237  17.974
 9523SOL    HW240449   4.079   1.348  18.017
 9524SOL     OW40450   1.588   4.454   6.005
 9524SOL    HW140451   1.552   4.457   5.917
 9524SOL    HW240452   1.514   4.473   6.062
 9525SOL     OW40453   2.860   3.533   5.008
 9525SOL    HW140454   2.897   3.610   5.051
 9525SOL    HW240455   2.825   3.480   5.079
 9526SOL     OW40456   1.433   2.730   5.373
 9526SOL    HW140457   1.485   2.752   5.295
 9526SOL    HW240458   1.401   2.815   5.404
 9527SOL     OW40459   2.181   3.004   3.490
 9527SOL    HW140460   2.194   2.909   3.494
 9527SOL    HW240461   2.208   3.028   3.402
 9528SOL     OW40462   4.320   4.158   3.143
 9528SOL    HW140463   4.271   4.162   3.226
 9528SOL    HW240464   4.264   4.204   3.080
 9529SOL     OW40465   4.653   0.806   5.907
 9529SOL    HW140466   4.607   0.812   5.991
 9529SOL    HW240467   4.583   0.792   5.843
 9530SOL     OW40468   4.406   3.857  20.476
 9530SOL    HW140469   4.481   3.872  20.534
 9530SOL    HW240470   4.433   3.893  20.392
 9531SOL     OW40471   1.263   0.393   0.918
 9531SOL    HW140472   1.250   0.446   0.996
 9531SOL    HW240473   1.359   0.389   0.908
 9532SOL     OW40474   4.017   4.551   5.213
 9532SOL    HW140475   4.032   4.470   5.166
 9532SOL    HW240476   3.956   4.600   5.158
 9533SOL     OW40477   3.010   2.418  18.176
 9533SOL    HW140478   2.948   2.479  18.215
 9533SOL    HW240479   3.074   2.401  18.246
 9534SOL     OW40480   2.098   1.391   1.167
 9534SOL    HW140481   2.014   1.417   1.129
 9534SOL    HW240482   2.094   1.422   1.258
 9535SOL     OW40483   2.403   2.617   8.414
 9535SOL    HW140484   2.434   2.680   8.349
 9535SOL    HW240485   2.393   2.536   8.365
 9536SOL     OW40486   3.657   0.445   2.707
 9536SOL    HW140487   3.588   0.428   2.643
 9536SOL    HW240488   3.722   0.375   2.692
 9537SOL     OW40489   1.503   4.643   2.923
 9537SOL    HW140490   1.557   4.565   2.913
 9537SOL    HW240491   1.417   4.610   2.950
 9538SOL     OW40492   4.145   2.893  18.888
 9538SOL    HW140493   4.223   2.855  18.846
 9538SOL    HW240494   4.072   2.847  18.847
 9539SOL     OW40495   2.055   4.065   1.570
 9539SOL    HW140496   2.030   4.151   1.535
 9539SOL    HW240497   2.149   4.060   1.556
 9540SOL     OW40498   4.449   0.446  19.053
 9540SOL    HW140499   4.513   0.517  19.058
 9540SOL    HW240500   4.463   0.395  19.132
 9541SOL     OW40501   1.340   1.000  17.042
 9541SOL    HW140502   1.305   0.922  17.084
 9541SOL    HW240503   1.317   0.990  16.950
 9542SOL     OW40504   2.560   2.218  17.641
 9542SOL    HW140505   2.546   2.151  17.707
 9542SOL    HW240506   2.472   2.247  17.617
 9543SOL     OW40507   2.930   2.368   2.709
 9543SOL    HW140508   2.953   2.299   2.772
 9543SOL    HW240509   2.946   2.329   2.623
 9544SOL     OW40510   4.095   3.477  18.348
 9544SOL    HW140511   4.159   3.429  18.296
 9544SOL    HW240512   4.017   3.422  18.348
 9545SOL     OW40513   4.168   3.206  17.762
 9545SOL    HW140514   4.239   3.200  17.698
 9545SOL    HW240515   4.170   3.123  17.810
 9546SOL     OW40516   1.927   3.721  20.910
 9546SOL    HW140517   1.895   3.654  20.849
 9546SOL    HW240518   1.951   3.672  20.988
 9547SOL     OW40519   3.503   0.207  20.336
 9547SOL    HW140520   3.565   0.140  20.306
 9547SOL    HW240521   3.424   0.159  20.360
 9548SOL     OW40522   3.885   3.690   4.338
 9548SOL    HW140523   3.924   3.766   4.382
 9548SOL    HW240524   3.948   3.619   4.352
 9549SOL     OW40525   4.041   0.647   8.394
 9549SOL    HW140526   4.119   0.608   8.355
 9549SOL    HW240527   3.976   0.578   8.390
 9550SOL     OW40528   2.575   4.212  17.701
 9550SOL    HW140529   2.551   4.305  17.700
 9550SOL    HW240530   2.491   4.166  17.696
 9551SOL     OW40531   3.211   3.507  15.418
 9551SOL    HW140532   3.280   3.502  15.484
 9551SOL    HW240533   3.152   3.575  15.451
 9552SOL     OW40534   2.455   4.217  15.834
 9552SOL    HW140535   2.519   4.286  15.813
 9552SOL    HW240536   2.482   4.183  15.919
 9553SOL     OW40537   2.311   0.891   5.021
 9553SOL    HW140538   2.233   0.836   5.009
 9553SOL    HW240539   2.362   0.878   4.941
 9554SOL     OW40540   2.243   1.545  19.520
 9554SOL    HW140541   2.303   1.520  19.591
 9554SOL    HW240542   2.159   1.509  19.547
 9555SOL     OW40543   1.847   4.021   0.241
 9555SOL    HW140544   1.940   4.036   0.225
 9555SOL    HW240545   1.827   3.941   0.192
 9556SOL     OW40546   2.961   0.170  20.651
 9556SOL    HW140547   2.900   0.121  20.597
 9556SOL    HW240548   2.994   0.105  20.714
 9557SOL     OW40549   3.304   1.106  16.833
 9557SOL    HW140550   3.369   1.175  16.845
 9557SOL    HW240551   3.276   1.115  16.741
 9558SOL     OW40552   1.023   1.267   3.750
 9558SOL    HW140553   0.939   1.274   3.705
 9558SOL    HW240554   1.024   1.179   3.787
 9559SOL     OW40555   1.644   3.617  21.018
 9559SOL    HW140556   1.629   3.553  20.949
 9559SOL    HW240557   1.584   3.592  21.088
 9560SOL     OW40558   4.463   4.290  14.598
 9560SOL    HW140559   4.383   4.302  14.649
 9560SOL    HW240560   4.439   4.316  14.509
 9561SOL     OW40561   0.439   1.434  16.792
 9561SOL    HW140562   0.413   1.414  16.882
 9561SOL    HW240563   0.481   1.520  16.798
 9562SOL     OW40564   4.048   0.228  17.362
 9562SOL    HW140565   4.058   0.313  17.403
 9562SOL    HW240566   4.060   0.165  17.433
 9563SOL     OW40567   4.208   0.139   2.617
 9563SOL    HW140568   4.295   0.156   2.582
 9563SOL    HW240569   4.170   0.074   2.558
 9564SOL     OW40570   2.841   4.681   4.614
 9564SOL    HW140571   2.810   4.679   4.523
 9564SOL    HW240572   2.815   4.597   4.651
 9565SOL     OW40573   3.269   2.326  20.393
 9565SOL    HW140574   3.309   2.344  20.308
 9565SOL    HW240575   3.338   2.283  20.444
 9566SOL     OW40576   2.968   4.296   4.492
 9566SOL    HW140577   2.935   4.341   4.570
 9566SOL    HW240578   2.892   4.251   4.457
 9567SOL     OW40579   2.776   4.112  14.607
 9567SOL    HW140580   2.739   4.081  14.689
 9567SOL    HW240581   2.867   4.132  14.628
 9568SOL     OW40582   3.466   2.819   1.277
 9568SOL    HW140583   3.534   2.787   1.337
 9568SOL    HW240584   3.449   2.746   1.218
 9569SOL     OW40585   4.619   3.668  20.730
 9569SOL    HW140586   4.556   3.620  20.677
 9569SOL    HW240587   4.703   3.655  20.686
 9570SOL     OW40588   4.719   0.167  16.549
 9570SOL    HW140589   4.784   0.213  16.602
 9570SOL    HW240590   4.769   0.130  16.475
 9571SOL     OW40591   2.479   1.693   2.340
 9571SOL    HW140592   2.432   1.730   2.264
 9571SOL    HW240593   2.544   1.635   2.301
 9572SOL     OW40594   1.244   0.686   3.167
 9572SOL    HW140595   1.278   0.598   3.181
 9572SOL    HW240596   1.175   0.675   3.102
 9573SOL     OW40597   1.453   4.391   0.481
 9573SOL    HW140598   1.363   4.404   0.512
 9573SOL    HW240599   1.444   4.362   0.390
 9574SOL     OW40600   1.784   3.392   0.552
 9574SOL    HW140601   1.701   3.434   0.574
 9574SOL    HW240602   1.764   3.298   0.551
 9575SOL     OW40603   1.505   1.827   7.136
 9575SOL    HW140604   1.469   1.899   7.188
 9575SOL    HW240605   1.476   1.846   7.046
 9576SOL     OW40606   0.557   0.279   0.542
 9576SOL    HW140607   0.487   0.288   0.607
 9576SOL    HW240608   0.625   0.340   0.572
 9577SOL     OW40609   4.699   2.421  17.800
 9577SOL    HW140610   4.644   2.497  17.819
 9577SOL    HW240611   4.681   2.360  17.871
 9578SOL     OW40612   0.256   0.505   2.189
 9578SOL    HW140613   0.278   0.480   2.100
 9578SOL    HW240614   0.194   0.578   2.179
 9579SOL     OW40615   2.552   4.135  18.407
 9579SOL    HW140616   2.648   4.132  18.417
 9579SOL    HW240617   2.534   4.081  18.331
 9580SOL     OW40618   0.232   3.466   1.071
 9580SOL    HW140619   0.220   3.413   0.993
 9580SOL    HW240620   0.201   3.554   1.047
 9581SOL     OW40621   1.527   2.754   6.405
 9581SOL    HW140622   1.593   2.773   6.338
 9581SOL    HW240623   1.452   2.719   6.356
 9582SOL     OW40624   3.835   4.258   4.983
 9582SOL    HW140625   3.839   4.164   4.968
 9582SOL    HW240626   3.860   4.269   5.075
 9583SOL     OW40627   0.541   1.553   5.182
 9583SOL    HW140628   0.608   1.502   5.136
 9583SOL    HW240629   0.462   1.541   5.130
 9584SOL     OW40630   0.954   4.097   1.459
 9584SOL    HW140631   0.947   4.007   1.490
 9584SOL    HW240632   0.949   4.150   1.538
 9585SOL     OW40633   0.869   1.295  17.246
 9585SOL    HW140634   0.781   1.258  17.242
 9585SOL    HW240635   0.876   1.331  17.335
 9586SOL     OW40636   1.694   0.237  16.196
 9586SOL    HW140637   1.733   0.257  16.281
 9586SOL    HW240638   1.611   0.194  16.218
 9587SOL     OW40639   4.747   3.209   1.893
 9587SOL    HW140640   4.654   3.207   1.916
 9587SOL    HW240641   4.748   3.232   1.800
 9588SOL     OW40642   4.739   3.758  13.077
 9588SOL    HW140643   4.774   3.669  13.073
 9588SOL    HW240644   4.673   3.762  13.009
 9589SOL     OW40645   1.764   4.045   6.551
 9589SOL    HW140646   1.852   4.007   6.540
 9589SOL    HW240647   1.780   4.136   6.573
 9590SOL     OW40648   2.104   3.702  17.429
 9590SOL    HW140649   2.051   3.733  17.502
 9590SOL    HW240650   2.116   3.780  17.374
 9591SOL     OW40651   2.425   3.682  13.715
 9591SOL    HW140652   2.353   3.720  13.664
 9591SOL    HW240653   2.442   3.745  13.784
 9592SOL     OW40654   1.349   0.053   4.073
 9592SOL    HW140655   1.305   0.094   3.998
 9592SOL    HW240656   1.290   4.773   4.099
 9593SOL     OW40657   3.258   4.195  18.870
 9593SOL    HW140658   3.178   4.191  18.819
 9593SOL    HW240659   3.251   4.276  18.921
 9594SOL     OW40660   2.161   4.232   1.904
 9594SOL    HW140661   2.078   4.249   1.947
 9594SOL    HW240662   2.142   4.237   1.811
 9595SOL     OW40663   1.846   4.526  15.973
 9595SOL    HW140664   1.845   4.615  16.009
 9595SOL    HW240665   1.788   4.530  15.897
 9596SOL     OW40666   2.973   2.196  18.014
 9596SOL    HW140667   2.994   2.275  18.064
 9596SOL    HW240668   2.948   2.228  17.928
 9597SOL     OW40669   0.349   4.385   1.559
 9597SOL    HW140670   0.392   4.470   1.554
 9597SOL    HW240671   0.403   4.335   1.621
 9598SOL     OW40672   3.343   2.471   3.150
 9598SOL    HW140673   3.287   2.534   3.195
 9598SOL    HW240674   3.416   2.455   3.210
 9599SOL     OW40675   4.020   4.066   3.581
 9599SOL    HW140676   4.035   3.972   3.589
 9599SOL    HW240677   4.026   4.099   3.671
 9600SOL     OW40678   1.596   0.095   2.044
 9600SOL    HW140679   1.661   0.136   2.101
 9600SOL    HW240680   1.571   0.164   1.983
 9601SOL     OW40681   3.517   1.383   3.853
 9601SOL    HW140682   3.578   1.343   3.915
 9601SOL    HW240683   3.493   1.311   3.794
 9602SOL     OW40684   1.229   3.542   1.113
 9602SOL    HW140685   1.281   3.621   1.099
 9602SOL    HW240686   1.138   3.572   1.108
 9603SOL     OW40687   1.776   4.015   6.038
 9603SOL    HW140688   1.805   4.102   6.012
 9603SOL    HW240689   1.730   4.028   6.121
 9604SOL     OW40690   2.696   2.357   6.981
 9604SOL    HW140691   2.711   2.381   7.073
 9604SOL    HW240692   2.601   2.364   6.970
 9605SOL     OW40693   3.779   4.338  20.778
 9605SOL    HW140694   3.690   4.311  20.797
 9605SOL    HW240695   3.798   4.301  20.692
 9606SOL     OW40696   2.895   4.551   0.415
 9606SOL    HW140697   2.908   4.536   0.509
 9606SOL    HW240698   2.801   4.563   0.406
 9607SOL     OW40699   0.197   2.469  16.855
 9607SOL    HW140700   0.219   2.450  16.763
 9607SOL    HW240701   0.125   2.532  16.849
 9608SOL     OW40702   4.258   1.226  19.208
 9608SOL    HW140703   4.204   1.151  19.184
 9608SOL    HW240704   4.343   1.208  19.168
 9609SOL     OW40705   1.977   2.973  16.242
 9609SOL    HW140706   1.910   2.914  16.276
 9609SOL    HW240707   1.930   3.055  16.223
 9610SOL     OW40708   2.440   0.507   3.184
 9610SOL    HW140709   2.348   0.514   3.209
 9610SOL    HW240710   2.488   0.533   3.263
 9611SOL     OW40711   0.726   1.151  19.916
 9611SOL    HW140712   0.687   1.192  19.992
 9611SOL    HW240713   0.771   1.222  19.870
 9612SOL     OW40714   3.382   0.792   2.541
 9612SOL    HW140715   3.447   0.863   2.538
 9612SOL    HW240716   3.410   0.732   2.471
 9613SOL     OW40717   0.018   1.087   1.696
 9613SOL    HW140718   0.047   1.040   1.617
 9613SOL    HW240719   4.723   1.122   1.672
 9614SOL     OW40720   1.392   0.653   0.606
 9614SOL    HW140721   1.404   0.678   0.698
 9614SOL    HW240722   1.338   0.574   0.610
 9615SOL     OW40723   0.936   3.631   4.686
 9615SOL    HW140724   0.976   3.652   4.770
 9615SOL    HW240725   1.002   3.582   4.639
 9616SOL     OW40726   3.630   0.625  18.454
 9616SOL    HW140727   3.710   0.657  18.496
 9616SOL    HW240728   3.586   0.574  18.522
 9617SOL     OW40729   3.986   2.135  15.743
 9617SOL    HW140730   4.006   2.219  15.785
 9617SOL    HW240731   3.999   2.070  15.812
 9618SOL     OW40732   1.807   1.689   4.057
 9618SOL    HW140733   1.769   1.725   3.977
 9618SOL    HW240734   1.764   1.737   4.127
 9619SOL     OW40735   1.000   4.565   1.637
 9619SOL    HW140736   0.930   4.630   1.632
 9619SOL    HW240737   0.961   4.485   1.602
 9620SOL     OW40738   3.811   0.382   4.789
 9620SOL    HW140739   3.787   0.427   4.709
 9620SOL    HW240740   3.729   0.347   4.824
 9621SOL     OW40741   3.361   4.779  18.293
 9621SOL    HW140742   3.339   0.041  18.370
 9621SOL    HW240743   3.357   0.049  18.220
 9622SOL     OW40744   0.532   2.075   4.422
 9622SOL    HW140745   0.533   2.153   4.367
 9622SOL    HW240746   0.460   2.022   4.387
 9623SOL     OW40747   0.755   0.066  20.428
 9623SOL    HW140748   0.807   0.059  20.508
 9623SOL    HW240749   0.669   0.096  20.457
 9624SOL     OW40750   3.453   4.527   2.771
 9624SOL    HW140751   3.383   4.593   2.767
 9624SOL    HW240752   3.527   4.568   2.727
 9625SOL     OW40753   2.616   2.714   3.017
 9625SOL    HW140754   2.533   2.741   2.980
 9625SOL    HW240755   2.655   2.659   2.949
 9626SOL     OW40756   3.715   0.475   2.271
 9626SOL    HW140757   3.791   0.497   2.325
 9626SOL    HW240758   3.723   0.531   2.194
 9627SOL     OW40759   0.464   1.046  21.069
 9627SOL    HW140760   0.499   1.032  21.157
 9627SOL    HW240761   0.374   1.076  21.083
 9628SOL     OW40762   2.241   4.667   4.123
 9628SOL    HW140763   2.328   4.640   4.151
 9628SOL    HW240764   2.211   4.596   4.066
 9629SOL     OW40765   0.835   2.194   2.462
 9629SOL    HW140766   0.860   2.153   2.545
 9629SOL    HW240767   0.826   2.287   2.482
 9630SOL     OW40768   3.859   3.876  11.760
 9630SOL    HW140769   3.904   3.862  11.843
 9630SOL    HW240770   3.830   3.968  11.763
 9631SOL     OW40771   1.440   2.783  19.771
 9631SOL    HW140772   1.493   2.862  19.757
 9631SOL    HW240773   1.487   2.714  19.724
 9632SOL     OW40774   3.066   0.640  14.096
 9632SOL    HW140775   3.139   0.657  14.156
 9632SOL    HW240776   3.020   0.566  14.136
 9633SOL     OW40777   2.779   1.150   3.217
 9633SOL    HW140778   2.732   1.180   3.294
 9633SOL    HW240779   2.855   1.208   3.210
 9634SOL     OW40780   4.083   2.776   8.067
 9634SOL    HW140781   4.019   2.708   8.047
 9634SOL    HW240782   4.034   2.842   8.115
 9635SOL     OW40783   4.317   2.477   3.057
 9635SOL    HW140784   4.240   2.440   3.101
 9635SOL    HW240785   4.309   2.449   2.966
 9636SOL     OW40786   4.368   4.691  19.219
 9636SOL    HW140787   4.305   4.757  19.189
 9636SOL    HW240788   4.321   4.608  19.212
 9637SOL     OW40789   1.222   2.750   3.348
 9637SOL    HW140790   1.188   2.808   3.280
 9637SOL    HW240791   1.165   2.673   3.345
 9638SOL     OW40792   2.032   1.230  18.984
 9638SOL    HW140793   2.054   1.137  18.986
 9638SOL    HW240794   1.976   1.240  18.907
 9639SOL     OW40795   2.536   3.084  19.102
 9639SOL    HW140796   2.551   3.129  19.185
 9639SOL    HW240797   2.481   3.144  19.052
 9640SOL     OW40798   3.107   4.384  19.362
 9640SOL    HW140799   3.108   4.288  19.367
 9640SOL    HW240800   3.181   4.411  19.416
 9641SOL     OW40801   2.023   3.617   0.190
 9641SOL    HW140802   2.014   3.649   0.280
 9641SOL    HW240803   2.039   3.523   0.200
 9642SOL     OW40804   2.631   3.430   3.762
 9642SOL    HW140805   2.553   3.482   3.778
 9642SOL    HW240806   2.671   3.418   3.848
 9643SOL     OW40807   2.680   3.409   0.377
 9643SOL    HW140808   2.591   3.424   0.346
 9643SOL    HW240809   2.701   3.487   0.429
 9644SOL     OW40810   0.138   1.428  18.815
 9644SOL    HW140811   0.147   1.523  18.807
 9644SOL    HW240812   0.157   1.410  18.907
 9645SOL     OW40813   1.152   3.646   5.436
 9645SOL    HW140814   1.209   3.570   5.445
 9645SOL    HW240815   1.112   3.636   5.349
 9646SOL     OW40816   2.565   1.529  17.156
 9646SOL    HW140817   2.554   1.589  17.230
 9646SOL    HW240818   2.489   1.470  17.162
 9647SOL     OW40819   4.332   2.710  17.673
 9647SOL    HW140820   4.385   2.779  17.712
 9647SOL    HW240821   4.332   2.639  17.738
 9648SOL     OW40822   2.711   4.032   4.073
 9648SOL    HW140823   2.705   4.103   4.136
 9648SOL    HW240824   2.782   4.059   4.014
 9649SOL     OW40825   1.218   1.625  17.883
 9649SOL    HW140826   1.262   1.710  17.889
 9649SOL    HW240827   1.167   1.630  17.802
 9650SOL     OW40828   1.339   1.566   6.038
 9650SOL    HW140829   1.314   1.632   6.104
 9650SOL    HW240830   1.270   1.499   6.044
 9651SOL     OW40831   0.391   1.888  18.901
 9651SOL    HW140832   0.392   1.967  18.846
 9651SOL    HW240833   0.305   1.849  18.886
 9652SOL     OW40834   0.217   2.292   3.858
 9652SOL    HW140835   0.252   2.204   3.873
 9652SOL    HW240836   0.266   2.325   3.783
 9653SOL     OW40837   0.611   2.910  20.595
 9653SOL    HW140838   0.555   2.877  20.665
 9653SOL    HW240839   0.700   2.904  20.631
 9654SOL     OW40840   3.315   2.482  19.269
 9654SOL    HW140841   3.404   2.448  19.276
 9654SOL    HW240842   3.297   2.521  19.354
 9655SOL     OW40843   0.171   0.228   3.396
 9655SOL    HW140844   0.239   0.202   3.335
 9655SOL    HW240845   0.095   0.174   3.372
 9656SOL     OW40846   0.288   4.285   3.133
 9656SOL    HW140847   0.281   4.368   3.086
 9656SOL    HW240848   0.228   4.295   3.208
 9657SOL     OW40849   1.885   1.900  14.171
 9657SOL    HW140850   1.942   1.876  14.245
 9657SOL    HW240851   1.822   1.961  14.209
 9658SOL     OW40852   0.409   2.880  19.923
 9658SOL    HW140853   0.449   2.850  19.841
 9658SOL    HW240854   0.404   2.975  19.914
 9659SOL     OW40855   3.528   1.718   1.256
 9659SOL    HW140856   3.545   1.695   1.348
 9659SOL    HW240857   3.481   1.642   1.221
 9660SOL     OW40858   0.576   4.609   5.568
 9660SOL    HW140859   0.619   4.531   5.532
 9660SOL    HW240860   0.496   4.618   5.517
 9661SOL     OW40861   3.898   0.384  21.183
 9661SOL    HW140862   3.974   0.437  21.206
 9661SOL    HW240863   3.932   0.320  21.120
 9662SOL     OW40864   0.359   2.733  19.102
 9662SOL    HW140865   0.393   2.728  19.012
 9662SOL    HW240866   0.400   2.659  19.147
 9663SOL     OW40867   1.672   4.088   1.840
 9663SOL    HW140868   1.726   4.059   1.913
 9663SOL    HW240869   1.681   4.183   1.839
 9664SOL     OW40870   4.366   3.633   3.133
 9664SOL    HW140871   4.402   3.593   3.054
 9664SOL    HW240872   4.347   3.723   3.107
 9665SOL     OW40873   2.866   2.952  14.930
 9665SOL    HW140874   2.868   2.995  15.015
 9665SOL    HW240875   2.888   3.021  14.868
 9666SOL     OW40876   0.226   3.292   0.842
 9666SOL    HW140877   0.273   3.284   0.760
 9666SOL    HW240878   0.135   3.271   0.820
 9667SOL     OW40879   1.033   3.385  20.730
 9667SOL    HW140880   0.967   3.322  20.759
 9667SOL    HW240881   0.985   3.466  20.715
 9668SOL     OW40882   4.097   2.148   3.822
 9668SOL    HW140883   4.002   2.152   3.810
 9668SOL    HW240884   4.109   2.130   3.915
 9669SOL     OW40885   3.115   2.730  18.996
 9669SOL    HW140886   3.190   2.788  18.992
 9669SOL    HW240887   3.131   2.665  18.927
 9670SOL     OW40888   0.250   1.552   7.604
 9670SOL    HW140889   0.249   1.479   7.667
 9670SOL    HW240890   0.342   1.564   7.584
 9671SOL     OW40891   4.595   3.758  17.953
 9671SOL    HW140892   4.602   3.707  17.872
 9671SOL    HW240893   4.570   3.846  17.924
 9672SOL     OW40894   2.925   3.046   3.658
 9672SOL    HW140895   2.853   3.034   3.720
 9672SOL    HW240896   2.996   3.083   3.711
 9673SOL     OW40897   2.763   4.251  16.155
 9673SOL    HW140898   2.692   4.192  16.180
 9673SOL    HW240899   2.722   4.316  16.098
 9674SOL     OW40900   0.718   2.030   0.589
 9674SOL    HW140901   0.644   2.076   0.627
 9674SOL    HW240902   0.754   2.091   0.524
 9675SOL     OW40903   0.289   1.592   1.709
 9675SOL    HW140904   0.266   1.501   1.691
 9675SOL    HW240905   0.383   1.590   1.725
 9676SOL     OW40906   0.917   1.062  15.529
 9676SOL    HW140907   0.941   1.112  15.607
 9676SOL    HW240908   0.992   1.004  15.514
 9677SOL     OW40909   1.588   0.896   3.724
 9677SOL    HW140910   1.614   0.911   3.633
 9677SOL    HW240911   1.592   0.801   3.735
 9678SOL     OW40912   1.243   0.532  20.966
 9678SOL    HW140913   1.315   0.522  21.028
 9678SOL    HW240914   1.234   0.627  20.955
 9679SOL     OW40915   3.866   2.984   7.476
 9679SOL    HW140916   3.912   3.051   7.425
 9679SOL    HW240917   3.869   2.906   7.421
 9680SOL     OW40918   3.880   3.685  18.622
 9680SOL    HW140919   3.863   3.640  18.705
 9680SOL    HW240920   3.824   3.639  18.559
 9681SOL     OW40921   3.511   2.634  16.858
 9681SOL    HW140922   3.588   2.652  16.912
 9681SOL    HW240923   3.506   2.708  16.797
 9682SOL     OW40924   0.824   2.720   0.756
 9682SOL    HW140925   0.918   2.735   0.768
 9682SOL    HW240926   0.818   2.660   0.682
 9683SOL     OW40927   2.133   2.855   2.382
 9683SOL    HW140928   2.132   2.951   2.385
 9683SOL    HW240929   2.072   2.833   2.311
 9684SOL     OW40930   2.565   3.712   1.384
 9684SOL    HW140931   2.535   3.748   1.467
 9684SOL    HW240932   2.610   3.630   1.408
 9685SOL     OW40933   0.217   4.778   6.145
 9685SOL    HW140934   0.150   0.000   6.212
 9685SOL    HW240935   0.172   4.730   6.075
 9686SOL     OW40936   0.662   2.429   1.933
 9686SOL    HW140937   0.707   2.513   1.946
 9686SOL    HW240938   0.606   2.420   2.010
 9687SOL     OW40939   3.560   2.953   2.582
 9687SOL    HW140940   3.538   3.040   2.617
 9687SOL    HW240941   3.476   2.916   2.557
 9688SOL     OW40942   2.074   1.645   5.344
 9688SOL    HW140943   2.015   1.718   5.363
 9688SOL    HW240944   2.157   1.686   5.321
 9689SOL     OW40945   2.694   1.864  15.545
 9689SOL    HW140946   2.704   1.769  15.542
 9689SOL    HW240947   2.602   1.878  15.568
 9690SOL     OW40948   2.082   1.751  16.972
 9690SOL    HW140949   2.015   1.727  17.036
 9690SOL    HW240950   2.092   1.846  16.983
 9691SOL     OW40951   2.053   0.948   0.668
 9691SOL    HW140952   2.077   0.959   0.576
 9691SOL    HW240953   2.056   0.853   0.682
 9692SOL     OW40954   4.264   4.154  17.268
 9692SOL    HW140955   4.268   4.100  17.347
 9692SOL    HW240956   4.190   4.120  17.218
 9693SOL     OW40957   0.553   4.169   7.400
 9693SOL    HW140958   0.533   4.237   7.335
 9693SOL    HW240959   0.620   4.209   7.456
 9694SOL     OW40960   2.432   0.292  14.665
 9694SOL    HW140961   2.470   0.213  14.626
 9694SOL    HW240962   2.477   0.365  14.621
 9695SOL     OW40963   3.189   3.307  18.705
 9695SOL    HW140964   3.153   3.236  18.758
 9695SOL    HW240965   3.168   3.283  18.615
 9696SOL     OW40966   4.024   0.291   1.738
 9696SOL    HW140967   3.999   0.338   1.659
 9696SOL    HW240968   4.070   0.213   1.706
 9697SOL     OW40969   0.828   3.281  17.935
 9697SOL    HW140970   0.786   3.289  17.849
 9697SOL    HW240971   0.756   3.262  17.995
 9698SOL     OW40972   1.086   1.106  19.363
 9698SOL    HW140973   1.130   1.031  19.403
 9698SOL    HW240974   1.128   1.183  19.403
 9699SOL     OW40975   4.079   2.867   9.429
 9699SOL    HW140976   4.154   2.808   9.421
 9699SOL    HW240977   4.115   2.954   9.413
 9700SOL     OW40978   2.822   0.966  17.301
 9700SOL    HW140979   2.885   0.989  17.369
 9700SOL    HW240980   2.776   1.047  17.281
 9701SOL     OW40981   3.999   0.786  18.296
 9701SOL    HW140982   3.916   0.817  18.262
 9701SOL    HW240983   4.044   0.748  18.220
 9702SOL     OW40984   0.703   2.532   5.920
 9702SOL    HW140985   0.738   2.577   5.996
 9702SOL    HW240986   0.780   2.508   5.868
 9703SOL     OW40987   4.210   2.514  14.918
 9703SOL    HW140988   4.119   2.524  14.947
 9703SOL    HW240989   4.221   2.583  14.852
 9704SOL     OW40990   2.470   0.347  17.837
 9704SOL    HW140991   2.403   0.410  17.862
 9704SOL    HW240992   2.421   0.271  17.806
 9705SOL     OW40993   4.465   3.230  20.235
 9705SOL    HW140994   4.424   3.175  20.169
 9705SOL    HW240995   4.441   3.189  20.318
 9706SOL     OW40996   0.455   2.991  15.022
 9706SOL    HW140997   0.470   2.909  14.975
 9706SOL    HW240998   0.425   2.965  15.109
 9707SOL     OW40999   3.033   1.121   0.407
 9707SOL    HW141000   2.944   1.109   0.442
 9707SOL    HW241001   3.034   1.068   0.327
 9708SOL     OW41002   4.248   1.110   6.735
 9708SOL    HW141003   4.154   1.103   6.721
 9708SOL    HW241004   4.258   1.190   6.787
 9709SOL     OW41005   3.392   1.964   7.290
 9709SOL    HW141006   3.376   1.874   7.320
 9709SOL    HW241007   3.406   2.014   7.370
 9710SOL     OW41008   3.964   2.821  20.013
 9710SOL    HW141009   4.013   2.756  19.962
 9710SOL    HW241010   3.962   2.899  19.957
 9711SOL     OW41011   0.952   3.367  19.543
 9711SOL    HW141012   0.858   3.356  19.537
 9711SOL    HW241013   0.966   3.416  19.624
 9712SOL     OW41014   1.815   0.055  19.476
 9712SOL    HW141015   1.813   0.034  19.383
 9712SOL    HW241016   1.907   0.042  19.502
 9713SOL     OW41017   4.598   0.290   6.638
 9713SOL    HW141018   4.512   0.323   6.663
 9713SOL    HW241019   4.605   0.309   6.545
 9714SOL     OW41020   4.005   0.478   3.683
 9714SOL    HW141021   3.974   0.529   3.609
 9714SOL    HW241022   4.101   0.485   3.679
 9715SOL     OW41023   0.976   3.107  18.056
 9715SOL    HW141024   0.925   3.177  18.017
 9715SOL    HW241025   1.059   3.107  18.008
 9716SOL     OW41026   3.984   3.399  16.494
 9716SOL    HW141027   3.961   3.307  16.480
 9716SOL    HW241028   4.057   3.414  16.435
 9717SOL     OW41029   3.443   2.192   2.986
 9717SOL    HW141030   3.431   2.099   3.005
 9717SOL    HW241031   3.383   2.237   3.046
 9718SOL     OW41032   1.208   3.098  13.876
 9718SOL    HW141033   1.137   3.158  13.901
 9718SOL    HW241034   1.257   3.146  13.809
 9719SOL     OW41035   2.273   1.700  18.030
 9719SOL    HW141036   2.363   1.733  18.036
 9719SOL    HW241037   2.259   1.655  18.113
 9720SOL     OW41038   1.042   3.005  14.515
 9720SOL    HW141039   1.075   2.970  14.433
 9720SOL    HW241040   1.053   3.100  14.507
 9721SOL     OW41041   2.916   3.930   2.871
 9721SOL    HW141042   2.918   4.023   2.892
 9721SOL    HW241043   2.825   3.904   2.882
 9722SOL     OW41044   1.946   1.143   4.409
 9722SOL    HW141045   1.986   1.062   4.441
 9722SOL    HW241046   1.896   1.176   4.483
 9723SOL     OW41047   1.145   2.302   5.961
 9723SOL    HW141048   1.164   2.214   5.928
 9723SOL    HW241049   1.231   2.335   5.989
 9724SOL     OW41050   3.402   3.478   3.781
 9724SOL    HW141051   3.387   3.384   3.776
 9724SOL    HW241052   3.412   3.496   3.874
 9725SOL     OW41053   2.197   2.671   4.699
 9725SOL    HW141054   2.159   2.633   4.778
 9725SOL    HW241055   2.280   2.626   4.687
 9726SOL     OW41056   4.458   4.507  16.747
 9726SOL    HW141057   4.471   4.413  16.756
 9726SOL    HW241058   4.522   4.546  16.807
 9727SOL     OW41059   2.704   3.912  18.236
 9727SOL    HW141060   2.696   3.926  18.142
 9727SOL    HW241061   2.699   3.817  18.247
 9728SOL     OW41062   1.781   4.733  18.059
 9728SOL    HW141063   1.742   4.702  17.977
 9728SOL    HW241064   1.849   4.669  18.079
 9729SOL     OW41065   4.126   2.628  17.506
 9729SOL    HW141066   4.166   2.585  17.430
 9729SOL    HW241067   4.201   2.654  17.560
 9730SOL     OW41068   0.967   2.890   5.868
 9730SOL    HW141069   0.892   2.920   5.920
 9730SOL    HW241070   0.983   2.960   5.805
 9731SOL     OW41071   2.214   0.619   5.771
 9731SOL    HW141072   2.227   0.626   5.677
 9731SOL    HW241073   2.172   0.701   5.796
 9732SOL     OW41074   2.315   2.286   5.270
 9732SOL    HW141075   2.260   2.283   5.349
 9732SOL    HW241076   2.261   2.332   5.206
 9733SOL     OW41077   2.391   4.664  20.456
 9733SOL    HW141078   2.305   4.628  20.476
 9733SOL    HW241079   2.373   4.751  20.420
 9734SOL     OW41080   2.688   1.755   3.925
 9734SOL    HW141081   2.680   1.772   3.831
 9734SOL    HW241082   2.599   1.733   3.953
 9735SOL     OW41083   3.933   0.363  18.926
 9735SOL    HW141084   3.858   0.407  18.885
 9735SOL    HW241085   3.942   0.281  18.877
 9736SOL     OW41086   0.466   0.539  18.071
 9736SOL    HW141087   0.470   0.610  18.135
 9736SOL    HW241088   0.415   0.470  18.115
 9737SOL     OW41089   3.961   1.387  14.079
 9737SOL    HW141090   3.918   1.415  13.998
 9737SOL    HW241091   4.055   1.387  14.058
 9738SOL     OW41092   1.985   0.396  19.468
 9738SOL    HW141093   2.035   0.365  19.392
 9738SOL    HW241094   2.029   0.359  19.543
 9739SOL     OW41095   4.056   3.888  17.549
 9739SOL    HW141096   4.017   3.963  17.594
 9739SOL    HW241097   3.989   3.819  17.555
 9740SOL     OW41098   3.130   2.799  18.556
 9740SOL    HW141099   3.172   2.859  18.619
 9740SOL    HW241100   3.044   2.838  18.540
 9741SOL     OW41101   2.224   4.280   0.819
 9741SOL    HW141102   2.199   4.190   0.796
 9741SOL    HW241103   2.236   4.323   0.735
 9742SOL     OW41104   1.038   4.038   4.840
 9742SOL    HW141105   1.108   3.994   4.791
 9742SOL    HW241106   1.076   4.055   4.926
 9743SOL     OW41107   1.017   0.521   3.723
 9743SOL    HW141108   1.060   0.552   3.644
 9743SOL    HW241109   1.058   0.437   3.742
 9744SOL     OW41110   1.779   2.550  14.102
 9744SOL    HW141111   1.845   2.612  14.072
 9744SOL    HW241112   1.817   2.464  14.085
 9745SOL     OW41113   2.253   1.288   0.510
 9745SOL    HW141114   2.324   1.236   0.473
 9745SOL    HW241115   2.271   1.291   0.604
 9746SOL     OW41116   0.169   4.451   2.113
 9746SOL    HW141117   0.233   4.493   2.056
 9746SOL    HW241118   0.196   4.476   2.202
 9747SOL     OW41119   2.051   2.591   8.763
 9747SOL    HW141120   2.100   2.586   8.681
 9747SOL    HW241121   1.969   2.634   8.741
 9748SOL     OW41122   3.093   4.523   5.631
 9748SOL    HW141123   3.165   4.581   5.657
 9748SOL    HW241124   3.045   4.507   5.712
 9749SOL     OW41125   1.436   4.515   1.023
 9749SOL    HW141126   1.400   4.560   1.099
 9749SOL    HW241127   1.364   4.511   0.960
 9750SOL     OW41128   2.585   0.888   0.204
 9750SOL    HW141129   2.535   0.807   0.200
 9750SOL    HW241130   2.652   0.878   0.136
 9751SOL     OW41131   3.236   1.326  20.946
 9751SOL    HW141132   3.157   1.307  20.896
 9751SOL    HW241133   3.298   1.258  20.921
 9752SOL     OW41134   0.667   1.714   1.721
 9752SOL    HW141135   0.614   1.634   1.731
 9752SOL    HW241136   0.753   1.682   1.694
 9753SOL     OW41137   2.908   1.268   9.710
 9753SOL    HW141138   2.976   1.279   9.644
 9753SOL    HW241139   2.954   1.277   9.793
 9754SOL     OW41140   3.775   1.157   6.611
 9754SOL    HW141141   3.808   1.232   6.562
 9754SOL    HW241142   3.724   1.196   6.682
 9755SOL     OW41143   4.413   4.556   3.366
 9755SOL    HW141144   4.452   4.624   3.421
 9755SOL    HW241145   4.386   4.488   3.427
 9756SOL     OW41146   0.716   3.793   2.225
 9756SOL    HW141147   0.663   3.844   2.163
 9756SOL    HW241148   0.778   3.745   2.170
 9757SOL     OW41149   1.743   0.015   5.734
 9757SOL    HW141150   1.821   0.067   5.715
 9757SOL    HW241151   1.767   4.717   5.708
 9758SOL     OW41152   2.672   4.558  20.119
 9758SOL    HW141153   2.634   4.639  20.087
 9758SOL    HW241154   2.604   4.520  20.175
 9759SOL     OW41155   3.569   0.929   5.176
 9759SOL    HW141156   3.624   0.975   5.113
 9759SOL    HW241157   3.603   0.956   5.261
 9760SOL     OW41158   0.012   4.263   3.225
 9760SOL    HW141159   4.790   4.358   3.235
 9760SOL    HW241160   4.726   4.234   3.176
 9761SOL     OW41161   1.144   3.349  12.823
 9761SOL    HW141162   1.136   3.372  12.916
 9761SOL    HW241163   1.207   3.411  12.788
 9762SOL     OW41164   2.160   0.338   2.833
 9762SOL    HW141165   2.241   0.389   2.836
 9762SOL    HW241166   2.144   0.325   2.739
 9763SOL     OW41167   0.983   2.521   5.855
 9763SOL    HW141168   1.025   2.598   5.892
 9763SOL    HW241169   1.033   2.447   5.889
 9764SOL     OW41170   1.852   1.440   1.084
 9764SOL    HW141171   1.854   1.521   1.033
 9764SOL    HW241172   1.759   1.426   1.102
 9765SOL     OW41173   0.618   1.176  18.573
 9765SOL    HW141174   0.545   1.178  18.511
 9765SOL    HW241175   0.608   1.092  18.619
 9766SOL     OW41176   4.313   2.474   3.892
 9766SOL    HW141177   4.303   2.524   3.810
 9766SOL    HW241178   4.371   2.528   3.945
 9767SOL     OW41179   3.432   2.646   6.821
 9767SOL    HW141180   3.397   2.602   6.899
 9767SOL    HW241181   3.359   2.699   6.788
 9768SOL     OW41182   1.345   3.663  14.588
 9768SOL    HW141183   1.436   3.650  14.612
 9768SOL    HW241184   1.345   3.658  14.492
 9769SOL     OW41185   0.082   4.039  19.587
 9769SOL    HW141186   0.040   4.096  19.523
 9769SOL    HW241187   0.176   4.057  19.577
 9770SOL     OW41188   2.970   1.339   3.919
 9770SOL    HW141189   2.991   1.418   3.870
 9770SOL    HW241190   2.885   1.311   3.885
 9771SOL     OW41191   4.048   4.033  19.679
 9771SOL    HW141192   4.097   3.975  19.737
 9771SOL    HW241193   4.111   4.102  19.655
 9772SOL     OW41194   2.042   3.510   6.492
 9772SOL    HW141195   2.023   3.431   6.442
 9772SOL    HW241196   2.127   3.539   6.459
 9773SOL     OW41197   1.077   2.550  16.011
 9773SOL    HW141198   1.087   2.603  15.931
 9773SOL    HW241199   1.032   2.608  16.073
 9774SOL     OW41200   4.085   2.428  17.731
 9774SOL    HW141201   4.156   2.376  17.770
 9774SOL    HW241202   4.107   2.519  17.752
 9775SOL     OW41203   3.641   2.781   0.040
 9775SOL    HW141204   3.661   2.690   0.018
 9775SOL    HW241205   3.717   2.831   0.010
 9776SOL     OW41206   3.054   0.440  20.631
 9776SOL    HW141207   2.996   0.365  20.643
 9776SOL    HW241208   3.140   0.402  20.610
 9777SOL     OW41209   1.794   2.174  18.635
 9777SOL    HW141210   1.773   2.259  18.672
 9777SOL    HW241211   1.727   2.115  18.670
 9778SOL     OW41212   3.862   0.884   7.381
 9778SOL    HW141213   3.880   0.819   7.313
 9778SOL    HW241214   3.816   0.836   7.450
 9779SOL     OW41215   3.523   0.017   3.291
 9779SOL    HW141216   3.481   0.005   3.377
 9779SOL    HW241217   3.451   0.039   3.232
 9780SOL     OW41218   0.336   0.079  10.615
 9780SOL    HW141219   0.431   0.079  10.630
 9780SOL    HW241220   0.323   0.143  10.544
 9781SOL     OW41221   2.421   4.552   5.342
 9781SOL    HW141222   2.392   4.494   5.412
 9781SOL    HW241223   2.341   4.572   5.293
 9782SOL     OW41224   1.858   4.128  19.584
 9782SOL    HW141225   1.835   4.219  19.565
 9782SOL    HW241226   1.947   4.133  19.618
 9783SOL     OW41227   2.807   1.732   2.621
 9783SOL    HW141228   2.759   1.673   2.564
 9783SOL    HW241229   2.824   1.809   2.567
 9784SOL     OW41230   3.818   3.093   4.216
 9784SOL    HW141231   3.842   3.042   4.293
 9784SOL    HW241232   3.898   3.138   4.191
 9785SOL     OW41233   1.702   0.969  21.218
 9785SOL    HW141234   1.705   0.967   0.050
 9785SOL    HW241235   1.613   0.998  21.197
 9786SOL     OW41236   4.303   2.699  14.740
 9786SOL    HW141237   4.245   2.737  14.674
 9786SOL    HW241238   4.346   2.774  14.781
 9787SOL     OW41239   0.515   0.527   5.943
 9787SOL    HW141240   0.505   0.611   5.989
 9787SOL    HW241241   0.608   0.522   5.923
 9788SOL     OW41242   0.605   4.073   3.645
 9788SOL    HW141243   0.524   4.099   3.602
 9788SOL    HW241244   0.649   4.016   3.582
 9789SOL     OW41245   1.242   2.875   1.996
 9789SOL    HW141246   1.209   2.926   2.070
 9789SOL    HW241247   1.240   2.784   2.027
 9790SOL     OW41248   0.466   3.892  17.475
 9790SOL    HW141249   0.430   3.850  17.397
 9790SOL    HW241250   0.476   3.984  17.451
 9791SOL     OW41251   1.694   3.234  19.448
 9791SOL    HW141252   1.708   3.325  19.423
 9791SOL    HW241253   1.624   3.203  19.390
 9792SOL     OW41254   0.991   0.090  17.060
 9792SOL    HW141255   1.052   0.141  17.113
 9792SOL    HW241256   1.029   0.002  17.057
 9793SOL     OW41257   1.451   0.802  18.677
 9793SOL    HW141258   1.498   0.722  18.699
 9793SOL    HW241259   1.359   0.782  18.694
 9794SOL     OW41260   3.778   4.261   5.986
 9794SOL    HW141261   3.739   4.180   5.954
 9794SOL    HW241262   3.814   4.303   5.907
 9795SOL     OW41263   1.984   2.416  20.308
 9795SOL    HW141264   1.901   2.443  20.349
 9795SOL    HW241265   1.964   2.412  20.215
 9796SOL     OW41266   2.710   0.823  18.702
 9796SOL    HW141267   2.728   0.845  18.793
 9796SOL    HW241268   2.731   0.730  18.694
 9797SOL     OW41269   3.191   2.405  18.379
 9797SOL    HW141270   3.154   2.403  18.467
 9797SOL    HW241271   3.283   2.430  18.393
 9798SOL     OW41272   1.447   4.039   6.095
 9798SOL    HW141273   1.502   4.026   6.172
 9798SOL    HW241274   1.410   3.952   6.078
 9799SOL     OW41275   2.196   2.471   2.761
 9799SOL    HW141276   2.287   2.454   2.783
 9799SOL    HW241277   2.155   2.385   2.757
 9800SOL     OW41278   0.334   1.147   5.574
 9800SOL    HW141279   0.341   1.102   5.490
 9800SOL    HW241280   0.423   1.172   5.596
 9801SOL     OW41281   4.424   2.559   1.320
 9801SOL    HW141282   4.455   2.599   1.239
 9801SOL    HW241283   4.433   2.464   1.305
 9802SOL     OW41284   3.224   2.531   7.858
 9802SOL    HW141285   3.309   2.574   7.850
 9802SOL    HW241286   3.165   2.600   7.889
 9803SOL     OW41287   1.794   0.439  15.265
 9803SOL    HW141288   1.773   0.445  15.358
 9803SOL    HW241289   1.885   0.467  15.259
 9804SOL     OW41290   0.038   1.943   0.880
 9804SOL    HW141291   0.059   1.958   0.972
 9804SOL    HW241292   0.121   1.919   0.840
 9805SOL     OW41293   1.008   0.333  15.864
 9805SOL    HW141294   0.998   0.397  15.794
 9805SOL    HW241295   1.080   0.277  15.834
 9806SOL     OW41296   1.814   0.405   0.307
 9806SOL    HW141297   1.827   0.310   0.312
 9806SOL    HW241298   1.853   0.438   0.388
 9807SOL     OW41299   4.719   4.524   3.751
 9807SOL    HW141300   4.722   4.484   3.664
 9807SOL    HW241301   4.761   4.609   3.739
 9808SOL     OW41302   3.126   3.587  14.845
 9808SOL    HW141303   3.109   3.648  14.773
 9808SOL    HW241304   3.153   3.643  14.918
 9809SOL     OW41305   2.036   0.497   8.492
 9809SOL    HW141306   1.985   0.450   8.558
 9809SOL    HW241307   1.971   0.525   8.427
 9810SOL     OW41308   1.903   3.189  17.718
 9810SOL    HW141309   1.872   3.279  17.706
 9810SOL    HW241310   1.928   3.185  17.811
 9811SOL     OW41311   4.047   3.145  13.926
 9811SOL    HW141312   4.004   3.060  13.923
 9811SOL    HW241313   4.138   3.127  13.903
 9812SOL     OW41314   4.198   0.112  14.194
 9812SOL    HW141315   4.145   0.192  14.189
 9812SOL    HW241316   4.193   0.074  14.106
 9813SOL     OW41317   1.287   3.930  15.619
 9813SOL    HW141318   1.250   3.883  15.545
 9813SOL    HW241319   1.212   3.957  15.671
 9814SOL     OW41320   0.182   1.690   5.171
 9814SOL    HW141321   0.116   1.726   5.231
 9814SOL    HW241322   0.212   1.766   5.120
 9815SOL     OW41323   1.629   1.570   1.551
 9815SOL    HW141324   1.624   1.501   1.616
 9815SOL    HW241325   1.722   1.590   1.544
 9816SOL     OW41326   3.862   2.487   0.855
 9816SOL    HW141327   3.860   2.418   0.921
 9816SOL    HW241328   3.788   2.544   0.877
 9817SOL     OW41329   2.343   1.855  16.182
 9817SOL    HW141330   2.383   1.941  16.171
 9817SOL    HW241331   2.394   1.814  16.252
 9818SOL     OW41332   3.531   4.587  12.846
 9818SOL    HW141333   3.516   4.507  12.796
 9818SOL    HW241334   3.464   4.585  12.915
 9819SOL     OW41335   3.675   3.133  15.143
 9819SOL    HW141336   3.759   3.146  15.187
 9819SOL    HW241337   3.612   3.179  15.198
 9820SOL     OW41338   2.752   2.007   5.878
 9820SOL    HW141339   2.761   2.092   5.836
 9820SOL    HW241340   2.811   1.950   5.829
 9821SOL     OW41341   0.921   1.409   0.731
 9821SOL    HW141342   0.893   1.490   0.689
 9821SOL    HW241343   0.924   1.344   0.661
 9822SOL     OW41344   0.679   2.673  19.445
 9822SOL    HW141345   0.766   2.633  19.447
 9822SOL    HW241346   0.621   2.603  19.413
 9823SOL     OW41347   2.958   0.766  20.135
 9823SOL    HW141348   2.947   0.776  20.229
 9823SOL    HW241349   3.052   0.751  20.123
 9824SOL     OW41350   0.679   1.619  20.864
 9824SOL    HW141351   0.674   1.600  20.958
 9824SOL    HW241352   0.641   1.706  20.856
 9825SOL     OW41353   0.229   1.793   0.753
 9825SOL    HW141354   0.206   1.701   0.770
 9825SOL    HW241355   0.304   1.810   0.810
 9826SOL     OW41356   2.915   0.640  21.107
 9826SOL    HW141357   2.975   0.600  21.170
 9826SOL    HW241358   2.944   0.608  21.022
 9827SOL     OW41359   4.468   1.967   1.741
 9827SOL    HW141360   4.496   2.006   1.823
 9827SOL    HW241361   4.543   1.916   1.710
 9828SOL     OW41362   2.108   0.298  20.489
 9828SOL    HW141363   2.183   0.239  20.482
 9828SOL    HW241364   2.092   0.307  20.583
 9829SOL     OW41365   3.438   4.291  16.754
 9829SOL    HW141366   3.528   4.311  16.728
 9829SOL    HW241367   3.385   4.311  16.677
 9830SOL     OW41368   3.461   3.571  20.748
 9830SOL    HW141369   3.404   3.626  20.802
 9830SOL    HW241370   3.523   3.633  20.709
 9831SOL     OW41371   3.564   3.911   5.330
 9831SOL    HW141372   3.514   3.846   5.380
 9831SOL    HW241373   3.610   3.859   5.264
 9832SOL     OW41374   1.440   3.034  16.409
 9832SOL    HW141375   1.518   3.041  16.465
 9832SOL    HW241376   1.473   3.041  16.320
 9833SOL     OW41377   0.947   4.756  20.251
 9833SOL    HW141378   0.944   4.661  20.265
 9833SOL    HW241379   0.888   0.001  20.317
 9834SOL     OW41380   0.201   2.766  16.146
 9834SOL    HW141381   0.156   2.701  16.093
 9834SOL    HW241382   0.279   2.788  16.096
 9835SOL     OW41383   0.818   0.877   2.054
 9835SOL    HW141384   0.778   0.953   2.096
 9835SOL    HW241385   0.745   0.831   2.012
 9836SOL     OW41386   0.840   2.719   4.423
 9836SOL    HW141387   0.838   2.815   4.426
 9836SOL    HW241388   0.761   2.692   4.470
 9837SOL     OW41389   2.057   1.229  15.005
 9837SOL    HW141390   2.074   1.136  15.019
 9837SOL    HW241391   2.016   1.233  14.919
 9838SOL     OW41392   1.504   1.275   5.307
 9838SOL    HW141393   1.546   1.213   5.247
 9838SOL    HW241394   1.451   1.331   5.249
 9839SOL     OW41395   1.324   3.489  12.690
 9839SOL    HW141396   1.272   3.553  12.642
 9839SOL    HW241397   1.371   3.440  12.622
 9840SOL     OW41398   3.408   3.666   1.646
 9840SOL    HW141399   3.381   3.750   1.608
 9840SOL    HW241400   3.406   3.605   1.572
 9841SOL     OW41401   2.635   2.240   2.236
 9841SOL    HW141402   2.651   2.147   2.222
 9841SOL    HW241403   2.719   2.282   2.215
 9842SOL     OW41404   3.721   2.075  16.464
 9842SOL    HW141405   3.804   2.114  16.438
 9842SOL    HW241406   3.700   2.118  16.548
 9843SOL     OW41407   2.836   3.869   1.270
 9843SOL    HW141408   2.748   3.905   1.283
 9843SOL    HW241409   2.872   3.864   1.359
 9844SOL     OW41410   3.427   3.536   2.906
 9844SOL    HW141411   3.387   3.538   2.819
 9844SOL    HW241412   3.366   3.583   2.962
 9845SOL     OW41413   3.998   0.197  16.194
 9845SOL    HW141414   4.026   0.229  16.108
 9845SOL    HW241415   4.038   0.257  16.257
 9846SOL     OW41416   0.012   3.192   0.018
 9846SOL    HW141417   0.074   3.233  21.221
 9846SOL    HW241418   0.063   3.174   0.097
 9847SOL     OW41419   1.337   1.863   2.520
 9847SOL    HW141420   1.422   1.820   2.530
 9847SOL    HW241421   1.290   1.808   2.457
 9848SOL     OW41422   3.510   1.307   6.202
 9848SOL    HW141423   3.524   1.286   6.110
 9848SOL    HW241424   3.495   1.401   6.204
 9849SOL     OW41425   3.795   3.273  13.807
 9849SOL    HW141426   3.796   3.359  13.849
 9849SOL    HW241427   3.879   3.233  13.832
 9850SOL     OW41428   3.205   0.249   4.293
 9850SOL    HW141429   3.126   0.221   4.247
 9850SOL    HW241430   3.179   0.250   4.385
 9851SOL     OW41431   1.408   3.660  14.314
 9851SOL    HW141432   1.478   3.686  14.254
 9851SOL    HW241433   1.403   3.565  14.304
 9852SOL     OW41434   2.399   3.535   6.697
 9852SOL    HW141435   2.437   3.473   6.634
 9852SOL    HW241436   2.331   3.486   6.742
 9853SOL     OW41437   4.774   1.202   6.547
 9853SOL    HW141438   0.058   1.222   6.603
 9853SOL    HW241439   4.723   1.138   6.596
 9854SOL     OW41440   3.516   2.147  17.391
 9854SOL    HW141441   3.523   2.238  17.363
 9854SOL    HW241442   3.604   2.111  17.377
 9855SOL     OW41443   0.300   0.340  20.708
 9855SOL    HW141444   0.248   0.416  20.733
 9855SOL    HW241445   0.343   0.313  20.790
 9856SOL     OW41446   1.193   2.995   5.253
 9856SOL    HW141447   1.107   3.034   5.239
 9856SOL    HW241448   1.175   2.911   5.296
 9857SOL     OW41449   0.440   4.492   3.598
 9857SOL    HW141450   0.411   4.437   3.525
 9857SOL    HW241451   0.394   4.575   3.585
 9858SOL     OW41452   0.787   1.081   5.664
 9858SOL    HW141453   0.870   1.095   5.619
 9858SOL    HW241454   0.808   1.019   5.734
 9859SOL     OW41455   1.675   0.717   1.697
 9859SOL    HW141456   1.721   0.796   1.667
 9859SOL    HW241457   1.717   0.645   1.651
 9860SOL     OW41458   3.567   2.953   4.799
 9860SOL    HW141459   3.569   3.040   4.759
 9860SOL    HW241460   3.538   2.895   4.728
 9861SOL     OW41461   1.269   0.200   3.468
 9861SOL    HW141462   1.181   0.170   3.443
 9861SOL    HW241463   1.325   0.124   3.452
 9862SOL     OW41464   1.538   4.396  17.582
 9862SOL    HW141465   1.474   4.347  17.634
 9862SOL    HW241466   1.495   4.479  17.563
 9863SOL     OW41467   3.691   1.215  18.306
 9863SOL    HW141468   3.647   1.230  18.222
 9863SOL    HW241469   3.621   1.186  18.364
 9864SOL     OW41470   3.325   3.343   4.922
 9864SOL    HW141471   3.266   3.385   4.858
 9864SOL    HW241472   3.351   3.414   4.980
 9865SOL     OW41473   0.106   3.814  17.529
 9865SOL    HW141474   0.184   3.842  17.576
 9865SOL    HW241475   0.040   3.801  17.597
 9866SOL     OW41476   0.028   2.450  19.657
 9866SOL    HW141477   0.082   2.457  19.736
 9866SOL    HW241478   0.056   2.524  19.603
 9867SOL     OW41479   2.012   4.638   1.883
 9867SOL    HW141480   2.013   4.587   1.801
 9867SOL    HW241481   1.981   4.576   1.949
 9868SOL     OW41482   0.812   1.570  15.198
 9868SOL    HW141483   0.757   1.493  15.213
 9868SOL    HW241484   0.849   1.556  15.110
 9869SOL     OW41485   3.423   4.525   3.945
 9869SOL    HW141486   3.394   4.529   3.854
 9869SOL    HW241487   3.354   4.477   3.991
 9870SOL     OW41488   4.352   0.145  20.797
 9870SOL    HW141489   4.387   0.080  20.736
 9870SOL    HW241490   4.332   0.221  20.742
 9871SOL     OW41491   3.947   4.094  17.723
 9871SOL    HW141492   3.930   4.021  17.782
 9871SOL    HW241493   3.895   4.166  17.759
 9872SOL     OW41494   0.062   0.638  19.613
 9872SOL    HW141495   0.148   0.637  19.654
 9872SOL    HW241496   0.028   0.550  19.626
 9873SOL     OW41497   3.829   4.741  20.932
 9873SOL    HW141498   3.749   4.697  20.902
 9873SOL    HW241499   3.856   4.691  21.008
 9874SOL     OW41500   3.033   1.144   8.045
 9874SOL    HW141501   3.126   1.134   8.025
 9874SOL    HW241502   3.027   1.134   8.140
 9875SOL     OW41503   0.591   0.987   1.698
 9875SOL    HW141504   0.672   0.936   1.705
 9875SOL    HW241505   0.581   1.028   1.784
 9876SOL     OW41506   1.366   0.413   7.026
 9876SOL    HW141507   1.367   0.487   6.964
 9876SOL    HW241508   1.294   0.434   7.086
 9877SOL     OW41509   2.182   4.011  15.796
 9877SOL    HW141510   2.242   3.959  15.743
 9877SOL    HW241511   2.138   3.947  15.851
 9878SOL     OW41512   0.882   3.027   4.442
 9878SOL    HW141513   0.828   3.093   4.485
 9878SOL    HW241514   0.945   3.077   4.391
 9879SOL     OW41515   3.119   3.503  19.915
 9879SOL    HW141516   3.160   3.421  19.886
 9879SOL    HW241517   3.096   3.488  20.006
 9880SOL     OW41518   2.551   0.261  20.040
 9880SOL    HW141519   2.558   0.297  19.952
 9880SOL    HW241520   2.478   0.309  20.080
 9881SOL     OW41521   4.228   1.393  18.301
 9881SOL    HW141522   4.317   1.393  18.266
 9881SOL    HW241523   4.177   1.343  18.237
 9882SOL     OW41524   0.927   3.121  19.722
 9882SOL    HW141525   0.850   3.148  19.772
 9882SOL    HW241526   0.902   3.037  19.684
 9883SOL     OW41527   0.755   0.423   5.797
 9883SOL    HW141528   0.839   0.404   5.839
 9883SOL    HW241529   0.752   0.363   5.722
 9884SOL     OW41530   2.105   3.036  16.509
 9884SOL    HW141531   2.054   3.003  16.435
 9884SOL    HW241532   2.117   2.960  16.566
 9885SOL     OW41533   3.746   1.780   4.069
 9885SOL    HW141534   3.657   1.768   4.035
 9885SOL    HW241535   3.770   1.694   4.103
 9886SOL     OW41536   3.439   0.053   1.318
 9886SOL    HW141537   3.416   4.770   1.374
 9886SOL    HW241538   3.534   0.060   1.326
 9887SOL     OW41539   1.396   3.616  18.897
 9887SOL    HW141540   1.407   3.670  18.819
 9887SOL    HW241541   1.486   3.599  18.927
 9888SOL     OW41542   1.828   0.662  20.876
 9888SOL    HW141543   1.884   0.650  20.799
 9888SOL    HW241544   1.833   0.756  20.894
 9889SOL     OW41545   1.367   2.212  17.854
 9889SOL    HW141546   1.300   2.201  17.921
 9889SOL    HW241547   1.434   2.147  17.877
 9890SOL     OW41548   0.669   4.664   3.604
 9890SOL    HW141549   0.677   4.663   3.700
 9890SOL    HW241550   0.588   4.615   3.587
 9891SOL     OW41551   1.590   1.238  20.168
 9891SOL    HW141552   1.663   1.186  20.201
 9891SOL    HW241553   1.572   1.302  20.237
 9892SOL     OW41554   1.152   0.895  13.975
 9892SOL    HW141555   1.080   0.894  14.038
 9892SOL    HW241556   1.114   0.936  13.897
 9893SOL     OW41557   1.573   2.733  17.027
 9893SOL    HW141558   1.637   2.752  16.959
 9893SOL    HW241559   1.584   2.639  17.044
 9894SOL     OW41560   0.835   2.311   0.982
 9894SOL    HW141561   0.853   2.404   0.971
 9894SOL    HW241562   0.748   2.307   1.022
 9895SOL     OW41563   4.594   2.330  15.377
 9895SOL    HW141564   4.549   2.265  15.323
 9895SOL    HW241565   4.590   2.411  15.325
 9896SOL     OW41566   2.486   3.377  14.600
 9896SOL    HW141567   2.506   3.463  14.638
 9896SOL    HW241568   2.442   3.397  14.517
 9897SOL     OW41569   0.031   3.988  17.749
 9897SOL    HW141570   4.770   3.965  17.826
 9897SOL    HW241571   0.121   3.972  17.776
 9898SOL     OW41572   2.521   4.479  17.729
 9898SOL    HW141573   2.446   4.539  17.733
 9898SOL    HW241574   2.577   4.506  17.801
 9899SOL     OW41575   2.114   4.604  17.905
 9899SOL    HW141576   2.146   4.546  17.836
 9899SOL    HW241577   2.193   4.638  17.946
 9900SOL     OW41578   0.382   0.822  17.962
 9900SOL    HW141579   0.399   0.773  17.881
 9900SOL    HW241580   0.300   0.785  17.995
 9901SOL     OW41581   4.025   4.655  18.542
 9901SOL    HW141582   3.940   4.612  18.539
 9901SOL    HW241583   4.082   4.600  18.488
 9902SOL     OW41584   0.929   1.964  17.343
 9902SOL    HW141585   1.017   1.930  17.328
 9902SOL    HW241586   0.920   2.037  17.281
 9903SOL     OW41587   2.507   4.166  12.331
 9903SOL    HW141588   2.588   4.211  12.355
 9903SOL    HW241589   2.439   4.233  12.336
 9904SOL     OW41590   3.143   1.828   6.229
 9904SOL    HW141591   3.121   1.840   6.137
 9904SOL    HW241592   3.061   1.848   6.276
 9905SOL     OW41593   0.720   4.550   1.231
 9905SOL    HW141594   0.676   4.575   1.149
 9905SOL    HW241595   0.679   4.604   1.298
 9906SOL     OW41596   2.218   2.467  20.666
 9906SOL    HW141597   2.189   2.473  20.575
 9906SOL    HW241598   2.309   2.438  20.660
 9907SOL     OW41599   3.577   0.694   7.094
 9907SOL    HW141600   3.638   0.766   7.107
 9907SOL    HW241601   3.507   0.731   7.040
 9908SOL     OW41602   2.024   2.591   5.894
 9908SOL    HW141603   1.968   2.652   5.942
 9908SOL    HW241604   1.963   2.544   5.837
 9909SOL     OW41605   4.186   3.911   2.011
 9909SOL    HW141606   4.221   3.995   2.040
 9909SOL    HW241607   4.256   3.874   1.957
 9910SOL     OW41608   1.729   2.348  15.723
 9910SOL    HW141609   1.641   2.385  15.715
 9910SOL    HW241610   1.729   2.305  15.808
 9911SOL     OW41611   2.824   2.472   4.564
 9911SOL    HW141612   2.730   2.453   4.567
 9911SOL    HW241613   2.830   2.567   4.566
 9912SOL     OW41614   3.391   2.762   5.987
 9912SOL    HW141615   3.350   2.824   6.047
 9912SOL    HW241616   3.453   2.713   6.043
 9913SOL     OW41617   1.095   2.548  20.548
 9913SOL    HW141618   1.071   2.590  20.631
 9913SOL    HW241619   1.104   2.621  20.486
 9914SOL     OW41620   3.541   1.787   7.095
 9914SOL    HW141621   3.511   1.733   7.168
 9914SOL    HW241622   3.617   1.740   7.061
 9915SOL     OW41623   1.710   0.386   5.248
 9915SOL    HW141624   1.719   0.479   5.268
 9915SOL    HW241625   1.628   0.360   5.290
 9916SOL     OW41626   1.549   3.870   0.028
 9916SOL    HW141627   1.550   3.797   0.090
 9916SOL    HW241628   1.637   3.905   0.031
 9917SOL     OW41629   4.476   3.555  12.878
 9917SOL    HW141630   4.396   3.536  12.830
 9917SOL    HW241631   4.489   3.650  12.866
 9918SOL     OW41632   2.261   1.748  15.942
 9918SOL    HW141633   2.297   1.769  16.029
 9918SOL    HW241634   2.328   1.691  15.903
 9919SOL     OW41635   4.327   3.984   4.284
 9919SOL    HW141636   4.392   4.027   4.340
 9919SOL    HW241637   4.359   3.998   4.195
 9920SOL     OW41638   3.258   0.357  19.250
 9920SOL    HW141639   3.271   0.263  19.237
 9920SOL    HW241640   3.343   0.396  19.233
 9921SOL     OW41641   0.646   1.683  13.029
 9921SOL    HW141642   0.643   1.726  12.944
 9921SOL    HW241643   0.559   1.642  13.039
 9922SOL     OW41644   0.895   3.885   1.593
 9922SOL    HW141645   0.809   3.900   1.633
 9922SOL    HW241646   0.923   3.800   1.628
 9923SOL     OW41647   2.363   3.640   3.234
 9923SOL    HW141648   2.403   3.673   3.314
 9923SOL    HW241649   2.320   3.717   3.195
 9924SOL     OW41650   3.402   1.192   0.380
 9924SOL    HW141651   3.378   1.125   0.316
 9924SOL    HW241652   3.333   1.258   0.374
 9925SOL     OW41653   2.135   4.057   0.289
 9925SOL    HW141654   2.209   4.011   0.250
 9925SOL    HW241655   2.138   4.144   0.251
 9926SOL     OW41656   2.271   2.950   3.237
 9926SOL    HW141657   2.259   2.876   3.177
 9926SOL    HW241658   2.311   3.018   3.183
 9927SOL     OW41659   0.813   4.659   2.388
 9927SOL    HW141660   0.734   4.672   2.440
 9927SOL    HW241661   0.885   4.677   2.449
 9928SOL     OW41662   3.216   4.264   7.344
 9928SOL    HW141663   3.311   4.270   7.346
 9928SOL    HW241664   3.187   4.347   7.305
 9929SOL     OW41665   3.098   1.464   9.131
 9929SOL    HW141666   3.068   1.525   9.199
 9929SOL    HW241667   3.164   1.514   9.083
 9930SOL     OW41668   2.913   0.594   6.111
 9930SOL    HW141669   2.954   0.518   6.153
 9930SOL    HW241670   2.821   0.567   6.101
 9931SOL     OW41671   3.056   0.194   6.728
 9931SOL    HW141672   3.084   0.134   6.659
 9931SOL    HW241673   2.963   0.177   6.739
 9932SOL     OW41674   2.847   3.035  20.594
 9932SOL    HW141675   2.843   2.990  20.509
 9932SOL    HW241676   2.881   2.969  20.655
 9933SOL     OW41677   3.204   3.040  16.058
 9933SOL    HW141678   3.126   3.082  16.022
 9933SOL    HW241679   3.210   3.075  16.147
 9934SOL     OW41680   1.270   1.167  17.745
 9934SOL    HW141681   1.252   1.163  17.651
 9934SOL    HW241682   1.186   1.145  17.786
 9935SOL     OW41683   2.392   0.988   1.709
 9935SOL    HW141684   2.339   0.909   1.714
 9935SOL    HW241685   2.365   1.040   1.785
 9936SOL     OW41686   3.757   3.309   0.511
 9936SOL    HW141687   3.752   3.399   0.542
 9936SOL    HW241688   3.818   3.266   0.571
 9937SOL     OW41689   0.589   3.527   0.899
 9937SOL    HW141690   0.668   3.493   0.941
 9937SOL    HW241691   0.592   3.621   0.914
 9938SOL     OW41692   3.869   1.928  15.569
 9938SOL    HW141693   3.860   2.013  15.612
 9938SOL    HW241694   3.807   1.871  15.614
 9939SOL     OW41695   4.250   3.333   1.059
 9939SOL    HW141696   4.233   3.286   0.977
 9939SOL    HW241697   4.344   3.326   1.073
 9940SOL     OW41698   1.991   3.573   1.887
 9940SOL    HW141699   1.907   3.531   1.906
 9940SOL    HW241700   1.978   3.617   1.803
 9941SOL     OW41701   2.415   4.519  14.805
 9941SOL    HW141702   2.397   4.489  14.715
 9941SOL    HW241703   2.458   4.604  14.794
 9942SOL     OW41704   2.379   1.964  19.002
 9942SOL    HW141705   2.338   1.883  19.031
 9942SOL    HW241706   2.320   2.033  19.031
 9943SOL     OW41707   3.451   0.856  16.079
 9943SOL    HW141708   3.449   0.940  16.123
 9943SOL    HW241709   3.363   0.821  16.089
 9944SOL     OW41710   2.787   1.665  18.495
 9944SOL    HW141711   2.783   1.748  18.447
 9944SOL    HW241712   2.874   1.664  18.535
 9945SOL     OW41713   3.017   0.254   9.042
 9945SOL    HW141714   2.955   0.294   8.981
 9945SOL    HW241715   3.045   0.326   9.098
 9946SOL     OW41716   3.770   2.312   7.367
 9946SOL    HW141717   3.790   2.237   7.311
 9946SOL    HW241718   3.813   2.292   7.450
 9947SOL     OW41719   1.138   4.656   5.779
 9947SOL    HW141720   1.098   4.575   5.810
 9947SOL    HW241721   1.182   4.632   5.698
 9948SOL     OW41722   1.366   4.063  20.682
 9948SOL    HW141723   1.277   4.056  20.648
 9948SOL    HW241724   1.361   4.027  20.771
 9949SOL     OW41725   0.338   2.204   7.196
 9949SOL    HW141726   0.251   2.235   7.221
 9949SOL    HW241727   0.398   2.251   7.253
 9950SOL     OW41728   2.614   2.690  17.782
 9950SOL    HW141729   2.551   2.622  17.760
 9950SOL    HW241730   2.676   2.692  17.709
 9951SOL     OW41731   0.955   0.448   6.165
 9951SOL    HW141732   0.891   0.380   6.145
 9951SOL    HW241733   1.029   0.401   6.204
 9952SOL     OW41734   2.616   0.309   6.209
 9952SOL    HW141735   2.610   0.381   6.272
 9952SOL    HW241736   2.529   0.269   6.210
 9953SOL     OW41737   1.726   3.282  20.027
 9953SOL    HW141738   1.800   3.297  20.086
 9953SOL    HW241739   1.731   3.189  20.007
 9954SOL     OW41740   1.716   3.502  19.397
 9954SOL    HW141741   1.734   3.549  19.478
 9954SOL    HW241742   1.782   3.533  19.335
 9955SOL     OW41743   3.152   1.173   6.113
 9955SOL    HW141744   3.224   1.159   6.175
 9955SOL    HW241745   3.165   1.262   6.081
 9956SOL     OW41746   3.908   1.492  13.832
 9956SOL    HW141747   3.938   1.576  13.798
 9956SOL    HW241748   3.865   1.450  13.758
 9957SOL     OW41749   2.279   2.619   5.799
 9957SOL    HW141750   2.316   2.533   5.814
 9957SOL    HW241751   2.185   2.608   5.817
 9958SOL     OW41752   0.288   2.782   0.711
 9958SOL    HW141753   0.369   2.788   0.761
 9958SOL    HW241754   0.302   2.708   0.652
 9959SOL     OW41755   0.376   0.584   6.344
 9959SOL    HW141756   0.309   0.542   6.398
 9959SOL    HW241757   0.368   0.677   6.364
 9960SOL     OW41758   4.302   0.163  19.690
 9960SOL    HW141759   4.332   0.132  19.775
 9960SOL    HW241760   4.382   0.180  19.640
 9961SOL     OW41761   2.244   4.006  17.922
 9961SOL    HW141762   2.183   3.987  17.993
 9961SOL    HW241763   2.331   3.998  17.963
 9962SOL     OW41764   0.364   4.629  16.845
 9962SOL    HW141765   0.417   4.699  16.808
 9962SOL    HW241766   0.426   4.572  16.890
 9963SOL     OW41767   4.597   1.160  18.115
 9963SOL    HW141768   4.652   1.093  18.074
 9963SOL    HW241769   4.596   1.137  18.208
 9964SOL     OW41770   1.535   1.400  19.374
 9964SOL    HW141771   1.466   1.402  19.307
 9964SOL    HW241772   1.551   1.307  19.389
 9965SOL     OW41773   1.890   1.594  14.948
 9965SOL    HW141774   1.896   1.605  14.854
 9965SOL    HW241775   1.808   1.637  14.973
 9966SOL     OW41776   1.459   2.258  15.623
 9966SOL    HW141777   1.515   2.189  15.659
 9966SOL    HW241778   1.386   2.211  15.583
 9967SOL     OW41779   3.984   1.072   0.222
 9967SOL    HW141780   4.012   1.034   0.305
 9967SOL    HW241781   3.954   1.160   0.245
 9968SOL     OW41782   2.165   1.310  14.240
 9968SOL    HW141783   2.171   1.401  14.210
 9968SOL    HW241784   2.156   1.259  14.159
 9969SOL     OW41785   4.008   2.296   1.295
 9969SOL    HW141786   4.081   2.234   1.288
 9969SOL    HW241787   3.985   2.316   1.204
 9970SOL     OW41788   2.170   0.827   0.366
 9970SOL    HW141789   2.095   0.886   0.365
 9970SOL    HW241790   2.133   0.741   0.386
 9971SOL     OW41791   2.634   1.790  17.711
 9971SOL    HW141792   2.723   1.773  17.741
 9971SOL    HW241793   2.595   1.703  17.700
 9972SOL     OW41794   2.279   3.747   8.634
 9972SOL    HW141795   2.310   3.690   8.564
 9972SOL    HW241796   2.185   3.754   8.620
 9973SOL     OW41797   4.105   1.342  14.816
 9973SOL    HW141798   4.030   1.343  14.757
 9973SOL    HW241799   4.072   1.379  14.898
 9974SOL     OW41800   2.400   3.645  20.265
 9974SOL    HW141801   2.341   3.599  20.206
 9974SOL    HW241802   2.486   3.606  20.248
 9975SOL     OW41803   1.722   0.420   3.419
 9975SOL    HW141804   1.626   0.415   3.420
 9975SOL    HW241805   1.750   0.347   3.473
 9976SOL     OW41806   1.791   3.418  17.650
 9976SOL    HW141807   1.699   3.406  17.675
 9976SOL    HW241808   1.788   3.475  17.574
 9977SOL     OW41809   4.388   4.637   5.514
 9977SOL    HW141810   4.454   4.632   5.445
 9977SOL    HW241811   4.371   4.546   5.537
 9978SOL     OW41812   0.366   0.195  19.517
 9978SOL    HW141813   0.350   0.202  19.423
 9978SOL    HW241814   0.390   0.284  19.543
 9979SOL     OW41815   0.722   2.084  19.362
 9979SOL    HW141816   0.662   2.135  19.308
 9979SOL    HW241817   0.794   2.062  19.303
 9980SOL     OW41818   4.705   4.328  20.279
 9980SOL    HW141819   4.751   4.290  20.354
 9980SOL    HW241820   4.692   4.255  20.219
 9981SOL     OW41821   4.604   0.326   0.885
 9981SOL    HW141822   4.547   0.403   0.890
 9981SOL    HW241823   4.604   0.290   0.973
 9982SOL     OW41824   0.189   3.078  18.035
 9982SOL    HW141825   0.170   2.984  18.025
 9982SOL    HW241826   0.182   3.113  17.947
 9983SOL     OW41827   1.481   3.123  19.682
 9983SOL    HW141828   1.408   3.147  19.739
 9983SOL    HW241829   1.540   3.198  19.686
 9984SOL     OW41830   1.643   3.572  16.354
 9984SOL    HW141831   1.555   3.603  16.333
 9984SOL    HW241832   1.692   3.652  16.373
 9985SOL     OW41833   0.401   0.513  16.182
 9985SOL    HW141834   0.458   0.438  16.199
 9985SOL    HW241835   0.445   0.587  16.225
 9986SOL     OW41836   1.508   2.338   1.466
 9986SOL    HW141837   1.492   2.349   1.372
 9986SOL    HW241838   1.452   2.266   1.492
 9987SOL     OW41839   4.269   2.173   1.280
 9987SOL    HW141840   4.357   2.207   1.297
 9987SOL    HW241841   4.265   2.092   1.331
 9988SOL     OW41842   3.993   1.877  20.684
 9988SOL    HW141843   4.004   1.972  20.682
 9988SOL    HW241844   3.985   1.856  20.777
 9989SOL     OW41845   4.767   1.963   5.610
 9989SOL    HW141846   0.068   1.953   5.634
 9989SOL    HW241847   4.734   2.031   5.669
 9990SOL     OW41848   2.511   3.211   9.083
 9990SOL    HW141849   2.518   3.228   9.177
 9990SOL    HW241850   2.557   3.284   9.041
 9991SOL     OW41851   3.397   0.556  20.757
 9991SOL    HW141852   3.440   0.518  20.681
 9991SOL    HW241853   3.348   0.484  20.796
 9992SOL     OW41854   4.202   0.677   0.524
 9992SOL    HW141855   4.188   0.659   0.431
 9992SOL    HW241856   4.118   0.712   0.555
 9993SOL     OW41857   1.946   4.389  20.152
 9993SOL    HW141858   1.995   4.470  20.141
 9993SOL    HW241859   2.011   4.319  20.139
 9994SOL     OW41860   3.800   4.033   2.402
 9994SOL    HW141861   3.827   4.039   2.494
 9994SOL    HW241862   3.792   3.939   2.385
 9995SOL     OW41863   4.643   0.344   9.381
 9995SOL    HW141864   4.665   0.269   9.436
 9995SOL    HW241865   4.604   0.408   9.441
 9996SOL     OW41866   2.849   2.508   9.594
 9996SOL    HW141867   2.834   2.490   9.687
 9996SOL    HW241868   2.899   2.590   9.594
 9997SOL     OW41869   1.234   2.337   9.618
 9997SOL    HW141870   1.255   2.303   9.532
 9997SOL    HW241871   1.319   2.346   9.662
 9998SOL     OW41872   1.635   3.075   9.484
 9998SOL    HW141873   1.576   3.007   9.452
 9998SOL    HW241874   1.710   3.028   9.521
 9999SOL     OW41875   0.990   1.180  15.765
 9999SOL    HW141876   1.053   1.135  15.821
 9999SOL    HW241877   0.966   1.259  15.814
10000SOL     OW41878   2.277   2.427   9.626
10000SOL    HW141879   2.335   2.503   9.618
10000SOL    HW241880   2.191   2.465   9.642
10001SOL     OW41881   4.418   2.884  18.452
10001SOL    HW141882   4.358   2.957  18.467
10001SOL    HW241883   4.432   2.846  18.538
10002SOL     OW41884   2.361   3.781   8.259
10002SOL    HW141885   2.270   3.799   8.233
10002SOL    HW241886   2.357   3.698   8.305
10003SOL     OW41887   3.023   2.724   7.946
10003SOL    HW141888   3.032   2.705   8.040
10003SOL    HW241889   2.932   2.704   7.926
10004SOL     OW41890   4.092   4.450   1.621
10004SOL    HW141891   4.034   4.485   1.688
10004SOL    HW241892   4.037   4.386   1.574
10005SOL     OW41893   2.340   2.126   9.671
10005SOL    HW141894   2.423   2.131   9.623
10005SOL    HW241895   2.296   2.209   9.651
10006SOL     OW41896   2.529   2.140   8.259
10006SOL    HW141897   2.488   2.070   8.308
10006SOL    HW241898   2.615   2.151   8.300
10007SOL     OW41899   1.759   1.644   9.160
10007SOL    HW141900   1.794   1.725   9.122
10007SOL    HW241901   1.830   1.610   9.215
10008SOL     OW41902   1.734   2.668  10.379
10008SOL    HW141903   1.781   2.693  10.459
10008SOL    HW241904   1.794   2.688  10.308
10009SOL     OW41905   3.052   2.964  10.876
10009SOL    HW141906   2.993   3.036  10.852
10009SOL    HW241907   2.993   2.893  10.902
10010SOL     OW41908   1.750   2.389  10.446
10010SOL    HW141909   1.728   2.481  10.436
10010SOL    HW241910   1.675   2.342  10.408
10011SOL     OW41911   2.946   2.595   9.898
10011SOL    HW141912   2.997   2.540   9.957
10011SOL    HW241913   2.883   2.639   9.955
10012SOL     OW41914   1.448   1.817  10.349
10012SOL    HW141915   1.404   1.882  10.404
10012SOL    HW241916   1.399   1.736  10.364
10013SOL     OW41917   1.211   1.598  11.278
10013SOL    HW141918   1.123   1.624  11.249
10013SOL    HW241919   1.240   1.535  11.213
10014SOL     OW41920   2.395   3.662  10.989
10014SOL    HW141921   2.320   3.693  10.939
10014SOL    HW241922   2.381   3.697  11.077
10015SOL     OW41923   2.645   2.701  11.216
10015SOL    HW141924   2.663   2.676  11.126
10015SOL    HW241925   2.677   2.627  11.268
10016SOL     OW41926   0.267   2.966  10.081
10016SOL    HW141927   0.201   2.899  10.067
10016SOL    HW241928   0.345   2.918  10.111
10017SOL     OW41929   2.186   0.302  10.521
10017SOL    HW141930   2.181   0.388  10.481
10017SOL    HW241931   2.250   0.311  10.591
10018SOL     OW41932   2.039   1.891  10.077
10018SOL    HW141933   2.045   1.832  10.003
10018SOL    HW241934   2.046   1.979  10.039
10019SOL     OW41935   0.914   0.678  11.398
10019SOL    HW141936   0.935   0.675  11.492
10019SOL    HW241937   0.826   0.717  11.395
10020SOL     OW41938   3.107   3.709  11.106
10020SOL    HW141939   3.099   3.798  11.073
10020SOL    HW241940   3.111   3.718  11.201
10021SOL     OW41941   2.921   2.740  11.434
10021SOL    HW141942   2.828   2.760  11.426
10021SOL    HW241943   2.924   2.660  11.487
10022SOL     OW41944   3.816   2.065  11.269
10022SOL    HW141945   3.855   2.048  11.355
10022SOL    HW241946   3.786   1.979  11.239
10023SOL     OW41947   3.937   2.604  11.903
10023SOL    HW141948   3.882   2.628  11.977
10023SOL    HW241949   3.889   2.535  11.858
10024SOL     OW41950   1.707   1.006  13.197
10024SOL    HW141951   1.731   1.089  13.238
10024SOL    HW241952   1.655   0.961  13.263
10025SOL     OW41953   3.728   2.021  10.639
10025SOL    HW141954   3.808   2.036  10.589
10025SOL    HW241955   3.723   2.096  10.699
10026SOL     OW41956   2.533   1.919  12.264
10026SOL    HW141957   2.597   1.969  12.314
10026SOL    HW241958   2.539   1.954  12.175
10027SOL     OW41959   2.211   2.173  12.319
10027SOL    HW141960   2.196   2.088  12.361
10027SOL    HW241961   2.304   2.173  12.297
10028SOL     OW41962   2.155   2.288  12.803
10028SOL    HW141963   2.188   2.288  12.893
10028SOL    HW241964   2.182   2.373  12.768
10029SOL     OW41965   1.769   2.966  11.364
10029SOL    HW141966   1.863   2.955  11.380
10029SOL    HW241967   1.747   2.895  11.304
10030SOL     OW41968   2.136   3.062  12.038
10030SOL    HW141969   2.218   3.103  12.064
10030SOL    HW241970   2.153   3.028  11.950
10031SOL     OW41971   2.276   2.892  12.894
10031SOL    HW141972   2.258   2.964  12.833
10031SOL    HW241973   2.307   2.821  12.838
10032SOL     OW41974   3.367   1.722  11.517
10032SOL    HW141975   3.403   1.790  11.459
10032SOL    HW241976   3.358   1.765  11.602
10033SOL     OW41977   3.099   3.395  15.774
10033SOL    HW141978   3.176   3.428  15.821
10033SOL    HW241979   3.049   3.473  15.752
10034SOL     OW41980   4.613   0.180  17.992
10034SOL    HW141981   4.572   0.095  17.971
10034SOL    HW241982   4.697   0.177  17.946
10035SOL     OW41983   3.809   2.568   6.976
10035SOL    HW141984   3.759   2.622   7.037
10035SOL    HW241985   3.746   2.505   6.942
10036SOL     OW41986   4.490   3.808  19.561
10036SOL    HW141987   4.447   3.872  19.505
10036SOL    HW241988   4.540   3.859  19.624
10037SOL     OW41989   2.332   0.365  17.239
10037SOL    HW141990   2.317   0.272  17.259
10037SOL    HW241991   2.257   0.391  17.186
10038SOL     OW41992   2.854   0.431  16.849
10038SOL    HW141993   2.921   0.494  16.875
10038SOL    HW241994   2.834   0.383  16.929
10039SOL     OW41995   2.507   4.368   4.876
10039SOL    HW141996   2.589   4.397   4.918
10039SOL    HW241997   2.475   4.446   4.831
10040SOL     OW41998   2.939   4.020  13.927
10040SOL    HW141999   2.868   3.979  13.977
10040SOL    HW242000   3.003   4.046  13.992
10041SOL     OW42001   1.381   0.465   1.279
10041SOL    HW142002   1.327   0.458   1.358
10041SOL    HW242003   1.455   0.406   1.296
10042SOL     OW42004   2.662   3.654  19.037
10042SOL    HW142005   2.627   3.578  18.990
10042SOL    HW242006   2.743   3.622  19.078
10043SOL     OW42007   3.254   2.408  12.221
10043SOL    HW142008   3.279   2.325  12.182
10043SOL    HW242009   3.312   2.418  12.297
10044SOL     OW42010   1.434   2.823  15.949
10044SOL    HW142011   1.367   2.834  16.016
10044SOL    HW242012   1.504   2.775  15.993
10045SOL     OW42013   3.192   1.791  15.683
10045SOL    HW142014   3.175   1.779  15.589
10045SOL    HW242015   3.105   1.794  15.722
10046SOL     OW42016   4.472   1.939   5.438
10046SOL    HW142017   4.568   1.937   5.446
10046SOL    HW242018   4.441   1.889   5.514
10047SOL     OW42019   2.405   1.885  18.418
10047SOL    HW142020   2.465   1.834  18.472
10047SOL    HW242021   2.427   1.860  18.328
10048SOL     OW42022   0.533   0.177  13.513
10048SOL    HW142023   0.528   0.198  13.420
10048SOL    HW242024   0.523   0.082  13.517
10049SOL     OW42025   4.709   4.216  14.717
10049SOL    HW142026   4.769   4.205  14.643
10049SOL    HW242027   4.630   4.253  14.679
10050SOL     OW42028   3.668   1.988  13.073
10050SOL    HW142029   3.747   2.033  13.103
10050SOL    HW242030   3.668   2.000  12.978
10051SOL     OW42031   1.317   1.804   1.525
10051SOL    HW142032   1.369   1.755   1.589
10051SOL    HW242033   1.378   1.823   1.454
10052SOL     OW42034   1.969   3.954  16.150
10052SOL    HW142035   2.057   3.990  16.146
10052SOL    HW242036   1.963   3.896  16.074
10053SOL     OW42037   2.777   3.518  17.026
10053SOL    HW142038   2.831   3.472  16.961
10053SOL    HW242039   2.826   3.598  17.045
10054SOL     OW42040   3.669   3.014   1.315
10054SOL    HW142041   3.631   2.929   1.295
10054SOL    HW242042   3.607   3.055   1.374
10055SOL     OW42043   2.508   0.812   6.496
10055SOL    HW142044   2.519   0.906   6.514
10055SOL    HW242045   2.524   0.804   6.402
10056SOL     OW42046   1.130   0.111  16.352
10056SOL    HW142047   1.160   0.029  16.390
10056SOL    HW242048   1.036   0.114  16.372
10057SOL     OW42049   0.732   2.039   6.062
10057SOL    HW142050   0.764   2.011   5.977
10057SOL    HW242051   0.760   2.130   6.070
10058SOL     OW42052   2.979   3.106  17.235
10058SOL    HW142053   2.991   3.096  17.141
10058SOL    HW242054   2.885   3.097  17.248
10059SOL     OW42055   0.058   3.733   4.764
10059SOL    HW142056   4.780   3.791   4.794
10059SOL    HW242057   0.038   3.717   4.672
10060SOL     OW42058   3.358   2.516  14.406
10060SOL    HW142059   3.440   2.565  14.398
10060SOL    HW242060   3.300   2.555  14.341
10061SOL     OW42061   0.423   4.318   7.207
10061SOL    HW142062   0.438   4.343   7.116
10061SOL    HW242063   0.387   4.396   7.248
10062SOL     OW42064   4.706   3.676  13.958
10062SOL    HW142065   4.655   3.743  13.912
10062SOL    HW242066   4.658   3.595  13.943
10063SOL     OW42067   2.718   2.079  12.427
10063SOL    HW142068   2.673   2.162  12.412
10063SOL    HW242069   2.807   2.104  12.451
10064SOL     OW42070   0.274   1.229  12.176
10064SOL    HW142071   0.287   1.318  12.211
10064SOL    HW242072   0.294   1.172  12.250
10065SOL     OW42073   2.723   0.687   3.951
10065SOL    HW142074   2.648   0.627   3.953
10065SOL    HW242075   2.774   0.659   3.875
10066SOL     OW42076   1.937   1.123   5.453
10066SOL    HW142077   1.962   1.214   5.439
10066SOL    HW242078   1.842   1.126   5.470
10067SOL     OW42079   1.013   1.676   1.667
10067SOL    HW142080   1.098   1.701   1.704
10067SOL    HW242081   1.000   1.736   1.594
10068SOL     OW42082   1.824   2.215  17.996
10068SOL    HW142083   1.775   2.151  18.047
10068SOL    HW242084   1.911   2.218  18.037
10069SOL     OW42085   0.823   0.735   2.303
10069SOL    HW142086   0.856   0.775   2.384
10069SOL    HW242087   0.854   0.793   2.233
10070SOL     OW42088   3.090   1.361   4.559
10070SOL    HW142089   3.019   1.314   4.515
10070SOL    HW242090   3.083   1.335   4.651
10071SOL     OW42091   1.789   2.530  14.359
10071SOL    HW142092   1.755   2.577  14.283
10071SOL    HW242093   1.867   2.484  14.325
10072SOL     OW42094   1.691   3.786  17.341
10072SOL    HW142095   1.691   3.832  17.257
10072SOL    HW242096   1.746   3.709  17.326
10073SOL     OW42097   3.809   0.006   1.944
10073SOL    HW142098   3.825   4.723   2.003
10073SOL    HW242099   3.832   4.764   1.857
10074SOL     OW42100   4.277   4.007  17.486
10074SOL    HW142101   4.207   3.942  17.492
10074SOL    HW242102   4.357   3.955  17.499
10075SOL     OW42103   0.206   2.862  18.573
10075SOL    HW142104   0.254   2.782  18.551
10075SOL    HW242105   0.198   2.908  18.490
10076SOL     OW42106   1.519   1.116  14.190
10076SOL    HW142107   1.449   1.173  14.224
10076SOL    HW242108   1.583   1.111  14.261
10077SOL     OW42109   3.924   1.476   6.273
10077SOL    HW142110   3.982   1.544   6.307
10077SOL    HW242111   3.840   1.520   6.259
10078SOL     OW42112   2.240   1.502   4.663
10078SOL    HW142113   2.176   1.479   4.730
10078SOL    HW242114   2.301   1.562   4.706
10079SOL     OW42115   0.715   1.916  20.955
10079SOL    HW142116   0.734   1.997  20.907
10079SOL    HW242117   0.640   1.938  21.011
10080SOL     OW42118   1.785   2.805   5.775
10080SOL    HW142119   1.696   2.773   5.760
10080SOL    HW242120   1.797   2.876   5.712
10081SOL     OW42121   0.749   4.385   2.359
10081SOL    HW142122   0.738   4.457   2.421
10081SOL    HW242123   0.690   4.406   2.287
10082SOL     OW42124   0.977   2.322   1.653
10082SOL    HW142125   0.987   2.400   1.707
10082SOL    HW242126   0.943   2.255   1.712
10083SOL     OW42127   2.580   2.938   3.388
10083SOL    HW142128   2.487   2.916   3.377
10083SOL    HW242129   2.606   2.972   3.302
10084SOL     OW42130   2.067   1.714   0.488
10084SOL    HW142131   2.053   1.655   0.562
10084SOL    HW242132   2.080   1.800   0.528
10085SOL     OW42133   4.623   3.847  16.828
10085SOL    HW142134   4.588   3.758  16.821
10085SOL    HW242135   4.553   3.902  16.793
10086SOL     OW42136   2.026   2.737  18.842
10086SOL    HW142137   2.112   2.779  18.833
10086SOL    HW242138   1.963   2.807  18.821
10087SOL     OW42139   3.848   4.128  11.721
10087SOL    HW142140   3.938   4.098  11.710
10087SOL    HW242141   3.851   4.222  11.702
10088SOL     OW42142   4.288   2.221   2.454
10088SOL    HW142143   4.366   2.170   2.477
10088SOL    HW242144   4.228   2.207   2.527
10089SOL     OW42145   2.998   0.384   5.786
10089SOL    HW142146   2.929   0.320   5.804
10089SOL    HW242147   2.962   0.438   5.715
10090SOL     OW42148   2.973   4.203  13.724
10090SOL    HW142149   2.996   4.249  13.805
10090SOL    HW242150   3.004   4.114  13.737
10091SOL     OW42151   3.332   4.579  16.530
10091SOL    HW142152   3.413   4.629  16.516
10091SOL    HW242153   3.267   4.645  16.555
10092SOL     OW42154   2.214   0.905  16.547
10092SOL    HW142155   2.172   0.991  16.556
10092SOL    HW242156   2.260   0.910  16.463
10093SOL     OW42157   0.777   0.286   5.159
10093SOL    HW142158   0.692   0.328   5.174
10093SOL    HW242159   0.784   0.221   5.229
10094SOL     OW42160   2.824   2.091  20.624
10094SOL    HW142161   2.731   2.070  20.617
10094SOL    HW242162   2.848   2.125  20.538
10095SOL     OW42163   3.096   1.672   3.921
10095SOL    HW142164   3.190   1.682   3.934
10095SOL    HW242165   3.057   1.730   3.986
10096SOL     OW42166   4.365   0.563  13.378
10096SOL    HW142167   4.408   0.478  13.387
10096SOL    HW242168   4.349   0.572  13.284
10097SOL     OW42169   3.997   2.019   5.298
10097SOL    HW142170   4.008   2.039   5.391
10097SOL    HW242171   4.008   1.924   5.291
10098SOL     OW42172   3.628   2.467  13.598
10098SOL    HW142173   3.705   2.410  13.594
10098SOL    HW242174   3.652   2.535  13.661
10099SOL     OW42175   4.426   2.267  20.024
10099SOL    HW142176   4.458   2.266  20.114
10099SOL    HW242177   4.488   2.212  19.976
10100SOL     OW42178   1.203   2.429   3.889
10100SOL    HW142179   1.250   2.356   3.931
10100SOL    HW242180   1.111   2.404   3.896
10101SOL     OW42181   3.563   0.647   3.058
10101SOL    HW142182   3.598   0.732   3.031
10101SOL    HW242183   3.479   0.668   3.099
10102SOL     OW42184   0.603   3.141  16.072
10102SOL    HW142185   0.511   3.154  16.049
10102SOL    HW242186   0.605   3.058  16.119
10103SOL     OW42187   2.066   1.090   0.423
10103SOL    HW142188   2.043   1.138   0.344
10103SOL    HW242189   2.152   1.125   0.448
10104SOL     OW42190   0.656   0.147  18.905
10104SOL    HW142191   0.581   0.091  18.922
10104SOL    HW242192   0.639   0.187  18.820
10105SOL     OW42193   4.091   1.089   6.207
10105SOL    HW142194   4.111   1.000   6.235
10105SOL    HW242195   4.148   1.144   6.260
10106SOL     OW42196   2.003   2.956   3.905
10106SOL    HW142197   1.910   2.936   3.900
10106SOL    HW242198   2.021   2.965   3.999
10107SOL     OW42199   4.316   3.572   2.477
10107SOL    HW142200   4.396   3.585   2.527
10107SOL    HW242201   4.342   3.514   2.405
10108SOL     OW42202   1.877   1.737   1.004
10108SOL    HW142203   1.881   1.828   0.976
10108SOL    HW242204   1.959   1.698   0.972
10109SOL     OW42205   4.222   1.765  16.280
10109SOL    HW142206   4.299   1.758  16.224
10109SOL    HW242207   4.148   1.764  16.219
10110SOL     OW42208   4.181   0.753  11.586
10110SOL    HW142209   4.259   0.697  11.586
10110SOL    HW242210   4.179   0.792  11.498
10111SOL     OW42211   1.362   0.460  17.857
10111SOL    HW142212   1.321   0.546  17.843
10111SOL    HW242213   1.288   0.400  17.866
10112SOL     OW42214   1.772   1.604  20.676
10112SOL    HW142215   1.694   1.562  20.711
10112SOL    HW242216   1.818   1.535  20.629
10113SOL     OW42217   0.506   4.571   5.880
10113SOL    HW142218   0.570   4.553   5.811
10113SOL    HW242219   0.457   4.647   5.848
10114SOL     OW42220   0.042   0.610   6.196
10114SOL    HW142221   0.013   0.541   6.256
10114SOL    HW242222   0.107   0.568   6.141
10115SOL     OW42223   3.259   2.762  18.201
10115SOL    HW142224   3.296   2.851  18.194
10115SOL    HW242225   3.187   2.762  18.138
10116SOL     OW42226   2.180   0.680   3.687
10116SOL    HW142227   2.206   0.686   3.779
10116SOL    HW242228   2.132   0.598   3.681
10117SOL     OW42229   0.169   0.553  15.700
10117SOL    HW142230   0.236   0.520  15.761
10117SOL    HW242231   0.088   0.554  15.751
10118SOL     OW42232   4.513   0.360   5.089
10118SOL    HW142233   4.557   0.443   5.107
10118SOL    HW242234   4.461   0.343   5.168
10119SOL     OW42235   2.527   1.684   3.063
10119SOL    HW142236   2.582   1.608   3.082
10119SOL    HW242237   2.510   1.678   2.969
10120SOL     OW42238   0.268   0.661   2.541
10120SOL    HW142239   0.281   0.752   2.513
10120SOL    HW242240   0.346   0.615   2.509
10121SOL     OW42241   3.904   4.738   3.742
10121SOL    HW142242   3.935   4.745   3.832
10121SOL    HW242243   3.833   4.673   3.747
10122SOL     OW42244   1.698   2.404   4.260
10122SOL    HW142245   1.635   2.470   4.287
10122SOL    HW242246   1.721   2.358   4.341
10123SOL     OW42247   1.739   3.119  15.920
10123SOL    HW142248   1.822   3.138  15.877
10123SOL    HW242249   1.681   3.191  15.895
10124SOL     OW42250   1.373   2.642  19.183
10124SOL    HW142251   1.375   2.560  19.232
10124SOL    HW242252   1.358   2.710  19.250
10125SOL     OW42253   3.253   2.622   0.332
10125SOL    HW142254   3.218   2.705   0.363
10125SOL    HW242255   3.307   2.644   0.256
10126SOL     OW42256   2.691   1.004   3.529
10126SOL    HW142257   2.622   0.985   3.593
10126SOL    HW242258   2.709   0.919   3.488
10127SOL     OW42259   0.138   3.239   6.273
10127SOL    HW142260   0.165   3.155   6.310
10127SOL    HW242261   0.107   3.289   6.348
10128SOL     OW42262   3.680   0.638  19.747
10128SOL    HW142263   3.686   0.675  19.835
10128SOL    HW242264   3.703   0.546  19.758
10129SOL     OW42265   4.450   3.817   9.159
10129SOL    HW142266   4.355   3.829   9.163
10129SOL    HW242267   4.462   3.745   9.097
10130SOL     OW42268   1.852   1.804  18.287
10130SOL    HW142269   1.854   1.728  18.229
10130SOL    HW242270   1.942   1.813  18.319
10131SOL     OW42271   2.072   2.733   1.955
10131SOL    HW142272   2.049   2.651   1.999
10131SOL    HW242273   2.010   2.797   1.988
10132SOL     OW42274   2.184   0.077   1.528
10132SOL    HW142275   2.220   0.061   1.616
10132SOL    HW242276   2.227   0.012   1.473
10133SOL     OW42277   4.318   1.876   6.333
10133SOL    HW142278   4.411   1.855   6.335
10133SOL    HW242279   4.284   1.841   6.416
10134SOL     OW42280   3.825   1.493  20.165
10134SOL    HW142281   3.869   1.555  20.224
10134SOL    HW242282   3.833   1.409  20.210
10135SOL     OW42283   1.355   1.368   0.604
10135SOL    HW142284   1.378   1.454   0.568
10135SOL    HW242285   1.361   1.380   0.699
10136SOL     OW42286   3.691   4.573   2.636
10136SOL    HW142287   3.777   4.572   2.677
10136SOL    HW242288   3.693   4.498   2.576
10137SOL     OW42289   2.541   4.191   3.865
10137SOL    HW142290   2.483   4.114   3.862
10137SOL    HW242291   2.608   4.167   3.929
10138SOL     OW42292   4.323   4.715  14.791
10138SOL    HW142293   4.386   4.719  14.719
10138SOL    HW242294   4.365   4.657  14.855
10139SOL     OW42295   2.723   1.091   2.563
10139SOL    HW142296   2.744   1.075   2.655
10139SOL    HW242297   2.761   1.177   2.545
10140SOL     OW42298   3.767   3.382   6.072
10140SOL    HW142299   3.759   3.287   6.078
10140SOL    HW242300   3.764   3.412   6.163
10141SOL     OW42301   1.949   2.620   6.334
10141SOL    HW142302   1.965   2.565   6.411
10141SOL    HW242303   1.896   2.692   6.368
10142SOL     OW42304   2.624   1.115  19.807
10142SOL    HW142305   2.656   1.048  19.867
10142SOL    HW242306   2.542   1.146  19.847
10143SOL     OW42307   1.959   3.373   2.251
10143SOL    HW142308   1.998   3.460   2.248
10143SOL    HW242309   2.004   3.324   2.182
10144SOL     OW42310   3.863   2.465  13.742
10144SOL    HW142311   3.907   2.401  13.684
10144SOL    HW242312   3.874   2.428  13.830
10145SOL     OW42313   3.744   4.095  13.745
10145SOL    HW142314   3.747   4.044  13.664
10145SOL    HW242315   3.685   4.167  13.726
10146SOL     OW42316   4.228   1.651  19.322
10146SOL    HW142317   4.163   1.582  19.315
10146SOL    HW242318   4.311   1.606  19.339
10147SOL     OW42319   0.909   2.619   4.181
10147SOL    HW142320   0.978   2.673   4.142
10147SOL    HW242321   0.897   2.655   4.269
10148SOL     OW42322   0.948   1.983  15.248
10148SOL    HW142323   0.956   1.956  15.339
10148SOL    HW242324   0.865   1.945  15.219
10149SOL     OW42325   2.334   4.050   1.579
10149SOL    HW142326   2.415   4.051   1.529
10149SOL    HW242327   2.325   3.959   1.608
10150SOL     OW42328   2.005   4.280  14.203
10150SOL    HW142329   2.061   4.313  14.273
10150SOL    HW242330   1.975   4.359  14.157
10151SOL     OW42331   4.682   3.315   6.632
10151SOL    HW142332   4.730   3.268   6.701
10151SOL    HW242333   4.748   3.336   6.566
10152SOL     OW42334   3.223   0.298   0.933
10152SOL    HW142335   3.267   0.278   0.850
10152SOL    HW242336   3.270   0.247   0.998
10153SOL     OW42337   3.020   2.143   2.861
10153SOL    HW142338   2.988   2.053   2.857
10153SOL    HW242339   3.069   2.148   2.943
10154SOL     OW42340   3.948   1.638   1.581
10154SOL    HW142341   3.997   1.558   1.603
10154SOL    HW242342   3.866   1.606   1.543
10155SOL     OW42343   1.950   1.469   2.109
10155SOL    HW142344   1.933   1.499   2.198
10155SOL    HW242345   2.006   1.392   2.120
10156SOL     OW42346   2.237   4.055  20.738
10156SOL    HW142347   2.289   4.084  20.662
10156SOL    HW242348   2.261   3.963  20.749
10157SOL     OW42349   4.027   2.231  19.539
10157SOL    HW142350   3.938   2.196  19.529
10157SOL    HW242351   4.082   2.153  19.553
10158SOL     OW42352   2.897   2.379   3.768
10158SOL    HW142353   2.853   2.303   3.730
10158SOL    HW242354   2.924   2.351   3.855
10159SOL     OW42355   1.963   2.067  21.095
10159SOL    HW142356   1.926   2.143  21.051
10159SOL    HW242357   2.032   2.102  21.151
10160SOL     OW42358   0.883   3.188  15.364
10160SOL    HW142359   0.875   3.093  15.371
10160SOL    HW242360   0.976   3.204  15.351
10161SOL     OW42361   4.407   4.412   6.718
10161SOL    HW142362   4.383   4.335   6.666
10161SOL    HW242363   4.430   4.376   6.804
10162SOL     OW42364   2.806   4.494   4.161
10162SOL    HW142365   2.899   4.499   4.183
10162SOL    HW242366   2.803   4.439   4.083
10163SOL     OW42367   4.723   4.676   6.889
10163SOL    HW142368   4.659   4.736   6.928
10163SOL    HW242369   4.740   4.611   6.957
10164SOL     OW42370   2.482   4.135  16.743
10164SOL    HW142371   2.487   4.140  16.839
10164SOL    HW242372   2.572   4.146  16.713
10165SOL     OW42373   4.488   4.043  17.875
10165SOL    HW142374   4.463   4.124  17.919
10165SOL    HW242375   4.436   4.043  17.794
10166SOL     OW42376   3.200   2.878  16.313
10166SOL    HW142377   3.205   2.974  16.304
10166SOL    HW242378   3.120   2.854  16.265
10167SOL     OW42379   3.227   2.894   2.102
10167SOL    HW142380   3.145   2.941   2.117
10167SOL    HW242381   3.294   2.950   2.142
10168SOL     OW42382   2.879   2.411  20.189
10168SOL    HW142383   2.811   2.427  20.123
10168SOL    HW242384   2.961   2.428  20.143
10169SOL     OW42385   1.130   1.975  18.487
10169SOL    HW142386   1.091   2.061  18.506
10169SOL    HW242387   1.117   1.963  18.393
10170SOL     OW42388   2.520   2.127   6.338
10170SOL    HW142389   2.517   2.060   6.406
10170SOL    HW242390   2.446   2.106   6.281
10171SOL     OW42391   4.576   4.049  15.202
10171SOL    HW142392   4.514   4.027  15.271
10171SOL    HW242393   4.618   3.966  15.181
10172SOL     OW42394   3.440   2.690   7.876
10172SOL    HW142395   3.499   2.647   7.815
10172SOL    HW242396   3.427   2.777   7.839
10173SOL     OW42397   4.680   1.771  21.094
10173SOL    HW142398   4.755   1.831  21.098
10173SOL    HW242399   4.702   1.711  21.022
10174SOL     OW42400   0.881   2.946  13.706
10174SOL    HW142401   0.858   3.039  13.694
10174SOL    HW242402   0.930   2.944  13.788
10175SOL     OW42403   1.427   0.130   5.949
10175SOL    HW142404   1.398   0.137   6.040
10175SOL    HW242405   1.394   0.210   5.908
10176SOL     OW42406   2.816   3.579  19.616
10176SOL    HW142407   2.732   3.549  19.582
10176SOL    HW242408   2.802   3.587  19.711
10177SOL     OW42409   3.520   2.241  18.003
10177SOL    HW142410   3.546   2.252  17.912
10177SOL    HW242411   3.441   2.295  18.013
10178SOL     OW42412   0.877   3.333  13.524
10178SOL    HW142413   0.810   3.289  13.577
10178SOL    HW242414   0.889   3.275  13.448
10179SOL     OW42415   2.468   1.969   3.780
10179SOL    HW142416   2.508   2.030   3.718
10179SOL    HW242417   2.455   2.020   3.859
10180SOL     OW42418   2.571   4.536  17.068
10180SOL    HW142419   2.495   4.524  17.011
10180SOL    HW242420   2.536   4.575  17.148
10181SOL     OW42421   1.384   3.578  19.182
10181SOL    HW142422   1.407   3.614  19.096
10181SOL    HW242423   1.313   3.634  19.213
10182SOL     OW42424   0.101   0.728   4.601
10182SOL    HW142425   0.092   0.751   4.694
10182SOL    HW242426   0.041   0.655   4.589
10183SOL     OW42427   1.657   2.857   6.625
10183SOL    HW142428   1.657   2.765   6.599
10183SOL    HW242429   1.615   2.903   6.552
10184SOL     OW42430   3.218   1.863   1.837
10184SOL    HW142431   3.246   1.825   1.920
10184SOL    HW242432   3.169   1.942   1.862
10185SOL     OW42433   0.486   3.022   4.910
10185SOL    HW142434   0.466   2.934   4.941
10185SOL    HW242435   0.571   3.043   4.948
10186SOL     OW42436   0.640   4.538  16.418
10186SOL    HW142437   0.588   4.610  16.453
10186SOL    HW242438   0.731   4.564  16.432
10187SOL     OW42439   0.180   2.231  20.479
10187SOL    HW142440   0.205   2.171  20.408
10187SOL    HW242441   0.198   2.181  20.559
10188SOL     OW42442   0.913   2.143  17.114
10188SOL    HW142443   0.977   2.214  17.125
10188SOL    HW242444   0.831   2.186  17.092
10189SOL     OW42445   3.441   0.539  16.094
10189SOL    HW142446   3.425   0.608  16.158
10189SOL    HW242447   3.523   0.499  16.122
10190SOL     OW42448   4.063   1.081  18.224
10190SOL    HW142449   4.155   1.097  18.202
10190SOL    HW242450   4.060   0.990  18.252
10191SOL     OW42451   3.641   3.439  18.263
10191SOL    HW142452   3.551   3.430  18.295
10191SOL    HW242453   3.694   3.446  18.343
10192SOL     OW42454   2.816   0.671  14.384
10192SOL    HW142455   2.859   0.613  14.322
10192SOL    HW242456   2.888   0.716  14.428
10193SOL     OW42457   3.900   0.621   3.464
10193SOL    HW142458   3.831   0.595   3.403
10193SOL    HW242459   3.853   0.666   3.535
10194SOL     OW42460   4.055   0.627   0.261
10194SOL    HW142461   4.017   0.692   0.202
10194SOL    HW242462   3.986   0.609   0.325
10195SOL     OW42463   2.027   2.387  17.613
10195SOL    HW142464   2.074   2.455  17.564
10195SOL    HW242465   2.093   2.349  17.671
10196SOL     OW42466   0.780   4.607   5.282
10196SOL    HW142467   0.808   4.545   5.350
10196SOL    HW242468   0.815   4.571   5.201
10197SOL     OW42469   3.049   2.553  13.917
10197SOL    HW142470   2.997   2.565  13.838
10197SOL    HW242471   3.066   2.642  13.948
10198SOL     OW42472   0.277   4.200  17.739
10198SOL    HW142473   0.342   4.135  17.765
10198SOL    HW242474   0.261   4.182  17.646
10199SOL     OW42475   1.830   2.741   2.794
10199SOL    HW142476   1.746   2.784   2.814
10199SOL    HW242477   1.812   2.689   2.716
10200SOL     OW42478   0.569   1.143  19.288
10200SOL    HW142479   0.630   1.158  19.361
10200SOL    HW242480   0.519   1.066  19.315
10201SOL     OW42481   2.197   2.974  15.131
10201SOL    HW142482   2.170   2.892  15.088
10201SOL    HW242483   2.286   2.989  15.099
10202SOL     OW42484   0.483   4.621   6.147
10202SOL    HW142485   0.395   4.654   6.168
10202SOL    HW242486   0.473   4.579   6.062
10203SOL     OW42487   1.408   3.543   2.192
10203SOL    HW142488   1.480   3.479   2.191
10203SOL    HW242489   1.370   3.535   2.279
10204SOL     OW42490   0.324   1.551  11.965
10204SOL    HW142491   0.333   1.536  12.059
10204SOL    HW242492   0.354   1.641  11.952
10205SOL     OW42493   2.269   1.019  15.140
10205SOL    HW142494   2.327   0.959  15.185
10205SOL    HW242495   2.182   0.997  15.172
10206SOL     OW42496   0.163   0.815  19.427
10206SOL    HW142497   0.116   0.748  19.477
10206SOL    HW242498   0.106   0.892  19.431
10207SOL     OW42499   3.159   0.752   5.331
10207SOL    HW142500   3.129   0.820   5.390
10207SOL    HW242501   3.095   0.751   5.260
10208SOL     OW42502   4.455   4.326   5.185
10208SOL    HW142503   4.410   4.300   5.105
10208SOL    HW242504   4.431   4.418   5.197
10209SOL     OW42505   3.425   1.213  19.057
10209SOL    HW142506   3.486   1.140  19.063
10209SOL    HW242507   3.470   1.286  19.100
10210SOL     OW42508   4.482   4.173   2.680
10210SOL    HW142509   4.549   4.166   2.748
10210SOL    HW242510   4.529   4.159   2.598
10211SOL     OW42511   4.044   2.670  15.142
10211SOL    HW142512   4.021   2.753  15.183
10211SOL    HW242513   3.972   2.653  15.081
10212SOL     OW42514   0.250   3.293  16.337
10212SOL    HW142515   0.266   3.208  16.296
10212SOL    HW242516   0.250   3.355  16.264
10213SOL     OW42517   3.435   2.110  15.345
10213SOL    HW142518   3.495   2.183  15.362
10213SOL    HW242519   3.357   2.151  15.308
10214SOL     OW42520   0.007   1.233   4.278
10214SOL    HW142521   4.764   1.308   4.326
10214SOL    HW242522   4.743   1.227   4.200
10215SOL     OW42523   2.888   2.825  20.831
10215SOL    HW142524   2.937   2.821  20.913
10215SOL    HW242525   2.944   2.782  20.767
10216SOL     OW42526   0.911   1.738   6.896
10216SOL    HW142527   0.879   1.733   6.986
10216SOL    HW242528   0.915   1.647   6.867
10217SOL     OW42529   1.327   2.369   5.377
10217SOL    HW142530   1.350   2.376   5.284
10217SOL    HW242531   1.235   2.342   5.377
10218SOL     OW42532   1.142   0.692  13.719
10218SOL    HW142533   1.137   0.785  13.740
10218SOL    HW242534   1.236   0.673  13.719
10219SOL     OW42535   2.191   3.311  20.291
10219SOL    HW142536   2.226   3.306  20.202
10219SOL    HW242537   2.222   3.231  20.334
10220SOL     OW42538   0.300   4.769   0.480
10220SOL    HW142539   0.275   0.011   0.567
10220SOL    HW242540   0.218   4.737   0.442
10221SOL     OW42541   3.559   4.427   0.677
10221SOL    HW142542   3.600   4.479   0.607
10221SOL    HW242543   3.506   4.490   0.726
10222SOL     OW42544   2.299   1.571  20.186
10222SOL    HW142545   2.381   1.604  20.222
10222SOL    HW242546   2.310   1.476  20.185
10223SOL     OW42547   3.098   0.947   3.391
10223SOL    HW142548   3.166   0.964   3.456
10223SOL    HW242549   3.051   0.870   3.424
10224SOL     OW42550   4.584   4.635   1.669
10224SOL    HW142551   4.519   4.705   1.663
10224SOL    HW242552   4.573   4.584   1.589
10225SOL     OW42553   3.198   3.760  17.674
10225SOL    HW142554   3.204   3.729  17.583
10225SOL    HW242555   3.112   3.802  17.679
10226SOL     OW42556   0.445   3.462  15.682
10226SOL    HW142557   0.380   3.401  15.717
10226SOL    HW242558   0.402   3.503  15.607
10227SOL     OW42559   3.803   0.873  18.981
10227SOL    HW142560   3.889   0.860  18.942
10227SOL    HW242561   3.810   0.957  19.027
10228SOL     OW42562   3.844   0.239  11.222
10228SOL    HW142563   3.879   0.279  11.301
10228SOL    HW242564   3.906   0.264  11.153
10229SOL     OW42565   1.737   0.207  19.830
10229SOL    HW142566   1.694   0.163  19.756
10229SOL    HW242567   1.819   0.158  19.842
10230SOL     OW42568   3.699   4.470  17.484
10230SOL    HW142569   3.726   4.400  17.425
10230SOL    HW242570   3.740   4.549  17.447
10231SOL     OW42571   0.185   1.944   0.531
10231SOL    HW142572   0.226   1.900   0.456
10231SOL    HW242573   0.197   1.882   0.604
10232SOL     OW42574   2.600   2.238  19.808
10232SOL    HW142575   2.628   2.221  19.897
10232SOL    HW242576   2.510   2.205  19.804
10233SOL     OW42577   2.957   3.551  18.607
10233SOL    HW142578   2.899   3.618  18.569
10233SOL    HW242579   2.897   3.491  18.653
10234SOL     OW42580   4.447   1.857  19.529
10234SOL    HW142581   4.506   1.891  19.596
10234SOL    HW242582   4.376   1.816  19.578
10235SOL     OW42583   0.361   2.694   4.974
10235SOL    HW142584   0.432   2.644   5.013
10235SOL    HW242585   0.376   2.688   4.880
10236SOL     OW42586   3.404   3.846  12.669
10236SOL    HW142587   3.387   3.753  12.654
10236SOL    HW242588   3.361   3.865  12.752
10237SOL     OW42589   3.836   1.123  19.409
10237SOL    HW142590   3.743   1.102  19.418
10237SOL    HW242591   3.853   1.185  19.480
10238SOL     OW42592   1.630   1.971   3.967
10238SOL    HW142593   1.599   2.043   4.022
10238SOL    HW242594   1.578   1.896   3.994
10239SOL     OW42595   4.637   2.983   2.344
10239SOL    HW142596   4.564   2.976   2.283
10239SOL    HW242597   4.632   3.072   2.377
10240SOL     OW42598   1.900   1.548  12.268
10240SOL    HW142599   1.986   1.513  12.244
10240SOL    HW242600   1.915   1.598  12.348
10241SOL     OW42601   3.103   4.607   6.311
10241SOL    HW142602   3.139   4.642   6.229
10241SOL    HW242603   3.168   4.542   6.340
10242SOL     OW42604   2.700   3.234   2.132
10242SOL    HW142605   2.657   3.239   2.217
10242SOL    HW242606   2.644   3.177   2.080
10243SOL     OW42607   1.819   4.764  21.183
10243SOL    HW142608   1.882   0.033  21.143
10243SOL    HW242609   1.760   4.741  21.111
10244SOL     OW42610   0.356   2.088  19.543
10244SOL    HW142611   0.359   2.147  19.468
10244SOL    HW242612   0.323   2.143  19.615
10245SOL     OW42613   4.715   1.611   8.026
10245SOL    HW142614   4.659   1.543   7.988
10245SOL    HW242615   4.729   1.673   7.954
10246SOL     OW42616   3.592   0.232   2.317
10246SOL    HW142617   3.626   0.321   2.306
10246SOL    HW242618   3.526   0.239   2.386
10247SOL     OW42619   0.813   2.883  18.184
10247SOL    HW142620   0.863   2.964  18.171
10247SOL    HW242621   0.730   2.912  18.222
10248SOL     OW42622   1.223   2.332  14.794
10248SOL    HW142623   1.300   2.389  14.790
10248SOL    HW242624   1.149   2.393  14.797
10249SOL     OW42625   3.904   1.018  16.430
10249SOL    HW142626   3.915   1.113  16.435
10249SOL    HW242627   3.950   0.993  16.349
10250SOL     OW42628   0.281   1.700  20.612
10250SOL    HW142629   0.336   1.721  20.537
10250SOL    HW242630   0.196   1.739  20.591
10251SOL     OW42631   0.671   1.705  17.431
10251SOL    HW142632   0.707   1.714  17.519
10251SOL    HW242633   0.597   1.765  17.429
10252SOL     OW42634   1.341   4.120   3.791
10252SOL    HW142635   1.276   4.096   3.856
10252SOL    HW242636   1.291   4.140   3.712
10253SOL     OW42637   0.712   2.466  18.934
10253SOL    HW142638   0.781   2.496  18.993
10253SOL    HW242639   0.760   2.433  18.857
10254SOL     OW42640   1.486   4.750   2.256
10254SOL    HW142641   1.452   0.005   2.179
10254SOL    HW242642   1.566   4.707   2.226
10255SOL     OW42643   3.179   0.676   2.700
10255SOL    HW142644   3.151   0.613   2.634
10255SOL    HW242645   3.262   0.710   2.667
10256SOL     OW42646   3.487   1.838   3.103
10256SOL    HW142647   3.508   1.765   3.160
10256SOL    HW242648   3.421   1.888   3.152
10257SOL     OW42649   3.065   4.049   2.197
10257SOL    HW142650   3.050   3.954   2.191
10257SOL    HW242651   3.159   4.059   2.185
10258SOL     OW42652   2.295   1.986  20.315
10258SOL    HW142653   2.359   1.933  20.362
10258SOL    HW242654   2.248   2.033  20.384
10259SOL     OW42655   2.733   0.964  19.997
10259SOL    HW142656   2.787   1.043  20.003
10259SOL    HW242657   2.790   0.893  20.025
10260SOL     OW42658   4.661   0.945  20.342
10260SOL    HW142659   4.685   0.956  20.250
10260SOL    HW242660   4.729   0.992  20.391
10261SOL     OW42661   2.368   3.961   3.806
10261SOL    HW142662   2.277   3.988   3.792
10261SOL    HW242663   2.362   3.874   3.846
10262SOL     OW42664   2.054   0.649  19.632
10262SOL    HW142665   2.011   0.584  19.576
10262SOL    HW242666   2.053   0.729  19.580
10263SOL     OW42667   1.936   3.829   5.339
10263SOL    HW142668   2.030   3.812   5.340
10263SOL    HW242669   1.905   3.790   5.257
10264SOL     OW42670   0.744   3.605   5.046
10264SOL    HW142671   0.743   3.694   5.082
10264SOL    HW242672   0.829   3.597   5.003
10265SOL     OW42673   1.098   2.233   0.262
10265SOL    HW142674   1.042   2.240   0.339
10265SOL    HW242675   1.187   2.232   0.297
10266SOL     OW42676   1.828   0.033  16.032
10266SOL    HW142677   1.818   0.081  16.114
10266SOL    HW242678   1.783   0.087  15.967
10267SOL     OW42679   0.331   3.020  14.582
10267SOL    HW142680   0.369   3.057  14.662
10267SOL    HW242681   0.299   3.096  14.533
10268SOL     OW42682   1.788   0.385  20.051
10268SOL    HW142683   1.797   0.307  19.996
10268SOL    HW242684   1.769   0.351  20.138
10269SOL     OW42685   4.228   2.312   2.212
10269SOL    HW142686   4.228   2.254   2.287
10269SOL    HW242687   4.321   2.328   2.193
10270SOL     OW42688   2.274   1.157   0.782
10270SOL    HW142689   2.248   1.066   0.791
10270SOL    HW242690   2.346   1.169   0.843
10271SOL     OW42691   0.861   4.211  14.427
10271SOL    HW142692   0.832   4.180  14.341
10271SOL    HW242693   0.952   4.180  14.434
10272SOL     OW42694   0.446   2.820   1.613
10272SOL    HW142695   0.497   2.740   1.609
10272SOL    HW242696   0.419   2.827   1.705
10273SOL     OW42697   4.781   0.553  20.556
10273SOL    HW142698   4.747   0.464  20.562
10273SOL    HW242699   0.047   0.563  20.632
10274SOL     OW42700   0.103   3.363   2.060
10274SOL    HW142701   0.166   3.398   1.996
10274SOL    HW242702   0.051   3.300   2.010
10275SOL     OW42703   4.751   4.574   5.706
10275SOL    HW142704   4.702   4.504   5.663
10275SOL    HW242705   4.761   4.642   5.638
10276SOL     OW42706   1.981   0.995  16.035
10276SOL    HW142707   1.986   0.902  16.012
10276SOL    HW242708   1.887   1.012  16.046
10277SOL     OW42709   4.161   0.178   5.273
10277SOL    HW142710   4.256   0.167   5.267
10277SOL    HW242711   4.131   0.103   5.324
10278SOL     OW42712   1.376   3.003  12.303
10278SOL    HW142713   1.375   2.967  12.392
10278SOL    HW242714   1.457   3.053  12.298
10279SOL     OW42715   2.488   3.136   0.071
10279SOL    HW142716   2.479   3.050   0.029
10279SOL    HW242717   2.449   3.125   0.157
10280SOL     OW42718   0.279   4.513  13.750
10280SOL    HW142719   0.281   4.418  13.759
10280SOL    HW242720   0.350   4.532  13.688
10281SOL     OW42721   0.982   0.508   2.693
10281SOL    HW142722   0.936   0.429   2.721
10281SOL    HW242723   1.063   0.508   2.744
10282SOL     OW42724   4.692   4.351   3.500
10282SOL    HW142725   4.759   4.297   3.541
10282SOL    HW242726   4.616   4.293   3.491
10283SOL     OW42727   4.485   0.235   1.410
10283SOL    HW142728   4.556   0.202   1.465
10283SOL    HW242729   4.427   0.281   1.471
10284SOL     OW42730   4.701   4.388  17.778
10284SOL    HW142731   4.612   4.420  17.766
10284SOL    HW242732   4.727   4.421  17.864
10285SOL     OW42733   2.614   0.431  12.951
10285SOL    HW142734   2.585   0.509  12.902
10285SOL    HW242735   2.618   0.461  13.042
10286SOL     OW42736   2.054   4.678   6.788
10286SOL    HW142737   1.963   4.649   6.798
10286SOL    HW242738   2.083   4.639   6.706
10287SOL     OW42739   0.286   0.789  12.125
10287SOL    HW142740   0.221   0.723  12.102
10287SOL    HW242741   0.343   0.794  12.049
10288SOL     OW42742   0.792   2.894  21.220
10288SOL    HW142743   0.705   2.875  21.254
10288SOL    HW242744   0.851   2.853   0.021
10289SOL     OW42745   4.269   1.635   5.083
10289SOL    HW142746   4.349   1.667   5.125
10289SOL    HW242747   4.270   1.676   4.996
10290SOL     OW42748   3.890   0.959   4.408
10290SOL    HW142749   3.797   0.945   4.387
10290SOL    HW242750   3.905   0.908   4.487
10291SOL     OW42751   3.003   2.402   0.602
10291SOL    HW142752   3.055   2.474   0.639
10291SOL    HW242753   3.039   2.323   0.643
10292SOL     OW42754   2.118   3.410  19.111
10292SOL    HW142755   2.057   3.336  19.106
10292SOL    HW242756   2.176   3.389  19.185
10293SOL     OW42757   4.216   4.165  18.288
10293SOL    HW142758   4.218   4.069  18.285
10293SOL    HW242759   4.194   4.191  18.199
10294SOL     OW42760   4.404   3.676  16.567
10294SOL    HW142761   4.322   3.651  16.611
10294SOL    HW242762   4.376   3.728  16.492
10295SOL     OW42763   2.965   1.977   3.339
10295SOL    HW142764   2.993   1.899   3.290
10295SOL    HW242765   2.978   1.953   3.431
10296SOL     OW42766   1.245   3.226  17.270
10296SOL    HW142767   1.330   3.185  17.288
10296SOL    HW242768   1.266   3.316  17.246
10297SOL     OW42769   2.575   0.325   1.727
10297SOL    HW142770   2.612   0.398   1.677
10297SOL    HW242771   2.564   0.359   1.815
10298SOL     OW42772   4.681   3.665  16.564
10298SOL    HW142773   4.716   3.702  16.484
10298SOL    HW242774   4.587   3.677  16.557
10299SOL     OW42775   2.357   3.049  18.061
10299SOL    HW142776   2.273   3.057  18.016
10299SOL    HW242777   2.386   2.960  18.041
10300SOL     OW42778   0.900   2.904   2.769
10300SOL    HW142779   0.977   2.960   2.765
10300SOL    HW242780   0.826   2.965   2.766
10301SOL     OW42781   2.487   1.071   2.406
10301SOL    HW142782   2.432   0.999   2.437
10301SOL    HW242783   2.569   1.060   2.454
10302SOL     OW42784   4.134   0.699  19.466
10302SOL    HW142785   4.177   0.620  19.432
10302SOL    HW242786   4.056   0.666  19.510
10303SOL     OW42787   2.200   4.063   4.442
10303SOL    HW142788   2.261   4.069   4.515
10303SOL    HW242789   2.130   4.006   4.473
10304SOL     OW42790   3.102   0.108   5.834
10304SOL    HW142791   3.048   0.121   5.912
10304SOL    HW242792   3.101   0.192   5.789
10305SOL     OW42793   2.108   2.676  11.784
10305SOL    HW142794   2.029   2.623  11.771
10305SOL    HW242795   2.181   2.615  11.770
10306SOL     OW42796   0.879   3.652   2.029
10306SOL    HW142797   0.974   3.658   2.032
10306SOL    HW242798   0.858   3.641   1.937
10307SOL     OW42799   1.141   0.372   2.897
10307SOL    HW142800   1.109   0.325   2.974
10307SOL    HW242801   1.232   0.343   2.888
10308SOL     OW42802   1.868   2.111   3.751
10308SOL    HW142803   1.952   2.155   3.768
10308SOL    HW242804   1.817   2.126   3.831
10309SOL     OW42805   0.914   0.769  16.121
10309SOL    HW142806   0.956   0.803  16.043
10309SOL    HW242807   0.948   0.680  16.130
10310SOL     OW42808   3.447   0.330  16.635
10310SOL    HW142809   3.420   0.344  16.726
10310SOL    HW242810   3.530   0.284  16.642
10311SOL     OW42811   2.233   0.825   9.847
10311SOL    HW142812   2.211   0.862   9.932
10311SOL    HW242813   2.156   0.842   9.793
10312SOL     OW42814   1.829   0.075  16.699
10312SOL    HW142815   1.883   0.013  16.650
10312SOL    HW242816   1.803   0.027  16.778
10313SOL     OW42817   3.823   0.068  16.450
10313SOL    HW142818   3.909   0.076  16.491
10313SOL    HW242819   3.790   0.158  16.446
10314SOL     OW42820   4.477   4.444  19.869
10314SOL    HW142821   4.384   4.461  19.885
10314SOL    HW242822   4.518   4.458  19.954
10315SOL     OW42823   0.384   1.766   4.560
10315SOL    HW142824   0.446   1.767   4.487
10315SOL    HW242825   0.325   1.693   4.540
10316SOL     OW42826   0.947   3.136  18.487
10316SOL    HW142827   0.894   3.208  18.453
10316SOL    HW242828   0.903   3.110  18.568
10317SOL     OW42829   4.390   1.640   1.254
10317SOL    HW142830   4.337   1.631   1.175
10317SOL    HW242831   4.328   1.666   1.322
10318SOL     OW42832   1.799   4.234   2.548
10318SOL    HW142833   1.813   4.153   2.597
10318SOL    HW242834   1.733   4.211   2.482
10319SOL     OW42835   1.053   0.349   4.678
10319SOL    HW142836   1.002   0.387   4.606
10319SOL    HW242837   1.143   0.348   4.647
10320SOL     OW42838   3.648   0.127  20.873
10320SOL    HW142839   3.724   0.078  20.906
10320SOL    HW242840   3.666   0.218  20.897
10321SOL     OW42841   0.769   2.817   4.745
10321SOL    HW142842   0.765   2.859   4.831
10321SOL    HW242843   0.861   2.794   4.734
10322SOL     OW42844   3.427   2.563   1.766
10322SOL    HW142845   3.342   2.606   1.752
10322SOL    HW242846   3.473   2.572   1.683
10323SOL     OW42847   3.526   1.052  18.461
10323SOL    HW142848   3.437   1.017  18.468
10323SOL    HW242849   3.549   1.078  18.550
10324SOL     OW42850   0.285   1.286   2.842
10324SOL    HW142851   0.244   1.365   2.877
10324SOL    HW242852   0.278   1.222   2.913
10325SOL     OW42853   3.865   2.761   7.300
10325SOL    HW142854   3.860   2.665   7.299
10325SOL    HW242855   3.922   2.782   7.226
10326SOL     OW42856   0.480   3.734   8.225
10326SOL    HW142857   0.452   3.702   8.139
10326SOL    HW242858   0.571   3.760   8.211
10327SOL     OW42859   0.134   1.738  17.830
10327SOL    HW142860   0.188   1.672  17.787
10327SOL    HW242861   0.163   1.737  17.922
10328SOL     OW42862   1.764   1.658   4.681
10328SOL    HW142863   1.705   1.732   4.667
10328SOL    HW242864   1.848   1.689   4.648
10329SOL     OW42865   0.123   3.559  15.399
10329SOL    HW142866   0.134   3.637  15.344
10329SOL    HW242867   0.211   3.539  15.431
10330SOL     OW42868   4.433   1.001  16.636
10330SOL    HW142869   4.391   1.074  16.591
10330SOL    HW242870   4.506   0.977  16.580
10331SOL     OW42871   0.741   4.244  14.679
10331SOL    HW142872   0.834   4.252  14.700
10331SOL    HW242873   0.739   4.244  14.583
10332SOL     OW42874   3.398   2.508   5.402
10332SOL    HW142875   3.424   2.470   5.318
10332SOL    HW242876   3.478   2.551   5.433
10333SOL     OW42877   0.904   4.480   5.547
10333SOL    HW142878   0.876   4.464   5.637
10333SOL    HW242879   0.969   4.413   5.529
10334SOL     OW42880   4.441   2.851   8.315
10334SOL    HW142881   4.441   2.946   8.304
10334SOL    HW242882   4.492   2.819   8.241
10335SOL     OW42883   0.624   2.809  13.732
10335SOL    HW142884   0.555   2.865  13.696
10335SOL    HW242885   0.706   2.852  13.707
10336SOL     OW42886   0.709   0.272  17.625
10336SOL    HW142887   0.732   0.360  17.595
10336SOL    HW242888   0.757   0.213  17.567
10337SOL     OW42889   3.769   0.785   3.634
10337SOL    HW142890   3.798   0.795   3.725
10337SOL    HW242891   3.687   0.833   3.630
10338SOL     OW42892   0.925   1.924   3.776
10338SOL    HW142893   0.992   1.887   3.719
10338SOL    HW242894   0.850   1.865   3.768
10339SOL     OW42895   3.058   4.435   3.507
10339SOL    HW142896   3.041   4.517   3.461
10339SOL    HW242897   2.980   4.421   3.560
10340SOL     OW42898   3.284   3.284   2.043
10340SOL    HW142899   3.264   3.363   1.993
10340SOL    HW242900   3.211   3.275   2.105
10341SOL     OW42901   2.939   2.297   6.150
10341SOL    HW142902   2.859   2.292   6.201
10341SOL    HW242903   2.924   2.241   6.074
10342SOL     OW42904   0.309   0.576   0.964
10342SOL    HW142905   0.375   0.560   1.032
10342SOL    HW242906   0.230   0.533   0.996
10343SOL     OW42907   1.923   0.896   3.655
10343SOL    HW142908   2.008   0.854   3.648
10343SOL    HW242909   1.905   0.898   3.749
10344SOL     OW42910   4.215   1.096   1.006
10344SOL    HW142911   4.249   1.175   1.050
10344SOL    HW242912   4.196   1.125   0.917
10345SOL     OW42913   1.538   2.952   0.999
10345SOL    HW142914   1.574   2.896   1.068
10345SOL    HW242915   1.564   2.908   0.918
10346SOL     OW42916   3.086   0.304   3.082
10346SOL    HW142917   3.132   0.377   3.042
10346SOL    HW242918   2.993   0.322   3.066
10347SOL     OW42919   0.536   4.389   6.273
10347SOL    HW142920   0.528   4.484   6.264
10347SOL    HW242921   0.447   4.356   6.263
10348SOL     OW42922   3.754   3.211   2.233
10348SOL    HW142923   3.665   3.247   2.240
10348SOL    HW242924   3.745   3.119   2.257
10349SOL     OW42925   0.597   1.725  19.383
10349SOL    HW142926   0.537   1.773  19.326
10349SOL    HW242927   0.596   1.773  19.465
10350SOL     OW42928   2.383   2.708  17.373
10350SOL    HW142929   2.313   2.644  17.388
10350SOL    HW242930   2.460   2.670  17.416
10351SOL     OW42931   3.711   2.277   2.993
10351SOL    HW142932   3.741   2.200   3.042
10351SOL    HW242933   3.622   2.256   2.967
10352SOL     OW42934   1.663   3.605  15.446
10352SOL    HW142935   1.617   3.535  15.399
10352SOL    HW242936   1.600   3.678  15.448
10353SOL     OW42937   3.918   2.806   2.710
10353SOL    HW142938   3.881   2.733   2.661
10353SOL    HW242939   3.846   2.839   2.763
10354SOL     OW42940   3.686   4.695   5.701
10354SOL    HW142941   3.704   4.700   5.607
10354SOL    HW242942   3.661   4.604   5.716
10355SOL     OW42943   1.236   0.318   4.195
10355SOL    HW142944   1.202   0.255   4.132
10355SOL    HW242945   1.159   0.353   4.238
10356SOL     OW42946   0.143   1.624  15.173
10356SOL    HW142947   0.153   1.692  15.240
10356SOL    HW242948   0.119   1.673  15.094
10357SOL     OW42949   1.828   4.711  19.226
10357SOL    HW142950   1.812   4.760  19.145
10357SOL    HW242951   1.890   4.642  19.200
10358SOL     OW42952   1.355   3.719   5.233
10358SOL    HW142953   1.419   3.718   5.161
10358SOL    HW242954   1.395   3.667   5.302
10359SOL     OW42955   4.051   0.349   4.288
10359SOL    HW142956   4.055   0.344   4.384
10359SOL    HW242957   3.958   0.342   4.268
10360SOL     OW42958   1.235   2.343  15.462
10360SOL    HW142959   1.159   2.314  15.411
10360SOL    HW242960   1.290   2.265  15.469
10361SOL     OW42961   0.917   3.080   4.088
10361SOL    HW142962   0.862   3.003   4.072
10361SOL    HW242963   0.935   3.114   4.001
10362SOL     OW42964   2.432   3.794   6.696
10362SOL    HW142965   2.391   3.713   6.727
10362SOL    HW242966   2.432   3.785   6.600
10363SOL     OW42967   4.647   4.279  19.644
10363SOL    HW142968   4.590   4.221  19.696
10363SOL    HW242969   4.620   4.367  19.669
10364SOL     OW42970   0.169   3.947   1.076
10364SOL    HW142971   0.254   3.923   1.112
10364SOL    HW242972   0.110   3.944   1.152
10365SOL     OW42973   2.916   2.640   2.359
10365SOL    HW142974   2.910   2.592   2.276
10365SOL    HW242975   2.991   2.698   2.348
10366SOL     OW42976   3.018   4.550  15.569
10366SOL    HW142977   3.002   4.462  15.535
10366SOL    HW242978   3.088   4.538  15.634
10367SOL     OW42979   4.363   3.897   6.245
10367SOL    HW142980   4.346   3.850   6.326
10367SOL    HW242981   4.443   3.857   6.210
10368SOL     OW42982   1.549   2.626  20.253
10368SOL    HW142983   1.519   2.582  20.173
10368SOL    HW242984   1.559   2.555  20.317
10369SOL     OW42985   2.995   2.771  18.053
10369SOL    HW142986   2.923   2.823  18.018
10369SOL    HW242987   2.974   2.761  18.146
10370SOL     OW42988   0.954   1.701  20.976
10370SOL    HW142989   0.900   1.627  20.950
10370SOL    HW242990   0.895   1.776  20.975
10371SOL     OW42991   2.147   1.149  17.488
10371SOL    HW142992   2.053   1.138  17.472
10371SOL    HW242993   2.186   1.150  17.400
10372SOL     OW42994   0.921   4.541   4.954
10372SOL    HW142995   0.896   4.608   4.891
10372SOL    HW242996   0.984   4.583   5.012
10373SOL     OW42997   3.633   1.967  21.220
10373SOL    HW142998   3.609   1.981  21.129
10373SOL    HW242999   3.729   1.961  21.219
10374SOL     OW43000   4.566   1.575  15.965
10374SOL    HW143001   4.658   1.592  15.947
10374SOL    HW243002   4.535   1.654  16.008
10375SOL     OW43003   2.801   4.744   2.715
10375SOL    HW143004   2.764   4.704   2.794
10375SOL    HW243005   2.771   4.688   2.643
10376SOL     OW43006   2.292   2.071  17.373
10376SOL    HW143007   2.321   2.025  17.294
10376SOL    HW243008   2.365   2.063  17.434
10377SOL     OW43009   2.433   2.416   8.254
10377SOL    HW143010   2.520   2.454   8.246
10377SOL    HW243011   2.442   2.326   8.223
10378SOL     OW43012   0.051   0.180   6.589
10378SOL    HW143013   4.755   0.217   6.606
10378SOL    HW243014   0.046   0.145   6.501
10379SOL     OW43015   0.358   3.833  19.306
10379SOL    HW143016   0.388   3.742  19.302
10379SOL    HW243017   0.368   3.857  19.398
10380SOL     OW43018   2.534   4.481   5.680
10380SOL    HW143019   2.623   4.492   5.647
10380SOL    HW243020   2.490   4.563   5.658
10381SOL     OW43021   4.703   0.104  15.745
10381SOL    HW143022   4.641   0.068  15.682
10381SOL    HW243023   4.699   0.199  15.731
10382SOL     OW43024   2.457   0.144  16.282
10382SOL    HW143025   2.538   0.194  16.270
10382SOL    HW243026   2.434   0.114  16.194
10383SOL     OW43027   0.872   3.269  20.451
10383SOL    HW143028   0.913   3.355  20.452
10383SOL    HW243029   0.942   3.208  20.473
10384SOL     OW43030   1.774   3.197  20.777
10384SOL    HW143031   1.775   3.271  20.717
10384SOL    HW243032   1.782   3.236  20.864
10385SOL     OW43033   4.047   3.309  17.981
10385SOL    HW143034   3.972   3.252  17.999
10385SOL    HW243035   4.099   3.260  17.918
10386SOL     OW43036   1.332   2.798  20.609
10386SOL    HW143037   1.415   2.840  20.592
10386SOL    HW243038   1.285   2.858  20.667
10387SOL     OW43039   3.999   2.581  16.841
10387SOL    HW143040   4.070   2.550  16.897
10387SOL    HW243041   3.987   2.672  16.866
10388SOL     OW43042   1.396   3.966  19.640
10388SOL    HW143043   1.351   3.885  19.614
10388SOL    HW243044   1.467   3.975  19.576
10389SOL     OW43045   2.606   0.686   4.471
10389SOL    HW143046   2.657   0.714   4.395
10389SOL    HW243047   2.664   0.626   4.518
10390SOL     OW43048   4.684   4.418  18.071
10390SOL    HW143049   4.660   4.481  18.139
10390SOL    HW243050   4.615   4.352  18.074
10391SOL     OW43051   1.654   2.623   0.610
10391SOL    HW143052   1.611   2.653   0.530
10391SOL    HW243053   1.735   2.581   0.580
10392SOL     OW43054   3.706   1.386  15.716
10392SOL    HW143055   3.649   1.429  15.779
10392SOL    HW243056   3.770   1.339  15.769
10393SOL     OW43057   1.019   2.511  14.795
10393SOL    HW143058   0.945   2.473  14.749
10393SOL    HW243059   0.985   2.593  14.831
10394SOL     OW43060   3.699   0.942  15.621
10394SOL    HW143061   3.788   0.973  15.605
10394SOL    HW243062   3.696   0.923  15.714
10395SOL     OW43063   3.204   2.168   7.533
10395SOL    HW143064   3.299   2.156   7.546
10395SOL    HW243065   3.194   2.176   7.439
10396SOL     OW43066   3.465   0.534  19.220
10396SOL    HW143067   3.528   0.561  19.153
10396SOL    HW243068   3.519   0.509  19.295
10397SOL     OW43069   0.985   0.925  20.537
10397SOL    HW143070   1.046   0.855  20.512
10397SOL    HW243071   0.936   0.943  20.456
10398SOL     OW43072   4.708   1.965   0.439
10398SOL    HW143073   4.746   1.964   0.352
10398SOL    HW243074   4.781   1.988   0.497
10399SOL     OW43075   3.129   4.730   0.993
10399SOL    HW143076   3.212   4.706   1.035
10399SOL    HW243077   3.090   4.647   0.967
10400SOL     OW43078   2.645   2.800  16.231
10400SOL    HW143079   2.701   2.872  16.262
10400SOL    HW243080   2.695   2.721  16.253
10401SOL     OW43081   2.685   2.002  17.304
10401SOL    HW143082   2.715   1.956  17.226
10401SOL    HW243083   2.735   1.962  17.376
10402SOL     OW43084   2.528   1.642   5.045
10402SOL    HW143085   2.593   1.581   5.010
10402SOL    HW243086   2.573   1.727   5.046
10403SOL     OW43087   1.414   1.500  16.809
10403SOL    HW143088   1.391   1.576  16.754
10403SOL    HW243089   1.352   1.504  16.882
10404SOL     OW43090   3.897   1.384  17.878
10404SOL    HW143091   3.934   1.304  17.916
10404SOL    HW243092   3.807   1.361  17.856
10405SOL     OW43093   2.001   2.201  20.715
10405SOL    HW143094   1.973   2.239  20.799
10405SOL    HW243095   1.919   2.182  20.669
10406SOL     OW43096   2.132   0.598   5.513
10406SOL    HW143097   2.039   0.622   5.521
10406SOL    HW243098   2.177   0.682   5.499
10407SOL     OW43099   2.638   4.598  14.568
10407SOL    HW143100   2.567   4.536  14.551
10407SOL    HW243101   2.693   4.554  14.633
10408SOL     OW43102   3.901   3.960   6.074
10408SOL    HW143103   3.987   3.997   6.055
10408SOL    HW243104   3.902   3.943   6.169
10409SOL     OW43105   3.948   2.383  18.927
10409SOL    HW143106   3.953   2.300  18.880
10409SOL    HW243107   3.917   2.359  19.014
10410SOL     OW43108   0.830   1.071  17.046
10410SOL    HW143109   0.738   1.066  17.074
10410SOL    HW243110   0.847   1.164  17.036
10411SOL     OW43111   2.196   2.996  18.282
10411SOL    HW143112   2.247   3.016  18.203
10411SOL    HW243113   2.122   2.945  18.250
10412SOL     OW43114   2.710   2.507   0.519
10412SOL    HW143115   2.776   2.512   0.450
10412SOL    HW243116   2.752   2.453   0.587
10413SOL     OW43117   0.629   2.243  17.944
10413SOL    HW143118   0.544   2.207  17.969
10413SOL    HW243119   0.658   2.292  18.021
10414SOL     OW43120   1.763   0.599   3.603
10414SOL    HW143121   1.753   0.533   3.534
10414SOL    HW243122   1.844   0.575   3.648
10415SOL     OW43123   2.255   4.435  19.180
10415SOL    HW143124   2.172   4.477  19.156
10415SOL    HW243125   2.291   4.404  19.098
10416SOL     OW43126   2.787   1.136   6.472
10416SOL    HW143127   2.774   1.207   6.534
10416SOL    HW243128   2.825   1.178   6.395
10417SOL     OW43129   3.079   0.491   9.189
10417SOL    HW143130   3.036   0.566   9.149
10417SOL    HW243131   3.167   0.489   9.150
10418SOL     OW43132   0.313   1.082  18.109
10418SOL    HW143133   0.393   1.131  18.129
10418SOL    HW243134   0.342   1.012  18.050
10419SOL     OW43135   1.080   1.191   5.891
10419SOL    HW143136   1.122   1.119   5.937
10419SOL    HW243137   1.098   1.175   5.799
10420SOL     OW43138   1.850   0.164  15.342
10420SOL    HW143139   1.761   0.161  15.375
10420SOL    HW243140   1.851   0.237  15.280
10421SOL     OW43141   2.313   2.075  17.977
10421SOL    HW143142   2.371   2.033  17.912
10421SOL    HW243143   2.371   2.134  18.026
10422SOL     OW43144   4.501   1.584  20.254
10422SOL    HW143145   4.508   1.678  20.238
10422SOL    HW243146   4.589   1.551  20.242
10423SOL     OW43147   2.341   4.060   2.011
10423SOL    HW143148   2.414   4.121   2.009
10423SOL    HW243149   2.267   4.110   1.975
10424SOL     OW43150   1.664   1.566   3.708
10424SOL    HW143151   1.621   1.492   3.751
10424SOL    HW243152   1.600   1.637   3.712
10425SOL     OW43153   3.120   3.427   2.842
10425SOL    HW143154   3.088   3.346   2.881
10425SOL    HW243155   3.143   3.402   2.752
10426SOL     OW43156   0.218   1.530  20.071
10426SOL    HW143157   0.270   1.498  20.146
10426SOL    HW243158   0.190   1.450  20.027
10427SOL     OW43159   1.355   0.681  20.475
10427SOL    HW143160   1.260   0.676  20.474
10427SOL    HW243161   1.381   0.634  20.554
10428SOL     OW43162   3.398   2.244   3.630
10428SOL    HW143163   3.327   2.297   3.667
10428SOL    HW243164   3.478   2.290   3.654
10429SOL     OW43165   1.113   4.276  17.468
10429SOL    HW143166   1.038   4.277  17.527
10429SOL    HW243167   1.138   4.184  17.462
10430SOL     OW43168   0.137   2.585  20.304
10430SOL    HW143169   0.091   2.663  20.337
10430SOL    HW243170   0.223   2.618  20.279
10431SOL     OW43171   2.054   4.285   3.278
10431SOL    HW143172   2.113   4.274   3.204
10431SOL    HW243173   2.039   4.379   3.283
10432SOL     OW43174   4.505   3.014  15.650
10432SOL    HW143175   4.555   2.932  15.643
10432SOL    HW243176   4.562   3.080  15.610
10433SOL     OW43177   4.708   1.908  20.804
10433SOL    HW143178   4.633   1.925  20.861
10433SOL    HW243179   4.673   1.852  20.734
10434SOL     OW43180   3.932   0.603   6.926
10434SOL    HW143181   3.907   0.638   6.840
10434SOL    HW243182   3.894   0.515   6.928
10435SOL     OW43183   2.059   4.013   2.237
10435SOL    HW143184   1.985   3.952   2.246
10435SOL    HW243185   2.122   3.966   2.182
10436SOL     OW43186   0.293   0.938   3.962
10436SOL    HW143187   0.229   0.980   3.905
10436SOL    HW243188   0.267   0.965   4.051
10437SOL     OW43189   0.898   3.646   1.730
10437SOL    HW143190   0.810   3.633   1.695
10437SOL    HW243191   0.939   3.559   1.724
10438SOL     OW43192   1.187   2.876   1.644
10438SOL    HW143193   1.248   2.898   1.573
10438SOL    HW243194   1.184   2.954   1.699
10439SOL     OW43195   0.610   3.657  12.466
10439SOL    HW143196   0.627   3.572  12.508
10439SOL    HW243197   0.543   3.697  12.520
10440SOL     OW43198   3.557   3.892   3.917
10440SOL    HW143199   3.471   3.850   3.925
10440SOL    HW243200   3.566   3.943   3.997
10441SOL     OW43201   0.782   3.022   1.249
10441SOL    HW143202   0.778   3.043   1.342
10441SOL    HW243203   0.869   2.983   1.237
10442SOL     OW43204   3.559   3.213  15.532
10442SOL    HW143205   3.520   3.226  15.446
10442SOL    HW243206   3.487   3.227  15.594
10443SOL     OW43207   2.737   2.656   2.563
10443SOL    HW143208   2.798   2.688   2.497
10443SOL    HW243209   2.693   2.582   2.521
10444SOL     OW43210   1.198   1.383   2.806
10444SOL    HW143211   1.232   1.389   2.895
10444SOL    HW243212   1.105   1.364   2.817
10445SOL     OW43213   3.687   0.203   1.397
10445SOL    HW143214   3.772   0.160   1.391
10445SOL    HW243215   3.686   0.264   1.324
10446SOL     OW43216   4.407   3.800  18.759
10446SOL    HW143217   4.400   3.712  18.794
10446SOL    HW243218   4.325   3.843  18.785
10447SOL     OW43219   0.588   3.599  16.062
10447SOL    HW143220   0.610   3.582  15.970
10447SOL    HW243221   0.591   3.694  16.070
10448SOL     OW43222   2.072   2.472   0.229
10448SOL    HW143223   2.001   2.469   0.293
10448SOL    HW243224   2.138   2.530   0.269
10449SOL     OW43225   2.049   2.417  16.695
10449SOL    HW143226   2.076   2.484  16.632
10449SOL    HW243227   1.998   2.355  16.644
10450SOL     OW43228   1.588   4.079  16.556
10450SOL    HW143229   1.550   3.996  16.586
10450SOL    HW243230   1.609   4.065  16.464
10451SOL     OW43231   2.621   3.559   8.165
10451SOL    HW143232   2.555   3.499   8.130
10451SOL    HW243233   2.573   3.641   8.180
10452SOL     OW43234   0.498   1.995   2.489
10452SOL    HW143235   0.423   1.936   2.483
10452SOL    HW243236   0.550   1.976   2.411
10453SOL     OW43237   3.912   1.227  15.829
10453SOL    HW143238   4.008   1.232  15.830
10453SOL    HW243239   3.889   1.199  15.918
10454SOL     OW43240   0.008   1.667  15.851
10454SOL    HW143241   0.017   1.588  15.796
10454SOL    HW243242   0.032   1.739  15.792
10455SOL     OW43243   2.396   3.244  20.079
10455SOL    HW143244   2.480   3.219  20.118
10455SOL    HW243245   2.419   3.309  20.013
10456SOL     OW43246   2.886   1.080   2.234
10456SOL    HW143247   2.897   1.050   2.144
10456SOL    HW243248   2.845   1.007   2.279
10457SOL     OW43249   1.852   2.224  18.373
10457SOL    HW143250   1.823   2.228  18.464
10457SOL    HW243251   1.938   2.181  18.377
10458SOL     OW43252   4.524   1.110  21.239
10458SOL    HW143253   4.606   1.062  21.240
10458SOL    HW243254   4.515   1.139  21.148
10459SOL     OW43255   4.760   2.775   1.975
10459SOL    HW143256   0.023   2.716   2.027
10459SOL    HW243257   0.006   2.862   1.991
10460SOL     OW43258   2.988   2.240   3.418
10460SOL    HW143259   2.982   2.148   3.393
10460SOL    HW243260   2.933   2.248   3.496
10461SOL     OW43261   3.896   2.924  20.925
10461SOL    HW143262   3.847   2.886  20.851
10461SOL    HW243263   3.928   3.008  20.892
10462SOL     OW43264   0.807   3.096  19.223
10462SOL    HW143265   0.748   3.055  19.286
10462SOL    HW243266   0.894   3.089  19.264
10463SOL     OW43267   2.841   3.786   2.317
10463SOL    HW143268   2.750   3.758   2.310
10463SOL    HW243269   2.851   3.810   2.410
10464SOL     OW43270   0.682   4.184   4.940
10464SOL    HW143271   0.604   4.215   4.987
10464SOL    HW243272   0.648   4.134   4.866
10465SOL     OW43273   1.543   2.699  19.004
10465SOL    HW143274   1.475   2.724  18.941
10465SOL    HW243275   1.495   2.658  19.076
10466SOL     OW43276   1.652   0.188  21.013
10466SOL    HW143277   1.618   0.273  21.039
10466SOL    HW243278   1.747   0.199  21.012
10467SOL     OW43279   1.289   2.292  20.103
10467SOL    HW143280   1.264   2.256  20.188
10467SOL    HW243281   1.313   2.216  20.050
10468SOL     OW43282   3.416   2.867   7.652
10468SOL    HW143283   3.419   2.850   7.558
10468SOL    HW243284   3.495   2.918   7.671
10469SOL     OW43285   3.914   4.412   5.430
10469SOL    HW143286   3.948   4.460   5.354
10469SOL    HW243287   3.844   4.467   5.464
10470SOL     OW43288   1.764   2.465  20.483
10470SOL    HW143289   1.671   2.489  20.487
10470SOL    HW243290   1.765   2.373  20.511
10471SOL     OW43291   0.231   3.047  20.101
10471SOL    HW143292   0.266   3.125  20.056
10471SOL    HW243293   0.268   2.973  20.053
10472SOL     OW43294   3.102   0.149  20.409
10472SOL    HW143295   3.049   0.147  20.489
10472SOL    HW243296   3.177   0.204  20.432
10473SOL     OW43297   4.681   4.461  11.743
10473SOL    HW143298   4.617   4.476  11.674
10473SOL    HW243299   4.664   4.373  11.774
10474SOL     OW43300   0.039   1.468  16.304
10474SOL    HW143301   0.047   1.453  16.210
10474SOL    HW243302   0.128   1.486  16.333
10475SOL     OW43303   4.348   2.790  21.256
10475SOL    HW143304   4.349   2.757  21.166
10475SOL    HW243305   4.416   2.857  21.257
10476SOL     OW43306   0.688   0.470  18.331
10476SOL    HW143307   0.602   0.499  18.300
10476SOL    HW243308   0.751   0.513  18.273
10477SOL     OW43309   0.243   0.506   6.050
10477SOL    HW143310   0.317   0.556   6.015
10477SOL    HW243311   0.266   0.415   6.033
10478SOL     OW43312   1.471   3.933   1.336
10478SOL    HW143313   1.397   3.938   1.396
10478SOL    HW243314   1.449   3.995   1.266
10479SOL     OW43315   2.823   0.323   2.998
10479SOL    HW143316   2.794   0.413   3.015
10479SOL    HW243317   2.765   0.292   2.929
10480SOL     OW43318   4.764   0.895  19.712
10480SOL    HW143319   4.711   0.860  19.785
10480SOL    HW243320   0.009   0.817  19.669
10481SOL     OW43321   1.933   3.780  16.712
10481SOL    HW143322   1.944   3.846  16.643
10481SOL    HW243323   1.979   3.703  16.679
10482SOL     OW43324   1.349   4.310  17.732
10482SOL    HW143325   1.268   4.269  17.762
10482SOL    HW243326   1.358   4.388  17.786
10483SOL     OW43327   4.560   4.695  16.267
10483SOL    HW143328   4.628   4.756  16.238
10483SOL    HW243329   4.592   4.609  16.239
10484SOL     OW43330   2.979   0.930   6.371
10484SOL    HW143331   2.952   0.904   6.283
10484SOL    HW243332   2.898   0.953   6.416
10485SOL     OW43333   2.880   2.887  17.752
10485SOL    HW143334   2.894   2.978  17.724
10485SOL    HW243335   2.835   2.894  17.836
10486SOL     OW43336   0.044   3.773  19.971
10486SOL    HW143337   0.083   3.830  20.037
10486SOL    HW243338   4.790   3.832  19.911
10487SOL     OW43339   3.513   0.268   8.218
10487SOL    HW143340   3.602   0.282   8.185
10487SOL    HW243341   3.469   0.223   8.146
10488SOL     OW43342   1.653   0.167  15.879
10488SOL    HW143343   1.594   0.211  15.940
10488SOL    HW243344   1.609   0.171  15.795
10489SOL     OW43345   1.355   1.735  19.597
10489SOL    HW143346   1.433   1.680  19.603
10489SOL    HW243347   1.333   1.755  19.688
10490SOL     OW43348   2.094   4.490  19.554
10490SOL    HW143349   2.104   4.585  19.543
10490SOL    HW243350   2.073   4.478  19.646
10491SOL     OW43351   4.164   0.696  16.301
10491SOL    HW143352   4.080   0.658  16.328
10491SOL    HW243353   4.141   0.779  16.260
10492SOL     OW43354   3.939   0.502  18.610
10492SOL    HW143355   3.998   0.509  18.535
10492SOL    HW243356   3.890   0.585  18.610
10493SOL     OW43357   3.186   1.553   0.142
10493SOL    HW143358   3.151   1.642   0.145
10493SOL    HW243359   3.179   1.527   0.050
10494SOL     OW43360   1.086   0.956   7.120
10494SOL    HW143361   1.157   0.977   7.059
10494SOL    HW243362   1.129   0.937   7.203
10495SOL     OW43363   4.067   1.895   2.957
10495SOL    HW143364   4.140   1.851   3.002
10495SOL    HW243365   3.989   1.846   2.983
10496SOL     OW43366   1.954   1.395   5.389
10496SOL    HW143367   1.929   1.417   5.479
10496SOL    HW243368   1.983   1.478   5.351
10497SOL     OW43369   4.675   1.709   4.693
10497SOL    HW143370   4.769   1.688   4.694
10497SOL    HW243371   4.632   1.623   4.690
10498SOL     OW43372   0.267   3.076   5.211
10498SOL    HW143373   0.296   3.164   5.233
10498SOL    HW243374   0.292   3.022   5.285
10499SOL     OW43375   1.871   1.757   2.284
10499SOL    HW143376   1.801   1.693   2.277
10499SOL    HW243377   1.873   1.782   2.376
10500SOL     OW43378   3.461   0.811  20.631
10500SOL    HW143379   3.419   0.750  20.692
10500SOL    HW243380   3.396   0.881  20.619
10501SOL     OW43381   3.832   4.489   7.830
10501SOL    HW143382   3.880   4.410   7.854
10501SOL    HW243383   3.770   4.502   7.902
10502SOL     OW43384   2.748   1.068  20.497
10502SOL    HW143385   2.662   1.055  20.457
10502SOL    HW243386   2.729   1.082  20.590
10503SOL     OW43387   2.698   3.051  18.892
10503SOL    HW143388   2.740   2.966  18.902
10503SOL    HW243389   2.640   3.059  18.968
10504SOL     OW43390   4.765   1.741   4.209
10504SOL    HW143391   0.051   1.737   4.152
10504SOL    HW243392   0.003   1.793   4.284
10505SOL     OW43393   3.229   3.155   0.224
10505SOL    HW143394   3.262   3.142   0.313
10505SOL    HW243395   3.222   3.250   0.215
10506SOL     OW43396   1.346   0.774   6.480
10506SOL    HW143397   1.374   0.694   6.524
10506SOL    HW243398   1.307   0.744   6.398
10507SOL     OW43399   3.520   4.449   2.304
10507SOL    HW143400   3.560   4.386   2.363
10507SOL    HW243401   3.567   4.438   2.221
10508SOL     OW43402   2.056   1.012  11.817
10508SOL    HW143403   2.101   1.021  11.901
10508SOL    HW243404   1.986   1.078  11.820
10509SOL     OW43405   2.906   4.095  20.010
10509SOL    HW143406   2.919   4.178  20.056
10509SOL    HW243407   2.900   4.030  20.079
10510SOL     OW43408   0.996   3.265  13.940
10510SOL    HW143409   0.907   3.297  13.925
10510SOL    HW243410   1.048   3.304  13.870
10511SOL     OW43411   1.842   1.867   7.116
10511SOL    HW143412   1.810   1.922   7.187
10511SOL    HW243413   1.814   1.779   7.139
10512SOL     OW43414   1.956   4.331   0.092
10512SOL    HW143415   1.970   4.421   0.062
10512SOL    HW243416   1.904   4.341   0.172
10513SOL     OW43417   2.908   0.843  18.019
10513SOL    HW143418   2.818   0.872  18.034
10513SOL    HW243419   2.926   0.864  17.927
10514SOL     OW43420   4.101   3.389   3.855
10514SOL    HW143421   4.118   3.319   3.792
10514SOL    HW243422   4.071   3.463   3.803
10515SOL     OW43423   2.765   3.207  19.308
10515SOL    HW143424   2.782   3.119  19.274
10515SOL    HW243425   2.852   3.240  19.331
10516SOL     OW43426   2.204   0.535   1.021
10516SOL    HW143427   2.147   0.592   1.074
10516SOL    HW243428   2.240   0.593   0.955
10517SOL     OW43429   2.172   1.460   2.894
10517SOL    HW143430   2.233   1.414   2.837
10517SOL    HW243431   2.165   1.548   2.855
10518SOL     OW43432   4.436   3.095   5.378
10518SOL    HW143433   4.510   3.155   5.364
10518SOL    HW243434   4.477   3.012   5.401
10519SOL     OW43435   3.513   1.860   3.505
10519SOL    HW143436   3.459   1.923   3.457
10519SOL    HW243437   3.513   1.782   3.450
10520SOL     OW43438   3.238   1.514  19.066
10520SOL    HW143439   3.276   1.451  19.004
10520SOL    HW243440   3.155   1.475  19.092
10521SOL     OW43441   0.032   4.097  19.225
10521SOL    HW143442   0.125   4.111  19.204
10521SOL    HW243443   0.011   4.167  19.287
10522SOL     OW43444   3.954   4.123   1.201
10522SOL    HW143445   3.988   4.034   1.212
10522SOL    HW243446   3.899   4.137   1.278
10523SOL     OW43447   4.200   2.500   1.976
10523SOL    HW143448   4.277   2.496   1.918
10523SOL    HW243449   4.207   2.421   2.030
10524SOL     OW43450   3.087   2.747   6.775
10524SOL    HW143451   3.107   2.834   6.808
10524SOL    HW243452   3.017   2.761   6.711
10525SOL     OW43453   4.254   0.339  17.179
10525SOL    HW143454   4.181   0.291  17.216
10525SOL    HW243455   4.233   0.348  17.086
10526SOL     OW43456   0.516   1.147   4.319
10526SOL    HW143457   0.435   1.124   4.274
10526SOL    HW243458   0.492   1.150   4.412
10527SOL     OW43459   4.057   2.736  18.480
10527SOL    HW143460   3.991   2.667  18.489
10527SOL    HW243461   4.130   2.693  18.436
10528SOL     OW43462   1.012   3.988  19.389
10528SOL    HW143463   0.930   3.939  19.399
10528SOL    HW243464   1.080   3.921  19.386
10529SOL     OW43465   0.012   1.409  16.033
10529SOL    HW143466   4.715   1.372  16.038
10529SOL    HW243467   0.056   1.358  15.966
10530SOL     OW43468   3.139   4.015   5.001
10530SOL    HW143469   3.215   3.961   4.978
10530SOL    HW243470   3.112   4.054   4.918
10531SOL     OW43471   3.610   2.660   5.524
10531SOL    HW143472   3.599   2.731   5.587
10531SOL    HW243473   3.688   2.685   5.474
10532SOL     OW43474   1.784   3.359   5.154
10532SOL    HW143475   1.745   3.439   5.119
10532SOL    HW243476   1.793   3.375   5.247
10533SOL     OW43477   1.965   0.843  11.640
10533SOL    HW143478   1.871   0.860  11.637
10533SOL    HW243479   2.000   0.911  11.697
10534SOL     OW43480   2.604   2.835   5.185
10534SOL    HW143481   2.556   2.761   5.222
10534SOL    HW243482   2.626   2.890   5.260
10535SOL     OW43483   1.672   1.640   5.741
10535SOL    HW143484   1.691   1.733   5.727
10535SOL    HW243485   1.593   1.623   5.689
10536SOL     OW43486   1.655   4.365  20.211
10536SOL    HW143487   1.715   4.388  20.141
10536SOL    HW243488   1.569   4.358  20.168
10537SOL     OW43489   1.008   2.095   3.974
10537SOL    HW143490   0.985   2.044   4.052
10537SOL    HW243491   0.995   2.034   3.901
10538SOL     OW43492   1.961   0.160  18.904
10538SOL    HW143493   2.015   0.082  18.910
10538SOL    HW243494   1.939   0.182  18.995
10539SOL     OW43495   0.790   0.724   0.815
10539SOL    HW143496   0.870   0.700   0.769
10539SOL    HW243497   0.757   0.641   0.851
10540SOL     OW43498   1.099   1.978  19.975
10540SOL    HW143499   1.048   1.897  19.974
10540SOL    HW243500   1.092   2.012  19.886
10541SOL     OW43501   1.795   0.987   6.319
10541SOL    HW143502   1.832   1.025   6.398
10541SOL    HW243503   1.775   0.897   6.343
10542SOL     OW43504   0.205   1.395  17.254
10542SOL    HW143505   0.202   1.468  17.315
10542SOL    HW243506   0.124   1.346  17.271
10543SOL     OW43507   3.401   3.140  18.913
10543SOL    HW143508   3.494   3.159  18.926
10543SOL    HW243509   3.373   3.202  18.846
10544SOL     OW43510   3.663   0.532   3.317
10544SOL    HW143511   3.724   0.494   3.253
10544SOL    HW243512   3.600   0.580   3.264
10545SOL     OW43513   0.781   4.583  12.102
10545SOL    HW143514   0.855   4.643  12.093
10545SOL    HW243515   0.821   4.496  12.109
10546SOL     OW43516   2.454   0.392  20.627
10546SOL    HW143517   2.440   0.305  20.664
10546SOL    HW243518   2.506   0.376  20.548
10547SOL     OW43519   3.526   2.485   3.336
10547SOL    HW143520   3.497   2.570   3.370
10547SOL    HW243521   3.597   2.458   3.394
10548SOL     OW43522   0.187   1.388  18.023
10548SOL    HW143523   0.225   1.319  17.969
10548SOL    HW243524   0.093   1.370  18.023
10549SOL     OW43525   1.103   3.245   2.485
10549SOL    HW143526   1.155   3.264   2.407
10549SOL    HW243527   1.142   3.299   2.554
10550SOL     OW43528   4.735   4.690  15.354
10550SOL    HW143529   0.004   4.690  15.428
10550SOL    HW243530   4.656   4.647  15.386
10551SOL     OW43531   2.091   0.235  17.560
10551SOL    HW143532   2.130   0.289  17.491
10551SOL    HW243533   2.156   0.234  17.630
10552SOL     OW43534   1.516   4.612  18.675
10552SOL    HW143535   1.557   4.558  18.608
10552SOL    HW243536   1.589   4.636  18.733
10553SOL     OW43537   3.900   3.236  20.105
10553SOL    HW143538   3.862   3.156  20.141
10553SOL    HW243539   3.852   3.252  20.024
10554SOL     OW43540   2.241   1.275  12.338
10554SOL    HW143541   2.327   1.318  12.333
10554SOL    HW243542   2.190   1.315  12.268
10555SOL     OW43543   3.707   2.479   1.657
10555SOL    HW143544   3.619   2.441   1.664
10555SOL    HW243545   3.708   2.549   1.722
10556SOL     OW43546   3.991   3.806  18.929
10556SOL    HW143547   4.036   3.809  18.845
10556SOL    HW243548   4.006   3.893  18.967
10557SOL     OW43549   3.474   3.009  21.217
10557SOL    HW143550   3.536   2.948  21.257
10557SOL    HW243551   3.402   3.015   0.017
10558SOL     OW43552   3.123   0.081   3.252
10558SOL    HW143553   3.138   0.126   3.335
10558SOL    HW243554   3.116   0.152   3.188
10559SOL     OW43555   2.854   1.049  19.628
10559SOL    HW143556   2.901   1.123  19.665
10559SOL    HW243557   2.761   1.071  19.639
10560SOL     OW43558   0.354   4.645  15.246
10560SOL    HW143559   0.267   4.606  15.254
10560SOL    HW243560   0.338   4.739  15.251
10561SOL     OW43561   4.461   1.901   4.948
10561SOL    HW143562   4.553   1.889   4.970
10561SOL    HW243563   4.423   1.946   5.024
10562SOL     OW43564   0.634   0.337  10.270
10562SOL    HW143565   0.583   0.292  10.202
10562SOL    HW243566   0.601   0.427  10.268
10563SOL     OW43567   4.250   2.810  15.375
10563SOL    HW143568   4.177   2.814  15.438
10563SOL    HW243569   4.264   2.717  15.361
10564SOL     OW43570   2.170   0.567   6.889
10564SOL    HW143571   2.205   0.547   6.976
10564SOL    HW243572   2.243   0.610   6.843
10565SOL     OW43573   2.900   1.650   5.044
10565SOL    HW143574   2.839   1.606   4.984
10565SOL    HW243575   2.848   1.669   5.121
10566SOL     OW43576   1.003   2.717  14.502
10566SOL    HW143577   1.018   2.809  14.523
10566SOL    HW243578   0.920   2.695  14.544
10567SOL     OW43579   1.365   2.990   3.396
10567SOL    HW143580   1.352   2.901   3.429
10567SOL    HW243581   1.284   3.036   3.419
10568SOL     OW43582   2.071   1.650  15.140
10568SOL    HW143583   2.034   1.631  15.054
10568SOL    HW243584   2.074   1.746  15.144
10569SOL     OW43585   0.396   3.260   4.412
10569SOL    HW143586   0.425   3.326   4.475
10569SOL    HW243587   0.329   3.210   4.460
10570SOL     OW43588   0.237   0.362   4.599
10570SOL    HW143589   0.177   0.310   4.652
10570SOL    HW243590   0.322   0.349   4.639
10571SOL     OW43591   0.222   2.156  18.381
10571SOL    HW143592   0.133   2.150  18.347
10571SOL    HW243593   0.258   2.068  18.370
10572SOL     OW43594   2.391   2.998   5.385
10572SOL    HW143595   2.335   2.959   5.318
10572SOL    HW243596   2.453   2.928   5.408
10573SOL     OW43597   3.239   3.665  20.888
10573SOL    HW143598   3.183   3.600  20.847
10573SOL    HW243599   3.256   3.630  20.976
10574SOL     OW43600   1.248   0.497  16.202
10574SOL    HW143601   1.230   0.517  16.294
10574SOL    HW243602   1.330   0.446  16.204
10575SOL     OW43603   2.458   4.676   6.045
10575SOL    HW143604   2.463   4.594   5.997
10575SOL    HW243605   2.543   4.718   6.030
10576SOL     OW43606   1.704   3.285   3.352
10576SOL    HW143607   1.684   3.194   3.332
10576SOL    HW243608   1.679   3.333   3.274
10577SOL     OW43609   4.661   3.514   4.945
10577SOL    HW143610   4.696   3.464   5.018
10577SOL    HW243611   4.688   3.604   4.963
10578SOL     OW43612   2.803   2.237  18.626
10578SOL    HW143613   2.756   2.209  18.705
10578SOL    HW243614   2.896   2.226  18.648
10579SOL     OW43615   4.083   2.873   3.144
10579SOL    HW143616   4.076   2.829   3.060
10579SOL    HW243617   4.174   2.903   3.148
10580SOL     OW43618   4.696   2.877   2.799
10580SOL    HW143619   4.740   2.946   2.750
10580SOL    HW243620   4.632   2.841   2.737
10581SOL     OW43621   1.934   4.615   7.844
10581SOL    HW143622   1.953   4.690   7.900
10581SOL    HW243623   1.866   4.566   7.891
10582SOL     OW43624   1.140   3.444  17.956
10582SOL    HW143625   1.114   3.356  17.929
10582SOL    HW243626   1.120   3.499  17.880
10583SOL     OW43627   2.134   1.275   2.084
10583SOL    HW143628   2.127   1.179   2.077
10583SOL    HW243629   2.199   1.299   2.018
10584SOL     OW43630   1.677   1.004  15.641
10584SOL    HW143631   1.730   1.044  15.710
10584SOL    HW243632   1.734   0.937  15.603
10585SOL     OW43633   4.152   3.238   0.801
10585SOL    HW143634   4.090   3.261   0.732
10585SOL    HW243635   4.105   3.176   0.856
10586SOL     OW43636   1.877   4.425  14.406
10586SOL    HW143637   1.912   4.484  14.473
10586SOL    HW243638   1.814   4.479  14.358
10587SOL     OW43639   1.196   2.477  15.735
10587SOL    HW143640   1.163   2.419  15.803
10587SOL    HW243641   1.223   2.419  15.664
10588SOL     OW43642   2.267   0.514  17.947
10588SOL    HW143643   2.190   0.462  17.969
10588SOL    HW243644   2.233   0.583  17.889
10589SOL     OW43645   4.465   4.222   6.298
10589SOL    HW143646   4.533   4.155   6.296
10589SOL    HW243647   4.409   4.197   6.371
10590SOL     OW43648   1.430   0.689   5.909
10590SOL    HW143649   1.474   0.734   5.982
10590SOL    HW243650   1.340   0.721   5.912
10591SOL     OW43651   4.276   0.936   8.604
10591SOL    HW143652   4.322   0.855   8.629
10591SOL    HW243653   4.319   1.004   8.656
10592SOL     OW43654   1.863   0.207  17.866
10592SOL    HW143655   1.800   0.170  17.928
10592SOL    HW243656   1.886   0.135  17.809
10593SOL     OW43657   0.507   4.211   2.809
10593SOL    HW143658   0.591   4.176   2.839
10593SOL    HW243659   0.483   4.277   2.875
10594SOL     OW43660   4.483   3.316  18.513
10594SOL    HW143661   4.507   3.255  18.443
10594SOL    HW243662   4.564   3.329  18.562
10595SOL     OW43663   2.644   0.797  17.463
10595SOL    HW143664   2.694   0.858  17.410
10595SOL    HW243665   2.554   0.807  17.434
10596SOL     OW43666   4.086   1.203   5.760
10596SOL    HW143667   4.138   1.145   5.815
10596SOL    HW243668   3.996   1.172   5.773
10597SOL     OW43669   2.396   3.418   4.578
10597SOL    HW143670   2.491   3.412   4.572
10597SOL    HW243671   2.373   3.494   4.524
10598SOL     OW43672   3.629   2.508  19.803
10598SOL    HW143673   3.562   2.551  19.748
10598SOL    HW243674   3.710   2.520  19.755
10599SOL     OW43675   0.204   4.780   0.887
10599SOL    HW143676   0.186   0.052   0.817
10599SOL    HW243677   0.177   4.696   0.852
10600SOL     OW43678   1.860   4.525   4.375
10600SOL    HW143679   1.889   4.582   4.446
10600SOL    HW243680   1.928   4.457   4.369
10601SOL     OW43681   1.156   2.069   2.974
10601SOL    HW143682   1.133   2.004   2.907
10601SOL    HW243683   1.133   2.028   3.057
10602SOL     OW43684   3.152   2.255  17.068
10602SOL    HW143685   3.193   2.245  17.154
10602SOL    HW243686   3.199   2.328  17.027
10603SOL     OW43687   4.782   2.308   0.534
10603SOL    HW143688   4.691   2.283   0.522
10603SOL    HW243689   4.778   2.400   0.560
10604SOL     OW43690   2.368   0.863   1.307
10604SOL    HW143691   2.460   0.839   1.297
10604SOL    HW243692   2.326   0.784   1.342
10605SOL     OW43693   4.676   3.006   4.339
10605SOL    HW143694   4.689   2.975   4.428
10605SOL    HW243695   4.652   3.098   4.349
10606SOL     OW43696   2.215   2.716   1.164
10606SOL    HW143697   2.139   2.763   1.129
10606SOL    HW243698   2.178   2.650   1.222
10607SOL     OW43699   1.101   4.318  15.380
10607SOL    HW143700   1.159   4.295  15.452
10607SOL    HW243701   1.091   4.413  15.387
10608SOL     OW43702   3.906   1.389  15.388
10608SOL    HW143703   3.974   1.323  15.377
10608SOL    HW243704   3.955   1.468  15.413
10609SOL     OW43705   1.708   3.547  13.649
10609SOL    HW143706   1.733   3.588  13.566
10609SOL    HW243707   1.654   3.612  13.693
10610SOL     OW43708   3.556   3.812   0.515
10610SOL    HW143709   3.587   3.819   0.605
10610SOL    HW243710   3.463   3.834   0.520
10611SOL     OW43711   2.296   1.239   2.755
10611SOL    HW143712   2.376   1.222   2.806
10611SOL    HW243713   2.328   1.252   2.666
10612SOL     OW43714   2.588   1.899   6.774
10612SOL    HW143715   2.548   1.814   6.757
10612SOL    HW243716   2.652   1.882   6.843
10613SOL     OW43717   1.958   0.901   4.190
10613SOL    HW143718   1.997   0.900   4.278
10613SOL    HW243719   1.989   0.983   4.151
10614SOL     OW43720   0.690   4.030  18.565
10614SOL    HW143721   0.660   3.962  18.625
10614SOL    HW243722   0.780   4.048  18.592
10615SOL     OW43723   3.930   4.554  14.814
10615SOL    HW143724   3.967   4.548  14.726
10615SOL    HW243725   3.943   4.645  14.840
10616SOL     OW43726   4.637   1.137  15.006
10616SOL    HW143727   4.617   1.193  14.932
10616SOL    HW243728   4.685   1.193  15.067
10617SOL     OW43729   0.077   3.437  18.350
10617SOL    HW143730   0.053   3.345  18.350
10617SOL    HW243731   0.025   3.476  18.280
10618SOL     OW43732   0.316   0.456   1.937
10618SOL    HW143733   0.353   0.374   1.907
10618SOL    HW243734   0.327   0.516   1.863
10619SOL     OW43735   2.106   2.652  19.503
10619SOL    HW143736   2.045   2.593  19.548
10619SOL    HW243737   2.086   2.739  19.538
10620SOL     OW43738   1.646   1.508   6.296
10620SOL    HW143739   1.642   1.547   6.209
10620SOL    HW243740   1.594   1.428   6.289
10621SOL     OW43741   1.093   0.673  13.464
10621SOL    HW143742   1.098   0.701  13.555
10621SOL    HW243743   1.000   0.678  13.442
10622SOL     OW43744   3.773   1.621  19.561
10622SOL    HW143745   3.800   1.540  19.517
10622SOL    HW243746   3.681   1.607  19.584
10623SOL     OW43747   0.233   0.203   1.390
10623SOL    HW143748   0.155   0.211   1.445
10623SOL    HW243749   0.206   0.146   1.318
10624SOL     OW43750   4.482   2.986  19.880
10624SOL    HW143751   4.565   3.020  19.913
10624SOL    HW243752   4.481   3.011  19.788
10625SOL     OW43753   1.654   1.973  17.268
10625SOL    HW143754   1.616   2.047  17.221
10625SOL    HW243755   1.584   1.944  17.327
10626SOL     OW43756   1.407   2.581   1.790
10626SOL    HW143757   1.342   2.560   1.857
10626SOL    HW243758   1.370   2.547   1.709
10627SOL     OW43759   1.982   4.267  16.658
10627SOL    HW143760   2.003   4.310  16.575
10627SOL    HW243761   2.056   4.287  16.715
10628SOL     OW43762   1.567   1.206   1.266
10628SOL    HW143763   1.532   1.184   1.180
10628SOL    HW243764   1.489   1.224   1.319
10629SOL     OW43765   3.867   2.804  18.818
10629SOL    HW143766   3.802   2.871  18.839
10629SOL    HW243767   3.857   2.738  18.888
10630SOL     OW43768   0.364   2.260  19.311
10630SOL    HW143769   0.415   2.229  19.236
10630SOL    HW243770   0.273   2.244  19.287
10631SOL     OW43771   3.127   3.163  18.330
10631SOL    HW143772   3.088   3.176  18.244
10631SOL    HW243773   3.075   3.095  18.371
10632SOL     OW43774   2.276   2.249  17.587
10632SOL    HW143775   2.270   2.232  17.493
10632SOL    HW243776   2.211   2.190  17.626
10633SOL     OW43777   0.785   1.265  16.611
10633SOL    HW143778   0.796   1.358  16.631
10633SOL    HW243779   0.691   1.254  16.598
10634SOL     OW43780   0.816   1.425   5.354
10634SOL    HW143781   0.784   1.496   5.299
10634SOL    HW243782   0.754   1.353   5.341
10635SOL     OW43783   2.915   3.097   5.138
10635SOL    HW143784   2.908   3.112   5.232
10635SOL    HW243785   3.005   3.119   5.116
10636SOL     OW43786   0.449   4.155   1.274
10636SOL    HW143787   0.416   4.225   1.218
10636SOL    HW243788   0.514   4.198   1.330
10637SOL     OW43789   0.138   3.641   5.336
10637SOL    HW143790   0.122   3.648   5.242
10637SOL    HW243791   0.067   3.587   5.368
10638SOL     OW43792   2.664   0.773  17.733
10638SOL    HW143793   2.670   0.788  17.639
10638SOL    HW243794   2.725   0.702  17.750
10639SOL     OW43795   2.274   2.090  16.640
10639SOL    HW143796   2.257   2.126  16.727
10639SOL    HW243797   2.266   1.995  16.652
10640SOL     OW43798   3.095   0.742  20.607
10640SOL    HW143799   3.059   0.690  20.679
10640SOL    HW243800   3.182   0.706  20.593
10641SOL     OW43801   2.163   1.858  15.486
10641SOL    HW143802   2.082   1.865  15.435
10641SOL    HW243803   2.152   1.920  15.557
10642SOL     OW43804   1.523   3.329   0.083
10642SOL    HW143805   1.615   3.352   0.065
10642SOL    HW243806   1.526   3.282   0.167
10643SOL     OW43807   4.734   3.314  14.213
10643SOL    HW143808   4.650   3.281  14.182
10643SOL    HW243809   4.713   3.363  14.293
10644SOL     OW43810   2.074   4.362  16.422
10644SOL    HW143811   2.124   4.325  16.348
10644SOL    HW243812   2.012   4.422  16.380
10645SOL     OW43813   0.141   0.909   0.605
10645SOL    HW143814   0.170   0.923   0.515
10645SOL    HW243815   0.221   0.903   0.656
10646SOL     OW43816   3.471   3.848   4.462
10646SOL    HW143817   3.443   3.894   4.541
10646SOL    HW243818   3.565   3.865   4.456
10647SOL     OW43819   1.713   0.741   1.956
10647SOL    HW143820   1.751   0.828   1.967
10647SOL    HW243821   1.709   0.729   1.861
10648SOL     OW43822   0.003   2.643  21.158
10648SOL    HW143823   4.739   2.706  21.110
10648SOL    HW243824   0.083   2.636  21.106
10649SOL     OW43825   2.946   2.070  19.626
10649SOL    HW143826   2.874   2.132  19.617
10649SOL    HW243827   2.922   1.997  19.569
10650SOL     OW43828   4.197   1.121  19.736
10650SOL    HW143829   4.243   1.151  19.658
10650SOL    HW243830   4.150   1.042  19.708
10651SOL     OW43831   1.990   0.356   6.316
10651SOL    HW143832   2.004   0.442   6.355
10651SOL    HW243833   2.054   0.350   6.246
10652SOL     OW43834   1.039   4.163   6.567
10652SOL    HW143835   1.103   4.093   6.550
10652SOL    HW243836   1.024   4.204   6.482
10653SOL     OW43837   0.085   1.880   2.579
10653SOL    HW143838   0.177   1.857   2.595
10653SOL    HW243839   0.036   1.800   2.597
10654SOL     OW43840   0.469   3.461   3.112
10654SOL    HW143841   0.495   3.369   3.119
10654SOL    HW243842   0.539   3.509   3.158
10655SOL     OW43843   1.363   3.206  14.433
10655SOL    HW143844   1.410   3.269  14.378
10655SOL    HW243845   1.271   3.217  14.409
10656SOL     OW43846   1.646   0.959  19.060
10656SOL    HW143847   1.621   0.956  18.967
10656SOL    HW243848   1.609   1.040  19.092
10657SOL     OW43849   3.678   1.429  12.887
10657SOL    HW143850   3.744   1.439  12.956
10657SOL    HW243851   3.649   1.518  12.868
10658SOL     OW43852   0.078   3.191  18.478
10658SOL    HW143853   0.002   3.153  18.523
10658SOL    HW243854   0.107   3.122  18.419
10659SOL     OW43855   3.030   2.331   4.688
10659SOL    HW143856   2.962   2.388   4.655
10659SOL    HW243857   3.042   2.358   4.779
10660SOL     OW43858   0.968   2.888   3.118
10660SOL    HW143859   1.034   2.947   3.081
10660SOL    HW243860   0.884   2.928   3.096
10661SOL     OW43861   0.592   1.170  14.843
10661SOL    HW143862   0.615   1.127  14.925
10661SOL    HW243863   0.541   1.105  14.795
10662SOL     OW43864   2.738   3.884   4.376
10662SOL    HW143865   2.690   3.877   4.293
10662SOL    HW243866   2.825   3.849   4.356
10663SOL     OW43867   1.225   4.598  12.358
10663SOL    HW143868   1.132   4.595  12.378
10663SOL    HW243869   1.231   4.577  12.265
10664SOL     OW43870   3.753   3.952  14.855
10664SOL    HW143871   3.674   3.991  14.892
10664SOL    HW243872   3.772   4.007  14.778
10665SOL     OW43873   4.732   3.515  19.966
10665SOL    HW143874   4.775   3.594  19.997
10665SOL    HW243875   4.699   3.471  20.045
10666SOL     OW43876   0.722   2.548  20.104
10666SOL    HW143877   0.720   2.577  20.196
10666SOL    HW243878   0.785   2.476  20.104
10667SOL     OW43879   1.331   3.390  19.840
10667SOL    HW143880   1.344   3.482  19.864
10667SOL    HW243881   1.249   3.366  19.883
10668SOL     OW43882   3.611   2.735  15.917
10668SOL    HW143883   3.520   2.721  15.944
10668SOL    HW243884   3.657   2.656  15.946
10669SOL     OW43885   0.799   3.284   4.584
10669SOL    HW143886   0.881   3.283   4.633
10669SOL    HW243887   0.731   3.268   4.651
10670SOL     OW43888   0.755   1.894   1.945
10670SOL    HW143889   0.741   1.897   1.851
10670SOL    HW243890   0.669   1.872   1.981
10671SOL     OW43891   4.304   1.664   0.761
10671SOL    HW143892   4.375   1.729   0.761
10671SOL    HW243893   4.329   1.602   0.693
10672SOL     OW43894   3.629   2.901  16.325
10672SOL    HW143895   3.593   2.989  16.338
10672SOL    HW243896   3.666   2.903  16.237
10673SOL     OW43897   1.567   2.066  17.949
10673SOL    HW143898   1.638   2.067  17.885
10673SOL    HW243899   1.608   2.037  18.030
10674SOL     OW43900   3.471   3.408   1.517
10674SOL    HW143901   3.461   3.313   1.515
10674SOL    HW243902   3.547   3.426   1.462
10675SOL     OW43903   1.966   2.999  20.273
10675SOL    HW143904   1.875   2.979  20.298
10675SOL    HW243905   2.017   2.975  20.350
10676SOL     OW43906   4.507   1.339   5.568
10676SOL    HW143907   4.520   1.427   5.534
10676SOL    HW243908   4.422   1.312   5.532
10677SOL     OW43909   1.463   4.528   4.291
10677SOL    HW143910   1.470   4.549   4.198
10677SOL    HW243911   1.505   4.443   4.300
10678SOL     OW43912   0.806   0.230  19.317
10678SOL    HW143913   0.829   0.318  19.348
10678SOL    HW243914   0.878   0.174  19.347
10679SOL     OW43915   3.774   0.371   4.225
10679SOL    HW143916   3.733   0.296   4.268
10679SOL    HW243917   3.739   0.370   4.136
10680SOL     OW43918   1.708   0.649  20.074
10680SOL    HW143919   1.749   0.564  20.055
10680SOL    HW243920   1.632   0.627  20.128
10681SOL     OW43921   1.855   2.228  17.032
10681SOL    HW143922   1.918   2.297  17.010
10681SOL    HW243923   1.826   2.248  17.120
10682SOL     OW43924   4.615   2.697   2.983
10682SOL    HW143925   4.656   2.750   2.915
10682SOL    HW243926   4.521   2.715   2.974
10683SOL     OW43927   0.197   1.818  14.959
10683SOL    HW143928   0.278   1.853  14.922
10683SOL    HW243929   0.134   1.825  14.887
10684SOL     OW43930   1.153   2.364   1.274
10684SOL    HW143931   1.247   2.373   1.261
10684SOL    HW243932   1.117   2.448   1.246
10685SOL     OW43933   0.171   2.912   4.977
10685SOL    HW143934   0.242   2.854   4.950
10685SOL    HW243935   0.205   2.955   5.055
10686SOL     OW43936   1.861   4.119  16.345
10686SOL    HW143937   1.887   4.192  16.289
10686SOL    HW243938   1.896   4.042  16.301
10687SOL     OW43939   3.658   4.448  16.559
10687SOL    HW143940   3.692   4.527  16.517
10687SOL    HW243941   3.709   4.439  16.639
10688SOL     OW43942   3.953   2.057   4.782
10688SOL    HW143943   4.026   2.039   4.723
10688SOL    HW243944   3.935   1.974   4.825
10689SOL     OW43945   4.543   0.381  12.708
10689SOL    HW143946   4.475   0.343  12.652
10689SOL    HW243947   4.548   0.473  12.681
10690SOL     OW43948   1.775   3.061  19.095
10690SOL    HW143949   1.772   3.000  19.021
10690SOL    HW243950   1.865   3.057  19.126
10691SOL     OW43951   4.459   2.023  18.624
10691SOL    HW143952   4.384   2.068  18.586
10691SOL    HW243953   4.424   1.978  18.701
10692SOL     OW43954   0.261   3.859  16.068
10692SOL    HW143955   0.353   3.837  16.055
10692SOL    HW243956   0.257   3.892  16.157
10693SOL     OW43957   4.056   0.998   0.491
10693SOL    HW143958   4.010   1.021   0.572
10693SOL    HW243959   4.118   1.070   0.477
10694SOL     OW43960   1.571   0.359  12.314
10694SOL    HW143961   1.563   0.325  12.403
10694SOL    HW243962   1.650   0.413  12.315
10695SOL     OW43963   1.524   3.630   2.614
10695SOL    HW143964   1.619   3.635   2.610
10695SOL    HW243965   1.502   3.666   2.700
10696SOL     OW43966   4.590   0.483  16.332
10696SOL    HW143967   4.538   0.450  16.405
10696SOL    HW243968   4.611   0.573  16.356
10697SOL     OW43969   1.958   2.760  20.063
10697SOL    HW143970   2.045   2.721  20.053
10697SOL    HW243971   1.974   2.842  20.109
10698SOL     OW43972   3.354   1.662   6.804
10698SOL    HW143973   3.379   1.687   6.715
10698SOL    HW243974   3.288   1.594   6.792
10699SOL     OW43975   0.282   1.206   5.176
10699SOL    HW143976   0.194   1.212   5.139
10699SOL    HW243977   0.316   1.124   5.141
10700SOL     OW43978   2.539   2.454   7.176
10700SOL    HW143979   2.489   2.410   7.244
10700SOL    HW243980   2.620   2.480   7.219
10701SOL     OW43981   0.142   4.540   3.926
10701SOL    HW143982   0.202   4.481   3.879
10701SOL    HW243983   0.058   4.529   3.882
10702SOL     OW43984   2.204   0.501  17.465
10702SOL    HW143985   2.221   0.595  17.469
10702SOL    HW243986   2.252   0.471  17.387
10703SOL     OW43987   3.393   2.306   4.973
10703SOL    HW143988   3.357   2.378   4.921
10703SOL    HW243989   3.318   2.251   4.994
10704SOL     OW43990   2.053   2.568   9.669
10704SOL    HW143991   2.038   2.635   9.737
10704SOL    HW243992   1.980   2.508   9.678
10705SOL     OW43993   0.331   3.808  14.866
10705SOL    HW143994   0.270   3.762  14.924
10705SOL    HW243995   0.370   3.739  14.812
10706SOL     OW43996   1.599   3.895   1.057
10706SOL    HW143997   1.665   3.956   1.025
10706SOL    HW243998   1.534   3.950   1.101
10707SOL     OW43999   2.156   4.756   4.377
10707SOL    HW144000   2.062   4.765   4.362
10707SOL    HW244001   2.189   4.716   4.297
10708SOL     OW44002   0.522   4.126  14.017
10708SOL    HW144003   0.532   4.204  13.962
10708SOL    HW244004   0.477   4.063  13.961
10709SOL     OW44005   0.467   1.763  15.252
10709SOL    HW144006   0.459   1.702  15.179
10709SOL    HW244007   0.378   1.796  15.265
10710SOL     OW44008   2.479   3.807   2.637
10710SOL    HW144009   2.508   3.862   2.564
10710SOL    HW244010   2.402   3.851   2.672
10711SOL     OW44011   2.753   2.215  19.051
10711SOL    HW144012   2.690   2.271  19.005
10711SOL    HW244013   2.795   2.164  18.982
10712SOL     OW44014   3.661   2.997  18.867
10712SOL    HW144015   3.693   3.067  18.810
10712SOL    HW244016   3.629   3.043  18.945
10713SOL     OW44017   3.538   0.933  18.873
10713SOL    HW144018   3.576   1.002  18.819
10713SOL    HW244019   3.607   0.913  18.937
10714SOL     OW44020   0.557   3.298  12.088
10714SOL    HW144021   0.591   3.362  12.025
10714SOL    HW244022   0.529   3.351  12.163
10715SOL     OW44023   2.778   0.418   8.894
10715SOL    HW144024   2.829   0.423   8.813
10715SOL    HW244025   2.715   0.348   8.878
10716SOL     OW44026   3.656   2.069   0.421
10716SOL    HW144027   3.713   2.127   0.471
10716SOL    HW244028   3.686   1.980   0.442
10717SOL     OW44029   2.922   2.495  19.724
10717SOL    HW144030   2.927   2.586  19.694
10717SOL    HW244031   2.832   2.468  19.704
10718SOL     OW44032   0.005   1.516   2.078
10718SOL    HW144033   0.034   1.561   2.157
10718SOL    HW244034   4.736   1.578   2.035
10719SOL     OW44035   3.274   2.549   4.897
10719SOL    HW144036   3.206   2.522   4.959
10719SOL    HW244037   3.283   2.643   4.911
10720SOL     OW44038   2.180   2.391   1.720
10720SOL    HW144039   2.092   2.428   1.712
10720SOL    HW244040   2.185   2.362   1.811
10721SOL     OW44041   2.453   2.707  18.655
10721SOL    HW144042   2.457   2.771  18.584
10721SOL    HW244043   2.476   2.624  18.614
10722SOL     OW44044   0.851   2.516  12.101
10722SOL    HW144045   0.901   2.594  12.124
10722SOL    HW244046   0.916   2.446  12.100
10723SOL     OW44047   4.744   4.103  20.109
10723SOL    HW144048   0.005   4.030  20.142
10723SOL    HW244049   0.012   4.148  20.048
10724SOL     OW44050   1.069   2.654   0.384
10724SOL    HW144051   1.138   2.715   0.358
10724SOL    HW244052   1.110   2.601   0.453
10725SOL     OW44053   2.480   3.737  19.284
10725SOL    HW144054   2.540   3.743  19.358
10725SOL    HW244055   2.534   3.705  19.211
10726SOL     OW44056   4.757   2.024  17.022
10726SOL    HW144057   4.688   2.020  17.088
10726SOL    HW244058   0.013   2.105  17.042
10727SOL     OW44059   3.523   1.894   1.034
10727SOL    HW144060   3.450   1.926   0.981
10727SOL    HW244061   3.484   1.831   1.094
10728SOL     OW44062   3.850   2.236   4.962
10728SOL    HW144063   3.764   2.240   4.918
10728SOL    HW244064   3.896   2.166   4.916
10729SOL     OW44065   3.313   3.909  12.901
10729SOL    HW144066   3.265   3.985  12.933
10729SOL    HW244067   3.358   3.874  12.978
10730SOL     OW44068   0.730   2.201  16.283
10730SOL    HW144069   0.739   2.230  16.193
10730SOL    HW244070   0.651   2.244  16.315
10731SOL     OW44071   0.714   2.843   5.284
10731SOL    HW144072   0.716   2.757   5.326
10731SOL    HW244073   0.621   2.861   5.272
10732SOL     OW44074   4.601   1.143  19.735
10732SOL    HW144075   4.551   1.135  19.816
10732SOL    HW244076   4.630   1.054  19.717
10733SOL     OW44077   3.117   1.585   4.383
10733SOL    HW144078   3.094   1.542   4.301
10733SOL    HW244079   3.101   1.518   4.450
10734SOL     OW44080   0.530   0.225   0.854
10734SOL    HW144081   0.482   0.166   0.912
10734SOL    HW244082   0.463   0.282   0.817
10735SOL     OW44083   3.914   3.037  17.430
10735SOL    HW144084   3.833   3.045  17.378
10735SOL    HW244085   3.980   3.081  17.377
10736SOL     OW44086   2.488   2.729   1.228
10736SOL    HW144087   2.393   2.720   1.234
10736SOL    HW244088   2.522   2.643   1.254
10737SOL     OW44089   1.742   0.153   5.124
10737SOL    HW144090   1.725   0.234   5.171
10737SOL    HW244091   1.689   0.087   5.169
10738SOL     OW44092   3.139   3.397  21.007
10738SOL    HW144093   3.163   3.305  21.015
10738SOL    HW244094   3.075   3.411  21.077
10739SOL     OW44095   2.162   1.468  16.700
10739SOL    HW144096   2.107   1.527  16.650
10739SOL    HW244097   2.248   1.473  16.658
10740SOL     OW44098   2.977   0.694   3.362
10740SOL    HW144099   3.046   0.725   3.304
10740SOL    HW244100   2.984   0.599   3.359
10741SOL     OW44101   2.363   2.790   8.610
10741SOL    HW144102   2.450   2.829   8.618
10741SOL    HW244103   2.377   2.714   8.553
10742SOL     OW44104   0.707   1.831   4.101
10742SOL    HW144105   0.771   1.769   4.068
10742SOL    HW244106   0.714   1.824   4.197
10743SOL     OW44107   4.510   0.392  20.636
10743SOL    HW144108   4.426   0.397  20.590
10743SOL    HW244109   4.572   0.360  20.571
10744SOL     OW44110   3.385   3.024   0.474
10744SOL    HW144111   3.429   2.975   0.405
10744SOL    HW244112   3.412   3.115   0.460
10745SOL     OW44113   0.539   0.426  19.589
10745SOL    HW144114   0.612   0.441  19.527
10745SOL    HW244115   0.566   0.472  19.668
10746SOL     OW44116   2.822   2.880  17.482
10746SOL    HW144117   2.824   2.975  17.488
10746SOL    HW244118   2.842   2.850  17.571
10747SOL     OW44119   1.791   0.560   2.498
10747SOL    HW144120   1.805   0.605   2.581
10747SOL    HW244121   1.720   0.498   2.517
10748SOL     OW44122   4.080   1.484  16.076
10748SOL    HW144123   4.029   1.404  16.082
10748SOL    HW244124   4.171   1.455  16.066
10749SOL     OW44125   3.578   3.106   3.368
10749SOL    HW144126   3.652   3.094   3.427
10749SOL    HW244127   3.522   3.029   3.384
10750SOL     OW44128   0.701   4.241  17.250
10750SOL    HW144129   0.614   4.267  17.220
10750SOL    HW244130   0.726   4.171  17.190
10751SOL     OW44131   2.163   2.761   4.163
10751SOL    HW144132   2.233   2.761   4.229
10751SOL    HW244133   2.133   2.852   4.161
10752SOL     OW44134   1.365   0.027   0.480
10752SOL    HW144135   1.413   4.741   0.450
10752SOL    HW244136   1.352   0.013   0.573
10753SOL     OW44137   0.264   3.902  18.500
10753SOL    HW144138   0.343   3.955  18.484
10753SOL    HW244139   0.214   3.953  18.563
10754SOL     OW44140   4.312   4.147  13.971
10754SOL    HW144141   4.246   4.078  13.961
10754SOL    HW244142   4.391   4.100  13.998
10755SOL     OW44143   2.305   2.306   6.488
10755SOL    HW144144   2.290   2.387   6.441
10755SOL    HW244145   2.398   2.286   6.473
10756SOL     OW44146   1.941   4.255  18.130
10756SOL    HW144147   1.933   4.192  18.059
10756SOL    HW244148   1.886   4.219  18.200
10757SOL     OW44149   0.826   1.801   0.327
10757SOL    HW144150   0.902   1.759   0.287
10757SOL    HW244151   0.851   1.815   0.419
10758SOL     OW44152   3.440   3.205   7.746
10758SOL    HW144153   3.513   3.157   7.705
10758SOL    HW244154   3.457   3.296   7.723
10759SOL     OW44155   2.045   3.808   4.083
10759SOL    HW144156   1.977   3.876   4.089
10759SOL    HW244157   2.126   3.854   4.105
10760SOL     OW44158   2.118   2.228  17.839
10760SOL    HW144159   2.129   2.309  17.888
10760SOL    HW244160   2.161   2.161  17.892
10761SOL     OW44161   1.655   0.511   5.570
10761SOL    HW144162   1.748   0.513   5.592
10761SOL    HW244163   1.620   0.437   5.619
10762SOL     OW44164   1.222   2.736  20.379
10762SOL    HW144165   1.290   2.762  20.317
10762SOL    HW244166   1.254   2.765  20.464
10763SOL     OW44167   1.645   0.536   0.482
10763SOL    HW144168   1.673   0.453   0.520
10763SOL    HW244169   1.550   0.529   0.477
10764SOL     OW44170   3.730   1.695  18.134
10764SOL    HW144171   3.807   1.712  18.081
10764SOL    HW244172   3.757   1.715  18.223
10765SOL     OW44173   3.463   1.128  15.674
10765SOL    HW144174   3.438   1.216  15.644
10765SOL    HW244175   3.551   1.115  15.638
10766SOL     OW44176   1.729   2.326  21.238
10766SOL    HW144177   1.650   2.281  21.208
10766SOL    HW244178   1.747   2.287   0.061
10767SOL     OW44179   3.274   3.716   4.276
10767SOL    HW144180   3.336   3.765   4.330
10767SOL    HW244181   3.288   3.749   4.187
10768SOL     OW44182   2.965   3.260  15.576
10768SOL    HW144183   2.982   3.168  15.598
10768SOL    HW244184   3.032   3.309  15.625
10769SOL     OW44185   2.432   1.921   8.392
10769SOL    HW144186   2.513   1.900   8.438
10769SOL    HW244187   2.363   1.905   8.456
10770SOL     OW44188   2.564   1.443  16.862
10770SOL    HW144189   2.561   1.513  16.927
10770SOL    HW244190   2.525   1.367  16.907
10771SOL     OW44191   0.217   2.648  15.024
10771SOL    HW144192   0.212   2.567  14.973
10771SOL    HW244193   0.220   2.619  15.115
10772SOL     OW44194   4.425   2.912  17.423
10772SOL    HW144195   4.350   2.872  17.380
10772SOL    HW244196   4.493   2.844  17.423
10773SOL     OW44197   2.780   1.673   1.409
10773SOL    HW144198   2.748   1.648   1.496
10773SOL    HW244199   2.747   1.605   1.351
10774SOL     OW44200   1.582   1.768  17.910
10774SOL    HW144201   1.583   1.677  17.938
10774SOL    HW244202   1.654   1.809  17.957
10775SOL     OW44203   4.123   2.123   1.062
10775SOL    HW144204   4.175   2.155   0.988
10775SOL    HW244205   4.173   2.147   1.139
10776SOL     OW44206   2.970   2.504   5.331
10776SOL    HW144207   2.922   2.432   5.289
10776SOL    HW244208   3.057   2.468   5.349
10777SOL     OW44209   1.727   0.643   1.281
10777SOL    HW144210   1.650   0.684   1.320
10777SOL    HW244211   1.799   0.666   1.339
10778SOL     OW44212   3.630   3.894  20.383
10778SOL    HW144213   3.709   3.907  20.330
10778SOL    HW244214   3.564   3.949  20.341
10779SOL     OW44215   2.978   2.694  19.223
10779SOL    HW144216   2.918   2.622  19.205
10779SOL    HW244217   3.041   2.692  19.152
10780SOL     OW44218   0.979   0.939   4.511
10780SOL    HW144219   0.998   0.850   4.542
10780SOL    HW244220   0.946   0.927   4.422
10781SOL     OW44221   2.264   2.640  15.385
10781SOL    HW144222   2.175   2.675  15.380
10781SOL    HW244223   2.267   2.596  15.471
10782SOL     OW44224   2.654   2.873   6.261
10782SOL    HW144225   2.707   2.865   6.340
10782SOL    HW244226   2.657   2.786   6.221
10783SOL     OW44227   3.150   3.209  20.469
10783SOL    HW144228   3.135   3.287  20.415
10783SOL    HW244229   3.202   3.151  20.413
10784SOL     OW44230   3.597   3.672   1.972
10784SOL    HW144231   3.503   3.688   1.977
10784SOL    HW244232   3.606   3.584   1.937
10785SOL     OW44233   1.553   4.380   5.726
10785SOL    HW144234   1.511   4.304   5.767
10785SOL    HW244235   1.499   4.400   5.650
10786SOL     OW44236   0.538   2.007  21.190
10786SOL    HW144237   0.505   2.090  21.156
10786SOL    HW244238   0.598   2.033  21.260
10787SOL     OW44239   1.096   3.417   4.463
10787SOL    HW144240   1.127   3.327   4.447
10787SOL    HW244241   1.004   3.415   4.437
10788SOL     OW44242   3.602   0.224  21.252
10788SOL    HW144243   3.574   0.134   0.004
10788SOL    HW244244   3.561   0.274   0.060
10789SOL     OW44245   1.669   3.641   1.717
10789SOL    HW144246   1.712   3.726   1.718
10789SOL    HW244247   1.695   3.602   1.633
10790SOL     OW44248   4.606   2.311  20.457
10790SOL    HW144249   4.677   2.350  20.507
10790SOL    HW244250   4.527   2.334  20.505
10791SOL     OW44251   1.259   0.156   2.096
10791SOL    HW144252   1.269   0.192   2.184
10791SOL    HW244253   1.247   0.062   2.110
10792SOL     OW44254   4.521   0.014   7.044
10792SOL    HW144255   4.520   0.063   6.961
10792SOL    HW244256   4.436   4.762   7.048
10793SOL     OW44257   2.490   1.152   1.008
10793SOL    HW144258   2.511   1.143   1.101
10793SOL    HW244259   2.563   1.199   0.970
10794SOL     OW44260   1.099   0.339  19.576
10794SOL    HW144261   1.108   0.413  19.635
10794SOL    HW244262   1.190   0.312  19.559
10795SOL     OW44263   4.034   1.625  14.775
10795SOL    HW144264   4.087   1.588  14.704
10795SOL    HW244265   4.096   1.636  14.847
10796SOL     OW44266   2.517   1.401   1.729
10796SOL    HW144267   2.570   1.416   1.651
10796SOL    HW244268   2.546   1.316   1.762
10797SOL     OW44269   1.174   0.694   0.328
10797SOL    HW144270   1.107   0.690   0.396
10797SOL    HW244271   1.243   0.750   0.364
10798SOL     OW44272   4.096   1.236   3.619
10798SOL    HW144273   4.043   1.160   3.643
10798SOL    HW244274   4.168   1.200   3.567
10799SOL     OW44275   0.849   4.186  15.013
10799SOL    HW144276   0.868   4.200  15.105
10799SOL    HW244277   0.755   4.199  15.005
10800SOL     OW44278   4.561   1.392   5.834
10800SOL    HW144279   4.523   1.368   5.749
10800SOL    HW244280   4.596   1.480   5.820
10801SOL     OW44281   2.145   2.229  20.399
10801SOL    HW144282   2.104   2.309  20.366
10801SOL    HW244283   2.071   2.171  20.420
10802SOL     OW44284   3.049   0.602   1.941
10802SOL    HW144285   2.955   0.588   1.928
10802SOL    HW244286   3.054   0.665   2.013
10803SOL     OW44287   3.920   0.028   0.264
10803SOL    HW144288   4.005   0.073   0.263
10803SOL    HW244289   3.871   0.069   0.335
10804SOL     OW44290   4.634   1.036   1.097
10804SOL    HW144291   4.589   1.121   1.099
10804SOL    HW244292   4.654   1.023   1.004
10805SOL     OW44293   4.057   2.769   1.128
10805SOL    HW144294   3.982   2.722   1.164
10805SOL    HW244295   4.057   2.748   1.035
10806SOL     OW44296   3.545   4.265   6.704
10806SOL    HW144297   3.537   4.237   6.794
10806SOL    HW244298   3.507   4.194   6.652
10807SOL     OW44299   0.357   0.342  15.480
10807SOL    HW144300   0.298   0.416  15.467
10807SOL    HW244301   0.406   0.364  15.560
10808SOL     OW44302   0.603   1.450   2.717
10808SOL    HW144303   0.547   1.516   2.757
10808SOL    HW244304   0.613   1.383   2.785
10809SOL     OW44305   2.841   1.506  20.997
10809SOL    HW144306   2.780   1.438  20.972
10809SOL    HW244307   2.790   1.587  20.995
10810SOL     OW44308   0.387   1.637   5.512
10810SOL    HW144309   0.369   1.622   5.419
10810SOL    HW244310   0.407   1.550   5.547
10811SOL     OW44311   3.637   0.148  18.571
10811SOL    HW144312   3.658   0.111  18.485
10811SOL    HW244313   3.581   0.223  18.551
10812SOL     OW44314   4.668   1.950  19.663
10812SOL    HW144315   4.759   1.949  19.632
10812SOL    HW244316   4.658   2.037  19.703
10813SOL     OW44317   4.355   1.223  16.486
10813SOL    HW144318   4.394   1.199  16.402
10813SOL    HW244319   4.286   1.285  16.463
10814SOL     OW44320   4.420   3.994  16.694
10814SOL    HW144321   4.358   3.960  16.759
10814SOL    HW244322   4.388   3.961  16.610
10815SOL     OW44323   2.135   1.132   5.077
10815SOL    HW144324   2.066   1.151   5.014
10815SOL    HW244325   2.179   1.054   5.042
10816SOL     OW44326   2.400   3.111   4.091
10816SOL    HW144327   2.426   3.202   4.077
10816SOL    HW244328   2.445   3.062   4.023
10817SOL     OW44329   0.462   2.877  18.023
10817SOL    HW144330   0.426   2.965  18.014
10817SOL    HW244331   0.424   2.828  17.950
10818SOL     OW44332   1.474   4.498   8.584
10818SOL    HW144333   1.519   4.419   8.614
10818SOL    HW244334   1.424   4.527   8.660
10819SOL     OW44335   3.701   2.797  12.796
10819SOL    HW144336   3.726   2.887  12.817
10819SOL    HW244337   3.610   2.790  12.826
10820SOL     OW44338   0.157   2.069  17.309
10820SOL    HW144339   0.086   2.130  17.330
10820SOL    HW244340   0.225   2.089  17.373
10821SOL     OW44341   1.971   0.454  20.321
10821SOL    HW144342   2.009   0.394  20.386
10821SOL    HW244343   1.877   0.453  20.339
10822SOL     OW44344   1.428   0.863   0.175
10822SOL    HW144345   1.523   0.860   0.180
10822SOL    HW244346   1.406   0.956   0.182
10823SOL     OW44347   4.013   4.184  17.451
10823SOL    HW144348   3.953   4.162  17.522
10823SOL    HW244349   4.085   4.122  17.460
10824SOL     OW44350   3.260   1.906   6.901
10824SOL    HW144351   3.293   1.926   6.814
10824SOL    HW244352   3.262   1.811   6.907
10825SOL     OW44353   3.060   1.265  15.878
10825SOL    HW144354   2.983   1.319  15.864
10825SOL    HW244355   3.132   1.314  15.838
10826SOL     OW44356   2.503   1.228  17.015
10826SOL    HW144357   2.469   1.149  16.972
10826SOL    HW244358   2.433   1.254  17.075
10827SOL     OW44359   2.532   1.087   4.819
10827SOL    HW144360   2.536   0.996   4.789
10827SOL    HW244361   2.524   1.081   4.914
10828SOL     OW44362   4.160   3.984   8.613
10828SOL    HW144363   4.125   4.065   8.649
10828SOL    HW244364   4.232   4.012   8.557
10829SOL     OW44365   0.420   3.862   2.922
10829SOL    HW144366   0.501   3.875   2.872
10829SOL    HW244367   0.399   3.770   2.911
10830SOL     OW44368   1.855   4.555  16.470
10830SOL    HW144369   1.895   4.567  16.556
10830SOL    HW244370   1.788   4.488  16.484
10831SOL     OW44371   2.161   3.997   2.670
10831SOL    HW144372   2.066   4.002   2.679
10831SOL    HW244373   2.179   3.904   2.653
10832SOL     OW44374   3.245   2.025  20.538
10832SOL    HW144375   3.157   2.016  20.574
10832SOL    HW244376   3.300   1.971  20.596
10833SOL     OW44377   4.254   1.072  18.859
10833SOL    HW144378   4.182   1.080  18.922
10833SOL    HW244379   4.222   1.118  18.781
10834SOL     OW44380   0.598   1.940  19.562
10834SOL    HW144381   0.661   1.991  19.512
10834SOL    HW244382   0.515   1.985  19.548
10835SOL     OW44383   1.803   3.405  20.601
10835SOL    HW144384   1.838   3.484  20.559
10835SOL    HW244385   1.837   3.333  20.549
10836SOL     OW44386   3.973   4.154   3.846
10836SOL    HW144387   4.044   4.120   3.900
10836SOL    HW244388   3.976   4.249   3.859
10837SOL     OW44389   2.238   0.538   1.868
10837SOL    HW144390   2.296   0.463   1.854
10837SOL    HW244391   2.158   0.500   1.905
10838SOL     OW44392   4.760   4.222   7.796
10838SOL    HW144393   4.705   4.159   7.750
10838SOL    HW244394   4.761   4.191   7.886
10839SOL     OW44395   2.651   1.794  18.726
10839SOL    HW144396   2.611   1.717  18.765
10839SOL    HW244397   2.688   1.763  18.643
10840SOL     OW44398   0.106   4.374   4.867
10840SOL    HW144399   0.200   4.377   4.849
10840SOL    HW244400   0.095   4.433   4.941
10841SOL     OW44401   0.805   2.483  17.126
10841SOL    HW144402   0.785   2.440  17.209
10841SOL    HW244403   0.877   2.543  17.147
10842SOL     OW44404   4.092   2.539   2.286
10842SOL    HW144405   4.089   2.509   2.376
10842SOL    HW244406   4.151   2.477   2.242
10843SOL     OW44407   2.737   4.442   4.989
10843SOL    HW144408   2.810   4.421   5.048
10843SOL    HW244409   2.708   4.529   5.016
10844SOL     OW44410   2.837   4.118   1.854
10844SOL    HW144411   2.916   4.169   1.867
10844SOL    HW244412   2.765   4.180   1.869
10845SOL     OW44413   2.332   0.675   4.510
10845SOL    HW144414   2.424   0.700   4.519
10845SOL    HW244415   2.333   0.579   4.512
10846SOL     OW44416   2.705   3.247   3.172
10846SOL    HW144417   2.743   3.232   3.258
10846SOL    HW244418   2.638   3.179   3.163
10847SOL     OW44419   3.086   4.203   1.952
10847SOL    HW144420   3.042   4.198   2.037
10847SOL    HW244421   3.146   4.277   1.960
10848SOL     OW44422   1.325   1.718  18.330
10848SOL    HW144423   1.420   1.713  18.331
10848SOL    HW244424   1.299   1.714  18.422
10849SOL     OW44425   0.179   4.386  16.180
10849SOL    HW144426   0.113   4.353  16.119
10849SOL    HW244427   0.240   4.436  16.125
10850SOL     OW44428   1.173   4.681   2.096
10850SOL    HW144429   1.211   4.620   2.159
10850SOL    HW244430   1.175   4.634   2.013
10851SOL     OW44431   0.648   3.335  15.412
10851SOL    HW144432   0.719   3.321  15.475
10851SOL    HW244433   0.681   3.300  15.330
10852SOL     OW44434   2.638   0.635   5.945
10852SOL    HW144435   2.677   0.548   5.956
10852SOL    HW244436   2.594   0.651   6.029
10853SOL     OW44437   2.805   0.496  17.649
10853SOL    HW144438   2.786   0.426  17.712
10853SOL    HW244439   2.866   0.455  17.587
10854SOL     OW44440   3.217   1.478   9.870
10854SOL    HW144441   3.136   1.432   9.891
10854SOL    HW244442   3.269   1.415   9.820
10855SOL     OW44443   3.463   0.078  20.703
10855SOL    HW144444   3.526   0.089  20.774
10855SOL    HW244445   3.465   4.775  20.683
10856SOL     OW44446   0.013   0.896  17.299
10856SOL    HW144447   4.782   0.894  17.392
10856SOL    HW244448   0.043   0.986  17.284
10857SOL     OW44449   1.332   3.266   1.505
10857SOL    HW144450   1.278   3.338   1.539
10857SOL    HW244451   1.366   3.299   1.422
10858SOL     OW44452   3.381   2.890  17.240
10858SOL    HW144453   3.424   2.806  17.223
10858SOL    HW244454   3.346   2.916  17.154
10859SOL     OW44455   1.266   1.277   3.079
10859SOL    HW144456   1.172   1.284   3.066
10859SOL    HW244457   1.282   1.184   3.094
10860SOL     OW44458   1.102   0.617   2.468
10860SOL    HW144459   1.096   0.552   2.539
10860SOL    HW244460   1.036   0.589   2.405
10861SOL     OW44461   1.764   4.642   6.077
10861SOL    HW144462   1.714   4.718   6.106
10861SOL    HW244463   1.697   4.576   6.057
10862SOL     OW44464   1.798   2.160   2.741
10862SOL    HW144465   1.742   2.190   2.812
10862SOL    HW244466   1.819   2.069   2.764
10863SOL     OW44467   0.336   3.157  19.381
10863SOL    HW144468   0.357   3.222  19.314
10863SOL    HW244469   0.310   3.079  19.332
10864SOL     OW44470   4.776   2.456   1.386
10864SOL    HW144471   0.050   2.442   1.318
10864SOL    HW244472   4.754   2.549   1.380
10865SOL     OW44473   2.184   1.396   3.185
10865SOL    HW144474   2.254   1.344   3.224
10865SOL    HW244475   2.214   1.414   3.096
10866SOL     OW44476   4.592   3.964   3.094
10866SOL    HW144477   4.525   3.901   3.066
10866SOL    HW244478   4.543   4.041   3.121
10867SOL     OW44479   1.075   2.764   5.336
10867SOL    HW144480   1.023   2.765   5.416
10867SOL    HW244481   1.062   2.676   5.299
10868SOL     OW44482   4.495   1.389   0.537
10868SOL    HW144483   4.542   1.353   0.613
10868SOL    HW244484   4.519   1.481   0.535
10869SOL     OW44485   1.096   3.069   3.472
10869SOL    HW144486   1.047   3.002   3.517
10869SOL    HW244487   1.133   3.123   3.542
10870SOL     OW44488   4.127   4.506  18.197
10870SOL    HW144489   4.202   4.500  18.138
10870SOL    HW244490   4.102   4.599  18.193
10871SOL     OW44491   1.724   3.990   0.510
10871SOL    HW144492   1.757   4.005   0.422
10871SOL    HW244493   1.682   4.073   0.535
10872SOL     OW44494   0.486   4.470  21.049
10872SOL    HW144495   0.424   4.426  21.108
10872SOL    HW244496   0.456   4.561  21.047
10873SOL     OW44497   1.493   1.234  15.514
10873SOL    HW144498   1.526   1.245  15.425
10873SOL    HW244499   1.550   1.167  15.552
10874SOL     OW44500   1.553   1.317  16.489
10874SOL    HW144501   1.526   1.301  16.579
10874SOL    HW244502   1.648   1.331  16.495
10875SOL     OW44503   3.688   2.906  17.344
10875SOL    HW144504   3.680   2.981  17.284
10875SOL    HW244505   3.623   2.924  17.412
10876SOL     OW44506   0.708   2.599  20.776
10876SOL    HW144507   0.679   2.570  20.689
10876SOL    HW244508   0.791   2.643  20.759
10877SOL     OW44509   1.844   2.574  15.032
10877SOL    HW144510   1.889   2.654  15.058
10877SOL    HW244511   1.836   2.524  15.114
10878SOL     OW44512   4.722   1.192   2.206
10878SOL    HW144513   4.695   1.266   2.151
10878SOL    HW244514   4.650   1.130   2.200
10879SOL     OW44515   4.679   0.587   0.448
10879SOL    HW144516   4.697   0.639   0.369
10879SOL    HW244517   4.753   0.605   0.506
10880SOL     OW44518   1.256   3.966   0.263
10880SOL    HW144519   1.303   4.016   0.196
10880SOL    HW244520   1.168   4.005   0.264
10881SOL     OW44521   3.679   2.324  15.782
10881SOL    HW144522   3.711   2.314  15.871
10881SOL    HW244523   3.588   2.352  15.792
10882SOL     OW44524   0.049   2.789   4.373
10882SOL    HW144525   0.025   2.868   4.325
10882SOL    HW244526   0.129   2.758   4.330
10883SOL     OW44527   0.202   1.901   5.819
10883SOL    HW144528   0.193   1.818   5.773
10883SOL    HW244529   0.183   1.881   5.910
10884SOL     OW44530   0.021   1.465   4.057
10884SOL    HW144531   4.778   1.453   3.968
10884SOL    HW244532   0.005   1.557   4.077
10885SOL     OW44533   0.893   0.391   1.002
10885SOL    HW144534   0.803   0.418   0.988
10885SOL    HW244535   0.906   0.317   0.942
10886SOL     OW44536   3.384   3.876  20.529
10886SOL    HW144537   3.399   3.907  20.618
10886SOL    HW244538   3.456   3.815  20.512
10887SOL     OW44539   2.982   2.111  17.659
10887SOL    HW144540   3.023   2.189  17.696
10887SOL    HW244541   2.905   2.144  17.613
10888SOL     OW44542   3.830   3.024   5.300
10888SOL    HW144543   3.765   3.058   5.361
10888SOL    HW244544   3.876   3.101   5.267
10889SOL     OW44545   1.097   1.392  19.401
10889SOL    HW144546   1.016   1.353  19.432
10889SOL    HW244547   1.089   1.485  19.424
10890SOL     OW44548   3.754   3.509  19.550
10890SOL    HW144549   3.734   3.492  19.642
10890SOL    HW244550   3.774   3.602  19.547
10891SOL     OW44551   4.684   0.105  16.952
10891SOL    HW144552   4.776   0.119  16.930
10891SOL    HW244553   4.673   0.010  16.948
10892SOL     OW44554   0.210   3.455  15.952
10892SOL    HW144555   0.249   3.435  15.867
10892SOL    HW244556   0.137   3.393  15.959
10893SOL     OW44557   1.452   2.324  15.991
10893SOL    HW144558   1.462   2.229  15.996
10893SOL    HW244559   1.359   2.339  16.006
10894SOL     OW44560   0.991   1.478  15.527
10894SOL    HW144561   0.972   1.392  15.491
10894SOL    HW244562   1.007   1.463  15.620
10895SOL     OW44563   1.690   0.654  17.306
10895SOL    HW144564   1.672   0.609  17.388
10895SOL    HW244565   1.694   0.746  17.329
10896SOL     OW44566   4.722   0.673  21.120
10896SOL    HW144567   4.749   0.640  21.035
10896SOL    HW244568   4.743   0.603  21.181
10897SOL     OW44569   0.284   3.614  17.397
10897SOL    HW144570   0.220   3.574  17.456
10897SOL    HW244571   0.233   3.637  17.319
10898SOL     OW44572   4.457   1.466  16.598
10898SOL    HW144573   4.479   1.446  16.689
10898SOL    HW244574   4.457   1.381  16.553
10899SOL     OW44575   2.047   1.267  20.915
10899SOL    HW144576   2.015   1.183  20.882
10899SOL    HW244577   2.079   1.312  20.836
10900SOL     OW44578   0.529   1.852   5.192
10900SOL    HW144579   0.487   1.914   5.132
10900SOL    HW244580   0.473   1.775   5.189
10901SOL     OW44581   1.535   4.155  19.113
10901SOL    HW144582   1.622   4.162  19.152
10901SOL    HW244583   1.525   4.063  19.093
10902SOL     OW44584   3.640   0.248  17.842
10902SOL    HW144585   3.564   0.275  17.791
10902SOL    HW244586   3.700   0.211  17.776
10903SOL     OW44587   4.341   2.755   2.360
10903SOL    HW144588   4.273   2.801   2.407
10903SOL    HW244589   4.358   2.676   2.412
10904SOL     OW44590   4.284   4.354  15.962
10904SOL    HW144591   4.221   4.392  15.900
10904SOL    HW244592   4.252   4.380  16.048
10905SOL     OW44593   3.664   3.145  20.760
10905SOL    HW144594   3.605   3.157  20.835
10905SOL    HW244595   3.704   3.059  20.774
10906SOL     OW44596   2.024   1.847  20.940
10906SOL    HW144597   1.950   1.843  20.879
10906SOL    HW244598   2.026   1.938  20.969
10907SOL     OW44599   0.204   1.018  18.521
10907SOL    HW144600   0.122   1.065  18.535
10907SOL    HW244601   0.252   1.030  18.604
10908SOL     OW44602   3.515   2.144   2.323
10908SOL    HW144603   3.427   2.155   2.359
10908SOL    HW244604   3.553   2.232   2.325
10909SOL     OW44605   1.405   0.010   0.173
10909SOL    HW144606   1.411   0.094   0.219
10909SOL    HW244607   1.493   4.763   0.181
10910SOL     OW44608   2.205   4.493  13.704
10910SOL    HW144609   2.173   4.538  13.781
10910SOL    HW244610   2.284   4.447  13.734
10911SOL     OW44611   2.492   4.005  18.715
10911SOL    HW144612   2.535   4.080  18.672
10911SOL    HW244613   2.543   3.929  18.686
10912SOL     OW44614   0.252   1.392   4.211
10912SOL    HW144615   0.225   1.373   4.301
10912SOL    HW244616   0.170   1.405   4.164
10913SOL     OW44617   2.584   1.521   0.791
10913SOL    HW144618   2.494   1.545   0.812
10913SOL    HW244619   2.585   1.509   0.696
10914SOL     OW44620   3.536   3.058   4.166
10914SOL    HW144621   3.520   2.964   4.169
10914SOL    HW244622   3.631   3.067   4.175
10915SOL     OW44623   1.186   0.789  17.486
10915SOL    HW144624   1.139   0.715  17.524
10915SOL    HW244625   1.123   0.861  17.490
10916SOL     OW44626   3.143   2.162  16.811
10916SOL    HW144627   3.130   2.255  16.790
10916SOL    HW244628   3.114   2.155  16.902
10917SOL     OW44629   3.138   3.786  19.881
10917SOL    HW144630   3.172   3.817  19.797
10917SOL    HW244631   3.154   3.692  19.880
10918SOL     OW44632   2.763   3.905   3.217
10918SOL    HW144633   2.737   3.846   3.288
10918SOL    HW244634   2.690   3.966   3.208
10919SOL     OW44635   0.047   3.867   3.093
10919SOL    HW144636   0.095   3.926   3.036
10919SOL    HW244637   4.747   3.895   3.087
10920SOL     OW44638   4.181   1.705  18.102
10920SOL    HW144639   4.273   1.713  18.130
10920SOL    HW244640   4.187   1.667  18.014
10921SOL     OW44641   3.404   4.582   0.828
10921SOL    HW144642   3.395   4.571   0.923
10921SOL    HW244643   3.429   4.673   0.817
10922SOL     OW44644   3.281   2.043   3.502
10922SOL    HW144645   3.304   2.129   3.537
10922SOL    HW244646   3.216   2.009   3.564
10923SOL     OW44647   4.446   0.797   5.740
10923SOL    HW144648   4.507   0.863   5.708
10923SOL    HW244649   4.366   0.811   5.691
10924SOL     OW44650   4.310   1.349   5.982
10924SOL    HW144651   4.404   1.332   5.982
10924SOL    HW244652   4.270   1.263   5.966
10925SOL     OW44653   1.135   3.051  15.970
10925SOL    HW144654   1.083   3.086  15.898
10925SOL    HW244655   1.226   3.064  15.942
10926SOL     OW44656   0.836   0.170  20.978
10926SOL    HW144657   0.904   0.134  21.034
10926SOL    HW244658   0.882   0.226  20.916
10927SOL     OW44659   3.042   1.178  21.185
10927SOL    HW144660   3.123   1.154  21.139
10927SOL    HW244661   3.025   1.268  21.159
10928SOL     OW44662   3.346   4.600  17.994
10928SOL    HW144663   3.318   4.624  17.905
10928SOL    HW244664   3.441   4.600  17.991
10929SOL     OW44665   3.812   4.705   5.060
10929SOL    HW144666   3.731   4.728   5.015
10929SOL    HW244667   3.788   4.633   5.118
10930SOL     OW44668   1.014   1.583   0.262
10930SOL    HW144669   1.083   1.618   0.320
10930SOL    HW244670   1.011   1.490   0.283
10931SOL     OW44671   3.712   0.001  19.649
10931SOL    HW144672   3.778   4.761  19.587
10931SOL    HW244673   3.671   0.076  19.607
10932SOL     OW44674   0.288   0.790  15.623
10932SOL    HW144675   0.207   0.830  15.591
10932SOL    HW244676   0.265   0.698  15.637
10933SOL     OW44677   1.884   0.218   8.241
10933SOL    HW144678   1.878   0.313   8.235
10933SOL    HW244679   1.869   0.187   8.152
10934SOL     OW44680   3.371   0.892  18.071
10934SOL    HW144681   3.302   0.844  18.117
10934SOL    HW244682   3.445   0.893  18.131
10935SOL     OW44683   0.113   0.549  20.120
10935SOL    HW144684   0.021   0.568  20.105
10935SOL    HW244685   0.159   0.594  20.049
10936SOL     OW44686   0.892   0.698   6.029
10936SOL    HW144687   0.917   0.619   6.077
10936SOL    HW244688   0.822   0.737   6.080
10937SOL     OW44689   3.639   3.061   5.858
10937SOL    HW144690   3.702   3.128   5.832
10937SOL    HW244691   3.558   3.085   5.812
10938SOL     OW44692   2.522   4.078  14.411
10938SOL    HW144693   2.453   4.016  14.434
10938SOL    HW244694   2.603   4.029  14.421
10939SOL     OW44695   0.071   2.073  15.438
10939SOL    HW144696   0.023   2.008  15.489
10939SOL    HW244697   0.109   2.131  15.504
10940SOL     OW44698   4.424   1.333   8.153
10940SOL    HW144699   4.413   1.331   8.057
10940SOL    HW244700   4.512   1.369   8.166
10941SOL     OW44701   1.822   3.555  19.637
10941SOL    HW144702   1.914   3.528  19.631
10941SOL    HW244703   1.819   3.611  19.714
10942SOL     OW44704   4.492   3.443   0.153
10942SOL    HW144705   4.474   3.459   0.061
10942SOL    HW244706   4.557   3.509   0.177
10943SOL     OW44707   3.807   3.059  19.372
10943SOL    HW144708   3.869   3.066  19.444
10943SOL    HW244709   3.848   3.107  19.300
10944SOL     OW44710   3.540   1.414   6.865
10944SOL    HW144711   3.496   1.475   6.806
10944SOL    HW244712   3.491   1.332   6.857
10945SOL     OW44713   2.690   1.093   0.355
10945SOL    HW144714   2.615   1.151   0.373
10945SOL    HW244715   2.657   1.030   0.291
10946SOL     OW44716   2.106   3.029   4.161
10946SOL    HW144717   2.192   3.070   4.175
10946SOL    HW244718   2.051   3.065   4.230
10947SOL     OW44719   1.681   4.268  19.830
10947SOL    HW144720   1.716   4.278  19.741
10947SOL    HW244721   1.603   4.323  19.833
10948SOL     OW44722   1.091   3.087  21.091
10948SOL    HW144723   1.016   3.047  21.045
10948SOL    HW244724   1.116   3.021  21.156
10949SOL     OW44725   2.338   0.096   3.973
10949SOL    HW144726   2.366   0.034   3.907
10949SOL    HW244727   2.270   0.050   4.022
10950SOL     OW44728   2.096   3.070   1.814
10950SOL    HW144729   2.181   3.086   1.773
10950SOL    HW244730   2.077   2.978   1.795
10951SOL     OW44731   2.022   2.016   2.006
10951SOL    HW144732   2.006   1.923   1.989
10951SOL    HW244733   1.986   2.031   2.093
10952SOL     OW44734   2.795   1.625  17.496
10952SOL    HW144735   2.871   1.569  17.485
10952SOL    HW244736   2.829   1.714  17.486
10953SOL     OW44737   4.045   4.726   6.063
10953SOL    HW144738   4.113   4.717   6.130
10953SOL    HW244739   4.021   0.027   6.064
10954SOL     OW44740   0.471   0.786  16.850
10954SOL    HW144741   0.560   0.820  16.843
10954SOL    HW244742   0.415   0.862  16.835
10955SOL     OW44743   1.234   2.287  17.125
10955SOL    HW144744   1.204   2.297  17.216
10955SOL    HW244745   1.283   2.367  17.108
10956SOL     OW44746   0.366   1.087  17.401
10956SOL    HW144747   0.324   1.075  17.315
10956SOL    HW244748   0.387   0.999  17.430
10957SOL     OW44749   1.204   4.118   1.351
10957SOL    HW144750   1.121   4.115   1.398
10957SOL    HW244751   1.204   4.041   1.295
10958SOL     OW44752   0.057   0.084   1.995
10958SOL    HW144753   0.010   0.154   1.951
10958SOL    HW244754   0.008   0.069   2.076
10959SOL     OW44755   1.975   3.007   2.903
10959SOL    HW144756   1.947   3.051   2.823
10959SOL    HW244757   2.002   2.920   2.874
10960SOL     OW44758   2.526   2.307  18.912
10960SOL    HW144759   2.520   2.238  18.846
10960SOL    HW244760   2.441   2.351  18.909
10961SOL     OW44761   2.638   3.567  20.164
10961SOL    HW144762   2.675   3.507  20.229
10961SOL    HW244763   2.707   3.578  20.099
10962SOL     OW44764   4.201   4.385  16.784
10962SOL    HW144765   4.240   4.338  16.858
10962SOL    HW244766   4.272   4.438  16.749
10963SOL     OW44767   2.842   4.516   6.306
10963SOL    HW144768   2.817   4.479   6.391
10963SOL    HW244769   2.935   4.533   6.314
10964SOL     OW44770   1.287   2.837  17.811
10964SOL    HW144771   1.267   2.746  17.832
10964SOL    HW244772   1.296   2.879  17.897
10965SOL     OW44773   0.219   1.049   1.908
10965SOL    HW144774   0.161   1.048   1.831
10965SOL    HW244775   0.215   1.140   1.939
10966SOL     OW44776   4.667   1.427   6.131
10966SOL    HW144777   4.678   1.386   6.045
10966SOL    HW244778   4.623   1.510   6.112
10967SOL     OW44779   4.654   2.809  18.331
10967SOL    HW144780   4.639   2.794  18.237
10967SOL    HW244781   4.573   2.851  18.361
10968SOL     OW44782   3.553   4.614   0.284
10968SOL    HW144783   3.482   4.645   0.227
10968SOL    HW244784   3.633   4.645   0.241
10969SOL     OW44785   1.451   0.686   2.556
10969SOL    HW144786   1.379   0.745   2.534
10969SOL    HW244787   1.415   0.629   2.625
10970SOL     OW44788   3.238   2.022   2.267
10970SOL    HW144789   3.274   2.098   2.221
10970SOL    HW244790   3.168   1.991   2.210
10971SOL     OW44791   1.632   3.708  14.184
10971SOL    HW144792   1.683   3.749  14.115
10971SOL    HW244793   1.664   3.748  14.265
10972SOL     OW44794   2.479   1.328   5.392
10972SOL    HW144795   2.480   1.235   5.416
10972SOL    HW244796   2.416   1.333   5.320
10973SOL     OW44797   1.437   3.774   0.336
10973SOL    HW144798   1.424   3.702   0.275
10973SOL    HW244799   1.382   3.845   0.302
10974SOL     OW44800   0.850   4.714   0.004
10974SOL    HW144801   0.931   4.762  21.248
10974SOL    HW244802   0.830   4.735   0.095
10975SOL     OW44803   0.763   1.358  12.784
10975SOL    HW144804   0.736   1.445  12.813
10975SOL    HW244805   0.783   1.369  12.691
10976SOL     OW44806   2.904   2.352   1.079
10976SOL    HW144807   2.976   2.411   1.055
10976SOL    HW244808   2.922   2.327   1.170
10977SOL     OW44809   3.573   1.051  19.408
10977SOL    HW144810   3.550   1.003  19.329
10977SOL    HW244811   3.567   0.986  19.478
10978SOL     OW44812   3.573   3.975  18.171
10978SOL    HW144813   3.655   3.927  18.183
10978SOL    HW244814   3.550   3.961  18.079
10979SOL     OW44815   1.183   0.561   1.122
10979SOL    HW144816   1.137   0.607   1.192
10979SOL    HW244817   1.256   0.517   1.167
10980SOL     OW44818   2.213   3.010  15.402
10980SOL    HW144819   2.297   2.971  15.426
10980SOL    HW244820   2.207   2.999  15.307
10981SOL     OW44821   0.387   2.808  19.388
10981SOL    HW144822   0.358   2.815  19.297
10981SOL    HW244823   0.394   2.714  19.404
10982SOL     OW44824   1.552   0.686  20.812
10982SOL    HW144825   1.636   0.673  20.856
10982SOL    HW244826   1.571   0.748  20.741
10983SOL     OW44827   3.689   1.798   6.689
10983SOL    HW144828   3.672   1.885   6.727
10983SOL    HW244829   3.624   1.790   6.620
10984SOL     OW44830   1.251   2.803   7.830
10984SOL    HW144831   1.259   2.856   7.750
10984SOL    HW244832   1.234   2.714   7.798
10985SOL     OW44833   3.666   1.362   0.840
10985SOL    HW144834   3.719   1.427   0.793
10985SOL    HW244835   3.604   1.414   0.890
10986SOL     OW44836   0.995   2.487   2.115
10986SOL    HW144837   0.942   2.550   2.066
10986SOL    HW244838   0.931   2.428   2.155
10987SOL     OW44839   2.543   2.273  16.845
10987SOL    HW144840   2.456   2.233  16.846
10987SOL    HW244841   2.576   2.256  16.757
10988SOL     OW44842   2.347   0.533   6.030
10988SOL    HW144843   2.391   0.491   5.956
10988SOL    HW244844   2.328   0.622   5.999
10989SOL     OW44845   3.229   3.708   3.754
10989SOL    HW144846   3.200   3.728   3.666
10989SOL    HW244847   3.287   3.633   3.744
10990SOL     OW44848   4.060   0.574   5.634
10990SOL    HW144849   4.072   0.591   5.540
10990SOL    HW244850   3.970   0.542   5.641
10991SOL     OW44851   0.828   2.996   9.309
10991SOL    HW144852   0.892   3.044   9.257
10991SOL    HW244853   0.847   2.903   9.292
10992SOL     OW44854   1.783   0.700   4.268
10992SOL    HW144855   1.833   0.769   4.223
10992SOL    HW244856   1.833   0.620   4.252
10993SOL     OW44857   1.196   1.117   7.824
10993SOL    HW144858   1.263   1.141   7.760
10993SOL    HW244859   1.168   1.201   7.862
10994SOL     OW44860   4.598   1.400   4.771
10994SOL    HW144861   4.608   1.309   4.801
10994SOL    HW244862   4.650   1.452   4.832
10995SOL     OW44863   1.012   0.153  19.831
10995SOL    HW144864   0.917   0.166  19.828
10995SOL    HW244865   1.047   0.236  19.863
10996SOL     OW44866   1.315   0.109   9.226
10996SOL    HW144867   1.407   0.096   9.246
10996SOL    HW244868   1.310   0.197   9.189
10997SOL     OW44869   2.243   2.876   2.628
10997SOL    HW144870   2.219   2.861   2.536
10997SOL    HW244871   2.168   2.922   2.665
10998SOL     OW44872   2.827   0.444   2.296
10998SOL    HW144873   2.750   0.501   2.297
10998SOL    HW244874   2.847   0.429   2.388
10999SOL     OW44875   4.452   1.522  19.399
10999SOL    HW144876   4.485   1.436  19.425
10999SOL    HW244877   4.527   1.581  19.411
11000SOL     OW44878   4.785   0.672   5.578
11000SOL    HW144879   4.773   0.763   5.606
11000SOL    HW244880   0.088   0.659   5.574
11001SOL     OW44881   2.835   1.330   8.233
11001SOL    HW144882   2.825   1.371   8.319
11001SOL    HW244883   2.895   1.256   8.249
11002SOL     OW44884   2.340   1.228  19.157
11002SOL    HW144885   2.316   1.228  19.064
11002SOL    HW244886   2.426   1.187  19.160
11003SOL     OW44887   4.122   1.258   4.910
11003SOL    HW144888   4.039   1.306   4.902
11003SOL    HW244889   4.155   1.252   4.820
11004SOL     OW44890   3.943   0.874   8.340
11004SOL    HW144891   4.001   0.941   8.377
11004SOL    HW244892   3.966   0.794   8.386
11005SOL     OW44893   2.959   3.002   8.627
11005SOL    HW144894   2.895   3.024   8.695
11005SOL    HW244895   3.023   2.947   8.671
11006SOL     OW44896   0.870   2.467   2.540
11006SOL    HW144897   0.878   2.520   2.619
11006SOL    HW244898   0.957   2.466   2.502
11007SOL     OW44899   1.478   3.416  10.618
11007SOL    HW144900   1.473   3.506  10.584
11007SOL    HW244901   1.387   3.393  10.636
11008SOL     OW44902   2.114   3.401   9.647
11008SOL    HW144903   2.085   3.487   9.679
11008SOL    HW244904   2.035   3.361   9.611
11009SOL     OW44905   0.748   2.821  11.446
11009SOL    HW144906   0.762   2.913  11.464
11009SOL    HW244907   0.757   2.814  11.351
11010SOL     OW44908   2.769   4.418   4.704
11010SOL    HW144909   2.782   4.415   4.799
11010SOL    HW244910   2.676   4.440   4.694
11011SOL     OW44911   0.280   3.189   9.228
11011SOL    HW144912   0.326   3.213   9.308
11011SOL    HW244913   0.209   3.253   9.220
11012SOL     OW44914   2.802   2.673  10.113
11012SOL    HW144915   2.733   2.615  10.146
11012SOL    HW244916   2.776   2.760  10.143
11013SOL     OW44917   1.138   3.317   9.343
11013SOL    HW144918   1.189   3.237   9.355
11013SOL    HW244919   1.097   3.307   9.257
11014SOL     OW44920   3.156   4.615   9.453
11014SOL    HW144921   3.158   4.650   9.363
11014SOL    HW244922   3.069   4.576   9.461
11015SOL     OW44923   2.947   3.866  10.320
11015SOL    HW144924   3.036   3.882  10.288
11015SOL    HW244925   2.909   3.953  10.331
11016SOL     OW44926   2.348   3.224  12.171
11016SOL    HW144927   2.378   3.313  12.152
11016SOL    HW244928   2.404   3.195  12.243
11017SOL     OW44929   2.079   3.328  12.085
11017SOL    HW144930   2.162   3.355  12.125
11017SOL    HW244931   2.089   3.234  12.071
11018SOL     OW44932   3.320   4.742  11.863
11018SOL    HW144933   3.302   4.692  11.943
11018SOL    HW244934   3.273   4.695  11.795
11019SOL     OW44935   3.817   4.371  11.884
11019SOL    HW144936   3.887   4.306  11.896
11019SOL    HW244937   3.827   4.431  11.959
11020SOL     OW44938   2.503   2.911  11.317
11020SOL    HW144939   2.492   2.978  11.250
11020SOL    HW244940   2.561   2.846  11.278
11021SOL     OW44941   2.385   1.903  12.838
11021SOL    HW144942   2.411   1.883  12.748
11021SOL    HW244943   2.303   1.952  12.829
11022SOL     OW44944   3.059   4.471  11.580
11022SOL    HW144945   3.112   4.398  11.612
11022SOL    HW244946   3.049   4.528  11.656
11023SOL     OW44947   4.138   2.639  12.933
11023SOL    HW144948   4.107   2.710  12.989
11023SOL    HW244949   4.083   2.564  12.955
11024SOL     OW44950   1.291   4.190  11.071
11024SOL    HW144951   1.274   4.140  11.151
11024SOL    HW244952   1.259   4.134  11.001
11025SOL     OW44953   2.294   2.020  12.540
11025SOL    HW144954   2.362   1.954  12.557
11025SOL    HW244955   2.241   2.021  12.619
11026SOL     OW44956   2.370   3.796  11.249
11026SOL    HW144957   2.408   3.739  11.316
11026SOL    HW244958   2.284   3.820  11.284
11027SOL     OW44959   0.889   4.603  17.565
11027SOL    HW144960   0.922   4.570  17.481
11027SOL    HW244961   0.800   4.631  17.546
11028SOL     OW44962   2.741   2.450  11.316
11028SOL    HW144963   2.798   2.456  11.393
11028SOL    HW244964   2.708   2.360  11.317
11029SOL     OW44965   2.647   3.234  10.963
11029SOL    HW144966   2.718   3.175  10.940
11029SOL    HW244967   2.601   3.249  10.880
11030SOL     OW44968   2.145   0.023  11.829
11030SOL    HW144969   2.152   4.756  11.753
11030SOL    HW244970   2.233   0.061  11.837
11031SOL     OW44971   2.875   1.645  12.566
11031SOL    HW144972   2.837   1.732  12.558
11031SOL    HW244973   2.879   1.628  12.660
11032SOL     OW44974   2.219   2.641  18.327
11032SOL    HW144975   2.203   2.549  18.349
11032SOL    HW244976   2.201   2.646  18.233
11033SOL     OW44977   1.909   2.448  20.023
11033SOL    HW144978   1.841   2.515  20.028
11033SOL    HW244979   1.972   2.482  19.960
11034SOL     OW44980   0.330   4.313  14.339
11034SOL    HW144981   0.419   4.278  14.346
11034SOL    HW244982   0.321   4.371  14.414
11035SOL     OW44983   3.975   0.147   4.819
11035SOL    HW144984   3.990   0.171   4.911
11035SOL    HW244985   3.910   0.209   4.788
11036SOL     OW44986   1.812   1.007  16.367
11036SOL    HW144987   1.731   1.057  16.356
11036SOL    HW244988   1.806   0.938  16.300
11037SOL     OW44989   0.231   0.377   6.427
11037SOL    HW144990   0.189   0.348   6.347
11037SOL    HW244991   0.264   0.297   6.468
11038SOL     OW44992   0.667   4.258   1.405
11038SOL    HW144993   0.730   4.224   1.342
11038SOL    HW244994   0.700   4.345   1.429
11039SOL     OW44995   3.814   0.093   5.839
11039SOL    HW144996   3.755   0.030   5.798
11039SOL    HW244997   3.858   0.136   5.766
11040SOL     OW44998   1.363   1.847  13.209
11040SOL    HW144999   1.283   1.805  13.180
11040SOL    HW245000   1.397   1.891  13.131
11041SOL     OW45001   2.343   3.023   8.219
11041SOL    HW145002   2.327   3.105   8.172
11041SOL    HW245003   2.318   3.042   8.309
11042SOL     OW45004   1.066   2.252   5.305
11042SOL    HW145005   1.048   2.198   5.383
11042SOL    HW245006   0.996   2.231   5.244
11043SOL     OW45007   1.734   0.656   8.080
11043SOL    HW145008   1.735   0.679   7.987
11043SOL    HW245009   1.781   0.727   8.123
11044SOL     OW45010   3.510   0.757  20.909
11044SOL    HW145011   3.470   0.676  20.877
11044SOL    HW245012   3.602   0.735  20.921
11045SOL     OW45013   1.387   3.027  20.414
11045SOL    HW145014   1.414   3.116  20.433
11045SOL    HW245015   1.446   2.972  20.466
11046SOL     OW45016   0.866   0.410  17.406
11046SOL    HW145017   0.836   0.496  17.435
11046SOL    HW245018   0.959   0.407  17.430
11047SOL     OW45019   1.711   4.421  11.813
11047SOL    HW145020   1.643   4.444  11.876
11047SOL    HW245021   1.713   4.495  11.752
11048SOL     OW45022   3.657   4.537   5.233
11048SOL    HW145023   3.642   4.507   5.323
11048SOL    HW245024   3.598   4.484   5.180
11049SOL     OW45025   1.212   1.385   1.113
11049SOL    HW145026   1.214   1.340   1.197
11049SOL    HW245027   1.121   1.377   1.084
11050SOL     OW45028   0.540   2.950   6.343
11050SOL    HW145029   0.584   2.990   6.268
11050SOL    HW245030   0.467   3.008   6.362
11051SOL     OW45031   4.562   3.540  19.714
11051SOL    HW145032   4.618   3.517  19.788
11051SOL    HW245033   4.592   3.484  19.643
11052SOL     OW45034   4.610   3.765   6.141
11052SOL    HW145035   4.674   3.790   6.075
11052SOL    HW245036   4.656   3.700   6.196
11053SOL     OW45037   4.144   0.413  15.243
11053SOL    HW145038   4.223   0.464  15.264
11053SOL    HW245039   4.141   0.413  15.148
11054SOL     OW45040   3.311   2.931  18.734
11054SOL    HW145041   3.362   2.866  18.782
11054SOL    HW245042   3.241   2.957  18.794
11055SOL     OW45043   1.590   1.754  16.032
11055SOL    HW145044   1.588   1.680  16.093
11055SOL    HW245045   1.562   1.829  16.085
11056SOL     OW45046   4.388   0.593   3.454
11056SOL    HW145047   4.377   0.578   3.548
11056SOL    HW245048   4.300   0.586   3.418
11057SOL     OW45049   0.720   3.776   0.400
11057SOL    HW145050   0.747   3.780   0.492
11057SOL    HW245051   0.627   3.754   0.403
11058SOL     OW45052   1.950   4.459   2.922
11058SOL    HW145053   1.934   4.460   2.828
11058SOL    HW245054   1.933   4.369   2.948
11059SOL     OW45055   0.986   2.797   1.861
11059SOL    HW145056   0.964   2.889   1.872
11059SOL    HW245057   1.082   2.796   1.854
11060SOL     OW45058   0.564   4.708  20.773
11060SOL    HW145059   0.477   4.702  20.813
11060SOL    HW245060   0.623   4.672  20.840
11061SOL     OW45061   3.008   2.874   6.205
11061SOL    HW145062   3.088   2.839   6.244
11061SOL    HW245063   3.028   2.884   6.112
11062SOL     OW45064   3.868   2.322   4.259
11062SOL    HW145065   3.783   2.310   4.216
11062SOL    HW245066   3.873   2.251   4.322
11063SOL     OW45067   3.151   2.831   7.685
11063SOL    HW145068   3.150   2.796   7.774
11063SOL    HW245069   3.241   2.859   7.672
11064SOL     OW45070   4.372   0.516  11.611
11064SOL    HW145071   4.381   0.506  11.706
11064SOL    HW245072   4.453   0.479  11.576
11065SOL     OW45073   1.605   1.239  17.573
11065SOL    HW145074   1.596   1.309  17.509
11065SOL    HW245075   1.537   1.176  17.550
11066SOL     OW45076   1.349   4.415   3.017
11066SOL    HW145077   1.300   4.333   3.009
11066SOL    HW245078   1.409   4.400   3.090
11067SOL     OW45079   4.508   3.792  15.383
11067SOL    HW145080   4.602   3.801  15.365
11067SOL    HW245081   4.494   3.698  15.388
11068SOL     OW45082   1.584   1.473   1.142
11068SOL    HW145083   1.503   1.515   1.168
11068SOL    HW245084   1.583   1.389   1.188
11069SOL     OW45085   2.511   3.145  11.179
11069SOL    HW145086   2.559   3.178  11.104
11069SOL    HW245087   2.511   3.218  11.242
11070SOL     OW45088   3.750   1.792  12.616
11070SOL    HW145089   3.786   1.775  12.529
11070SOL    HW245090   3.669   1.839  12.600
11071SOL     OW45091   3.740   2.411  18.630
11071SOL    HW145092   3.758   2.333  18.578
11071SOL    HW245093   3.755   2.484  18.570
11072SOL     OW45094   3.582   2.044  15.681
11072SOL    HW145095   3.499   2.053  15.634
11072SOL    HW245096   3.619   2.132  15.680
11073SOL     OW45097   2.191   2.851   0.892
11073SOL    HW145098   2.144   2.905   0.956
11073SOL    HW245099   2.281   2.849   0.926
11074SOL     OW45100   2.887   1.413   0.284
11074SOL    HW145101   2.802   1.387   0.248
11074SOL    HW245102   2.900   1.502   0.253
11075SOL     OW45103   0.818   2.293   6.059
11075SOL    HW145104   0.897   2.294   6.006
11075SOL    HW245105   0.769   2.371   6.031
11076SOL     OW45106   3.075   3.290   4.115
11076SOL    HW145107   3.080   3.293   4.019
11076SOL    HW245108   3.162   3.260   4.143
11077SOL     OW45109   3.146   2.062   8.227
11077SOL    HW145110   3.094   2.107   8.159
11077SOL    HW245111   3.125   2.109   8.307
11078SOL     OW45112   2.316   3.408   2.705
11078SOL    HW145113   2.339   3.429   2.795
11078SOL    HW245114   2.220   3.417   2.702
11079SOL     OW45115   2.804   0.044  20.454
11079SOL    HW145116   2.810   4.742  20.474
11079SOL    HW245117   2.828   0.050  20.362
11080SOL     OW45118   2.336   1.276  15.087
11080SOL    HW145119   2.321   1.183  15.105
11080SOL    HW245120   2.250   1.317  15.096
11081SOL     OW45121   4.381   0.101  16.190
11081SOL    HW145122   4.427   0.031  16.237
11081SOL    HW245123   4.444   0.130  16.124
11082SOL     OW45124   1.083   0.513   4.881
11082SOL    HW145125   1.083   0.472   4.967
11082SOL    HW245126   1.070   0.441   4.820
11083SOL     OW45127   0.372   4.565   1.257
11083SOL    HW145128   0.285   4.588   1.291
11083SOL    HW245129   0.432   4.597   1.324
11084SOL     OW45130   4.013   2.034  17.889
11084SOL    HW145131   3.995   1.964  17.952
11084SOL    HW245132   4.107   2.050  17.897
11085SOL     OW45133   4.711   1.301   3.852
11085SOL    HW145134   4.678   1.258   3.931
11085SOL    HW245135   4.644   1.367   3.831
11086SOL     OW45136   1.489   0.333  12.872
11086SOL    HW145137   1.500   0.277  12.795
11086SOL    HW245138   1.574   0.332  12.915
11087SOL     OW45139   2.163   3.927  15.339
11087SOL    HW145140   2.094   3.945  15.403
11087SOL    HW245141   2.122   3.866  15.278
11088SOL     OW45142   1.399   4.299   1.387
11088SOL    HW145143   1.354   4.383   1.395
11088SOL    HW245144   1.331   4.237   1.360
11089SOL     OW45145   4.344   3.181   6.317
11089SOL    HW145146   4.342   3.192   6.222
11089SOL    HW245147   4.339   3.086   6.330
11090SOL     OW45148   0.924   0.304   0.216
11090SOL    HW145149   0.993   0.311   0.282
11090SOL    HW245150   0.910   0.210   0.206
11091SOL     OW45151   3.698   4.695   1.204
11091SOL    HW145152   3.760   4.735   1.264
11091SOL    HW245153   3.645   4.638   1.259
11092SOL     OW45154   3.576   4.487   4.671
11092SOL    HW145155   3.536   4.525   4.593
11092SOL    HW245156   3.627   4.559   4.709
11093SOL     OW45157   3.304   2.277   1.667
11093SOL    HW145158   3.298   2.184   1.643
11093SOL    HW245159   3.351   2.277   1.751
11094SOL     OW45160   1.466   0.985  16.438
11094SOL    HW145161   1.413   0.907  16.451
11094SOL    HW245162   1.510   0.999  16.522
11095SOL     OW45163   4.080   2.428   3.160
11095SOL    HW145164   4.023   2.356   3.183
11095SOL    HW245165   4.031   2.507   3.184
11096SOL     OW45166   2.074   3.570  11.817
11096SOL    HW145167   2.108   3.492  11.860
11096SOL    HW245168   1.979   3.564  11.826
11097SOL     OW45169   0.776   1.642  16.858
11097SOL    HW145170   0.744   1.732  16.854
11097SOL    HW245171   0.762   1.615  16.949
11098SOL     OW45172   3.415   0.811  15.749
11098SOL    HW145173   3.479   0.757  15.795
11098SOL    HW245174   3.354   0.840  15.817
11099SOL     OW45175   1.743   1.384  16.088
11099SOL    HW145176   1.776   1.462  16.134
11099SOL    HW245177   1.705   1.330  16.157
11100SOL     OW45178   1.155   1.178  12.099
11100SOL    HW145179   1.187   1.158  12.011
11100SOL    HW245180   1.094   1.106  12.119
11101SOL     OW45181   4.391   4.488   6.316
11101SOL    HW145182   4.299   4.472   6.337
11101SOL    HW245183   4.428   4.401   6.300
11102SOL     OW45184   1.054   2.918  19.041
11102SOL    HW145185   1.105   2.887  18.967
11102SOL    HW245186   1.092   3.004  19.063
11103SOL     OW45187   2.846   4.114   4.842
11103SOL    HW145188   2.873   4.040   4.786
11103SOL    HW245189   2.767   4.148   4.799
11104SOL     OW45190   0.490   2.302   2.925
11104SOL    HW145191   0.435   2.357   2.869
11104SOL    HW245192   0.472   2.333   3.014
11105SOL     OW45193   1.454   4.239  18.158
11105SOL    HW145194   1.535   4.282  18.132
11105SOL    HW245195   1.409   4.303  18.214
11106SOL     OW45196   1.523   3.180   3.048
11106SOL    HW145197   1.450   3.189   3.109
11106SOL    HW245198   1.546   3.087   3.052
11107SOL     OW45199   3.579   3.092  16.616
11107SOL    HW145200   3.599   3.104  16.523
11107SOL    HW245201   3.499   3.141  16.630
11108SOL     OW45202   2.930   1.888  20.081
11108SOL    HW145203   2.957   1.920  19.995
11108SOL    HW245204   2.980   1.941  20.143
11109SOL     OW45205   2.377   1.316   2.469
11109SOL    HW145206   2.345   1.356   2.388
11109SOL    HW245207   2.415   1.232   2.441
11110SOL     OW45208   4.359   4.619  17.113
11110SOL    HW145209   4.438   4.614  17.059
11110SOL    HW245210   4.361   4.539  17.165
11111SOL     OW45211   4.790   3.235  18.167
11111SOL    HW145212   4.771   3.309  18.109
11111SOL    HW245213   0.063   3.183  18.118
11112SOL     OW45214   1.642   0.157  20.227
11112SOL    HW145215   1.604   0.134  20.312
11112SOL    HW245216   1.574   0.132  20.164
11113SOL     OW45217   0.235   3.316  15.700
11113SOL    HW145218   0.141   3.309  15.682
11113SOL    HW245219   0.272   3.234  15.669
11114SOL     OW45220   3.817   1.236   5.265
11114SOL    HW145221   3.794   1.329   5.262
11114SOL    HW245222   3.788   1.201   5.181
11115SOL     OW45223   3.183   1.693   5.082
11115SOL    HW145224   3.105   1.656   5.041
11115SOL    HW245225   3.149   1.759   5.142
11116SOL     OW45226   1.236   2.000   1.064
11116SOL    HW145227   1.170   2.059   1.026
11116SOL    HW245228   1.302   2.058   1.100
11117SOL     OW45229   2.597   2.989   9.204
11117SOL    HW145230   2.690   2.995   9.182
11117SOL    HW245231   2.558   3.064   9.158
11118SOL     OW45232   4.453   3.582  19.280
11118SOL    HW145233   4.492   3.651  19.227
11118SOL    HW245234   4.359   3.599  19.276
11119SOL     OW45235   4.765   0.036   3.378
11119SOL    HW145236   4.752   4.786   3.293
11119SOL    HW245237   4.692   0.097   3.388
11120SOL     OW45238   3.516   2.462  19.460
11120SOL    HW145239   3.550   2.385  19.505
11120SOL    HW245240   3.454   2.501  19.522
11121SOL     OW45241   0.091   2.084  12.998
11121SOL    HW145242   0.119   2.175  12.997
11121SOL    HW245243   0.024   2.080  13.067
11122SOL     OW45244   3.133   2.201  13.781
11122SOL    HW145245   3.132   2.112  13.745
11122SOL    HW245246   3.060   2.245  13.739
11123SOL     OW45247   3.742   3.979   0.643
11123SOL    HW145248   3.708   4.055   0.596
11123SOL    HW245249   3.721   3.996   0.734
11124SOL     OW45250   4.600   4.534   2.818
11124SOL    HW145251   4.686   4.492   2.813
11124SOL    HW245252   4.545   4.468   2.862
11125SOL     OW45253   3.295   4.343   1.077
11125SOL    HW145254   3.262   4.257   1.050
11125SOL    HW245255   3.299   4.337   1.173
11126SOL     OW45256   1.569   2.806  15.698
11126SOL    HW145257   1.590   2.713  15.708
11126SOL    HW245258   1.523   2.829  15.778
11127SOL     OW45259   0.066   0.099  10.682
11127SOL    HW145260   0.158   0.077  10.668
11127SOL    HW245261   0.047   0.066  10.770
11128SOL     OW45262   1.957   2.756   1.187
11128SOL    HW145263   1.941   2.789   1.276
11128SOL    HW245264   1.973   2.662   1.199
11129SOL     OW45265   3.696   1.664  13.341
11129SOL    HW145266   3.638   1.715  13.284
11129SOL    HW245267   3.673   1.573  13.322
11130SOL     OW45268   4.603   2.527  15.157
11130SOL    HW145269   4.613   2.564  15.069
11130SOL    HW245270   4.519   2.562  15.188
11131SOL     OW45271   3.296   2.026  15.604
11131SOL    HW145272   3.271   2.000  15.515
11131SOL    HW245273   3.263   1.955  15.659
11132SOL     OW45274   0.181   0.330  19.816
11132SOL    HW145275   0.138   0.333  19.731
11132SOL    HW245276   0.233   0.410  19.819
11133SOL     OW45277   4.176   3.996   5.076
11133SOL    HW145278   4.214   3.923   5.127
11133SOL    HW245279   4.250   4.052   5.056
11134SOL     OW45280   1.424   2.896  12.021
11134SOL    HW145281   1.414   2.921  12.113
11134SOL    HW245282   1.489   2.958  11.987
11135SOL     OW45283   4.240   2.142   9.808
11135SOL    HW145284   4.176   2.082   9.770
11135SOL    HW245285   4.294   2.170   9.735
11136SOL     OW45286   1.276   1.209  14.585
11136SOL    HW145287   1.334   1.229  14.512
11136SOL    HW245288   1.199   1.264  14.570
11137SOL     OW45289   3.908   1.875  13.381
11137SOL    HW145290   3.866   1.955  13.351
11137SOL    HW245291   3.837   1.812  13.390
11138SOL     OW45292   4.427   0.483   2.481
11138SOL    HW145293   4.425   0.573   2.514
11138SOL    HW245294   4.337   0.464   2.456
11139SOL     OW45295   0.659   2.119   3.934
11139SOL    HW145296   0.690   2.054   3.997
11139SOL    HW245297   0.674   2.078   3.848
11140SOL     OW45298   4.595   4.184   6.702
11140SOL    HW145299   4.611   4.095   6.671
11140SOL    HW245300   4.635   4.240   6.636
11141SOL     OW45301   1.623   1.007  18.782
11141SOL    HW145302   1.706   0.981  18.742
11141SOL    HW245303   1.558   0.951  18.740
11142SOL     OW45304   3.518   0.660   1.969
11142SOL    HW145305   3.473   0.620   2.043
11142SOL    HW245306   3.554   0.587   1.920
11143SOL     OW45307   3.945   4.322  18.613
11143SOL    HW145308   3.889   4.324  18.535
11143SOL    HW245309   3.929   4.406  18.656
11144SOL     OW45310   1.587   0.196   4.060
11144SOL    HW145311   1.573   0.264   4.126
11144SOL    HW245312   1.514   0.135   4.072
11145SOL     OW45313   4.029   2.610  12.278
11145SOL    HW145314   4.019   2.705  12.281
11145SOL    HW245315   3.952   2.580  12.229
11146SOL     OW45316   4.205   3.855  20.147
11146SOL    HW145317   4.169   3.904  20.220
11146SOL    HW245318   4.298   3.846  20.168
11147SOL     OW45319   4.757   3.563   0.421
11147SOL    HW145320   4.682   3.611   0.455
11147SOL    HW245321   4.769   3.596   0.332
11148SOL     OW45322   4.739   3.364  19.601
11148SOL    HW145323   4.695   3.380  19.518
11148SOL    HW245324   0.023   3.424  19.601
11149SOL     OW45325   3.926   0.747   6.013
11149SOL    HW145326   3.879   0.799   6.078
11149SOL    HW245327   3.941   0.662   6.055
11150SOL     OW45328   4.762   2.163  18.863
11150SOL    HW145329   4.743   2.141  18.954
11150SOL    HW245330   4.748   2.258  18.858
11151SOL     OW45331   1.766   1.929   0.645
11151SOL    HW145332   1.701   1.914   0.714
11151SOL    HW245333   1.758   2.022   0.625
11152SOL     OW45334   1.291   2.984   1.407
11152SOL    HW145335   1.285   3.042   1.331
11152SOL    HW245336   1.300   2.896   1.371
11153SOL     OW45337   2.076   2.659   2.889
11153SOL    HW145338   1.986   2.663   2.855
11153SOL    HW245339   2.116   2.586   2.841
11154SOL     OW45340   2.570   1.917   5.059
11154SOL    HW145341   2.549   2.008   5.082
11154SOL    HW245342   2.611   1.923   4.973
11155SOL     OW45343   2.709   0.550   3.085
11155SOL    HW145344   2.617   0.536   3.106
11155SOL    HW245345   2.710   0.632   3.035
11156SOL     OW45346   0.296   4.373  15.615
11156SOL    HW145347   0.249   4.448  15.580
11156SOL    HW245348   0.257   4.357  15.701
11157SOL     OW45349   0.924   3.584  15.933
11157SOL    HW145350   0.948   3.523  16.003
11157SOL    HW245351   0.846   3.546  15.894
11158SOL     OW45352   2.276   3.908  16.080
11158SOL    HW145353   2.272   3.862  16.164
11158SOL    HW245354   2.261   3.840  16.015
11159SOL     OW45355   0.145   4.059  19.876
11159SOL    HW145356   0.219   4.113  19.849
11159SOL    HW245357   0.111   4.023  19.794
11160SOL     OW45358   2.218   2.487  21.258
11160SOL    HW145359   2.283   2.541   0.039
11160SOL    HW245360   2.161   2.456   0.066
11161SOL     OW45361   2.059   0.596  15.308
11161SOL    HW145362   2.147   0.562  15.297
11161SOL    HW245363   2.066   0.689  15.287
11162SOL     OW45364   1.079   1.656  17.660
11162SOL    HW145365   1.071   1.626  17.570
11162SOL    HW245366   1.025   1.736  17.663
11163SOL     OW45367   0.803   2.141  20.694
11163SOL    HW145368   0.782   2.229  20.664
11163SOL    HW245369   0.853   2.154  20.775
11164SOL     OW45370   1.699   0.597   0.144
11164SOL    HW145371   1.716   0.538   0.218
11164SOL    HW245372   1.616   0.566   0.107
11165SOL     OW45373   1.962   3.700   1.640
11165SOL    HW145374   1.921   3.786   1.650
11165SOL    HW245375   2.003   3.702   1.554
11166SOL     OW45376   2.658   1.079   7.855
11166SOL    HW145377   2.705   1.160   7.835
11166SOL    HW245378   2.623   1.093   7.943
11167SOL     OW45379   4.745   1.487  21.047
11167SOL    HW145380   4.733   1.414  20.987
11167SOL    HW245381   4.693   1.465  21.124
11168SOL     OW45382   0.903   2.105  19.129
11168SOL    HW145383   0.970   2.168  19.155
11168SOL    HW245384   0.893   2.118  19.034
11169SOL     OW45385   4.208   1.529  16.472
11169SOL    HW145386   4.227   1.587  16.399
11169SOL    HW245387   4.291   1.520  16.518
11170SOL     OW45388   4.354   0.083  17.475
11170SOL    HW145389   4.417   0.136  17.524
11170SOL    HW245390   4.271   0.096  17.522
11171SOL     OW45391   4.217   3.006  16.125
11171SOL    HW145392   4.184   3.091  16.154
11171SOL    HW245393   4.259   3.024  16.041
11172SOL     OW45394   0.302   4.046   4.574
11172SOL    HW145395   0.272   4.040   4.484
11172SOL    HW245396   0.295   3.957   4.608
11173SOL     OW45397   0.378   1.816  11.861
11173SOL    HW145398   0.376   1.895  11.808
11173SOL    HW245399   0.443   1.760  11.819
11174SOL     OW45400   2.464   2.569   1.887
11174SOL    HW145401   2.489   2.509   1.958
11174SOL    HW245402   2.546   2.589   1.843
11175SOL     OW45403   3.603   4.046   5.028
11175SOL    HW145404   3.517   4.031   4.989
11175SOL    HW245405   3.656   3.972   4.997
11176SOL     OW45406   2.079   2.505   3.266
11176SOL    HW145407   2.071   2.554   3.348
11176SOL    HW245408   2.010   2.439   3.271
11177SOL     OW45409   2.479   2.775  18.008
11177SOL    HW145410   2.500   2.722  18.084
11177SOL    HW245411   2.541   2.747  17.941
11178SOL     OW45412   3.200   3.654   1.008
11178SOL    HW145413   3.124   3.712   1.017
11178SOL    HW245414   3.187   3.587   1.075
11179SOL     OW45415   0.724   3.111  13.883
11179SOL    HW145416   0.728   3.070  13.970
11179SOL    HW245417   0.635   3.145  13.877
11180SOL     OW45418   2.023   0.861  17.955
11180SOL    HW145419   2.042   0.774  17.920
11180SOL    HW245420   2.031   0.920  17.880
11181SOL     OW45421   2.226   1.529   3.950
11181SOL    HW145422   2.210   1.522   4.044
11181SOL    HW245423   2.195   1.616   3.926
11182SOL     OW45424   4.683   2.571   4.450
11182SOL    HW145425   4.726   2.641   4.402
11182SOL    HW245426   4.595   2.605   4.470
11183SOL     OW45427   2.507   0.797  16.758
11183SOL    HW145428   2.536   0.815  16.669
11183SOL    HW245429   2.577   0.744  16.796
11184SOL     OW45430   1.535   1.351  10.995
11184SOL    HW145431   1.598   1.419  11.020
11184SOL    HW245432   1.589   1.273  10.978
11185SOL     OW45433   4.499   2.208   2.791
11185SOL    HW145434   4.553   2.157   2.730
11185SOL    HW245435   4.525   2.178   2.878
11186SOL     OW45436   2.578   3.960   1.144
11186SOL    HW145437   2.530   4.038   1.114
11186SOL    HW245438   2.584   3.970   1.239
11187SOL     OW45439   2.410   4.717   1.999
11187SOL    HW145440   2.410   4.710   2.095
11187SOL    HW245441   2.501   4.738   1.977
11188SOL     OW45442   2.693   2.801   2.053
11188SOL    HW145443   2.641   2.756   2.120
11188SOL    HW245444   2.673   2.753   1.972
11189SOL     OW45445   1.819   1.550  20.053
11189SOL    HW145446   1.804   1.624  19.995
11189SOL    HW245447   1.796   1.583  20.140
11190SOL     OW45448   1.131   4.052  19.984
11190SOL    HW145449   1.202   4.058  20.048
11190SOL    HW245450   1.122   3.959  19.966
11191SOL     OW45451   2.331   4.437   2.713
11191SOL    HW145452   2.246   4.415   2.675
11191SOL    HW245453   2.312   4.459   2.804
11192SOL     OW45454   3.515   4.289  20.887
11192SOL    HW145455   3.437   4.341  20.907
11192SOL    HW245456   3.524   4.231  20.963
11193SOL     OW45457   3.761   2.695  12.085
11193SOL    HW145458   3.788   2.775  12.129
11193SOL    HW245459   3.710   2.725  12.009
11194SOL     OW45460   2.246   3.328   4.287
11194SOL    HW145461   2.152   3.312   4.288
11194SOL    HW245462   2.269   3.346   4.378
11195SOL     OW45463   3.103   2.083  19.017
11195SOL    HW145464   3.134   2.171  19.039
11195SOL    HW245465   3.091   2.040  19.101
11196SOL     OW45466   1.474   0.997   2.695
11196SOL    HW145467   1.482   0.972   2.787
11196SOL    HW245468   1.434   0.921   2.653
11197SOL     OW45469   3.132   3.301  12.987
11197SOL    HW145470   3.111   3.215  13.024
11197SOL    HW245471   3.225   3.296  12.964
11198SOL     OW45472   1.319   0.860   3.356
11198SOL    HW145473   1.321   0.815   3.441
11198SOL    HW245474   1.283   0.795   3.295
11199SOL     OW45475   1.492   4.664  18.133
11199SOL    HW145476   1.449   4.736  18.180
11199SOL    HW245477   1.583   4.691  18.125
11200SOL     OW45478   3.223   3.268  19.827
11200SOL    HW145479   3.318   3.266  19.824
11200SOL    HW245480   3.196   3.230  19.743
11201SOL     OW45481   0.011   1.387  15.159
11201SOL    HW145482   0.068   1.464  15.158
11201SOL    HW245483   4.718   1.419  15.191
11202SOL     OW45484   4.295   1.306   4.343
11202SOL    HW145485   4.216   1.262   4.375
11202SOL    HW245486   4.343   1.330   4.423
11203SOL     OW45487   4.267   1.292   3.336
11203SOL    HW145488   4.304   1.222   3.391
11203SOL    HW245489   4.175   1.268   3.325
11204SOL     OW45490   3.541   2.402   1.962
11204SOL    HW145491   3.503   2.465   1.901
11204SOL    HW245492   3.534   2.445   2.047
11205SOL     OW45493   3.588   0.253  20.053
11205SOL    HW145494   3.537   0.261  20.133
11205SOL    HW245495   3.559   0.327  19.999
11206SOL     OW45496   1.122   1.377  14.159
11206SOL    HW145497   1.077   1.320  14.096
11206SOL    HW245498   1.180   1.431  14.106
11207SOL     OW45499   3.024   4.775   5.298
11207SOL    HW145500   2.988   0.043   5.364
11207SOL    HW245501   3.115   4.762   5.324
11208SOL     OW45502   2.592   3.121   0.559
11208SOL    HW145503   2.662   3.179   0.530
11208SOL    HW245504   2.563   3.157   0.643
11209SOL     OW45505   2.757   0.090   0.012
11209SOL    HW145506   2.812   0.120  21.202
11209SOL    HW245507   2.812   0.103   0.090
11210SOL     OW45508   3.727   2.392  12.017
11210SOL    HW145509   3.661   2.459  12.035
11210SOL    HW245510   3.786   2.396  12.092
11211SOL     OW45511   4.015   1.003   6.633
11211SOL    HW145512   3.990   0.912   6.647
11211SOL    HW245513   3.935   1.046   6.603
11212SOL     OW45514   3.486   0.997   2.812
11212SOL    HW145515   3.572   1.034   2.796
11212SOL    HW245516   3.471   0.936   2.740
11213SOL     OW45517   1.014   1.397   3.445
11213SOL    HW145518   1.107   1.386   3.425
11213SOL    HW245519   0.976   1.310   3.432
11214SOL     OW45520   0.955   1.939   0.068
11214SOL    HW145521   0.924   1.886   0.141
11214SOL    HW245522   0.887   2.004   0.053
11215SOL     OW45523   0.080   2.580   2.677
11215SOL    HW145524   4.786   2.547   2.705
11215SOL    HW245525   0.069   2.598   2.584
11216SOL     OW45526   4.263   2.176  17.342
11216SOL    HW145527   4.261   2.081  17.354
11216SOL    HW245528   4.350   2.202  17.372
11217SOL     OW45529   4.047   0.976   4.023
11217SOL    HW145530   3.967   1.026   4.006
11217SOL    HW245531   4.112   1.041   4.047
11218SOL     OW45532   1.033   4.381   2.249
11218SOL    HW145533   1.003   4.303   2.203
11218SOL    HW245534   0.956   4.413   2.296
11219SOL     OW45535   0.216   3.372  14.242
11219SOL    HW145536   0.277   3.411  14.179
11219SOL    HW245537   0.154   3.441  14.263
11220SOL     OW45538   1.347   3.049  15.808
11220SOL    HW145539   1.430   3.058  15.762
11220SOL    HW245540   1.347   2.958  15.838
11221SOL     OW45541   0.860   3.109  18.952
11221SOL    HW145542   0.840   3.082  19.041
11221SOL    HW245543   0.896   3.197  18.961
11222SOL     OW45544   2.703   1.771  21.009
11222SOL    HW145545   2.769   1.829  21.047
11222SOL    HW245546   2.647   1.828  20.956
11223SOL     OW45547   0.917   2.530  19.124
11223SOL    HW145548   0.980   2.592  19.161
11223SOL    HW245549   0.939   2.446  19.164
11224SOL     OW45550   2.445   1.675   2.807
11224SOL    HW145551   2.414   1.636   2.725
11224SOL    HW245552   2.437   1.769   2.793
11225SOL     OW45553   0.728   1.768   2.706
11225SOL    HW145554   0.750   1.675   2.716
11225SOL    HW245555   0.712   1.798   2.796
11226SOL     OW45556   0.990   1.383   4.043
11226SOL    HW145557   1.017   1.356   3.955
11226SOL    HW245558   1.031   1.320   4.101
11227SOL     OW45559   0.640   0.667   4.314
11227SOL    HW145560   0.569   0.684   4.253
11227SOL    HW245561   0.601   0.613   4.383
11228SOL     OW45562   4.691   0.745  16.798
11228SOL    HW145563   4.605   0.716  16.768
11228SOL    HW245564   4.716   0.683  16.866
11229SOL     OW45565   4.682   0.532   1.546
11229SOL    HW145566   4.635   0.577   1.475
11229SOL    HW245567   4.645   0.568   1.626
11230SOL     OW45568   4.380   2.631   0.653
11230SOL    HW145569   4.430   2.711   0.644
11230SOL    HW245570   4.400   2.599   0.741
11231SOL     OW45571   0.666   0.697   1.647
11231SOL    HW145572   0.580   0.717   1.609
11231SOL    HW245573   0.653   0.705   1.741
11232SOL     OW45574   3.157   2.627  14.797
11232SOL    HW145575   3.098   2.573  14.745
11232SOL    HW245576   3.242   2.616  14.755
11233SOL     OW45577   0.806   4.096  13.763
11233SOL    HW145578   0.846   4.021  13.808
11233SOL    HW245579   0.866   4.117  13.692
11234SOL     OW45580   3.788   3.251  16.119
11234SOL    HW145581   3.865   3.254  16.061
11234SOL    HW245582   3.811   3.187  16.186
11235SOL     OW45583   2.308   0.944  19.682
11235SOL    HW145584   2.225   0.938  19.635
11235SOL    HW245585   2.332   1.036  19.677
11236SOL     OW45586   4.497   1.667   5.221
11236SOL    HW145587   4.588   1.647   5.196
11236SOL    HW245588   4.491   1.641   5.313
11237SOL     OW45589   1.878   4.491   1.624
11237SOL    HW145590   1.880   4.583   1.598
11237SOL    HW245591   1.925   4.445   1.554
11238SOL     OW45592   3.799   0.800  15.402
11238SOL    HW145593   3.764   0.848  15.327
11238SOL    HW245594   3.738   0.820  15.473
11239SOL     OW45595   1.644   3.772  18.549
11239SOL    HW145596   1.569   3.722  18.515
11239SOL    HW245597   1.639   3.856  18.502
11240SOL     OW45598   0.281   4.109  18.188
11240SOL    HW145599   0.297   4.146  18.275
11240SOL    HW245600   0.186   4.097  18.183
11241SOL     OW45601   3.305   1.254  20.635
11241SOL    HW145602   3.395   1.265  20.668
11241SOL    HW245603   3.291   1.159  20.639
11242SOL     OW45604   0.123   3.694  18.718
11242SOL    HW145605   0.176   3.771  18.695
11242SOL    HW245606   0.046   3.730  18.762
11243SOL     OW45607   2.916   1.906   1.488
11243SOL    HW145608   2.957   1.849   1.553
11243SOL    HW245609   2.854   1.849   1.443
11244SOL     OW45610   2.617   4.416  16.001
11244SOL    HW145611   2.530   4.456  16.003
11244SOL    HW245612   2.666   4.468  15.936
11245SOL     OW45613   1.169   1.316   4.875
11245SOL    HW145614   1.114   1.240   4.854
11245SOL    HW245615   1.117   1.365   4.940
11246SOL     OW45616   0.576   1.846  18.011
11246SOL    HW145617   0.618   1.912  18.066
11246SOL    HW245618   0.545   1.779  18.072
11247SOL     OW45619   4.527   4.636  19.000
11247SOL    HW145620   4.477   4.659  19.079
11247SOL    HW245621   4.560   4.548  19.018
11248SOL     OW45622   0.011   0.066  13.834
11248SOL    HW145623   0.019   0.128  13.907
11248SOL    HW245624   0.058   4.779  13.864
11249SOL     OW45625   0.729   0.056  16.028
11249SOL    HW145626   0.820   0.081  16.046
11249SOL    HW245627   0.719   4.762  16.070
11250SOL     OW45628   2.586   3.659   2.347
11250SOL    HW145629   2.593   3.605   2.426
11250SOL    HW245630   2.561   3.596   2.278
11251SOL     OW45631   3.164   1.831  20.949
11251SOL    HW145632   3.089   1.889  20.966
11251SOL    HW245633   3.157   1.811  20.856
11252SOL     OW45634   4.249   3.447   1.578
11252SOL    HW145635   4.219   3.510   1.644
11252SOL    HW245636   4.182   3.379   1.578
11253SOL     OW45637   2.973   2.477   4.064
11253SOL    HW145638   3.057   2.483   4.109
11253SOL    HW245639   2.959   2.565   4.027
11254SOL     OW45640   4.080   4.002   3.171
11254SOL    HW145641   4.060   3.910   3.154
11254SOL    HW245642   4.006   4.051   3.136
11255SOL     OW45643   4.780   0.459   4.522
11255SOL    HW145644   4.758   0.453   4.429
11255SOL    HW245645   0.082   0.438   4.526
11256SOL     OW45646   1.575   0.665  13.987
11256SOL    HW145647   1.514   0.735  14.008
11256SOL    HW245648   1.641   0.706  13.931
11257SOL     OW45649   0.432   2.068  16.200
11257SOL    HW145650   0.498   2.114  16.149
11257SOL    HW245651   0.436   1.978  16.168
11258SOL     OW45652   4.738   3.365  14.537
11258SOL    HW145653   4.719   3.452  14.503
11258SOL    HW245654   0.012   3.379  14.606
11259SOL     OW45655   1.872   1.215  17.818
11259SOL    HW145656   1.812   1.159  17.867
11259SOL    HW245657   1.905   1.158  17.747
11260SOL     OW45658   2.646   2.830   0.672
11260SOL    HW145659   2.596   2.767   0.620
11260SOL    HW245660   2.649   2.909   0.618
11261SOL     OW45661   2.770   3.068   2.849
11261SOL    HW145662   2.763   3.163   2.854
11261SOL    HW245663   2.756   3.047   2.756
11262SOL     OW45664   2.181   3.191  19.565
11262SOL    HW145665   2.112   3.183  19.499
11262SOL    HW245666   2.157   3.125  19.631
11263SOL     OW45667   2.780   1.251  20.902
11263SOL    HW145668   2.700   1.200  20.887
11263SOL    HW245669   2.849   1.199  20.861
11264SOL     OW45670   4.234   2.800  17.268
11264SOL    HW145671   4.154   2.797  17.216
11264SOL    HW245672   4.247   2.709  17.296
11265SOL     OW45673   3.947   3.456   1.987
11265SOL    HW145674   3.852   3.453   2.000
11265SOL    HW245675   3.967   3.549   1.976
11266SOL     OW45676   3.639   2.642   3.750
11266SOL    HW145677   3.680   2.669   3.832
11266SOL    HW245678   3.657   2.715   3.690
11267SOL     OW45679   3.427   3.831   2.670
11267SOL    HW145680   3.400   3.903   2.727
11267SOL    HW245681   3.423   3.867   2.582
11268SOL     OW45682   1.027   0.793  15.865
11268SOL    HW145683   0.943   0.761  15.831
11268SOL    HW245684   1.091   0.769  15.798
11269SOL     OW45685   3.790   2.902  20.202
11269SOL    HW145686   3.757   2.828  20.252
11269SOL    HW245687   3.846   2.863  20.135
11270SOL     OW45688   3.923   4.540  16.848
11270SOL    HW145689   3.836   4.510  16.872
11270SOL    HW245690   3.940   4.500  16.763
11271SOL     OW45691   2.722   4.056  14.862
11271SOL    HW145692   2.723   4.145  14.898
11271SOL    HW245693   2.685   4.002  14.931
11272SOL     OW45694   2.271   3.265   4.772
11272SOL    HW145695   2.336   3.220   4.827
11272SOL    HW245696   2.324   3.318   4.712
11273SOL     OW45697   4.526   1.135  17.488
11273SOL    HW145698   4.583   1.107  17.416
11273SOL    HW245699   4.442   1.153  17.445
11274SOL     OW45700   1.585   2.463  16.176
11274SOL    HW145701   1.676   2.434  16.176
11274SOL    HW245702   1.544   2.411  16.107
11275SOL     OW45703   3.916   1.084  15.607
11275SOL    HW145704   3.937   1.116  15.519
11275SOL    HW245705   3.897   1.163  15.657
11276SOL     OW45706   1.096   0.140   1.735
11276SOL    HW145707   1.121   0.225   1.770
11276SOL    HW245708   1.009   0.153   1.697
11277SOL     OW45709   2.384   3.786   4.165
11277SOL    HW145710   2.330   3.865   4.175
11277SOL    HW245711   2.435   3.802   4.086
11278SOL     OW45712   1.014   4.167  17.718
11278SOL    HW145713   0.983   4.173  17.808
11278SOL    HW245714   0.936   4.181  17.665
11279SOL     OW45715   2.539   0.621   6.232
11279SOL    HW145716   2.536   0.566   6.310
11279SOL    HW245717   2.493   0.571   6.165
11280SOL     OW45718   3.698   0.566  15.027
11280SOL    HW145719   3.641   0.509  15.079
11280SOL    HW245720   3.772   0.583  15.085
11281SOL     OW45721   3.475   3.846   0.965
11281SOL    HW145722   3.427   3.903   0.904
11281SOL    HW245723   3.417   3.771   0.979
11282SOL     OW45724   4.675   3.014  20.846
11282SOL    HW145725   4.615   3.082  20.813
11282SOL    HW245726   4.750   3.063  20.880
11283SOL     OW45727   3.546   3.652  18.106
11283SOL    HW145728   3.472   3.680  18.160
11283SOL    HW245729   3.584   3.578  18.154
11284SOL     OW45730   3.725   1.164   2.935
11284SOL    HW145731   3.685   1.249   2.952
11284SOL    HW245732   3.813   1.184   2.903
11285SOL     OW45733   4.289   4.148   4.661
11285SOL    HW145734   4.322   4.060   4.682
11285SOL    HW245735   4.296   4.196   4.743
11286SOL     OW45736   0.800   0.806  11.112
11286SOL    HW145737   0.846   0.781  11.192
11286SOL    HW245738   0.796   0.902  11.116
11287SOL     OW45739   4.750   0.387   5.848
11287SOL    HW145740   4.751   0.397   5.943
11287SOL    HW245741   4.659   0.400   5.823
11288SOL     OW45742   0.806   4.068  18.906
11288SOL    HW145743   0.893   4.082  18.943
11288SOL    HW245744   0.824   4.032  18.819
11289SOL     OW45745   0.317   1.845   0.264
11289SOL    HW145746   0.319   1.932   0.224
11289SOL    HW245747   0.408   1.814   0.259
11290SOL     OW45748   1.341   3.161  18.165
11290SOL    HW145749   1.256   3.170  18.122
11290SOL    HW245750   1.319   3.148  18.258
11291SOL     OW45751   0.653   4.055   0.186
11291SOL    HW145752   0.703   4.096   0.257
11291SOL    HW245753   0.702   3.975   0.166
11292SOL     OW45754   0.072   2.342   2.925
11292SOL    HW145755   4.777   2.339   2.968
11292SOL    HW245756   0.064   2.280   2.853
11293SOL     OW45757   2.695   2.195   1.022
11293SOL    HW145758   2.746   2.276   1.022
11293SOL    HW245759   2.655   2.192   1.109
11294SOL     OW45760   2.426   2.723  19.600
11294SOL    HW145761   2.344   2.698  19.559
11294SOL    HW245762   2.460   2.641  19.637
11295SOL     OW45763   1.252   3.158  18.434
11295SOL    HW145764   1.156   3.156  18.443
11295SOL    HW245765   1.281   3.210  18.509
11296SOL     OW45766   3.026   3.208  18.074
11296SOL    HW145767   3.050   3.301  18.074
11296SOL    HW245768   2.958   3.201  18.008
11297SOL     OW45769   3.468   3.121   1.490
11297SOL    HW145770   3.390   3.078   1.455
11297SOL    HW245771   3.484   3.078   1.574
11298SOL     OW45772   4.651   3.855   4.953
11298SOL    HW145773   4.677   3.895   5.037
11298SOL    HW245774   4.556   3.855   4.955
11299SOL     OW45775   0.196   1.054   6.026
11299SOL    HW145776   0.150   1.066   6.109
11299SOL    HW245777   0.187   0.961   6.007
11300SOL     OW45778   0.803   4.327  20.431
11300SOL    HW145779   0.804   4.379  20.350
11300SOL    HW245780   0.895   4.322  20.457
11301SOL     OW45781   1.794   4.382  19.582
11301SOL    HW145782   1.710   4.376  19.536
11301SOL    HW245783   1.850   4.434  19.524
11302SOL     OW45784   3.932   1.854   2.282
11302SOL    HW145785   3.847   1.886   2.312
11302SOL    HW245786   3.922   1.843   2.188
11303SOL     OW45787   3.061   2.618   0.085
11303SOL    HW145788   3.085   2.670   0.009
11303SOL    HW245789   3.143   2.604   0.132
11304SOL     OW45790   1.628   4.269   8.586
11304SOL    HW145791   1.544   4.224   8.573
11304SOL    HW245792   1.693   4.213   8.544
11305SOL     OW45793   3.566   3.946   1.586
11305SOL    HW145794   3.621   3.872   1.562
11305SOL    HW245795   3.585   3.962   1.678
11306SOL     OW45796   3.192   2.858  16.582
11306SOL    HW145797   3.202   2.846  16.488
11306SOL    HW245798   3.248   2.790  16.621
11307SOL     OW45799   4.709   0.474   5.383
11307SOL    HW145800   4.668   0.519   5.309
11307SOL    HW245801   4.733   0.544   5.444
11308SOL     OW45802   1.287   1.806  20.669
11308SOL    HW145803   1.248   1.851  20.744
11308SOL    HW245804   1.263   1.714  20.680
11309SOL     OW45805   3.462   2.110  16.401
11309SOL    HW145806   3.429   2.143  16.484
11309SOL    HW245807   3.556   2.099  16.415
11310SOL     OW45808   0.722   2.384   4.540
11310SOL    HW145809   0.763   2.312   4.491
11310SOL    HW245810   0.636   2.349   4.565
11311SOL     OW45811   3.975   2.140  16.406
11311SOL    HW145812   4.053   2.096  16.440
11311SOL    HW245813   4.007   2.219  16.363
11312SOL     OW45814   2.374   4.545  14.031
11312SOL    HW145815   2.421   4.534  13.948
11312SOL    HW245816   2.287   4.574  14.006
11313SOL     OW45817   1.255   0.850   2.434
11313SOL    HW145818   1.181   0.794   2.457
11313SOL    HW245819   1.215   0.928   2.395
11314SOL     OW45820   0.999   3.481  15.120
11314SOL    HW145821   0.977   3.402  15.070
11314SOL    HW245822   1.093   3.492  15.107
11315SOL     OW45823   4.644   2.278  18.023
11315SOL    HW145824   4.580   2.297  18.091
11315SOL    HW245825   4.720   2.244  18.071
11316SOL     OW45826   1.838   1.267   5.153
11316SOL    HW145827   1.876   1.295   5.237
11316SOL    HW245828   1.895   1.306   5.087
11317SOL     OW45829   0.705   3.286  20.172
11317SOL    HW145830   0.669   3.206  20.134
11317SOL    HW245831   0.759   3.256  20.245
11318SOL     OW45832   4.280   2.043  17.948
11318SOL    HW145833   4.333   1.964  17.957
11318SOL    HW245834   4.298   2.094  18.027
11319SOL     OW45835   4.771   4.274  19.410
11319SOL    HW145836   0.031   4.355  19.406
11319SOL    HW245837   4.723   4.279  19.493
11320SOL     OW45838   2.699   3.959   1.677
11320SOL    HW145839   2.631   3.945   1.744
11320SOL    HW245840   2.751   4.032   1.711
11321SOL     OW45841   3.385   3.478  15.815
11321SOL    HW145842   3.435   3.499  15.736
11321SOL    HW245843   3.435   3.410  15.858
11322SOL     OW45844   4.669   3.789  15.845
11322SOL    HW145845   4.667   3.861  15.908
11322SOL    HW245846   4.586   3.795  15.798
11323SOL     OW45847   1.264   1.967  11.597
11323SOL    HW145848   1.186   1.963  11.653
11323SOL    HW245849   1.311   1.885  11.616
11324SOL     OW45850   0.798   2.943  15.404
11324SOL    HW145851   0.769   2.911  15.490
11324SOL    HW245852   0.891   2.920  15.400
11325SOL     OW45853   3.662   3.418  20.060
11325SOL    HW145854   3.745   3.466  20.050
11325SOL    HW245855   3.595   3.481  20.033
11326SOL     OW45856   1.742   4.114   4.962
11326SOL    HW145857   1.767   4.038   4.910
11326SOL    HW245858   1.794   4.186   4.926
11327SOL     OW45859   2.796   1.001   8.933
11327SOL    HW145860   2.846   1.012   9.014
11327SOL    HW245861   2.747   1.083   8.924
11328SOL     OW45862   4.660   2.505  16.351
11328SOL    HW145863   4.611   2.473  16.427
11328SOL    HW245864   4.738   2.546  16.388
11329SOL     OW45865   0.237   3.423  19.156
11329SOL    HW145866   0.245   3.392  19.066
11329SOL    HW245867   0.143   3.431  19.171
11330SOL     OW45868   2.416   4.166   6.662
11330SOL    HW145869   2.479   4.117   6.715
11330SOL    HW245870   2.439   4.145   6.572
11331SOL     OW45871   3.095   0.722   4.544
11331SOL    HW145872   3.143   0.762   4.616
11331SOL    HW245873   3.130   0.765   4.465
11332SOL     OW45874   1.505   0.386   4.249
11332SOL    HW145875   1.418   0.350   4.234
11332SOL    HW245876   1.493   0.481   4.248
11333SOL     OW45877   4.413   0.537   0.883
11333SOL    HW145878   4.445   0.623   0.910
11333SOL    HW245879   4.408   0.542   0.787
11334SOL     OW45880   2.677   0.060   6.023
11334SOL    HW145881   2.767   0.057   5.991
11334SOL    HW245882   2.684   0.095   6.112
11335SOL     OW45883   2.229   4.771  19.297
11335SOL    HW145884   2.269   4.712  19.233
11335SOL    HW245885   2.298   4.789  19.361
11336SOL     OW45886   1.053   4.584  15.438
11336SOL    HW145887   0.988   4.531  15.485
11336SOL    HW245888   1.012   4.669  15.428
11337SOL     OW45889   4.280   3.205   5.764
11337SOL    HW145890   4.224   3.162   5.829
11337SOL    HW245891   4.293   3.139   5.696
11338SOL     OW45892   0.261   1.338   3.638
11338SOL    HW145893   0.201   1.345   3.563
11338SOL    HW245894   0.257   1.424   3.679
11339SOL     OW45895   4.748   0.356   3.098
11339SOL    HW145896   0.003   0.419   3.153
11339SOL    HW245897   4.657   0.385   3.100
11340SOL     OW45898   0.231   4.212  17.465
11340SOL    HW145899   0.324   4.205  17.447
11340SOL    HW245900   0.205   4.296  17.428
11341SOL     OW45901   0.981   2.061  18.113
11341SOL    HW145902   1.065   2.019  18.134
11341SOL    HW245903   1.004   2.130  18.051
11342SOL     OW45904   4.079   2.683   7.706
11342SOL    HW145905   4.091   2.626   7.782
11342SOL    HW245906   4.032   2.759   7.741
11343SOL     OW45907   1.414   2.360  19.591
11343SOL    HW145908   1.462   2.426  19.640
11343SOL    HW245909   1.475   2.286  19.584
11344SOL     OW45910   2.621   3.089  17.814
11344SOL    HW145911   2.547   3.139  17.848
11344SOL    HW245912   2.610   3.093  17.718
11345SOL     OW45913   4.492   1.444  18.344
11345SOL    HW145914   4.469   1.517  18.401
11345SOL    HW245915   4.558   1.395  18.393
11346SOL     OW45916   2.101   0.482  20.030
11346SOL    HW145917   2.018   0.464  20.075
11346SOL    HW245918   2.088   0.568  19.991
11347SOL     OW45919   3.560   3.222   5.280
11347SOL    HW145920   3.562   3.153   5.347
11347SOL    HW245921   3.578   3.176   5.198
11348SOL     OW45922   1.068   0.357  17.795
11348SOL    HW145923   1.016   0.428  17.759
11348SOL    HW245924   1.055   0.363  17.890
11349SOL     OW45925   2.738   0.763  13.211
11349SOL    HW145926   2.763   0.795  13.124
11349SOL    HW245927   2.722   0.843  13.262
11350SOL     OW45928   0.555   4.435  15.732
11350SOL    HW145929   0.487   4.433  15.665
11350SOL    HW245930   0.542   4.518  15.778
11351SOL     OW45931   0.680   4.361   5.703
11351SOL    HW145932   0.761   4.345   5.752
11351SOL    HW245933   0.646   4.274   5.684
11352SOL     OW45934   0.552   1.483   6.091
11352SOL    HW145935   0.470   1.437   6.110
11352SOL    HW245936   0.528   1.546   6.022
11353SOL     OW45937   3.864   0.014   7.991
11353SOL    HW145938   3.769   0.006   8.002
11353SOL    HW245939   3.877   0.007   7.896
11354SOL     OW45940   4.310   0.540  16.479
11354SOL    HW145941   4.326   0.460  16.429
11354SOL    HW245942   4.258   0.595  16.420
11355SOL     OW45943   3.133   0.001   0.590
11355SOL    HW145944   3.198   0.063   0.623
11355SOL    HW245945   3.050   0.050   0.593
11356SOL     OW45946   2.244   4.007   4.159
11356SOL    HW145947   2.291   4.077   4.113
11356SOL    HW245948   2.208   4.050   4.237
11357SOL     OW45949   0.492   1.958   1.768
11357SOL    HW145950   0.469   1.973   1.859
11357SOL    HW245951   0.514   1.865   1.763
11358SOL     OW45952   4.355   2.694   5.062
11358SOL    HW145953   4.269   2.674   5.023
11358SOL    HW245954   4.379   2.779   5.026
11359SOL     OW45955   1.453   0.669  19.591
11359SOL    HW145956   1.412   0.582  19.594
11359SOL    HW245957   1.436   0.700  19.502
11360SOL     OW45958   0.969   0.999   3.882
11360SOL    HW145959   0.894   1.026   3.934
11360SOL    HW245960   1.032   0.964   3.946
11361SOL     OW45961   0.674   1.298  16.328
11361SOL    HW145962   0.661   1.323  16.419
11361SOL    HW245963   0.686   1.380  16.281
11362SOL     OW45964   2.063   1.903   6.242
11362SOL    HW145965   2.072   1.986   6.289
11362SOL    HW245966   1.987   1.861   6.282
11363SOL     OW45967   1.578   2.470  17.069
11363SOL    HW145968   1.600   2.403  17.004
11363SOL    HW245969   1.592   2.427  17.153
11364SOL     OW45970   2.480   0.316  18.492
11364SOL    HW145971   2.410   0.381  18.486
11364SOL    HW245972   2.437   0.237  18.526
11365SOL     OW45973   3.817   3.816  15.425
11365SOL    HW145974   3.873   3.748  15.387
11365SOL    HW245975   3.879   3.879  15.463
11366SOL     OW45976   1.390   3.303   2.015
11366SOL    HW145977   1.403   3.381   1.963
11366SOL    HW245978   1.362   3.236   1.953
11367SOL     OW45979   4.441   0.292  17.710
11367SOL    HW145980   4.442   0.198  17.693
11367SOL    HW245981   4.534   0.315  17.720
11368SOL     OW45982   1.539   2.958   5.023
11368SOL    HW145983   1.549   2.926   4.934
11368SOL    HW245984   1.622   2.937   5.066
11369SOL     OW45985   1.682   0.653  16.846
11369SOL    HW145986   1.641   0.661  16.932
11369SOL    HW245987   1.690   0.559  16.831
11370SOL     OW45988   4.043   3.849   4.714
11370SOL    HW145989   4.061   3.917   4.651
11370SOL    HW245990   4.126   3.803   4.726
11371SOL     OW45991   4.429   1.070  19.961
11371SOL    HW145992   4.338   1.065  19.932
11371SOL    HW245993   4.458   0.978  19.962
11372SOL     OW45994   0.731   2.779  17.179
11372SOL    HW145995   0.786   2.736  17.246
11372SOL    HW245996   0.749   2.872  17.190
11373SOL     OW45997   1.450   0.659   4.885
11373SOL    HW145998   1.417   0.742   4.852
11373SOL    HW245999   1.468   0.675   4.978
11374SOL     OW46000   2.795   4.080  21.128
11374SOL    HW146001   2.766   4.156  21.078
11374SOL    HW246002   2.835   4.117  21.207
11375SOL     OW46003   3.111   2.176   5.814
11375SOL    HW146004   3.048   2.248   5.817
11375SOL    HW246005   3.196   2.218   5.820
11376SOL     OW46006   0.526   3.196  21.134
11376SOL    HW146007   0.516   3.160  21.222
11376SOL    HW246008   0.487   3.284  21.140
11377SOL     OW46009   4.251   0.600  18.588
11377SOL    HW146010   4.290   0.529  18.538
11377SOL    HW246011   4.312   0.615  18.660
11378SOL     OW46012   1.805   3.634   6.538
11378SOL    HW146013   1.791   3.568   6.606
11378SOL    HW246014   1.886   3.607   6.494
11379SOL     OW46015   4.213   1.118  18.562
11379SOL    HW146016   4.205   1.168  18.481
11379SOL    HW246017   4.194   1.028  18.536
11380SOL     OW46018   2.635   3.104  17.533
11380SOL    HW146019   2.560   3.087  17.476
11380SOL    HW246020   2.704   3.136  17.475
11381SOL     OW46021   2.635   0.964  20.767
11381SOL    HW146022   2.599   0.879  20.742
11381SOL    HW246023   2.717   0.942  20.811
11382SOL     OW46024   4.075   3.603  17.361
11382SOL    HW146025   4.123   3.555  17.429
11382SOL    HW246026   4.135   3.673  17.335
11383SOL     OW46027   1.035   1.027   0.720
11383SOL    HW146028   1.111   1.060   0.672
11383SOL    HW246029   1.014   1.095   0.783
11384SOL     OW46030   0.805   3.146  16.312
11384SOL    HW146031   0.817   3.169  16.220
11384SOL    HW246032   0.870   3.077  16.328
11385SOL     OW46033   0.261   1.614  17.437
11385SOL    HW146034   0.295   1.641  17.522
11385SOL    HW246035   0.215   1.691  17.404
11386SOL     OW46036   1.416   3.301  16.735
11386SOL    HW146037   1.333   3.309  16.782
11386SOL    HW246038   1.401   3.347  16.652
11387SOL     OW46039   4.566   2.647  19.074
11387SOL    HW146040   4.660   2.640  19.091
11387SOL    HW246041   4.545   2.568  19.024
11388SOL     OW46042   2.886   4.762  16.071
11388SOL    HW146043   2.854   0.001  15.986
11388SOL    HW246044   2.932   4.680  16.051
11389SOL     OW46045   1.205   1.903   4.723
11389SOL    HW146046   1.137   1.860   4.776
11389SOL    HW246047   1.228   1.981   4.773
11390SOL     OW46048   3.767   1.019  15.218
11390SOL    HW146049   3.729   0.978  15.140
11390SOL    HW246050   3.842   1.069  15.184
11391SOL     OW46051   3.484   4.694   4.509
11391SOL    HW146052   3.455   4.728   4.424
11391SOL    HW246053   3.403   4.690   4.561
11392SOL     OW46054   1.225   0.945   2.861
11392SOL    HW146055   1.308   0.989   2.843
11392SOL    HW246056   1.246   0.852   2.860
11393SOL     OW46057   4.527   4.238  16.686
11393SOL    HW146058   4.494   4.256  16.598
11393SOL    HW246059   4.505   4.147  16.703
11394SOL     OW46060   2.676   4.668  21.101
11394SOL    HW146061   2.698   4.594  21.158
11394SOL    HW246062   2.689   4.746  21.157
11395SOL     OW46063   2.066   1.917  13.939
11395SOL    HW146064   2.007   1.905  14.012
11395SOL    HW246065   2.153   1.898  13.975
11396SOL     OW46066   4.264   1.605   0.239
11396SOL    HW146067   4.174   1.619   0.269
11396SOL    HW246068   4.255   1.561   0.155
11397SOL     OW46069   4.367   1.293   3.832
11397SOL    HW146070   4.280   1.315   3.798
11397SOL    HW246071   4.420   1.277   3.754
11398SOL     OW46072   0.716   0.779   5.096
11398SOL    HW146073   0.803   0.791   5.135
11398SOL    HW246074   0.732   0.729   5.016
11399SOL     OW46075   3.836   4.344   0.639
11399SOL    HW146076   3.845   4.274   0.574
11399SOL    HW246077   3.749   4.330   0.677
11400SOL     OW46078   4.116   0.639  20.492
11400SOL    HW146079   4.030   0.681  20.482
11400SOL    HW246080   4.177   0.712  20.500
11401SOL     OW46081   2.265   2.390  19.545
11401SOL    HW146082   2.314   2.408  19.465
11401SOL    HW246083   2.211   2.469  19.557
11402SOL     OW46084   1.556   2.922  20.068
11402SOL    HW146085   1.483   2.869  20.100
11402SOL    HW246086   1.520   3.011  20.059
11403SOL     OW46087   1.190   3.042  19.688
11403SOL    HW146088   1.248   3.086  19.626
11403SOL    HW246089   1.111   3.096  19.689
11404SOL     OW46090   0.953   3.594  20.490
11404SOL    HW146091   1.008   3.665  20.525
11404SOL    HW246092   1.015   3.538  20.443
11405SOL     OW46093   2.265   3.792   0.946
11405SOL    HW146094   2.257   3.848   0.869
11405SOL    HW246095   2.330   3.725   0.921
11406SOL     OW46096   1.528   3.541  20.354
11406SOL    HW146097   1.484   3.606  20.407
11406SOL    HW246098   1.597   3.589  20.308
11407SOL     OW46099   3.604   1.311  16.569
11407SOL    HW146100   3.526   1.341  16.615
11407SOL    HW246101   3.577   1.305  16.477
11408SOL     OW46102   4.351   1.969  17.008
11408SOL    HW146103   4.266   1.957  17.050
11408SOL    HW246104   4.359   1.894  16.948
11409SOL     OW46105   3.363   2.493   0.550
11409SOL    HW146106   3.363   2.537   0.465
11409SOL    HW246107   3.278   2.515   0.588
11410SOL     OW46108   1.008   1.845   1.414
11410SOL    HW146109   0.977   1.923   1.368
11410SOL    HW246110   1.070   1.878   1.479
11411SOL     OW46111   0.933   1.563   3.699
11411SOL    HW146112   0.970   1.569   3.611
11411SOL    HW246113   1.004   1.527   3.752
11412SOL     OW46114   0.995   4.256  16.270
11412SOL    HW146115   1.004   4.253  16.175
11412SOL    HW246116   0.901   4.256  16.286
11413SOL     OW46117   3.032   3.483  18.059
11413SOL    HW146118   3.000   3.562  18.016
11413SOL    HW246119   3.127   3.495  18.064
11414SOL     OW46120   4.292   0.530  17.762
11414SOL    HW146121   4.298   0.449  17.813
11414SOL    HW246122   4.342   0.512  17.682
11415SOL     OW46123   3.983   1.944   0.313
11415SOL    HW146124   4.020   2.007   0.251
11415SOL    HW246125   3.935   1.997   0.376
11416SOL     OW46126   1.304   1.700   4.234
11416SOL    HW146127   1.236   1.659   4.287
11416SOL    HW246128   1.372   1.724   4.297
11417SOL     OW46129   0.654   0.638   6.215
11417SOL    HW146130   0.648   0.543   6.228
11417SOL    HW246131   0.568   0.662   6.179
11418SOL     OW46132   1.770   0.373  16.443
11418SOL    HW146133   1.807   0.391  16.529
11418SOL    HW246134   1.676   0.387  16.453
11419SOL     OW46135   2.832   2.780  19.679
11419SOL    HW146136   2.899   2.820  19.735
11419SOL    HW246137   2.787   2.854  19.639
11420SOL     OW46138   2.552   0.451  14.891
11420SOL    HW146139   2.552   0.546  14.889
11420SOL    HW246140   2.528   0.424  14.803
11421SOL     OW46141   1.009   4.644  19.762
11421SOL    HW146142   1.028   4.730  19.799
11421SOL    HW246143   0.914   4.644  19.748
11422SOL     OW46144   3.845   4.068  20.569
11422SOL    HW146145   3.849   3.984  20.523
11422SOL    HW246146   3.861   4.046  20.661
11423SOL     OW46147   1.217   1.295   0.203
11423SOL    HW146148   1.296   1.244   0.221
11423SOL    HW246149   1.189   1.328   0.289
11424SOL     OW46150   1.281   3.817   3.466
11424SOL    HW146151   1.204   3.787   3.516
11424SOL    HW246152   1.353   3.763   3.498
11425SOL     OW46153   3.031   4.144  17.063
11425SOL    HW146154   2.950   4.156  17.014
11425SOL    HW246155   3.090   4.211  17.029
11426SOL     OW46156   3.490   2.172  17.010
11426SOL    HW146157   3.443   2.095  17.044
11426SOL    HW246158   3.579   2.160  17.042
11427SOL     OW46159   1.443   3.213  13.705
11427SOL    HW146160   1.509   3.253  13.761
11427SOL    HW246161   1.485   3.209  13.619
11428SOL     OW46162   1.611   3.147   5.665
11428SOL    HW146163   1.689   3.108   5.705
11428SOL    HW246164   1.590   3.088   5.593
11429SOL     OW46165   1.165   4.563  15.110
11429SOL    HW146166   1.186   4.470  15.115
11429SOL    HW246167   1.078   4.570  15.151
11430SOL     OW46168   2.509   0.253   2.197
11430SOL    HW146169   2.568   0.210   2.260
11430SOL    HW246170   2.425   0.257   2.243
11431SOL     OW46171   1.547   0.389  20.568
11431SOL    HW146172   1.487   0.440  20.622
11431SOL    HW246173   1.492   0.327  20.521
11432SOL     OW46174   2.835   1.118   1.132
11432SOL    HW146175   2.812   1.180   1.062
11432SOL    HW246176   2.752   1.100   1.176
11433SOL     OW46177   0.438   1.584  18.534
11433SOL    HW146178   0.344   1.562  18.534
11433SOL    HW246179   0.460   1.591  18.627
11434SOL     OW46180   3.028   0.616  16.942
11434SOL    HW146181   3.082   0.687  16.907
11434SOL    HW246182   3.089   0.560  16.990
11435SOL     OW46183   2.747   4.730  20.851
11435SOL    HW146184   2.695   0.016  20.827
11435SOL    HW246185   2.731   4.719  20.945
11436SOL     OW46186   1.933   4.588   7.581
11436SOL    HW146187   1.953   4.588   7.675
11436SOL    HW246188   1.899   4.676   7.564
11437SOL     OW46189   3.055   0.663  19.074
11437SOL    HW146190   3.037   0.614  19.155
11437SOL    HW246191   3.117   0.731  19.101
11438SOL     OW46192   4.062   0.471  20.220
11438SOL    HW146193   4.081   0.545  20.278
11438SOL    HW246194   3.987   0.428  20.262
11439SOL     OW46195   3.875   1.662   0.062
11439SOL    HW146196   3.901   1.636   0.151
11439SOL    HW246197   3.781   1.677   0.069
11440SOL     OW46198   3.411   1.630  18.000
11440SOL    HW146199   3.423   1.723  18.022
11440SOL    HW246200   3.371   1.592  18.078
11441SOL     OW46201   4.510   0.328  13.392
11441SOL    HW146202   4.558   0.353  13.313
11441SOL    HW246203   4.564   0.361  13.464
11442SOL     OW46204   3.350   0.050  16.391
11442SOL    HW146205   3.368   0.123  16.450
11442SOL    HW246206   3.345   0.090  16.304
11443SOL     OW46207   1.433   0.804  16.778
11443SOL    HW146208   1.399   0.783  16.691
11443SOL    HW246209   1.522   0.836  16.762
11444SOL     OW46210   4.750   3.322  20.617
11444SOL    HW146211   4.705   3.388  20.564
11444SOL    HW246212   0.006   3.269  20.553
11445SOL     OW46213   0.883   0.144  18.020
11445SOL    HW146214   0.959   0.199  18.041
11445SOL    HW246215   0.817   0.206  17.988
11446SOL     OW46216   1.278   0.757   0.858
11446SOL    HW146217   1.265   0.812   0.935
11446SOL    HW246218   1.213   0.687   0.867
11447SOL     OW46219   1.146   1.429  15.257
11447SOL    HW146220   1.073   1.371  15.278
11447SOL    HW246221   1.211   1.372  15.217
11448SOL     OW46222   0.771   1.300   7.131
11448SOL    HW146223   0.755   1.230   7.194
11448SOL    HW246224   0.793   1.254   7.049
11449SOL     OW46225   2.850   1.953  18.118
11449SOL    HW146226   2.895   2.028  18.080
11449SOL    HW246227   2.819   1.983  18.203
11450SOL     OW46228   0.246   2.617  21.060
11450SOL    HW146229   0.297   2.690  21.025
11450SOL    HW246230   0.307   2.545  21.065
11451SOL     OW46231   3.430   0.675   4.816
11451SOL    HW146232   3.368   0.702   4.749
11451SOL    HW246233   3.377   0.626   4.880
11452SOL     OW46234   4.006   1.349   0.991
11452SOL    HW146235   3.931   1.389   1.033
11452SOL    HW246236   4.051   1.302   1.062
11453SOL     OW46237   1.144   4.341  19.157
11453SOL    HW146238   1.214   4.338  19.222
11453SOL    HW246239   1.139   4.432  19.130
11454SOL     OW46240   0.919   2.200   2.189
11454SOL    HW146241   0.870   2.173   2.266
11454SOL    HW246242   1.008   2.216   2.221
11455SOL     OW46243   1.094   3.238  16.488
11455SOL    HW146244   1.171   3.289  16.461
11455SOL    HW246245   1.026   3.262  16.425
11456SOL     OW46246   0.219   0.125  16.657
11456SOL    HW146247   0.239   0.192  16.722
11456SOL    HW246248   0.247   0.163  16.574
11457SOL     OW46249   0.184   2.165   0.755
11457SOL    HW146250   0.174   2.218   0.676
11457SOL    HW246251   0.102   2.116   0.762
11458SOL     OW46252   3.242   3.250  20.713
11458SOL    HW146253   3.210   3.225  20.626
11458SOL    HW246254   3.337   3.248  20.705
11459SOL     OW46255   3.150   4.143   4.748
11459SOL    HW146256   3.190   4.212   4.696
11459SOL    HW246257   3.114   4.082   4.683
11460SOL     OW46258   1.992   0.533   2.009
11460SOL    HW146259   1.954   0.620   2.004
11460SOL    HW246260   1.920   0.476   2.037
11461SOL     OW46261   1.909   0.475   8.185
11461SOL    HW146262   1.835   0.526   8.151
11461SOL    HW246263   1.986   0.520   8.150
11462SOL     OW46264   3.502   1.624   3.974
11462SOL    HW146265   3.447   1.673   3.913
11462SOL    HW246266   3.516   1.540   3.931
11463SOL     OW46267   4.340   4.365   4.899
11463SOL    HW146268   4.431   4.390   4.885
11463SOL    HW246269   4.290   4.423   4.840
11464SOL     OW46270   0.744   1.529  18.229
11464SOL    HW146271   0.804   1.552  18.158
11464SOL    HW246272   0.799   1.530  18.308
11465SOL     OW46273   0.502   2.598  19.916
11465SOL    HW146274   0.495   2.687  19.949
11465SOL    HW246275   0.523   2.545  19.993
11466SOL     OW46276   1.371   2.281  18.457
11466SOL    HW146277   1.384   2.375  18.466
11466SOL    HW246278   1.276   2.269  18.456
11467SOL     OW46279   3.704   1.202   2.459
11467SOL    HW146280   3.668   1.231   2.375
11467SOL    HW246281   3.762   1.273   2.486
11468SOL     OW46282   2.311   3.132   0.826
11468SOL    HW146283   2.391   3.089   0.856
11468SOL    HW246284   2.241   3.091   0.877
11469SOL     OW46285   4.063   1.614  20.555
11469SOL    HW146286   4.034   1.693  20.601
11469SOL    HW246287   4.023   1.619  20.469
11470SOL     OW46288   1.962   1.130  12.946
11470SOL    HW146289   1.991   1.156  13.034
11470SOL    HW246290   1.867   1.143  12.947
11471SOL     OW46291   4.763   0.016  15.078
11471SOL    HW146292   0.020   4.737  15.033
11471SOL    HW246293   4.744   4.772  15.164
11472SOL     OW46294   3.309   0.277  20.573
11472SOL    HW146295   3.384   0.332  20.550
11472SOL    HW246296   3.345   0.214  20.636
11473SOL     OW46297   0.610   4.378  20.619
11473SOL    HW146298   0.679   4.408  20.678
11473SOL    HW246299   0.655   4.360  20.537
11474SOL     OW46300   2.104   0.995  19.983
11474SOL    HW146301   2.126   0.920  19.927
11474SOL    HW246302   2.160   0.985  20.060
11475SOL     OW46303   4.661   1.622  16.477
11475SOL    HW146304   4.696   1.564  16.409
11475SOL    HW246305   4.594   1.569  16.520
11476SOL     OW46306   2.397   2.887  16.288
11476SOL    HW146307   2.486   2.852  16.279
11476SOL    HW246308   2.396   2.965  16.234
11477SOL     OW46309   3.892   0.239  18.652
11477SOL    HW146310   3.800   0.213  18.649
11477SOL    HW246311   3.891   0.334  18.647
11478SOL     OW46312   4.000   1.459  18.548
11478SOL    HW146313   4.018   1.369  18.522
11478SOL    HW246314   4.018   1.511  18.470
11479SOL     OW46315   2.504   1.882  20.858
11479SOL    HW146316   2.419   1.867  20.898
11479SOL    HW246317   2.527   1.798  20.818
11480SOL     OW46318   1.765   2.410   4.989
11480SOL    HW146319   1.711   2.331   4.978
11480SOL    HW246320   1.744   2.464   4.914
11481SOL     OW46321   0.012   0.906  15.933
11481SOL    HW146322   0.063   0.930  16.011
11481SOL    HW246323   0.001   0.811  15.939
11482SOL     OW46324   0.112   0.808   5.875
11482SOL    HW146325   0.019   0.798   5.893
11482SOL    HW246326   0.146   0.718   5.871
11483SOL     OW46327   2.579   0.822  14.259
11483SOL    HW146328   2.668   0.838  14.229
11483SOL    HW246329   2.590   0.776  14.342
11484SOL     OW46330   4.761   2.803  20.672
11484SOL    HW146331   0.058   2.789  20.709
11484SOL    HW246332   4.724   2.874  20.724
11485SOL     OW46333   4.127   4.714   6.430
11485SOL    HW146334   4.201   4.738   6.375
11485SOL    HW246335   4.096   4.631   6.394
11486SOL     OW46336   2.405   2.428  16.235
11486SOL    HW146337   2.366   2.503  16.189
11486SOL    HW246338   2.449   2.466  16.310
11487SOL     OW46339   3.649   0.855   3.357
11487SOL    HW146340   3.691   0.869   3.272
11487SOL    HW246341   3.721   0.837   3.417
11488SOL     OW46342   3.869   1.288   1.431
11488SOL    HW146343   3.904   1.200   1.443
11488SOL    HW246344   3.781   1.275   1.396
11489SOL     OW46345   3.506   2.728   4.109
11489SOL    HW146346   3.443   2.716   4.181
11489SOL    HW246347   3.576   2.666   4.128
11490SOL     OW46348   0.680   0.536   7.948
11490SOL    HW146349   0.742   0.565   8.015
11490SOL    HW246350   0.735   0.504   7.877
11491SOL     OW46351   1.620   2.197   2.519
11491SOL    HW146352   1.686   2.187   2.588
11491SOL    HW246353   1.666   2.241   2.447
11492SOL     OW46354   3.333   3.536   1.872
11492SOL    HW146355   3.350   3.593   1.797
11492SOL    HW246356   3.371   3.452   1.847
11493SOL     OW46357   2.862   1.564   0.721
11493SOL    HW146358   2.902   1.496   0.668
11493SOL    HW246359   2.769   1.539   0.726
11494SOL     OW46360   0.300   3.394   1.311
11494SOL    HW146361   0.353   3.315   1.314
11494SOL    HW246362   0.276   3.404   1.219
11495SOL     OW46363   0.495   3.158   3.138
11495SOL    HW146364   0.408   3.152   3.178
11495SOL    HW246365   0.477   3.163   3.044
11496SOL     OW46366   0.802   0.164  10.026
11496SOL    HW146367   0.759   0.135  10.107
11496SOL    HW246368   0.893   0.135  10.036
11497SOL     OW46369   3.888   1.279  20.331
11497SOL    HW146370   3.915   1.189  20.346
11497SOL    HW246371   3.855   1.309  20.416
11498SOL     OW46372   2.811   0.116  16.928
11498SOL    HW146373   2.859   0.092  17.007
11498SOL    HW246374   2.877   0.113  16.858
11499SOL     OW46375   1.133   3.860  15.399
11499SOL    HW146376   1.051   3.904  15.422
11499SOL    HW246377   1.110   3.804  15.325
11500SOL     OW46378   1.430   0.947   0.740
11500SOL    HW146379   1.402   0.961   0.650
11500SOL    HW246380   1.368   0.884   0.776
11501SOL     OW46381   2.582   3.741   0.954
11501SOL    HW146382   2.591   3.823   1.004
11501SOL    HW246383   2.531   3.684   1.012
11502SOL     OW46384   3.515   1.887   2.580
11502SOL    HW146385   3.556   1.945   2.644
11502SOL    HW246386   3.431   1.930   2.560
11503SOL     OW46387   1.361   1.512   2.494
11503SOL    HW146388   1.355   1.428   2.449
11503SOL    HW246389   1.361   1.577   2.424
11504SOL     OW46390   1.245   1.943   5.434
11504SOL    HW146391   1.315   1.990   5.479
11504SOL    HW246392   1.165   1.989   5.458
11505SOL     OW46393   4.751   3.482   5.472
11505SOL    HW146394   4.706   3.406   5.436
11505SOL    HW246395   4.680   3.539   5.504
11506SOL     OW46396   4.534   3.523  15.379
11506SOL    HW146397   4.586   3.451  15.346
11506SOL    HW246398   4.566   3.538  15.468
11507SOL     OW46399   2.031   4.391   2.606
11507SOL    HW146400   1.998   4.301   2.599
11507SOL    HW246401   1.953   4.446   2.594
11508SOL     OW46402   0.921   1.384   2.551
11508SOL    HW146403   0.921   1.368   2.645
11508SOL    HW246404   0.832   1.361   2.524
11509SOL     OW46405   3.845   3.956  18.691
11509SOL    HW146406   3.817   3.866  18.702
11509SOL    HW246407   3.857   3.967  18.597
11510SOL     OW46408   3.064   1.460   5.670
11510SOL    HW146409   3.128   1.412   5.619
11510SOL    HW246410   3.069   1.550   5.637
11511SOL     OW46411   0.814   2.842  19.670
11511SOL    HW146412   0.828   2.829  19.764
11511SOL    HW246413   0.725   2.809  19.655
11512SOL     OW46414   1.985   3.720  14.102
11512SOL    HW146415   2.021   3.802  14.134
11512SOL    HW246416   1.902   3.744  14.060
11513SOL     OW46417   3.351   0.072  19.256
11513SOL    HW146418   3.434   0.087  19.210
11513SOL    HW246419   3.376   0.027  19.337
11514SOL     OW46420   2.734   0.014  19.687
11514SOL    HW146421   2.811   0.022  19.631
11514SOL    HW246422   2.688   4.728  19.652
11515SOL     OW46423   2.569   4.563   4.067
11515SOL    HW146424   2.566   4.657   4.086
11515SOL    HW246425   2.645   4.530   4.115
11516SOL     OW46426   3.935   3.960  15.627
11516SOL    HW146427   3.856   3.912  15.652
11516SOL    HW246428   4.007   3.898  15.642
11517SOL     OW46429   1.615   3.571   4.888
11517SOL    HW146430   1.647   3.615   4.967
11517SOL    HW246431   1.554   3.505   4.920
11518SOL     OW46432   2.512   0.320  19.745
11518SOL    HW146433   2.486   0.280  19.662
11518SOL    HW246434   2.438   0.376  19.770
11519SOL     OW46435   0.650   4.048  16.523
11519SOL    HW146436   0.648   3.984  16.452
11519SOL    HW246437   0.655   3.995  16.603
11520SOL     OW46438   0.199   1.154  15.572
11520SOL    HW146439   0.240   1.214  15.510
11520SOL    HW246440   0.269   1.129  15.631
11521SOL     OW46441   4.506   1.218   7.599
11521SOL    HW146442   4.438   1.204   7.666
11521SOL    HW246443   4.507   1.137   7.549
11522SOL     OW46444   0.760   3.891   2.492
11522SOL    HW146445   0.759   3.853   2.404
11522SOL    HW246446   0.793   3.980   2.478
11523SOL     OW46447   3.025   0.990  18.402
11523SOL    HW146448   3.066   0.951  18.324
11523SOL    HW246449   2.932   0.991  18.382
11524SOL     OW46450   0.755   3.668  16.375
11524SOL    HW146451   0.691   3.738  16.366
11524SOL    HW246452   0.705   3.588  16.357
11525SOL     OW46453   3.959   1.237  18.430
11525SOL    HW146454   3.864   1.244  18.429
11525SOL    HW246455   3.983   1.208  18.342
11526SOL     OW46456   3.013   0.366  17.479
11526SOL    HW146457   3.006   0.290  17.423
11526SOL    HW246458   3.012   0.441  17.419
11527SOL     OW46459   3.047   3.490   7.538
11527SOL    HW146460   3.023   3.510   7.629
11527SOL    HW246461   2.969   3.451   7.500
11528SOL     OW46462   0.835   3.177  20.795
11528SOL    HW146463   0.834   3.154  20.888
11528SOL    HW246464   0.744   3.198  20.774
11529SOL     OW46465   4.286   0.923   0.263
11529SOL    HW146466   4.361   0.864   0.256
11529SOL    HW246467   4.213   0.866   0.286
11530SOL     OW46468   2.660   3.802  19.505
11530SOL    HW146469   2.708   3.748  19.569
11530SOL    HW246470   2.570   3.802  19.537
11531SOL     OW46471   3.325   4.494  14.035
11531SOL    HW146472   3.273   4.570  14.062
11531SOL    HW246473   3.285   4.466  13.952
11532SOL     OW46474   0.129   2.549   3.726
11532SOL    HW146475   0.146   2.496   3.648
11532SOL    HW246476   0.214   2.556   3.770
11533SOL     OW46477   1.672   3.321  13.834
11533SOL    HW146478   1.695   3.396  13.779
11533SOL    HW246479   1.738   3.255  13.813
11534SOL     OW46480   0.362   4.700  20.964
11534SOL    HW146481   0.281   4.677  20.917
11534SOL    HW246482   0.333   4.712  21.054
11535SOL     OW46483   0.283   0.130   4.186
11535SOL    HW146484   0.264   0.074   4.111
11535SOL    HW246485   0.224   0.098   4.254
11536SOL     OW46486   0.248   3.734   5.704
11536SOL    HW146487   0.220   3.677   5.776
11536SOL    HW246488   0.169   3.782   5.680
11537SOL     OW46489   0.083   3.225  19.792
11537SOL    HW146490   0.177   3.225  19.770
11537SOL    HW246491   0.042   3.272  19.720
11538SOL     OW46492   3.313   0.019   3.043
11538SOL    HW146493   3.341   4.720   3.062
11538SOL    HW246494   3.228   0.028   3.086
11539SOL     OW46495   1.894   0.989  16.885
11539SOL    HW146496   1.845   1.072  16.892
11539SOL    HW246497   1.891   0.952  16.973
11540SOL     OW46498   4.581   1.109  17.216
11540SOL    HW146499   4.627   1.042  17.165
11540SOL    HW246500   4.497   1.119  17.171
11541SOL     OW46501   4.460   4.757  18.247
11541SOL    HW146502   4.431   4.710  18.325
11541SOL    HW246503   4.519   0.034  18.280
11542SOL     OW46504   2.377   2.377   4.190
11542SOL    HW146505   2.331   2.396   4.271
11542SOL    HW246506   2.432   2.454   4.174
11543SOL     OW46507   2.283   2.144   2.316
11543SOL    HW146508   2.272   2.190   2.233
11543SOL    HW246509   2.370   2.105   2.310
11544SOL     OW46510   0.763   2.996  20.135
11544SOL    HW146511   0.855   2.992  20.108
11544SOL    HW246512   0.719   2.929  20.083
11545SOL     OW46513   3.805   0.702   2.763
11545SOL    HW146514   3.756   0.778   2.795
11545SOL    HW246515   3.739   0.633   2.755
11546SOL     OW46516   4.705   4.184   0.611
11546SOL    HW146517   4.726   4.153   0.522
11546SOL    HW246518   4.633   4.245   0.598
11547SOL     OW46519   4.619   1.103  15.770
11547SOL    HW146520   4.608   1.198  15.765
11547SOL    HW246521   4.597   1.073  15.681
11548SOL     OW46522   1.678   4.505   1.394
11548SOL    HW146523   1.612   4.472   1.455
11548SOL    HW246524   1.668   4.600   1.396
11549SOL     OW46525   1.258   1.237   6.277
11549SOL    HW146526   1.316   1.271   6.346
11549SOL    HW246527   1.183   1.202   6.325
11550SOL     OW46528   4.284   4.257   7.120
11550SOL    HW146529   4.199   4.276   7.080
11550SOL    HW246530   4.348   4.280   7.052
11551SOL     OW46531   0.947   3.764  19.670
11551SOL    HW146532   0.871   3.776  19.613
11551SOL    HW246533   0.935   3.826  19.741
11552SOL     OW46534   3.897   2.432  20.930
11552SOL    HW146535   3.921   2.352  20.884
11552SOL    HW246536   3.980   2.468  20.961
11553SOL     OW46537   2.611   2.621  18.866
11553SOL    HW146538   2.568   2.671  18.796
11553SOL    HW246539   2.618   2.532  18.832
11554SOL     OW46540   2.382   1.560   2.587
11554SOL    HW146541   2.380   1.466   2.571
11554SOL    HW246542   2.422   1.597   2.508
11555SOL     OW46543   1.250   0.354   5.578
11555SOL    HW146544   1.208   0.300   5.645
11555SOL    HW246545   1.227   0.444   5.602
11556SOL     OW46546   3.540   2.996   0.786
11556SOL    HW146547   3.578   2.932   0.846
11556SOL    HW246548   3.568   2.967   0.699
11557SOL     OW46549   4.762   2.212   5.385
11557SOL    HW146550   4.715   2.270   5.325
11557SOL    HW246551   4.741   2.245   5.472
11558SOL     OW46552   3.287   0.710  19.313
11558SOL    HW146553   3.311   0.634  19.260
11558SOL    HW246554   3.315   0.688  19.402
11559SOL     OW46555   3.976   1.034   2.027
11559SOL    HW146556   3.970   0.981   1.948
11559SOL    HW246557   4.018   0.977   2.092
11560SOL     OW46558   3.415   3.800   5.819
11560SOL    HW146559   3.374   3.721   5.785
11560SOL    HW246560   3.343   3.861   5.832
11561SOL     OW46561   3.768   4.673  16.230
11561SOL    HW146562   3.777   4.730  16.306
11561SOL    HW246563   3.858   4.660  16.199
11562SOL     OW46564   0.068   4.365   2.518
11562SOL    HW146565   4.784   4.313   2.490
11562SOL    HW246566   0.080   4.429   2.448
11563SOL     OW46567   1.051   3.752   4.310
11563SOL    HW146568   1.062   3.658   4.297
11563SOL    HW246569   0.980   3.759   4.374
11564SOL     OW46570   1.249   0.434   0.639
11564SOL    HW146571   1.248   0.421   0.734
11564SOL    HW246572   1.296   0.359   0.605
11565SOL     OW46573   2.018   4.618  16.671
11565SOL    HW146574   2.109   4.649  16.667
11565SOL    HW246575   2.020   4.545  16.733
11566SOL     OW46576   4.460   3.758  19.873
11566SOL    HW146577   4.544   3.803  19.871
11566SOL    HW246578   4.456   3.711  19.789
11567SOL     OW46579   0.801   0.501   4.161
11567SOL    HW146580   0.865   0.538   4.100
11567SOL    HW246581   0.770   0.577   4.211
11568SOL     OW46582   4.303   4.235   3.811
11568SOL    HW146583   4.303   4.141   3.794
11568SOL    HW246584   4.233   4.248   3.876
11569SOL     OW46585   1.199   2.427   4.741
11569SOL    HW146586   1.271   2.485   4.715
11569SOL    HW246587   1.125   2.455   4.687
11570SOL     OW46588   0.678   2.397  17.436
11570SOL    HW146589   0.646   2.395  17.526
11570SOL    HW246590   0.637   2.321  17.395
11571SOL     OW46591   2.045   2.272  13.513
11571SOL    HW146592   2.079   2.252  13.600
11571SOL    HW246593   1.988   2.348  13.527
11572SOL     OW46594   3.287   3.659   2.103
11572SOL    HW146595   3.301   3.607   2.024
11572SOL    HW246596   3.204   3.704   2.088
11573SOL     OW46597   2.753   3.233   5.901
11573SOL    HW146598   2.743   3.265   5.811
11573SOL    HW246599   2.675   3.267   5.947
11574SOL     OW46600   2.299   1.935   4.162
11574SOL    HW146601   2.334   2.011   4.115
11574SOL    HW246602   2.213   1.921   4.123
11575SOL     OW46603   4.782   3.856  15.400
11575SOL    HW146604   0.061   3.835  15.339
11575SOL    HW246605   0.026   3.927  15.454
11576SOL     OW46606   1.552   2.479   1.021
11576SOL    HW146607   1.559   2.447   0.931
11576SOL    HW246608   1.642   2.479   1.053
11577SOL     OW46609   3.369   1.448  20.347
11577SOL    HW146610   3.291   1.486  20.388
11577SOL    HW246611   3.421   1.415  20.420
11578SOL     OW46612   4.695   1.390  17.990
11578SOL    HW146613   4.653   1.398  17.904
11578SOL    HW246614   4.650   1.318  18.033
11579SOL     OW46615   3.119   3.847  15.889
11579SOL    HW146616   3.073   3.920  15.929
11579SOL    HW246617   3.049   3.787  15.861
11580SOL     OW46618   0.652   3.408   6.454
11580SOL    HW146619   0.587   3.350   6.494
11580SOL    HW246620   0.736   3.379   6.491
11581SOL     OW46621   1.348   1.332   2.248
11581SOL    HW146622   1.258   1.364   2.243
11581SOL    HW246623   1.377   1.327   2.157
11582SOL     OW46624   2.849   1.738  17.955
11582SOL    HW146625   2.932   1.766  17.918
11582SOL    HW246626   2.827   1.807  18.019
11583SOL     OW46627   3.400   4.528   4.977
11583SOL    HW146628   3.437   4.442   4.993
11583SOL    HW246629   3.315   4.526   5.021
11584SOL     OW46630   2.035   1.061  18.676
11584SOL    HW146631   2.028   1.048  18.771
11584SOL    HW246632   1.944   1.056  18.645
11585SOL     OW46633   2.709   3.660  18.274
11585SOL    HW146634   2.644   3.630  18.338
11585SOL    HW246635   2.682   3.620  18.192
11586SOL     OW46636   4.468   2.220   5.507
11586SOL    HW146637   4.487   2.127   5.513
11586SOL    HW246638   4.372   2.225   5.499
11587SOL     OW46639   3.823   1.188   3.962
11587SOL    HW146640   3.785   1.264   4.007
11587SOL    HW246641   3.751   1.125   3.958
11588SOL     OW46642   0.701   3.491   4.793
11588SOL    HW146643   0.783   3.457   4.756
11588SOL    HW246644   0.728   3.535   4.874
11589SOL     OW46645   1.613   1.487   2.591
11589SOL    HW146646   1.521   1.491   2.567
11589SOL    HW246647   1.616   1.426   2.664
11590SOL     OW46648   1.687   2.569   4.764
11590SOL    HW146649   1.671   2.498   4.702
11590SOL    HW246650   1.604   2.580   4.810
11591SOL     OW46651   4.204   2.485  16.967
11591SOL    HW146652   4.146   2.410  16.983
11591SOL    HW246653   4.292   2.446  16.959
11592SOL     OW46654   0.948   2.753   1.563
11592SOL    HW146655   1.034   2.791   1.580
11592SOL    HW246656   0.886   2.823   1.585
11593SOL     OW46657   3.855   3.043  17.085
11593SOL    HW146658   3.788   3.103  17.118
11593SOL    HW246659   3.864   3.067  16.993
11594SOL     OW46660   0.418   2.838  21.052
11594SOL    HW146661   0.466   2.851  21.134
11594SOL    HW246662   0.345   2.900  21.057
11595SOL     OW46663   0.758   2.781   6.923
11595SOL    HW146664   0.675   2.737   6.940
11595SOL    HW246665   0.747   2.821   6.837
11596SOL     OW46666   3.074   2.509   3.019
11596SOL    HW146667   3.153   2.456   3.035
11596SOL    HW246668   3.024   2.502   3.100
11597SOL     OW46669   2.749   3.386  20.308
11597SOL    HW146670   2.788   3.373  20.394
11597SOL    HW246671   2.731   3.297  20.276
11598SOL     OW46672   0.775   3.106  21.045
11598SOL    HW146673   0.711   3.169  21.078
11598SOL    HW246674   0.761   3.027  21.098
11599SOL     OW46675   2.256   3.614   0.622
11599SOL    HW146676   2.297   3.548   0.566
11599SOL    HW246677   2.178   3.571   0.658
11600SOL     OW46678   2.284   0.644  20.388
11600SOL    HW146679   2.225   0.574  20.418
11600SOL    HW246680   2.291   0.630  20.293
11601SOL     OW46681   1.656   1.050   0.857
11601SOL    HW146682   1.593   1.063   0.928
11601SOL    HW246683   1.602   1.035   0.779
11602SOL     OW46684   3.503   3.205  16.905
11602SOL    HW146685   3.465   3.197  16.818
11602SOL    HW246686   3.428   3.195  16.964
11603SOL     OW46687   4.018   4.463  20.836
11603SOL    HW146688   3.931   4.429  20.820
11603SOL    HW246689   4.015   4.554  20.806
11604SOL     OW46690   3.397   0.053   4.252
11604SOL    HW146691   3.468   0.106   4.288
11604SOL    HW246692   3.322   0.112   4.248
11605SOL     OW46693   2.818   0.164   5.792
11605SOL    HW146694   2.874   0.087   5.800
11605SOL    HW246695   2.754   0.140   5.725
11606SOL     OW46696   4.650   4.609   0.988
11606SOL    HW146697   4.678   4.536   1.043
11606SOL    HW246698   4.687   4.687   1.029
11607SOL     OW46699   2.375   0.565  14.587
11607SOL    HW146700   2.410   0.633  14.645
11607SOL    HW246701   2.291   0.541  14.626
11608SOL     OW46702   0.043   3.558   4.529
11608SOL    HW146703   0.136   3.577   4.516
11608SOL    HW246704   0.040   3.500   4.605
11609SOL     OW46705   1.545   1.763   4.387
11609SOL    HW146706   1.512   1.701   4.452
11609SOL    HW246707   1.630   1.728   4.361
11610SOL     OW46708   4.663   4.125   3.791
11610SOL    HW146709   4.667   4.145   3.885
11610SOL    HW246710   4.591   4.179   3.758
11611SOL     OW46711   4.582   1.134   4.839
11611SOL    HW146712   4.499   1.115   4.881
11611SOL    HW246713   4.581   1.084   4.758
11612SOL     OW46714   3.545   0.129  18.842
11612SOL    HW146715   3.453   0.157  18.847
11612SOL    HW246716   3.555   0.100  18.751
11613SOL     OW46717   0.253   1.258   4.466
11613SOL    HW146718   0.191   1.186   4.479
11613SOL    HW246719   0.327   1.235   4.522
11614SOL     OW46720   0.477   0.675  18.303
11614SOL    HW146721   0.557   0.728  18.298
11614SOL    HW246722   0.408   0.738  18.323
11615SOL     OW46723   1.358   1.613   1.221
11615SOL    HW146724   1.319   1.534   1.182
11615SOL    HW246725   1.286   1.675   1.226
11616SOL     OW46726   1.545   4.158   4.678
11616SOL    HW146727   1.528   4.155   4.772
11616SOL    HW246728   1.465   4.122   4.638
11617SOL     OW46729   1.882   3.580  17.292
11617SOL    HW146730   1.950   3.611  17.233
11617SOL    HW246731   1.902   3.487  17.305
11618SOL     OW46732   4.210   4.056  16.371
11618SOL    HW146733   4.126   4.095  16.345
11618SOL    HW246734   4.186   3.988  16.434
11619SOL     OW46735   1.767   4.357  13.101
11619SOL    HW146736   1.832   4.426  13.115
11619SOL    HW246737   1.812   4.293  13.045
11620SOL     OW46738   2.469   1.920   1.454
11620SOL    HW146739   2.418   1.839   1.457
11620SOL    HW246740   2.449   1.963   1.537
11621SOL     OW46741   4.669   1.876  19.234
11621SOL    HW146742   4.647   1.964  19.205
11621SOL    HW246743   4.633   1.870  19.323
11622SOL     OW46744   3.341   2.683   0.079
11622SOL    HW146745   3.327   2.700  21.249
11622SOL    HW246746   3.424   2.637   0.083
11623SOL     OW46747   1.349   2.136   2.488
11623SOL    HW146748   1.339   2.044   2.511
11623SOL    HW246749   1.443   2.150   2.483
11624SOL     OW46750   4.239   3.930  15.942
11624SOL    HW146751   4.295   4.003  15.914
11624SOL    HW246752   4.298   3.871  15.988
11625SOL     OW46753   0.186   4.458  18.084
11625SOL    HW146754   0.174   4.477  18.177
11625SOL    HW246755   0.103   4.421  18.055
11626SOL     OW46756   2.698   4.677   5.076
11626SOL    HW146757   2.793   4.687   5.072
11626SOL    HW246758   2.672   4.728   5.153
11627SOL     OW46759   2.203   1.385  19.744
11627SOL    HW146760   2.113   1.351  19.750
11627SOL    HW246761   2.201   1.465  19.797
11628SOL     OW46762   4.624   3.001   5.674
11628SOL    HW146763   4.683   3.062   5.629
11628SOL    HW246764   4.644   2.916   5.635
11629SOL     OW46765   1.324   1.706   8.774
11629SOL    HW146766   1.319   1.723   8.680
11629SOL    HW246767   1.397   1.760   8.805
11630SOL     OW46768   3.783   1.706   6.921
11630SOL    HW146769   3.738   1.737   6.843
11630SOL    HW246770   3.844   1.776   6.943
11631SOL     OW46771   2.284   2.944  21.127
11631SOL    HW146772   2.226   2.893  21.183
11631SOL    HW246773   2.365   2.894  21.124
11632SOL     OW46774   3.803   0.280  15.833
11632SOL    HW146775   3.809   0.226  15.755
11632SOL    HW246776   3.769   0.222  15.901
11633SOL     OW46777   1.434   2.290   4.568
11633SOL    HW146778   1.422   2.304   4.474
11633SOL    HW246779   1.433   2.195   4.579
11634SOL     OW46780   4.790   4.411  18.734
11634SOL    HW146781   0.018   4.323  18.767
11634SOL    HW246782   4.697   4.408  18.711
11635SOL     OW46783   3.049   4.415  12.537
11635SOL    HW146784   2.984   4.428  12.606
11635SOL    HW246785   3.083   4.327  12.552
11636SOL     OW46786   1.522   1.557  14.076
11636SOL    HW146787   1.513   1.475  14.026
11636SOL    HW246788   1.432   1.580  14.099
11637SOL     OW46789   0.452   4.517  16.102
11637SOL    HW146790   0.526   4.551  16.052
11637SOL    HW246791   0.464   4.422  16.102
11638SOL     OW46792   3.391   3.965   5.612
11638SOL    HW146793   3.404   3.899   5.680
11638SOL    HW246794   3.296   3.975   5.607
11639SOL     OW46795   4.019   1.878   6.217
11639SOL    HW146796   4.095   1.840   6.174
11639SOL    HW246797   4.003   1.820   6.292
11640SOL     OW46798   3.657   0.553  16.607
11640SOL    HW146799   3.645   0.632  16.555
11640SOL    HW246800   3.572   0.537  16.647
11641SOL     OW46801   0.172   0.053   2.554
11641SOL    HW146802   0.160   0.147   2.567
11641SOL    HW246803   0.085   0.016   2.566
11642SOL     OW46804   2.546   4.431   6.616
11642SOL    HW146805   2.537   4.457   6.708
11642SOL    HW246806   2.502   4.346   6.610
11643SOL     OW46807   1.210   4.573   5.352
11643SOL    HW146808   1.151   4.640   5.318
11643SOL    HW246809   1.260   4.545   5.276
11644SOL     OW46810   0.756   4.561  13.153
11644SOL    HW146811   0.761   4.490  13.089
11644SOL    HW246812   0.709   4.631  13.106
11645SOL     OW46813   2.220   4.099  21.075
11645SOL    HW146814   2.295   4.056  21.033
11645SOL    HW246815   2.245   4.191  21.081
11646SOL     OW46816   2.013   0.029   3.204
11646SOL    HW146817   2.021   0.074   3.288
11646SOL    HW246818   1.999   0.100   3.141
11647SOL     OW46819   0.439   0.416  20.488
11647SOL    HW146820   0.366   0.371  20.529
11647SOL    HW246821   0.402   0.459  20.411
11648SOL     OW46822   2.091   2.132   6.463
11648SOL    HW146823   2.092   2.063   6.530
11648SOL    HW246824   2.165   2.188   6.486
11649SOL     OW46825   4.603   3.153  14.589
11649SOL    HW146826   4.550   3.190  14.659
11649SOL    HW246827   4.660   3.224  14.561
11650SOL     OW46828   3.139   0.669   1.441
11650SOL    HW146829   3.166   0.747   1.489
11650SOL    HW246830   3.139   0.696   1.349
11651SOL     OW46831   2.956   0.575  20.841
11651SOL    HW146832   3.007   0.525  20.777
11651SOL    HW246833   2.874   0.526  20.850
11652SOL     OW46834   0.820   2.206   3.530
11652SOL    HW146835   0.797   2.288   3.574
11652SOL    HW246836   0.844   2.147   3.601
11653SOL     OW46837   2.411   0.218   0.529
11653SOL    HW146838   2.423   0.139   0.476
11653SOL    HW246839   2.354   0.191   0.601
11654SOL     OW46840   3.821   2.870   5.023
11654SOL    HW146841   3.866   2.836   5.100
11654SOL    HW246842   3.883   2.930   4.983
11655SOL     OW46843   2.380   1.020   4.444
11655SOL    HW146844   2.365   1.106   4.484
11655SOL    HW246845   2.468   0.995   4.472
11656SOL     OW46846   3.216   3.297   7.115
11656SOL    HW146847   3.181   3.209   7.105
11656SOL    HW246848   3.173   3.331   7.194
11657SOL     OW46849   3.493   1.296  16.308
11657SOL    HW146850   3.429   1.366  16.295
11657SOL    HW246851   3.561   1.315  16.244
11658SOL     OW46852   3.297   0.496  17.985
11658SOL    HW146853   3.245   0.561  17.939
11658SOL    HW246854   3.322   0.432  17.918
11659SOL     OW46855   0.842   0.684  13.444
11659SOL    HW146856   0.799   0.754  13.493
11659SOL    HW246857   0.779   0.612  13.445
11660SOL     OW46858   3.688   0.562   0.002
11660SOL    HW146859   3.657   0.525   0.085
11660SOL    HW246860   3.745   0.495  21.229
11661SOL     OW46861   3.497   1.846   2.148
11661SOL    HW146862   3.551   1.874   2.075
11661SOL    HW246863   3.485   1.924   2.202
11662SOL     OW46864   2.354   2.531   0.999
11662SOL    HW146865   2.425   2.586   0.966
11662SOL    HW246866   2.315   2.582   1.070
11663SOL     OW46867   2.912   1.906   2.406
11663SOL    HW146868   2.958   1.938   2.328
11663SOL    HW246869   2.820   1.927   2.389
11664SOL     OW46870   1.646   4.636   0.156
11664SOL    HW146871   1.718   4.669   0.103
11664SOL    HW246872   1.688   4.588   0.227
11665SOL     OW46873   3.992   2.140   5.872
11665SOL    HW146874   3.938   2.145   5.792
11665SOL    HW246875   3.962   2.061   5.915
11666SOL     OW46876   2.959   2.771  17.252
11666SOL    HW146877   3.049   2.786  17.281
11666SOL    HW246878   2.906   2.787  17.330
11667SOL     OW46879   1.750   0.152   0.340
11667SOL    HW146880   1.679   0.184   0.284
11667SOL    HW246881   1.726   0.061   0.361
11668SOL     OW46882   4.581   1.214   4.086
11668SOL    HW146883   4.553   1.306   4.085
11668SOL    HW246884   4.500   1.164   4.094
11669SOL     OW46885   0.223   2.997  17.099
11669SOL    HW146886   0.216   3.077  17.048
11669SOL    HW246887   0.232   2.927  17.034
11670SOL     OW46888   0.610   3.681   6.409
11670SOL    HW146889   0.638   3.597   6.444
11670SOL    HW246890   0.651   3.746   6.466
11671SOL     OW46891   0.567   2.431   2.196
11671SOL    HW146892   0.523   2.508   2.234
11671SOL    HW246893   0.558   2.363   2.264
11672SOL     OW46894   4.499   1.402   0.253
11672SOL    HW146895   4.514   1.391   0.346
11672SOL    HW246896   4.432   1.470   0.247
11673SOL     OW46897   0.317   4.271  15.029
11673SOL    HW146898   0.306   4.249  14.937
11673SOL    HW246899   0.370   4.351  15.028
11674SOL     OW46900   2.202   2.011   5.126
11674SOL    HW146901   2.256   2.014   5.205
11674SOL    HW246902   2.166   2.099   5.117
11675SOL     OW46903   2.311   0.655  16.612
11675SOL    HW146904   2.391   0.662  16.663
11675SOL    HW246905   2.296   0.744  16.579
11676SOL     OW46906   0.770   2.694  16.817
11676SOL    HW146907   0.801   2.754  16.885
11676SOL    HW246908   0.846   2.641  16.795
11677SOL     OW46909   4.101   1.636   6.370
11677SOL    HW146910   4.193   1.646   6.395
11677SOL    HW246911   4.054   1.631   6.454
11678SOL     OW46912   1.558   4.611   5.359
11678SOL    HW146913   1.542   4.704   5.373
11678SOL    HW246914   1.471   4.571   5.362
11679SOL     OW46915   1.261   0.280   0.195
11679SOL    HW146916   1.175   0.239   0.190
11679SOL    HW246917   1.252   0.361   0.145
11680SOL     OW46918   2.555   3.189   8.762
11680SOL    HW146919   2.538   3.113   8.707
11680SOL    HW246920   2.627   3.162   8.819
11681SOL     OW46921   3.902   2.083  21.118
11681SOL    HW146922   3.874   2.036  21.039
11681SOL    HW246923   3.987   2.120  21.095
11682SOL     OW46924   4.353   3.145  17.035
11682SOL    HW146925   4.391   3.081  17.095
11682SOL    HW246926   4.309   3.092  16.968
11683SOL     OW46927   4.615   0.201  18.274
11683SOL    HW146928   4.622   0.294  18.296
11683SOL    HW246929   4.610   0.199  18.178
11684SOL     OW46930   3.454   2.254  16.165
11684SOL    HW146931   3.467   2.207  16.247
11684SOL    HW246932   3.537   2.242  16.117
11685SOL     OW46933   4.302   1.129  19.476
11685SOL    HW146934   4.302   1.052  19.419
11685SOL    HW246935   4.261   1.197  19.423
11686SOL     OW46936   4.127   3.293  17.131
11686SOL    HW146937   4.185   3.276  17.056
11686SOL    HW246938   4.144   3.221  17.191
11687SOL     OW46939   3.238   3.635   6.423
11687SOL    HW146940   3.277   3.550   6.402
11687SOL    HW246941   3.170   3.616   6.488
11688SOL     OW46942   1.046   0.761   1.938
11688SOL    HW146943   0.982   0.812   1.986
11688SOL    HW246944   1.131   0.790   1.972
11689SOL     OW46945   3.266   0.281   0.675
11689SOL    HW146946   3.296   0.363   0.637
11689SOL    HW246947   3.171   0.281   0.659
11690SOL     OW46948   3.599   1.481   3.121
11690SOL    HW146949   3.605   1.521   3.034
11690SOL    HW246950   3.690   1.467   3.147
11691SOL     OW46951   1.345   2.121  14.643
11691SOL    HW146952   1.342   2.086  14.732
11691SOL    HW246953   1.332   2.215  14.654
11692SOL     OW46954   4.183   0.283   5.984
11692SOL    HW146955   4.105   0.271   6.039
11692SOL    HW246956   4.160   0.242   5.901
11693SOL     OW46957   3.719   2.621  13.391
11693SOL    HW146958   3.678   2.589  13.471
11693SOL    HW246959   3.657   2.597  13.322
11694SOL     OW46960   4.728   1.978   4.738
11694SOL    HW146961   4.720   1.984   4.833
11694SOL    HW246962   4.717   1.884   4.719
11695SOL     OW46963   3.248   3.139  17.411
11695SOL    HW146964   3.198   3.137  17.329
11695SOL    HW246965   3.282   3.229  17.416
11696SOL     OW46966   2.418   0.696   0.444
11696SOL    HW146967   2.351   0.649   0.494
11696SOL    HW246968   2.369   0.762   0.394
11697SOL     OW46969   0.217   1.816  15.343
11697SOL    HW146970   0.267   1.805  15.424
11697SOL    HW246971   0.175   1.901  15.353
11698SOL     OW46972   4.625   4.228   4.899
11698SOL    HW146973   4.637   4.323   4.910
11698SOL    HW246974   4.706   4.198   4.858
11699SOL     OW46975   3.560   1.186  19.707
11699SOL    HW146976   3.517   1.102  19.689
11699SOL    HW246977   3.540   1.240  19.631
11700SOL     OW46978   1.441   3.695  12.840
11700SOL    HW146979   1.413   3.626  12.780
11700SOL    HW246980   1.480   3.649  12.914
11701SOL     OW46981   3.032   0.019  18.722
11701SOL    HW146982   3.074   4.738  18.770
11701SOL    HW246983   2.940   0.011  18.745
11702SOL     OW46984   1.784   2.956  15.604
11702SOL    HW146985   1.793   2.979  15.511
11702SOL    HW246986   1.703   2.905  15.608
11703SOL     OW46987   4.026   4.619  20.323
11703SOL    HW146988   4.119   4.640  20.334
11703SOL    HW246989   3.994   4.683  20.258
11704SOL     OW46990   0.419   0.882   0.123
11704SOL    HW146991   0.433   0.788   0.112
11704SOL    HW246992   0.503   0.922   0.100
11705SOL     OW46993   1.154   2.097   3.463
11705SOL    HW146994   1.140   2.183   3.503
11705SOL    HW246995   1.248   2.092   3.450
11706SOL     OW46996   0.268   1.029  20.763
11706SOL    HW146997   0.348   1.081  20.773
11706SOL    HW246998   0.300   0.940  20.747
11707SOL     OW46999   3.617   3.481   2.487
11707SOL    HW147000   3.596   3.431   2.409
11707SOL    HW247001   3.533   3.515   2.518
11708SOL     OW47002   2.521   1.063  21.046
11708SOL    HW147003   2.471   1.005  20.990
11708SOL    HW247004   2.603   1.017  21.062
11709SOL     OW47005   4.724   3.644  19.136
11709SOL    HW147006   4.667   3.710  19.096
11709SOL    HW247007   0.014   3.692  19.156
11710SOL     OW47008   2.421   3.510  15.903
11710SOL    HW147009   2.400   3.476  15.816
11710SOL    HW247010   2.391   3.601  15.902
11711SOL     OW47011   3.502   0.612  18.848
11711SOL    HW147012   3.413   0.583  18.863
11711SOL    HW247013   3.497   0.708  18.850
11712SOL     OW47014   1.682   4.734   3.702
11712SOL    HW147015   1.703   4.750   3.610
11712SOL    HW247016   1.625   4.656   3.701
11713SOL     OW47017   1.081   4.191   4.254
11713SOL    HW147018   1.047   4.115   4.208
11713SOL    HW247019   1.094   4.161   4.344
11714SOL     OW47020   1.996   1.407   4.329
11714SOL    HW147021   1.945   1.327   4.322
11714SOL    HW247022   1.977   1.440   4.417
11715SOL     OW47023   0.654   0.021   6.204
11715SOL    HW147024   0.587   4.744   6.200
11715SOL    HW247025   0.642   0.071   6.123
11716SOL     OW47026   1.957   2.787  19.158
11716SOL    HW147027   1.965   2.852  19.089
11716SOL    HW247028   1.886   2.730  19.129
11717SOL     OW47029   4.752   4.438   7.055
11717SOL    HW147030   4.750   4.498   7.130
11717SOL    HW247031   0.053   4.433   7.031
11718SOL     OW47032   1.494   1.055  19.985
11718SOL    HW147033   1.531   1.129  20.034
11718SOL    HW247034   1.473   1.091  19.899
11719SOL     OW47035   3.858   1.508   3.188
11719SOL    HW147036   3.939   1.557   3.195
11719SOL    HW247037   3.872   1.431   3.243
11720SOL     OW47038   3.474   0.167  15.770
11720SOL    HW147039   3.538   0.103  15.741
11720SOL    HW247040   3.509   0.251  15.740
11721SOL     OW47041   3.815   2.658  19.047
11721SOL    HW147042   3.888   2.600  19.069
11721SOL    HW247043   3.799   2.708  19.128
11722SOL     OW47044   1.103   1.131  20.733
11722SOL    HW147045   1.152   1.054  20.705
11722SOL    HW247046   1.164   1.179  20.788
11723SOL     OW47047   1.616   4.300  16.218
11723SOL    HW147048   1.682   4.366  16.196
11723SOL    HW247049   1.533   4.348  16.218
11724SOL     OW47050   3.459   2.327   5.612
11724SOL    HW147051   3.443   2.408   5.565
11724SOL    HW247052   3.539   2.292   5.575
11725SOL     OW47053   4.366   4.401  17.309
11725SOL    HW147054   4.412   4.383  17.391
11725SOL    HW247055   4.313   4.322  17.294
11726SOL     OW47056   1.703   0.184   5.951
11726SOL    HW147057   1.728   0.106   5.900
11726SOL    HW247058   1.617   0.161   5.987
11727SOL     OW47059   0.080   3.396   8.034
11727SOL    HW147060   0.174   3.393   8.020
11727SOL    HW247061   0.052   3.304   8.029
11728SOL     OW47062   3.489   3.325   2.274
11728SOL    HW147063   3.435   3.273   2.333
11728SOL    HW247064   3.435   3.336   2.196
11729SOL     OW47065   3.930   3.014   7.158
11729SOL    HW147066   4.014   2.973   7.138
11729SOL    HW247067   3.953   3.087   7.216
11730SOL     OW47068   0.704   0.536   2.879
11730SOL    HW147069   0.710   0.455   2.830
11730SOL    HW247070   0.724   0.512   2.969
11731SOL     OW47071   2.448   4.519   6.881
11731SOL    HW147072   2.496   4.576   6.941
11731SOL    HW247073   2.362   4.508   6.923
11732SOL     OW47074   3.615   2.142   0.762
11732SOL    HW147075   3.643   2.135   0.853
11732SOL    HW247076   3.687   2.189   0.719
11733SOL     OW47077   2.069   4.769  19.534
11733SOL    HW147078   2.083   0.055  19.590
11733SOL    HW247079   2.112   0.001  19.452
11734SOL     OW47080   3.488   4.091   7.527
11734SOL    HW147081   3.483   4.170   7.472
11734SOL    HW247082   3.581   4.083   7.548
11735SOL     OW47083   2.943   0.905   5.698
11735SOL    HW147084   2.958   0.831   5.757
11735SOL    HW247085   2.954   0.982   5.753
11736SOL     OW47086   4.480   3.749   0.982
11736SOL    HW147087   4.562   3.711   0.950
11736SOL    HW247088   4.465   3.825   0.925
11737SOL     OW47089   2.242   3.522  17.856
11737SOL    HW147090   2.165   3.555  17.903
11737SOL    HW247091   2.207   3.490  17.773
11738SOL     OW47092   1.795   2.491   1.137
11738SOL    HW147093   1.886   2.490   1.108
11738SOL    HW247094   1.801   2.498   1.233
11739SOL     OW47095   0.341   2.155   3.235
11739SOL    HW147096   0.347   2.072   3.187
11739SOL    HW247097   0.413   2.151   3.299
11740SOL     OW47098   1.860   1.401   0.397
11740SOL    HW147099   1.846   1.425   0.489
11740SOL    HW247100   1.954   1.392   0.388
11741SOL     OW47101   1.358   3.213   5.335
11741SOL    HW147102   1.282   3.156   5.327
11741SOL    HW247103   1.380   3.238   5.245
11742SOL     OW47104   1.437   4.587  19.261
11742SOL    HW147105   1.462   4.669  19.304
11742SOL    HW247106   1.346   4.600  19.235
11743SOL     OW47107   4.299   4.647   7.040
11743SOL    HW147108   4.326   4.593   7.114
11743SOL    HW247109   4.207   4.668   7.058
11744SOL     OW47110   4.312   3.898   2.767
11744SOL    HW147111   4.232   3.869   2.725
11744SOL    HW247112   4.327   3.986   2.732
11745SOL     OW47113   1.343   2.067  19.995
11745SOL    HW147114   1.365   2.027  19.911
11745SOL    HW247115   1.260   2.027  20.020
11746SOL     OW47116   2.361   3.148   3.054
11746SOL    HW147117   2.395   3.233   3.028
11746SOL    HW247118   2.396   3.087   2.988
11747SOL     OW47119   4.790   1.621  20.201
11747SOL    HW147120   4.723   1.662  20.146
11747SOL    HW247121   0.073   1.606  20.142
11748SOL     OW47122   3.877   3.264  19.171
11748SOL    HW147123   3.851   3.351  19.201
11748SOL    HW247124   3.972   3.269  19.161
11749SOL     OW47125   3.674   1.952   5.264
11749SOL    HW147126   3.736   1.896   5.218
11749SOL    HW247127   3.713   2.039   5.261
11750SOL     OW47128   0.952   1.997  13.949
11750SOL    HW147129   1.048   1.997  13.948
11750SOL    HW247130   0.928   1.906  13.964
11751SOL     OW47131   3.945   2.100  20.275
11751SOL    HW147132   3.909   2.036  20.213
11751SOL    HW247133   3.869   2.136  20.320
11752SOL     OW47134   3.298   1.712   0.937
11752SOL    HW147135   3.332   1.751   0.856
11752SOL    HW247136   3.301   1.617   0.920
11753SOL     OW47137   4.582   1.131   1.517
11753SOL    HW147138   4.623   1.218   1.517
11753SOL    HW247139   4.526   1.131   1.439
11754SOL     OW47140   4.327   1.563   3.401
11754SOL    HW147141   4.335   1.468   3.391
11754SOL    HW247142   4.378   1.599   3.328
11755SOL     OW47143   4.094   1.351  20.976
11755SOL    HW147144   4.174   1.388  20.940
11755SOL    HW247145   4.117   1.261  21.000
11756SOL     OW47146   0.387   4.560  20.256
11756SOL    HW147147   0.444   4.567  20.332
11756SOL    HW247148   0.363   4.468  20.252
11757SOL     OW47149   0.457   3.990  18.007
11757SOL    HW147150   0.402   4.068  18.017
11757SOL    HW247151   0.406   3.920  18.047
11758SOL     OW47152   3.478   1.240   1.632
11758SOL    HW147153   3.518   1.313   1.680
11758SOL    HW247154   3.544   1.215   1.568
11759SOL     OW47155   4.215   0.591   6.853
11759SOL    HW147156   4.212   0.684   6.830
11759SOL    HW247157   4.130   0.573   6.893
11760SOL     OW47158   4.761   1.621   2.554
11760SOL    HW147159   4.745   1.527   2.563
11760SOL    HW247160   4.675   1.661   2.567
11761SOL     OW47161   2.338   3.758   0.384
11761SOL    HW147162   2.308   3.779   0.472
11761SOL    HW247163   2.315   3.665   0.373
11762SOL     OW47164   3.149   0.682   0.156
11762SOL    HW147165   3.243   0.680   0.134
11762SOL    HW247166   3.118   0.765   0.118
11763SOL     OW47167   2.462   2.949   1.006
11763SOL    HW147168   2.528   2.996   1.058
11763SOL    HW247169   2.454   2.864   1.049
11764SOL     OW47170   4.718   4.748   3.128
11764SOL    HW147171   4.766   4.776   3.050
11764SOL    HW247172   4.641   0.014   3.131
11765SOL     OW47173   3.137   3.411   6.848
11765SOL    HW147174   3.160   3.369   6.931
11765SOL    HW247175   3.218   3.410   6.797
11766SOL     OW47176   4.528   0.063   5.930
11766SOL    HW147177   4.531   4.759   5.936
11766SOL    HW247178   4.472   0.080   5.854
11767SOL     OW47179   4.085   3.711   0.899
11767SOL    HW147180   4.160   3.667   0.859
11767SOL    HW247181   4.078   3.794   0.852
11768SOL     OW47182   1.037   3.427   3.401
11768SOL    HW147183   0.990   3.353   3.363
11768SOL    HW247184   1.128   3.414   3.374
11769SOL     OW47185   2.494   4.467  20.288
11769SOL    HW147186   2.466   4.541  20.341
11769SOL    HW247187   2.529   4.404  20.352
11770SOL     OW47188   2.060   0.348  18.382
11770SOL    HW147189   2.027   0.298  18.457
11770SOL    HW247190   1.986   0.356  18.323
11771SOL     OW47191   0.347   2.794   5.887
11771SOL    HW147192   0.380   2.705   5.898
11771SOL    HW247193   0.252   2.784   5.884
11772SOL     OW47194   1.523   4.184   3.992
11772SOL    HW147195   1.459   4.191   4.063
11772SOL    HW247196   1.475   4.141   3.921
11773SOL     OW47197   3.665   1.254  16.087
11773SOL    HW147198   3.626   1.332  16.048
11773SOL    HW247199   3.626   1.180  16.041
11774SOL     OW47200   2.442   4.208  13.587
11774SOL    HW147201   2.414   4.122  13.558
11774SOL    HW247202   2.526   4.193  13.632
11775SOL     OW47203   0.599   2.557   5.030
11775SOL    HW147204   0.645   2.552   4.946
11775SOL    HW247205   0.656   2.509   5.091
11776SOL     OW47206   3.656   2.764   2.779
11776SOL    HW147207   3.588   2.698   2.765
11776SOL    HW247208   3.636   2.833   2.716
11777SOL     OW47209   4.447   2.392  17.075
11777SOL    HW147210   4.493   2.464  17.032
11777SOL    HW247211   4.492   2.313  17.044
11778SOL     OW47212   3.864   1.007   1.502
11778SOL    HW147213   3.852   0.942   1.432
11778SOL    HW247214   3.779   1.052   1.507
11779SOL     OW47215   1.298   0.864   1.489
11779SOL    HW147216   1.211   0.902   1.498
11779SOL    HW247217   1.338   0.873   1.576
11780SOL     OW47218   4.436   3.696   7.262
11780SOL    HW147219   4.414   3.638   7.189
11780SOL    HW247220   4.358   3.751   7.273
11781SOL     OW47221   1.805   4.405  17.606
11781SOL    HW147222   1.711   4.417  17.623
11781SOL    HW247223   1.808   4.345  17.532
11782SOL     OW47224   1.818   1.402  21.063
11782SOL    HW147225   1.875   1.382  20.988
11782SOL    HW247226   1.820   1.498  21.070
11783SOL     OW47227   2.316   2.369  15.888
11783SOL    HW147228   2.354   2.444  15.934
11783SOL    HW247229   2.229   2.399  15.862
11784SOL     OW47230   3.057   3.157   2.273
11784SOL    HW147231   3.003   3.108   2.212
11784SOL    HW247232   3.023   3.247   2.268
11785SOL     OW47233   0.359   3.959  20.590
11785SOL    HW147234   0.431   3.970  20.653
11785SOL    HW247235   0.322   4.047  20.581
11786SOL     OW47236   4.677   0.394   4.225
11786SOL    HW147237   4.634   0.474   4.197
11786SOL    HW247238   4.733   0.369   4.152
11787SOL     OW47239   2.010   3.964  16.516
11787SOL    HW147240   2.101   3.947  16.540
11787SOL    HW247241   2.005   4.059  16.505
11788SOL     OW47242   2.144   1.742   2.224
11788SOL    HW147243   2.067   1.760   2.169
11788SOL    HW247244   2.108   1.731   2.312
11789SOL     OW47245   2.976   0.094   1.163
11789SOL    HW147246   2.882   0.086   1.143
11789SOL    HW247247   3.018   0.025   1.111
11790SOL     OW47248   3.327   4.131  20.618
11790SOL    HW147249   3.303   4.079  20.694
11790SOL    HW247250   3.419   4.153  20.632
11791SOL     OW47251   3.239   4.475   9.072
11791SOL    HW147252   3.257   4.532   8.998
11791SOL    HW247253   3.197   4.532   9.137
11792SOL     OW47254   3.024   4.221   8.293
11792SOL    HW147255   3.079   4.299   8.284
11792SOL    HW247256   2.969   4.221   8.215
11793SOL     OW47257   0.134   2.744   4.725
11793SOL    HW147258   0.198   2.673   4.720
11793SOL    HW247259   0.102   2.741   4.815
11794SOL     OW47260   4.490   3.151   1.705
11794SOL    HW147261   4.557   3.083   1.706
11794SOL    HW247262   4.442   3.136   1.624
11795SOL     OW47263   2.752   0.533   7.598
11795SOL    HW147264   2.669   0.487   7.587
11795SOL    HW247265   2.783   0.507   7.685
11796SOL     OW47266   0.339   2.280  15.875
11796SOL    HW147267   0.303   2.274  15.963
11796SOL    HW247268   0.358   2.373  15.863
11797SOL     OW47269   0.762   4.489   9.098
11797SOL    HW147270   0.743   4.538   9.018
11797SOL    HW247271   0.686   4.433   9.111
11798SOL     OW47272   1.077   4.495   9.031
11798SOL    HW147273   1.133   4.567   9.059
11798SOL    HW247274   0.988   4.532   9.034
11799SOL     OW47275   3.824   0.683  10.351
11799SOL    HW147276   3.870   0.600  10.359
11799SOL    HW247277   3.859   0.737  10.422
11800SOL     OW47278   1.937   0.472  10.408
11800SOL    HW147279   1.961   0.559  10.441
11800SOL    HW247280   1.859   0.488  10.355
11801SOL     OW47281   2.743   0.690  10.453
11801SOL    HW147282   2.660   0.643  10.442
11801SOL    HW247283   2.774   0.705  10.364
11802SOL     OW47284   1.969   0.747  10.505
11802SOL    HW147285   1.927   0.737  10.590
11802SOL    HW247286   2.048   0.798  10.524
11803SOL     OW47287   3.016   0.047  10.498
11803SOL    HW147288   2.981   0.064  10.585
11803SOL    HW247289   2.938   0.036  10.443
11804SOL     OW47290   2.340   0.613  11.105
11804SOL    HW147291   2.301   0.618  11.018
11804SOL    HW247292   2.431   0.589  11.090
11805SOL     OW47293   3.278   0.516  12.061
11805SOL    HW147294   3.259   0.448  11.996
11805SOL    HW247295   3.352   0.481  12.111
11806SOL     OW47296   1.916   0.557  11.620
11806SOL    HW147297   1.932   0.651  11.627
11806SOL    HW247298   1.943   0.535  11.531
11807SOL     OW47299   2.903   1.306  12.182
11807SOL    HW147300   2.907   1.362  12.259
11807SOL    HW247301   2.992   1.272  12.172
11808SOL     OW47302   2.167   2.024  12.782
11808SOL    HW147303   2.152   2.119  12.786
11808SOL    HW247304   2.084   1.989  12.751
11809SOL     OW47305   3.860   0.773  13.000
11809SOL    HW147306   3.891   0.835  13.066
11809SOL    HW247307   3.765   0.772  13.012
11810SOL     OW47308   3.530   0.199   9.739
11810SOL    HW147309   3.440   0.171   9.758
11810SOL    HW247310   3.571   0.205   9.825
11811SOL     OW47311   2.891   0.497  13.189
11811SOL    HW147312   2.956   0.552  13.146
11811SOL    HW247313   2.822   0.558  13.217
11812SOL     OW47314   1.943   0.118  11.951
11812SOL    HW147315   1.957   0.054  12.022
11812SOL    HW247316   2.020   0.108  11.895
11813SOL     OW47317   0.672   0.050  12.195
11813SOL    HW147318   0.663   4.746  12.200
11813SOL    HW247319   0.762   0.065  12.167
11814SOL     OW47320   1.420   1.156  11.965
11814SOL    HW147321   1.439   1.241  12.006
11814SOL    HW247322   1.507   1.119  11.948
11815SOL     OW47323   0.066   3.173   3.225
11815SOL    HW147324   0.150   3.165   3.270
11815SOL    HW247325   0.076   3.120   3.146
11816SOL     OW47326   2.921   3.362  15.322
11816SOL    HW147327   2.982   3.331  15.390
11816SOL    HW247328   2.916   3.456  15.336
11817SOL     OW47329   1.961   2.479   4.511
11817SOL    HW147330   2.012   2.403   4.540
11817SOL    HW247331   1.870   2.449   4.514
11818SOL     OW47332   0.032   4.310   0.106
11818SOL    HW147333   0.058   4.240   0.046
11818SOL    HW247334   0.115   4.347   0.136
11819SOL     OW47335   0.984   3.347   0.181
11819SOL    HW147336   1.037   3.400   0.122
11819SOL    HW247337   0.954   3.409   0.248
11820SOL     OW47338   1.679   1.866  19.673
11820SOL    HW147339   1.669   1.776  19.703
11820SOL    HW247340   1.773   1.884  19.680
11821SOL     OW47341   3.221   0.850   4.316
11821SOL    HW147342   3.198   0.793   4.243
11821SOL    HW247343   3.215   0.939   4.279
11822SOL     OW47344   3.257   4.587   3.657
11822SOL    HW147345   3.213   4.509   3.625
11822SOL    HW247346   3.191   4.656   3.653
11823SOL     OW47347   0.355   0.077  10.931
11823SOL    HW147348   0.446   0.065  10.958
11823SOL    HW247349   0.355   0.057  10.837
11824SOL     OW47350   4.078   1.042  13.770
11824SOL    HW147351   4.062   1.046  13.676
11824SOL    HW247352   4.082   0.948  13.790
11825SOL     OW47353   0.990   4.286  16.585
11825SOL    HW147354   0.965   4.364  16.535
11825SOL    HW247355   1.024   4.225  16.519
11826SOL     OW47356   3.418   0.155   2.810
11826SOL    HW147357   3.417   0.242   2.851
11826SOL    HW247358   3.362   0.102   2.866
11827SOL     OW47359   1.641   4.637   0.813
11827SOL    HW147360   1.592   4.600   0.886
11827SOL    HW247361   1.714   4.684   0.855
11828SOL     OW47362   4.175   3.691   1.784
11828SOL    HW147363   4.099   3.688   1.842
11828SOL    HW247364   4.147   3.745   1.711
11829SOL     OW47365   3.698   0.034  15.675
11829SOL    HW147366   3.701   0.104  15.610
11829SOL    HW247367   3.679   4.746  15.625
11830SOL     OW47368   0.794   2.664   2.003
11830SOL    HW147369   0.851   2.727   1.959
11830SOL    HW247370   0.796   2.692   2.095
11831SOL     OW47371   3.710   2.954   2.338
11831SOL    HW147372   3.686   2.943   2.429
11831SOL    HW247373   3.787   2.898   2.326
11832SOL     OW47374   1.106   2.008  15.977
11832SOL    HW147375   1.050   1.941  15.938
11832SOL    HW247376   1.079   2.011  16.069
11833SOL     OW47377   0.453   3.384  16.742
11833SOL    HW147378   0.468   3.362  16.650
11833SOL    HW247379   0.540   3.403  16.777
11834SOL     OW47380   3.228   4.682   2.775
11834SOL    HW147381   3.160   4.745   2.801
11834SOL    HW247382   3.198   4.648   2.691
11835SOL     OW47383   3.008   0.942   0.091
11835SOL    HW147384   2.914   0.929   0.075
11835SOL    HW247385   3.030   1.019   0.038
11836SOL     OW47386   4.080   0.038   4.540
11836SOL    HW147387   4.062   0.132   4.540
11836SOL    HW247388   3.999   4.789   4.508
11837SOL     OW47389   3.936   2.293   5.586
11837SOL    HW147390   3.990   2.337   5.652
11837SOL    HW247391   3.883   2.363   5.549
11838SOL     OW47392   1.444   0.959  17.804
11838SOL    HW147393   1.394   1.037  17.781
11838SOL    HW247394   1.525   0.967  17.754
11839SOL     OW47395   4.171   1.899  16.038
11839SOL    HW147396   4.155   1.993  16.051
11839SOL    HW247397   4.208   1.893  15.950
11840SOL     OW47398   3.830   3.561  14.141
11840SOL    HW147399   3.791   3.487  14.189
11840SOL    HW247400   3.810   3.543  14.049
11841SOL     OW47401   4.511   0.088   6.795
11841SOL    HW147402   4.540   0.154   6.732
11841SOL    HW247403   4.497   0.009   6.742
11842SOL     OW47404   1.646   3.622  18.989
11842SOL    HW147405   1.712   3.607  19.058
11842SOL    HW247406   1.697   3.646  18.912
11843SOL     OW47407   2.205   0.072  20.863
11843SOL    HW147408   2.136   0.007  20.874
11843SOL    HW247409   2.286   0.021  20.864
11844SOL     OW47410   1.580   1.578  19.608
11844SOL    HW147411   1.547   1.513  19.546
11844SOL    HW247412   1.660   1.539  19.643
11845SOL     OW47413   3.787   0.484   5.096
11845SOL    HW147414   3.740   0.401   5.096
11845SOL    HW247415   3.726   0.547   5.058
11846SOL     OW47416   4.221   3.280  15.862
11846SOL    HW147417   4.175   3.358  15.831
11846SOL    HW247418   4.242   3.231  15.782
11847SOL     OW47419   3.554   0.087   0.534
11847SOL    HW147420   3.596   0.001   0.532
11847SOL    HW247421   3.611   0.143   0.482
11848SOL     OW47422   0.907   1.673  19.681
11848SOL    HW147423   0.964   1.678  19.604
11848SOL    HW247424   0.827   1.719  19.655
11849SOL     OW47425   1.080   1.971  16.992
11849SOL    HW147426   1.109   2.037  16.929
11849SOL    HW247427   1.026   2.020  17.054
11850SOL     OW47428   0.139   0.334  17.181
11850SOL    HW147429   0.120   0.425  17.203
11850SOL    HW247430   0.075   0.284  17.231
11851SOL     OW47431   2.046   1.677  18.992
11851SOL    HW147432   1.981   1.626  18.944
11851SOL    HW247433   2.130   1.639  18.967
11852SOL     OW47434   1.428   4.093   1.122
11852SOL    HW147435   1.368   4.122   1.053
11852SOL    HW247436   1.494   4.162   1.127
11853SOL     OW47437   2.573   3.902  12.599
11853SOL    HW147438   2.615   3.824  12.634
11853SOL    HW247439   2.484   3.900  12.635
11854SOL     OW47440   0.179   1.887  16.871
11854SOL    HW147441   0.239   1.828  16.917
11854SOL    HW247442   0.110   1.905  16.936
11855SOL     OW47443   2.854   0.128   0.301
11855SOL    HW147444   2.946   0.102   0.301
11855SOL    HW247445   2.824   0.109   0.390
11856SOL     OW47446   1.972   1.017  20.739
11856SOL    HW147447   2.042   0.953  20.728
11856SOL    HW247448   1.916   0.979  20.807
11857SOL     OW47449   4.296   4.419   3.592
11857SOL    HW147450   4.322   4.378   3.674
11857SOL    HW247451   4.258   4.503   3.618
11858SOL     OW47452   3.998   1.887  19.054
11858SOL    HW147453   4.062   1.874  19.125
11858SOL    HW247454   3.954   1.969  19.076
11859SOL     OW47455   2.328   0.147  20.442
11859SOL    HW147456   2.285   0.165  20.358
11859SOL    HW247457   2.420   0.164  20.426
11860SOL     OW47458   0.104   0.829  20.881
11860SOL    HW147459   0.041   0.847  20.950
11860SOL    HW247460   0.147   0.913  20.866
11861SOL     OW47461   2.996   2.455   5.768
11861SOL    HW147462   3.079   2.496   5.791
11861SOL    HW247463   2.934   2.527   5.762
11862SOL     OW47464   3.048   3.992  19.238
11862SOL    HW147465   2.963   4.007  19.278
11862SOL    HW247466   3.110   4.038  19.295
11863SOL     OW47467   2.985   4.537   3.855
11863SOL    HW147468   2.893   4.513   3.861
11863SOL    HW247469   3.032   4.459   3.887
11864SOL     OW47470   2.048   1.863  18.725
11864SOL    HW147471   2.141   1.855  18.745
11864SOL    HW247472   2.007   1.886  18.809
11865SOL     OW47473   3.498   3.362  20.958
11865SOL    HW147474   3.410   3.333  20.982
11865SOL    HW247475   3.484   3.418  20.882
11866SOL     OW47476   1.050   3.018   4.882
11866SOL    HW147477   1.040   2.960   4.806
11866SOL    HW247478   1.118   2.976   4.935
11867SOL     OW47479   2.143   3.527   6.049
11867SOL    HW147480   2.105   3.458   5.995
11867SOL    HW247481   2.069   3.584   6.071
11868SOL     OW47482   3.148   1.254  19.468
11868SOL    HW147483   3.140   1.169  19.424
11868SOL    HW247484   3.240   1.278  19.457
11869SOL     OW47485   4.229   3.434   5.592
11869SOL    HW147486   4.186   3.483   5.662
11869SOL    HW247487   4.242   3.346   5.629
11870SOL     OW47488   1.620   0.701  17.857
11870SOL    HW147489   1.533   0.677  17.824
11870SOL    HW247490   1.610   0.699  17.953
11871SOL     OW47491   4.181   3.130   4.621
11871SOL    HW147492   4.087   3.111   4.620
11871SOL    HW247493   4.212   3.101   4.535
11872SOL     OW47494   0.054   3.215   0.527
11872SOL    HW147495   0.011   3.212   0.441
11872SOL    HW247496   0.046   3.126   0.561
11873SOL     OW47497   3.096   3.269   1.524
11873SOL    HW147498   3.136   3.189   1.490
11873SOL    HW247499   3.146   3.288   1.603
11874SOL     OW47500   1.226   4.414   4.175
11874SOL    HW147501   1.190   4.330   4.203
11874SOL    HW247502   1.300   4.430   4.233
11875SOL     OW47503   3.914   3.262   8.918
11875SOL    HW147504   3.905   3.296   8.829
11875SOL    HW247505   3.881   3.172   8.913
11876SOL     OW47506   1.233   0.273  16.527
11876SOL    HW147507   1.183   0.252  16.606
11876SOL    HW247508   1.185   0.232  16.456
11877SOL     OW47509   0.659   3.925   7.294
11877SOL    HW147510   0.615   3.996   7.341
11877SOL    HW247511   0.604   3.848   7.311
11878SOL     OW47512   2.087   0.039  16.923
11878SOL    HW147513   2.105   0.056  16.830
11878SOL    HW247514   2.172   0.012  16.959
11879SOL     OW47515   1.724   0.300   0.601
11879SOL    HW147516   1.779   0.234   0.558
11879SOL    HW247517   1.779   0.334   0.672
11880SOL     OW47518   0.207   0.150   5.108
11880SOL    HW147519   0.157   0.200   5.173
11880SOL    HW247520   0.293   0.137   5.148
11881SOL     OW47521   1.183   4.163  19.509
11881SOL    HW147522   1.259   4.180  19.454
11881SOL    HW247523   1.116   4.130  19.449
11882SOL     OW47524   1.787   2.172   1.255
11882SOL    HW147525   1.829   2.229   1.191
11882SOL    HW247526   1.859   2.126   1.297
11883SOL     OW47527   0.200   3.057   1.995
11883SOL    HW147528   0.255   3.122   1.951
11883SOL    HW247529   0.113   3.096   1.995
11884SOL     OW47530   4.076   3.706   3.111
11884SOL    HW147531   4.101   3.762   3.037
11884SOL    HW247532   4.157   3.661   3.135
11885SOL     OW47533   0.351   1.517   5.006
11885SOL    HW147534   0.276   1.573   5.027
11885SOL    HW247535   0.312   1.443   4.958
11886SOL     OW47536   2.371   0.931   6.141
11886SOL    HW147537   2.347   1.018   6.173
11886SOL    HW247538   2.467   0.929   6.149
11887SOL     OW47539   2.489   1.894  19.277
11887SOL    HW147540   2.492   1.983  19.242
11887SOL    HW247541   2.404   1.860  19.249
11888SOL     OW47542   2.767   0.694   4.252
11888SOL    HW147543   2.762   0.645   4.169
11888SOL    HW247544   2.796   0.782   4.226
11889SOL     OW47545   3.095   4.242  20.534
11889SOL    HW147546   3.187   4.215  20.544
11889SOL    HW247547   3.058   4.231  20.621
11890SOL     OW47548   1.095   1.116  18.691
11890SOL    HW147549   1.029   1.179  18.664
11890SOL    HW247550   1.060   1.031  18.664
11891SOL     OW47551   0.214   1.527   6.160
11891SOL    HW147552   0.133   1.509   6.206
11891SOL    HW247553   0.219   1.459   6.093
11892SOL     OW47554   1.937   3.674   1.121
11892SOL    HW147555   1.891   3.716   1.048
11892SOL    HW247556   1.987   3.604   1.080
11893SOL     OW47557   1.779   3.333  16.979
11893SOL    HW147558   1.853   3.274  16.991
11893SOL    HW247559   1.764   3.335  16.885
11894SOL     OW47560   0.160   1.303  19.507
11894SOL    HW147561   0.091   1.362  19.537
11894SOL    HW247562   0.212   1.354  19.445
11895SOL     OW47563   4.703   1.902   3.696
11895SOL    HW147564   4.631   1.932   3.751
11895SOL    HW247565   4.674   1.921   3.606
11896SOL     OW47566   1.775   0.598   8.758
11896SOL    HW147567   1.701   0.646   8.721
11896SOL    HW247568   1.758   0.596   8.852
11897SOL     OW47569   4.289   2.430   5.316
11897SOL    HW147570   4.275   2.335   5.313
11897SOL    HW247571   4.370   2.441   5.365
11898SOL     OW47572   3.970   0.850  17.689
11898SOL    HW147573   3.928   0.786  17.632
11898SOL    HW247574   3.950   0.935  17.649
11899SOL     OW47575   3.319   4.357   1.342
11899SOL    HW147576   3.270   4.284   1.380
11899SOL    HW247577   3.278   4.435   1.379
11900SOL     OW47578   0.891   2.201  18.861
11900SOL    HW147579   0.799   2.176  18.854
11900SOL    HW247580   0.898   2.282  18.811
11901SOL     OW47581   4.568   1.232   3.100
11901SOL    HW147582   4.553   1.298   3.167
11901SOL    HW247583   4.654   1.196   3.121
11902SOL     OW47584   2.073   0.847  12.948
11902SOL    HW147585   2.038   0.933  12.925
11902SOL    HW247586   2.134   0.827  12.878
11903SOL     OW47587   4.235   0.069  18.802
11903SOL    HW147588   4.295   0.022  18.744
11903SOL    HW247589   4.275   0.156  18.812
11904SOL     OW47590   0.977   1.929   4.481
11904SOL    HW147591   0.944   1.894   4.564
11904SOL    HW247592   1.039   1.996   4.506
11905SOL     OW47593   4.108   1.844   5.609
11905SOL    HW147594   4.179   1.820   5.669
11905SOL    HW247595   4.126   1.792   5.530
11906SOL     OW47596   2.129   4.609  20.386
11906SOL    HW147597   2.048   4.653  20.412
11906SOL    HW247598   2.115   4.585  20.294
11907SOL     OW47599   0.843   1.470   1.783
11907SOL    HW147600   0.917   1.524   1.757
11907SOL    HW247601   0.810   1.510   1.863
11908SOL     OW47602   3.473   3.875   2.399
11908SOL    HW147603   3.533   3.945   2.375
11908SOL    HW247604   3.511   3.796   2.359
11909SOL     OW47605   0.461   2.045   5.660
11909SOL    HW147606   0.395   1.986   5.697
11909SOL    HW247607   0.528   1.987   5.624
11910SOL     OW47608   1.949   2.922   0.518
11910SOL    HW147609   1.980   3.009   0.542
11910SOL    HW247610   2.015   2.862   0.553
11911SOL     OW47611   4.500   2.052   2.000
11911SOL    HW147612   4.533   2.077   2.086
11911SOL    HW247613   4.408   2.029   2.015
11912SOL     OW47614   1.723   3.331  21.042
11912SOL    HW147615   1.799   3.381  21.072
11912SOL    HW247616   1.669   3.396  20.997
11913SOL     OW47617   4.612   0.267   1.949
11913SOL    HW147618   4.532   0.306   1.915
11913SOL    HW247619   4.682   0.322   1.914
11914SOL     OW47620   0.919   3.065   0.821
11914SOL    HW147621   0.855   3.091   0.887
11914SOL    HW247622   0.970   2.995   0.862
11915SOL     OW47623   1.802   0.177   6.233
11915SOL    HW147624   1.782   0.259   6.188
11915SOL    HW247625   1.863   0.203   6.302
11916SOL     OW47626   3.719   3.462  18.552
11916SOL    HW147627   3.728   3.371  18.580
11916SOL    HW247628   3.625   3.477  18.548
11917SOL     OW47629   2.872   3.232   0.309
11917SOL    HW147630   2.805   3.281   0.355
11917SOL    HW247631   2.906   3.293   0.243
11918SOL     OW47632   4.108   3.779  21.032
11918SOL    HW147633   4.035   3.731  21.070
11918SOL    HW247634   4.152   3.819  21.107
11919SOL     OW47635   0.589   3.567  13.707
11919SOL    HW147636   0.511   3.530  13.749
11919SOL    HW247637   0.582   3.661  13.720
11920SOL     OW47638   2.875   0.537   3.771
11920SOL    HW147639   2.887   0.485   3.692
11920SOL    HW247640   2.854   0.473   3.839
11921SOL     OW47641   1.715   1.660  21.200
11921SOL    HW147642   1.712   1.631   0.028
11921SOL    HW247643   1.729   1.754  21.204
11922SOL     OW47644   1.276   3.342  15.987
11922SOL    HW147645   1.220   3.280  16.033
11922SOL    HW247646   1.217   3.412  15.960
11923SOL     OW47647   0.045   1.296   0.751
11923SOL    HW147648   0.104   1.222   0.739
11923SOL    HW247649   0.020   1.322   0.662
11924SOL     OW47650   0.650   3.858   5.098
11924SOL    HW147651   0.652   3.886   5.007
11924SOL    HW247652   0.566   3.891   5.131
11925SOL     OW47653   2.771   4.447  19.229
11925SOL    HW147654   2.689   4.398  19.227
11925SOL    HW247655   2.834   4.390  19.185
11926SOL     OW47656   0.563   4.498   0.532
11926SOL    HW147657   0.595   4.513   0.443
11926SOL    HW247658   0.643   4.498   0.586
11927SOL     OW47659   4.696   4.638   7.593
11927SOL    HW147660   4.786   4.665   7.608
11927SOL    HW247661   4.674   4.582   7.668
11928SOL     OW47662   0.929   1.950  17.620
11928SOL    HW147663   0.865   2.014  17.654
11928SOL    HW247664   0.910   1.945  17.526
11929SOL     OW47665   3.108   1.298   2.567
11929SOL    HW147666   3.165   1.375   2.569
11929SOL    HW247667   3.165   1.227   2.537
11930SOL     OW47668   0.303   0.599  16.918
11930SOL    HW147669   0.351   0.673  16.880
11930SOL    HW247670   0.333   0.596  17.009
11931SOL     OW47671   3.405   1.484   4.184
11931SOL    HW147672   3.439   1.550   4.123
11931SOL    HW247673   3.351   1.426   4.131
11932SOL     OW47674   4.161   2.494  15.340
11932SOL    HW147675   4.107   2.557  15.291
11932SOL    HW247676   4.189   2.431  15.274
11933SOL     OW47677   2.737   3.821  18.841
11933SOL    HW147678   2.680   3.761  18.890
11933SOL    HW247679   2.824   3.780  18.846
11934SOL     OW47680   2.094   4.303  18.648
11934SOL    HW147681   2.008   4.322  18.612
11934SOL    HW247682   2.081   4.305  18.743
11935SOL     OW47683   2.937   3.873   1.845
11935SOL    HW147684   2.914   3.961   1.874
11935SOL    HW247685   2.877   3.855   1.773
11936SOL     OW47686   2.554   2.362  20.165
11936SOL    HW147687   2.608   2.289  20.133
11936SOL    HW247688   2.507   2.325  20.240
11937SOL     OW47689   3.910   3.603  21.077
11937SOL    HW147690   3.853   3.540  21.033
11937SOL    HW247691   3.979   3.550  21.116
11938SOL     OW47692   0.605   0.912  18.713
11938SOL    HW147693   0.532   0.852  18.701
11938SOL    HW247694   0.654   0.876  18.787
11939SOL     OW47695   1.049   4.128   5.225
11939SOL    HW147696   1.002   4.210   5.212
11939SOL    HW247697   0.985   4.069   5.263
11940SOL     OW47698   2.286   3.370  15.247
11940SOL    HW147699   2.205   3.344  15.292
11940SOL    HW247700   2.354   3.315  15.287
11941SOL     OW47701   2.029   3.224  20.536
11941SOL    HW147702   1.975   3.145  20.534
11941SOL    HW247703   2.119   3.192  20.538
11942SOL     OW47704   1.691   1.628   7.174
11942SOL    HW147705   1.621   1.693   7.176
11942SOL    HW247706   1.648   1.547   7.148
11943SOL     OW47707   3.241   1.199  19.813
11943SOL    HW147708   3.309   1.174  19.750
11943SOL    HW247709   3.276   1.278  19.855
11944SOL     OW47710   3.998   4.187  16.246
11944SOL    HW147711   3.932   4.161  16.311
11944SOL    HW247712   3.979   4.133  16.170
11945SOL     OW47713   0.485   2.566   4.360
11945SOL    HW147714   0.511   2.642   4.309
11945SOL    HW247715   0.535   2.574   4.442
11946SOL     OW47716   1.572   2.849   2.809
11946SOL    HW147717   1.563   2.920   2.746
11946SOL    HW247718   1.597   2.894   2.891
11947SOL     OW47719   1.532   0.650   4.201
11947SOL    HW147720   1.555   0.620   4.113
11947SOL    HW247721   1.616   0.652   4.248
11948SOL     OW47722   4.002   1.644   0.314
11948SOL    HW147723   3.976   1.732   0.286
11948SOL    HW247724   3.925   1.610   0.361
11949SOL     OW47725   4.166   1.823   4.226
11949SOL    HW147726   4.250   1.869   4.233
11949SOL    HW247727   4.137   1.840   4.137
11950SOL     OW47728   1.294   0.680   2.803
11950SOL    HW147729   1.356   0.624   2.851
11950SOL    HW247730   1.210   0.663   2.844
11951SOL     OW47731   2.988   1.724  18.736
11951SOL    HW147732   2.946   1.765  18.811
11951SOL    HW247733   2.964   1.632  18.742
11952SOL     OW47734   0.151   1.197  16.765
11952SOL    HW147735   0.137   1.288  16.739
11952SOL    HW247736   0.159   1.201  16.860
11953SOL     OW47737   0.101   3.997   3.486
11953SOL    HW147738   0.123   4.072   3.541
11953SOL    HW247739   0.009   4.011   3.462
11954SOL     OW47740   3.342   1.423  15.735
11954SOL    HW147741   3.345   1.494  15.800
11954SOL    HW247742   3.343   1.469  15.651
11955SOL     OW47743   1.966   2.504   9.007
11955SOL    HW147744   2.022   2.555   9.065
11955SOL    HW247745   2.007   2.512   8.921
11956SOL     OW47746   1.316   4.518   6.096
11956SOL    HW147747   1.305   4.426   6.120
11956SOL    HW247748   1.230   4.545   6.065
11957SOL     OW47749   0.322   0.819  20.499
11957SOL    HW147750   0.403   0.788  20.457
11957SOL    HW247751   0.255   0.758  20.468
11958SOL     OW47752   1.721   2.983   4.746
11958SOL    HW147753   1.757   3.021   4.826
11958SOL    HW247754   1.791   2.927   4.713
11959SOL     OW47755   3.464   3.112  15.940
11959SOL    HW147756   3.410   3.081  16.011
11959SOL    HW247757   3.403   3.156  15.881
11960SOL     OW47758   0.503   2.092  18.728
11960SOL    HW147759   0.558   2.132  18.661
11960SOL    HW247760   0.414   2.118  18.705
11961SOL     OW47761   1.971   4.649  20.888
11961SOL    HW147762   1.911   4.593  20.840
11961SOL    HW247763   1.922   4.730  20.902
11962SOL     OW47764   0.665   1.799  15.627
11962SOL    HW147765   0.704   1.749  15.556
11962SOL    HW247766   0.690   1.752  15.706
11963SOL     OW47767   4.182   0.802   3.641
11963SOL    HW147768   4.259   0.750   3.662
11963SOL    HW247769   4.124   0.791   3.717
11964SOL     OW47770   0.403   4.694  12.182
11964SOL    HW147771   0.378   4.758  12.115
11964SOL    HW247772   0.328   4.636  12.190
11965SOL     OW47773   2.093   3.964  17.312
11965SOL    HW147774   2.096   4.036  17.249
11965SOL    HW247775   2.079   4.006  17.397
11966SOL     OW47776   4.087   0.544   1.362
11966SOL    HW147777   4.069   0.637   1.355
11966SOL    HW247778   4.111   0.517   1.273
11967SOL     OW47779   3.028   4.454   7.490
11967SOL    HW147780   2.945   4.477   7.530
11967SOL    HW247781   3.017   4.476   7.398
11968SOL     OW47782   2.778   4.195   6.670
11968SOL    HW147783   2.820   4.194   6.755
11968SOL    HW247784   2.761   4.287   6.652
11969SOL     OW47785   1.008   0.336   2.100
11969SOL    HW147786   1.042   0.418   2.136
11969SOL    HW247787   1.085   0.292   2.063
11970SOL     OW47788   4.214   4.446   0.321
11970SOL    HW147789   4.288   4.507   0.312
11970SOL    HW247790   4.253   4.368   0.361
11971SOL     OW47791   2.217   2.931  16.791
11971SOL    HW147792   2.126   2.916  16.816
11971SOL    HW247793   2.240   3.015  16.831
11972SOL     OW47794   4.227   1.375   3.055
11972SOL    HW147795   4.257   1.291   3.022
11972SOL    HW247796   4.226   1.365   3.150
11973SOL     OW47797   3.542   2.751   1.573
11973SOL    HW147798   3.631   2.786   1.567
11973SOL    HW247799   3.507   2.789   1.654
11974SOL     OW47800   0.537   3.615  17.280
11974SOL    HW147801   0.619   3.571  17.302
11974SOL    HW247802   0.472   3.575  17.336
11975SOL     OW47803   2.172   3.447   3.753
11975SOL    HW147804   2.142   3.365   3.714
11975SOL    HW247805   2.170   3.432   3.847
11976SOL     OW47806   3.426   1.757  18.493
11976SOL    HW147807   3.369   1.737  18.568
11976SOL    HW247808   3.374   1.731  18.416
11977SOL     OW47809   2.448   2.828   2.783
11977SOL    HW147810   2.382   2.876   2.733
11977SOL    HW247811   2.490   2.771   2.717
11978SOL     OW47812   1.716   3.376  12.893
11978SOL    HW147813   1.674   3.306  12.843
11978SOL    HW247814   1.666   3.380  12.975
11979SOL     OW47815   3.075   0.281   1.352
11979SOL    HW147816   2.998   0.251   1.400
11979SOL    HW247817   3.073   0.231   1.270
11980SOL     OW47818   2.676   0.811   6.726
11980SOL    HW147819   2.613   0.872   6.763
11980SOL    HW247820   2.634   0.777   6.648
11981SOL     OW47821   0.637   0.976  20.576
11981SOL    HW147822   0.601   1.024  20.650
11981SOL    HW247823   0.667   1.043  20.515
11982SOL     OW47824   1.896   3.086  17.275
11982SOL    HW147825   1.832   3.103  17.206
11982SOL    HW247826   1.920   2.994  17.263
11983SOL     OW47827   3.599   1.057  20.340
11983SOL    HW147828   3.521   1.022  20.296
11983SOL    HW247829   3.672   1.034  20.282
11984SOL     OW47830   4.319   3.775   5.577
11984SOL    HW147831   4.264   3.715   5.526
11984SOL    HW247832   4.294   3.758   5.668
11985SOL     OW47833   1.414   0.769  19.321
11985SOL    HW147834   1.496   0.726  19.295
11985SOL    HW247835   1.375   0.799  19.239
11986SOL     OW47836   2.004   3.519  21.058
11986SOL    HW147837   2.065   3.526  20.984
11986SOL    HW247838   2.053   3.468  21.123
11987SOL     OW47839   0.339   3.589   3.381
11987SOL    HW147840   0.284   3.518   3.416
11987SOL    HW247841   0.280   3.664   3.375
11988SOL     OW47842   4.453   3.239  14.304
11988SOL    HW147843   4.423   3.202  14.387
11988SOL    HW247844   4.402   3.320  14.294
11989SOL     OW47845   1.731   2.523   7.295
11989SOL    HW147846   1.652   2.530   7.348
11989SOL    HW247847   1.700   2.520   7.204
11990SOL     OW47848   3.786   2.063  17.472
11990SOL    HW147849   3.817   1.974  17.483
11990SOL    HW247850   3.778   2.097  17.561
11991SOL     OW47851   0.716   1.262   0.197
11991SOL    HW147852   0.753   1.198   0.136
11991SOL    HW247853   0.729   1.347   0.154
11992SOL     OW47854   0.243   1.467   5.307
11992SOL    HW147855   0.273   1.391   5.256
11992SOL    HW247856   0.223   1.533   5.241
11993SOL     OW47857   3.365   3.857   7.570
11993SOL    HW147858   3.361   3.817   7.483
11993SOL    HW247859   3.391   3.948   7.553
11994SOL     OW47860   0.340   4.576  16.516
11994SOL    HW147861   0.384   4.659  16.538
11994SOL    HW247862   0.402   4.508  16.542
11995SOL     OW47863   4.707   1.092  20.985
11995SOL    HW147864   4.704   1.181  20.951
11995SOL    HW247865   4.617   1.060  20.978
11996SOL     OW47866   3.935   3.054  20.395
11996SOL    HW147867   3.873   3.115  20.433
11996SOL    HW247868   3.881   2.990  20.348
11997SOL     OW47869   1.019   2.616  15.536
11997SOL    HW147870   1.049   2.556  15.604
11997SOL    HW247871   1.095   2.629  15.479
11998SOL     OW47872   1.924   1.517   6.413
11998SOL    HW147873   1.920   1.574   6.490
11998SOL    HW247874   1.833   1.502   6.389
11999SOL     OW47875   3.324   4.274  20.036
11999SOL    HW147876   3.310   4.288  20.129
11999SOL    HW247877   3.412   4.237  20.030
12000SOL     OW47878   3.711   0.805  16.195
12000SOL    HW147879   3.690   0.872  16.261
12000SOL    HW247880   3.632   0.797  16.143
12001SOL     OW47881   0.499   0.807   5.739
12001SOL    HW147882   0.590   0.783   5.751
12001SOL    HW247883   0.481   0.868   5.811
12002SOL     OW47884   3.876   0.329   1.950
12002SOL    HW147885   3.933   0.314   1.875
12002SOL    HW247886   3.851   0.241   1.979
12003SOL     OW47887   2.104   0.878  19.498
12003SOL    HW147888   2.084   0.904  19.409
12003SOL    HW247889   2.024   0.899  19.548
12004SOL     OW47890   3.402   1.504   1.127
12004SOL    HW147891   3.398   1.562   1.050
12004SOL    HW247892   3.311   1.491   1.151
12005SOL     OW47893   1.026   1.977   3.223
12005SOL    HW147894   0.947   1.923   3.230
12005SOL    HW247895   1.050   1.996   3.314
12006SOL     OW47896   1.336   2.275   0.955
12006SOL    HW147897   1.336   2.275   0.859
12006SOL    HW247898   1.416   2.322   0.979
12007SOL     OW47899   3.192   3.963   5.802
12007SOL    HW147900   3.111   3.943   5.756
12007SOL    HW247901   3.176   4.048   5.844
12008SOL     OW47902   3.764   3.713   1.683
12008SOL    HW147903   3.751   3.674   1.597
12008SOL    HW247904   3.687   3.687   1.733
12009SOL     OW47905   4.419   2.286  15.678
12009SOL    HW147906   4.349   2.301  15.614
12009SOL    HW247907   4.497   2.326  15.638
12010SOL     OW47908   1.120   4.364  13.640
12010SOL    HW147909   1.106   4.448  13.596
12010SOL    HW247910   1.166   4.386  13.721
12011SOL     OW47911   1.830   0.950   2.961
12011SOL    HW147912   1.890   0.891   2.915
12011SOL    HW247913   1.834   1.032   2.912
12012SOL     OW47914   4.467   0.432  15.787
12012SOL    HW147915   4.514   0.470  15.861
12012SOL    HW247916   4.525   0.446  15.712
12013SOL     OW47917   1.226   3.269  15.672
12013SOL    HW147918   1.244   3.185  15.716
12013SOL    HW247919   1.269   3.334  15.727
12014SOL     OW47920   3.612   1.637   0.882
12014SOL    HW147921   3.587   1.717   0.929
12014SOL    HW247922   3.617   1.664   0.791
12015SOL     OW47923   2.744   2.973   6.675
12015SOL    HW147924   2.821   2.925   6.646
12015SOL    HW247925   2.737   2.953   6.769
12016SOL     OW47926   0.946   0.671   5.248
12016SOL    HW147927   0.950   0.585   5.207
12016SOL    HW247928   1.027   0.677   5.300
12017SOL     OW47929   0.118   4.588   2.366
12017SOL    HW147930   0.136   4.669   2.415
12017SOL    HW247931   0.030   4.599   2.332
12018SOL     OW47932   4.654   1.681   3.294
12018SOL    HW147933   4.733   1.632   3.274
12018SOL    HW247934   4.615   1.702   3.209
12019SOL     OW47935   2.805   0.840  14.733
12019SOL    HW147936   2.820   0.902  14.804
12019SOL    HW247937   2.885   0.788  14.729
12020SOL     OW47938   2.517   3.319   3.549
12020SOL    HW147939   2.448   3.260   3.579
12020SOL    HW247940   2.556   3.354   3.630
12021SOL     OW47941   2.228   4.270  18.164
12021SOL    HW147942   2.270   4.327  18.229
12021SOL    HW247943   2.135   4.275  18.184
12022SOL     OW47944   4.517   2.610  17.262
12022SOL    HW147945   4.536   2.636  17.172
12022SOL    HW247946   4.455   2.537  17.254
12023SOL     OW47947   1.171   1.061   3.552
12023SOL    HW147948   1.179   1.092   3.643
12023SOL    HW247949   1.260   1.035   3.528
12024SOL     OW47950   2.183   3.260   3.222
12024SOL    HW147951   2.250   3.216   3.170
12024SOL    HW247952   2.103   3.211   3.204
12025SOL     OW47953   3.814   0.135   2.687
12025SOL    HW147954   3.823   0.075   2.761
12025SOL    HW247955   3.743   0.099   2.635
12026SOL     OW47956   0.482   0.192  18.094
12026SOL    HW147957   0.458   0.235  18.176
12026SOL    HW247958   0.555   0.135  18.118
12027SOL     OW47959   4.216   2.359   5.000
12027SOL    HW147960   4.300   2.364   5.045
12027SOL    HW247961   4.224   2.281   4.944
12028SOL     OW47962   1.134   0.958  15.408
12028SOL    HW147963   1.130   0.962  15.312
12028SOL    HW247964   1.226   0.940  15.427
12029SOL     OW47965   2.724   0.177  17.750
12029SOL    HW147966   2.805   0.126  17.740
12029SOL    HW247967   2.699   0.164  17.842
12030SOL     OW47968   0.597   2.477  18.260
12030SOL    HW147969   0.608   2.567  18.290
12030SOL    HW247970   0.535   2.439  18.322
12031SOL     OW47971   3.172   1.030   1.199
12031SOL    HW147972   3.252   0.978   1.193
12031SOL    HW247973   3.103   0.970   1.169
12032SOL     OW47974   3.932   1.071  17.502
12032SOL    HW147975   3.969   1.051  17.416
12032SOL    HW247976   3.998   1.126  17.544
12033SOL     OW47977   4.114   1.384  17.432
12033SOL    HW147978   4.195   1.399  17.382
12033SOL    HW247979   4.134   1.307  17.486
12034SOL     OW47980   1.367   2.381  16.342
12034SOL    HW147981   1.313   2.377  16.264
12034SOL    HW247982   1.456   2.367  16.310
12035SOL     OW47983   0.392   1.795  15.831
12035SOL    HW147984   0.378   1.765  15.741
12035SOL    HW247985   0.322   1.754  15.881
12036SOL     OW47986   4.432   2.899  17.091
12036SOL    HW147987   4.424   2.860  17.178
12036SOL    HW247988   4.527   2.905  17.077
12037SOL     OW47989   3.901   0.166  19.847
12037SOL    HW147990   3.870   0.111  19.919
12037SOL    HW247991   3.979   0.123  19.814
12038SOL     OW47992   3.330   1.671   2.037
12038SOL    HW147993   3.391   1.704   2.103
12038SOL    HW247994   3.369   1.590   2.006
12039SOL     OW47995   2.223   1.388  21.085
12039SOL    HW147996   2.145   1.357  21.040
12039SOL    HW247997   2.253   1.312  21.136
12040SOL     OW47998   3.781   0.040  18.119
12040SOL    HW147999   3.765   0.006  18.207
12040SOL    HW248000   3.721   0.115  18.111
12041SOL     OW48001   0.264   2.755  15.752
12041SOL    HW148002   0.217   2.786  15.675
12041SOL    HW248003   0.279   2.833  15.804
12042SOL     OW48004   3.445   3.910  16.073
12042SOL    HW148005   3.404   3.901  16.158
12042SOL    HW248006   3.378   3.949  16.017
12043SOL     OW48007   3.934   4.022   4.930
12043SOL    HW148008   4.008   4.019   4.991
12043SOL    HW248009   3.967   4.073   4.855
12044SOL     OW48010   4.428   3.724  16.039
12044SOL    HW148011   4.475   3.642  16.026
12044SOL    HW248012   4.498   3.790  16.046
12045SOL     OW48013   0.198   4.124   6.416
12045SOL    HW148014   0.248   4.143   6.337
12045SOL    HW248015   0.110   4.102   6.384
12046SOL     OW48016   4.436   1.262  12.322
12046SOL    HW148017   4.475   1.341  12.360
12046SOL    HW248018   4.489   1.190  12.356
12047SOL     OW48019   2.705   1.873  19.448
12047SOL    HW148020   2.693   1.955  19.496
12047SOL    HW248021   2.617   1.849  19.419
12048SOL     OW48022   1.429   4.747  16.226
12048SOL    HW148023   1.483   4.683  16.273
12048SOL    HW248024   1.429   0.033  16.282
12049SOL     OW48025   0.774   0.512   7.394
12049SOL    HW148026   0.760   0.473   7.308
12049SOL    HW248027   0.708   0.471   7.450
12050SOL     OW48028   4.374   1.889  18.843
12050SOL    HW148029   4.420   1.809  18.869
12050SOL    HW248030   4.375   1.943  18.923
12051SOL     OW48031   3.336   1.068   1.442
12051SOL    HW148032   3.306   1.138   1.500
12051SOL    HW248033   3.301   1.091   1.356
12052SOL     OW48034   1.022   1.508  16.183
12052SOL    HW148035   1.099   1.503  16.126
12052SOL    HW248036   1.049   1.464  16.263
12053SOL     OW48037   0.035   2.150  19.858
12053SOL    HW148038   0.001   2.234  19.887
12053SOL    HW248039   0.067   2.166  19.769
12054SOL     OW48040   2.102   2.396  16.329
12054SOL    HW148041   2.130   2.310  16.362
12054SOL    HW248042   2.134   2.399  16.239
12055SOL     OW48043   2.614   4.527  17.444
12055SOL    HW148044   2.537   4.567  17.404
12055SOL    HW248045   2.579   4.471  17.513
12056SOL     OW48046   2.804   2.157  16.973
12056SOL    HW148047   2.748   2.233  16.953
12056SOL    HW248048   2.873   2.193  17.028
12057SOL     OW48049   4.749   3.744   2.737
12057SOL    HW148050   4.674   3.734   2.678
12057SOL    HW248051   4.787   3.829   2.712
12058SOL     OW48052   2.750   1.845   4.307
12058SOL    HW148053   2.697   1.789   4.250
12058SOL    HW248054   2.775   1.788   4.380
12059SOL     OW48055   3.937   0.687   7.185
12059SOL    HW148056   4.029   0.713   7.173
12059SOL    HW248057   3.908   0.659   7.098
12060SOL     OW48058   0.779   3.810  19.413
12060SOL    HW148059   0.764   3.732  19.360
12060SOL    HW248060   0.693   3.850  19.422
12061SOL     OW48061   4.465   3.168  19.620
12061SOL    HW148062   4.538   3.209  19.574
12061SOL    HW248063   4.416   3.123  19.552
12062SOL     OW48064   1.247   3.187   3.667
12062SOL    HW148065   1.262   3.256   3.732
12062SOL    HW248066   1.307   3.117   3.693
12063SOL     OW48067   1.831   4.298  12.317
12063SOL    HW148068   1.810   4.330  12.404
12063SOL    HW248069   1.920   4.264  12.325
12064SOL     OW48070   1.783   2.723  16.863
12064SOL    HW148071   1.723   2.700  16.793
12064SOL    HW248072   1.842   2.648  16.870
12065SOL     OW48073   3.306   2.131  18.339
12065SOL    HW148074   3.383   2.135  18.396
12065SOL    HW248075   3.290   2.222  18.314
12066SOL     OW48076   0.560   1.304   3.435
12066SOL    HW148077   0.631   1.239   3.437
12066SOL    HW248078   0.537   1.317   3.527
12067SOL     OW48079   3.697   2.444   2.623
12067SOL    HW148080   3.640   2.377   2.586
12067SOL    HW248081   3.703   2.511   2.554
12068SOL     OW48082   4.100   4.636   1.423
12068SOL    HW148083   4.173   4.610   1.367
12068SOL    HW248084   4.100   4.572   1.493
12069SOL     OW48085   1.879   2.950   3.499
12069SOL    HW148086   1.937   3.025   3.510
12069SOL    HW248087   1.933   2.874   3.519
12070SOL     OW48088   4.473   2.583   4.075
12070SOL    HW148089   4.449   2.669   4.112
12070SOL    HW248090   4.500   2.532   4.151
12071SOL     OW48091   0.118   3.751  16.395
12071SOL    HW148092   0.165   3.834  16.403
12071SOL    HW248093   0.120   3.714  16.483
12072SOL     OW48094   3.676   1.700  15.642
12072SOL    HW148095   3.634   1.733  15.563
12072SOL    HW248096   3.709   1.614  15.618
12073SOL     OW48097   2.039   2.684  16.535
12073SOL    HW148098   1.945   2.699  16.540
12073SOL    HW248099   2.057   2.679  16.441
12074SOL     OW48100   2.947   1.834  18.991
12074SOL    HW148101   3.033   1.863  19.021
12074SOL    HW248102   2.903   1.802  19.070
12075SOL     OW48103   2.135   1.236   6.868
12075SOL    HW148104   2.201   1.253   6.802
12075SOL    HW248105   2.085   1.317   6.875
12076SOL     OW48106   3.875   0.278   5.617
12076SOL    HW148107   3.842   0.339   5.683
12076SOL    HW248108   3.883   0.331   5.537
12077SOL     OW48109   2.661   2.937   5.442
12077SOL    HW148110   2.635   2.870   5.506
12077SOL    HW248111   2.703   3.005   5.495
12078SOL     OW48112   3.834   1.847   1.189
12078SOL    HW148113   3.751   1.802   1.207
12078SOL    HW248114   3.815   1.940   1.203
12079SOL     OW48115   3.079   2.010  20.267
12079SOL    HW148116   3.008   2.066  20.299
12079SOL    HW248117   3.158   2.047  20.307
12080SOL     OW48118   1.428   1.610   0.504
12080SOL    HW148119   1.356   1.672   0.493
12080SOL    HW248120   1.506   1.658   0.478
12081SOL     OW48121   1.807   2.003   5.550
12081SOL    HW148122   1.798   2.039   5.639
12081SOL    HW248123   1.724   1.958   5.534
12082SOL     OW48124   2.587   2.473  17.467
12082SOL    HW148125   2.583   2.409  17.396
12082SOL    HW248126   2.679   2.478  17.491
12083SOL     OW48127   1.982   2.823  18.448
12083SOL    HW148128   1.968   2.802  18.356
12083SOL    HW248129   2.028   2.747  18.483
12084SOL     OW48130   3.568   0.403   1.593
12084SOL    HW148131   3.531   0.453   1.520
12084SOL    HW248132   3.642   0.357   1.556
12085SOL     OW48133   0.739   3.804  18.717
12085SOL    HW148134   0.736   3.751  18.637
12085SOL    HW248135   0.760   3.743  18.787
12086SOL     OW48136   3.055   1.707  15.122
12086SOL    HW148137   2.963   1.729  15.137
12086SOL    HW248138   3.055   1.612  15.112
12087SOL     OW48139   4.776   0.925  21.255
12087SOL    HW148140   4.788   0.839  21.215
12087SOL    HW248141   0.053   0.980  21.217
12088NA      NA48142   3.909   3.518   3.051
12089CL      CL48143   1.340   4.088   3.020
   4.79100   4.79100  21.26305
